Title
43194
    1CHL1    C3    1   3.348   0.825   5.860  0.5613 -0.1876  0.8420
    1CHL1    H3    2   3.442   0.883   5.844  0.2484  0.8311  2.4346
    1CHL1    O3    3   3.347   0.806   5.995  0.2262 -0.6897  0.0862
    1CHL1   H3'    4   3.432   0.825   6.035 -0.5506 -0.7216  1.8478
    1CHL1    C4    5   3.217   0.902   5.821 -0.3918  0.3156 -0.6105
    1CHL1   H4A    6   3.131   0.837   5.848  1.0160 -0.8437  1.4023
    1CHL1   H4B    7   3.214   0.993   5.885  2.2954  0.8295 -1.1127
    1CHL1    C5    8   3.231   0.936   5.672 -0.1410 -0.6007  0.3623
    1CHL1    C6    9   3.238   1.062   5.633  0.4987 -0.4794 -0.0957
    1CHL1    H6   10   3.225   1.139   5.711  0.7803  0.8183 -1.2994
    1CHL1    C7   11   3.244   1.094   5.489 -0.2651 -0.2664 -0.5290
    1CHL1   H7A   12   3.164   1.166   5.463 -0.9275 -0.3098  1.2274
    1CHL1   H7B   13   3.342   1.145   5.480  0.0366 -0.9228 -1.0517
    1CHL1    C8   14   3.232   0.984   5.386 -0.2353 -0.2209 -0.4175
    1CHL1    H8   15   3.123   0.964   5.379 -0.4505 -0.4072  2.4476
    1CHL1   C14   16   3.291   1.022   5.253  0.0639  0.1774  0.3775
    1CHL1   H14   17   3.396   1.053   5.273  0.4547 -1.0487  0.2926
    1CHL1   C15   18   3.236   1.142   5.180  0.7477 -0.5459 -0.4077
    1CHL1  H15A   19   3.125   1.147   5.180  0.7348  1.6320  1.7926
    1CHL1  H15B   20   3.277   1.238   5.218  0.1396  0.0810 -1.3005
    1CHL1   C16   21   3.280   1.119   5.036 -0.3656  0.0865 -0.0175
    1CHL1  H16A   22   3.197   1.112   4.962  1.1542 -0.7537 -1.7234
    1CHL1  H16B   23   3.353   1.189   4.991  0.2989 -0.1207  0.7307
    1CHL1   C17   24   3.350   0.978   5.029  0.8910 -0.5263  0.0579
    1CHL1   H17   25   3.457   0.992   5.056  0.0081 -0.1595  4.1227
    1CHL1   C13   26   3.290   0.909   5.151 -0.3610 -0.1124  0.5590
    1CHL1   C18   27   3.136   0.882   5.115  0.6252 -0.0560 -0.6425
    1CHL1  H18A   28   3.074   0.841   5.196 -0.2298 -1.4378 -1.9437
    1CHL1  H18B   29   3.084   0.973   5.078  1.3282 -0.8884 -4.1286
    1CHL1  H18C   30   3.134   0.796   5.045  0.1771  0.0889 -0.8095
    1CHL1   C12   31   3.362   0.786   5.210  0.5495  0.1173 -0.1047
    1CHL1  H12A   32   3.369   0.708   5.131 -0.2149 -0.6054  0.5176
    1CHL1  H12B   33   3.466   0.819   5.232  0.2249  0.5651  0.8331
    1CHL1   C11   34   3.294   0.742   5.336  0.3419  0.0428  0.0283
    1CHL1  H11A   35   3.192   0.706   5.312  0.7466 -0.5656 -0.8124
    1CHL1  H11B   36   3.355   0.658   5.374  0.7397  1.0622  1.7625
    1CHL1    C9   37   3.297   0.854   5.434  0.1684  0.1478 -0.6427
    1CHL1    H9   38   3.402   0.884   5.453 -1.3334  4.4327  2.6720
    1CHL1   C10   39   3.257   0.813   5.576  0.5293  0.5536  0.2922
    1CHL1   C19   40   3.110   0.753   5.575 -0.7349  0.7671  0.1232
    1CHL1  H19A   41   3.069   0.749   5.678  0.3468  0.7787  0.5668
    1CHL1  H19B   42   3.044   0.820   5.515 -0.1010  0.9855 -0.3455
    1CHL1  H19C   43   3.119   0.651   5.532  0.8072  0.7327  0.4710
    1CHL1    C1   44   3.357   0.710   5.632  0.3538  0.2973 -0.3673
    1CHL1   H1A   45   3.361   0.618   5.570  2.0948 -1.3109  1.9573
    1CHL1   H1B   46   3.458   0.757   5.635  1.1639 -1.3932 -0.2591
    1CHL1    C2   47   3.353   0.692   5.790 -0.5124 -0.0827  0.5451
    1CHL1   H2A   48   3.453   0.653   5.820  0.6013  2.0446 -0.2025
    1CHL1   H2B   49   3.274   0.618   5.812 -1.2878  0.4831 -0.2734
    1CHL1   C20   50   3.345   0.911   4.897 -0.0255 -0.2237  0.3504
    1CHL1   H20   51   3.244   0.872   4.875  0.0619 -0.3927  0.2472
    1CHL1   C21   52   3.460   0.810   4.892  0.3374  0.1027 -0.1972
    1CHL1  H21A   53   3.559   0.860   4.888 -0.5662  1.9392 -0.5647
    1CHL1  H21B   54   3.444   0.740   4.807 -0.5450 -1.2113  1.0069
    1CHL1  H21C   55   3.470   0.732   4.971 -0.6387  0.7279  0.5694
    1CHL1   C22   56   3.380   1.010   4.777  0.3568 -0.0222 -0.3252
    1CHL1  H22A   57   3.297   1.084   4.775 -0.7031 -1.1356 -3.4209
    1CHL1  H22B   58   3.471   1.071   4.798 -0.6324  0.7394  2.0867
    1CHL1   C23   59   3.386   0.943   4.632 -0.9255 -0.3640  0.1094
    1CHL1  H23A   60   3.471   0.873   4.628 -1.8037 -1.4893  0.5232
    1CHL1  H23B   61   3.300   0.873   4.625 -2.4310  1.4388 -0.1639
    1CHL1   C24   62   3.385   1.055   4.526  0.1733  0.0794 -0.6431
    1CHL1  H24A   63   3.297   1.121   4.541 -0.2538 -0.3413 -1.2349
    1CHL1  H24B   64   3.478   1.116   4.527  0.0026  0.4423 -2.4894
    1CHL1   C25   65   3.384   1.013   4.376 -0.0935  0.4100 -0.7135
    1CHL1   H25   66   3.306   0.935   4.359 -0.0296  0.1598  0.1100
    1CHL1   C26   67   3.364   1.136   4.286  0.1397 -0.6010 -0.0830
    1CHL1  H26A   68   3.444   1.212   4.291 -1.1190  0.8339 -0.6897
    1CHL1  H26B   69   3.366   1.105   4.179 -1.1736 -2.3885  0.3597
    1CHL1  H26C   70   3.261   1.175   4.301 -0.5365 -2.0707 -0.6508
    1CHL1   C27   71   3.508   0.938   4.340  0.1545 -0.1346  0.0692
    1CHL1  H27A   72   3.600   0.998   4.359  0.4865 -1.0440  1.5482
    1CHL1  H27B   73   3.538   0.846   4.395 -0.8846 -0.7999 -0.4576
    1CHL1  H27C   74   3.501   0.909   4.233 -0.1402 -0.4321  0.1680
    2CHL1    C3   75   5.524   0.708   6.114  0.5071  0.1561 -0.9875
    2CHL1    H3   76   5.476   0.610   6.094 -1.3773  1.2336 -1.9690
    2CHL1    O3   77   5.500   0.729   6.253 -0.4070 -0.2162  0.4928
    2CHL1   H3'   78   5.547   0.662   6.302 -1.2980 -0.1695  1.4627
    2CHL1    C4   79   5.675   0.696   6.091  0.0340 -0.1499  0.6112
    2CHL1   H4A   80   5.729   0.790   6.115  0.0969  0.0446 -0.2696
    2CHL1   H4B   81   5.718   0.617   6.156 -0.4445 -1.2285 -0.3607
    2CHL1    C5   82   5.697   0.658   5.945 -0.7747  0.2052 -0.3830
    2CHL1    C6   83   5.751   0.540   5.911 -1.2313 -0.3448 -0.4002
    2CHL1    H6   84   5.791   0.470   5.986  0.7509 -0.5338 -1.5610
    2CHL1    C7   85   5.773   0.492   5.776 -0.8850  0.2265 -0.3924
    2CHL1   H7A   86   5.879   0.460   5.769 -0.9723 -0.2555  0.3964
    2CHL1   H7B   87   5.712   0.402   5.752 -0.7110  0.0033  0.0015
    2CHL1    C8   88   5.771   0.602   5.673 -0.8383 -0.1213  0.0678
    2CHL1    H8   89   5.863   0.662   5.682  0.4246 -1.9026 -0.3660
    2CHL1   C14   90   5.758   0.546   5.531 -0.3989  0.4697 -0.2325
    2CHL1   H14   91   5.669   0.481   5.539 -0.5010  0.7153  0.6777
    2CHL1   C15   92   5.862   0.446   5.485 -0.5543 -0.4033  0.0943
    2CHL1  H15A   93   5.962   0.484   5.514  1.1523 -3.7545 -0.8381
    2CHL1  H15B   94   5.851   0.345   5.530  0.0668 -0.6602 -0.3255
    2CHL1   C16   95   5.845   0.435   5.329 -1.0042  0.3381 -1.3001
    2CHL1  H16A   96   5.945   0.463   5.289 -0.2825  2.5320  1.6728
    2CHL1  H16B   97   5.808   0.335   5.295 -0.1618 -0.7604  0.8060
    2CHL1   C17   98   5.750   0.547   5.291 -0.5441 -0.1994  0.1683
    2CHL1   H17   99   5.648   0.501   5.287 -0.4837 -0.2644 -1.2582
    2CHL1   C13  100   5.745   0.643   5.413 -0.2011  1.0192 -0.6273
    2CHL1   C18  101   5.878   0.732   5.402 -1.0640 -0.6184 -0.3889
    2CHL1  H18A  102   5.875   0.803   5.316  0.8064 -0.3511 -0.2692
    2CHL1  H18B  103   5.891   0.793   5.493  0.4382  1.1891 -1.7400
    2CHL1  H18C  104   5.969   0.670   5.382 -0.4029  1.0163 -2.8861
    2CHL1   C12  105   5.619   0.716   5.441 -0.0704  0.4310  0.4691
    2CHL1  H12A  106   5.596   0.787   5.359  1.6548 -1.5557 -1.8503
    2CHL1  H12B  107   5.543   0.635   5.438  0.8372 -0.4623  1.1285
    2CHL1   C11  108   5.623   0.783   5.575 -0.2444  0.3183 -0.4880
    2CHL1  H11A  109   5.694   0.868   5.587  0.4064 -0.3491  0.6258
    2CHL1  H11B  110   5.525   0.834   5.591 -0.1017  0.5975 -0.5058
    2CHL1    C9  111   5.644   0.685   5.699  0.3217  0.4323  0.1959
    2CHL1    H9  112   5.569   0.605   5.686 -0.1291  0.8097  0.4343
    2CHL1   C10  113   5.636   0.747   5.840 -0.8665 -0.2398  0.7036
    2CHL1   C19  114   5.720   0.877   5.835 -0.8334 -0.0995 -0.0651
    2CHL1  H19A  115   5.754   0.922   5.930  1.3423  1.9153 -1.6993
    2CHL1  H19B  116   5.815   0.863   5.779  0.0491  1.1404  1.0643
    2CHL1  H19C  117   5.663   0.957   5.783 -1.5003 -1.8682 -2.2432
    2CHL1    C1  118   5.490   0.784   5.877 -0.4096 -0.2628 -0.7110
    2CHL1   H1A  119   5.470   0.882   5.828  3.3167  1.1421  0.2471
    2CHL1   H1B  120   5.418   0.712   5.832 -2.7811  1.1798  0.5209
    2CHL1    C2  121   5.461   0.818   6.024  0.8353  0.8893  0.1082
    2CHL1   H2A  122   5.352   0.806   6.042  0.8113 -2.8029 -1.5061
    2CHL1   H2B  123   5.505   0.912   6.065  1.8656  0.7857 -0.7283
    2CHL1   C20  124   5.778   0.598   5.146 -0.0847 -0.3279 -0.7610
    2CHL1   H20  125   5.886   0.623   5.140  0.3701 -1.6011  1.2955
    2CHL1   C21  126   5.689   0.717   5.105 -0.1949  0.1744  0.4577
    2CHL1  H21A  127   5.582   0.693   5.125  0.1723 -2.2748 -0.1480
    2CHL1  H21B  128   5.685   0.741   4.997 -1.7280  1.5820  0.7881
    2CHL1  H21C  129   5.719   0.808   5.160  1.6133 -0.7230  1.0219
    2CHL1   C22  130   5.749   0.477   5.054 -1.0001  0.0873  0.3770
    2CHL1  H22A  131   5.807   0.387   5.086 -0.2257  0.1348 -0.8367
    2CHL1  H22B  132   5.639   0.465   5.058 -1.3424  2.6120  0.0509
    2CHL1   C23  133   5.805   0.495   4.908  0.9543  0.4077 -0.2720
    2CHL1  H23A  134   5.760   0.584   4.859  0.0109  0.2906  0.3671
    2CHL1  H23B  135   5.913   0.523   4.914  0.7307  1.5744 -1.3997
    2CHL1   C24  136   5.771   0.375   4.818  0.0916 -0.2955  0.1593
    2CHL1  H24A  137   5.826   0.287   4.858 -0.2465  0.3375  2.1336
    2CHL1  H24B  138   5.661   0.358   4.817  0.0276  0.1142 -0.6157
    2CHL1   C25  139   5.790   0.406   4.668 -0.4937  0.7040  0.5137
    2CHL1   H25  140   5.739   0.495   4.626  0.1227 -0.3761 -2.7809
    2CHL1   C26  141   5.935   0.445   4.631 -0.4814  1.0207 -0.1871
    2CHL1  H26A  142   5.954   0.438   4.522  1.9666  0.4928  0.2021
    2CHL1  H26B  143   5.944   0.555   4.645  0.1135  1.0847 -1.0072
    2CHL1  H26C  144   6.013   0.387   4.685  1.8679  2.6768 -1.6141
    2CHL1   C27  145   5.760   0.285   4.576  0.0830 -0.4043 -0.8206
    2CHL1  H27A  146   5.826   0.198   4.598  2.4412  1.2211 -1.0419
    2CHL1  H27B  147   5.655   0.252   4.590 -0.3430  1.6193  1.2106
    2CHL1  H27C  148   5.775   0.312   4.469 -0.3968 -0.1443 -0.8240
    3CHL1    C3  149   6.189   0.640   6.235 -0.0471  0.3594 -0.9201
    3CHL1    H3  150   6.266   0.562   6.257 -0.4033  0.0019 -0.9359
    3CHL1    O3  151   6.139   0.657   6.375 -0.2147 -0.7180  0.3122
    3CHL1   H3'  152   6.050   0.692   6.370  0.1858  0.5091  1.4361
    3CHL1    C4  153   6.251   0.768   6.195  0.5597 -1.0685  0.2055
    3CHL1   H4A  154   6.179   0.849   6.220 -2.5174 -3.5177 -0.1133
    3CHL1   H4B  155   6.335   0.791   6.264  1.5483  0.1769 -1.3668
    3CHL1    C5  156   6.298   0.761   6.049  0.1518 -0.4396 -0.3911
    3CHL1    C6  157   6.424   0.810   6.027  0.1411 -0.2725  1.1363
    3CHL1    H6  158   6.490   0.857   6.102 -0.2486 -1.0500  1.9815
    3CHL1    C7  159   6.485   0.804   5.885 -0.8534  0.1255  0.2294
    3CHL1   H7A  160   6.541   0.897   5.859 -0.1171 -0.5242 -0.5685
    3CHL1   H7B  161   6.554   0.718   5.876 -1.8215 -0.5808 -0.7582
    3CHL1    C8  162   6.377   0.780   5.775  0.1153 -0.4804  0.1417
    3CHL1    H8  163   6.335   0.882   5.761  3.6895  1.0606 -0.6585
    3CHL1   C14  164   6.444   0.750   5.642  0.2787 -0.7927  0.1095
    3CHL1   H14  165   6.477   0.647   5.665  0.2278 -0.1193  3.7913
    3CHL1   C15  166   6.551   0.838   5.589  0.0522  0.3620  0.2054
    3CHL1  H15A  167   6.520   0.944   5.601 -1.9540 -0.4461  3.2977
    3CHL1  H15B  168   6.647   0.813   5.638 -0.3583 -4.0717 -0.8362
    3CHL1   C16  169   6.555   0.817   5.439 -0.6072 -0.3524  0.8761
    3CHL1  H16A  170   6.533   0.912   5.386 -1.5095 -0.4964  0.9704
    3CHL1  H16B  171   6.652   0.784   5.397 -0.2173 -0.5317  1.8733
    3CHL1   C17  172   6.440   0.722   5.405  0.4662 -0.7833 -0.0953
    3CHL1   H17  173   6.491   0.625   5.419  2.0074 -0.2268 -1.4792
    3CHL1   C13  174   6.344   0.737   5.527 -0.3158 -0.5961  0.4234
    3CHL1   C18  175   6.265   0.870   5.498  0.2574  0.0145  0.0049
    3CHL1  H18A  176   6.328   0.961   5.503  0.6300 -0.2585  0.4082
    3CHL1  H18B  177   6.212   0.872   5.400  1.2205 -1.5308 -0.5939
    3CHL1  H18C  178   6.195   0.874   5.584 -1.6340  0.2979 -1.4843
    3CHL1   C12  179   6.260   0.614   5.559  0.5130 -0.6456 -0.5934
    3CHL1  H12A  180   6.186   0.585   5.481  1.4233 -1.9081 -1.0235
    3CHL1  H12B  181   6.325   0.526   5.578  0.7565 -0.4097 -0.3232
    3CHL1   C11  182   6.186   0.641   5.694 -0.2723 -0.0589  0.5168
    3CHL1  H11A  183   6.121   0.728   5.672 -1.0263  0.0507  2.9154
    3CHL1  H11B  184   6.122   0.551   5.706 -0.5851 -0.3838 -2.7418
    3CHL1    C9  185   6.279   0.673   5.811  0.1140  0.4998  0.2556
    3CHL1    H9  186   6.335   0.582   5.842 -0.4056  0.3860  0.8932
    3CHL1   C10  187   6.203   0.708   5.946  0.5474 -0.2570  0.0717
    3CHL1   C19  188   6.093   0.815   5.925  0.1153 -0.4117 -0.0201
    3CHL1  H19A  189   6.136   0.908   5.883 -0.4959 -0.2627 -0.3381
    3CHL1  H19B  190   6.025   0.792   5.841  1.4853 -0.5432 -1.1235
    3CHL1  H19C  191   6.044   0.847   6.020 -0.5088 -2.6079  0.4768
    3CHL1    C1  192   6.136   0.582   6.001 -0.1577  0.0580 -0.2808
    3CHL1   H1A  193   6.049   0.566   5.935  0.0059 -1.1871 -0.2119
    3CHL1   H1B  194   6.206   0.497   5.987  0.2683 -0.4747  3.7845
    3CHL1    C2  195   6.081   0.582   6.145  0.6566 -0.3841 -0.4193
    3CHL1   H2A  196   6.037   0.483   6.170 -1.1154  0.5361  0.3542
    3CHL1   H2B  197   5.989   0.645   6.155  0.8293 -0.3650  1.4960
    3CHL1   C20  198   6.400   0.735   5.254  0.7089 -0.3921 -0.3875
    3CHL1   H20  199   6.327   0.818   5.251  1.4604  0.6192  3.3605
    3CHL1   C21  200   6.326   0.609   5.214 -0.2920 -0.2910 -0.2994
    3CHL1  H21A  201   6.390   0.518   5.219 -0.5447 -0.4364  0.2807
    3CHL1  H21B  202   6.284   0.617   5.111 -0.4255  1.5201 -0.1206
    3CHL1  H21C  203   6.241   0.593   5.283 -1.5890  2.1505 -1.2341
    3CHL1   C22  204   6.512   0.748   5.153 -0.0458 -0.4270  0.0800
    3CHL1  H22A  205   6.591   0.822   5.180 -0.3511  0.3564 -1.0832
    3CHL1  H22B  206   6.572   0.655   5.141  1.5569  0.3722  1.5238
    3CHL1   C23  207   6.474   0.789   5.015  0.2053  0.1143 -0.4473
    3CHL1  H23A  208   6.394   0.726   4.969 -1.5145  3.5359 -2.6059
    3CHL1  H23B  209   6.430   0.892   5.016 -0.7715 -0.2919 -0.2689
    3CHL1   C24  210   6.589   0.794   4.916  0.8166  0.3227 -0.0524
    3CHL1  H24A  211   6.663   0.865   4.958  1.2427 -0.5468  0.6871
    3CHL1  H24B  212   6.628   0.690   4.918 -0.2325 -0.3502  6.0208
    3CHL1   C25  213   6.529   0.831   4.778 -0.4510  0.2849  0.0431
    3CHL1   H25  214   6.451   0.755   4.756  1.8642 -2.1036 -0.5456
    3CHL1   C26  215   6.468   0.978   4.771 -1.0729 -0.1576  0.2001
    3CHL1  H26A  216   6.396   1.006   4.851 -1.6197  0.5589 -0.5131
    3CHL1  H26B  217   6.547   1.056   4.768  0.0078 -1.2616 -0.6725
    3CHL1  H26C  218   6.409   0.984   4.676  1.1686  2.7241 -1.1874
    3CHL1   C27  219   6.632   0.808   4.676 -0.2832  0.9987 -0.2909
    3CHL1  H27A  220   6.625   0.856   4.576  1.7044  0.6642 -0.6244
    3CHL1  H27B  221   6.730   0.842   4.717 -0.2982  0.5058  0.1662
    3CHL1  H27C  222   6.648   0.699   4.661 -1.1845  0.8729 -0.3686
    4CHL1    C3  223   4.818   0.984   5.819 -0.1594  0.0037  0.7115
    4CHL1    H3  224   4.859   0.880   5.816 -0.9561 -0.2997  0.1092
    4CHL1    O3  225   4.797   1.008   5.955  0.1967  0.1392  0.1653
    4CHL1   H3'  226   4.740   0.944   5.999 -2.5811  0.3766 -2.6974
    4CHL1    C4  227   4.904   1.087   5.750  0.4274  0.3530  0.1694
    4CHL1   H4A  228   4.863   1.190   5.756 -1.6809 -0.3226 -1.4852
    4CHL1   H4B  229   4.994   1.119   5.806 -0.6311  1.2623  1.4223
    4CHL1    C5  230   4.924   1.061   5.603  0.0519 -0.2177 -0.6264
    4CHL1    C6  231   5.045   1.064   5.554 -0.7583 -0.0691 -0.3381
    4CHL1    H6  232   5.132   1.081   5.620 -0.2817 -0.4932 -0.8439
    4CHL1    C7  233   5.068   1.034   5.409  0.5820  0.9477 -0.3864
    4CHL1   H7A  234   5.142   1.108   5.371  1.6426  0.5543  0.8490
    4CHL1   H7B  235   5.111   0.933   5.389  0.7580  0.7977  0.6722
    4CHL1    C8  236   4.950   1.042   5.315 -0.0471 -0.3523 -0.2941
    4CHL1    H8  237   4.917   1.148   5.318  0.2547 -0.2554 -0.2983
    4CHL1   C14  238   4.984   0.983   5.179  0.3659 -0.6613  0.0102
    4CHL1   H14  239   5.003   0.876   5.200  0.4963 -0.3243  1.7546
    4CHL1   C15  240   5.110   1.026   5.107 -0.0196  0.4631  0.1430
    4CHL1  H15A  241   5.115   1.135   5.124  0.4306  0.3410  0.8150
    4CHL1  H15B  242   5.192   0.978   5.165 -0.7402  0.1966  0.9586
    4CHL1   C16  243   5.089   0.988   4.962  0.4118  0.0694  1.2497
    4CHL1  H16A  244   5.114   1.068   4.889 -0.6423  0.8031  1.6629
    4CHL1  H16B  245   5.159   0.907   4.931  1.6897  0.9137  1.8449
    4CHL1   C17  246   4.936   0.946   4.951 -0.3574  0.1490 -0.2812
    4CHL1   H17  247   4.935   0.837   4.972 -0.1061  0.4596  1.4792
    4CHL1   C13  248   4.868   1.004   5.079  0.2839 -0.6627 -0.4825
    4CHL1   C18  249   4.853   1.153   5.045  0.5202 -0.4015  0.2182
    4CHL1  H18A  250   4.937   1.192   4.984  0.0131  0.3634 -0.0015
    4CHL1  H18B  251   4.758   1.166   4.988 -0.4855 -1.7739  1.4944
    4CHL1  H18C  252   4.843   1.207   5.141  0.5657 -0.4248  0.2361
    4CHL1   C12  253   4.744   0.937   5.139 -0.0283  0.3991  0.2035
    4CHL1  H12A  254   4.657   0.962   5.074  0.4824  0.7377 -0.3682
    4CHL1  H12B  255   4.755   0.827   5.150 -3.1619 -0.0148 -0.1028
    4CHL1   C11  256   4.711   0.996   5.283 -0.0385  0.0989 -0.0275
    4CHL1  H11A  257   4.682   1.102   5.270 -3.2994 -0.6910 -0.1036
    4CHL1  H11B  258   4.622   0.944   5.325  0.5390 -0.4059  0.5950
    4CHL1    C9  259   4.831   0.977   5.381  0.0657 -0.3835 -0.4087
    4CHL1    H9  260   4.837   0.866   5.380 -0.2958 -0.4210  0.6248
    4CHL1   C10  261   4.797   1.029   5.525  0.1090 -0.2062 -0.1424
    4CHL1   C19  262   4.720   1.162   5.525  0.6889  0.1010 -0.1727
    4CHL1  H19A  263   4.781   1.229   5.461  0.0439  1.2322  0.3459
    4CHL1  H19B  264   4.618   1.160   5.480  0.6320  1.0299 -0.1204
    4CHL1  H19C  265   4.704   1.213   5.622  0.6216 -0.8872  0.3434
    4CHL1    C1  266   4.707   0.928   5.605  0.4939  0.0379  0.6621
    4CHL1   H1A  267   4.610   0.907   5.556  1.9153 -2.2989 -1.3560
    4CHL1   H1B  268   4.753   0.828   5.618  1.6779  0.3013 -1.1090
    4CHL1    C2  269   4.676   0.967   5.756 -0.6173  0.1949 -0.0978
    4CHL1   H2A  270   4.621   0.878   5.793 -0.8077 -0.5709 -2.0681
    4CHL1   H2B  271   4.616   1.060   5.765 -0.4350  0.4022 -0.9240
    4CHL1   C20  272   4.873   0.966   4.811  0.4520  0.3750 -0.1387
    4CHL1   H20  273   4.886   1.072   4.781 -1.0636  0.9267  1.0064
    4CHL1   C21  274   4.725   0.929   4.805 -0.2019 -0.4900  0.2182
    4CHL1  H21A  275   4.702   0.838   4.865 -1.8744 -0.4950 -0.3947
    4CHL1  H21B  276   4.692   0.917   4.699  1.6951 -0.9935 -0.3617
    4CHL1  H21C  277   4.662   1.006   4.852 -0.3040  0.6197 -1.6254
    4CHL1   C22  278   4.952   0.869   4.712  0.0965  0.0187 -0.7250
    4CHL1  H22A  279   5.057   0.848   4.743  0.5423 -1.8358 -3.1842
    4CHL1  H22B  280   4.901   0.770   4.718 -0.9670  0.5698 -0.2690
    4CHL1   C23  281   4.955   0.920   4.568 -0.0339  0.1099 -0.4586
    4CHL1  H23A  282   4.846   0.920   4.546 -1.0512  1.7563  3.5715
    4CHL1  H23B  283   4.986   1.027   4.567 -0.2141  0.1795  0.2726
    4CHL1   C24  284   5.022   0.836   4.455 -0.0630  0.1209 -0.1084
    4CHL1  H24A  285   5.122   0.800   4.489  0.3277 -1.5005 -2.7303
    4CHL1  H24B  286   4.977   0.736   4.444  0.6723 -0.4473  1.5850
    4CHL1   C25  287   5.029   0.908   4.318  0.3667 -0.9392 -0.0342
    4CHL1   H25  288   4.939   0.973   4.306  2.9306  2.7655 -0.6794
    4CHL1   C26  289   5.148   1.006   4.312  0.5344  0.2578  0.2684
    4CHL1  H26A  290   5.234   0.939   4.334  0.8610 -0.1363 -1.9882
    4CHL1  H26B  291   5.156   1.051   4.211 -1.3087 -2.0194 -0.9833
    4CHL1  H26C  292   5.136   1.097   4.374  0.2339  1.2125 -1.1485
    4CHL1   C27  293   5.050   0.807   4.201 -0.1309 -0.6102 -0.1998
    4CHL1  H27A  294   5.149   0.763   4.224  0.6608  0.8143 -0.7402
    4CHL1  H27B  295   4.962   0.739   4.205 -0.2676 -0.5314 -1.3669
    4CHL1  H27C  296   5.054   0.870   4.109 -2.0991  1.4062  0.9852
    5CHL1    C3  297   4.866   2.475   5.996  0.1271 -0.2516 -0.0365
    5CHL1    H3  298   4.937   2.390   5.991  2.9411  1.5633  3.8360
    5CHL1    O3  299   4.815   2.484   6.127 -0.3333 -1.0440 -0.0670
    5CHL1   H3'  300   4.893   2.504   6.179 -1.2733  1.3540  0.5501
    5CHL1    C4  301   4.964   2.590   5.976  0.2292  0.4057 -0.2683
    5CHL1   H4A  302   4.911   2.684   6.001 -0.9593 -0.8556  2.4005
    5CHL1   H4B  303   5.043   2.594   6.053  0.0590  1.0937 -0.1267
    5CHL1    C5  304   5.025   2.595   5.835 -0.4135 -0.1793  0.4560
    5CHL1    C6  305   5.159   2.614   5.818 -0.6289  0.1782 -0.0054
    5CHL1    H6  306   5.224   2.624   5.906 -0.8205 -1.1848  0.3183
    5CHL1    C7  307   5.229   2.625   5.685  0.0594  0.4280 -0.4422
    5CHL1   H7A  308   5.281   2.723   5.683  0.4834  0.2268  0.2428
    5CHL1   H7B  309   5.302   2.543   5.668 -2.1253 -1.4637 -1.3408
    5CHL1    C8  310   5.126   2.631   5.571 -0.3113  0.2452 -0.1196
    5CHL1    H8  311   5.090   2.736   5.573 -0.8330  0.0588  0.5512
    5CHL1   C14  312   5.187   2.597   5.435  0.3270 -0.3867 -0.0066
    5CHL1   H14  313   5.219   2.491   5.439  0.2907 -0.3688  2.1930
    5CHL1   C15  314   5.315   2.669   5.396 -0.3036  0.6377 -0.6565
    5CHL1  H15A  315   5.332   2.772   5.435  1.9837  0.0816 -0.0658
    5CHL1  H15B  316   5.399   2.613   5.441 -1.0607 -0.8869 -1.0640
    5CHL1   C16  317   5.314   2.672   5.240 -0.7662 -0.2508  0.1983
    5CHL1  H16A  318   5.305   2.780   5.213  1.5842 -0.5848 -2.4684
    5CHL1  H16B  319   5.403   2.623   5.194  0.4005 -0.3795  2.4614
    5CHL1   C17  320   5.189   2.601   5.193 -0.3845  0.1753  0.6524
    5CHL1   H17  321   5.225   2.497   5.177 -1.4346 -0.2097  0.7392
    5CHL1   C13  322   5.088   2.603   5.309 -0.1714 -0.5591 -0.7233
    5CHL1   C18  323   5.014   2.741   5.306  0.2597  0.5889  0.2158
    5CHL1  H18A  324   5.085   2.823   5.282 -0.0969  0.4175 -1.5415
    5CHL1  H18B  325   4.937   2.735   5.226  0.8698  0.2474 -0.3519
    5CHL1  H18C  326   4.965   2.766   5.403 -1.0590  1.8718 -0.7394
    5CHL1   C12  327   4.991   2.493   5.329  0.1835  0.1783  0.4608
    5CHL1  H12A  328   4.912   2.488   5.251 -2.1281  2.1803  2.4810
    5CHL1  H12B  329   5.043   2.394   5.329 -1.9837 -1.0277 -0.8455
    5CHL1   C11  330   4.920   2.516   5.462  0.0454  0.6708 -0.0924
    5CHL1  H11A  331   4.848   2.601   5.460 -0.6142  0.1360  0.3465
    5CHL1  H11B  332   4.851   2.432   5.484  2.7304 -1.1675  1.8484
    5CHL1    C9  333   5.005   2.533   5.592 -0.3335 -1.2995  0.1530
    5CHL1    H9  334   5.073   2.445   5.594  1.3270 -0.1975 -2.2309
    5CHL1   C10  335   4.925   2.562   5.720 -1.4913 -0.2920  0.1772
    5CHL1   C19  336   4.835   2.688   5.709 -0.6356 -0.3713 -0.0389
    5CHL1  H19A  337   4.892   2.771   5.662  1.2606 -1.8023 -0.3733
    5CHL1  H19B  338   4.739   2.674   5.655  0.4706 -0.6363 -2.0191
    5CHL1  H19C  339   4.800   2.717   5.811 -0.1288 -3.6730  1.2047
    5CHL1    C1  340   4.832   2.444   5.756  0.3874  0.4220 -0.9658
    5CHL1   H1A  341   4.759   2.433   5.673  2.2448 -0.4019 -2.5828
    5CHL1   H1B  342   4.893   2.351   5.745  1.3062  0.8392  0.3347
    5CHL1    C2  343   4.758   2.449   5.892  0.2962 -0.3047  0.1563
    5CHL1   H2A  344   4.691   2.360   5.895  0.4102 -0.4337 -0.7056
    5CHL1   H2B  345   4.696   2.541   5.887 -0.2309 -0.6622 -0.0290
    5CHL1   C20  346   5.128   2.641   5.054  0.9126  0.0494 -0.2927
    5CHL1   H20  347   5.090   2.744   5.067  0.2413 -0.0626 -1.2881
    5CHL1   C21  348   5.002   2.554   5.019 -0.1648 -0.6565 -0.3617
    5CHL1  H21A  349   4.915   2.594   5.075  0.7995 -0.5807  1.1410
    5CHL1  H21B  350   5.010   2.446   5.043  1.2269 -0.4672  0.0945
    5CHL1  H21C  351   4.995   2.576   4.911  1.4311  3.0804  0.1299
    5CHL1   C22  352   5.236   2.642   4.941 -0.3806 -0.2882 -0.2935
    5CHL1  H22A  353   5.192   2.690   4.851 -0.6642 -1.6651 -0.9221
    5CHL1  H22B  354   5.318   2.709   4.975 -1.3184 -0.0441  1.6687
    5CHL1   C23  355   5.289   2.506   4.902 -0.5486  0.3792  0.2428
    5CHL1  H23A  356   5.343   2.456   4.985 -0.4899 -1.5717 -0.8989
    5CHL1  H23B  357   5.208   2.431   4.887  0.1219 -0.6248  1.4538
    5CHL1   C24  358   5.363   2.520   4.773 -0.2674 -0.4775 -0.1196
    5CHL1  H24A  359   5.380   2.417   4.735  0.1910 -0.9367  1.2640
    5CHL1  H24B  360   5.314   2.584   4.697 -0.4834 -1.9430 -1.2595
    5CHL1   C25  361   5.495   2.591   4.783 -0.3225 -0.6341  0.6331
    5CHL1   H25  362   5.473   2.688   4.832 -3.4470 -0.6323 -0.5415
    5CHL1   C26  363   5.607   2.522   4.863 -0.9254  0.4899  0.0025
    5CHL1  H26A  364   5.581   2.509   4.971  1.9695  0.9359  0.8456
    5CHL1  H26B  365   5.628   2.417   4.835  0.2775  0.4544  0.9198
    5CHL1  H26C  366   5.699   2.584   4.859 -0.7168  0.0983 -1.9082
    5CHL1   C27  367   5.557   2.628   4.644  0.1525  0.1655  0.5424
    5CHL1  H27A  368   5.572   2.528   4.598  1.8963 -0.4651  2.3169
    5CHL1  H27B  369   5.490   2.695   4.588  1.0751 -0.7664 -1.7936
    5CHL1  H27C  370   5.652   2.685   4.651 -0.2330  0.7469  1.2132
    6CHL1    C3  371   3.671   0.244   6.022 -0.1310  0.3861  0.2757
    6CHL1    H3  372   3.580   0.196   5.981  1.0951  0.3215 -2.5827
    6CHL1    O3  373   3.675   0.226   6.166 -0.2683 -0.5966  0.1495
    6CHL1   H3'  374   3.628   0.303   6.200  0.5764  0.3259 -0.7154
    6CHL1    C4  375   3.790   0.165   5.949 -0.1428 -0.7632 -0.1795
    6CHL1   H4A  376   3.883   0.203   5.996 -0.8092  2.3332 -1.1335
    6CHL1   H4B  377   3.788   0.057   5.977 -0.3909 -0.8648 -0.5824
    6CHL1    C5  378   3.792   0.203   5.797 -0.0476 -0.4037 -0.0604
    6CHL1    C6  379   3.779   0.104   5.707 -0.0027 -0.0174  0.1641
    6CHL1    H6  380   3.761   0.003   5.746  1.0690  0.7774  2.9391
    6CHL1    C7  381   3.758   0.123   5.562 -0.5435 -0.0073 -0.5957
    6CHL1   H7A  382   3.817   0.050   5.503 -0.8257 -1.7265  1.1629
    6CHL1   H7B  383   3.650   0.114   5.537 -1.0138  0.8381  1.0149
    6CHL1    C8  384   3.811   0.266   5.528  0.4622  1.0332 -0.3537
    6CHL1    H8  385   3.920   0.276   5.545  0.2504  0.8242  1.3607
    6CHL1   C14  386   3.789   0.303   5.379  0.2901  0.7908 -0.0043
    6CHL1   H14  387   3.679   0.312   5.362  0.3315  1.3194  0.0172
    6CHL1   C15  388   3.841   0.205   5.274  0.1353 -0.0206 -0.1567
    6CHL1  H15A  389   3.942   0.165   5.300 -0.4787 -0.9766  0.8573
    6CHL1  H15B  390   3.775   0.118   5.296  0.8607 -0.2417  1.3038
    6CHL1   C16  391   3.833   0.282   5.143 -0.8300  0.2277 -0.5072
    6CHL1  H16A  392   3.929   0.256   5.094  0.5880 -1.6573  2.9088
    6CHL1  H16B  393   3.748   0.253   5.077 -0.4707 -0.8571 -0.5062
    6CHL1   C17  394   3.808   0.431   5.178  0.1956  0.3628 -0.7980
    6CHL1   H17  395   3.698   0.428   5.168  0.1154  0.2934  0.0527
    6CHL1   C13  396   3.841   0.433   5.333 -0.2331  0.2888  0.1492
    6CHL1   C18  397   3.996   0.440   5.342  0.4959 -0.4345  0.6291
    6CHL1  H18A  398   4.040   0.539   5.317  1.0606 -0.8205  0.0583
    6CHL1  H18B  399   4.037   0.412   5.441  0.2548 -2.3298  0.2307
    6CHL1  H18C  400   4.047   0.365   5.276 -1.0311  1.1973 -2.6319
    6CHL1   C12  401   3.793   0.547   5.424  0.8350  0.2891 -0.0246
    6CHL1  H12A  402   3.851   0.639   5.399  0.0600  0.4433 -1.3744
    6CHL1  H12B  403   3.683   0.552   5.412  0.7977 -2.0404 -1.2518
    6CHL1   C11  404   3.815   0.526   5.574  0.3921  0.5931  0.1747
    6CHL1  H11A  405   3.926   0.529   5.584  0.5280 -0.5037 -0.7577
    6CHL1  H11B  406   3.760   0.603   5.631 -2.3847 -0.4042 -0.9841
    6CHL1    C9  407   3.757   0.380   5.615 -1.1251  1.0738 -0.2005
    6CHL1    H9  408   3.648   0.377   5.595 -1.4188 -1.0909  1.2851
    6CHL1   C10  409   3.796   0.356   5.763 -0.1777  0.9687  0.1094
    6CHL1   C19  410   3.939   0.409   5.800 -0.2379 -0.6173 -0.3848
    6CHL1  H19A  411   3.978   0.370   5.896  0.6312  4.2407  1.4938
    6CHL1  H19B  412   4.018   0.397   5.723  1.6187  0.3591  1.2732
    6CHL1  H19C  413   3.940   0.516   5.829  0.9907 -0.9538  0.9236
    6CHL1    C1  414   3.672   0.417   5.839 -0.3221 -0.8273 -0.5154
    6CHL1   H1A  415   3.664   0.527   5.835  0.8398 -0.6269  1.2654
    6CHL1   H1B  416   3.569   0.396   5.803  0.6290 -1.3683 -3.1500
    6CHL1    C2  417   3.672   0.391   5.992  0.8567 -0.3640 -0.1932
    6CHL1   H2A  418   3.591   0.442   6.047  0.9799  0.5095 -0.7939
    6CHL1   H2B  419   3.769   0.432   6.029 -0.3025  1.2524  1.1683
    6CHL1   C20  420   3.859   0.536   5.078  0.8787 -0.2509  0.1892
    6CHL1   H20  421   3.858   0.630   5.138 -2.3717  0.0872 -0.2322
    6CHL1   C21  422   3.752   0.534   4.961  0.3826 -0.8105  0.3187
    6CHL1  H21A  423   3.729   0.441   4.905 -1.6059  0.1516 -0.5730
    6CHL1  H21B  424   3.794   0.603   4.884 -0.7765 -0.1547  0.2448
    6CHL1  H21C  425   3.651   0.574   4.984 -0.2443 -3.1897  2.0855
    6CHL1   C22  426   3.995   0.504   5.021  0.1263 -0.7527  0.6490
    6CHL1  H22A  427   4.067   0.465   5.095  0.5418 -1.7994 -0.2859
    6CHL1  H22B  428   3.984   0.426   4.943  2.9496  0.1265 -0.7494
    6CHL1   C23  429   4.064   0.633   4.969  0.4614  0.0443 -0.4358
    6CHL1  H23A  430   4.005   0.669   4.881  0.1057 -0.9376 -0.6152
    6CHL1  H23B  431   4.064   0.718   5.040 -0.1571  0.0317 -0.4078
    6CHL1   C24  432   4.212   0.608   4.926 -0.2656  1.0244 -0.1399
    6CHL1  H24A  433   4.267   0.576   5.017 -0.1930 -1.8714 -1.1273
    6CHL1  H24B  434   4.206   0.527   4.851  1.7619 -0.4180  1.1727
    6CHL1   C25  435   4.281   0.733   4.862  0.7907 -0.7534 -0.3455
    6CHL1   H25  436   4.224   0.824   4.893 -0.0121 -0.6583 -2.0244
    6CHL1   C26  437   4.422   0.750   4.900 -0.6990 -0.5382 -0.4026
    6CHL1  H26A  438   4.459   0.852   4.877  1.1640 -1.5244 -2.1300
    6CHL1  H26B  439   4.432   0.731   5.009 -0.6786 -3.2190 -0.7903
    6CHL1  H26C  440   4.495   0.691   4.839 -0.1907  0.8918 -1.2173
    6CHL1   C27  441   4.280   0.712   4.710 -0.7130 -0.3188 -0.6412
    6CHL1  H27A  442   4.179   0.682   4.676 -1.1620  0.4293  0.0003
    6CHL1  H27B  443   4.311   0.805   4.658 -1.5582 -0.7147 -1.8861
    6CHL1  H27C  444   4.350   0.633   4.675  0.9362  0.9530 -0.3540
    7CHL1    C3  445   1.186   0.669   6.242 -0.4098  0.2365  0.6832
    7CHL1    H3  446   1.286   0.716   6.251  0.0157 -0.5922  0.3703
    7CHL1    O3  447   1.195   0.571   6.343  0.1675 -0.3370  0.0333
    7CHL1   H3'  448   1.104   0.544   6.358  0.3935  0.1043  2.6637
    7CHL1    C4  449   1.075   0.772   6.256  0.0525 -0.8559 -0.6004
    7CHL1   H4A  450   0.977   0.720   6.257 -1.2535  1.4207  1.6379
    7CHL1   H4B  451   1.086   0.815   6.358  1.7258  0.4260 -1.2746
    7CHL1    C5  452   1.051   0.867   6.143  0.1598 -0.4404 -0.3613
    7CHL1    C6  453   1.047   1.001   6.170  0.0013 -0.8249  0.3368
    7CHL1    H6  454   1.033   1.038   6.273 -3.2276  0.4096 -0.4197
    7CHL1    C7  455   1.037   1.101   6.053  0.2489  0.6898  0.2818
    7CHL1   H7A  456   0.944   1.161   6.058 -1.2880 -1.4023 -1.3480
    7CHL1   H7B  457   1.111   1.184   6.046 -1.8444  2.8838  2.1209
    7CHL1    C8  458   1.009   1.028   5.910 -0.4859 -0.1431  0.4295
    7CHL1    H8  459   0.901   1.004   5.907 -0.2370 -1.2309 -0.1998
    7CHL1   C14  460   1.034   1.120   5.792 -0.0686  0.6030  0.0798
    7CHL1   H14  461   1.144   1.136   5.796  0.1784  0.1190 -2.9555
    7CHL1   C15  462   0.970   1.260   5.792 -0.4207 -0.4023  0.0875
    7CHL1  H15A  463   0.860   1.242   5.784 -0.2677 -0.5202 -2.1367
    7CHL1  H15B  464   1.005   1.329   5.872 -0.9053  1.2788 -1.0967
    7CHL1   C16  465   1.007   1.310   5.661  0.7300 -0.0938 -0.0997
    7CHL1  H16A  466   0.918   1.350   5.608  1.6331  0.0706 -1.5677
    7CHL1  H16B  467   1.091   1.383   5.660 -0.6555  1.5713 -1.1143
    7CHL1   C17  468   1.046   1.178   5.570 -0.2130 -0.3508  0.0317
    7CHL1   H17  469   1.157   1.184   5.569 -0.2420  0.2562 -0.6955
    7CHL1   C13  470   1.006   1.061   5.655  0.2839  0.8613  0.1126
    7CHL1   C18  471   0.861   1.025   5.636 -0.0693  0.1787 -0.1336
    7CHL1  H18A  472   0.785   1.106   5.643 -1.3368 -1.0792  1.0089
    7CHL1  H18B  473   0.844   0.987   5.533 -1.5344  0.1515  0.0926
    7CHL1  H18C  474   0.823   0.951   5.709 -1.3770 -0.1922 -1.1533
    7CHL1   C12  475   1.096   0.935   5.639 -0.3307  0.1649 -0.5587
    7CHL1  H12A  476   1.074   0.883   5.543 -1.1031  0.3896 -0.5111
    7CHL1  H12B  477   1.206   0.953   5.646 -0.0916 -1.6390  1.1624
    7CHL1   C11  478   1.077   0.835   5.750 -0.3385  0.7088  0.2466
    7CHL1  H11A  479   0.978   0.786   5.735 -0.3712  1.0740 -0.8326
    7CHL1  H11B  480   1.155   0.757   5.739  1.3617  2.2723  0.6458
    7CHL1    C9  481   1.086   0.898   5.885 -0.1735 -0.1549 -0.7692
    7CHL1    H9  482   1.194   0.923   5.899 -0.9770  2.5920  1.5742
    7CHL1   C10  483   1.060   0.799   6.001  0.0997  0.8071 -0.1162
    7CHL1   C19  484   0.927   0.725   5.977 -0.1645 -0.4290 -0.4919
    7CHL1  H19A  485   0.923   0.665   5.883 -0.5964  0.0150 -0.7628
    7CHL1  H19B  486   0.903   0.661   6.065 -1.6104 -1.5783 -1.6617
    7CHL1  H19C  487   0.844   0.799   5.964 -0.6496 -1.0670 -1.1584
    7CHL1    C1  488   1.177   0.692   6.001 -0.1775 -0.3651 -0.1573
    7CHL1   H1A  489   1.175   0.628   5.911  1.1916  1.4450 -1.5452
    7CHL1   H1B  490   1.269   0.754   5.998 -1.9534  2.6517  2.2322
    7CHL1    C2  491   1.185   0.593   6.114 -0.0943  0.4977 -0.4691
    7CHL1   H2A  492   1.265   0.518   6.097 -1.5799 -1.1651 -0.3562
    7CHL1   H2B  493   1.100   0.522   6.116  1.7941 -1.9274  1.9147
    7CHL1   C20  494   1.012   1.193   5.419  0.1475 -0.7023  0.3425
    7CHL1   H20  495   0.904   1.202   5.394  0.1430 -0.0435  0.5837
    7CHL1   C21  496   1.083   1.081   5.339 -0.0347 -0.1086  0.1449
    7CHL1  H21A  497   1.040   0.980   5.346  1.2259 -0.9017 -2.2098
    7CHL1  H21B  498   1.190   1.092   5.367 -0.3209  3.9252  0.3477
    7CHL1  H21C  499   1.085   1.108   5.231 -0.4937  0.2930  0.2364
    7CHL1   C22  500   1.071   1.327   5.359  0.4522  0.0061 -0.2998
    7CHL1  H22A  501   1.024   1.415   5.410 -0.0760  0.7258 -1.9508
    7CHL1  H22B  502   1.180   1.330   5.378  0.1897  2.1402  1.3680
    7CHL1   C23  503   1.033   1.362   5.215 -1.1218 -0.2225 -0.2200
    7CHL1  H23A  504   1.046   1.275   5.147  1.5999  0.4056 -0.6412
    7CHL1  H23B  505   0.929   1.398   5.220 -0.6118  1.4398 -0.8708
    7CHL1   C24  506   1.133   1.479   5.161  0.0292  0.2516  0.4785
    7CHL1  H24A  507   1.106   1.574   5.212 -2.8492  0.0570 -0.4774
    7CHL1  H24B  508   1.240   1.458   5.181  0.0945  0.9738  0.9159
    7CHL1   C25  509   1.118   1.516   5.008  0.3961 -0.2049  0.0724
    7CHL1   H25  510   1.187   1.601   4.994  0.1669  0.0906  0.7111
    7CHL1   C26  511   1.168   1.402   4.915  0.3076  0.7157 -0.3740
    7CHL1  H26A  512   1.097   1.318   4.930 -0.9430  1.7892  0.0007
    7CHL1  H26B  513   1.154   1.438   4.811 -1.2396  0.0223 -0.4408
    7CHL1  H26C  514   1.277   1.383   4.922  0.3625  1.4681  1.4409
    7CHL1   C27  515   0.984   1.570   4.985 -0.5248 -0.0204  0.1219
    7CHL1  H27A  516   0.956   1.573   4.877 -2.0521 -2.5896  0.3880
    7CHL1  H27B  517   0.904   1.515   5.038  1.2089 -1.8844  0.9418
    7CHL1  H27C  518   0.982   1.674   5.024 -0.6365  1.0397 -2.4911
    8CHL1    C3  519   3.441   6.572   6.182 -0.5889 -0.1938 -0.3509
    8CHL1    H3  520   3.339   6.557   6.139 -0.7146 -0.7791  0.1506
    8CHL1    O3  521   3.442   6.597   6.323 -0.2497 -0.0165  0.6057
    8CHL1   H3'  522   3.535   6.612   6.341 -0.3739  3.2847 -0.9036
    8CHL1    C4  523   3.528   6.452   6.139 -0.2061 -0.1549 -0.5195
    8CHL1   H4A  524   3.625   6.462   6.193  0.5410 -1.9493 -1.4587
    8CHL1   H4B  525   3.475   6.368   6.189 -0.3145  0.5343  0.5670
    8CHL1    C5  526   3.561   6.424   5.999 -0.4449 -0.2137 -0.2288
    8CHL1    C6  527   3.555   6.303   5.945 -0.8058 -0.6157 -0.5641
    8CHL1    H6  528   3.518   6.214   5.997  0.4970 -0.5885  0.4721
    8CHL1    C7  529   3.610   6.269   5.809  0.4210  0.2624 -0.8942
    8CHL1   H7A  530   3.687   6.189   5.815 -0.1741 -0.4099 -1.8882
    8CHL1   H7B  531   3.525   6.229   5.750 -1.3137 -0.4571  1.9255
    8CHL1    C8  532   3.671   6.390   5.743 -0.7423 -0.1922  0.1143
    8CHL1    H8  533   3.777   6.388   5.777 -1.1433 -2.0932  1.4263
    8CHL1   C14  534   3.661   6.365   5.595 -0.4645 -0.3084  0.3239
    8CHL1   H14  535   3.554   6.371   5.564 -0.2614 -0.5048 -0.4275
    8CHL1   C15  536   3.710   6.227   5.543  0.6693  0.6867 -1.1655
    8CHL1  H15A  537   3.814   6.204   5.575  0.6934  0.9067 -1.0862
    8CHL1  H15B  538   3.639   6.150   5.581 -2.6829  4.2736  0.5227
    8CHL1   C16  539   3.715   6.243   5.389 -0.1706  0.0319 -1.0147
    8CHL1  H16A  540   3.813   6.207   5.349  0.2247 -0.1926  0.1188
    8CHL1  H16B  541   3.634   6.189   5.336  0.4519 -0.7739 -1.1779
    8CHL1   C17  542   3.708   6.395   5.361 -0.8518  0.2961  0.1554
    8CHL1   H17  543   3.601   6.414   5.337 -1.8235 -0.9373  3.0773
    8CHL1   C13  544   3.734   6.466   5.500 -0.3289  0.3809 -0.1963
    8CHL1   C18  545   3.893   6.473   5.529  1.0595 -0.0165 -0.5887
    8CHL1  H18A  546   3.909   6.520   5.629 -0.5148  0.6909 -0.6467
    8CHL1  H18B  547   3.931   6.370   5.513 -1.5458 -0.7541 -2.6787
    8CHL1  H18C  548   3.932   6.540   5.449  1.9741  0.1997  0.0140
    8CHL1   C12  549   3.667   6.605   5.526  0.1156 -0.8858  0.1885
    8CHL1  H12A  550   3.703   6.691   5.467 -0.3535 -0.7448  0.1009
    8CHL1  H12B  551   3.559   6.597   5.503 -0.1439  2.3640 -0.1695
    8CHL1   C11  552   3.665   6.639   5.679  0.3252  0.6078 -0.4155
    8CHL1  H11A  553   3.759   6.666   5.731 -0.1135  1.0951  0.1482
    8CHL1  H11B  554   3.587   6.716   5.696  0.3957  0.1876  2.2518
    8CHL1    C9  555   3.606   6.523   5.767 -0.1473  0.1885  0.0219
    8CHL1    H9  556   3.497   6.524   5.748 -0.0543  2.5522 -0.7007
    8CHL1   C10  557   3.619   6.553   5.924 -0.6059  0.0802 -0.6123
    8CHL1   C19  558   3.761   6.563   5.983  0.0285  0.5707  0.0062
    8CHL1  H19A  559   3.820   6.641   5.929 -1.1634  1.3897 -0.1629
    8CHL1  H19B  560   3.756   6.595   6.089  1.1152 -1.0118  0.5668
    8CHL1  H19C  561   3.817   6.468   5.973  0.3568  0.5403  1.9345
    8CHL1    C1  562   3.538   6.683   5.965  0.2491  0.0424  0.0192
    8CHL1   H1A  563   3.585   6.769   5.913 -0.4512 -0.1166 -0.9160
    8CHL1   H1B  564   3.434   6.675   5.926 -0.4904 -1.0028  2.0556
    8CHL1    C2  565   3.513   6.697   6.116 -0.1377  0.2508 -0.1671
    8CHL1   H2A  566   3.438   6.778   6.130 -0.7015 -0.3470  0.3126
    8CHL1   H2B  567   3.607   6.734   6.161 -0.0702  0.7847 -0.7249
    8CHL1   C20  568   3.790   6.423   5.236  0.5232  0.3325 -0.1128
    8CHL1   H20  569   3.895   6.399   5.261  0.2991 -0.8655 -0.2449
    8CHL1   C21  570   3.779   6.580   5.216  0.2518 -0.1024  0.1255
    8CHL1  H21A  571   3.818   6.634   5.305  3.1595 -2.3555  0.3992
    8CHL1  H21B  572   3.676   6.608   5.186  0.5640  0.7270 -0.1900
    8CHL1  H21C  573   3.847   6.607   5.132 -1.0097  0.3644 -0.7656
    8CHL1   C22  574   3.737   6.346   5.113 -0.5777  0.0933 -0.0010
    8CHL1  H22A  575   3.755   6.236   5.124 -2.3461 -0.3603 -1.2175
    8CHL1  H22B  576   3.630   6.362   5.092 -0.6084  0.1670  0.2128
    8CHL1   C23  577   3.804   6.375   4.976  0.1590  0.1308  0.1073
    8CHL1  H23A  578   3.793   6.483   4.952 -1.4168 -0.2411 -0.9876
    8CHL1  H23B  579   3.914   6.364   4.991  0.1393  1.1307  1.0764
    8CHL1   C24  580   3.740   6.307   4.856  0.4740  0.1893  0.3042
    8CHL1  H24A  581   3.765   6.199   4.852  1.8517  0.5172 -0.4784
    8CHL1  H24B  582   3.629   6.316   4.865  0.4307  0.7628 -0.6548
    8CHL1   C25  583   3.772   6.371   4.720  0.0740  0.2001  0.2797
    8CHL1   H25  584   3.753   6.480   4.720  0.4616  0.3480 -2.5314
    8CHL1   C26  585   3.924   6.352   4.678 -0.3052 -0.5408 -0.3417
    8CHL1  H26A  586   3.930   6.404   4.580  0.8625 -1.7914 -0.9675
    8CHL1  H26B  587   4.001   6.392   4.748 -0.1635 -0.1753 -0.6965
    8CHL1  H26C  588   3.944   6.246   4.654  0.5942 -0.3686 -0.3735
    8CHL1   C27  589   3.678   6.324   4.608  0.1234  0.0693  1.1118
    8CHL1  H27A  590   3.674   6.213   4.603 -2.6456  0.1241  0.2164
    8CHL1  H27B  591   3.572   6.354   4.626 -1.4855 -2.5429 -2.7898
    8CHL1  H27C  592   3.711   6.360   4.508 -0.1958  0.1448  1.0320
    9CHL1    C3  593   0.712   0.255   6.002  0.0205  0.1898  0.3787
    9CHL1    H3  594   0.725   0.162   5.942 -1.3023  0.4729 -0.3921
    9CHL1    O3  595   0.712   0.231   6.141  0.1612 -0.0217 -0.2862
    9CHL1   H3'  596   0.801   0.250   6.172  0.0409 -2.4648  1.8273
    9CHL1    C4  597   0.822   0.356   5.973 -0.0804 -0.4969  0.0055
    9CHL1   H4A  598   0.822   0.445   6.039 -3.2101  0.2272 -0.8069
    9CHL1   H4B  599   0.918   0.303   5.989  0.4658 -0.4158 -2.5715
    9CHL1    C5  600   0.827   0.404   5.835 -0.4311  0.3648  0.5525
    9CHL1    C6  601   0.948   0.415   5.762 -0.1941  0.3950  0.3367
    9CHL1    H6  602   1.042   0.386   5.811  0.7151 -1.5731 -2.2917
    9CHL1    C7  603   0.966   0.469   5.620  0.3141 -0.2329 -0.5390
    9CHL1   H7A  604   1.041   0.551   5.623 -0.0294  0.1285 -1.4831
    9CHL1   H7B  605   0.990   0.379   5.559  0.6511 -0.1947 -0.4644
    9CHL1    C8  606   0.837   0.535   5.568 -0.0802  0.0803 -0.3719
    9CHL1    H8  607   0.835   0.633   5.620 -0.3678 -0.6310  0.9998
    9CHL1   C14  608   0.838   0.547   5.415 -0.4271  0.2928 -0.4310
    9CHL1   H14  609   0.848   0.445   5.372 -2.3123 -0.0459 -0.1608
    9CHL1   C15  610   0.956   0.620   5.354  0.2294  0.0934 -0.0233
    9CHL1  H15A  611   0.978   0.719   5.400 -0.9181  1.2250 -1.7645
    9CHL1  H15B  612   1.050   0.562   5.349  0.9369  1.2788 -2.2167
    9CHL1   C16  613   0.908   0.649   5.205 -0.0630 -0.1830  0.5507
    9CHL1  H16A  614   0.921   0.758   5.190  0.6346 -0.6025 -2.6980
    9CHL1  H16B  615   0.977   0.597   5.135 -0.3589 -1.9814  1.5121
    9CHL1   C17  616   0.757   0.609   5.205  0.3200 -0.0663 -0.1012
    9CHL1   H17  617   0.758   0.501   5.175 -1.8560  0.0348 -0.7337
    9CHL1   C13  618   0.710   0.605   5.355  0.3891  0.1418 -0.1338
    9CHL1   C18  619   0.683   0.746   5.411 -0.2303 -0.1429  0.2835
    9CHL1  H18A  620   0.769   0.810   5.382 -0.2635 -0.1938  0.0698
    9CHL1  H18B  621   0.585   0.790   5.380 -0.1903 -0.1325  0.1710
    9CHL1  H18C  622   0.677   0.743   5.522 -0.0142  2.0289  0.4035
    9CHL1   C12  623   0.593   0.510   5.390  0.4610  0.1494 -0.3209
    9CHL1  H12A  624   0.497   0.544   5.347  1.6088  2.3810 -1.2957
    9CHL1  H12B  625   0.628   0.416   5.342  3.4981  0.7079  0.5745
    9CHL1   C11  626   0.581   0.508   5.549  0.2745  0.3314 -0.7313
    9CHL1  H11A  627   0.555   0.609   5.585  1.5972  0.7331 -0.8689
    9CHL1  H11B  628   0.492   0.442   5.562  0.0823  1.1979  4.2874
    9CHL1    C9  629   0.708   0.460   5.617  0.0311  0.1584 -0.0821
    9CHL1    H9  630   0.725   0.357   5.579  0.5590  0.7156 -1.4118
    9CHL1   C10  631   0.693   0.447   5.770  0.2266  0.5200 -0.0310
    9CHL1   C19  632   0.650   0.578   5.832  0.2141 -0.0676 -0.1799
    9CHL1  H19A  633   0.638   0.569   5.942  0.6639  0.5102 -0.0838
    9CHL1  H19B  634   0.715   0.663   5.802  0.1503  0.4014  0.9681
    9CHL1  H19C  635   0.549   0.608   5.798  1.0018  1.8783 -0.9331
    9CHL1    C1  636   0.578   0.345   5.806  0.7664 -0.4846 -0.0216
    9CHL1   H1A  637   0.473   0.373   5.786  0.3393 -1.1611  1.1195
    9CHL1   H1B  638   0.595   0.250   5.750  0.0551 -0.6695  0.0621
    9CHL1    C2  639   0.569   0.303   5.962  0.2509 -0.4757  0.2289
    9CHL1   H2A  640   0.493   0.222   5.970 -2.9757  2.1441 -1.3985
    9CHL1   H2B  641   0.541   0.391   6.024  1.6117  1.2357 -1.4718
    9CHL1   C20  642   0.666   0.683   5.109  0.3835 -0.0797  0.0790
    9CHL1   H20  643   0.648   0.787   5.144  1.2851 -0.1204  0.6736
    9CHL1   C21  644   0.533   0.610   5.094  0.2580 -0.3218  0.5576
    9CHL1  H21A  645   0.460   0.651   5.167 -0.1516  1.5973 -0.8321
    9CHL1  H21B  646   0.540   0.499   5.087 -2.6178 -0.6225  0.9906
    9CHL1  H21C  647   0.483   0.644   5.000  0.8667 -1.2041 -0.1072
    9CHL1   C22  648   0.728   0.704   4.969 -0.1919  0.2436  0.0711
    9CHL1  H22A  649   0.659   0.766   4.908  0.5932 -0.4805 -1.5956
    9CHL1  H22B  650   0.824   0.756   4.990  0.4335 -0.7970 -0.1433
    9CHL1   C23  651   0.749   0.573   4.889  0.0130 -0.7933  0.6113
    9CHL1  H23A  652   0.781   0.485   4.948  0.4110  0.1168  1.7835
    9CHL1  H23B  653   0.648   0.536   4.861 -0.3061 -0.0883  0.8115
    9CHL1   C24  654   0.827   0.581   4.759 -0.2641  0.1729 -0.3713
    9CHL1  H24A  655   0.916   0.638   4.791 -1.3135  0.5528  2.1761
    9CHL1  H24B  656   0.853   0.484   4.712 -0.7613 -0.0433 -0.2158
    9CHL1   C25  657   0.767   0.653   4.635 -0.3482  0.3150  0.5721
    9CHL1   H25  658   0.711   0.745   4.663 -0.5812 -0.3220  2.3257
    9CHL1   C26  659   0.888   0.690   4.537 -0.1013  0.1271  0.2555
    9CHL1  H26A  660   0.948   0.598   4.524  0.9194  0.9906 -1.4300
    9CHL1  H26B  661   0.860   0.731   4.438  1.0334  0.3804  0.0299
    9CHL1  H26C  662   0.947   0.769   4.588  1.3150  1.1084 -2.6758
    9CHL1   C27  663   0.665   0.561   4.563 -0.3882  0.8149  0.2100
    9CHL1  H27A  664   0.606   0.621   4.491  1.9508  0.8143 -1.8317
    9CHL1  H27B  665   0.716   0.478   4.512  0.4959  1.5575 -0.1411
    9CHL1  H27C  666   0.595   0.511   4.634  0.1994 -1.0717 -0.5005
   10CHL1    C3  667   5.806   2.217   6.190  0.1842  0.2769  0.2536
   10CHL1    H3  668   5.699   2.186   6.186  0.6016 -1.3529  0.9417
   10CHL1    O3  669   5.840   2.212   6.328 -0.2455  0.5531 -0.2292
   10CHL1   H3'  670   5.825   2.297   6.371 -2.8938  0.0732 -0.0527
   10CHL1    C4  671   5.889   2.105   6.127  0.5211 -0.3978  0.7050
   10CHL1   H4A  672   5.998   2.108   6.144  0.7394  0.4472 -0.6693
   10CHL1   H4B  673   5.854   2.008   6.167  1.1830 -1.5406 -1.3435
   10CHL1    C5  674   5.857   2.106   5.976  0.7756  0.2080 -0.4613
   10CHL1    C6  675   5.797   2.003   5.925  0.4475  0.8142 -0.0125
   10CHL1    H6  676   5.767   1.923   5.994  1.3867  0.7032  0.2802
   10CHL1    C7  677   5.775   1.981   5.782  0.2787 -0.7821  0.4722
   10CHL1   H7A  678   5.811   1.882   5.747  0.4634 -0.8478  0.8438
   10CHL1   H7B  679   5.665   1.996   5.769  0.4961  0.5417  0.0935
   10CHL1    C8  680   5.848   2.094   5.694  0.7185  0.4597  0.6718
   10CHL1    H8  681   5.956   2.074   5.683  0.5743  0.0227  0.0228
   10CHL1   C14  682   5.776   2.090   5.561  0.4779 -0.5857  0.4771
   10CHL1   H14  683   5.672   2.120   5.586  0.8599 -1.6725  3.7899
   10CHL1   C15  684   5.761   1.958   5.485  0.5140 -0.0875  0.5766
   10CHL1  H15A  685   5.852   1.896   5.498 -1.3898 -2.9251  1.1704
   10CHL1  H15B  686   5.672   1.900   5.515 -0.1045  0.2285 -0.6071
   10CHL1   C16  687   5.720   2.011   5.350  1.0850  0.5407  0.5891
   10CHL1  H16A  688   5.782   1.962   5.272  1.6420  3.2443 -0.7848
   10CHL1  H16B  689   5.614   1.989   5.323  1.1273  0.1742  0.7130
   10CHL1   C17  690   5.742   2.166   5.344  0.0081  0.2801 -0.1728
   10CHL1   H17  691   5.640   2.196   5.377  0.4460  0.2090  1.3069
   10CHL1   C13  692   5.831   2.192   5.464 -0.2449  0.0442 -0.4876
   10CHL1   C18  693   5.978   2.154   5.426  0.5142  0.6260 -0.9847
   10CHL1  H18A  694   5.996   2.048   5.399 -0.6622  0.3259 -0.6544
   10CHL1  H18B  695   6.016   2.221   5.346 -0.9003  0.8049 -1.5345
   10CHL1  H18C  696   6.045   2.168   5.513  0.0175 -1.5568 -0.1863
   10CHL1   C12  697   5.824   2.333   5.526 -0.3340  0.5592  0.6872
   10CHL1  H12A  698   5.869   2.406   5.454 -1.3901  1.9334  1.3615
   10CHL1  H12B  699   5.714   2.346   5.532 -0.5089 -0.7691  0.6845
   10CHL1   C11  700   5.885   2.343   5.661 -0.3092 -0.9979  1.2662
   10CHL1  H11A  701   5.994   2.329   5.648 -0.3656 -1.0406  0.8311
   10CHL1  H11B  702   5.856   2.445   5.697 -2.2952 -1.1619  0.2635
   10CHL1    C9  703   5.829   2.235   5.753 -0.3949  0.9105 -0.1065
   10CHL1    H9  704   5.720   2.252   5.756 -0.4145  0.6908  0.5472
   10CHL1   C10  705   5.884   2.238   5.899  0.0895 -0.8566 -0.4206
   10CHL1   C19  706   6.037   2.265   5.908 -0.1870  0.1076  0.2139
   10CHL1  H19A  707   6.097   2.184   5.863 -2.3051 -1.9393  0.8585
   10CHL1  H19B  708   6.064   2.357   5.853  0.7927 -0.2000  0.1597
   10CHL1  H19C  709   6.072   2.270   6.014  0.0727  2.2527  0.0619
   10CHL1    C1  710   5.815   2.354   5.980  1.2032  0.6039  0.5114
   10CHL1   H1A  711   5.843   2.447   5.927  2.1527  0.2995  0.4566
   10CHL1   H1B  712   5.705   2.336   5.972  0.8491  1.3267  2.9122
   10CHL1    C2  713   5.834   2.361   6.126  0.1848 -0.1209 -0.2659
   10CHL1   H2A  714   5.773   2.437   6.178  0.8658 -0.7214  1.4643
   10CHL1   H2B  715   5.937   2.387   6.157  0.0837 -0.4369  0.3359
   10CHL1   C20  716   5.767   2.232   5.213 -0.0747 -0.5655  0.0962
   10CHL1   H20  717   5.875   2.232   5.185 -0.4422  0.7104 -1.5140
   10CHL1   C21  718   5.745   2.383   5.217  0.2670  0.6003  0.5218
   10CHL1  H21A  719   5.737   2.419   5.112 -1.2177  2.3053  1.1645
   10CHL1  H21B  720   5.831   2.435   5.264  1.4586  0.4699 -1.4398
   10CHL1  H21C  721   5.650   2.401   5.273  0.4588 -0.1783  1.1100
   10CHL1   C22  722   5.692   2.169   5.094 -0.7034  0.6453  0.3293
   10CHL1  H22A  723   5.690   2.060   5.117 -1.0462  0.6044  0.1062
   10CHL1  H22B  724   5.588   2.208   5.092 -0.7308  0.5307 -0.8596
   10CHL1   C23  725   5.754   2.182   4.951 -0.2371  0.2679 -0.1522
   10CHL1  H23A  726   5.778   2.290   4.937 -1.7601  0.6319 -0.0530
   10CHL1  H23B  727   5.858   2.143   4.961 -0.3970 -0.1465 -0.0962
   10CHL1   C24  728   5.677   2.106   4.846  1.1601  0.1670  0.0072
   10CHL1  H24A  729   5.631   2.015   4.890  0.3761 -0.5217 -2.0964
   10CHL1  H24B  730   5.594   2.172   4.812 -0.0674  1.3488  4.5709
   10CHL1   C25  731   5.769   2.050   4.735  0.5117 -0.1829 -0.0921
   10CHL1   H25  732   5.854   2.008   4.794 -0.3977 -0.1995  1.2651
   10CHL1   C26  733   5.697   1.943   4.650  0.7716  0.3638 -0.3351
   10CHL1  H26A  734   5.595   1.982   4.626  1.2142  1.4114 -0.5711
   10CHL1  H26B  735   5.760   1.922   4.561  0.2704 -1.7367 -0.2394
   10CHL1  H26C  736   5.680   1.850   4.707  0.2879  1.0417  0.6651
   10CHL1   C27  737   5.818   2.172   4.645 -0.0376 -0.3921  0.3312
   10CHL1  H27A  738   5.731   2.210   4.586  0.5570  2.3966  1.1311
   10CHL1  H27B  739   5.861   2.250   4.710 -0.5638  1.9929 -1.9806
   10CHL1  H27C  740   5.898   2.132   4.579 -1.2944 -0.4953 -1.2020
   11CHL1    C3  741   4.602   6.301   6.119 -0.4136  0.5208 -0.3569
   11CHL1    H3  742   4.704   6.300   6.077 -0.5038 -1.2835 -0.5899
   11CHL1    O3  743   4.590   6.286   6.261 -0.3311 -0.6390 -0.0345
   11CHL1   H3'  744   4.677   6.291   6.300 -1.2215  0.4526  1.9852
   11CHL1    C4  745   4.525   6.429   6.084 -0.5587  0.7047 -0.7946
   11CHL1   H4A  746   4.422   6.438   6.125 -1.1276  0.6590 -2.1581
   11CHL1   H4B  747   4.571   6.508   6.147  0.5401 -0.6832  0.2036
   11CHL1    C5  748   4.521   6.462   5.939  0.0786  0.0516  0.1055
   11CHL1    C6  749   4.573   6.578   5.890 -0.1037 -0.2015  0.0150
   11CHL1    H6  750   4.609   6.642   5.971 -1.1914  0.6785 -0.1752
   11CHL1    C7  751   4.570   6.614   5.742  0.2975  0.4519 -0.4001
   11CHL1   H7A  752   4.547   6.721   5.721 -0.7015  0.3760  0.2592
   11CHL1   H7B  753   4.676   6.616   5.710  0.5389 -0.5012  0.3050
   11CHL1    C8  754   4.479   6.520   5.659  0.2033  0.0112 -0.3370
   11CHL1    H8  755   4.373   6.551   5.663  0.4471  1.0203 -1.1517
   11CHL1   C14  756   4.512   6.543   5.510 -0.2714 -0.1141  0.5621
   11CHL1   H14  757   4.618   6.526   5.482 -0.2904  1.6009 -0.6714
   11CHL1   C15  758   4.484   6.679   5.443 -0.0385 -0.4452 -0.2884
   11CHL1  H15A  759   4.382   6.715   5.468  1.3643  2.0224  2.7036
   11CHL1  H15B  760   4.544   6.768   5.471 -1.7715  1.4709 -2.2974
   11CHL1   C16  761   4.501   6.648   5.290  0.3190  0.4014 -0.2263
   11CHL1  H16A  762   4.415   6.692   5.235 -0.6634 -0.8733  0.2535
   11CHL1  H16B  763   4.596   6.686   5.246  0.3721  0.6380  0.0861
   11CHL1   C17  764   4.503   6.493   5.272 -0.0169 -0.1292 -0.2144
   11CHL1   H17  765   4.611   6.469   5.265  0.3979  1.0013  1.4523
   11CHL1   C13  766   4.451   6.435   5.411  0.3433 -0.6537  0.3853
   11CHL1   C18  767   4.299   6.438   5.409 -0.0712 -0.3474  0.1551
   11CHL1  H18A  768   4.261   6.533   5.366  0.9766  1.0736  2.2115
   11CHL1  H18B  769   4.262   6.358   5.341  0.3250  0.4008 -0.9587
   11CHL1  H18C  770   4.250   6.426   5.508  1.1048 -1.9835  0.5816
   11CHL1   C12  771   4.503   6.301   5.458 -0.0273  0.1949 -0.6135
   11CHL1  H12A  772   4.470   6.228   5.381 -1.8591  1.1572 -0.7876
   11CHL1  H12B  773   4.613   6.289   5.453  0.2929  1.3503  2.0378
   11CHL1   C11  774   4.453   6.268   5.602 -0.5234  0.4813 -0.4438
   11CHL1  H11A  775   4.342   6.269   5.590 -0.4176  0.1599 -1.6434
   11CHL1  H11B  776   4.501   6.173   5.631 -0.2675  0.3317 -1.3092
   11CHL1    C9  777   4.503   6.376   5.703  0.3402 -0.3158  0.5131
   11CHL1    H9  778   4.614   6.372   5.694  0.4547  0.8003  1.2058
   11CHL1   C10  779   4.471   6.345   5.851  0.9984 -0.4714  0.7816
   11CHL1   C19  780   4.317   6.321   5.864  0.4897 -0.7913  0.5114
   11CHL1  H19A  781   4.292   6.277   5.963  1.5761 -0.4544  0.9525
   11CHL1  H19B  782   4.260   6.416   5.851 -3.0418 -3.1243 -3.3902
   11CHL1  H19C  783   4.282   6.256   5.781  1.4295 -0.5710 -0.0717
   11CHL1    C1  784   4.529   6.205   5.895  0.1475  1.3451 -0.2150
   11CHL1   H1A  785   4.467   6.125   5.849 -0.2693  0.4342  1.7906
   11CHL1   H1B  786   4.635   6.196   5.864 -0.3286  0.0546 -1.5982
   11CHL1    C2  787   4.540   6.178   6.045  1.0704 -0.1985 -0.0755
   11CHL1   H2A  788   4.603   6.090   6.069  0.4241 -0.3270  1.1888
   11CHL1   H2B  789   4.436   6.168   6.084  0.7460  2.9847  0.0691
   11CHL1   C20  790   4.443   6.440   5.142 -0.0194 -0.2202  0.3097
   11CHL1   H20  791   4.332   6.437   5.137 -0.1844  1.4809  1.7688
   11CHL1   C21  792   4.494   6.292   5.130 -0.5240 -0.8944  0.0742
   11CHL1  H21A  793   4.429   6.228   5.193  0.4968 -0.2580  1.8500
   11CHL1  H21B  794   4.600   6.293   5.166 -1.0165  1.7781  1.7693
   11CHL1  H21C  795   4.487   6.243   5.031 -1.6246 -1.6464  0.5047
   11CHL1   C22  796   4.496   6.514   5.009  0.2218 -0.7538 -0.1639
   11CHL1  H22A  797   4.495   6.623   5.029  2.1958 -0.0916 -2.9648
   11CHL1  H22B  798   4.599   6.483   4.981  1.4661  3.0862 -0.4279
   11CHL1   C23  799   4.397   6.481   4.893  0.1571  0.8822  0.0465
   11CHL1  H23A  800   4.419   6.375   4.867 -0.5336  0.6604  0.3384
   11CHL1  H23B  801   4.290   6.491   4.922 -0.0140  0.6736 -0.4919
   11CHL1   C24  802   4.428   6.564   4.766 -0.0501  0.3069 -0.3832
   11CHL1  H24A  803   4.417   6.673   4.786  0.8267  0.4288 -0.5257
   11CHL1  H24B  804   4.527   6.542   4.722 -0.4022  0.5625 -1.3300
   11CHL1   C25  805   4.326   6.549   4.650 -0.2265 -0.4982 -0.4689
   11CHL1   H25  806   4.222   6.569   4.681  0.5266  0.6853  1.4670
   11CHL1   C26  807   4.352   6.648   4.540  0.5377 -0.8236  0.1005
   11CHL1  H26A  808   4.268   6.644   4.467 -0.2208 -0.4403  0.9485
   11CHL1  H26B  809   4.346   6.755   4.569 -1.6541 -0.2624 -2.0571
   11CHL1  H26C  810   4.449   6.618   4.494 -0.2039  0.8828 -2.8969
   11CHL1   C27  811   4.337   6.406   4.594 -0.3197  0.0819  0.2835
   11CHL1  H27A  812   4.437   6.389   4.548 -0.1840 -0.3687  0.7325
   11CHL1  H27B  813   4.324   6.328   4.671  0.0490 -0.7997 -0.5243
   11CHL1  H27C  814   4.253   6.394   4.522 -1.9520 -2.9464  2.4558
   12CHL1    C3  815   4.992   0.039   5.921 -1.4307 -0.1694 -0.7251
   12CHL1    H3  816   4.886   0.006   5.926 -1.0225 -1.3486  0.8642
   12CHL1    O3  817   5.051   0.049   6.051  0.0482  0.0990  0.2702
   12CHL1   H3'  818   5.124   0.110   6.041  0.0489 -0.0075 -0.4033
   12CHL1    C4  819   5.066  -0.082   5.845  0.0249  0.0777 -0.3703
   12CHL1   H4A  820   5.175  -0.068   5.859 -0.2364  1.3199  0.6553
   12CHL1   H4B  821   5.045  -0.175   5.902 -0.3942 -0.1607 -0.8977
   12CHL1    C5  822   5.026  -0.102   5.701 -0.3084  1.2009  0.7506
   12CHL1    C6  823   4.983  -0.219   5.651  0.1368 -0.5191  0.7588
   12CHL1    H6  824   4.961  -0.304   5.718 -0.0911 -1.5583 -0.5951
   12CHL1    C7  825   4.962  -0.245   5.507 -0.5213  0.2366  0.0853
   12CHL1   H7A  826   5.018  -0.337   5.482  0.4418  1.3653 -2.2225
   12CHL1   H7B  827   4.854  -0.261   5.487 -0.7911 -0.9054  2.2636
   12CHL1    C8  828   5.009  -0.129   5.408 -0.2971 -0.5474 -0.6275
   12CHL1    H8  829   5.119  -0.138   5.403  0.0184  0.6037  2.3407
   12CHL1   C14  830   4.952  -0.150   5.271 -0.1036  0.0263  0.1992
   12CHL1   H14  831   4.842  -0.146   5.289 -0.0573 -0.3461  0.5719
   12CHL1   C15  832   4.976  -0.276   5.199  0.2495 -0.1290 -0.0899
   12CHL1  H15A  833   5.084  -0.300   5.186  0.0099 -0.4690 -1.6208
   12CHL1  H15B  834   4.930  -0.360   5.255  0.2271 -0.9147 -1.2757
   12CHL1   C16  835   4.927  -0.246   5.060  0.3872  0.2329  0.0531
   12CHL1  H16A  836   5.005  -0.286   4.991 -1.0990 -0.9470 -1.0043
   12CHL1  H16B  837   4.829  -0.292   5.035 -0.3994  1.2585  1.1458
   12CHL1   C17  838   4.911  -0.094   5.054  0.1588  0.4680  0.7945
   12CHL1   H17  839   4.802  -0.076   5.073  0.1135  0.7853  0.2714
   12CHL1   C13  840   4.983  -0.039   5.176  0.3682 -0.1950 -0.4631
   12CHL1   C18  841   5.137  -0.024   5.146  0.3799  0.2171 -0.7171
   12CHL1  H18A  842   5.175  -0.117   5.100  0.6674  1.1703 -2.4683
   12CHL1  H18B  843   5.163   0.061   5.080 -2.8210  0.9317 -1.1885
   12CHL1  H18C  844   5.192  -0.011   5.242  0.3665  0.5595 -0.7558
   12CHL1   C12  845   4.925   0.096   5.240  0.7615 -0.1760 -0.2793
   12CHL1  H12A  846   4.935   0.185   5.173  3.2791 -0.4388 -0.3517
   12CHL1  H12B  847   4.819   0.068   5.258  0.6750  1.6078  2.5417
   12CHL1   C11  848   4.995   0.128   5.371 -0.8308  0.5003 -0.0307
   12CHL1  H11A  849   5.100   0.154   5.346 -0.3794  1.4177  2.4922
   12CHL1  H11B  850   4.939   0.210   5.421 -2.2744 -0.1950 -0.4399
   12CHL1    C9  851   4.981   0.006   5.470  0.2592  0.0698 -0.1414
   12CHL1    H9  852   4.872   0.002   5.490  0.0493  0.6573 -1.0927
   12CHL1   C10  853   5.043   0.026   5.616  0.1178  0.0739  0.2677
   12CHL1   C19  854   5.192   0.043   5.605  0.4783 -0.0185 -0.3769
   12CHL1  H19A  855   5.222   0.134   5.549  2.1641  0.7086  1.5612
   12CHL1  H19B  856   5.242   0.060   5.703 -0.7106 -1.9183  0.6442
   12CHL1  H19C  857   5.254  -0.036   5.556  2.5786  2.0649 -1.2515
   12CHL1    C1  858   4.972   0.139   5.695 -0.8018  0.2385  0.3212
   12CHL1   H1A  859   4.986   0.235   5.641 -2.2357 -0.1703 -0.8498
   12CHL1   H1B  860   4.862   0.121   5.701 -0.8625  0.6838  0.5949
   12CHL1    C2  861   5.009   0.165   5.841  0.1102  0.2358 -0.6814
   12CHL1   H2A  862   4.952   0.250   5.883  1.4459  1.2193 -0.8003
   12CHL1   H2B  863   5.115   0.197   5.840  0.7950 -1.5921  1.9028
   12CHL1   C20  864   4.931  -0.026   4.913 -0.0459 -0.2989  0.2378
   12CHL1   H20  865   5.029  -0.052   4.868 -0.5314 -2.6312  0.3698
   12CHL1   C21  866   4.902   0.128   4.918  0.6542  0.4837 -0.0067
   12CHL1  H21A  867   4.918   0.182   4.823  0.5534  0.8121  0.1592
   12CHL1  H21B  868   4.969   0.184   4.987  0.3191  0.5628  0.2580
   12CHL1  H21C  869   4.801   0.165   4.944  0.2650 -1.3856  1.3351
   12CHL1   C22  870   4.832  -0.081   4.809  0.4147  0.4454 -0.4675
   12CHL1  H22A  871   4.839  -0.192   4.811  0.5305  0.4517 -0.4703
   12CHL1  H22B  872   4.729  -0.058   4.844 -0.2470 -1.3723 -1.1045
   12CHL1   C23  873   4.859  -0.047   4.666 -0.0492  0.3018  0.7468
   12CHL1  H23A  874   4.867   0.063   4.650  2.7785 -0.1859 -2.0623
   12CHL1  H23B  875   4.960  -0.082   4.634 -1.0451 -1.6594 -0.4146
   12CHL1   C24  876   4.751  -0.093   4.571  0.0453 -0.0728  0.0629
   12CHL1  H24A  877   4.748  -0.204   4.579 -0.5844  0.0205  1.3131
   12CHL1  H24B  878   4.653  -0.052   4.602  0.3957  1.8043 -1.1279
   12CHL1   C25  879   4.787  -0.052   4.424  0.4199  0.2940 -0.0779
   12CHL1   H25  880   4.897  -0.064   4.415  0.2850 -0.6690 -0.5725
   12CHL1   C26  881   4.716  -0.152   4.335  0.3614 -0.5551  0.7580
   12CHL1  H26A  882   4.606  -0.133   4.337  0.3963 -0.3819  2.8110
   12CHL1  H26B  883   4.758  -0.145   4.232  0.9096 -0.4490  0.9876
   12CHL1  H26C  884   4.742  -0.255   4.367 -1.0735 -0.7843  1.2969
   12CHL1   C27  885   4.755   0.096   4.395  0.5916  1.0110 -0.2543
   12CHL1  H27A  886   4.653   0.107   4.353  0.8655  0.8010 -1.0010
   12CHL1  H27B  887   4.753   0.160   4.486  0.9618  1.6290 -0.6710
   12CHL1  H27C  888   4.817   0.139   4.313  0.3064  0.3166 -0.8454
   13CHL1    C3  889   5.050   0.509   6.045 -0.2258 -0.1570  0.3613
   13CHL1    H3  890   5.038   0.398   6.039 -0.7383 -0.0419 -1.3330
   13CHL1    O3  891   5.039   0.540   6.187  0.3081  0.0322  0.2847
   13CHL1   H3'  892   5.115   0.494   6.225 -1.2867 -1.0189  2.3665
   13CHL1    C4  893   5.188   0.547   5.999 -0.3497 -0.9171 -0.1444
   13CHL1   H4A  894   5.187   0.656   6.021  1.4951 -1.0874  0.9412
   13CHL1   H4B  895   5.266   0.497   6.059 -1.3545  0.8322  2.8397
   13CHL1    C5  896   5.200   0.521   5.848  0.3671  0.0752 -0.7929
   13CHL1    C6  897   5.286   0.434   5.802  0.2883 -0.2094  0.2671
   13CHL1    H6  898   5.338   0.363   5.867 -0.3694 -2.9031 -1.9609
   13CHL1    C7  899   5.298   0.400   5.656  0.2606 -0.4120  0.3681
   13CHL1   H7A  900   5.402   0.368   5.632  0.5705  1.5722 -1.2082
   13CHL1   H7B  901   5.240   0.307   5.645 -0.0312 -0.1542 -0.2845
   13CHL1    C8  902   5.230   0.499   5.556 -0.0581  0.9147  0.4221
   13CHL1    H8  903   5.294   0.589   5.552 -0.5221  1.2299 -0.0996
   13CHL1   C14  904   5.214   0.434   5.417 -0.5469  0.3308  0.1437
   13CHL1   H14  905   5.148   0.345   5.430 -0.7607  0.4975  0.2057
   13CHL1   C15  906   5.343   0.370   5.357 -0.3036  0.3087 -0.7156
   13CHL1  H15A  907   5.426   0.441   5.375 -2.4521  2.2083  2.8894
   13CHL1  H15B  908   5.389   0.282   5.407 -0.7396 -0.5754 -1.8296
   13CHL1   C16  909   5.317   0.355   5.209  0.6118 -0.4041 -1.3012
   13CHL1  H16A  910   5.397   0.403   5.149  1.1664  3.3280  2.0193
   13CHL1  H16B  911   5.304   0.250   5.175 -0.7183 -0.3108 -1.0973
   13CHL1   C17  912   5.179   0.434   5.192  0.0524 -0.6343  0.1566
   13CHL1   H17  913   5.094   0.364   5.206 -0.3037  0.1105  1.9008
   13CHL1   C13  914   5.161   0.529   5.312  0.6395 -0.6129 -0.2853
   13CHL1   C18  915   5.247   0.658   5.296 -0.1070  0.0811  0.8437
   13CHL1  H18A  916   5.244   0.720   5.389 -0.1200  2.5991 -0.7371
   13CHL1  H18B  917   5.355   0.635   5.287  0.0420  0.5011  1.4683
   13CHL1  H18C  918   5.210   0.734   5.224  0.0407  0.4374  1.1362
   13CHL1   C12  919   5.016   0.560   5.356  0.3248 -0.0507  0.9395
   13CHL1  H12A  920   4.957   0.617   5.282  0.0736  0.7491  1.7413
   13CHL1  H12B  921   4.955   0.467   5.359 -0.3367  0.3712  0.8322
   13CHL1   C11  922   5.012   0.625   5.494 -0.3546  0.5343 -0.1101
   13CHL1  H11A  923   5.066   0.721   5.486  1.4867 -0.3837  0.7389
   13CHL1  H11B  924   4.907   0.648   5.524 -0.4150 -0.5642  0.5779
   13CHL1    C9  925   5.097   0.542   5.599 -0.3449 -0.1599 -0.4923
   13CHL1    H9  926   5.039   0.447   5.602 -1.2720  0.4059  0.2587
   13CHL1   C10  927   5.098   0.596   5.754 -0.2967  0.0267  0.3354
   13CHL1   C19  928   5.127   0.747   5.755 -0.3853  0.5133  0.1311
   13CHL1  H19A  929   5.122   0.782   5.860 -3.0495 -0.9837  0.6041
   13CHL1  H19B  930   5.220   0.771   5.700 -0.4439  0.4146 -0.0122
   13CHL1  H19C  931   5.042   0.799   5.705  1.2465  2.7247 -0.4972
   13CHL1    C1  932   4.960   0.571   5.818  0.0828 -0.4183  0.0959
   13CHL1   H1A  933   4.893   0.648   5.773  1.7915  0.8502 -0.3612
   13CHL1   H1B  934   4.926   0.467   5.800  0.0289 -0.5427  0.8934
   13CHL1    C2  935   4.947   0.592   5.970 -0.5284  0.0696 -0.3789
   13CHL1   H2A  936   4.843   0.577   6.006 -0.3397 -2.7218 -0.8294
   13CHL1   H2B  937   4.960   0.701   5.988 -2.1245  0.9453 -3.6304
   13CHL1   C20  938   5.163   0.495   5.050  0.2823  0.0876 -0.3165
   13CHL1   H20  939   5.254   0.559   5.041 -0.5305  1.8066  2.4392
   13CHL1   C21  940   5.037   0.588   5.009 -0.1249  0.1484  0.0613
   13CHL1  H21A  941   4.946   0.530   4.982  0.8886 -2.2820  1.5116
   13CHL1  H21B  942   5.067   0.643   4.918 -1.6266 -0.3048 -0.7435
   13CHL1  H21C  943   5.005   0.656   5.092 -1.2011 -0.0125 -0.2039
   13CHL1   C22  944   5.167   0.386   4.941  0.1965  1.0584  0.3197
   13CHL1  H22A  945   5.237   0.305   4.971 -0.9602  1.1438  3.7199
   13CHL1  H22B  946   5.066   0.341   4.950  0.7348  0.0565  1.7714
   13CHL1   C23  947   5.190   0.432   4.801  0.3858 -0.5320  0.0588
   13CHL1  H23A  948   5.107   0.503   4.778 -0.7142 -1.5158  0.8609
   13CHL1  H23B  949   5.293   0.472   4.792  0.7580 -1.5049 -0.1382
   13CHL1   C24  950   5.179   0.321   4.694  0.0602 -0.3066  1.0031
   13CHL1  H24A  951   5.251   0.243   4.728  0.7839  0.8380  2.1838
   13CHL1  H24B  952   5.082   0.266   4.689  0.4565 -0.9017 -1.1938
   13CHL1   C25  953   5.218   0.376   4.553  0.0470 -0.5311 -0.1668
   13CHL1   H25  954   5.303   0.446   4.562  0.2239 -0.8103  0.4243
   13CHL1   C26  955   5.274   0.266   4.464  0.0181 -0.7392  0.3573
   13CHL1  H26A  956   5.355   0.215   4.520 -0.0486 -1.0130  0.2059
   13CHL1  H26B  957   5.190   0.202   4.427  2.1480 -2.9573 -0.9631
   13CHL1  H26C  958   5.313   0.308   4.369  2.3572  0.4591  1.7650
   13CHL1   C27  959   5.094   0.442   4.488 -0.0896  0.5131  0.2131
   13CHL1  H27A  960   5.020   0.362   4.467  1.8254 -1.0724 -0.8575
   13CHL1  H27B  961   5.045   0.518   4.553 -1.1528  0.6239 -0.6726
   13CHL1  H27C  962   5.130   0.496   4.397 -1.4034  2.6725  0.8865
   14CHL1    C3  963   4.683   4.290   6.218  0.7307  0.2707  0.3952
   14CHL1    H3  964   4.754   4.210   6.189  0.1687  0.6891 -2.4057
   14CHL1    O3  965   4.622   4.285   6.345  0.0582  0.4081 -0.0502
   14CHL1   H3'  966   4.572   4.204   6.336  0.5084 -0.0566  1.4451
   14CHL1    C4  967   4.768   4.416   6.192 -0.3145 -0.0092 -0.1712
   14CHL1   H4A  968   4.712   4.509   6.217 -0.0768 -0.2444  1.3342
   14CHL1   H4B  969   4.852   4.433   6.263 -0.7210  0.6401  0.1703
   14CHL1    C5  970   4.824   4.416   6.050 -0.1488 -0.0486 -0.0205
   14CHL1    C6  971   4.954   4.424   6.019 -0.3959  0.4933  0.1011
   14CHL1    H6  972   5.027   4.444   6.098  0.6109 -1.2044 -0.3475
   14CHL1    C7  973   5.009   4.424   5.879  0.4352 -0.1610  0.2698
   14CHL1   H7A  974   5.073   4.511   5.853 -1.5442  0.9083 -1.2622
   14CHL1   H7B  975   5.070   4.335   5.852  0.3885 -0.2042  0.3063
   14CHL1    C8  976   4.894   4.447   5.774 -0.2079  0.2142 -0.0121
   14CHL1    H8  977   4.860   4.553   5.783 -2.0634 -0.3151 -0.3949
   14CHL1   C14  978   4.951   4.430   5.636  0.6646 -0.1616 -0.2611
   14CHL1   H14  979   4.995   4.329   5.645  2.8394  0.4494 -2.8376
   14CHL1   C15  980   5.071   4.518   5.587 -0.1366 -0.1948  0.5166
   14CHL1  H15A  981   5.059   4.628   5.601  0.8563  0.0902 -0.6982
   14CHL1  H15B  982   5.160   4.485   5.645 -0.0677  0.8416  1.0254
   14CHL1   C16  983   5.084   4.471   5.446  0.2671 -0.2131  0.4027
   14CHL1  H16A  984   5.118   4.554   5.380  1.5802  0.0338  1.3380
   14CHL1  H16B  985   5.173   4.407   5.427  0.0337 -1.5294  3.2616
   14CHL1   C17  986   4.946   4.410   5.394  0.6989  0.3698  0.2668
   14CHL1   H17  987   4.966   4.300   5.387  0.4220  0.1006  2.6845
   14CHL1   C13  988   4.851   4.427   5.520 -0.3816  0.0809 -0.7375
   14CHL1   C18  989   4.788   4.564   5.509 -0.0291  0.1660 -0.2395
   14CHL1  H18A  990   4.702   4.562   5.438 -0.8969 -0.2745  0.7973
   14CHL1  H18B  991   4.749   4.602   5.606  0.1388  1.4948 -0.6759
   14CHL1  H18C  992   4.854   4.644   5.469  1.5215 -0.3767  1.1119
   14CHL1   C12  993   4.747   4.315   5.550  0.0163  0.8752 -0.4220
   14CHL1  H12A  994   4.661   4.306   5.481 -2.1737  2.1207  1.9421
   14CHL1  H12B  995   4.802   4.219   5.552  0.4697  1.1372  0.7721
   14CHL1   C11  996   4.683   4.338   5.686  0.1395  0.0007  0.2757
   14CHL1  H11A  997   4.624   4.433   5.684  0.8708  0.4686  0.5272
   14CHL1  H11B  998   4.608   4.257   5.699 -0.7795  0.5151 -1.4934
   14CHL1    C9  999   4.782   4.351   5.804 -0.3468  0.1552 -0.0137
   14CHL1    H9 1000   4.814   4.245   5.811 -1.5909 -0.4346 -2.1173
   14CHL1   C10 1001   4.717   4.391   5.935  0.1403  0.2152  0.5569
   14CHL1   C19 1002   4.627   4.520   5.924 -0.5818  0.4800  0.0579
   14CHL1  H19A 1003   4.612   4.558   6.027  0.8592 -1.1291  0.9123
   14CHL1  H19B 1004   4.680   4.598   5.866  2.4843 -1.2019  0.3772
   14CHL1  H19C 1005   4.535   4.488   5.870 -0.2767  2.5299 -1.8179
   14CHL1    C1 1006   4.625   4.268   5.979 -0.3965  0.3320  0.1140
   14CHL1   H1A 1007   4.550   4.238   5.903  1.5119  0.9345 -2.1299
   14CHL1   H1B 1008   4.686   4.175   5.978  1.7769  1.6583 -2.3576
   14CHL1    C2 1009   4.567   4.292   6.120 -0.5172 -0.1852  0.4803
   14CHL1   H2A 1010   4.499   4.206   6.141 -1.0694  0.6883  2.4360
   14CHL1   H2B 1011   4.497   4.375   6.143 -0.7523 -0.4835  0.8699
   14CHL1   C20 1012   4.905   4.466   5.258  0.5864  0.8054  0.2059
   14CHL1   H20 1013   4.875   4.572   5.272 -1.7210  0.4310 -1.2970
   14CHL1   C21 1014   4.780   4.383   5.213  0.0552 -0.2571 -0.4368
   14CHL1  H21A 1015   4.695   4.381   5.284  1.5278  0.0287  1.4224
   14CHL1  H21B 1016   4.808   4.277   5.192 -1.0553 -0.5095 -0.6839
   14CHL1  H21C 1017   4.743   4.429   5.119  0.6664 -0.1439 -0.6274
   14CHL1   C22 1018   5.017   4.458   5.146  0.4645  0.6232 -0.2900
   14CHL1  H22A 1019   4.966   4.486   5.052 -0.0902 -0.4692 -0.3297
   14CHL1  H22B 1020   5.096   4.531   5.173  0.5515  0.5214 -0.2697
   14CHL1   C23 1021   5.097   4.329   5.128 -0.1544  0.4332 -0.6611
   14CHL1  H23A 1022   5.146   4.305   5.225  1.5034  0.1110 -1.5505
   14CHL1  H23B 1023   5.033   4.247   5.088 -0.8001  0.6814 -0.1601
   14CHL1   C24 1024   5.219   4.347   5.027 -0.0994  0.6318 -0.5812
   14CHL1  H24A 1025   5.294   4.409   5.080  0.0137  0.6056 -0.7084
   14CHL1  H24B 1026   5.274   4.251   5.023 -0.2184  0.3891  2.1665
   14CHL1   C25 1027   5.181   4.394   4.881 -0.5916 -0.0857 -0.4916
   14CHL1   H25 1028   5.138   4.496   4.889 -1.0870 -0.2110 -1.4536
   14CHL1   C26 1029   5.316   4.395   4.802  0.2748 -0.2371 -0.5108
   14CHL1  H26A 1030   5.341   4.290   4.777  2.7062  0.3710 -0.9040
   14CHL1  H26B 1031   5.309   4.464   4.714 -0.6524 -0.7889 -0.8894
   14CHL1  H26C 1032   5.388   4.453   4.864  0.2054 -0.0240 -0.6294
   14CHL1   C27 1033   5.073   4.304   4.822  0.0013 -0.5848  0.4617
   14CHL1  H27A 1034   4.978   4.305   4.880  0.5823  1.0576  1.4583
   14CHL1  H27B 1035   5.044   4.345   4.723  0.7976 -2.5141 -0.6255
   14CHL1  H27C 1036   5.123   4.204   4.823  0.5425 -0.3322 -0.1789
   15CHL1    C3 1037   5.335   1.766   6.009  0.5291  0.2416  0.3409
   15CHL1    H3 1038   5.240   1.824   5.996  2.1990  2.8477 -1.2314
   15CHL1    O3 1039   5.384   1.788   6.137  0.0810 -0.3369 -0.0373
   15CHL1   H3' 1040   5.476   1.760   6.133  0.6178  1.4122 -0.5243
   15CHL1    C4 1041   5.309   1.620   5.984  0.6152  0.1539  0.6029
   15CHL1   H4A 1042   5.400   1.561   6.009  1.8310  2.6266  2.4992
   15CHL1   H4B 1043   5.238   1.569   6.054  1.8361 -1.3447  0.8166
   15CHL1    C5 1044   5.253   1.598   5.845 -0.2063  0.3975  0.0759
   15CHL1    C6 1045   5.134   1.536   5.831  0.2141 -0.0794  0.2736
   15CHL1    H6 1046   5.082   1.507   5.923  0.0593  1.3345  0.6458
   15CHL1    C7 1047   5.060   1.517   5.700  0.1089  0.3983 -0.1170
   15CHL1   H7A 1048   5.019   1.415   5.694 -0.1405  0.4958 -0.0729
   15CHL1   H7B 1049   4.975   1.588   5.690  1.0015  1.2622 -2.1713
   15CHL1    C8 1050   5.147   1.543   5.570 -0.5154  0.1261  0.1937
   15CHL1    H8 1051   5.210   1.452   5.556 -2.6319 -1.8499  2.4467
   15CHL1   C14 1052   5.062   1.562   5.443 -0.0932 -0.2393 -0.3730
   15CHL1   H14 1053   5.014   1.662   5.435  0.1884 -0.2736 -4.4772
   15CHL1   C15 1054   4.945   1.464   5.413  0.4971 -0.3723 -0.2783
   15CHL1  H15A 1055   4.972   1.358   5.434  0.5405 -0.3524 -0.2357
   15CHL1  H15B 1056   4.855   1.491   5.471  0.7686  1.9689 -0.8388
   15CHL1   C16 1057   4.930   1.485   5.262  0.5980 -0.3601  0.3102
   15CHL1  H16A 1058   4.944   1.386   5.214 -2.1759 -0.9246  0.5280
   15CHL1  H16B 1059   4.832   1.530   5.235  0.9116 -1.1915 -2.5731
   15CHL1   C17 1060   5.048   1.581   5.212  0.7944  0.4433  1.1688
   15CHL1   H17 1061   4.999   1.680   5.228 -4.2928 -1.8611  1.9582
   15CHL1   C13 1062   5.153   1.574   5.312  0.0778  0.2666  0.0334
   15CHL1   C18 1063   5.225   1.438   5.286  0.1843  0.0168 -0.2449
   15CHL1  H18A 1064   5.273   1.438   5.186  0.6757 -0.7360 -0.0120
   15CHL1  H18B 1065   5.306   1.427   5.361  0.2484 -0.0332 -0.3218
   15CHL1  H18C 1066   5.157   1.350   5.284  0.5067 -0.2204 -1.0970
   15CHL1   C12 1067   5.251   1.696   5.325 -0.3130  0.2939  0.0830
   15CHL1  H12A 1068   5.310   1.706   5.232 -0.8827 -1.1794 -0.4687
   15CHL1  H12B 1069   5.186   1.786   5.325 -1.3290 -0.3888 -1.5601
   15CHL1   C11 1070   5.332   1.672   5.459 -0.2297  0.4046  0.7638
   15CHL1  H11A 1071   5.392   1.580   5.445 -1.3711  0.0216 -2.6525
   15CHL1  H11B 1072   5.407   1.752   5.474 -1.4345  1.6269  0.5089
   15CHL1    C9 1073   5.245   1.665   5.582  0.1699 -0.1570 -0.4055
   15CHL1    H9 1074   5.182   1.756   5.586 -0.1525 -0.3665 -0.6664
   15CHL1   C10 1075   5.324   1.666   5.722 -0.0827  0.2905  0.5683
   15CHL1   C19 1076   5.453   1.573   5.702 -0.1130 -0.2942  0.5719
   15CHL1  H19A 1077   5.516   1.616   5.622  0.2212 -2.3293 -0.3307
   15CHL1  H19B 1078   5.523   1.551   5.785 -0.1358  2.3714  1.3919
   15CHL1  H19C 1079   5.414   1.475   5.667 -2.6211  0.8621 -0.0956
   15CHL1    C1 1080   5.365   1.811   5.765 -0.3481 -0.0481  0.2352
   15CHL1   H1A 1081   5.446   1.844   5.696  0.8368  0.3871  1.7725
   15CHL1   H1B 1082   5.280   1.882   5.756 -2.7150 -2.7992 -0.2847
   15CHL1    C2 1083   5.431   1.824   5.905  0.1312  0.3435  0.4266
   15CHL1   H2A 1084   5.461   1.926   5.939  0.3290 -0.5711  3.2067
   15CHL1   H2B 1085   5.521   1.760   5.904  0.7193  1.1525  0.5596
   15CHL1   C20 1086   5.076   1.577   5.060 -0.0562 -0.2465  0.5473
   15CHL1   H20 1087   5.175   1.623   5.042 -0.2245 -0.3440 -0.6939
   15CHL1   C21 1088   4.965   1.668   4.995 -0.1519 -0.7853 -0.2873
   15CHL1  H21A 1089   4.979   1.673   4.884 -1.2273  0.6044 -0.3910
   15CHL1  H21B 1090   4.964   1.771   5.036 -2.0590 -0.5041 -0.9397
   15CHL1  H21C 1091   4.869   1.621   5.025 -0.3039 -0.1461  0.2424
   15CHL1   C22 1092   5.073   1.442   4.996  0.6426  0.4581  0.5692
   15CHL1  H22A 1093   5.136   1.373   5.057  1.0291  1.5633  1.4549
   15CHL1  H22B 1094   4.968   1.410   4.976  0.8525  1.6092 -3.0444
   15CHL1   C23 1095   5.139   1.438   4.862 -0.1398  0.4535  0.5400
   15CHL1  H23A 1096   5.088   1.501   4.786  0.4792 -1.7726 -1.8399
   15CHL1  H23B 1097   5.242   1.480   4.873  0.1780  0.0730 -0.8555
   15CHL1   C24 1098   5.161   1.288   4.808 -0.2448  0.0629 -0.6633
   15CHL1  H24A 1099   5.235   1.245   4.879  0.4198  1.2441 -0.6019
   15CHL1  H24B 1100   5.059   1.244   4.809  0.0999 -0.9830  3.2825
   15CHL1   C25 1101   5.217   1.282   4.663 -0.6342  0.0706  0.4385
   15CHL1   H25 1102   5.301   1.354   4.661  0.3108 -0.9647  1.8583
   15CHL1   C26 1103   5.263   1.144   4.628 -0.2263 -0.0965 -0.6725
   15CHL1  H26A 1104   5.353   1.108   4.683 -1.2457 -3.8480 -1.1491
   15CHL1  H26B 1105   5.192   1.060   4.643 -0.1733 -0.3377 -1.6781
   15CHL1  H26C 1106   5.295   1.146   4.521  3.0261  0.3313  0.2070
   15CHL1   C27 1107   5.115   1.329   4.557  0.0914 -0.6140 -0.1110
   15CHL1  H27A 1108   5.103   1.438   4.569  3.9320 -0.1458  1.1528
   15CHL1  H27B 1109   5.162   1.312   4.458  0.7611  0.5621 -0.0096
   15CHL1  H27C 1110   5.019   1.276   4.574 -0.9650  1.4933  0.8746
   16CHL1    C3 1111   2.434   6.500   6.372  1.4227  0.0479  1.0628
   16CHL1    H3 1112   2.453   6.609   6.378  0.7130  0.1533  1.4263
   16CHL1    O3 1113   2.447   6.446   6.503 -0.0131  0.1041 -0.2193
   16CHL1   H3' 1114   2.445   6.351   6.489 -1.7880 -0.2736  1.9687
   16CHL1    C4 1115   2.291   6.482   6.314  0.0095 -0.5744 -1.0572
   16CHL1   H4A 1116   2.267   6.376   6.336  1.3826 -0.3025  2.2906
   16CHL1   H4B 1117   2.226   6.548   6.374  2.9228  2.3382 -0.7877
   16CHL1    C5 1118   2.281   6.514   6.166 -0.3446  0.0542  0.1229
   16CHL1    C6 1119   2.181   6.592   6.119 -0.4271 -0.6974 -0.1662
   16CHL1    H6 1120   2.112   6.622   6.199  1.1626 -0.8748  1.3428
   16CHL1    C7 1121   2.148   6.619   5.978  0.1079  0.3132  0.3222
   16CHL1   H7A 1122   2.043   6.606   5.944  0.4337  1.1413 -1.0622
   16CHL1   H7B 1123   2.186   6.720   5.953 -0.0430  0.6408  1.3511
   16CHL1    C8 1124   2.238   6.525   5.881  0.5574  0.5477  0.3581
   16CHL1    H8 1125   2.179   6.431   5.882  0.5763  0.4702 -1.5133
   16CHL1   C14 1126   2.227   6.565   5.730 -0.0036  0.0404 -0.3656
   16CHL1   H14 1127   2.274   6.665   5.725  1.4033 -0.6621 -1.8245
   16CHL1   C15 1128   2.094   6.591   5.653  0.0617  0.0635 -0.2262
   16CHL1  H15A 1129   2.041   6.496   5.677 -0.6934  0.3792 -0.6341
   16CHL1  H15B 1130   2.038   6.683   5.679 -0.0052  0.3487 -1.3671
   16CHL1   C16 1131   2.125   6.572   5.504 -0.5468  0.4412 -0.3649
   16CHL1  H16A 1132   2.061   6.488   5.472  0.1831 -1.0289  1.8136
   16CHL1  H16B 1133   2.100   6.665   5.448 -0.2572  0.3485 -0.6505
   16CHL1   C17 1134   2.275   6.530   5.493  0.0616 -0.2031 -0.6853
   16CHL1   H17 1135   2.330   6.622   5.464 -1.0827  0.6733 -0.1460
   16CHL1   C13 1136   2.309   6.473   5.637 -0.4707  0.0137  0.2129
   16CHL1   C18 1137   2.267   6.328   5.636 -0.3461  0.3396  0.2779
   16CHL1  H18A 1138   2.167   6.306   5.591  0.0308 -2.5832  0.6511
   16CHL1  H18B 1139   2.342   6.260   5.590 -2.3238 -1.9506  0.2246
   16CHL1  H18C 1140   2.277   6.289   5.740  0.1925 -1.0303 -0.2579
   16CHL1   C12 1141   2.461   6.502   5.686 -0.5448  0.4452  0.5959
   16CHL1  H12A 1142   2.534   6.454   5.618 -0.2360  1.9612 -0.2017
   16CHL1  H12B 1143   2.473   6.612   5.674 -0.8847  0.5049  0.7798
   16CHL1   C11 1144   2.479   6.464   5.834 -0.5518 -0.0020  0.2196
   16CHL1  H11A 1145   2.474   6.353   5.837  1.1436 -0.0855  1.6431
   16CHL1  H11B 1146   2.586   6.478   5.861  0.8787 -2.2538 -3.5156
   16CHL1    C9 1147   2.381   6.525   5.933 -0.3953  0.0341  1.0326
   16CHL1    H9 1148   2.412   6.631   5.946 -1.4275  0.7894 -1.8180
   16CHL1   C10 1149   2.390   6.461   6.068 -0.2673 -0.2661 -0.1814
   16CHL1   C19 1150   2.369   6.304   6.061 -0.1519 -0.7149 -0.2323
   16CHL1  H19A 1151   2.352   6.257   6.161  1.5338  0.3560  0.5914
   16CHL1  H19B 1152   2.268   6.277   6.024 -1.7252  1.7874  1.8487
   16CHL1  H19C 1153   2.437   6.241   6.000 -0.4163  0.0840 -1.3916
   16CHL1    C1 1154   2.526   6.489   6.136 -0.0843  0.5271  0.7112
   16CHL1   H1A 1155   2.606   6.433   6.083 -1.5211  0.1954 -1.1899
   16CHL1   H1B 1156   2.550   6.596   6.120  2.2817 -0.3042 -2.2778
   16CHL1    C2 1157   2.539   6.437   6.283 -0.1809  0.6155 -0.0001
   16CHL1   H2A 1158   2.644   6.463   6.307  0.1193  2.2578 -2.6493
   16CHL1   H2B 1159   2.526   6.327   6.284 -0.2701  0.6280  0.2644
   16CHL1   C20 1160   2.303   6.438   5.373  0.2360  0.2388  0.3292
   16CHL1   H20 1161   2.243   6.344   5.378  1.9369 -0.9772 -0.8856
   16CHL1   C21 1162   2.449   6.398   5.364  1.0264 -0.0734 -0.0698
   16CHL1  H21A 1163   2.524   6.480   5.366  0.7777  0.2259  3.6700
   16CHL1  H21B 1164   2.469   6.341   5.271 -1.5435 -1.4003  0.1156
   16CHL1  H21C 1165   2.476   6.336   5.451  1.0722 -0.2477 -0.2080
   16CHL1   C22 1166   2.259   6.506   5.243  0.0588  0.1151 -0.2026
   16CHL1  H22A 1167   2.154   6.542   5.251  0.5376  2.2086 -2.3726
   16CHL1  H22B 1168   2.317   6.600   5.237 -0.1600  0.1642 -2.5232
   16CHL1   C23 1169   2.282   6.415   5.119  0.2868 -0.1187 -0.6149
   16CHL1  H23A 1170   2.387   6.428   5.084  0.6072 -2.7022 -0.7731
   16CHL1  H23B 1171   2.245   6.315   5.149 -0.1916  0.6037  1.3744
   16CHL1   C24 1172   2.184   6.443   5.009  0.9368 -0.6902 -0.0529
   16CHL1  H24A 1173   2.084   6.431   5.056  0.8182  1.5076  0.3891
   16CHL1  H24B 1174   2.181   6.548   4.973  1.5530  0.0381  1.8725
   16CHL1   C25 1175   2.189   6.353   4.884  0.3902 -0.5351  0.0779
   16CHL1   H25 1176   2.172   6.248   4.919 -1.0205 -0.4954 -0.3988
   16CHL1   C26 1177   2.083   6.389   4.778  0.5999 -0.3175 -0.7020
   16CHL1  H26A 1178   1.986   6.407   4.828  0.2595  0.5869 -1.6528
   16CHL1  H26B 1179   2.102   6.483   4.721 -2.1228  1.7310  1.4958
   16CHL1  H26C 1180   2.076   6.315   4.695  0.9429 -0.4153 -0.6457
   16CHL1   C27 1181   2.326   6.369   4.817  0.2580  1.1587  0.3070
   16CHL1  H27A 1182   2.327   6.311   4.722 -1.3015  1.1987  0.2401
   16CHL1  H27B 1183   2.351   6.476   4.798  2.2217  0.6782 -0.0388
   16CHL1  H27C 1184   2.404   6.324   4.882 -1.5323  0.0673  1.7730
   17CHL1    C3 1185   4.027   4.611   5.960 -0.4675  0.0164  0.7098
   17CHL1    H3 1186   4.073   4.510   5.972  1.3638  0.7600  0.3510
   17CHL1    O3 1187   3.990   4.682   6.074 -0.6482  0.6329 -0.2070
   17CHL1   H3' 1188   4.068   4.735   6.094  0.3912 -0.2357 -1.7354
   17CHL1    C4 1189   4.143   4.692   5.899  0.1966 -0.5167  0.0780
   17CHL1   H4A 1190   4.128   4.802   5.895  2.5069 -0.1915 -1.8049
   17CHL1   H4B 1191   4.221   4.677   5.977  0.0901 -1.4797  0.0170
   17CHL1    C5 1192   4.182   4.651   5.764 -0.5769 -0.4239  1.3240
   17CHL1    C6 1193   4.304   4.598   5.739  0.8036  0.1211 -1.4659
   17CHL1    H6 1194   4.371   4.594   5.826 -1.2405 -0.5675  0.1593
   17CHL1    C7 1195   4.348   4.549   5.605  0.1862  0.2036 -1.1773
   17CHL1   H7A 1196   4.455   4.577   5.590 -0.1092  2.0849 -0.0810
   17CHL1   H7B 1197   4.351   4.438   5.596  0.0494 -0.0814  1.5524
   17CHL1    C8 1198   4.266   4.612   5.494 -0.3386 -0.2101  0.6975
   17CHL1    H8 1199   4.278   4.721   5.479 -0.6164 -0.6319 -4.1890
   17CHL1   C14 1200   4.300   4.553   5.358 -0.4132  0.2527 -0.4611
   17CHL1   H14 1201   4.277   4.444   5.368 -0.2765  0.2325 -0.3714
   17CHL1   C15 1202   4.443   4.554   5.310 -0.5618  0.0461  0.0130
   17CHL1  H15A 1203   4.479   4.659   5.313 -1.1957  0.2556  0.2678
   17CHL1  H15B 1204   4.514   4.489   5.366  0.2483 -0.4134 -1.4729
   17CHL1   C16 1205   4.434   4.497   5.165 -0.0025  0.0696 -0.1815
   17CHL1  H16A 1206   4.492   4.562   5.095 -0.6432 -0.7528 -1.5172
   17CHL1  H16B 1207   4.481   4.397   5.167  2.3998  1.1232 -0.0978
   17CHL1   C17 1208   4.281   4.502   5.120 -0.4843 -0.5391  0.0261
   17CHL1   H17 1209   4.245   4.398   5.136  3.0392 -1.9108 -0.1953
   17CHL1   C13 1210   4.217   4.584   5.235 -0.2247  0.1991 -0.0584
   17CHL1   C18 1211   4.228   4.738   5.207  0.2870 -0.2266  0.4229
   17CHL1  H18A 1212   4.330   4.770   5.179  0.1578  0.4096  0.6564
   17CHL1  H18B 1213   4.156   4.757   5.125  1.6997 -1.3907 -1.1384
   17CHL1  H18C 1214   4.203   4.802   5.294  0.1200 -0.0287  0.2286
   17CHL1   C12 1215   4.077   4.536   5.281  0.0986 -0.2691 -0.2982
   17CHL1  H12A 1216   3.998   4.548   5.203  0.2556 -2.4823 -0.8497
   17CHL1  H12B 1217   4.083   4.428   5.304  1.0599  0.3719  3.1213
   17CHL1   C11 1218   4.022   4.612   5.403  0.4849 -0.7982  0.5676
   17CHL1  H11A 1219   4.006   4.721   5.385  0.7139 -0.7045  0.9374
   17CHL1  H11B 1220   3.920   4.572   5.419  0.4295 -0.4878  1.0049
   17CHL1    C9 1221   4.118   4.593   5.527 -0.1162 -0.0128  0.0930
   17CHL1    H9 1222   4.106   4.484   5.544 -1.2591 -0.0883 -1.0535
   17CHL1   C10 1223   4.068   4.657   5.660  0.2146 -0.4439 -0.2615
   17CHL1   C19 1224   4.043   4.804   5.630 -0.2431  0.8940  0.2236
   17CHL1  H19A 1225   3.944   4.813   5.581 -0.4127 -1.3284  0.0567
   17CHL1  H19B 1226   4.044   4.858   5.727 -0.1301 -0.6335  1.0996
   17CHL1  H19C 1227   4.121   4.847   5.562 -1.3541 -0.1115 -1.7820
   17CHL1    C1 1228   3.938   4.594   5.717  0.2300  0.3794  0.2631
   17CHL1   H1A 1229   3.851   4.604   5.649  0.1783 -0.9332  0.1011
   17CHL1   H1B 1230   3.958   4.485   5.714  1.3918  0.5681  0.7301
   17CHL1    C2 1231   3.903   4.621   5.863 -0.9973 -0.4570 -0.9226
   17CHL1   H2A 1232   3.829   4.549   5.904 -0.4128 -0.1546  0.7091
   17CHL1   H2B 1233   3.874   4.728   5.862  1.4025  0.2649 -2.4833
   17CHL1   C20 1234   4.255   4.531   4.973 -0.1623  0.0541 -0.5835
   17CHL1   H20 1235   4.286   4.635   4.950 -1.6707  0.5182 -0.6311
   17CHL1   C21 1236   4.104   4.534   4.936 -0.4782  0.3414  0.1612
   17CHL1  H21A 1237   4.067   4.429   4.936  0.2493  0.0727  1.1035
   17CHL1  H21B 1238   4.100   4.578   4.835 -0.0648  3.1874  1.3039
   17CHL1  H21C 1239   4.047   4.600   5.005 -0.6705  2.2670 -1.7504
   17CHL1   C22 1240   4.345   4.441   4.875 -0.1979 -0.7496  0.6709
   17CHL1  H22A 1241   4.449   4.437   4.914  0.1356 -4.5785 -0.1437
   17CHL1  H22B 1242   4.307   4.337   4.862  4.2815 -2.3384 -2.1228
   17CHL1   C23 1243   4.358   4.483   4.722  0.1082 -0.0224 -0.1519
   17CHL1  H23A 1244   4.410   4.401   4.667 -1.0175  0.3225 -1.7976
   17CHL1  H23B 1245   4.260   4.498   4.674  0.2128  0.0143 -0.3537
   17CHL1   C24 1246   4.451   4.608   4.701 -0.6486  0.9161  0.2392
   17CHL1  H24A 1247   4.399   4.702   4.726 -1.1227  0.5137  0.7904
   17CHL1  H24B 1248   4.540   4.595   4.767  0.5434 -1.9879 -1.7338
   17CHL1   C25 1249   4.504   4.622   4.556  0.9090  0.2487  0.8959
   17CHL1   H25 1250   4.564   4.714   4.542 -0.6265  1.2984  1.0560
   17CHL1   C26 1251   4.603   4.509   4.516  0.1788 -0.1363  0.4122
   17CHL1  H26A 1252   4.677   4.495   4.598  0.2671 -0.6189  0.2551
   17CHL1  H26B 1253   4.534   4.422   4.518 -4.4769  3.1835  0.8108
   17CHL1  H26C 1254   4.649   4.531   4.418  0.8760 -0.4634  0.6597
   17CHL1   C27 1255   4.394   4.633   4.454  0.1986 -0.0329  0.6176
   17CHL1  H27A 1256   4.331   4.541   4.458  0.1185 -0.0311 -0.2721
   17CHL1  H27B 1257   4.325   4.716   4.480  0.1295  0.4517 -1.0175
   17CHL1  H27C 1258   4.424   4.656   4.349  2.2694  0.4122  1.2755
   18CHL1    C3 1259   4.609   0.314   5.990 -0.1189  0.0776 -0.5508
   18CHL1    H3 1260   4.720   0.317   5.979 -0.1253  1.2046 -0.4143
   18CHL1    O3 1261   4.579   0.313   6.134  0.1372 -0.2140  0.4185
   18CHL1   H3' 1262   4.485   0.295   6.143  0.2158  0.3197  2.9888
   18CHL1    C4 1263   4.561   0.437   5.922  0.1787 -0.5681  0.3612
   18CHL1   H4A 1264   4.453   0.457   5.939  0.0022 -0.5718 -0.6586
   18CHL1   H4B 1265   4.616   0.523   5.965  1.7331 -1.5624  0.4510
   18CHL1    C5 1266   4.579   0.430   5.772  0.0928 -0.2338 -0.4573
   18CHL1    C6 1267   4.654   0.519   5.701 -0.9801 -0.3855  0.0406
   18CHL1    H6 1268   4.698   0.606   5.752 -0.2699  0.5788 -2.0836
   18CHL1    C7 1269   4.674   0.527   5.554 -1.6003 -0.0004 -0.0838
   18CHL1   H7A 1270   4.674   0.633   5.519  0.4289  0.4734  1.1795
   18CHL1   H7B 1271   4.773   0.482   5.530 -2.2391 -1.1536 -0.6231
   18CHL1    C8 1272   4.571   0.449   5.486  0.0153 -0.1827 -0.1972
   18CHL1    H8 1273   4.470   0.495   5.499 -0.5573 -1.7618  1.3678
   18CHL1   C14 1274   4.598   0.441   5.339  0.6680 -0.3512  0.5654
   18CHL1   H14 1275   4.696   0.388   5.334  0.9323  0.2073 -0.3453
   18CHL1   C15 1276   4.614   0.569   5.268  0.7379  0.6454  0.8059
   18CHL1  H15A 1277   4.525   0.633   5.278  0.6433  0.9271 -1.2711
   18CHL1  H15B 1278   4.708   0.629   5.266 -1.0993  3.8670 -2.9428
   18CHL1   C16 1279   4.623   0.523   5.123  0.1831 -0.0637 -0.0590
   18CHL1  H16A 1280   4.543   0.575   5.066  0.0014 -1.5099 -1.1914
   18CHL1  H16B 1281   4.723   0.536   5.076 -0.6621  1.6688 -1.4906
   18CHL1   C17 1282   4.576   0.379   5.117 -0.2370  1.0239 -0.1434
   18CHL1   H17 1283   4.664   0.311   5.130 -1.7503 -0.8435  0.8329
   18CHL1   C13 1284   4.508   0.353   5.256 -0.4208 -0.0793  0.0799
   18CHL1   C18 1285   4.360   0.405   5.246  0.3038 -0.7248  0.2757
   18CHL1  H18A 1286   4.322   0.329   5.175  1.2074 -0.8969 -0.0470
   18CHL1  H18B 1287   4.309   0.411   5.344  0.0678  0.2143  0.1055
   18CHL1  H18C 1288   4.366   0.505   5.198  0.7522 -0.3064  1.1761
   18CHL1   C12 1289   4.518   0.206   5.316 -0.6493  0.3914 -0.0328
   18CHL1  H12A 1290   4.464   0.133   5.252 -0.4661  0.1611  0.0729
   18CHL1  H12B 1291   4.625   0.177   5.312 -0.7034  0.3236 -1.7565
   18CHL1   C11 1292   4.480   0.209   5.461  0.0167  0.3261 -0.7632
   18CHL1  H11A 1293   4.376   0.248   5.461  0.1504  0.6923 -0.2412
   18CHL1  H11B 1294   4.492   0.108   5.506  2.0602  0.0738 -1.7676
   18CHL1    C9 1295   4.560   0.311   5.550 -0.3881 -0.5993 -0.5323
   18CHL1    H9 1296   4.666   0.280   5.561  0.5898  2.3687 -0.6358
   18CHL1   C10 1297   4.507   0.313   5.703  0.4589 -0.1161  0.4133
   18CHL1   C19 1298   4.351   0.330   5.708 -0.4792 -0.4939  0.4014
   18CHL1  H19A 1299   4.294   0.265   5.639  0.4040  0.4711 -1.2855
   18CHL1  H19B 1300   4.309   0.303   5.807 -2.0085  1.7960  0.4618
   18CHL1  H19C 1301   4.327   0.433   5.674 -1.8650 -0.7959  0.4089
   18CHL1    C1 1302   4.547   0.178   5.779 -0.5290 -0.7511 -0.1663
   18CHL1   H1A 1303   4.477   0.101   5.741 -1.0203  0.1687 -1.1701
   18CHL1   H1B 1304   4.648   0.145   5.745  0.0632  1.4763 -0.7771
   18CHL1    C2 1305   4.546   0.189   5.933 -0.7834 -0.1087 -0.0611
   18CHL1   H2A 1306   4.594   0.096   5.970 -3.6094 -2.3350 -1.5554
   18CHL1   H2B 1307   4.437   0.201   5.954 -1.1103 -0.1719 -1.6000
   18CHL1   C20 1308   4.513   0.344   4.971  0.3529  0.1040 -0.6979
   18CHL1   H20 1309   4.416   0.397   4.954  1.9473  2.8250 -1.9277
   18CHL1   C21 1310   4.493   0.189   4.961  0.0983  0.1849 -0.1398
   18CHL1  H21A 1311   4.441   0.154   5.053  0.4743 -0.4982 -0.1772
   18CHL1  H21B 1312   4.597   0.151   4.960 -0.1868 -0.8130  2.2712
   18CHL1  H21C 1313   4.427   0.163   4.875  1.0455  4.6073 -2.4627
   18CHL1   C22 1314   4.606   0.397   4.859  0.3228 -0.3507 -0.6758
   18CHL1  H22A 1315   4.631   0.503   4.879  1.7227 -0.5227 -1.3556
   18CHL1  H22B 1316   4.704   0.344   4.860  1.6368  1.9321 -1.1398
   18CHL1   C23 1317   4.549   0.376   4.717  0.2573 -0.2909  0.1623
   18CHL1  H23A 1318   4.566   0.277   4.671 -0.4834 -1.5972  2.5380
   18CHL1  H23B 1319   4.438   0.381   4.723  0.3958  2.0045  2.5373
   18CHL1   C24 1320   4.605   0.488   4.622 -0.3755  0.3093 -0.6422
   18CHL1  H24A 1321   4.578   0.593   4.646 -2.1186 -0.5599  1.5212
   18CHL1  H24B 1322   4.715   0.493   4.634 -0.5087  3.5817  0.0028
   18CHL1   C25 1323   4.588   0.455   4.473  0.8091  0.0455 -0.2845
   18CHL1   H25 1324   4.634   0.356   4.453  1.3548  0.3504 -0.5653
   18CHL1   C26 1325   4.447   0.467   4.418  0.3142  0.5650 -0.1564
   18CHL1  H26A 1326   4.368   0.409   4.471 -0.7387  1.3646 -0.7984
   18CHL1  H26B 1327   4.409   0.571   4.409 -2.9041 -0.5036 -0.3302
   18CHL1  H26C 1328   4.449   0.424   4.316 -0.8636  3.2080 -1.3773
   18CHL1   C27 1329   4.681   0.552   4.395  0.3316  0.3661  0.1432
   18CHL1  H27A 1330   4.653   0.534   4.289  2.5522  2.7334 -0.9606
   18CHL1  H27B 1331   4.667   0.658   4.426 -0.8498  0.5179 -0.8203
   18CHL1  H27C 1332   4.789   0.534   4.412 -0.0785 -2.5110  0.1242
   19CHL1    C3 1333   4.766   4.924   6.215 -0.2526 -0.2220  0.1933
   19CHL1    H3 1334   4.851   4.995   6.219  0.7871 -1.4474  0.3187
   19CHL1    O3 1335   4.755   4.846   6.338  0.2818 -0.0210 -0.2499
   19CHL1   H3' 1336   4.674   4.795   6.329  1.0460 -1.3731  0.2570
   19CHL1    C4 1337   4.630   4.999   6.189  0.3893  0.4115 -0.2457
   19CHL1   H4A 1338   4.545   4.927   6.190  0.9915 -0.3080 -0.1944
   19CHL1   H4B 1339   4.618   5.059   6.282  1.5099 -0.7518  0.6891
   19CHL1    C5 1340   4.627   5.074   6.055  0.8405 -0.1717 -0.8012
   19CHL1    C6 1341   4.620   5.203   6.053 -0.3362  0.3792  0.4591
   19CHL1    H6 1342   4.630   5.267   6.142 -2.2707  2.1928 -0.5136
   19CHL1    C7 1343   4.613   5.272   5.917  0.5259  0.1210 -1.0351
   19CHL1   H7A 1344   4.552   5.365   5.919 -0.3243 -0.4408  0.2213
   19CHL1   H7B 1345   4.717   5.286   5.880  1.0884 -0.3633  0.3282
   19CHL1    C8 1346   4.560   5.175   5.807  0.0187 -0.3449 -0.7676
   19CHL1    H8 1347   4.462   5.135   5.838  0.0235 -0.5152 -0.9652
   19CHL1   C14 1348   4.553   5.248   5.672  0.7435  0.7307  0.2419
   19CHL1   H14 1349   4.655   5.268   5.633  0.4899 -0.7704 -1.3737
   19CHL1   C15 1350   4.470   5.373   5.673 -0.0257  0.1069  0.3522
   19CHL1  H15A 1351   4.372   5.345   5.716  0.2409 -2.0991 -0.3664
   19CHL1  H15B 1352   4.509   5.464   5.724 -1.7867 -0.1714  2.3165
   19CHL1   C16 1353   4.448   5.391   5.524  0.3000  0.2620 -0.5889
   19CHL1  H16A 1354   4.340   5.413   5.507  0.4554  1.2210 -0.3983
   19CHL1  H16B 1355   4.500   5.471   5.467 -0.9466  0.8323 -0.9639
   19CHL1   C17 1356   4.489   5.264   5.446  0.0567  0.9387 -0.3099
   19CHL1   H17 1357   4.592   5.284   5.410  0.6406  1.4227  1.5048
   19CHL1   C13 1358   4.497   5.160   5.555 -0.3021 -0.7233  0.2861
   19CHL1   C18 1359   4.356   5.096   5.585 -0.0540 -0.4224 -0.4285
   19CHL1  H18A 1360   4.339   5.014   5.512 -0.6458 -0.4221 -0.2964
   19CHL1  H18B 1361   4.349   5.048   5.685 -1.3741  2.6239  1.0672
   19CHL1  H18C 1362   4.274   5.170   5.575 -0.2447 -0.4967  0.5045
   19CHL1   C12 1363   4.622   5.053   5.542  0.1512 -0.3526 -0.4074
   19CHL1  H12A 1364   4.609   4.986   5.455 -2.1849  0.3458 -0.6637
   19CHL1  H12B 1365   4.716   5.106   5.515  1.0929 -1.8083 -0.0786
   19CHL1   C11 1366   4.624   4.967   5.668  0.3534  0.5929 -0.0331
   19CHL1  H11A 1367   4.525   4.917   5.675  0.1412  1.1676  1.8166
   19CHL1  H11B 1368   4.705   4.891   5.669  1.8844  2.1568 -0.1572
   19CHL1    C9 1369   4.647   5.054   5.798 -0.3351  0.1797  0.1159
   19CHL1    H9 1370   4.749   5.097   5.793 -0.1282 -0.3217 -0.0274
   19CHL1   C10 1371   4.638   4.977   5.929  0.2132  1.2141 -0.2419
   19CHL1   C19 1372   4.515   4.876   5.927 -0.4211 -0.2403  0.1084
   19CHL1  H19A 1373   4.423   4.915   5.878  0.2794  1.7235  0.2971
   19CHL1  H19B 1374   4.547   4.791   5.863 -1.2132 -0.4697  0.0053
   19CHL1  H19C 1375   4.492   4.828   6.025  0.7029  2.6100  1.8956
   19CHL1    C1 1376   4.770   4.886   5.957  0.6264 -0.6881 -0.5749
   19CHL1   H1A 1377   4.764   4.814   5.873 -2.0811  0.1018 -1.1673
   19CHL1   H1B 1378   4.855   4.956   5.943  1.5065 -1.2280  1.7411
   19CHL1    C2 1379   4.790   4.823   6.098 -0.1779  0.4983  0.3267
   19CHL1   H2A 1380   4.886   4.768   6.097  0.1013  0.9962 -0.0955
   19CHL1   H2B 1381   4.708   4.749   6.114  0.0659  0.2958  0.6791
   19CHL1   C20 1382   4.411   5.224   5.322 -0.2626 -0.5899  0.7890
   19CHL1   H20 1383   4.305   5.206   5.350 -0.2324  1.3063  2.2775
   19CHL1   C21 1384   4.461   5.092   5.256 -0.5109  0.2244 -0.6432
   19CHL1  H21A 1385   4.406   5.078   5.161 -3.3901  0.3009  0.8697
   19CHL1  H21B 1386   4.442   5.005   5.323 -0.3930  0.1337 -0.7284
   19CHL1  H21C 1387   4.571   5.084   5.243 -0.6301 -2.4720 -0.6410
   19CHL1   C22 1388   4.424   5.329   5.210 -0.3673 -0.6666 -0.0394
   19CHL1  H22A 1389   4.400   5.431   5.248  2.8920  0.1815  0.0133
   19CHL1  H22B 1390   4.527   5.341   5.170 -0.6972  1.3403 -0.3839
   19CHL1   C23 1391   4.319   5.315   5.101  0.1084 -0.4344 -0.1619
   19CHL1  H23A 1392   4.359   5.233   5.037  1.1045  0.7800 -1.1422
   19CHL1  H23B 1393   4.223   5.285   5.149 -0.5581  1.4453 -0.2244
   19CHL1   C24 1394   4.302   5.440   5.012 -0.0169 -0.0798 -0.4563
   19CHL1  H24A 1395   4.232   5.509   5.064  3.7647  2.7923  1.2842
   19CHL1  H24B 1396   4.401   5.487   4.992 -0.4508  0.4906 -1.3495
   19CHL1   C25 1397   4.239   5.417   4.872  0.3807  0.0432 -0.0253
   19CHL1   H25 1398   4.140   5.371   4.892  0.9046  0.1501  3.3789
   19CHL1   C26 1399   4.228   5.547   4.799 -0.5341 -0.8566  0.3628
   19CHL1  H26A 1400   4.327   5.593   4.783 -1.9024  1.4290 -2.4534
   19CHL1  H26B 1401   4.176   5.547   4.700  2.5372 -0.2925 -1.3684
   19CHL1  H26C 1402   4.184   5.626   4.863  2.7193  2.7892 -1.4613
   19CHL1   C27 1403   4.307   5.312   4.773  0.4322 -0.2086  0.6543
   19CHL1  H27A 1404   4.414   5.330   4.750  0.5217 -1.0104  0.4163
   19CHL1  H27B 1405   4.299   5.214   4.825 -1.5785 -0.7891 -0.6448
   19CHL1  H27C 1406   4.256   5.312   4.674  3.6508 -0.8399 -1.1429
   20CHL1    C3 1407   1.341   6.218   6.414  0.1795  0.0774  0.7709
   20CHL1    H3 1408   1.358   6.322   6.380 -2.1777 -0.4906 -2.6548
   20CHL1    O3 1409   1.319   6.197   6.550  0.1235  0.9620  0.3644
   20CHL1   H3' 1410   1.296   6.105   6.538 -0.5655  1.3776 -2.2125
   20CHL1    C4 1411   1.203   6.179   6.336 -0.1347  0.3758 -1.4539
   20CHL1   H4A 1412   1.172   6.076   6.364 -1.1420  0.8767 -0.6415
   20CHL1   H4B 1413   1.124   6.233   6.393 -0.5697 -1.5401 -0.1264
   20CHL1    C5 1414   1.220   6.204   6.189 -0.3237 -0.2052  0.4433
   20CHL1    C6 1415   1.150   6.295   6.122 -0.1572  0.1980  0.3907
   20CHL1    H6 1416   1.081   6.355   6.183 -0.9219 -1.2076  0.9552
   20CHL1    C7 1417   1.166   6.312   5.974  0.4591  0.1564  0.8056
   20CHL1   H7A 1418   1.062   6.307   5.934  0.0526 -1.4963  1.9514
   20CHL1   H7B 1419   1.204   6.412   5.945  2.2747 -1.6452 -4.3430
   20CHL1    C8 1420   1.246   6.203   5.901 -0.1520  0.1315  0.3127
   20CHL1    H8 1421   1.186   6.110   5.900  1.0811 -0.6743  0.5081
   20CHL1   C14 1422   1.279   6.247   5.757 -0.0568 -0.1577  0.3422
   20CHL1   H14 1423   1.347   6.335   5.757 -1.9114  1.3402 -0.2314
   20CHL1   C15 1424   1.158   6.293   5.672 -0.0099  0.2287  0.1787
   20CHL1  H15A 1425   1.059   6.243   5.686 -0.3878  0.7007 -0.7208
   20CHL1  H15B 1426   1.140   6.400   5.693  1.3357  0.9097 -1.8971
   20CHL1   C16 1427   1.221   6.279   5.530 -0.1303  0.3664  0.1580
   20CHL1  H16A 1428   1.161   6.213   5.463  0.2673 -1.1065  1.1954
   20CHL1  H16B 1429   1.245   6.379   5.489  3.4461 -0.8298 -1.0363
   20CHL1   C17 1430   1.361   6.201   5.539  0.1833  0.0579  0.1251
   20CHL1   H17 1431   1.428   6.289   5.552 -1.9071  1.8401 -0.3563
   20CHL1   C13 1432   1.354   6.137   5.675 -0.0124  0.0725 -0.5297
   20CHL1   C18 1433   1.279   6.007   5.662  0.7305  0.3671  0.2952
   20CHL1  H18A 1434   1.181   6.034   5.617  0.6410  0.7028  0.6859
   20CHL1  H18B 1435   1.338   5.930   5.607  0.8910 -0.8390  2.0672
   20CHL1  H18C 1436   1.263   5.965   5.764 -0.2907  1.3878  0.5681
   20CHL1   C12 1437   1.483   6.108   5.753 -0.0707  0.0869 -0.2889
   20CHL1  H12A 1438   1.528   6.016   5.710 -0.7145  0.5739 -2.0743
   20CHL1  H12B 1439   1.567   6.179   5.753 -0.7143  0.8896  0.8435
   20CHL1   C11 1440   1.458   6.068   5.897 -0.1131 -0.4251  0.4039
   20CHL1  H11A 1441   1.404   5.971   5.900  0.3586 -0.6724  1.4264
   20CHL1  H11B 1442   1.549   6.056   5.959 -1.7839  0.5667  3.1987
   20CHL1    C9 1443   1.373   6.171   5.981  0.1899 -0.0745 -0.0059
   20CHL1    H9 1444   1.432   6.263   5.999 -1.1998  1.1538 -1.4103
   20CHL1   C10 1445   1.342   6.114   6.131  0.0276  0.2255 -0.4248
   20CHL1   C19 1446   1.290   5.964   6.125  0.3793 -0.1786 -0.8756
   20CHL1  H19A 1447   1.376   5.895   6.110  0.0936 -1.2034  1.6689
   20CHL1  H19B 1448   1.252   5.935   6.225 -0.5119 -0.4882 -1.2979
   20CHL1  H19C 1449   1.215   5.947   6.045 -0.2935  1.0199 -0.5331
   20CHL1    C1 1450   1.469   6.134   6.220 -0.2609  0.2041 -0.8108
   20CHL1   H1A 1451   1.541   6.062   6.176 -1.9327 -1.4087 -1.0396
   20CHL1   H1B 1452   1.506   6.238   6.208  0.5363 -0.0450 -0.5311
   20CHL1    C2 1453   1.450   6.120   6.370  0.3043 -0.6019  0.0798
   20CHL1   H2A 1454   1.542   6.153   6.422 -0.9567  1.1472  1.3211
   20CHL1   H2B 1455   1.433   6.016   6.405  0.5252 -0.7112 -0.1416
   20CHL1   C20 1456   1.399   6.126   5.415 -0.6150 -0.4019  0.0969
   20CHL1   H20 1457   1.320   6.049   5.400  0.3025 -0.8642 -3.1165
   20CHL1   C21 1458   1.528   6.056   5.442 -1.1272 -0.2091  0.0855
   20CHL1  H21A 1459   1.555   5.993   5.354 -0.3972 -3.2782  2.3431
   20CHL1  H21B 1460   1.530   5.977   5.520 -1.1307 -0.1342  0.1608
   20CHL1  H21C 1461   1.603   6.135   5.463 -0.2497 -0.6331 -1.2775
   20CHL1   C22 1462   1.406   6.226   5.291  0.0876 -0.4688 -0.1354
   20CHL1  H22A 1463   1.303   6.259   5.266  0.1042 -0.8322 -0.6967
   20CHL1  H22B 1464   1.469   6.314   5.317  2.3863 -2.3025  0.8943
   20CHL1   C23 1465   1.483   6.173   5.169 -0.2953 -0.0370 -0.1664
   20CHL1  H23A 1466   1.582   6.130   5.194 -0.8018  0.2318  2.6144
   20CHL1  H23B 1467   1.416   6.108   5.109 -1.1976  2.8730 -2.5255
   20CHL1   C24 1468   1.520   6.282   5.080 -0.4544 -0.1757 -0.3926
   20CHL1  H24A 1469   1.432   6.348   5.063  0.3375  1.0689  0.2136
   20CHL1  H24B 1470   1.595   6.351   5.125 -0.1549  0.6057 -2.0294
   20CHL1   C25 1471   1.590   6.231   4.949  0.8579  0.0193 -0.2788
   20CHL1   H25 1472   1.657   6.146   4.976 -0.0673 -0.3069  1.0965
   20CHL1   C26 1473   1.498   6.163   4.847 -0.2007  0.9375 -0.4216
   20CHL1  H26A 1474   1.550   6.142   4.751 -3.0297  0.5032 -1.9798
   20CHL1  H26B 1475   1.461   6.068   4.891  0.3655  1.1448  0.5305
   20CHL1  H26C 1476   1.411   6.229   4.830 -0.9595  0.5035  1.5808
   20CHL1   C27 1477   1.679   6.341   4.890 -0.7164 -0.0070 -0.4041
   20CHL1  H27A 1478   1.755   6.293   4.824 -0.7363 -2.1938  1.0567
   20CHL1  H27B 1479   1.616   6.400   4.820 -1.0258  1.8243  1.3295
   20CHL1  H27C 1480   1.724   6.412   4.962 -1.6616  0.7894 -0.5819
   21CHL1    C3 1481   1.613   0.399   6.329  0.6484 -0.3980 -0.5102
   21CHL1    H3 1482   1.503   0.419   6.336  0.5696 -0.6530 -1.0257
   21CHL1    O3 1483   1.662   0.363   6.458  0.4813 -0.1527 -0.3542
   21CHL1   H3' 1484   1.725   0.435   6.472  2.2697 -1.4732 -1.1206
   21CHL1    C4 1485   1.629   0.285   6.233 -0.3941  0.2191 -0.1352
   21CHL1   H4A 1486   1.739   0.270   6.223 -0.4161 -0.1162  0.1075
   21CHL1   H4B 1487   1.587   0.190   6.272 -1.4793  1.1927  1.1254
   21CHL1    C5 1488   1.575   0.325   6.094 -0.3399 -0.2926 -0.0208
   21CHL1    C6 1489   1.477   0.258   6.026 -1.2316 -0.3360  0.3079
   21CHL1    H6 1490   1.425   0.171   6.069 -1.0373 -2.0141 -2.5637
   21CHL1    C7 1491   1.424   0.313   5.903  0.9962  0.4051  0.1695
   21CHL1   H7A 1492   1.419   0.234   5.825  0.2375 -0.4986  1.0988
   21CHL1   H7B 1493   1.319   0.349   5.907  0.1820 -1.6333 -1.2013
   21CHL1    C8 1494   1.514   0.413   5.822  0.3187 -0.3251  0.1831
   21CHL1    H8 1495   1.602   0.356   5.784 -0.1167 -0.5921 -0.4441
   21CHL1   C14 1496   1.429   0.486   5.712 -0.4419 -0.8500  0.2014
   21CHL1   H14 1497   1.348   0.542   5.764 -0.2406 -0.8349  0.5052
   21CHL1   C15 1498   1.370   0.394   5.602  0.2684 -0.4887 -0.1330
   21CHL1  H15A 1499   1.457   0.330   5.579  2.2422  0.9370  2.8792
   21CHL1  H15B 1500   1.297   0.328   5.654 -0.3556  2.1061  2.5354
   21CHL1   C16 1501   1.323   0.484   5.488  0.3045  0.4728 -0.4723
   21CHL1  H16A 1502   1.358   0.442   5.392  0.3012  0.2093 -0.3612
   21CHL1  H16B 1503   1.212   0.482   5.488  0.1204  3.9785  0.0957
   21CHL1   C17 1504   1.382   0.622   5.533 -0.7254 -0.8741 -0.4136
   21CHL1   H17 1505   1.304   0.677   5.590 -0.8657 -1.8083  0.3339
   21CHL1   C13 1506   1.492   0.596   5.639 -0.1899 -0.8283  0.1057
   21CHL1   C18 1507   1.625   0.548   5.568  0.5282 -0.0625 -0.0845
   21CHL1  H18A 1508   1.685   0.486   5.637  0.4107  3.1708  3.2250
   21CHL1  H18B 1509   1.604   0.482   5.482  0.7698 -1.7091  1.0866
   21CHL1  H18C 1510   1.696   0.627   5.533  0.1268 -0.4490 -1.8534
   21CHL1   C12 1511   1.528   0.704   5.746  0.2552 -0.1369  0.3751
   21CHL1  H12A 1512   1.570   0.794   5.695  1.2365 -1.9089 -2.1233
   21CHL1  H12B 1513   1.435   0.735   5.798  0.9954 -1.0821  2.3386
   21CHL1   C11 1514   1.614   0.650   5.858  0.1474 -0.2794 -0.4214
   21CHL1  H11A 1515   1.717   0.636   5.819 -0.0006 -2.0367 -0.2700
   21CHL1  H11B 1516   1.623   0.737   5.927 -1.0675  0.3684 -1.0600
   21CHL1    C9 1517   1.555   0.522   5.922  0.1197  0.6612  0.0125
   21CHL1    H9 1518   1.463   0.560   5.971  0.6476  2.2985 -0.2142
   21CHL1   C10 1519   1.635   0.463   6.046  0.2149  0.2505  0.0290
   21CHL1   C19 1520   1.786   0.448   6.009 -0.4660  0.4458 -0.3199
   21CHL1  H19A 1521   1.806   0.362   5.942 -2.0663 -0.3229  0.1334
   21CHL1  H19B 1522   1.826   0.543   5.968  0.5663  1.5712  3.0062
   21CHL1  H19C 1523   1.842   0.434   6.104 -1.9466 -1.0872  0.3862
   21CHL1    C1 1524   1.603   0.572   6.153  0.1738 -0.0083 -0.4892
   21CHL1   H1A 1525   1.641   0.674   6.135  2.2258 -0.4685  0.8629
   21CHL1   H1B 1526   1.494   0.584   6.175  0.4848  0.0801  1.1396
   21CHL1    C2 1527   1.668   0.532   6.290  0.5094 -0.1252  0.1634
   21CHL1   H2A 1528   1.642   0.606   6.369  1.3955 -0.1393  0.4744
   21CHL1   H2B 1529   1.778   0.538   6.279  0.4802 -0.8525 -0.5817
   21CHL1   C20 1530   1.412   0.706   5.401 -0.1224 -0.6399  0.1443
   21CHL1   H20 1531   1.498   0.658   5.348 -2.0268 -1.9318 -1.9950
   21CHL1   C21 1532   1.466   0.840   5.446  0.1700  0.1952  0.2766
   21CHL1  H21A 1533   1.555   0.834   5.512 -0.6233  0.1568  1.3571
   21CHL1  H21B 1534   1.390   0.906   5.493  0.2201  1.0488 -0.7848
   21CHL1  H21C 1535   1.501   0.894   5.355 -0.0212 -1.2889 -0.7243
   21CHL1   C22 1536   1.303   0.708   5.294  0.6112  0.1924 -0.0330
   21CHL1  H22A 1537   1.272   0.607   5.262 -0.4751  0.9081 -1.3390
   21CHL1  H22B 1538   1.210   0.752   5.334  0.5390  1.1959 -1.2238
   21CHL1   C23 1539   1.354   0.782   5.167  0.0027 -0.1662 -0.0221
   21CHL1  H23A 1540   1.357   0.891   5.185  0.5199  0.1734 -1.9940
   21CHL1  H23B 1541   1.454   0.748   5.134 -0.4625 -1.2104 -0.4195
   21CHL1   C24 1542   1.255   0.749   5.055 -0.2827 -0.1699  0.4952
   21CHL1  H24A 1543   1.255   0.639   5.037 -1.8124 -0.5904  2.6922
   21CHL1  H24B 1544   1.155   0.770   5.098 -0.8032 -2.2227  0.3963
   21CHL1   C25 1545   1.264   0.840   4.923 -0.0648 -0.2089 -0.1640
   21CHL1   H25 1546   1.291   0.944   4.951  1.5546 -0.4944 -0.5993
   21CHL1   C26 1547   1.355   0.785   4.816  0.1943 -0.3583  0.0304
   21CHL1  H26A 1548   1.315   0.692   4.768  3.0271 -1.3313 -0.6456
   21CHL1  H26B 1549   1.381   0.849   4.729  0.0666 -0.6765 -0.2446
   21CHL1  H26C 1550   1.448   0.752   4.866  0.7110 -0.4009 -0.9345
   21CHL1   C27 1551   1.118   0.832   4.872  0.0707 -0.4784  0.2572
   21CHL1  H27A 1552   1.093   0.725   4.857 -2.6403  0.0778  0.3796
   21CHL1  H27B 1553   1.045   0.864   4.949 -0.1322  4.4946 -1.5919
   21CHL1  H27C 1554   1.100   0.887   4.777  1.1434  1.0048  0.8558
   22CHL1    C3 1555   3.081   4.075   5.619  0.0466  0.4868  0.4394
   22CHL1    H3 1556   3.141   4.161   5.581 -0.0300  0.5785  0.5258
   22CHL1    O3 1557   3.070   4.065   5.760 -0.3322  0.2704 -0.2307
   22CHL1   H3' 1558   3.161   4.051   5.789 -0.1999  1.9771  0.2662
   22CHL1    C4 1559   2.936   4.073   5.559 -1.2159 -0.6566 -0.3326
   22CHL1   H4A 1560   2.898   3.976   5.597 -0.1579 -1.0045 -0.1274
   22CHL1   H4B 1561   2.885   4.156   5.612 -0.8388 -1.9722  2.2634
   22CHL1    C5 1562   2.946   4.075   5.403  0.0430 -0.9057 -0.4268
   22CHL1    C6 1563   2.901   4.189   5.339  0.3105  0.1454  0.2844
   22CHL1    H6 1564   2.858   4.275   5.394 -0.9743 -0.8368  0.8739
   22CHL1    C7 1565   2.893   4.196   5.191  0.0854 -0.0293 -0.3378
   22CHL1   H7A 1566   2.793   4.236   5.163  0.5373  1.1508 -0.3214
   22CHL1   H7B 1567   2.965   4.271   5.153 -0.3282  0.8167  0.5127
   22CHL1    C8 1568   2.928   4.067   5.111  0.4106  0.3617 -0.2964
   22CHL1    H8 1569   2.838   4.002   5.104  0.7233 -0.1114  0.0869
   22CHL1   C14 1570   2.974   4.112   4.969  0.8545 -0.1573  0.0645
   22CHL1   H14 1571   3.058   4.183   4.980 -0.4438  1.2194  1.6412
   22CHL1   C15 1572   2.871   4.172   4.876  0.0256 -0.4009 -0.1196
   22CHL1  H15A 1573   2.772   4.124   4.858 -0.4776  1.0931 -1.5329
   22CHL1  H15B 1574   2.844   4.273   4.913  1.6609 -1.0521  3.2233
   22CHL1   C16 1575   2.938   4.167   4.734 -0.2626 -0.3257  0.3228
   22CHL1  H16A 1576   2.875   4.146   4.645 -0.2009  0.3774  0.0995
   22CHL1  H16B 1577   2.987   4.265   4.711  0.3710 -0.0844  2.5028
   22CHL1   C17 1578   3.060   4.066   4.749  0.4674  0.7666 -0.4150
   22CHL1   H17 1579   3.155   4.122   4.761  0.1588  1.5223 -1.3987
   22CHL1   C13 1580   3.033   3.997   4.882  0.3192  0.0439 -0.1693
   22CHL1   C18 1581   2.918   3.889   4.856  0.6237  0.9757  0.5107
   22CHL1  H18A 1582   2.828   3.927   4.805 -0.3628  1.2180  2.3624
   22CHL1  H18B 1583   2.951   3.794   4.809  1.2274  2.5071 -2.4191
   22CHL1  H18C 1584   2.892   3.847   4.956  0.5526  0.0448  0.1150
   22CHL1   C12 1585   3.149   3.928   4.955 -0.2411  0.2107 -0.0776
   22CHL1  H12A 1586   3.183   3.836   4.902  0.8499  0.0953  0.7869
   22CHL1  H12B 1587   3.238   3.994   4.940 -1.3508  1.6277 -0.6093
   22CHL1   C11 1588   3.128   3.896   5.101 -0.0279 -0.0741 -0.0336
   22CHL1  H11A 1589   3.080   3.796   5.093  1.4439 -0.6722 -2.1765
   22CHL1  H11B 1590   3.227   3.893   5.149 -0.2393  0.4168  0.4469
   22CHL1    C9 1591   3.045   4.000   5.185  0.1452  0.0751  0.1022
   22CHL1    H9 1592   3.110   4.089   5.200 -1.8830  1.8242 -0.7915
   22CHL1   C10 1593   3.028   3.963   5.335  1.2059 -0.1220  0.1786
   22CHL1   C19 1594   2.931   3.846   5.338  0.2308  0.5541  0.1393
   22CHL1  H19A 1595   2.843   3.872   5.275 -0.2741  0.0329  0.6127
   22CHL1  H19B 1596   2.980   3.755   5.297 -2.2371 -0.6046 -0.4204
   22CHL1  H19C 1597   2.889   3.829   5.439 -0.5035  0.8589 -0.1030
   22CHL1    C1 1598   3.159   3.947   5.415 -0.0399 -0.2925  0.6300
   22CHL1   H1A 1599   3.203   3.851   5.380 -0.8413 -1.1186  1.8136
   22CHL1   H1B 1600   3.227   4.028   5.381 -0.7235 -0.0481 -0.1914
   22CHL1    C2 1601   3.155   3.951   5.565  0.4461  0.3987 -0.3829
   22CHL1   H2A 1602   3.263   3.948   5.592 -0.0943  1.4769  2.1251
   22CHL1   H2B 1603   3.106   3.857   5.597 -0.0338  0.3745 -1.1649
   22CHL1   C20 1604   3.077   3.987   4.615 -0.0408  0.4560  0.3592
   22CHL1   H20 1605   2.980   3.941   4.586 -0.0698 -0.3108  1.6099
   22CHL1   C21 1606   3.183   3.872   4.626 -0.0160 -0.0717  0.5748
   22CHL1  H21A 1607   3.190   3.814   4.532  0.3609 -0.8492  1.0782
   22CHL1  H21B 1608   3.155   3.792   4.698 -2.9065  1.1966  0.9991
   22CHL1  H21C 1609   3.284   3.908   4.655 -0.0970 -0.4777  1.3929
   22CHL1   C22 1610   3.118   4.081   4.499  0.0713  0.5899  0.3103
   22CHL1  H22A 1611   3.055   4.172   4.506 -2.1111 -0.7669 -0.7101
   22CHL1  H22B 1612   3.226   4.106   4.507  0.2101 -0.2696  1.5393
   22CHL1   C23 1613   3.077   4.016   4.363 -0.4869  0.0509  0.5693
   22CHL1  H23A 1614   3.135   3.924   4.342  1.4203  1.8252 -2.9347
   22CHL1  H23B 1615   2.968   3.997   4.374 -0.6618 -0.2075 -1.3591
   22CHL1   C24 1616   3.089   4.106   4.240  0.3012 -0.3492 -1.0447
   22CHL1  H24A 1617   3.052   4.209   4.262 -0.5811 -1.2772  2.4119
   22CHL1  H24B 1618   3.198   4.109   4.224  0.3669  3.5391 -0.8504
   22CHL1   C25 1619   3.024   4.060   4.110 -0.1272 -0.7182  0.1113
   22CHL1   H25 1620   2.914   4.056   4.127 -0.1708 -0.8213 -0.1967
   22CHL1   C26 1621   3.057   4.143   3.985  0.5418  0.1655  0.1158
   22CHL1  H26A 1622   3.006   4.123   3.889 -0.5173 -0.1044  0.7196
   22CHL1  H26B 1623   3.043   4.251   4.007  1.4649  0.0927  1.1388
   22CHL1  H26C 1624   3.166   4.134   3.964  0.2773  0.2812 -1.4306
   22CHL1   C27 1625   3.064   3.923   4.070  0.1669  0.5590  0.7358
   22CHL1  H27A 1626   3.027   3.855   4.150  0.4051  0.7238  0.9854
   22CHL1  H27B 1627   3.018   3.885   3.976 -2.2504 -1.8520  2.7031
   22CHL1  H27C 1628   3.174   3.921   4.055  0.0941 -0.9655  0.1488
   23CHL1    C3 1629   1.697   1.398   6.272 -0.2327 -0.2259 -0.1458
   23CHL1    H3 1630   1.606   1.407   6.208 -2.0692 -0.7611  2.2497
   23CHL1    O3 1631   1.683   1.291   6.368  0.4125  0.1416 -0.1291
   23CHL1   H3' 1632   1.717   1.333   6.448 -0.7962  1.1373 -0.1163
   23CHL1    C4 1633   1.819   1.356   6.176 -0.0498 -0.2450  0.8393
   23CHL1   H4A 1634   1.911   1.344   6.238  0.4210  0.6330  0.3346
   23CHL1   H4B 1635   1.799   1.252   6.143 -0.1378 -0.4821  1.6167
   23CHL1    C5 1636   1.839   1.455   6.060  0.0158  0.4325 -0.4642
   23CHL1    C6 1637   1.829   1.417   5.934  0.1717  0.1790  0.8197
   23CHL1    H6 1638   1.806   1.320   5.888  0.4998 -0.1708  1.3845
   23CHL1    C7 1639   1.840   1.523   5.825  0.4853 -0.2680 -0.0268
   23CHL1   H7A 1640   1.893   1.479   5.738 -2.1629 -2.8389 -0.5367
   23CHL1   H7B 1641   1.736   1.541   5.791 -0.0523 -1.4210  0.9206
   23CHL1    C8 1642   1.912   1.653   5.869  0.4941 -0.3116 -0.6074
   23CHL1    H8 1643   2.021   1.660   5.886  0.6341  0.0482 -1.5726
   23CHL1   C14 1644   1.894   1.760   5.760 -0.0185 -0.6974 -0.0859
   23CHL1   H14 1645   1.785   1.772   5.742  0.1263  1.2262  0.1345
   23CHL1   C15 1646   1.949   1.741   5.623 -0.2777 -0.3005  0.4949
   23CHL1  H15A 1647   2.055   1.709   5.630 -0.6234 -1.7416 -0.4785
   23CHL1  H15B 1648   1.898   1.663   5.562  0.4835 -0.1604 -0.3320
   23CHL1   C16 1649   1.939   1.875   5.554 -0.2450  0.4221 -0.0103
   23CHL1  H16A 1650   2.036   1.905   5.508  0.2112 -2.2695 -0.9661
   23CHL1  H16B 1651   1.865   1.884   5.472  1.0416 -0.3493 -1.2922
   23CHL1   C17 1652   1.908   1.986   5.667  0.0409  0.8085 -0.1042
   23CHL1   H17 1653   1.798   2.001   5.662 -0.2105 -0.6296  0.5042
   23CHL1   C13 1654   1.942   1.907   5.798 -0.2948 -0.2790  0.2043
   23CHL1   C18 1655   2.090   1.926   5.823 -1.2516  0.9133 -0.7588
   23CHL1  H18A 1656   2.116   2.034   5.835 -1.2676  0.7872  0.5768
   23CHL1  H18B 1657   2.126   1.860   5.905 -0.7754  0.0798 -1.6244
   23CHL1  H18C 1658   2.150   1.876   5.745  0.1905 -0.1129  0.9383
   23CHL1   C12 1659   1.868   1.948   5.923 -0.4401 -0.5897  0.4890
   23CHL1  H12A 1660   1.901   2.048   5.957  0.3572 -0.7694  0.2650
   23CHL1  H12B 1661   1.765   1.965   5.883 -0.0085 -0.6551 -0.7136
   23CHL1   C11 1662   1.878   1.847   6.034 -0.7009 -0.4802  0.5287
   23CHL1  H11A 1663   1.981   1.851   6.074 -0.1037 -0.0005 -0.9979
   23CHL1  H11B 1664   1.816   1.876   6.122 -2.1757 -1.9880  0.0428
   23CHL1    C9 1665   1.841   1.702   5.999  0.4318 -0.3050 -0.5761
   23CHL1    H9 1666   1.735   1.704   5.967 -0.5936  1.3509  2.4958
   23CHL1   C10 1667   1.854   1.598   6.113  0.4640  0.0456 -0.7254
   23CHL1   C19 1668   1.999   1.617   6.172  0.0568  0.5288 -0.3746
   23CHL1  H19A 1669   2.035   1.522   6.217 -1.3915 -1.4378 -3.1048
   23CHL1  H19B 1670   2.066   1.634   6.085 -1.4017 -0.5664 -1.7737
   23CHL1  H19C 1671   2.003   1.695   6.251 -0.0763  0.2434 -0.0882
   23CHL1    C1 1672   1.746   1.637   6.220 -0.2949 -0.2263 -0.3041
   23CHL1   H1A 1673   1.779   1.734   6.264  0.2287 -0.3455 -0.4264
   23CHL1   H1B 1674   1.647   1.661   6.177 -0.5392 -0.8713 -0.1070
   23CHL1    C2 1675   1.733   1.536   6.330 -0.3355  0.0876 -0.1179
   23CHL1   H2A 1676   1.651   1.577   6.393 -1.0528  0.9074 -1.5300
   23CHL1   H2B 1677   1.827   1.527   6.388  0.3496  1.5796 -0.9530
   23CHL1   C20 1678   1.978   2.117   5.634 -0.0398 -0.0842  0.2938
   23CHL1   H20 1679   2.085   2.113   5.663  0.4929 -1.5845 -1.6251
   23CHL1   C21 1680   1.908   2.232   5.712 -1.0529 -0.2017  0.3962
   23CHL1  H21A 1681   1.942   2.217   5.817 -0.5195 -1.4503  0.0582
   23CHL1  H21B 1682   1.797   2.228   5.700 -1.0337 -0.0159  0.1420
   23CHL1  H21C 1683   1.948   2.333   5.688 -1.5031  0.6733  2.9911
   23CHL1   C22 1684   1.987   2.173   5.486 -0.0237 -0.0606 -0.5107
   23CHL1  H22A 1685   2.039   2.271   5.494 -0.8152  0.5030 -1.9488
   23CHL1  H22B 1686   2.059   2.112   5.426 -0.3029 -1.5285  0.5825
   23CHL1   C23 1687   1.855   2.203   5.412 -0.2643 -0.4560 -0.0365
   23CHL1  H23A 1688   1.798   2.109   5.398 -2.1269  0.9812 -3.2196
   23CHL1  H23B 1689   1.785   2.271   5.465 -1.3679  1.1256 -3.2605
   23CHL1   C24 1690   1.875   2.266   5.279 -0.3318 -0.7569  0.6295
   23CHL1  H24A 1691   1.782   2.309   5.237  1.5480  1.9439 -1.1539
   23CHL1  H24B 1692   1.940   2.354   5.298  0.0977 -1.1636  1.0872
   23CHL1   C25 1693   1.935   2.173   5.175 -0.0867  0.0863 -0.2438
   23CHL1   H25 1694   2.005   2.105   5.228  0.5301  2.0338  1.5980
   23CHL1   C26 1695   1.831   2.067   5.123  0.3008 -0.3791 -0.0810
   23CHL1  H26A 1696   1.874   2.004   5.042  1.5003 -1.1379  1.0895
   23CHL1  H26B 1697   1.798   1.997   5.203 -0.4078  1.0193  0.8829
   23CHL1  H26C 1698   1.739   2.116   5.086  0.5210 -0.0999 -0.2603
   23CHL1   C27 1699   1.994   2.245   5.052 -0.2686 -0.2695 -0.5325
   23CHL1  H27A 1700   2.017   2.162   4.982 -1.2189 -0.4746 -0.6124
   23CHL1  H27B 1701   1.925   2.316   5.001 -0.9596 -1.7814 -1.7726
   23CHL1  H27C 1702   2.085   2.305   5.074 -0.9379  0.4372  0.3889
   24CHL1    C3 1703   3.068   4.457   5.733  0.6559 -0.4011 -0.2554
   24CHL1    H3 1704   3.034   4.355   5.704 -2.3980  0.3936  0.1247
   24CHL1    O3 1705   3.078   4.462   5.871 -0.2973  0.3098  0.1798
   24CHL1   H3' 1706   3.137   4.389   5.890  0.3730  0.1230 -2.3470
   24CHL1    C4 1707   3.209   4.488   5.685  0.6317  1.2662 -0.1010
   24CHL1   H4A 1708   3.237   4.592   5.712 -0.4612  1.2002  1.3669
   24CHL1   H4B 1709   3.292   4.428   5.729 -0.0629 -0.1053 -0.5836
   24CHL1    C5 1710   3.212   4.486   5.534 -0.2726  0.5953  0.3004
   24CHL1    C6 1711   3.293   4.406   5.464 -0.4374  0.1636 -0.7387
   24CHL1    H6 1712   3.356   4.336   5.521  0.2054  0.3179 -1.2502
   24CHL1    C7 1713   3.307   4.400   5.317  0.0838 -0.7545 -0.1220
   24CHL1   H7A 1714   3.414   4.395   5.285 -0.2144  1.2566 -1.6744
   24CHL1   H7B 1715   3.273   4.299   5.287 -1.3265  0.5210 -3.2683
   24CHL1    C8 1716   3.235   4.520   5.244 -0.1817 -0.3400  0.1812
   24CHL1    H8 1717   3.316   4.595   5.237 -2.3297  2.0158 -1.4249
   24CHL1   C14 1718   3.205   4.489   5.098 -0.4505 -0.8168 -0.1686
   24CHL1   H14 1719   3.122   4.415   5.098  0.1021 -1.4715  0.8996
   24CHL1   C15 1720   3.320   4.429   5.020 -0.3080 -0.7691 -0.1068
   24CHL1  H15A 1721   3.406   4.499   5.024  1.0371 -2.3489  0.1577
   24CHL1  H15B 1722   3.353   4.325   5.044 -1.7505 -0.7919  2.0660
   24CHL1   C16 1723   3.255   4.431   4.879  0.3134  0.3324  0.3905
   24CHL1  H16A 1724   3.338   4.474   4.819 -0.6798 -0.1036 -1.3504
   24CHL1  H16B 1725   3.219   4.331   4.847 -0.1952  1.4723 -3.0052
   24CHL1   C17 1726   3.140   4.533   4.875  0.6030  0.2351 -0.5954
   24CHL1   H17 1727   3.045   4.478   4.890  0.2894  1.4442  2.6815
   24CHL1   C13 1728   3.145   4.602   5.013 -0.3349  0.1903  0.4016
   24CHL1   C18 1729   3.242   4.722   5.007  0.0040  0.6374  0.2361
   24CHL1  H18A 1730   3.270   4.757   5.109  0.3872 -1.3667  0.8576
   24CHL1  H18B 1731   3.330   4.700   4.943  0.4648  0.1604  1.0114
   24CHL1  H18C 1732   3.184   4.806   4.965 -1.7880  0.2643  1.8225
   24CHL1   C12 1733   3.014   4.641   5.079 -0.0741  0.1302  0.0755
   24CHL1  H12A 1734   2.986   4.740   5.037 -0.8516 -0.2060 -0.2218
   24CHL1  H12B 1735   2.936   4.563   5.068 -1.5292  1.7160 -1.6811
   24CHL1   C11 1736   3.033   4.673   5.229 -0.3051 -0.0323 -0.3013
   24CHL1  H11A 1737   3.090   4.768   5.236 -0.3704 -0.0538  0.5552
   24CHL1  H11B 1738   2.929   4.690   5.263 -0.8201  2.0884 -2.6301
   24CHL1    C9 1739   3.096   4.560   5.310 -0.1068 -0.1964 -0.1789
   24CHL1    H9 1740   3.034   4.470   5.292  0.7121 -0.3817 -2.3888
   24CHL1   C10 1741   3.110   4.579   5.466  0.5335  0.1439 -0.2911
   24CHL1   C19 1742   3.173   4.728   5.479  0.0975 -0.1727 -0.0946
   24CHL1  H19A 1743   3.210   4.750   5.582  0.3582  3.4567 -0.8399
   24CHL1  H19B 1744   3.262   4.745   5.415  1.1128  0.1561  1.3434
   24CHL1  H19C 1745   3.101   4.811   5.462  1.3289  1.1408  0.7958
   24CHL1    C1 1746   2.974   4.567   5.534  0.6150  0.1043 -0.3131
   24CHL1   H1A 1747   2.915   4.657   5.506  0.0164  0.4211  1.8485
   24CHL1   H1B 1748   2.921   4.476   5.499 -0.6913  0.7124  0.0087
   24CHL1    C2 1749   2.971   4.569   5.685  0.2201  0.3239 -0.1714
   24CHL1   H2A 1750   2.869   4.541   5.717  0.4566  0.3104  0.5886
   24CHL1   H2B 1751   3.000   4.662   5.738  1.8988 -0.8086  1.0325
   24CHL1   C20 1752   3.127   4.606   4.742 -0.2694  0.4608  0.1165
   24CHL1   H20 1753   3.208   4.682   4.728  0.5622  0.5296  3.9897
   24CHL1   C21 1754   2.991   4.677   4.746 -0.1142  0.1187 -0.1301
   24CHL1  H21A 1755   2.968   4.720   4.646 -1.0942  0.3055  0.1621
   24CHL1  H21B 1756   3.001   4.754   4.826  1.4110 -0.1210 -0.0616
   24CHL1  H21C 1757   2.907   4.611   4.776 -1.4894  2.2339  0.9232
   24CHL1   C22 1758   3.123   4.515   4.620  0.2629  0.6733  0.2089
   24CHL1  H22A 1759   3.188   4.425   4.631 -0.1785 -0.2593 -3.4233
   24CHL1  H22B 1760   3.026   4.464   4.602  0.5728  0.5700 -1.3538
   24CHL1   C23 1761   3.173   4.588   4.489  0.3839  0.2871 -0.3712
   24CHL1  H23A 1762   3.086   4.651   4.459  0.0892  0.4249  0.7341
   24CHL1  H23B 1763   3.251   4.663   4.515  0.8662  0.4066 -2.0694
   24CHL1   C24 1764   3.231   4.482   4.384  0.0148 -0.1390 -0.2383
   24CHL1  H24A 1765   3.313   4.422   4.429 -2.6635 -3.0855  1.0408
   24CHL1  H24B 1766   3.154   4.407   4.357  0.2886 -0.6828  0.4461
   24CHL1   C25 1767   3.301   4.542   4.254  0.3552  0.0512  0.0009
   24CHL1   H25 1768   3.390   4.601   4.282  0.6549 -1.0458  1.5217
   24CHL1   C26 1769   3.348   4.422   4.163  0.1825 -0.1910  0.2522
   24CHL1  H26A 1770   3.401   4.458   4.073 -1.2016  0.7270 -0.2228
   24CHL1  H26B 1771   3.414   4.354   4.223 -0.5904 -1.2730 -0.1001
   24CHL1  H26C 1772   3.256   4.368   4.134 -2.0034  1.3965  3.6176
   24CHL1   C27 1773   3.227   4.652   4.177 -0.1296 -0.0992 -0.2056
   24CHL1  H27A 1774   3.298   4.698   4.105 -0.3269  1.3464  0.4849
   24CHL1  H27B 1775   3.138   4.627   4.115 -0.8233 -0.6130  0.9590
   24CHL1  H27C 1776   3.191   4.735   4.242  1.1235 -0.4945  1.0304
   25CHL1    C3 1777   0.283   1.476   5.959  0.4027  0.6722  0.6377
   25CHL1    H3 1778   0.280   1.370   5.927  1.5205  0.7037  0.3993
   25CHL1    O3 1779   0.251   1.472   6.097  0.6035 -0.2397  0.0105
   25CHL1   H3' 1780   0.155   1.478   6.101  0.6816  1.1443  0.7060
   25CHL1    C4 1781   0.421   1.534   5.933 -0.2500  0.4436  0.8743
   25CHL1   H4A 1782   0.421   1.633   5.983 -1.1547 -0.3673  2.5789
   25CHL1   H4B 1783   0.497   1.464   5.974 -1.0709 -0.2908  1.2059
   25CHL1    C5 1784   0.458   1.548   5.780 -0.4254  0.3007  0.0228
   25CHL1    C6 1785   0.567   1.494   5.727  0.3305  0.4285 -0.7260
   25CHL1    H6 1786   0.627   1.427   5.790  2.4036  1.2454 -1.7281
   25CHL1    C7 1787   0.600   1.507   5.577  0.7052  0.1945 -0.8803
   25CHL1   H7A 1788   0.709   1.515   5.562  0.9681  0.8827  1.1233
   25CHL1   H7B 1789   0.572   1.412   5.527  0.7521 -0.0898 -0.3747
   25CHL1    C8 1790   0.530   1.627   5.506 -0.4442  0.2785 -0.1736
   25CHL1    H8 1791   0.579   1.720   5.542 -0.2084  0.0228  0.1677
   25CHL1   C14 1792   0.536   1.605   5.349  0.6104  0.0608  0.5352
   25CHL1   H14 1793   0.485   1.509   5.327  0.9766 -0.6831  2.6631
   25CHL1   C15 1794   0.677   1.584   5.285  0.2122 -0.5453  0.8882
   25CHL1  H15A 1795   0.744   1.657   5.335 -0.1732 -1.3412  2.6612
   25CHL1  H15B 1796   0.709   1.478   5.287 -0.7436 -0.9353 -1.2568
   25CHL1   C16 1797   0.663   1.635   5.144  0.0318  0.4389 -0.5769
   25CHL1  H16A 1798   0.732   1.715   5.112  0.2502  0.0433 -1.1097
   25CHL1  H16B 1799   0.687   1.549   5.079  0.2566 -0.4451  0.6373
   25CHL1   C17 1800   0.517   1.665   5.128  0.0363 -1.4581 -0.6918
   25CHL1   H17 1801   0.461   1.573   5.102  0.6802 -1.6821 -1.2870
   25CHL1   C13 1802   0.467   1.708   5.273  0.3938 -0.2753 -0.7441
   25CHL1   C18 1803   0.525   1.852   5.304  0.1800  0.2773  0.2307
   25CHL1  H18A 1804   0.476   1.929   5.241 -0.3612 -0.3984 -0.1990
   25CHL1  H18B 1805   0.513   1.874   5.412 -0.0947  1.5266 -0.0381
   25CHL1  H18C 1806   0.634   1.851   5.285  0.2196 -0.7762  0.4407
   25CHL1   C12 1807   0.325   1.705   5.315  0.1688 -0.1004 -0.3384
   25CHL1  H12A 1808   0.271   1.778   5.251  1.2038  0.4815 -0.5705
   25CHL1  H12B 1809   0.296   1.602   5.284  2.3711 -0.8613 -0.0536
   25CHL1   C11 1810   0.291   1.723   5.461  0.3147  0.1807 -0.7516
   25CHL1  H11A 1811   0.308   1.830   5.486  0.6326 -0.1753  0.6437
   25CHL1  H11B 1812   0.183   1.706   5.476  0.6021 -0.6224  0.5888
   25CHL1    C9 1813   0.382   1.631   5.550  0.9576  0.2506 -0.0235
   25CHL1    H9 1814   0.355   1.529   5.515  2.2619  0.2246 -1.0173
   25CHL1   C10 1815   0.355   1.628   5.705  0.2271  0.9931  0.3381
   25CHL1   C19 1816   0.371   1.774   5.750  0.2205 -1.1512 -0.1898
   25CHL1  H19A 1817   0.285   1.830   5.708  1.3962  0.9349  0.0674
   25CHL1  H19B 1818   0.352   1.792   5.858 -2.7031 -1.7373 -0.5232
   25CHL1  H19C 1819   0.456   1.831   5.708 -2.6627  1.4172 -3.1264
   25CHL1    C1 1820   0.214   1.565   5.735  0.1003 -0.0582 -0.3326
   25CHL1   H1A 1821   0.137   1.639   5.705  1.8628  2.1226  0.2894
   25CHL1   H1B 1822   0.210   1.465   5.685 -2.4948 -0.6397  0.8577
   25CHL1    C2 1823   0.176   1.551   5.891 -0.2349  0.0395  0.0420
   25CHL1   H2A 1824   0.078   1.500   5.901 -1.1983  1.4132 -1.7613
   25CHL1   H2B 1825   0.183   1.659   5.918  0.0600 -0.3312  1.5390
   25CHL1   C20 1826   0.486   1.761   5.012 -0.0877 -0.3517  0.6748
   25CHL1   H20 1827   0.546   1.853   5.026 -1.5534  1.0963 -1.7134
   25CHL1   C21 1828   0.338   1.810   5.004  0.1205 -0.1353  0.0361
   25CHL1  H21A 1829   0.319   1.860   4.906  0.2176 -0.4505 -0.1469
   25CHL1  H21B 1830   0.329   1.885   5.085  0.5017 -0.2768  0.2164
   25CHL1  H21C 1831   0.263   1.731   5.025  1.1650 -1.7208 -1.7956
   25CHL1   C22 1832   0.524   1.714   4.868 -0.6421 -0.1173 -0.5247
   25CHL1  H22A 1833   0.521   1.803   4.802  2.0282  1.1238  0.8931
   25CHL1  H22B 1834   0.630   1.682   4.860 -1.0870 -2.1606  0.8557
   25CHL1   C23 1835   0.440   1.603   4.801  0.4099 -0.0805  0.5619
   25CHL1  H23A 1836   0.471   1.516   4.862  2.4545  0.5205  0.4491
   25CHL1  H23B 1837   0.330   1.614   4.806  0.1367 -1.8471 -0.6848
   25CHL1   C24 1838   0.462   1.578   4.655 -0.3600  0.6849 -0.0545
   25CHL1  H24A 1839   0.432   1.666   4.594  2.0666  1.2016 -0.6358
   25CHL1  H24B 1840   0.567   1.546   4.637 -1.3778 -3.3787  0.2768
   25CHL1   C25 1841   0.376   1.462   4.590 -0.1634 -0.2612 -0.5495
   25CHL1   H25 1842   0.274   1.481   4.629  0.7751  2.2924  0.8807
   25CHL1   C26 1843   0.377   1.485   4.438  0.5742  0.8459  0.0558
   25CHL1  H26A 1844   0.325   1.410   4.374  2.1206  0.8226 -1.2337
   25CHL1  H26B 1845   0.317   1.574   4.408 -1.1480 -0.5140 -0.7075
   25CHL1  H26C 1846   0.483   1.497   4.407  0.5791 -0.7434 -0.6180
   25CHL1   C27 1847   0.416   1.325   4.641  0.3468 -0.1483 -0.1355
   25CHL1  H27A 1848   0.383   1.313   4.746 -2.7133 -0.0179 -0.9960
   25CHL1  H27B 1849   0.384   1.241   4.576  1.4717  0.0978 -1.0426
   25CHL1  H27C 1850   0.526   1.309   4.630  0.3545 -0.9052  0.9448
   26CHL1    C3 1851   4.974   5.501   5.849  0.0682 -0.3101  0.4006
   26CHL1    H3 1852   4.975   5.390   5.853  1.9339 -0.2960  1.5443
   26CHL1    O3 1853   4.963   5.560   5.974  0.1562 -0.0609 -0.1447
   26CHL1   H3' 1854   4.970   5.653   5.953  0.1903  0.1602  0.8192
   26CHL1    C4 1855   5.099   5.552   5.783 -0.0535 -0.1160 -0.4670
   26CHL1   H4A 1856   5.106   5.663   5.787  0.1890 -0.0200 -2.5814
   26CHL1   H4B 1857   5.178   5.500   5.842  0.0941  0.6093 -0.0195
   26CHL1    C5 1858   5.100   5.501   5.643  0.9494 -0.3086 -0.3754
   26CHL1    C6 1859   5.208   5.435   5.596  0.4356 -0.3392 -0.2669
   26CHL1    H6 1860   5.294   5.427   5.665  1.5003  1.4001 -1.3000
   26CHL1    C7 1861   5.208   5.377   5.458  0.5517  0.5612  0.1861
   26CHL1   H7A 1862   5.308   5.381   5.408  0.5164 -1.6762 -0.1410
   26CHL1   H7B 1863   5.189   5.268   5.460  2.1879  0.1893 -1.3971
   26CHL1    C8 1864   5.105   5.437   5.362 -0.1525 -0.4986 -0.0960
   26CHL1    H8 1865   5.140   5.542   5.348 -1.9857 -0.0015 -1.3765
   26CHL1   C14 1866   5.103   5.365   5.227 -0.0402  0.5185 -0.8693
   26CHL1   H14 1867   5.067   5.268   5.268  0.7417  1.7569  3.1949
   26CHL1   C15 1868   5.236   5.329   5.155 -0.5698 -0.6107 -0.2543
   26CHL1  H15A 1869   5.298   5.418   5.134  0.0360 -1.5617 -2.7701
   26CHL1  H15B 1870   5.299   5.256   5.211 -0.2534  1.0732  1.7165
   26CHL1   C16 1871   5.181   5.307   5.010  0.0353  0.0580 -0.5976
   26CHL1  H16A 1872   5.223   5.388   4.947  0.8320 -0.6924 -1.0596
   26CHL1  H16B 1873   5.219   5.206   4.984  0.0155  0.2509 -1.3893
   26CHL1   C17 1874   5.033   5.331   5.011  0.5165  0.0960  0.6714
   26CHL1   H17 1875   4.985   5.236   5.044 -0.1369  0.9149  2.2078
   26CHL1   C13 1876   5.005   5.421   5.128 -0.1136 -0.8504  0.3187
   26CHL1   C18 1877   5.041   5.575   5.093  0.0758  0.7239  0.0124
   26CHL1  H18A 1878   5.023   5.638   5.182  0.3999  0.5529  0.2003
   26CHL1  H18B 1879   5.143   5.583   5.049  0.0639 -2.0444 -0.7622
   26CHL1  H18C 1880   4.984   5.618   5.007  2.6253  0.5291 -1.8924
   26CHL1   C12 1881   4.863   5.406   5.189 -0.2090  0.6824 -0.1466
   26CHL1  H12A 1882   4.802   5.457   5.111  2.4732  0.9808 -2.1875
   26CHL1  H12B 1883   4.833   5.301   5.208  0.2470  0.6464  0.3808
   26CHL1   C11 1884   4.855   5.480   5.319 -0.1437  0.0785 -0.4388
   26CHL1  H11A 1885   4.866   5.590   5.310 -1.7298  0.3296  0.4171
   26CHL1  H11B 1886   4.765   5.444   5.374  1.0250  0.9963  2.1719
   26CHL1    C9 1887   4.971   5.446   5.423  0.0736 -0.5374  0.1231
   26CHL1    H9 1888   4.950   5.343   5.459 -0.8233 -0.0226  1.1343
   26CHL1   C10 1889   4.973   5.533   5.550 -0.3712  0.6980 -0.1127
   26CHL1   C19 1890   4.985   5.686   5.532 -0.0607 -0.5799 -0.1402
   26CHL1  H19A 1891   4.901   5.728   5.473 -0.3795 -1.0658 -0.0366
   26CHL1  H19B 1892   4.977   5.751   5.621  2.0292 -0.1463 -0.2244
   26CHL1  H19C 1893   5.080   5.699   5.475 -0.0526 -2.0267 -0.4990
   26CHL1    C1 1894   4.845   5.503   5.631  0.5761 -0.0156 -0.2606
   26CHL1   H1A 1895   4.759   5.540   5.571 -2.0083 -2.0623  1.9106
   26CHL1   H1B 1896   4.836   5.392   5.630  0.0759 -0.0626 -3.8139
   26CHL1    C2 1897   4.846   5.552   5.780  0.0448 -0.1810  0.1936
   26CHL1   H2A 1898   4.768   5.495   5.834  1.8485  0.1339  3.3246
   26CHL1   H2B 1899   4.843   5.662   5.790 -1.6664 -0.2848  1.1748
   26CHL1   C20 1900   4.980   5.356   4.865  0.0295 -0.8712 -0.3999
   26CHL1   H20 1901   5.038   5.447   4.839  0.2421 -0.4095  1.5562
   26CHL1   C21 1902   4.830   5.376   4.853  0.1522 -0.0106  0.2819
   26CHL1  H21A 1903   4.791   5.462   4.912 -0.8976 -0.8564  0.8587
   26CHL1  H21B 1904   4.773   5.291   4.897 -0.9740  0.7228  0.2984
   26CHL1  H21C 1905   4.792   5.411   4.755  1.0909  0.5119  0.0968
   26CHL1   C22 1906   5.036   5.261   4.757  0.4963  0.4913 -1.0617
   26CHL1  H22A 1907   5.039   5.321   4.664 -0.5660 -0.1880 -1.5504
   26CHL1  H22B 1908   5.142   5.228   4.771  0.4538  0.7506 -0.0612
   26CHL1   C23 1909   4.957   5.131   4.738  1.2888 -0.3811 -0.9706
   26CHL1  H23A 1910   4.968   5.077   4.835  1.1093  0.3926 -0.5167
   26CHL1  H23B 1911   4.848   5.132   4.715  1.1813 -1.3542 -0.5426
   26CHL1   C24 1912   5.020   5.052   4.622 -0.0629 -0.4858 -0.1238
   26CHL1  H24A 1913   5.009   5.109   4.527  1.3910 -0.5354 -0.3377
   26CHL1  H24B 1914   5.125   5.022   4.639  0.0943  0.6432  1.0299
   26CHL1   C25 1915   4.938   4.918   4.583 -0.6708 -0.5594 -0.8497
   26CHL1   H25 1916   4.833   4.949   4.564 -0.5190  0.8085  0.3945
   26CHL1   C26 1917   5.013   4.862   4.457 -0.2519  0.4475 -0.0696
   26CHL1  H26A 1918   4.939   4.797   4.406  0.5407 -1.7991  1.4568
   26CHL1  H26B 1919   5.035   4.941   4.382  1.4101 -0.1514 -0.2499
   26CHL1  H26C 1920   5.102   4.810   4.501 -0.7608  0.8818  1.5555
   26CHL1   C27 1921   4.929   4.817   4.697 -0.2860 -0.1166  0.2738
   26CHL1  H27A 1922   4.885   4.872   4.783 -0.1962  2.5058 -1.2670
   26CHL1  H27B 1923   4.862   4.740   4.653 -1.9023  1.0711  0.5604
   26CHL1  H27C 1924   5.033   4.788   4.725  0.3694  2.6184  1.0358
   27CHL1    C3 1925   3.574   4.229   5.776 -0.5192 -0.2124  0.2696
   27CHL1    H3 1926   3.474   4.255   5.736 -0.5068 -0.3070  0.1784
   27CHL1    O3 1927   3.571   4.235   5.920 -0.3861 -0.4285 -0.5249
   27CHL1   H3' 1928   3.663   4.213   5.938  0.3678  1.2070 -2.0521
   27CHL1    C4 1929   3.615   4.088   5.720 -0.5791 -0.2369 -0.1947
   27CHL1   H4A 1930   3.706   4.062   5.779  0.7823  2.8813 -0.7450
   27CHL1   H4B 1931   3.535   4.021   5.757 -0.2505 -0.0985  0.7941
   27CHL1    C5 1932   3.632   4.094   5.569 -0.2336  0.8157  0.4207
   27CHL1    C6 1933   3.548   4.023   5.496 -0.2268 -0.1832 -0.2773
   27CHL1    H6 1934   3.475   3.960   5.548 -1.4344  1.5805  0.2711
   27CHL1    C7 1935   3.537   4.026   5.350  0.1282 -0.2207  0.1893
   27CHL1   H7A 1936   3.514   3.928   5.304  2.6058 -0.8603  0.1639
   27CHL1   H7B 1937   3.464   4.105   5.321  0.1379 -0.3369 -0.1455
   27CHL1    C8 1938   3.669   4.082   5.286 -0.5821  0.9934  0.4779
   27CHL1    H8 1939   3.740   3.997   5.296 -1.4648 -0.1813 -2.1838
   27CHL1   C14 1940   3.642   4.113   5.139 -0.1226  0.1609 -0.0868
   27CHL1   H14 1941   3.555   4.182   5.145 -0.1173  0.1659 -0.0678
   27CHL1   C15 1942   3.607   4.003   5.041  0.3212 -0.0658  0.1459
   27CHL1  H15A 1943   3.679   3.919   5.037  0.7405  0.2804  0.3322
   27CHL1  H15B 1944   3.506   3.959   5.055  0.6591 -1.2177 -0.8740
   27CHL1   C16 1945   3.600   4.071   4.900  0.7023  0.5422  0.0040
   27CHL1  H16A 1946   3.650   4.005   4.827  0.3907  0.7148 -0.3743
   27CHL1  H16B 1947   3.495   4.085   4.866  0.5657  0.2495  0.2990
   27CHL1   C17 1948   3.677   4.205   4.919  0.1736  0.2576 -0.3815
   27CHL1   H17 1949   3.605   4.289   4.934  0.4049  0.5877 -1.0670
   27CHL1   C13 1950   3.749   4.190   5.055  0.3144  0.3310  0.3860
   27CHL1   C18 1951   3.876   4.103   5.039 -0.3732  0.4422 -0.8040
   27CHL1  H18A 1952   3.866   4.015   4.973 -0.7499 -0.2896  0.2074
   27CHL1  H18B 1953   3.957   4.164   4.993  0.3103  0.5494  0.4917
   27CHL1  H18C 1954   3.911   4.064   5.137  1.4543  0.5894 -1.3673
   27CHL1   C12 1955   3.794   4.314   5.134 -0.0576  0.1162 -0.1211
   27CHL1  H12A 1956   3.883   4.355   5.081 -0.6786 -2.2194 -3.2920
   27CHL1  H12B 1957   3.716   4.393   5.131 -0.9028 -0.6462  1.1477
   27CHL1   C11 1958   3.833   4.277   5.279 -0.0618 -0.1738  0.1281
   27CHL1  H11A 1959   3.930   4.223   5.275 -1.1064 -2.1021 -0.5366
   27CHL1  H11B 1960   3.850   4.369   5.339 -0.0979  0.7877 -1.2955
   27CHL1    C9 1961   3.720   4.208   5.353 -0.7365 -0.4756  1.0101
   27CHL1    H9 1962   3.632   4.274   5.335 -0.5501 -0.8449 -1.6773
   27CHL1   C10 1963   3.729   4.191   5.507 -0.4085 -0.3080  0.4394
   27CHL1   C19 1964   3.876   4.155   5.541  0.2234 -0.0755  0.1842
   27CHL1  H19A 1965   3.897   4.064   5.481  1.3394  1.5095 -1.9690
   27CHL1  H19B 1966   3.951   4.233   5.516 -0.0200  0.8139  2.1001
   27CHL1  H19C 1967   3.889   4.120   5.645 -1.2829 -0.7035  0.1916
   27CHL1    C1 1968   3.686   4.326   5.567 -0.4416 -0.0892  0.5775
   27CHL1   H1A 1969   3.765   4.401   5.543 -0.8463 -0.6143 -2.7418
   27CHL1   H1B 1970   3.589   4.363   5.529  0.2114  2.2909  1.0528
   27CHL1    C2 1971   3.682   4.330   5.724  0.4655 -0.6359 -0.3903
   27CHL1   H2A 1972   3.661   4.435   5.751  1.5219 -0.4968 -0.0745
   27CHL1   H2B 1973   3.784   4.318   5.764  0.4624 -1.3179 -0.5659
   27CHL1   C20 1974   3.765   4.234   4.799 -0.3525 -0.6616  0.1329
   27CHL1   H20 1975   3.859   4.178   4.815 -0.4622 -0.9285 -0.1608
   27CHL1   C21 1976   3.789   4.381   4.791 -0.0713  0.2607 -0.8888
   27CHL1  H21A 1977   3.696   4.442   4.793 -0.7157 -0.6541  2.3074
   27CHL1  H21B 1978   3.842   4.404   4.696 -0.8833  2.4588 -0.8673
   27CHL1  H21C 1979   3.857   4.412   4.873  0.2077  0.3641 -1.1553
   27CHL1   C22 1980   3.723   4.188   4.660  0.2597  0.5276  1.0112
   27CHL1  H22A 1981   3.783   4.242   4.583 -0.6487  0.2939  0.1102
   27CHL1  H22B 1982   3.744   4.080   4.647  0.7486  0.5672  1.4637
   27CHL1   C23 1983   3.579   4.226   4.611  0.1707  0.1331 -0.1270
   27CHL1  H23A 1984   3.510   4.159   4.667 -3.1618  2.0780 -1.6430
   27CHL1  H23B 1985   3.556   4.328   4.648 -0.4690 -0.6444  1.6857
   27CHL1   C24 1986   3.540   4.223   4.459  0.1189 -0.1776  0.0263
   27CHL1  H24A 1987   3.434   4.251   4.443  0.3343  1.4263  1.1195
   27CHL1  H24B 1988   3.605   4.301   4.414 -1.4052  1.5047  0.6352
   27CHL1   C25 1989   3.566   4.092   4.390 -0.4630 -0.3420 -0.2883
   27CHL1   H25 1990   3.675   4.073   4.379 -0.5372 -0.0269 -1.8356
   27CHL1   C26 1991   3.478   3.975   4.440  0.3140  0.3408  0.5259
   27CHL1  H26A 1992   3.505   3.876   4.396  0.3748  0.1760  0.9292
   27CHL1  H26B 1993   3.484   3.954   4.549 -0.5304 -0.8729  0.3565
   27CHL1  H26C 1994   3.377   4.001   4.404  0.0206  0.4463  1.4076
   27CHL1   C27 1995   3.517   4.117   4.243 -0.3555 -0.5543 -0.3886
   27CHL1  H27A 1996   3.410   4.146   4.235 -0.1432  0.9181  1.3934
   27CHL1  H27B 1997   3.579   4.188   4.183  0.6682 -0.3386  0.8956
   27CHL1  H27C 1998   3.532   4.024   4.184  1.1494 -0.8710  0.4522
   28CHL1    C3 1999   2.209   5.870   6.021  1.1214 -0.0791 -0.9448
   28CHL1    H3 2000   2.113   5.919   5.996 -0.4565 -0.8925  2.8210
   28CHL1    O3 2001   2.202   5.852   6.165  0.6826  0.3120  0.0307
   28CHL1   H3' 2002   2.217   5.759   6.184  0.6488  0.4307  0.6626
   28CHL1    C4 2003   2.209   5.732   5.945  0.3237  0.3988  0.1099
   28CHL1   H4A 2004   2.297   5.677   5.986  0.8469  0.7134 -0.5646
   28CHL1   H4B 2005   2.113   5.685   5.974 -0.5176  1.0112 -1.5872
   28CHL1    C5 2006   2.218   5.747   5.795 -0.0589 -0.8394 -0.1492
   28CHL1    C6 2007   2.136   5.686   5.705 -0.0336  0.2021 -0.6542
   28CHL1    H6 2008   2.061   5.622   5.754  0.7018  0.3816  0.7679
   28CHL1    C7 2009   2.136   5.695   5.555  0.1225  0.0362 -0.4457
   28CHL1   H7A 2010   2.120   5.599   5.502  0.0548 -0.0817 -0.2155
   28CHL1   H7B 2011   2.041   5.744   5.526 -0.6661 -1.2624 -0.1184
   28CHL1    C8 2012   2.262   5.763   5.510  0.6382 -0.3485  0.2128
   28CHL1    H8 2013   2.346   5.690   5.517  0.0591 -1.0989 -0.4263
   28CHL1   C14 2014   2.248   5.809   5.368  0.5531 -0.3613  0.1698
   28CHL1   H14 2015   2.169   5.887   5.366  2.0893  1.2278 -0.7374
   28CHL1   C15 2016   2.206   5.710   5.260  0.4187 -0.1806 -0.4911
   28CHL1  H15A 2017   2.235   5.606   5.286 -0.8788  0.0560  2.2986
   28CHL1  H15B 2018   2.095   5.702   5.250  0.3078  0.1088  0.3876
   28CHL1   C16 2019   2.269   5.761   5.138 -0.3101  0.0858 -0.2521
   28CHL1  H16A 2020   2.345   5.686   5.106 -0.0746 -0.2439  1.0219
   28CHL1  H16B 2021   2.197   5.770   5.054  0.1496 -2.9332 -1.0901
   28CHL1   C17 2022   2.337   5.893   5.161 -0.6717  0.3262 -0.3842
   28CHL1   H17 2023   2.260   5.974   5.161  0.9343  1.9117  0.0553
   28CHL1   C13 2024   2.370   5.877   5.311 -1.0052 -0.0871 -0.0922
   28CHL1   C18 2025   2.495   5.785   5.321 -0.6936  0.4473  0.0964
   28CHL1  H18A 2026   2.484   5.694   5.258  1.5328 -0.6727  1.2196
   28CHL1  H18B 2027   2.586   5.838   5.288  0.1022 -0.0747  1.3713
   28CHL1  H18C 2028   2.510   5.755   5.427 -2.7240 -1.0101  0.0373
   28CHL1   C12 2029   2.395   6.005   5.386 -0.0936  0.3064  0.3487
   28CHL1  H12A 2030   2.486   6.049   5.341  0.2933 -1.9276 -1.2265
   28CHL1  H12B 2031   2.307   6.072   5.370 -1.6726 -1.6335  0.5392
   28CHL1   C11 2032   2.412   5.976   5.538  0.3994  0.6238  0.0003
   28CHL1  H11A 2033   2.503   5.916   5.560 -0.4466 -0.1734  1.4393
   28CHL1  H11B 2034   2.415   6.078   5.583  1.2813 -0.2123  1.9478
   28CHL1    C9 2035   2.297   5.886   5.600 -0.0896  0.0221  0.0959
   28CHL1    H9 2036   2.212   5.956   5.586 -0.7125 -1.0726 -2.1209
   28CHL1   C10 2037   2.319   5.854   5.745 -0.1455  1.4694  0.4533
   28CHL1   C19 2038   2.459   5.785   5.765  0.1138  0.3453  0.7350
   28CHL1  H19A 2039   2.481   5.768   5.873  3.9928  0.5987  0.1387
   28CHL1  H19B 2040   2.472   5.701   5.695  1.9618 -0.5407  2.0564
   28CHL1  H19C 2041   2.543   5.857   5.748 -0.2832 -0.0147 -3.6857
   28CHL1    C1 2042   2.322   5.982   5.824 -0.5082  0.0795 -0.6949
   28CHL1   H1A 2043   2.415   6.037   5.796  1.0434 -0.7695  2.3434
   28CHL1   H1B 2044   2.231   6.038   5.795 -0.2885  0.1880 -1.1837
   28CHL1    C2 2045   2.321   5.961   5.978 -0.4365  0.5793 -0.0723
   28CHL1   H2A 2046   2.319   6.054   6.039 -1.3108  0.4104  0.1722
   28CHL1   H2B 2047   2.407   5.897   6.006 -0.1954 -0.4927 -2.9757
   28CHL1   C20 2048   2.441   5.914   5.047 -0.6670 -0.6166  0.1238
   28CHL1   H20 2049   2.492   5.816   5.035 -1.7232 -1.0850 -0.8363
   28CHL1   C21 2050   2.532   6.033   5.088  1.0172  0.5774  0.1292
   28CHL1  H21A 2051   2.480   6.120   5.134 -3.2188 -1.4451 -0.3747
   28CHL1  H21B 2052   2.606   6.060   5.010 -1.0068  2.8998 -1.1342
   28CHL1  H21C 2053   2.594   5.995   5.172  1.5090  0.4123 -0.3107
   28CHL1   C22 2054   2.355   5.936   4.913  0.0606  0.3323 -0.1476
   28CHL1  H22A 2055   2.312   5.842   4.872 -0.6804  1.0699 -1.1187
   28CHL1  H22B 2056   2.274   6.009   4.932 -0.2577 -0.2001  0.5804
   28CHL1   C23 2057   2.437   5.995   4.787  0.2666  0.4431  0.2959
   28CHL1  H23A 2058   2.459   6.103   4.804 -2.6116  1.1190  0.4099
   28CHL1  H23B 2059   2.526   5.934   4.763  0.5210  0.7279  0.5146
   28CHL1   C24 2060   2.356   5.991   4.655  0.2665 -0.3441  0.3388
   28CHL1  H24A 2061   2.327   5.887   4.634  0.8167 -0.2932 -0.7072
   28CHL1  H24B 2062   2.264   6.053   4.659 -0.7439 -1.7371 -0.6197
   28CHL1   C25 2063   2.443   6.021   4.533 -0.2449 -0.2029 -0.4271
   28CHL1   H25 2064   2.494   5.928   4.500  0.8403 -0.0139  0.6709
   28CHL1   C26 2065   2.348   6.064   4.418  0.0038  0.0900  0.0067
   28CHL1  H26A 2066   2.322   6.171   4.434 -0.8636 -0.3548  1.7545
   28CHL1  H26B 2067   2.408   6.061   4.325  2.7294  0.0815  1.6750
   28CHL1  H26C 2068   2.261   5.995   4.409 -0.8534  1.1767 -0.3384
   28CHL1   C27 2069   2.550   6.131   4.551 -0.0349  0.0930 -0.6436
   28CHL1  H27A 2070   2.610   6.170   4.466 -0.6684  2.2216 -0.1844
   28CHL1  H27B 2071   2.489   6.219   4.581  0.6073 -0.5240  2.9007
   28CHL1  H27C 2072   2.607   6.100   4.641 -1.7024  0.9999  0.7994
   29CHL1    C3 2073   1.892   5.478   3.020 -0.1860 -0.4662  0.1692
   29CHL1    H3 2074   2.002   5.470   3.015 -0.2862 -2.6850  0.2551
   29CHL1    O3 2075   1.849   5.426   2.892  0.0474 -0.4414  0.0770
   29CHL1   H3' 2076   1.875   5.492   2.827 -0.3268 -0.8606 -0.5091
   29CHL1    C4 2077   1.836   5.390   3.131  0.7435 -0.0263  0.2362
   29CHL1   H4A 2078   1.727   5.375   3.119  0.5947  1.3716 -0.4004
   29CHL1   H4B 2079   1.894   5.297   3.113  1.3010  0.2255  0.6949
   29CHL1    C5 2080   1.855   5.448   3.270  0.1034 -1.0057 -0.0203
   29CHL1    C6 2081   1.918   5.380   3.360 -0.1181  0.0252 -0.1187
   29CHL1    H6 2082   1.950   5.280   3.327  1.4886  1.0539 -1.8955
   29CHL1    C7 2083   1.948   5.426   3.503 -0.9058  0.2377  0.1365
   29CHL1   H7A 2084   1.943   5.345   3.579  1.0089  0.2759  0.3382
   29CHL1   H7B 2085   2.048   5.473   3.511  0.1814 -1.8985 -0.1170
   29CHL1    C8 2086   1.854   5.549   3.542 -0.2255  0.1535  0.4567
   29CHL1    H8 2087   1.756   5.497   3.544 -0.2475  0.1872  0.2712
   29CHL1   C14 2088   1.897   5.607   3.672 -0.5344  0.6587 -0.6517
   29CHL1   H14 2089   1.999   5.648   3.654  0.5091 -1.8988 -1.0485
   29CHL1   C15 2090   1.908   5.509   3.786 -0.3051 -0.4006 -0.2107
   29CHL1  H15A 2091   1.816   5.447   3.784 -1.3576  1.1057 -1.2817
   29CHL1  H15B 2092   1.999   5.447   3.794  1.9647  2.8689  2.4515
   29CHL1   C16 2093   1.906   5.607   3.909  0.2834  0.6182  0.2047
   29CHL1  H16A 2094   1.819   5.583   3.973 -0.4063 -0.4706 -1.0939
   29CHL1  H16B 2095   1.996   5.590   3.974 -0.4294 -3.3787  0.3657
   29CHL1   C17 2096   1.879   5.748   3.860 -0.2670 -0.5791 -0.7168
   29CHL1   H17 2097   1.979   5.793   3.845  0.3165 -1.7437 -0.4235
   29CHL1   C13 2098   1.815   5.727   3.720 -0.3166  0.0692  0.2209
   29CHL1   C18 2099   1.668   5.694   3.729  0.0627  0.0094 -0.6547
   29CHL1  H18A 2100   1.611   5.786   3.751 -0.1420 -0.7960  2.5862
   29CHL1  H18B 2101   1.626   5.649   3.636 -0.3527  2.2433 -1.6014
   29CHL1  H18C 2102   1.650   5.616   3.806  0.0080 -1.1672 -1.8213
   29CHL1   C12 2103   1.839   5.837   3.614  0.0125 -0.1148 -0.0416
   29CHL1  H12A 2104   1.780   5.928   3.638  1.5278  0.6900  0.7984
   29CHL1  H12B 2105   1.946   5.865   3.600  1.1479 -4.2755 -0.9649
   29CHL1   C11 2106   1.799   5.793   3.473  0.4431  0.2828 -0.2261
   29CHL1  H11A 2107   1.690   5.769   3.478  0.8574 -1.6308  0.7223
   29CHL1  H11B 2108   1.798   5.873   3.397  0.1113  0.7528  0.2637
   29CHL1    C9 2109   1.857   5.656   3.430 -0.8576  0.2733 -0.0179
   29CHL1    H9 2110   1.962   5.688   3.418  0.1170 -1.7696  2.2018
   29CHL1   C10 2111   1.813   5.600   3.289 -0.9764  0.7359  0.4663
   29CHL1   C19 2112   1.657   5.603   3.287  0.4589  0.0078 -0.0783
   29CHL1  H19A 2113   1.605   5.557   3.374  0.5988 -0.4279 -0.2174
   29CHL1  H19B 2114   1.612   5.704   3.279 -1.0875 -0.6750 -0.4095
   29CHL1  H19C 2115   1.618   5.547   3.199  0.7328  0.0537 -0.2293
   29CHL1    C1 2116   1.886   5.677   3.176  0.3238  0.2895  0.0488
   29CHL1   H1A 2117   1.868   5.786   3.182  2.0932  0.7074 -1.2756
   29CHL1   H1B 2118   1.996   5.663   3.179  0.3483 -0.0930 -1.4143
   29CHL1    C2 2119   1.844   5.622   3.037 -0.4996  0.4856  0.0141
   29CHL1   H2A 2120   1.888   5.687   2.959 -1.1762  1.9416  0.8135
   29CHL1   H2B 2121   1.734   5.630   3.025 -0.7753  1.8577  2.7603
   29CHL1   C20 2122   1.803   5.833   3.962  0.2429  0.5954 -0.5077
   29CHL1   H20 2123   1.713   5.777   3.993  0.9271 -0.5845 -0.5780
   29CHL1   C21 2124   1.764   5.972   3.916 -0.0479  0.8460  0.0124
   29CHL1  H21A 2125   1.858   6.032   3.907  0.1971  0.1643 -2.6199
   29CHL1  H21B 2126   1.704   6.028   3.991 -0.1333  0.5483  0.1682
   29CHL1  H21C 2127   1.716   5.975   3.817  0.0586  1.0771 -0.0337
   29CHL1   C22 2128   1.894   5.840   4.090  0.6718  0.6243  0.0636
   29CHL1  H22A 2129   1.920   5.738   4.124 -1.8983  0.1233  0.8093
   29CHL1  H22B 2130   1.984   5.894   4.054  0.6227  0.1128 -0.8312
   29CHL1   C23 2131   1.819   5.902   4.213  0.2131  0.1731  0.4274
   29CHL1  H23A 2132   1.810   6.012   4.205 -0.4028  0.2012  1.3375
   29CHL1  H23B 2133   1.721   5.851   4.223  0.5050 -0.2008  1.5341
   29CHL1   C24 2134   1.907   5.880   4.343 -0.2945  1.0137  0.3890
   29CHL1  H24A 2135   1.907   5.772   4.370  1.2514  1.1677  1.1559
   29CHL1  H24B 2136   2.009   5.918   4.319  0.0555  1.2824  2.1638
   29CHL1   C25 2137   1.846   5.942   4.471 -0.5417 -0.3359 -0.1147
   29CHL1   H25 2138   1.771   6.018   4.443 -0.6903  0.6628  2.6808
   29CHL1   C26 2139   1.777   5.827   4.555 -0.2460 -0.1725 -0.0365
   29CHL1  H26A 2140   1.708   5.773   4.487 -1.8456  0.6419  0.8743
   29CHL1  H26B 2141   1.858   5.758   4.587  0.6770  0.9371  0.1240
   29CHL1  H26C 2142   1.717   5.868   4.639 -1.2214 -1.8961  0.1477
   29CHL1   C27 2143   1.948   6.020   4.554  0.5177 -0.4218 -0.2245
   29CHL1  H27A 2144   1.996   6.099   4.493 -0.7623 -0.0300 -0.7674
   29CHL1  H27B 2145   1.891   6.065   4.639  2.2400 -2.3808  2.1188
   29CHL1  H27C 2146   2.014   5.948   4.606 -1.4287 -1.1702  1.3816
   30CHL1    C3 2147   2.338   0.971   3.192  0.1136 -0.4597 -0.0577
   30CHL1    H3 2148   2.340   0.864   3.223  2.3679 -0.1939  0.8621
   30CHL1    O3 2149   2.328   0.977   3.052 -0.2031 -0.6155 -0.0196
   30CHL1   H3' 2150   2.260   1.039   3.024 -1.0042 -1.9938 -1.3614
   30CHL1    C4 2151   2.219   1.040   3.257  0.5855 -0.3871 -0.6375
   30CHL1   H4A 2152   2.203   1.149   3.240  0.7870 -0.2428  0.0580
   30CHL1   H4B 2153   2.126   0.996   3.216  1.2467 -1.9933 -0.4652
   30CHL1    C5 2154   2.220   1.030   3.413 -0.4246  0.5264 -0.3484
   30CHL1    C6 2155   2.125   0.970   3.487  0.2307  0.8165 -0.1063
   30CHL1    H6 2156   2.033   0.933   3.440 -0.7274  1.7027  1.0318
   30CHL1    C7 2157   2.121   0.972   3.633  0.3325 -0.4130  0.1810
   30CHL1   H7A 2158   2.020   0.992   3.673  0.6261  1.7642 -0.0495
   30CHL1   H7B 2159   2.152   0.870   3.666 -1.1989 -0.7342  0.7171
   30CHL1    C8 2160   2.226   1.064   3.698  0.7095 -0.7992 -0.1603
   30CHL1    H8 2161   2.191   1.170   3.689  2.2552 -0.1775  0.8869
   30CHL1   C14 2162   2.249   1.018   3.847 -0.4997  0.1043 -0.7352
   30CHL1   H14 2163   2.291   0.915   3.843  0.2363  0.2971  1.0231
   30CHL1   C15 2164   2.125   1.015   3.937  0.8963  0.1104  0.1741
   30CHL1  H15A 2165   2.078   1.114   3.919  1.3765 -0.1666 -3.4999
   30CHL1  H15B 2166   2.052   0.935   3.910  0.2981  0.4683  0.7198
   30CHL1   C16 2167   2.173   1.000   4.081  0.1874 -0.7308  0.2837
   30CHL1  H16A 2168   2.134   1.088   4.136  0.8904 -0.2030 -0.0501
   30CHL1  H16B 2169   2.151   0.901   4.126  1.1405 -2.1966 -2.2652
   30CHL1   C17 2170   2.328   1.027   4.064  0.3631 -0.0938 -0.4292
   30CHL1   H17 2171   2.371   0.926   4.051 -0.1237 -0.2760 -0.6620
   30CHL1   C13 2172   2.352   1.095   3.926  0.0289  1.0850 -0.2175
   30CHL1   C18 2173   2.313   1.240   3.945  0.2164 -0.9327  0.8071
   30CHL1  H18A 2174   2.399   1.289   3.994 -0.1277 -0.9245  1.4141
   30CHL1  H18B 2175   2.290   1.291   3.849  2.9689  1.3805  1.2396
   30CHL1  H18C 2176   2.224   1.256   4.010  1.0207 -1.9809  2.2179
   30CHL1   C12 2177   2.489   1.088   3.855 -0.3318  0.3972  1.0718
   30CHL1  H12A 2178   2.569   1.151   3.900  0.5010 -0.3124  0.6092
   30CHL1  H12B 2179   2.533   0.987   3.859 -3.2257 -0.9784  0.6028
   30CHL1   C11 2180   2.473   1.131   3.700  0.1866  0.4051  0.4135
   30CHL1  H11A 2181   2.455   1.241   3.694  1.2656  0.6352  1.1548
   30CHL1  H11B 2182   2.565   1.096   3.649 -0.0166 -0.8276  0.8659
   30CHL1    C9 2183   2.361   1.062   3.626 -0.0518  0.2468 -0.2522
   30CHL1    H9 2184   2.393   0.956   3.631 -1.5295 -0.2425 -0.6901
   30CHL1   C10 2185   2.354   1.090   3.473  0.1677 -0.0553  0.0827
   30CHL1   C19 2186   2.381   1.244   3.444  1.0014  0.5075 -0.3031
   30CHL1  H19A 2187   2.489   1.266   3.459  0.9986 -0.1020  0.7395
   30CHL1  H19B 2188   2.343   1.272   3.344 -1.3940 -0.9862  0.1170
   30CHL1  H19C 2189   2.320   1.295   3.522  1.6167  0.0175  0.5103
   30CHL1    C1 2190   2.470   1.015   3.404  0.0025  0.0564  0.1915
   30CHL1   H1A 2191   2.575   1.040   3.431  0.6649  0.2864 -2.3975
   30CHL1   H1B 2192   2.463   0.907   3.430  0.4543 -0.2064 -0.7451
   30CHL1    C2 2193   2.469   1.029   3.249  0.0245  1.1956 -0.5870
   30CHL1   H2A 2194   2.550   0.976   3.196 -1.2161 -0.7275 -0.6344
   30CHL1   H2B 2195   2.483   1.137   3.224 -0.1749  1.2654 -0.4108
   30CHL1   C20 2196   2.387   1.094   4.197  0.1648  0.8052  0.4360
   30CHL1   H20 2197   2.351   1.198   4.209  0.2094  1.0849 -1.5231
   30CHL1   C21 2198   2.538   1.080   4.175  0.3969  0.5003  0.9256
   30CHL1  H21A 2199   2.563   0.983   4.127  1.4828  1.9765 -1.7310
   30CHL1  H21B 2200   2.592   1.098   4.270 -0.5676  2.0751  1.2177
   30CHL1  H21C 2201   2.573   1.147   4.093  0.2991  0.3641  0.7729
   30CHL1   C22 2202   2.353   1.009   4.325  0.7657 -0.7515 -0.1265
   30CHL1  H22A 2203   2.248   0.973   4.329  0.0274  1.3136  1.2820
   30CHL1  H22B 2204   2.416   0.920   4.305 -0.0905 -1.6086  0.8488
   30CHL1   C23 2205   2.402   1.069   4.458  0.1530  1.1976 -0.3708
   30CHL1  H23A 2206   2.492   1.132   4.440  2.3319 -2.0657 -1.8355
   30CHL1  H23B 2207   2.320   1.129   4.503  0.9771  2.5595 -0.6252
   30CHL1   C24 2208   2.436   0.957   4.556 -0.0213  0.0672 -0.4128
   30CHL1  H24A 2209   2.346   0.900   4.587  1.0949 -1.3691  0.3130
   30CHL1  H24B 2210   2.502   0.875   4.517 -0.3235 -1.5069  2.1557
   30CHL1   C25 2211   2.512   1.015   4.686  0.1507 -0.2254  0.0258
   30CHL1   H25 2212   2.621   1.032   4.669 -0.1435 -0.4704 -2.5002
   30CHL1   C26 2213   2.456   1.153   4.720  0.2460  0.1429 -0.1785
   30CHL1  H26A 2214   2.496   1.194   4.815  1.5027  1.6124 -1.2936
   30CHL1  H26B 2215   2.476   1.235   4.647  1.2616  0.3167  0.2773
   30CHL1  H26C 2216   2.345   1.148   4.730  0.2180 -0.0411 -0.5735
   30CHL1   C27 2217   2.512   0.920   4.808 -0.4867  0.3480 -0.1489
   30CHL1  H27A 2218   2.529   0.976   4.902 -3.5502 -0.0365  0.7218
   30CHL1  H27B 2219   2.416   0.865   4.810 -0.8981  1.0343  2.8521
   30CHL1  H27C 2220   2.595   0.846   4.803  1.7222  2.7353 -1.2743
   31CHL1    C3 2221   3.293   0.999   2.905  0.3644  0.9943  0.2380
   31CHL1    H3 2222   3.200   0.945   2.932  1.0818 -0.7314 -0.5960
   31CHL1    O3 2223   3.295   1.013   2.764  0.5127 -1.0410  0.2567
   31CHL1   H3' 2224   3.273   0.927   2.728  2.1092 -1.3774  0.0254
   31CHL1    C4 2225   3.318   1.137   2.967  0.1797  0.8143  0.1816
   31CHL1   H4A 2226   3.408   1.173   2.913  0.8259 -1.1334 -0.1509
   31CHL1   H4B 2227   3.233   1.199   2.933 -2.7957 -1.7242  2.3094
   31CHL1    C5 2228   3.324   1.121   3.112 -0.0441  0.4437 -0.1893
   31CHL1    C6 2229   3.245   1.190   3.187  0.5477 -0.2236 -0.2162
   31CHL1    H6 2230   3.170   1.250   3.133 -0.5975 -1.2623  0.1875
   31CHL1    C7 2231   3.243   1.175   3.339 -0.3395  0.3266  0.6776
   31CHL1   H7A 2232   3.231   1.276   3.383 -2.5316 -0.4122  1.9094
   31CHL1   H7B 2233   3.164   1.112   3.384 -0.6511  0.8064  0.8175
   31CHL1    C8 2234   3.377   1.122   3.397  0.3198 -0.0672 -0.1156
   31CHL1    H8 2235   3.456   1.199   3.387 -0.6029  1.0293  0.7395
   31CHL1   C14 2236   3.364   1.100   3.544 -0.7961  0.3859  0.2769
   31CHL1   H14 2237   3.281   1.029   3.566 -0.5617 -0.6306 -1.9284
   31CHL1   C15 2238   3.336   1.223   3.642  0.2035  0.2218  0.0692
   31CHL1  H15A 2239   3.391   1.311   3.604 -0.0890  0.9751  1.3576
   31CHL1  H15B 2240   3.230   1.253   3.628  0.4548  1.3192  0.4947
   31CHL1   C16 2241   3.390   1.182   3.780 -0.4024  0.2419  0.2759
   31CHL1  H16A 2242   3.474   1.249   3.808  0.2642  0.2225 -1.5370
   31CHL1  H16B 2243   3.309   1.180   3.856 -0.5369  1.3936  0.1875
   31CHL1   C17 2244   3.447   1.038   3.756 -0.7652  0.1285  0.5814
   31CHL1   H17 2245   3.359   0.971   3.763  0.7229 -1.9861  0.1810
   31CHL1   C13 2246   3.484   1.035   3.600 -0.3310  0.4103 -0.7128
   31CHL1   C18 2247   3.617   1.117   3.587  0.6705 -0.3007  0.3505
   31CHL1  H18A 2248   3.642   1.148   3.484  3.4357 -1.1610  0.6828
   31CHL1  H18B 2249   3.614   1.213   3.643  1.9809  0.3733 -0.6690
   31CHL1  H18C 2250   3.705   1.065   3.631  0.3529 -1.8615 -0.7756
   31CHL1   C12 2251   3.503   0.898   3.543  1.0359  0.6238  0.3911
   31CHL1  H12A 2252   3.597   0.848   3.576  1.5443  0.8955 -0.5950
   31CHL1  H12B 2253   3.416   0.832   3.563 -0.1646  1.4073 -1.9160
   31CHL1   C11 2254   3.527   0.912   3.389  0.1600 -0.6001 -0.0111
   31CHL1  H11A 2255   3.624   0.963   3.373  0.2049 -1.0971 -1.5277
   31CHL1  H11B 2256   3.546   0.814   3.341  0.2467 -0.8461  0.5191
   31CHL1    C9 2257   3.412   0.993   3.319  0.4733  0.2992 -0.4016
   31CHL1    H9 2258   3.330   0.920   3.332  2.3865 -1.5209  2.4941
   31CHL1   C10 2259   3.423   1.013   3.168 -0.4635  0.0955  0.3977
   31CHL1   C19 2260   3.560   1.060   3.132 -0.6796  0.8317 -0.4122
   31CHL1  H19A 2261   3.634   0.979   3.152 -1.3519  0.4223  0.5284
   31CHL1  H19B 2262   3.569   1.078   3.023  0.5366 -0.6378 -0.5788
   31CHL1  H19C 2263   3.605   1.145   3.187  2.8019  2.6092 -5.2896
   31CHL1    C1 2264   3.400   0.872   3.096  0.1100 -0.6895  0.2127
   31CHL1   H1A 2265   3.472   0.795   3.132 -1.9630 -2.2054  1.3740
   31CHL1   H1B 2266   3.300   0.828   3.117 -1.7745  2.6088 -1.0775
   31CHL1    C2 2267   3.397   0.885   2.941 -0.2259 -0.7452 -0.5815
   31CHL1   H2A 2268   3.359   0.797   2.884 -0.9697 -0.5332 -0.4326
   31CHL1   H2B 2269   3.499   0.909   2.906 -0.1274  0.8690  0.7118
   31CHL1   C20 2270   3.553   0.971   3.846  0.0645 -0.3149  0.8108
   31CHL1   H20 2271   3.626   0.915   3.784  1.0008 -0.6851  2.2016
   31CHL1   C21 2272   3.489   0.870   3.945 -0.2251  0.0145 -0.2814
   31CHL1  H21A 2273   3.571   0.818   3.997 -0.2296  0.1576 -0.1303
   31CHL1  H21B 2274   3.430   0.798   3.883  0.6143  0.8321 -2.1248
   31CHL1  H21C 2275   3.433   0.909   4.033  1.8834  0.6233  0.8541
   31CHL1   C22 2276   3.641   1.073   3.917 -0.3726 -0.7511 -0.3367
   31CHL1  H22A 2277   3.688   1.141   3.843  0.6250  1.1331  1.9109
   31CHL1  H22B 2278   3.581   1.134   3.988  0.4451 -0.0675 -0.2285
   31CHL1   C23 2279   3.751   1.006   4.006 -0.1099  0.0396  0.0332
   31CHL1  H23A 2280   3.703   0.959   4.094  0.1680 -0.8728 -0.2818
   31CHL1  H23B 2281   3.796   0.919   3.953  0.7016  0.5213 -0.1005
   31CHL1   C24 2282   3.867   1.094   4.054  0.3592  0.2976 -0.8033
   31CHL1  H24A 2283   3.951   1.039   4.101  0.1171  1.2709  0.8440
   31CHL1  H24B 2284   3.913   1.121   3.956 -3.8974 -0.5257 -3.2907
   31CHL1   C25 2285   3.843   1.230   4.137  0.2280  0.6384 -0.0453
   31CHL1   H25 2286   3.759   1.281   4.085  2.4853  2.1065 -2.5023
   31CHL1   C26 2287   3.815   1.193   4.281 -0.4340 -0.1262  0.2381
   31CHL1  H26A 2288   3.774   1.273   4.346 -0.4786  0.3048 -0.3119
   31CHL1  H26B 2289   3.734   1.117   4.272 -0.4114 -0.1940  0.6089
   31CHL1  H26C 2290   3.905   1.154   4.333  1.6667  1.5834 -1.8894
   31CHL1   C27 2291   3.957   1.323   4.129 -0.4602 -0.3295  0.6079
   31CHL1  H27A 2292   4.015   1.302   4.037  1.6397  2.4822  1.1446
   31CHL1  H27B 2293   3.924   1.429   4.138 -0.0934 -0.0598 -1.0588
   31CHL1  H27C 2294   4.034   1.300   4.207  0.1699 -1.3616 -0.2842
   32CHL1    C3 2295   1.266   6.725   3.026 -0.8442  1.2224 -0.3927
   32CHL1    H3 2296   1.188   6.652   3.057  1.9874 -1.7665  0.3084
   32CHL1    O3 2297   1.291   6.698   2.888  0.0620 -0.2013  0.3599
   32CHL1   H3' 2298   1.204   6.713   2.850  0.8028 -1.4039 -2.0158
   32CHL1    C4 2299   1.215   6.872   3.038 -0.6662  0.3045  0.1365
   32CHL1   H4A 2300   1.298   6.936   3.001  0.5523 -0.9858  0.5742
   32CHL1   H4B 2301   1.125   6.879   2.973 -0.2876  0.5147 -0.3695
   32CHL1    C5 2302   1.181   6.901   3.179  0.3343  0.7805 -0.2866
   32CHL1    C6 2303   1.052   6.937   3.214 -0.7210 -0.1120 -0.3195
   32CHL1    H6 2304   0.970   6.951   3.143 -0.3739  0.7514 -0.5522
   32CHL1    C7 2305   1.019   6.967   3.364 -0.8311 -1.0296 -0.1608
   32CHL1   H7A 2306   0.949   7.051   3.381  0.2037 -0.1679 -0.0442
   32CHL1   H7B 2307   0.979   6.868   3.394 -1.2828 -0.2787  1.9021
   32CHL1    C8 2308   1.148   7.000   3.451  0.2960  0.5617  1.0888
   32CHL1    H8 2309   1.179   7.103   3.422 -0.5029  0.3234 -0.7186
   32CHL1   C14 2310   1.105   6.999   3.595 -0.2536  0.5039 -0.4594
   32CHL1   H14 2311   1.070   6.898   3.626 -2.2244  0.6347 -2.0570
   32CHL1   C15 2312   0.989   7.099   3.641  0.4349  0.7571  0.3741
   32CHL1  H15A 2313   1.016   7.200   3.605  0.4274  1.0293  1.1020
   32CHL1  H15B 2314   0.884   7.078   3.610  0.0342  0.7833  1.6386
   32CHL1   C16 2315   1.008   7.089   3.799  0.3905 -0.4104 -0.3187
   32CHL1  H16A 2316   0.999   7.194   3.834  2.3341  0.0155 -0.9967
   32CHL1  H16B 2317   0.926   7.031   3.848 -1.1761  2.6923  1.0129
   32CHL1   C17 2318   1.147   7.022   3.824  0.4183  0.2359 -0.3507
   32CHL1   H17 2319   1.129   6.918   3.860  1.4191  0.1902  0.0401
   32CHL1   C13 2320   1.224   7.026   3.689 -0.3084 -0.1121 -1.2823
   32CHL1   C18 2321   1.288   7.160   3.658 -0.0914 -0.0815  0.7952
   32CHL1  H18A 2322   1.223   7.249   3.668 -1.5321 -1.0035  0.0250
   32CHL1  H18B 2323   1.376   7.165   3.726 -0.0214  1.4772  0.6300
   32CHL1  H18C 2324   1.332   7.163   3.556 -1.2830  1.5628  0.2912
   32CHL1   C12 2325   1.324   6.900   3.676  0.3096 -0.3313 -0.0938
   32CHL1  H12A 2326   1.414   6.905   3.742  0.9743 -0.3100 -0.9761
   32CHL1  H12B 2327   1.280   6.800   3.696  0.7870 -0.5626 -0.1794
   32CHL1   C11 2328   1.376   6.893   3.535  0.3200  0.2431  0.3852
   32CHL1  H11A 2329   1.442   6.978   3.506  0.3562 -0.8017 -3.1296
   32CHL1  H11B 2330   1.433   6.797   3.536 -0.6122 -0.3378 -0.4427
   32CHL1    C9 2331   1.256   6.884   3.434 -0.2565 -0.1899 -0.0006
   32CHL1    H9 2332   1.199   6.790   3.453  1.3487 -1.5545 -1.5469
   32CHL1   C10 2333   1.294   6.876   3.282  0.3217  0.0433  0.2548
   32CHL1   C19 2334   1.404   6.978   3.255 -0.0015 -0.5993 -0.0535
   32CHL1  H19A 2335   1.424   6.991   3.147  0.5219  0.9286  0.1979
   32CHL1  H19B 2336   1.385   7.079   3.296  0.5474 -0.8259  0.8107
   32CHL1  H19C 2337   1.493   6.946   3.314 -1.1247  2.5652  3.8118
   32CHL1    C1 2338   1.354   6.732   3.261 -0.0707 -0.4438  0.0120
   32CHL1   H1A 2339   1.436   6.705   3.331 -0.6427 -0.7132  0.5849
   32CHL1   H1B 2340   1.268   6.669   3.292 -2.1889  1.4719 -1.6372
   32CHL1    C2 2341   1.393   6.703   3.113  0.6432  0.4114  0.0879
   32CHL1   H2A 2342   1.411   6.595   3.091 -0.1205  0.2949 -0.0033
   32CHL1   H2B 2343   1.475   6.770   3.078  0.7131  0.3449  0.1241
   32CHL1   C20 2344   1.214   7.092   3.948 -0.2440 -0.2217  0.0565
   32CHL1   H20 2345   1.220   7.199   3.919  0.0875 -0.5324 -1.0782
   32CHL1   C21 2346   1.352   7.042   3.984 -0.6652  0.1951  0.0956
   32CHL1  H21A 2347   1.354   6.934   4.007 -0.5514 -0.1977 -1.6097
   32CHL1  H21B 2348   1.380   7.093   4.079  0.1871 -0.3841  0.1621
   32CHL1  H21C 2349   1.427   7.076   3.908 -1.6356 -0.8933 -1.4051
   32CHL1   C22 2350   1.128   7.085   4.072  0.1527 -0.3565  0.1605
   32CHL1  H22A 2351   1.151   7.168   4.142  0.3566 -0.7069  0.5074
   32CHL1  H22B 2352   1.020   7.103   4.052  0.2106  0.2730  0.3763
   32CHL1   C23 2353   1.122   6.942   4.136  1.2135  0.3255 -0.9401
   32CHL1  H23A 2354   1.097   6.866   4.060 -0.3081 -0.7740  0.5952
   32CHL1  H23B 2355   1.216   6.913   4.188  0.1387  0.1475  0.9967
   32CHL1   C24 2356   0.998   6.942   4.236  0.0649 -0.0596  0.1938
   32CHL1  H24A 2357   1.007   7.031   4.301 -0.8494 -0.4000  0.8035
   32CHL1  H24B 2358   0.905   6.949   4.175  0.1725  0.8307  0.1244
   32CHL1   C25 2359   0.987   6.823   4.328  0.1644 -0.1053 -0.3612
   32CHL1   H25 2360   1.092   6.811   4.363 -0.7500 -1.4731  2.1501
   32CHL1   C26 2361   0.908   6.859   4.454 -0.3656  0.3898  0.6126
   32CHL1  H26A 2362   0.810   6.886   4.410  0.6619  2.3690 -0.6163
   32CHL1  H26B 2363   0.909   6.777   4.529 -1.6472  0.7033  1.0021
   32CHL1  H26C 2364   0.945   6.945   4.514  1.2903 -0.8166  1.3833
   32CHL1   C27 2365   0.956   6.690   4.257  0.2881  0.1596 -0.6851
   32CHL1  H27A 2366   0.967   6.602   4.323 -1.8133  0.9394  0.7870
   32CHL1  H27B 2367   0.850   6.701   4.226 -0.9161  1.2384  3.2192
   32CHL1  H27C 2368   1.023   6.682   4.169 -1.3136 -0.5524 -1.8914
   33CHL1    C3 2369   1.047   6.388   2.785  0.0697 -0.1690 -0.0158
   33CHL1    H3 2370   1.108   6.479   2.802 -3.6298  2.3648  0.8039
   33CHL1    O3 2371   1.050   6.354   2.645 -0.1036 -0.3028 -0.5960
   33CHL1   H3' 2372   1.057   6.438   2.599 -3.0670 -0.0432 -0.7652
   33CHL1    C4 2373   1.096   6.271   2.871  0.0385 -0.6024 -0.3043
   33CHL1   H4A 2374   1.032   6.182   2.854 -0.1328 -0.7114  0.8246
   33CHL1   H4B 2375   1.199   6.259   2.831  0.3435  2.8324 -0.8778
   33CHL1    C5 2376   1.103   6.304   3.019 -0.0704 -0.1158 -0.2632
   33CHL1    C6 2377   1.217   6.291   3.096 -0.4037 -0.0942 -0.9620
   33CHL1    H6 2378   1.311   6.250   3.057  0.0625 -0.1961  0.2162
   33CHL1    C7 2379   1.211   6.335   3.244 -0.4599 -0.6838  0.0865
   33CHL1   H7A 2380   1.286   6.265   3.286  2.3092  1.6725 -0.5653
   33CHL1   H7B 2381   1.271   6.429   3.247  0.2716 -0.7781 -4.4801
   33CHL1    C8 2382   1.070   6.343   3.314 -0.2679 -0.3884 -0.1732
   33CHL1    H8 2383   1.037   6.238   3.330  1.2690 -0.9207 -0.2649
   33CHL1   C14 2384   1.072   6.422   3.451  0.0634  1.2550  0.0520
   33CHL1   H14 2385   1.104   6.526   3.427 -1.0878  2.7254  4.0932
   33CHL1   C15 2386   1.171   6.369   3.554 -0.4876 -0.3908  0.7475
   33CHL1  H15A 2387   1.147   6.261   3.562  1.4302 -0.8604  0.7620
   33CHL1  H15B 2388   1.276   6.397   3.530 -0.9944 -0.1799 -1.4282
   33CHL1   C16 2389   1.123   6.435   3.685 -0.2664  0.1732 -0.0334
   33CHL1  H16A 2390   1.107   6.349   3.754  0.9853  1.5600  2.0928
   33CHL1  H16B 2391   1.207   6.492   3.731  1.1771  0.0260 -2.2963
   33CHL1   C17 2392   0.994   6.508   3.653 -0.3617  0.5820 -0.2902
   33CHL1   H17 2393   1.026   6.611   3.623  1.6556 -0.1019 -0.6294
   33CHL1   C13 2394   0.938   6.443   3.525  0.0295 -0.9420  0.5204
   33CHL1   C18 2395   0.886   6.299   3.553  0.2998 -0.3886  0.1259
   33CHL1  H18A 2396   0.849   6.263   3.455  2.1737  2.4406 -1.7669
   33CHL1  H18B 2397   0.963   6.228   3.591 -0.5739 -2.4824 -1.7399
   33CHL1  H18C 2398   0.800   6.318   3.621  0.6531 -0.0596  0.4827
   33CHL1   C12 2399   0.847   6.524   3.431 -0.8547 -0.1694 -0.3732
   33CHL1  H12A 2400   0.746   6.540   3.473 -0.4278  0.4832  0.4364
   33CHL1  H12B 2401   0.900   6.622   3.425  1.9679 -1.3889  1.8535
   33CHL1   C11 2402   0.832   6.468   3.286  0.0139 -0.0716  0.0957
   33CHL1  H11A 2403   0.761   6.383   3.297 -1.0450  0.7634 -0.1099
   33CHL1  H11B 2404   0.773   6.544   3.230 -0.5789  0.2027  1.0711
   33CHL1    C9 2405   0.973   6.422   3.226  0.7089  0.2355 -0.1113
   33CHL1    H9 2406   1.030   6.517   3.216  1.5091  0.0313  1.9238
   33CHL1   C10 2407   0.963   6.360   3.078  0.0037  0.4005 -0.1828
   33CHL1   C19 2408   0.871   6.242   3.090 -0.1119  0.2061  1.3557
   33CHL1  H19A 2409   0.780   6.266   3.149 -0.4114  2.7260  0.0047
   33CHL1  H19B 2410   0.830   6.210   2.992  0.6318 -0.9683  1.4099
   33CHL1  H19C 2411   0.923   6.159   3.143  2.1278  0.4307 -0.3548
   33CHL1    C1 2412   0.899   6.460   2.985  0.3564 -0.6037 -1.3705
   33CHL1   H1A 2413   0.794   6.477   3.018  0.1958 -1.8432 -1.2172
   33CHL1   H1B 2414   0.954   6.557   2.985 -1.1682  0.3350  0.7220
   33CHL1    C2 2415   0.904   6.427   2.824 -1.0267  0.3889 -1.0889
   33CHL1   H2A 2416   0.877   6.519   2.768 -2.2078  0.7301 -0.0198
   33CHL1   H2B 2417   0.831   6.350   2.790 -1.3341 -0.3274  1.0038
   33CHL1   C20 2418   0.893   6.532   3.764  0.3180 -0.6688  0.1379
   33CHL1   H20 2419   0.792   6.542   3.720 -0.3463  3.2903  2.0976
   33CHL1   C21 2420   0.908   6.680   3.818  0.0237  0.0840 -0.1402
   33CHL1  H21A 2421   1.007   6.689   3.867 -0.2590  0.3399  0.3961
   33CHL1  H21B 2422   0.833   6.699   3.898 -0.1674 -0.4588 -0.1870
   33CHL1  H21C 2423   0.898   6.750   3.733  0.3064  0.5991  0.2426
   33CHL1   C22 2424   0.878   6.420   3.869 -0.0548 -0.0751 -0.0184
   33CHL1  H22A 2425   0.868   6.320   3.821 -0.5220 -0.2005  0.3303
   33CHL1  H22B 2426   0.967   6.430   3.935 -1.2510  0.9211  1.5156
   33CHL1   C23 2427   0.749   6.435   3.951 -0.3363 -0.0749  0.1013
   33CHL1  H23A 2428   0.754   6.538   3.990 -0.0964 -0.4688  1.1343
   33CHL1  H23B 2429   0.660   6.420   3.886  0.0179 -3.3404  0.1816
   33CHL1   C24 2430   0.751   6.325   4.060  0.2988 -0.3235 -0.2886
   33CHL1  H24A 2431   0.725   6.230   4.008 -2.6621  0.4250 -0.3340
   33CHL1  H24B 2432   0.854   6.312   4.101  0.3573 -2.3027 -0.9395
   33CHL1   C25 2433   0.661   6.360   4.178  1.1995 -0.0499 -0.2169
   33CHL1   H25 2434   0.692   6.460   4.215  0.3020  0.1171  0.1162
   33CHL1   C26 2435   0.511   6.364   4.164 -0.0769 -0.6381 -0.1257
   33CHL1  H26A 2436   0.475   6.263   4.135  0.5944 -1.1572  0.7878
   33CHL1  H26B 2437   0.466   6.385   4.263  1.9374 -0.8084  0.8759
   33CHL1  H26C 2438   0.481   6.440   4.089  0.6449  2.2181  2.2885
   33CHL1   C27 2439   0.694   6.265   4.295  0.1688  0.2318  0.4693
   33CHL1  H27A 2440   0.796   6.277   4.336  0.2613  4.1305 -0.5743
   33CHL1  H27B 2441   0.622   6.293   4.375 -0.1340  1.2518 -0.1378
   33CHL1  H27C 2442   0.668   6.161   4.263 -3.5795  0.8743  0.9476
   34CHL1    C3 2443   2.911   0.713   3.116 -0.4015 -0.1065 -0.0857
   34CHL1    H3 2444   2.978   0.626   3.098  3.5061  2.5858  0.1893
   34CHL1    O3 2445   2.854   0.753   2.990  0.2984 -0.0658 -0.2774
   34CHL1   H3' 2446   2.781   0.691   2.978  0.6391 -0.0656 -3.0637
   34CHL1    C4 2447   2.800   0.667   3.212  0.5325  0.5296  0.7179
   34CHL1   H4A 2448   2.720   0.745   3.212 -1.4651 -1.3602 -1.5682
   34CHL1   H4B 2449   2.753   0.577   3.166 -0.4309  1.5546 -0.3663
   34CHL1    C5 2450   2.854   0.632   3.352 -0.3399 -0.0489  0.0698
   34CHL1    C6 2451   2.844   0.513   3.406 -0.1882 -0.0267  0.6145
   34CHL1    H6 2452   2.805   0.425   3.354  1.2073 -0.3493  0.0833
   34CHL1    C7 2453   2.864   0.501   3.558 -0.7045  0.1469 -0.1349
   34CHL1   H7A 2454   2.783   0.437   3.600  0.0847 -1.6045 -1.1941
   34CHL1   H7B 2455   2.958   0.445   3.574 -1.4749 -0.5404  2.5391
   34CHL1    C8 2456   2.874   0.635   3.635  0.6178  0.5561  0.0230
   34CHL1    H8 2457   2.777   0.688   3.645  1.3801  2.0165  0.1248
   34CHL1   C14 2458   2.935   0.615   3.769 -0.4806  0.3675 -0.5736
   34CHL1   H14 2459   3.030   0.566   3.739 -1.5467 -0.2984 -3.1615
   34CHL1   C15 2460   2.853   0.519   3.861  0.1687 -0.9431  0.2482
   34CHL1  H15A 2461   2.747   0.549   3.847  0.6616  1.9756  1.8825
   34CHL1  H15B 2462   2.856   0.411   3.833  0.0204 -1.5168  2.3021
   34CHL1   C16 2463   2.912   0.545   4.005  0.3119  0.4715  0.2642
   34CHL1  H16A 2464   2.821   0.563   4.066  1.0411  3.0404  0.7223
   34CHL1  H16B 2465   2.973   0.461   4.045 -1.4147 -1.6829 -1.3692
   34CHL1   C17 2466   3.003   0.668   3.987 -0.0804 -0.0162  0.5127
   34CHL1   H17 2467   3.105   0.625   3.979 -0.4568 -0.8100 -0.1570
   34CHL1   C13 2468   2.976   0.734   3.853 -0.6303  0.1800  0.1961
   34CHL1   C18 2469   2.842   0.819   3.874  0.4006  0.8891 -0.0676
   34CHL1  H18A 2470   2.797   0.867   3.784  1.1690  0.3833 -0.7438
   34CHL1  H18B 2471   2.768   0.764   3.935  0.9292 -0.8344 -0.9340
   34CHL1  H18C 2472   2.876   0.906   3.935  1.6203  1.3383 -1.3099
   34CHL1   C12 2473   3.084   0.803   3.778  0.4457 -0.2518 -0.2226
   34CHL1  H12A 2474   3.102   0.897   3.834  2.3070 -0.7209  0.0421
   34CHL1  H12B 2475   3.181   0.747   3.778 -0.3925 -1.7906  0.7234
   34CHL1   C11 2476   3.039   0.833   3.631  0.6610 -0.6616 -0.5296
   34CHL1  H11A 2477   2.962   0.913   3.643  1.1103 -0.4906  1.4384
   34CHL1  H11B 2478   3.125   0.860   3.565  0.0436 -2.2886 -2.0763
   34CHL1    C9 2479   2.978   0.720   3.555 -0.6477  0.3764 -0.3310
   34CHL1    H9 2480   3.066   0.657   3.529 -1.2868 -0.8278  0.3931
   34CHL1   C10 2481   2.913   0.755   3.420  0.6821 -0.2810 -0.4037
   34CHL1   C19 2482   2.809   0.871   3.437 -0.3174  0.1518 -0.2846
   34CHL1  H19A 2483   2.767   0.920   3.347 -2.4060  2.4312  1.7732
   34CHL1  H19B 2484   2.717   0.832   3.485  0.3708 -1.1101  0.0646
   34CHL1  H19C 2485   2.856   0.952   3.496 -0.1127 -1.2601  1.5984
   34CHL1    C1 2486   3.027   0.798   3.313  0.6099  0.3991  0.0641
   34CHL1   H1A 2487   3.071   0.892   3.352  0.6714  1.5115 -2.5515
   34CHL1   H1B 2488   3.102   0.716   3.309 -1.5772 -1.8020  1.1215
   34CHL1    C2 2489   2.980   0.826   3.176 -0.9207  0.2811  0.0390
   34CHL1   H2A 2490   3.063   0.847   3.105 -1.5011  3.1558  0.0699
   34CHL1   H2B 2491   2.914   0.916   3.173  1.3565  2.0769  0.9956
   34CHL1   C20 2492   3.005   0.745   4.120 -0.9100 -0.2435  0.1841
   34CHL1   H20 2493   2.912   0.805   4.126 -1.2994 -0.8513  0.2689
   34CHL1   C21 2494   3.120   0.844   4.117  0.5570 -0.2128  0.5023
   34CHL1  H21A 2495   3.134   0.897   4.214  0.0902 -0.4662  0.7144
   34CHL1  H21B 2496   3.113   0.912   4.030 -1.8264  0.1832  0.9530
   34CHL1  H21C 2497   3.216   0.786   4.113  0.9288  0.1279  2.7860
   34CHL1   C22 2498   3.026   0.658   4.244 -0.2492 -0.2625 -0.7680
   34CHL1  H22A 2499   2.983   0.556   4.230 -0.6824 -0.0824 -0.7445
   34CHL1  H22B 2500   3.136   0.646   4.256  0.2449  1.4817 -2.8811
   34CHL1   C23 2501   2.977   0.716   4.377 -0.3811  0.9658 -0.1558
   34CHL1  H23A 2502   3.005   0.821   4.396 -0.5380  0.7449  1.3954
   34CHL1  H23B 2503   2.866   0.706   4.388 -0.3133  0.4719  0.1026
   34CHL1   C24 2504   3.039   0.640   4.498  0.2282 -0.0662 -0.4423
   34CHL1  H24A 2505   3.028   0.532   4.472  1.3467 -0.1965 -0.3990
   34CHL1  H24B 2506   3.148   0.662   4.501 -0.2152  2.3062  0.4331
   34CHL1   C25 2507   2.985   0.685   4.634  0.3009  0.4472 -0.2499
   34CHL1   H25 2508   2.877   0.661   4.625 -0.7771  4.0633  1.0868
   34CHL1   C26 2509   3.058   0.608   4.745 -0.0369  0.3620 -0.4689
   34CHL1  H26A 2510   3.063   0.497   4.735 -1.5894  0.0910  1.1386
   34CHL1  H26B 2511   3.162   0.645   4.751 -0.1055  0.4251  0.5075
   34CHL1  H26C 2512   3.009   0.624   4.843  0.1295 -3.6052  0.4364
   34CHL1   C27 2513   2.982   0.835   4.661 -0.2085  0.2328 -0.0452
   34CHL1  H27A 2514   3.084   0.872   4.636  0.0353  0.4779  1.2712
   34CHL1  H27B 2515   2.923   0.892   4.586 -0.5229 -1.1107 -0.8633
   34CHL1  H27C 2516   2.945   0.855   4.763 -0.7513 -0.4552 -0.0983
   35CHL1    C3 2517   0.793   0.535   2.847 -0.8396 -0.7234  0.5105
   35CHL1    H3 2518   0.712   0.606   2.818 -0.0563  0.3350  0.8308
   35CHL1    O3 2519   0.875   0.520   2.731  0.2111  0.4148  0.3304
   35CHL1   H3' 2520   0.936   0.594   2.726 -0.6556  1.0982 -0.5533
   35CHL1    C4 2521   0.876   0.598   2.963  0.6712 -0.4781 -0.1811
   35CHL1   H4A 2522   0.967   0.537   2.984 -0.1890 -1.9054 -0.5084
   35CHL1   H4B 2523   0.911   0.700   2.932  0.8065 -0.3939  0.2385
   35CHL1    C5 2524   0.797   0.617   3.091  0.8630 -0.2614  0.2931
   35CHL1    C6 2525   0.773   0.732   3.151 -0.3879 -0.0612  0.0480
   35CHL1    H6 2526   0.810   0.825   3.105 -0.8916  0.2555  0.2642
   35CHL1    C7 2527   0.708   0.752   3.283 -0.5842 -0.0995 -0.8415
   35CHL1   H7A 2528   0.760   0.832   3.340 -3.2487  1.4084 -0.3050
   35CHL1   H7B 2529   0.605   0.793   3.274 -0.9806 -0.2743  1.8536
   35CHL1    C8 2530   0.692   0.619   3.360  0.0077  0.5335  0.1996
   35CHL1    H8 2531   0.789   0.585   3.403  0.3081  1.0076 -0.0974
   35CHL1   C14 2532   0.592   0.633   3.481 -0.1488 -0.2203 -0.2001
   35CHL1   H14 2533   0.502   0.669   3.427 -1.1843 -0.1504  1.4995
   35CHL1   C15 2534   0.603   0.747   3.584  0.1064  0.5658 -0.4170
   35CHL1  H15A 2535   0.709   0.756   3.617  0.2230  0.6872 -0.8199
   35CHL1  H15B 2536   0.568   0.845   3.546  0.5094  1.1980  0.7954
   35CHL1   C16 2537   0.512   0.711   3.706  0.0614  0.4197  0.6183
   35CHL1  H16A 2538   0.587   0.691   3.785 -0.4926 -2.3207  0.5476
   35CHL1  H16B 2539   0.438   0.790   3.731 -0.0150  0.7667 -0.5993
   35CHL1   C17 2540   0.445   0.573   3.662  0.6928 -0.5333 -0.4212
   35CHL1   H17 2541   0.358   0.599   3.598  0.3175 -0.6445  0.0377
   35CHL1   C13 2542   0.548   0.507   3.563 -0.1443 -1.0946 -0.5763
   35CHL1   C18 2543   0.672   0.457   3.647 -0.4007 -0.0045 -0.5312
   35CHL1  H18A 2544   0.648   0.365   3.705  0.4695 -0.4635 -0.8717
   35CHL1  H18B 2545   0.751   0.408   3.586 -0.8486  0.9501 -1.9103
   35CHL1  H18C 2546   0.730   0.529   3.709  1.4831 -2.1986  0.4218
   35CHL1   C12 2547   0.494   0.405   3.458  0.0489  0.1054 -0.6769
   35CHL1  H12A 2548   0.480   0.309   3.511 -0.2141 -0.0511 -1.0281
   35CHL1  H12B 2549   0.394   0.435   3.421  0.4175  0.4761 -1.3924
   35CHL1   C11 2550   0.590   0.381   3.343  0.0845  0.5164  0.7293
   35CHL1  H11A 2551   0.674   0.315   3.374  0.0960 -0.3431 -0.9690
   35CHL1  H11B 2552   0.533   0.318   3.270  1.1407  0.1557  0.1922
   35CHL1    C9 2553   0.638   0.512   3.263  0.4417  0.1384  0.4566
   35CHL1    H9 2554   0.553   0.567   3.219  0.9821 -0.0112 -0.8159
   35CHL1   C10 2555   0.731   0.483   3.144  0.0396  0.6485  0.8095
   35CHL1   C19 2556   0.842   0.380   3.181  0.0721 -0.1000  0.2190
   35CHL1  H19A 2557   0.796   0.287   3.220 -1.4376  0.2396 -0.6650
   35CHL1  H19B 2558   0.916   0.344   3.107  0.0579 -2.2490  1.1851
   35CHL1  H19C 2559   0.896   0.421   3.270  1.0071  2.1657 -1.3060
   35CHL1    C1 2560   0.646   0.429   3.027 -0.2253  0.3506 -0.0205
   35CHL1   H1A 2561   0.609   0.326   3.041  1.4525 -0.6503 -2.3105
   35CHL1   H1B 2562   0.555   0.491   3.019  0.4404  1.3743  0.0841
   35CHL1    C2 2563   0.727   0.411   2.897 -0.1221  0.5356 -0.8570
   35CHL1   H2A 2564   0.654   0.383   2.818  0.1413 -0.6024 -0.7126
   35CHL1   H2B 2565   0.802   0.330   2.908 -1.3434 -0.5128  0.1976
   35CHL1   C20 2566   0.403   0.505   3.788 -0.1636  0.3786  0.6560
   35CHL1   H20 2567   0.490   0.455   3.837 -0.5402  1.4353  2.4929
   35CHL1   C21 2568   0.304   0.389   3.745  0.0550 -0.2784  0.0689
   35CHL1  H21A 2569   0.363   0.317   3.684  0.3227 -0.6554  0.7583
   35CHL1  H21B 2570   0.208   0.417   3.697  0.6616  0.2396 -0.8767
   35CHL1  H21C 2571   0.270   0.349   3.843 -0.8670  0.7162  0.1780
   35CHL1   C22 2572   0.330   0.590   3.885  0.4042  0.3287 -0.6703
   35CHL1  H22A 2573   0.393   0.676   3.918  0.0824  2.1531 -4.3071
   35CHL1  H22B 2574   0.236   0.632   3.844 -0.7624 -0.7915  0.7656
   35CHL1   C23 2575   0.322   0.527   4.029  0.4149  0.0726 -0.0583
   35CHL1  H23A 2576   0.386   0.437   4.034 -1.0363 -1.0073 -0.5113
   35CHL1  H23B 2577   0.346   0.606   4.103 -1.6519  0.4919  0.2086
   35CHL1   C24 2578   0.183   0.488   4.080  0.0127  0.9740  0.4766
   35CHL1  H24A 2579   0.128   0.584   4.088 -0.7306  0.4969  1.2829
   35CHL1  H24B 2580   0.148   0.431   3.991  0.2602  3.3735 -1.2423
   35CHL1   C25 2581   0.198   0.410   4.207  0.1499  0.6243 -0.6001
   35CHL1   H25 2582   0.267   0.327   4.180  0.7161  1.0913 -0.6261
   35CHL1   C26 2583   0.278   0.486   4.321  1.0768  0.1609 -0.1794
   35CHL1  H26A 2584   0.267   0.439   4.421 -1.4322  0.1565 -0.3903
   35CHL1  H26B 2585   0.383   0.489   4.285  0.1713  0.8436 -3.0733
   35CHL1  H26C 2586   0.229   0.586   4.327 -0.4989 -0.6608  2.2044
   35CHL1   C27 2587   0.067   0.347   4.258 -0.2306 -0.1280  0.0158
   35CHL1  H27A 2588   0.017   0.296   4.173  1.0856 -0.8236 -0.3640
   35CHL1  H27B 2589   0.085   0.269   4.334  2.8396 -1.3514 -1.7830
   35CHL1  H27C 2590  -0.004   0.425   4.295 -1.0624  0.0238 -1.7542
   36CHL1    C3 2591   0.843   4.961   6.094 -0.3916  0.2654  0.0641
   36CHL1    H3 2592   0.738   4.926   6.083  1.1249 -4.4092 -3.0100
   36CHL1    O3 2593   0.887   4.950   6.230 -0.3670 -0.1772  0.9787
   36CHL1   H3' 2594   0.854   5.027   6.275 -0.3877 -0.2605  1.1065
   36CHL1    C4 2595   0.914   4.858   6.010  0.5881  1.1582  0.1592
   36CHL1   H4A 2596   1.023   4.879   6.003  1.2263 -1.6536  0.6330
   36CHL1   H4B 2597   0.899   4.754   6.045  0.2837  0.8215 -0.9144
   36CHL1    C5 2598   0.863   4.866   5.866  0.6982 -0.3369 -0.1993
   36CHL1    C6 2599   0.820   4.758   5.802  0.5575  0.1196  0.1400
   36CHL1    H6 2600   0.801   4.663   5.854 -2.3757  0.3213 -0.4066
   36CHL1    C7 2601   0.788   4.766   5.653 -0.3443 -0.2264  0.2355
   36CHL1   H7A 2602   0.842   4.693   5.589 -0.4926  0.4279 -0.6604
   36CHL1   H7B 2603   0.685   4.739   5.623 -0.2549 -1.5577  1.0774
   36CHL1    C8 2604   0.822   4.905   5.585 -0.2632  0.4905  0.2010
   36CHL1    H8 2605   0.931   4.902   5.563  0.0180  0.7566  1.5148
   36CHL1   C14 2606   0.752   4.911   5.457  0.2075 -0.0641  0.2148
   36CHL1   H14 2607   0.643   4.910   5.477  0.1437 -2.4196  0.0788
   36CHL1   C15 2608   0.782   4.802   5.349 -0.4148 -0.3702  0.3658
   36CHL1  H15A 2609   0.892   4.803   5.337 -0.3752  0.0379  0.7393
   36CHL1  H15B 2610   0.752   4.695   5.357  0.3094 -0.9441 -3.0403
   36CHL1   C16 2611   0.728   4.859   5.218  0.2314  0.2402 -0.4720
   36CHL1  H16A 2612   0.782   4.834   5.123 -0.0095 -0.0154 -0.5442
   36CHL1  H16B 2613   0.630   4.810   5.200  0.0361  0.0177  1.1070
   36CHL1   C17 2614   0.702   5.009   5.240  0.1042  0.1258 -0.3072
   36CHL1   H17 2615   0.595   5.026   5.263  0.0675  1.4657 -1.3405
   36CHL1   C13 2616   0.773   5.044   5.373 -0.4010  0.1929 -0.9657
   36CHL1   C18 2617   0.918   5.071   5.335 -0.1586  0.2146 -0.5425
   36CHL1  H18A 2618   0.950   5.005   5.252 -2.1311  0.4111 -1.5223
   36CHL1  H18B 2619   0.923   5.175   5.296 -0.3647  0.5957  0.4262
   36CHL1  H18C 2620   0.998   5.058   5.411 -0.1614  0.0486 -0.5672
   36CHL1   C12 2621   0.719   5.157   5.461 -1.3279 -0.4936 -0.6418
   36CHL1  H12A 2622   0.745   5.259   5.425 -0.8730 -0.1356  0.6426
   36CHL1  H12B 2623   0.608   5.150   5.464 -1.2645 -1.2925  0.7010
   36CHL1   C11 2624   0.789   5.156   5.603  0.8621  0.0688  0.4959
   36CHL1  H11A 2625   0.893   5.192   5.590  0.4042  1.3763  0.2311
   36CHL1  H11B 2626   0.740   5.231   5.670  1.4641 -0.6056  1.7131
   36CHL1    C9 2627   0.788   5.021   5.673 -1.2134  0.0789 -0.1563
   36CHL1    H9 2628   0.679   5.014   5.696 -1.4301  0.5756 -0.9709
   36CHL1   C10 2629   0.869   5.009   5.799 -0.1364  0.2933 -0.1058
   36CHL1   C19 2630   1.021   5.047   5.779 -1.1052  0.0567  0.5736
   36CHL1  H19A 2631   1.082   5.013   5.865 -1.7550 -2.5078  0.0958
   36CHL1  H19B 2632   1.073   4.985   5.703 -1.9057 -0.1069  0.1469
   36CHL1  H19C 2633   1.023   5.158   5.765 -0.0061 -0.1172 -0.8486
   36CHL1    C1 2634   0.800   5.106   5.898  0.0323  0.5621 -0.2719
   36CHL1   H1A 2635   0.801   5.209   5.856  0.6558  0.2892 -0.9498
   36CHL1   H1B 2636   0.693   5.080   5.912  0.1572  0.3330  0.2554
   36CHL1    C2 2637   0.862   5.107   6.039 -0.0099 -0.2865 -0.2773
   36CHL1   H2A 2638   0.810   5.169   6.115 -0.1085 -0.4638 -0.1995
   36CHL1   H2B 2639   0.967   5.141   6.043  0.6012 -2.1384  0.4247
   36CHL1   C20 2640   0.723   5.100   5.115 -0.0406 -0.1874  0.7442
   36CHL1   H20 2641   0.826   5.082   5.079  0.1049  1.3230  0.3433
   36CHL1   C21 2642   0.681   5.242   5.156 -0.1412 -0.2429  0.3050
   36CHL1  H21A 2643   0.575   5.230   5.189  0.0925 -0.9515  0.8164
   36CHL1  H21B 2644   0.678   5.307   5.066  0.1040  0.8062  1.0418
   36CHL1  H21C 2645   0.755   5.274   5.232 -1.5696 -0.0378  1.6746
   36CHL1   C22 2646   0.634   5.047   5.002 -0.3078  0.3551 -0.3844
   36CHL1  H22A 2647   0.657   4.942   4.975  1.4876  0.9697 -1.3365
   36CHL1  H22B 2648   0.533   5.051   5.049  0.5123  0.6131  1.4373
   36CHL1   C23 2649   0.657   5.117   4.868 -0.0774  0.3878  0.4424
   36CHL1  H23A 2650   0.671   5.227   4.880  0.3053  0.2105  1.9032
   36CHL1  H23B 2651   0.757   5.076   4.840  0.3311  1.5098  0.1891
   36CHL1   C24 2652   0.549   5.097   4.759 -0.3293  0.4925  0.1554
   36CHL1  H24A 2653   0.524   4.989   4.750 -0.6693  0.6945 -2.1257
   36CHL1  H24B 2654   0.453   5.152   4.772 -0.0271  1.6684 -2.0162
   36CHL1   C25 2655   0.596   5.127   4.618 -0.0407  0.1814 -0.2374
   36CHL1   H25 2656   0.503   5.112   4.560 -1.7447 -0.7346  2.5256
   36CHL1   C26 2657   0.624   5.281   4.594  0.2116 -0.2265  0.1675
   36CHL1  H26A 2658   0.723   5.309   4.635 -0.1302 -1.7096  2.1793
   36CHL1  H26B 2659   0.627   5.296   4.484  0.5059  0.0417  0.2098
   36CHL1  H26C 2660   0.544   5.345   4.638  0.3586  2.1321 -2.6408
   36CHL1   C27 2661   0.694   5.036   4.550 -0.4872 -0.6322 -0.3693
   36CHL1  H27A 2662   0.667   4.929   4.544  0.1095 -1.0047  2.3041
   36CHL1  H27B 2663   0.700   5.066   4.443  0.5265 -0.8398 -0.3820
   36CHL1  H27C 2664   0.798   5.040   4.587 -0.3204  0.2916 -0.9038
   37CHL1    C3 2665   4.882   0.415   2.509  0.3624  0.3466  0.6951
   37CHL1    H3 2666   4.886   0.307   2.531  2.3753  0.2515  0.0792
   37CHL1    O3 2667   4.877   0.445   2.366 -0.6912 -0.9929  0.0040
   37CHL1   H3' 2668   4.837   0.532   2.361 -0.8749 -1.1326 -1.0484
   37CHL1    C4 2669   4.767   0.464   2.592 -0.5116 -0.5871 -0.3861
   37CHL1   H4A 2670   4.749   0.573   2.580 -0.2220 -0.2183  1.9222
   37CHL1   H4B 2671   4.671   0.428   2.550 -0.9939  0.4873 -0.2295
   37CHL1    C5 2672   4.781   0.446   2.744  1.1095 -0.2891  0.4187
   37CHL1    C6 2673   4.683   0.388   2.821 -0.0809 -0.4245  0.4576
   37CHL1    H6 2674   4.598   0.344   2.767  1.6222 -1.0802 -1.8796
   37CHL1    C7 2675   4.691   0.380   2.970  0.2409 -0.0306 -0.7910
   37CHL1   H7A 2676   4.595   0.422   3.006  1.0740  0.4415  0.9912
   37CHL1   H7B 2677   4.687   0.277   3.012  1.3490  0.2685  0.0932
   37CHL1    C8 2678   4.810   0.446   3.041  0.1605 -0.6325  0.6676
   37CHL1    H8 2679   4.785   0.554   3.053  1.4498 -0.3421  0.8930
   37CHL1   C14 2680   4.835   0.384   3.175 -0.1320  0.5380 -0.1286
   37CHL1   H14 2681   4.870   0.279   3.161 -0.8292  0.2348  0.2956
   37CHL1   C15 2682   4.719   0.376   3.270  0.1940  0.3906 -0.0973
   37CHL1  H15A 2683   4.669   0.476   3.274  0.6606  0.6022  0.6286
   37CHL1  H15B 2684   4.637   0.305   3.249 -0.3651  0.7333  0.8694
   37CHL1   C16 2685   4.786   0.349   3.405  0.5103 -0.3961  0.5502
   37CHL1  H16A 2686   4.733   0.407   3.484  1.8241 -0.4670  1.5158
   37CHL1  H16B 2687   4.763   0.243   3.430 -0.0690 -0.6298 -0.8950
   37CHL1   C17 2688   4.937   0.372   3.390 -0.4252 -0.1081 -0.4363
   37CHL1   H17 2689   4.988   0.275   3.378  1.6208  0.9355 -0.6543
   37CHL1   C13 2690   4.947   0.454   3.252  1.1814 -0.5758  0.2151
   37CHL1   C18 2691   4.909   0.600   3.289 -0.3279  0.4647 -0.1637
   37CHL1  H18A 2692   4.978   0.641   3.365  0.0826 -1.2330  0.4050
   37CHL1  H18B 2693   4.918   0.653   3.191  1.3695  0.4764 -0.0252
   37CHL1  H18C 2694   4.803   0.622   3.314 -0.6298  1.4341 -2.1255
   37CHL1   C12 2695   5.077   0.440   3.176 -0.0397 -0.2562 -0.1139
   37CHL1  H12A 2696   5.156   0.498   3.228 -3.0810  1.9013  2.4231
   37CHL1  H12B 2697   5.110   0.334   3.170  0.7916 -0.1721  2.1142
   37CHL1   C11 2698   5.066   0.494   3.031  0.2333 -0.7556 -0.0502
   37CHL1  H11A 2699   5.050   0.601   3.052 -1.2469 -0.6051 -1.7227
   37CHL1  H11B 2700   5.156   0.479   2.968 -1.1576 -0.5877 -2.1736
   37CHL1    C9 2701   4.942   0.441   2.957 -0.0391  0.1056  0.7841
   37CHL1    H9 2702   4.975   0.336   2.940  2.0010  0.3817  2.6103
   37CHL1   C10 2703   4.914   0.490   2.809  0.0331  0.0750  0.5377
   37CHL1   C19 2704   4.932   0.644   2.807  0.5450 -0.1122 -0.0946
   37CHL1  H19A 2705   5.028   0.674   2.854 -0.1091  1.6733  0.1496
   37CHL1  H19B 2706   4.930   0.687   2.705 -0.3543  1.7157  0.6544
   37CHL1  H19C 2707   4.847   0.695   2.858 -0.3156 -1.2576 -0.3356
   37CHL1    C1 2708   5.025   0.442   2.718  0.5969  0.2191 -0.3282
   37CHL1   H1A 2709   5.119   0.482   2.762  0.8307  0.5678 -1.1215
   37CHL1   H1B 2710   5.035   0.332   2.729  1.2802  0.1969 -1.0519
   37CHL1    C2 2711   5.010   0.470   2.569 -0.9595  0.1129 -0.4376
   37CHL1   H2A 2712   5.090   0.421   2.510 -0.4327  0.4227  0.0097
   37CHL1   H2B 2713   5.018   0.579   2.550  0.0364  0.6716  2.5508
   37CHL1   C20 2714   5.007   0.427   3.523 -0.2597  0.2268 -0.0969
   37CHL1   H20 2715   4.952   0.521   3.545 -3.1395 -0.9921 -1.6138
   37CHL1   C21 2716   5.158   0.438   3.501  0.3010  0.0481  0.9443
   37CHL1  H21A 2717   5.180   0.518   3.427 -1.5465 -2.0031 -2.0507
   37CHL1  H21B 2718   5.203   0.343   3.465  0.2797  0.3626  0.0641
   37CHL1  H21C 2719   5.214   0.465   3.593 -1.4936  0.7798  1.8756
   37CHL1   C22 2720   4.983   0.336   3.647 -0.4284 -0.7731  0.0719
   37CHL1  H22A 2721   4.875   0.308   3.648 -0.4603 -0.8918  3.3377
   37CHL1  H22B 2722   5.043   0.244   3.627 -1.7340 -1.5890 -0.2504
   37CHL1   C23 2723   5.032   0.401   3.781 -0.1098 -0.0328 -0.0453
   37CHL1  H23A 2724   5.143   0.401   3.782  0.0023  2.3851 -1.9473
   37CHL1  H23B 2725   4.992   0.503   3.798  3.6386  1.5568  0.1000
   37CHL1   C24 2726   4.985   0.308   3.890  0.5601  0.4336 -0.7240
   37CHL1  H24A 2727   4.874   0.298   3.892  0.5016  1.0410 -0.6937
   37CHL1  H24B 2728   5.023   0.211   3.852  0.7865  1.6442 -3.8920
   37CHL1   C25 2729   5.040   0.326   4.030  0.0249 -0.7250  0.0627
   37CHL1   H25 2730   5.151   0.323   4.028  0.2497  2.3661  1.5031
   37CHL1   C26 2731   4.998   0.462   4.080  0.3691 -0.3099 -0.0105
   37CHL1  H26A 2732   5.035   0.484   4.182 -3.7786 -0.5181  1.7111
   37CHL1  H26B 2733   5.049   0.540   4.020  2.0114 -2.0908 -1.0555
   37CHL1  H26C 2734   4.889   0.480   4.086  0.2490 -1.2108  0.7041
   37CHL1   C27 2735   4.989   0.220   4.128  0.5596 -0.0073 -0.3478
   37CHL1  H27A 2736   5.026   0.124   4.085 -0.3312 -0.2500 -0.5891
   37CHL1  H27B 2737   5.028   0.228   4.232  0.5610 -3.0868  0.0008
   37CHL1  H27C 2738   4.879   0.225   4.135  0.4704  3.0785 -2.3370
   38CHL1    C3 2739   1.321   0.596   3.329  0.9356 -1.1959 -0.6393
   38CHL1    H3 2740   1.328   0.491   3.365 -0.8277 -1.1131  0.0440
   38CHL1    O3 2741   1.327   0.603   3.192 -0.4140  0.0555  0.0614
   38CHL1   H3' 2742   1.325   0.696   3.167  0.4391  1.0238  3.1179
   38CHL1    C4 2743   1.192   0.671   3.365  0.1522  0.1260 -0.6430
   38CHL1   H4A 2744   1.201   0.774   3.324  1.2423 -0.2624 -1.4374
   38CHL1   H4B 2745   1.112   0.620   3.308 -1.4493  0.3339  1.2909
   38CHL1    C5 2746   1.176   0.669   3.516 -0.5731 -0.3996  0.0423
   38CHL1    C6 2747   1.069   0.622   3.576  0.5511  0.1889 -1.0782
   38CHL1    H6 2748   0.993   0.586   3.505 -0.7543  2.3827 -0.8716
   38CHL1    C7 2749   1.041   0.629   3.719  0.4586 -0.0825  0.5112
   38CHL1   H7A 2750   0.937   0.665   3.735  0.2816 -0.4046  0.0969
   38CHL1   H7B 2751   1.042   0.526   3.761  0.5515  0.4162  1.7858
   38CHL1    C8 2752   1.144   0.701   3.810 -0.0198  0.7138  0.4956
   38CHL1    H8 2753   1.119   0.809   3.805  0.0924  0.7092 -0.3920
   38CHL1   C14 2754   1.155   0.645   3.953  0.0670 -0.1275 -0.1218
   38CHL1   H14 2755   1.195   0.542   3.939  1.2671  0.2185  0.5895
   38CHL1   C15 2756   1.030   0.632   4.041 -0.6319  0.8039  0.0814
   38CHL1  H15A 2757   0.956   0.714   4.030 -1.4692 -0.2576 -3.5069
   38CHL1  H15B 2758   0.974   0.541   4.014  1.8262  0.2395 -4.0938
   38CHL1   C16 2759   1.083   0.619   4.183  0.2074  0.3234  0.4628
   38CHL1  H16A 2760   1.037   0.697   4.247 -1.1009 -1.1306  1.3902
   38CHL1  H16B 2761   1.047   0.522   4.225  1.6794 -0.9571 -1.0629
   38CHL1   C17 2762   1.231   0.644   4.171  0.4505 -0.2003 -0.1464
   38CHL1   H17 2763   1.274   0.543   4.158 -1.1690 -1.0220  0.6406
   38CHL1   C13 2764   1.253   0.719   4.043  0.3854 -0.2992  0.1833
   38CHL1   C18 2765   1.207   0.871   4.063 -0.4959  0.1620  0.4224
   38CHL1  H18A 2766   1.278   0.909   4.139 -0.9771 -0.9705  1.4785
   38CHL1  H18B 2767   1.218   0.932   3.971 -2.7756  0.8647  0.5579
   38CHL1  H18C 2768   1.104   0.877   4.104 -1.8842 -0.4349 -2.7362
   38CHL1   C12 2769   1.397   0.714   3.985  0.0661 -0.5639 -0.6568
   38CHL1  H12A 2770   1.465   0.784   4.039  0.6050  0.3927 -2.4684
   38CHL1  H12B 2771   1.429   0.608   3.979  2.7977  0.2267 -1.7622
   38CHL1   C11 2772   1.397   0.763   3.838 -0.5431  0.2463 -0.3177
   38CHL1  H11A 2773   1.377   0.872   3.838  1.1679  0.5903 -0.7887
   38CHL1  H11B 2774   1.499   0.737   3.800 -0.7022 -0.8742 -0.0281
   38CHL1    C9 2775   1.292   0.696   3.744 -0.3385  0.5546 -0.4142
   38CHL1    H9 2776   1.317   0.588   3.751  4.2764  1.2586 -2.0992
   38CHL1   C10 2777   1.290   0.730   3.597 -1.1385 -0.3814 -0.1622
   38CHL1   C19 2778   1.287   0.886   3.581  0.0681  0.9311 -0.4893
   38CHL1  H19A 2779   1.193   0.929   3.622 -0.0780  0.6774 -0.5567
   38CHL1  H19B 2780   1.372   0.929   3.638  0.6755 -0.5017 -0.2631
   38CHL1  H19C 2781   1.302   0.915   3.475 -0.0781  2.5803 -0.0814
   38CHL1    C1 2782   1.428   0.679   3.538 -0.0059  0.1399 -0.0176
   38CHL1   H1A 2783   1.504   0.754   3.569 -2.5431  2.9941 -0.1241
   38CHL1   H1B 2784   1.448   0.579   3.580 -2.3097 -0.6950 -0.7736
   38CHL1    C2 2785   1.437   0.679   3.384 -0.1189 -0.4217 -0.3972
   38CHL1   H2A 2786   1.534   0.629   3.363  0.5553 -0.1497  1.7556
   38CHL1   H2B 2787   1.433   0.780   3.338 -0.6304  0.4567  1.4571
   38CHL1   C20 2788   1.312   0.692   4.293  0.2039 -0.1976 -0.1652
   38CHL1   H20 2789   1.406   0.743   4.263  0.6194  0.4332  2.0080
   38CHL1   C21 2790   1.355   0.574   4.381  0.6304 -0.0568  0.2772
   38CHL1  H21A 2791   1.265   0.525   4.424  0.1047  1.0772  0.5125
   38CHL1  H21B 2792   1.413   0.614   4.467  1.2871 -1.1648  0.3703
   38CHL1  H21C 2793   1.410   0.501   4.319  1.0964  0.2673  0.3017
   38CHL1   C22 2794   1.250   0.800   4.384 -0.2758  0.6105  0.1023
   38CHL1  H22A 2795   1.179   0.872   4.338 -1.6790  0.4863  1.9489
   38CHL1  H22B 2796   1.190   0.747   4.462 -0.6650 -0.2033 -0.7242
   38CHL1   C23 2797   1.352   0.901   4.433 -0.3824 -0.2835  0.1956
   38CHL1  H23A 2798   1.432   0.852   4.492  2.4932  3.2309 -0.4921
   38CHL1  H23B 2799   1.399   0.950   4.345 -0.8903  0.7302  0.4766
   38CHL1   C24 2800   1.285   1.014   4.519 -0.0744  0.3620 -0.7605
   38CHL1  H24A 2801   1.201   1.052   4.458  0.0578 -1.3989 -2.0977
   38CHL1  H24B 2802   1.249   0.981   4.619  2.0716 -2.3022 -0.7501
   38CHL1   C25 2803   1.369   1.145   4.535 -0.1637 -0.0821  0.4639
   38CHL1   H25 2804   1.416   1.169   4.438 -0.6236  0.7705  0.4432
   38CHL1   C26 2805   1.279   1.253   4.588 -0.3054 -0.0095 -0.4176
   38CHL1  H26A 2806   1.188   1.268   4.525 -1.1595  2.6198  1.2809
   38CHL1  H26B 2807   1.251   1.229   4.693  3.8978  0.9480  1.0815
   38CHL1  H26C 2808   1.334   1.348   4.599  1.2506 -0.8727 -0.4663
   38CHL1   C27 2809   1.494   1.127   4.625  0.2715  0.0770  0.4636
   38CHL1  H27A 2810   1.548   1.224   4.625 -1.1356  0.8853  0.5123
   38CHL1  H27B 2811   1.454   1.101   4.725 -1.1041 -0.8478 -0.3001
   38CHL1  H27C 2812   1.552   1.044   4.579 -1.9184  0.0677 -2.5873
   39CHL1    C3 2813   1.740   0.383   3.115 -0.3567 -0.0529  0.2646
   39CHL1    H3 2814   1.649   0.445   3.110 -0.8253 -0.7959 -0.9390
   39CHL1    O3 2815   1.771   0.347   2.982  0.3184 -0.7775 -0.0203
   39CHL1   H3' 2816   1.807   0.425   2.939 -3.4758  0.6512 -0.9753
   39CHL1    C4 2817   1.866   0.447   3.168  0.3551  0.3481 -0.7324
   39CHL1   H4A 2818   1.955   0.381   3.155  0.6509  0.8083 -1.0715
   39CHL1   H4B 2819   1.889   0.531   3.100  0.9104  0.2186 -0.7054
   39CHL1    C5 2820   1.863   0.478   3.318 -0.0597 -1.1587 -0.2066
   39CHL1    C6 2821   1.889   0.598   3.362  0.6109  0.3923 -0.2324
   39CHL1    H6 2822   1.928   0.677   3.296  1.1771 -1.4314 -2.1753
   39CHL1    C7 2823   1.867   0.639   3.504 -0.0516  0.0749  0.7107
   39CHL1   H7A 2824   1.946   0.712   3.534  1.3026 -0.1882 -1.8827
   39CHL1   H7B 2825   1.771   0.695   3.510 -0.9465 -1.5484  2.6345
   39CHL1    C8 2826   1.857   0.527   3.603 -0.3835  0.0200  0.7459
   39CHL1    H8 2827   1.956   0.478   3.619  0.1649  1.0263  0.5265
   39CHL1   C14 2828   1.804   0.577   3.736 -0.2834  0.7732  0.3092
   39CHL1   H14 2829   1.704   0.620   3.714 -0.6105 -0.9407 -1.9849
   39CHL1   C15 2830   1.871   0.695   3.801 -0.0532  0.4154 -0.2262
   39CHL1  H15A 2831   1.979   0.671   3.811  0.1316  0.8811 -0.9631
   39CHL1  H15B 2832   1.865   0.791   3.744  0.7169  1.8687  2.0021
   39CHL1   C16 2833   1.819   0.699   3.941  0.4284  0.0330  0.4602
   39CHL1  H16A 2834   1.899   0.723   4.014  0.7396  1.3670 -0.2775
   39CHL1  H16B 2835   1.754   0.788   3.938  0.2856 -0.0434 -3.2591
   39CHL1   C17 2836   1.749   0.559   3.969 -1.0260 -0.1918  0.9046
   39CHL1   H17 2837   1.642   0.578   3.947 -1.0825 -0.2556  1.1186
   39CHL1   C13 2838   1.795   0.473   3.848  0.5127  0.3103 -0.4799
   39CHL1   C18 2839   1.932   0.403   3.870  0.5310 -0.2790  0.0831
   39CHL1  H18A 2840   1.987   0.367   3.780 -0.3103 -1.3218 -0.0321
   39CHL1  H18B 2841   2.001   0.482   3.907 -0.6032  1.0299 -0.5091
   39CHL1  H18C 2842   1.931   0.321   3.945 -4.4232  0.1659  0.8330
   39CHL1   C12 2843   1.688   0.368   3.799  0.4461  0.4486 -0.1844
   39CHL1  H12A 2844   1.688   0.281   3.869 -2.4146 -1.6497 -2.5423
   39CHL1  H12B 2845   1.583   0.402   3.809 -0.4803 -1.7427 -1.9151
   39CHL1   C11 2846   1.728   0.310   3.658 -0.4733 -0.1086  0.1435
   39CHL1  H11A 2847   1.821   0.252   3.675  1.5391  2.1323 -2.2903
   39CHL1  H11B 2848   1.642   0.258   3.609 -1.4336  0.2249  1.4080
   39CHL1    C9 2849   1.765   0.418   3.545 -0.6081 -0.4268  0.8241
   39CHL1    H9 2850   1.668   0.465   3.518  0.8229  0.5737 -3.3360
   39CHL1   C10 2851   1.807   0.361   3.406 -1.2430  0.6448  0.9265
   39CHL1   C19 2852   1.932   0.263   3.422 -0.4948  0.0228 -0.1634
   39CHL1  H19A 2853   2.020   0.314   3.466  0.5902 -1.4704 -0.5116
   39CHL1  H19B 2854   1.896   0.176   3.482 -0.8818 -0.4589 -1.0587
   39CHL1  H19C 2855   1.967   0.219   3.326 -1.4523  0.5629 -0.7753
   39CHL1    C1 2856   1.698   0.279   3.336  0.4117  0.2234 -0.3563
   39CHL1   H1A 2857   1.684   0.191   3.402  1.3280  0.3769  0.0603
   39CHL1   H1B 2858   1.603   0.337   3.340  0.5531  0.4176  0.7684
   39CHL1    C2 2859   1.721   0.252   3.188  0.1229 -0.1974  0.0927
   39CHL1   H2A 2860   1.636   0.192   3.149 -0.5968  0.0112  1.2910
   39CHL1   H2B 2861   1.809   0.187   3.167 -0.1901 -0.1378 -1.5467
   39CHL1   C20 2862   1.758   0.515   4.117 -0.3718  0.1701 -0.0661
   39CHL1   H20 2863   1.865   0.505   4.144  0.1578 -0.3137 -2.2037
   39CHL1   C21 2864   1.697   0.373   4.135  0.3065 -0.9450 -0.0951
   39CHL1  H21A 2865   1.746   0.287   4.085  1.0110 -0.8843  0.4754
   39CHL1  H21B 2866   1.590   0.385   4.107  0.9420  2.1631 -1.5487
   39CHL1  H21C 2867   1.698   0.348   4.243 -2.1312  0.5519  0.3493
   39CHL1   C22 2868   1.699   0.614   4.217 -1.0210 -0.3780  0.0164
   39CHL1  H22A 2869   1.736   0.716   4.196  1.7368 -1.2537  0.2931
   39CHL1  H22B 2870   1.589   0.604   4.202 -0.7403 -0.1938 -2.7167
   39CHL1   C23 2871   1.722   0.588   4.364  0.3686  0.4162  0.4693
   39CHL1  H23A 2872   1.654   0.509   4.401  0.3613 -0.4231 -1.2448
   39CHL1  H23B 2873   1.826   0.556   4.387  0.0864 -0.9971 -0.1345
   39CHL1   C24 2874   1.695   0.715   4.450  0.6595 -0.0914 -0.1579
   39CHL1  H24A 2875   1.742   0.807   4.411  0.5123  0.6399  1.3316
   39CHL1  H24B 2876   1.589   0.744   4.434  0.7812  0.3791 -0.1033
   39CHL1   C25 2877   1.732   0.702   4.597 -0.4562  0.5821  0.0396
   39CHL1   H25 2878   1.698   0.802   4.632 -1.0525  1.1628 -2.0510
   39CHL1   C26 2879   1.664   0.585   4.676 -0.3806 -0.4001  0.4075
   39CHL1  H26A 2880   1.700   0.578   4.781 -2.4562 -0.5371  1.1637
   39CHL1  H26B 2881   1.557   0.611   4.686 -0.0994  2.1786 -1.8923
   39CHL1  H26C 2882   1.652   0.487   4.625 -0.1466 -0.4136  0.3784
   39CHL1   C27 2883   1.886   0.691   4.604 -0.0843 -0.4615  0.1618
   39CHL1  H27A 2884   1.918   0.706   4.710  0.2922  0.5053 -0.0773
   39CHL1  H27B 2885   1.902   0.583   4.586 -1.4637 -0.9030  1.4151
   39CHL1  H27C 2886   1.933   0.751   4.523  0.4902 -1.5487 -0.3410
   40CHL1    C3 2887   6.242   3.157   2.885 -0.9173  0.2043 -0.3037
   40CHL1    H3 2888   6.139   3.124   2.911 -0.1988 -2.6943 -0.7742
   40CHL1    O3 2889   6.242   3.181   2.750  0.3338 -0.7938  0.2283
   40CHL1   H3' 2890   6.332   3.210   2.735 -0.4836  1.9012 -0.1039
   40CHL1    C4 2891   6.277   3.291   2.962 -0.1206  0.5418  0.0837
   40CHL1   H4A 2892   6.375   3.319   2.916 -0.4333  0.2599 -0.7758
   40CHL1   H4B 2893   6.199   3.366   2.938 -0.2444  0.1494 -0.8061
   40CHL1    C5 2894   6.295   3.255   3.108 -0.4500 -0.2644 -0.4563
   40CHL1    C6 2895   6.219   3.315   3.203  0.0381  0.1211 -0.0866
   40CHL1    H6 2896   6.154   3.397   3.169 -1.2277 -1.1380 -0.8518
   40CHL1    C7 2897   6.234   3.298   3.352 -0.2344  0.4411 -0.1914
   40CHL1   H7A 2898   6.259   3.400   3.388  0.9796  0.9382 -2.2294
   40CHL1   H7B 2899   6.145   3.258   3.405  1.1253  0.9402  2.6622
   40CHL1    C8 2900   6.362   3.225   3.383  0.2494 -0.1333 -0.9300
   40CHL1    H8 2901   6.444   3.298   3.366 -1.0396  2.2191  2.1087
   40CHL1   C14 2902   6.352   3.170   3.522  0.9394 -0.1788 -1.0954
   40CHL1   H14 2903   6.275   3.090   3.526  0.3104  0.4744  1.3791
   40CHL1   C15 2904   6.308   3.268   3.636 -0.0780 -0.0402  0.3742
   40CHL1  H15A 2905   6.343   3.373   3.621  1.3280 -0.5220  0.0818
   40CHL1  H15B 2906   6.200   3.269   3.662  0.2989 -1.3156  2.2200
   40CHL1   C16 2907   6.368   3.210   3.762  0.2959 -0.1139  0.2950
   40CHL1  H16A 2908   6.431   3.285   3.814 -1.6804  0.1081  2.5530
   40CHL1  H16B 2909   6.292   3.183   3.838  1.1325  0.5560  1.4037
   40CHL1   C17 2910   6.442   3.086   3.726 -0.1081 -0.6995 -0.3282
   40CHL1   H17 2911   6.363   3.008   3.714 -1.5050  0.9989 -3.2211
   40CHL1   C13 2912   6.478   3.097   3.577 -0.6740 -0.2657  0.4325
   40CHL1   C18 2913   6.599   3.192   3.561 -0.2549  0.3813 -0.3895
   40CHL1  H18A 2914   6.697   3.146   3.585 -0.9465 -1.2208 -0.4648
   40CHL1  H18B 2915   6.602   3.236   3.460 -1.1942  0.5320 -0.3635
   40CHL1  H18C 2916   6.588   3.274   3.635 -2.4222  0.7424 -1.0386
   40CHL1   C12 2917   6.500   2.975   3.494 -0.1523  0.3905  0.0449
   40CHL1  H12A 2918   6.593   2.921   3.522 -0.4014 -1.7542 -2.8753
   40CHL1  H12B 2919   6.414   2.906   3.500 -0.1567  0.2509 -1.2952
   40CHL1   C11 2920   6.505   3.010   3.346 -1.1158  0.1335  0.5464
   40CHL1  H11A 2921   6.606   3.049   3.319 -0.1759 -1.9691  0.8338
   40CHL1  H11B 2922   6.500   2.914   3.290  1.2198  0.9781 -1.2839
   40CHL1    C9 2923   6.389   3.107   3.294  0.4981  1.6207 -1.1218
   40CHL1    H9 2924   6.297   3.046   3.309  0.5703  1.8787  0.5892
   40CHL1   C10 2925   6.390   3.145   3.147 -0.1684 -0.5673  0.3998
   40CHL1   C19 2926   6.531   3.201   3.109 -0.2872  0.7396  0.3731
   40CHL1  H19A 2927   6.557   3.222   3.003  3.3899 -1.3877  0.6685
   40CHL1  H19B 2928   6.542   3.292   3.172  0.8928  0.6829  0.2779
   40CHL1  H19C 2929   6.612   3.130   3.137 -0.6247 -0.0717 -0.6538
   40CHL1    C1 2930   6.364   3.020   3.055  0.3821  0.3839  0.3557
   40CHL1   H1A 2931   6.446   2.953   3.089  0.0556 -1.0580 -1.5151
   40CHL1   H1B 2932   6.268   2.982   3.099  0.4815  1.1708  1.2996
   40CHL1    C2 2933   6.351   3.058   2.911  0.4155 -0.1628  0.6244
   40CHL1   H2A 2934   6.324   2.966   2.855  3.2304 -0.7736  0.1312
   40CHL1   H2B 2935   6.447   3.096   2.869  0.1614 -0.8933 -0.6756
   40CHL1   C20 2936   6.544   3.032   3.825  0.0940  0.0397  0.0739
   40CHL1   H20 2937   6.646   3.027   3.781  0.8309  1.2600  1.5103
   40CHL1   C21 2938   6.504   2.885   3.855  0.0235  0.2741  0.5419
   40CHL1  H21A 2939   6.585   2.835   3.913 -1.4004 -1.4073  1.1720
   40CHL1  H21B 2940   6.484   2.819   3.768 -2.6143 -1.4654  2.3281
   40CHL1  H21C 2941   6.408   2.890   3.909  1.3468  1.5914  2.9690
   40CHL1   C22 2942   6.559   3.111   3.963  0.8698  0.1784  1.1832
   40CHL1  H22A 2943   6.571   3.219   3.939 -0.3311 -0.1204 -1.1482
   40CHL1  H22B 2944   6.463   3.106   4.019  0.3176  1.9493  0.4620
   40CHL1   C23 2945   6.672   3.061   4.053 -0.2620 -0.0700 -0.2173
   40CHL1  H23A 2946   6.647   2.957   4.083  1.3385 -0.0681  1.2721
   40CHL1  H23B 2947   6.764   3.073   3.992  0.9825 -1.4707  1.3048
   40CHL1   C24 2948   6.689   3.148   4.171  0.6832  0.4848  0.5882
   40CHL1  H24A 2949   6.716   3.253   4.146  1.5252  0.2576  0.5175
   40CHL1  H24B 2950   6.590   3.149   4.220  0.6164  0.2155  0.4617
   40CHL1   C25 2951   6.782   3.102   4.288  0.7292  0.1392 -0.1265
   40CHL1   H25 2952   6.875   3.072   4.235  0.6064  0.5041 -0.5448
   40CHL1   C26 2953   6.815   3.225   4.376  0.8042 -0.3311 -0.0318
   40CHL1  H26A 2954   6.726   3.271   4.425  1.3561  2.9868 -1.8738
   40CHL1  H26B 2955   6.889   3.205   4.457 -0.3512  2.4403  1.8950
   40CHL1  H26C 2956   6.844   3.312   4.314 -1.9397  0.9754  0.3745
   40CHL1   C27 2957   6.718   2.986   4.370 -0.3579  0.3635 -0.6725
   40CHL1  H27A 2958   6.730   2.888   4.319 -0.2587  1.4942 -2.9326
   40CHL1  H27B 2959   6.770   2.983   4.469  2.8206  0.9554 -2.1877
   40CHL1  H27C 2960   6.611   3.000   4.393 -0.2777  0.0819 -0.1026
   41CHL1    C3 2961   3.107   1.488   2.707  0.3950 -0.3520 -0.4476
   41CHL1    H3 2962   3.034   1.408   2.732  1.1868 -0.0635  3.3045
   41CHL1    O3 2963   3.125   1.472   2.568  0.2334  0.5520 -0.0798
   41CHL1   H3' 2964   3.194   1.535   2.546  1.9590 -1.1462  0.2159
   41CHL1    C4 2965   3.042   1.628   2.742 -0.6240  0.0295 -0.1732
   41CHL1   H4A 2966   3.096   1.712   2.694 -0.0558  0.2660  0.8647
   41CHL1   H4B 2967   2.942   1.621   2.694 -0.9276 -2.2153  0.6913
   41CHL1    C5 2968   3.047   1.653   2.891  0.3507 -0.5257 -0.0036
   41CHL1    C6 2969   2.930   1.693   2.953 -0.0755 -0.9925 -0.1495
   41CHL1    H6 2970   2.838   1.704   2.894  0.0721 -0.0889 -0.2204
   41CHL1    C7 2971   2.908   1.711   3.099  0.2671 -0.2640  0.6117
   41CHL1   H7A 2972   2.852   1.803   3.122 -0.0041 -0.3770  0.4082
   41CHL1   H7B 2973   2.840   1.634   3.142 -0.8963  0.1782 -0.3779
   41CHL1    C8 2974   3.041   1.715   3.181  0.6074  0.2022 -0.6164
   41CHL1    H8 2975   3.092   1.814   3.176 -0.0268  0.6821  1.4489
   41CHL1   C14 2976   3.008   1.691   3.327 -0.2064 -0.0154 -0.0736
   41CHL1   H14 2977   2.958   1.592   3.337 -2.7661  1.2608  0.9196
   41CHL1   C15 2978   2.908   1.789   3.392  0.7890  0.4273 -0.4008
   41CHL1  H15A 2979   2.916   1.898   3.369  0.9944  1.2644  3.0483
   41CHL1  H15B 2980   2.808   1.752   3.360  1.8076 -1.1758 -1.8521
   41CHL1   C16 2981   2.930   1.767   3.537 -0.3076 -0.1401 -0.5455
   41CHL1  H16A 2982   2.939   1.870   3.578  1.5957 -0.3027 -0.4527
   41CHL1  H16B 2983   2.845   1.726   3.594 -0.0928  2.0415  1.4890
   41CHL1   C17 2984   3.054   1.674   3.563  0.2636  0.7505 -0.2619
   41CHL1   H17 2985   3.015   1.570   3.563 -0.7383  1.1007  1.1390
   41CHL1   C13 2986   3.128   1.686   3.426  0.4859  0.7870 -0.8308
   41CHL1   C18 2987   3.192   1.823   3.429 -0.3364 -0.5192  0.4894
   41CHL1  H18A 2988   3.133   1.908   3.471  2.6126  0.5142  2.9055
   41CHL1  H18B 2989   3.282   1.821   3.495  2.0490 -0.2024 -2.5215
   41CHL1  H18C 2990   3.239   1.864   3.337 -1.7394  2.4715  0.9494
   41CHL1   C12 2991   3.227   1.580   3.381  0.0458  0.1600  0.4403
   41CHL1  H12A 2992   3.325   1.587   3.434  1.2801 -0.0390 -1.6771
   41CHL1  H12B 2993   3.181   1.480   3.395  0.6544 -0.0385  1.1114
   41CHL1   C11 2994   3.261   1.579   3.227  0.4146  0.0598 -1.0722
   41CHL1  H11A 2995   3.331   1.663   3.206 -0.2911  0.8187 -0.4326
   41CHL1  H11B 2996   3.314   1.487   3.195 -1.0191 -2.1090  2.3065
   41CHL1    C9 2997   3.135   1.607   3.133  0.0094 -0.2855 -0.4367
   41CHL1    H9 2998   3.071   1.517   3.145  1.5272 -1.6688 -2.0754
   41CHL1   C10 2999   3.164   1.623   2.980  0.1981  0.3225  0.4848
   41CHL1   C19 3000   3.279   1.725   2.958  0.2873 -0.4285  0.0200
   41CHL1  H19A 3001   3.242   1.822   2.999 -0.3817 -0.9588  0.7026
   41CHL1  H19B 3002   3.376   1.702   3.007  0.0743  0.7992  1.1077
   41CHL1  H19C 3003   3.296   1.745   2.850  1.1981  3.4354  0.7108
   41CHL1    C1 3004   3.220   1.480   2.932  0.0611  0.4629 -0.8960
   41CHL1   H1A 3005   3.317   1.466   2.983 -0.5279  0.1800  0.1828
   41CHL1   H1B 3006   3.150   1.401   2.965  1.7208 -0.4490  0.5836
   41CHL1    C2 3007   3.239   1.463   2.784 -0.0630  0.4632  0.3217
   41CHL1   H2A 3008   3.259   1.360   2.746  1.7286  1.5114 -1.8211
   41CHL1   H2B 3009   3.314   1.539   2.754 -0.3518  0.5648 -0.1671
   41CHL1   C20 3010   3.126   1.710   3.697  0.2622  0.0742 -0.2274
   41CHL1   H20 3011   3.149   1.819   3.687  0.7860 -0.1194 -1.2441
   41CHL1   C21 3012   3.250   1.628   3.708  0.5040  0.1548  0.4342
   41CHL1  H21A 3013   3.231   1.519   3.694  1.3180 -0.3684  2.9678
   41CHL1  H21B 3014   3.304   1.648   3.803  0.4054  0.3612  0.4455
   41CHL1  H21C 3015   3.326   1.660   3.633  1.0714  1.7913  1.6471
   41CHL1   C22 3016   3.043   1.685   3.819  0.0975 -0.1727 -0.9263
   41CHL1  H22A 3017   2.941   1.727   3.819  0.3592  0.5171  0.4421
   41CHL1  H22B 3018   3.025   1.575   3.821 -1.4717  0.0637 -1.0191
   41CHL1   C23 3019   3.098   1.721   3.963  0.0232  0.6193  0.1320
   41CHL1  H23A 3020   3.165   1.650   4.015  1.2156  0.0110 -2.0986
   41CHL1  H23B 3021   3.143   1.822   3.964  0.1256  0.6236 -1.4716
   41CHL1   C24 3022   2.992   1.710   4.074 -0.4179 -0.3194 -0.2346
   41CHL1  H24A 3023   2.913   1.788   4.068 -0.5838 -0.5477 -1.1602
   41CHL1  H24B 3024   2.932   1.616   4.074 -1.4382  0.3114  0.4581
   41CHL1   C25 3025   3.051   1.715   4.222 -0.1531 -1.0463  0.1485
   41CHL1   H25 3026   3.105   1.621   4.244  0.2951 -1.3274 -1.9552
   41CHL1   C26 3027   3.138   1.839   4.246  0.4033 -0.0877 -0.3835
   41CHL1  H26A 3028   3.225   1.843   4.177  0.1158 -0.0619 -0.7491
   41CHL1  H26B 3029   3.079   1.932   4.226 -0.8906 -1.0259 -1.1464
   41CHL1  H26C 3030   3.172   1.857   4.349 -0.0653  0.0351 -0.2447
   41CHL1   C27 3031   2.935   1.725   4.335  0.3461  0.5581  0.0495
   41CHL1  H27A 3032   2.871   1.812   4.307  0.5311  0.4189 -0.8513
   41CHL1  H27B 3033   2.868   1.637   4.328  1.1862 -0.2094  1.3311
   41CHL1  H27C 3034   2.960   1.745   4.441 -1.5240 -0.7730  0.7850
   42CHL1    C3 3035   4.855   6.640   2.812 -0.4209 -0.5071 -0.3712
   42CHL1    H3 3036   4.921   6.561   2.854 -2.2728 -0.5396  2.8523
   42CHL1    O3 3037   4.871   6.641   2.671  0.0894 -0.1356 -0.0778
   42CHL1   H3' 3038   4.811   6.703   2.630  1.7050  1.6692  0.1248
   42CHL1    C4 3039   4.715   6.609   2.842  0.3454 -0.5458  0.1151
   42CHL1   H4A 3040   4.648   6.693   2.811 -0.0758  0.3048  2.9709
   42CHL1   H4B 3041   4.688   6.515   2.790 -2.3984  0.7945 -1.0610
   42CHL1    C5 3042   4.706   6.607   2.993  0.4397  0.1397  0.6652
   42CHL1    C6 3043   4.668   6.499   3.053 -0.1259  0.1944  0.2088
   42CHL1    H6 3044   4.638   6.407   3.000 -0.0071 -0.0265  0.5188
   42CHL1    C7 3045   4.650   6.486   3.197  0.4331 -0.5402 -0.2273
   42CHL1   H7A 3046   4.560   6.426   3.221 -0.1333  0.9269  1.5567
   42CHL1   H7B 3047   4.730   6.421   3.237 -0.1857 -0.7771  0.6561
   42CHL1    C8 3048   4.652   6.618   3.277  0.1636  0.2531 -0.3318
   42CHL1    H8 3049   4.550   6.661   3.284 -0.9625 -1.7953 -2.5670
   42CHL1   C14 3050   4.700   6.588   3.426  0.2143  0.1963  0.3257
   42CHL1   H14 3051   4.802   6.543   3.420 -0.3273 -1.1125  0.7203
   42CHL1   C15 3052   4.626   6.483   3.505 -0.8723 -0.3606 -0.3554
   42CHL1  H15A 3053   4.521   6.516   3.520 -0.9822 -0.5889 -0.6083
   42CHL1  H15B 3054   4.634   6.379   3.467  0.1373 -1.5942  2.8910
   42CHL1   C16 3055   4.694   6.500   3.645 -0.8808  0.0602 -0.5558
   42CHL1  H16A 3056   4.625   6.483   3.730 -1.4933  0.5140 -0.9612
   42CHL1  H16B 3057   4.778   6.427   3.644  0.1954  1.2458 -0.1169
   42CHL1   C17 3058   4.765   6.642   3.653  0.0443  0.0648 -0.5552
   42CHL1   H17 3059   4.876   6.642   3.642 -0.1157  1.2004 -2.9621
   42CHL1   C13 3060   4.713   6.711   3.526  0.8232 -0.5723 -0.2765
   42CHL1   C18 3061   4.570   6.779   3.555  0.4059  0.0532  0.1926
   42CHL1  H18A 3062   4.512   6.801   3.462 -2.3431 -1.8115  1.3240
   42CHL1  H18B 3063   4.505   6.711   3.614 -0.3460  1.5147  1.0924
   42CHL1  H18C 3064   4.585   6.874   3.609  1.1565 -0.0456  0.1735
   42CHL1   C12 3065   4.809   6.812   3.461 -0.8083  0.3923 -0.6339
   42CHL1  H12A 3066   4.829   6.902   3.523 -1.8303 -0.4699  1.0038
   42CHL1  H12B 3067   4.900   6.753   3.437 -1.7014 -0.0577 -3.2634
   42CHL1   C11 3068   4.773   6.845   3.314  0.7736 -0.0294  0.3548
   42CHL1  H11A 3069   4.685   6.914   3.317  0.8673  0.0743  0.8970
   42CHL1  H11B 3070   4.850   6.915   3.275  0.6224  0.1194  0.3175
   42CHL1    C9 3071   4.757   6.720   3.223 -0.4493 -0.1526 -0.7361
   42CHL1    H9 3072   4.849   6.660   3.236 -0.4729  0.1034  0.8278
   42CHL1   C10 3073   4.744   6.738   3.072  0.6322  0.4935 -0.0295
   42CHL1   C19 3074   4.636   6.846   3.059 -0.4826 -0.1274 -0.1912
   42CHL1  H19A 3075   4.610   6.857   2.952 -2.2966  1.9489  0.4053
   42CHL1  H19B 3076   4.540   6.820   3.108  0.9672 -2.6258  1.6173
   42CHL1  H19C 3077   4.674   6.946   3.088 -1.0703 -0.3602  1.4986
   42CHL1    C1 3078   4.882   6.791   3.016 -0.0037  0.5484 -0.6224
   42CHL1   H1A 3079   4.902   6.895   3.049  0.2755  0.3021  0.0116
   42CHL1   H1B 3080   4.964   6.724   3.051  1.3731  2.1838 -0.5547
   42CHL1    C2 3081   4.893   6.783   2.864  0.3345 -0.6544  0.7205
   42CHL1   H2A 3082   4.999   6.801   2.835  0.5385 -3.2087 -0.4199
   42CHL1   H2B 3083   4.828   6.863   2.821  2.2310 -0.0204 -1.1332
   42CHL1   C20 3084   4.749   6.719   3.790 -0.4639  0.3016  0.2781
   42CHL1   H20 3085   4.643   6.748   3.802 -0.0699  1.5577  0.8502
   42CHL1   C21 3086   4.841   6.843   3.788 -0.5145 -0.0877 -0.7546
   42CHL1  H21A 3087   4.782   6.929   3.749 -0.6131  1.7062  2.9347
   42CHL1  H21B 3088   4.925   6.823   3.718  0.0194 -1.7281  0.3080
   42CHL1  H21C 3089   4.881   6.862   3.890 -0.2235 -0.1334 -0.8586
   42CHL1   C22 3090   4.777   6.635   3.917 -0.2995  0.4385  0.2453
   42CHL1  H22A 3091   4.768   6.710   3.998 -0.2407 -1.3476  1.9883
   42CHL1  H22B 3092   4.694   6.562   3.931 -1.6771  2.1337  1.3061
   42CHL1   C23 3093   4.920   6.571   3.929 -0.1221  0.4033  0.7263
   42CHL1  H23A 3094   4.937   6.500   3.846  1.1982  0.9591  0.5020
   42CHL1  H23B 3095   5.006   6.638   3.908  0.3808 -0.0616  1.2813
   42CHL1   C24 3096   4.955   6.507   4.063 -0.1430  0.5958  0.3676
   42CHL1  H24A 3097   5.049   6.448   4.061 -1.5353 -1.7806  0.7861
   42CHL1  H24B 3098   4.976   6.589   4.135 -0.2972 -0.3032  1.4675
   42CHL1   C25 3099   4.853   6.408   4.119  0.1375  0.2900  0.5413
   42CHL1   H25 3100   4.753   6.455   4.121 -0.7922 -1.6047  0.4973
   42CHL1   C26 3101   4.844   6.287   4.025 -0.3020 -0.7331 -0.6620
   42CHL1  H26A 3102   4.945   6.242   4.010  0.7484  0.6058  1.7347
   42CHL1  H26B 3103   4.784   6.217   4.087  0.8888 -0.2603  1.1290
   42CHL1  H26C 3104   4.792   6.314   3.931 -1.5057 -1.4271 -0.2197
   42CHL1   C27 3105   4.879   6.367   4.260 -0.0331  0.8862 -0.2530
   42CHL1  H27A 3106   4.979   6.320   4.269 -0.1549  0.6919  0.1416
   42CHL1  H27B 3107   4.892   6.457   4.324  1.4504  1.4012 -1.2529
   42CHL1  H27C 3108   4.794   6.305   4.298  1.1308  0.3235  1.5764
   43CHL1    C3 3109   1.950   1.443   3.240 -0.1239  0.1244 -0.3133
   43CHL1    H3 3110   1.843   1.421   3.222 -0.4331  1.0730  0.3192
   43CHL1    O3 3111   2.021   1.435   3.119  0.0825  0.1170  0.0609
   43CHL1   H3' 3112   2.096   1.490   3.142 -1.0341  1.5933  0.3708
   43CHL1    C4 3113   1.979   1.578   3.302  0.2712  0.2130  0.5185
   43CHL1   H4A 3114   2.086   1.603   3.291  0.2004  0.0068 -0.7798
   43CHL1   H4B 3115   1.929   1.662   3.249 -0.3837  0.2056  1.1113
   43CHL1    C5 3116   1.922   1.587   3.450 -1.1150  0.5896 -0.1543
   43CHL1    C6 3117   1.825   1.670   3.486  0.4381 -0.1166  0.3224
   43CHL1    H6 3118   1.796   1.736   3.404 -0.5697 -1.6670 -0.6078
   43CHL1    C7 3119   1.763   1.680   3.620 -0.1597 -0.3605  0.3434
   43CHL1   H7A 3120   1.750   1.787   3.649  1.8005 -0.3060  1.2577
   43CHL1   H7B 3121   1.658   1.645   3.621 -0.1083 -0.5168  0.3196
   43CHL1    C8 3122   1.860   1.618   3.723 -0.2798 -0.1417  0.1665
   43CHL1    H8 3123   1.948   1.687   3.733  0.1122 -0.1517 -2.5438
   43CHL1   C14 3124   1.793   1.623   3.859  0.6154  0.7410  0.1089
   43CHL1   H14 3125   1.705   1.558   3.839 -0.3116  2.0191 -0.1010
   43CHL1   C15 3126   1.729   1.754   3.909  0.3583  0.1836 -0.0274
   43CHL1  H15A 3127   1.808   1.830   3.890  2.2032 -1.3945  0.9364
   43CHL1  H15B 3128   1.633   1.786   3.862  0.9692  1.0818 -0.6869
   43CHL1   C16 3129   1.714   1.727   4.066  0.3293  0.3616  0.4608
   43CHL1  H16A 3130   1.783   1.792   4.124  0.8071 -0.9507  1.4122
   43CHL1  H16B 3131   1.611   1.742   4.105 -0.1762 -0.7257 -0.3772
   43CHL1   C17 3132   1.778   1.587   4.093 -0.3400 -0.1410 -0.3381
   43CHL1   H17 3133   1.702   1.506   4.097 -1.4508  0.9103  1.4090
   43CHL1   C13 3134   1.875   1.562   3.974  0.2890  0.1785  0.5984
   43CHL1   C18 3135   2.003   1.650   3.999 -0.6915 -0.1204 -0.5563
   43CHL1  H18A 3136   1.981   1.750   4.043 -0.0064 -0.1648 -0.0948
   43CHL1  H18B 3137   2.071   1.592   4.064 -2.0107 -3.3858 -1.8683
   43CHL1  H18C 3138   2.061   1.654   3.905 -0.9290  0.4992 -0.6841
   43CHL1   C12 3139   1.909   1.419   3.937 -0.3272 -0.1507  0.3634
   43CHL1  H12A 3140   1.978   1.380   4.015  0.3727  0.9289  0.2963
   43CHL1  H12B 3141   1.813   1.363   3.945 -0.4968  0.3440  2.1128
   43CHL1   C11 3142   1.977   1.410   3.796  0.1442  0.5865  1.1239
   43CHL1  H11A 3143   2.081   1.447   3.810 -0.2488  1.8520  0.7920
   43CHL1  H11B 3144   1.984   1.309   3.751  1.6789  1.0734  0.2257
   43CHL1    C9 3145   1.903   1.484   3.684 -0.3215 -0.0881  0.3459
   43CHL1    H9 3146   1.807   1.428   3.675  0.9593 -2.0782 -1.8781
   43CHL1   C10 3147   1.978   1.476   3.550 -0.4378 -0.0455  1.1753
   43CHL1   C19 3148   2.124   1.519   3.569 -0.0882  0.4580 -0.5263
   43CHL1  H19A 3149   2.184   1.526   3.476  1.6718  2.4436  0.6664
   43CHL1  H19B 3150   2.135   1.616   3.623  1.7097 -1.0237  1.9993
   43CHL1  H19C 3151   2.170   1.437   3.628 -1.9467 -1.1457 -1.1887
   43CHL1    C1 3152   1.953   1.336   3.482 -0.2507  0.3821  0.7087
   43CHL1   H1A 3153   1.992   1.253   3.545 -0.5877  0.7071  1.3553
   43CHL1   H1B 3154   1.842   1.326   3.483 -0.2232 -0.0701 -0.2445
   43CHL1    C2 3155   2.005   1.329   3.337 -0.2783 -0.7307 -0.2575
   43CHL1   H2A 3156   1.985   1.238   3.277  0.0129 -0.0120 -1.4797
   43CHL1   H2B 3157   2.116   1.328   3.340 -0.2396  1.1952  0.5405
   43CHL1   C20 3158   1.837   1.581   4.235 -0.4357 -0.1485  0.1812
   43CHL1   H20 3159   1.911   1.661   4.256  0.3603 -0.7926 -0.0888
   43CHL1   C21 3160   1.913   1.452   4.269  0.6229  0.0806  0.5668
   43CHL1  H21A 3161   1.849   1.365   4.242  1.7051 -0.8495  0.9125
   43CHL1  H21B 3162   1.948   1.442   4.374  2.0249  1.6961  0.2902
   43CHL1  H21C 3163   2.004   1.438   4.207  1.0308  2.6927  0.4775
   43CHL1   C22 3164   1.726   1.598   4.336  0.0730  0.4805 -0.2228
   43CHL1  H22A 3165   1.671   1.694   4.326  1.7654  1.5871  0.5776
   43CHL1  H22B 3166   1.659   1.511   4.318 -0.8096  1.4234 -1.6132
   43CHL1   C23 3167   1.765   1.613   4.486  0.1930 -0.6612  0.2452
   43CHL1  H23A 3168   1.793   1.510   4.519  1.7310  0.2121  1.8482
   43CHL1  H23B 3169   1.852   1.682   4.490  0.4623 -0.6818 -3.0265
   43CHL1   C24 3170   1.655   1.675   4.579  0.8855  0.1731 -0.8704
   43CHL1  H24A 3171   1.657   1.784   4.553 -2.2100  0.8398  1.1785
   43CHL1  H24B 3172   1.555   1.632   4.562  1.6095 -1.6247 -0.7910
   43CHL1   C25 3173   1.691   1.678   4.728 -0.1951 -0.2233  1.1888
   43CHL1   H25 3174   1.604   1.725   4.779 -2.0454  1.6092 -3.1435
   43CHL1   C26 3175   1.709   1.536   4.778  0.3886 -1.0933 -1.3970
   43CHL1  H26A 3176   1.623   1.475   4.742  0.1005 -0.9587 -0.9448
   43CHL1  H26B 3177   1.803   1.491   4.739  0.8758  0.7046 -2.3911
   43CHL1  H26C 3178   1.693   1.538   4.888  0.8888 -0.4020 -1.3328
   43CHL1   C27 3179   1.819   1.764   4.761  0.3402 -0.0553  0.0288
   43CHL1  H27A 3180   1.807   1.861   4.709  2.3427  0.3029  0.1558
   43CHL1  H27B 3181   1.824   1.766   4.872 -0.5817  0.0462  0.0719
   43CHL1  H27C 3182   1.911   1.714   4.724  0.2431  0.7877 -1.3978
   44CHL1    C3 3183   3.080   0.289   2.842  0.5870 -0.0828 -0.1697
   44CHL1    H3 3184   3.029   0.384   2.868  1.0362 -0.2298  1.3243
   44CHL1    O3 3185   3.053   0.270   2.705  0.4470  0.4588 -0.5926
   44CHL1   H3' 3186   3.130   0.223   2.671  1.2397  1.3223 -0.0460
   44CHL1    C4 3187   3.230   0.312   2.867 -0.1777 -0.6154 -0.6821
   44CHL1   H4A 3188   3.286   0.225   2.826  2.9665  1.9361 -2.2835
   44CHL1   H4B 3189   3.264   0.401   2.810  1.3092 -0.2377  0.7239
   44CHL1    C5 3190   3.258   0.338   3.014  0.2206  0.4440  0.0738
   44CHL1    C6 3191   3.306   0.462   3.056  0.2008 -0.4205  0.2353
   44CHL1    H6 3192   3.329   0.542   2.985  3.1349 -0.8593  0.5536
   44CHL1    C7 3193   3.332   0.495   3.203  0.1627  0.3188 -0.1943
   44CHL1   H7A 3194   3.427   0.546   3.226  0.0383  0.4130  0.1239
   44CHL1   H7B 3195   3.254   0.568   3.234 -0.3642  0.7326 -2.3441
   44CHL1    C8 3196   3.331   0.372   3.292 -0.0552 -0.0583 -0.4263
   44CHL1    H8 3197   3.424   0.310   3.292 -0.5160 -0.7543 -0.6155
   44CHL1   C14 3198   3.313   0.429   3.437 -0.0899  0.0489 -0.2565
   44CHL1   H14 3199   3.210   0.471   3.445 -1.4485 -3.1449  0.8666
   44CHL1   C15 3200   3.416   0.531   3.494  0.5768 -0.4228  0.8088
   44CHL1  H15A 3201   3.522   0.514   3.465  0.7732  0.1894  1.1337
   44CHL1  H15B 3202   3.400   0.632   3.450 -0.7183 -0.5573  0.9229
   44CHL1   C16 3203   3.404   0.520   3.645  0.4763 -0.4334  0.7748
   44CHL1  H16A 3204   3.509   0.500   3.673  1.6661 -1.0387 -3.4402
   44CHL1  H16B 3205   3.368   0.611   3.698  0.2748 -0.8378  1.3500
   44CHL1   C17 3206   3.303   0.405   3.671  0.4480  0.1055 -0.1979
   44CHL1   H17 3207   3.203   0.452   3.679 -0.3955 -1.3500 -1.4768
   44CHL1   C13 3208   3.301   0.325   3.547 -0.1381  0.3160  0.4781
   44CHL1   C18 3209   3.426   0.233   3.549 -0.4154 -0.0795  0.0358
   44CHL1  H18A 3210   3.467   0.191   3.455  2.6739  1.5025  0.5643
   44CHL1  H18B 3211   3.511   0.290   3.591  2.0349 -1.2068 -3.0233
   44CHL1  H18C 3212   3.405   0.143   3.612 -1.4344 -1.1799 -1.7966
   44CHL1   C12 3213   3.177   0.241   3.516  0.1713  0.0336 -0.4650
   44CHL1  H12A 3214   3.189   0.156   3.587 -0.6044 -0.3351 -0.7524
   44CHL1  H12B 3215   3.081   0.289   3.545 -0.1329 -1.4147  1.1649
   44CHL1   C11 3216   3.179   0.183   3.372  0.3328  0.8110  0.3213
   44CHL1  H11A 3217   3.259   0.107   3.363  0.7498  1.4181 -1.4939
   44CHL1  H11B 3218   3.076   0.144   3.356 -0.1914  1.7537  1.2766
   44CHL1    C9 3219   3.208   0.288   3.257 -0.4574  0.2286 -0.3999
   44CHL1    H9 3220   3.126   0.363   3.259  0.4623  1.2855  2.0473
   44CHL1   C10 3221   3.213   0.234   3.117  0.5037  0.1985  0.2781
   44CHL1   C19 3222   3.313   0.110   3.108  0.8012 -0.9994 -0.3134
   44CHL1  H19A 3223   3.322   0.070   3.004 -0.2244 -0.6705 -0.5374
   44CHL1  H19B 3224   3.415   0.141   3.139  0.3776  0.2115 -0.0950
   44CHL1  H19C 3225   3.275   0.040   3.185 -1.3924  0.2761 -0.1653
   44CHL1    C1 3226   3.069   0.176   3.076 -0.2912 -0.3600 -0.1832
   44CHL1   H1A 3227   3.051   0.078   3.125 -0.9715 -0.3945 -0.4893
   44CHL1   H1B 3228   2.994   0.242   3.124  2.4919  2.3976  0.6662
   44CHL1    C2 3229   3.042   0.163   2.922 -0.3108 -0.3242  0.6263
   44CHL1   H2A 3230   2.934   0.155   2.899  0.2904 -1.9257 -2.1362
   44CHL1   H2B 3231   3.102   0.080   2.878  1.8526  0.5143  1.8203
   44CHL1   C20 3232   3.323   0.341   3.810 -0.2895 -0.5125  0.1354
   44CHL1   H20 3233   3.412   0.274   3.809 -0.6736 -1.0745 -2.1206
   44CHL1   C21 3234   3.204   0.258   3.844 -0.3589  0.1742  0.3707
   44CHL1  H21A 3235   3.108   0.314   3.849 -0.3189  0.1748  1.2527
   44CHL1  H21B 3236   3.239   0.221   3.942  3.7888  0.7995 -0.6754
   44CHL1  H21C 3237   3.200   0.168   3.779  2.1530 -0.7444  1.3517
   44CHL1   C22 3238   3.348   0.458   3.910  0.1597  0.1587 -0.0184
   44CHL1  H22A 3239   3.447   0.505   3.890  0.9268 -1.0426  0.7846
   44CHL1  H22B 3240   3.256   0.520   3.910  0.0707  0.2006  3.3297
   44CHL1   C23 3241   3.346   0.405   4.055 -0.4516  0.1988  0.0034
   44CHL1  H23A 3242   3.242   0.389   4.090  0.3494 -0.7536  2.1407
   44CHL1  H23B 3243   3.398   0.307   4.047 -0.2990  0.2436  0.4177
   44CHL1   C24 3244   3.435   0.492   4.138  0.3562 -0.7905 -0.0785
   44CHL1  H24A 3245   3.523   0.527   4.081 -0.4436  1.2741 -0.1183
   44CHL1  H24B 3246   3.372   0.582   4.157 -0.6062 -1.2624 -0.8980
   44CHL1   C25 3247   3.447   0.445   4.285  0.6323  0.5362 -0.5585
   44CHL1   H25 3248   3.342   0.421   4.313  1.5256 -1.9960  0.8904
   44CHL1   C26 3249   3.518   0.310   4.302  0.0231  0.1836  0.2900
   44CHL1  H26A 3250   3.502   0.278   4.407  0.8530 -0.3222  0.2679
   44CHL1  H26B 3251   3.470   0.237   4.234 -0.3428  2.0338 -1.5201
   44CHL1  H26C 3252   3.624   0.314   4.271 -0.5562 -1.0615 -2.1359
   44CHL1   C27 3253   3.506   0.549   4.381  0.1427  0.4568  0.2857
   44CHL1  H27A 3254   3.473   0.531   4.485  2.1203  1.1088  1.0682
   44CHL1  H27B 3255   3.613   0.561   4.356 -0.1751 -1.5736 -2.5514
   44CHL1  H27C 3256   3.452   0.644   4.359 -1.3731 -1.0910 -3.5667
   45CHL1    C3 3257   4.651   1.837   2.565 -0.2370 -0.4197 -0.0923
   45CHL1    H3 3258   4.659   1.938   2.611  0.5554 -0.3279 -0.4103
   45CHL1    O3 3259   4.635   1.869   2.424  0.4457  0.5507 -0.2635
   45CHL1   H3' 3260   4.540   1.877   2.415  0.3846  2.7723  1.5196
   45CHL1    C4 3261   4.780   1.760   2.583 -0.0306  0.4507  0.2405
   45CHL1   H4A 3262   4.789   1.668   2.521  0.3037  0.7693 -0.1902
   45CHL1   H4B 3263   4.866   1.821   2.549 -0.6213  0.6523 -0.9058
   45CHL1    C5 3264   4.803   1.733   2.728 -0.2984  0.3092  0.3857
   45CHL1    C6 3265   4.918   1.765   2.788 -0.3695 -0.3937  0.0603
   45CHL1    H6 3266   4.998   1.810   2.727 -1.6592  0.3954 -1.1129
   45CHL1    C7 3267   4.937   1.731   2.926 -0.0880 -0.1407 -0.6388
   45CHL1   H7A 3268   5.044   1.703   2.933 -0.1781 -0.4285 -0.3902
   45CHL1   H7B 3269   4.927   1.817   2.997  0.4816  0.0692 -0.8084
   45CHL1    C8 3270   4.835   1.630   2.996 -0.6796  0.3236  0.0278
   45CHL1    H8 3271   4.862   1.529   2.956  5.0443  1.8101 -0.8232
   45CHL1   C14 3272   4.860   1.630   3.142  0.1377  1.5277  0.6953
   45CHL1   H14 3273   4.833   1.735   3.167 -1.0340  2.3880 -3.4825
   45CHL1   C15 3274   5.002   1.604   3.207 -0.2003 -0.5452  0.0431
   45CHL1  H15A 3275   5.055   1.517   3.163  1.4231  0.4731 -0.1218
   45CHL1  H15B 3276   5.061   1.698   3.203 -0.7276 -0.2208 -0.3194
   45CHL1   C16 3277   4.975   1.553   3.346  0.4865 -0.1599  0.4750
   45CHL1  H16A 3278   5.006   1.447   3.364 -0.4771 -0.4238  0.6620
   45CHL1  H16B 3279   5.025   1.608   3.429 -0.6445 -1.6842  2.2669
   45CHL1   C17 3280   4.816   1.568   3.359 -0.2426  0.9065 -0.4311
   45CHL1   H17 3281   4.810   1.676   3.381  3.8081  1.4636 -1.2235
   45CHL1   C13 3282   4.763   1.544   3.223  0.3370 -0.1327  0.2831
   45CHL1   C18 3283   4.778   1.392   3.186 -0.0788 -0.2629  0.4502
   45CHL1  H18A 3284   4.729   1.373   3.088 -0.6730 -1.1461  0.8972
   45CHL1  H18B 3285   4.881   1.355   3.167 -0.1844 -0.6607  0.6234
   45CHL1  H18C 3286   4.735   1.323   3.262 -2.1376 -1.3113 -1.5374
   45CHL1   C12 3287   4.616   1.593   3.187  0.1301 -0.6644  0.2940
   45CHL1  H12A 3288   4.530   1.535   3.227 -2.3606  3.1183  0.9873
   45CHL1  H12B 3289   4.599   1.694   3.231 -1.4153 -1.1526  0.8932
   45CHL1   C11 3290   4.586   1.598   3.037 -0.3092 -0.2355 -0.6872
   45CHL1  H11A 3291   4.575   1.490   3.011 -0.7205 -0.4214  0.2049
   45CHL1  H11B 3292   4.490   1.654   3.030 -0.1616 -0.0024 -0.8281
   45CHL1    C9 3293   4.696   1.666   2.957 -0.8047 -0.2027  0.0440
   45CHL1    H9 3294   4.691   1.773   2.986  0.5477 -0.0257 -0.3154
   45CHL1   C10 3295   4.679   1.672   2.795 -0.6225 -0.0434 -0.3843
   45CHL1   C19 3296   4.662   1.523   2.744  0.2737 -0.0351 -0.2277
   45CHL1  H19A 3297   4.743   1.459   2.784  0.6337  1.2642  1.1676
   45CHL1  H19B 3298   4.571   1.474   2.785 -0.0318  0.7914  0.1042
   45CHL1  H19C 3299   4.656   1.523   2.633  0.8586 -1.7578 -0.2962
   45CHL1    C1 3300   4.547   1.761   2.772 -0.1489  0.0247  0.2850
   45CHL1   H1A 3301   4.451   1.717   2.808  0.4027 -0.3080  1.3690
   45CHL1   H1B 3302   4.557   1.866   2.807 -0.3535  1.0556 -2.4402
   45CHL1    C2 3303   4.525   1.774   2.619 -0.0008  0.0963 -0.4878
   45CHL1   H2A 3304   4.438   1.839   2.593  1.3780  1.1196 -2.9461
   45CHL1   H2B 3305   4.508   1.674   2.574 -0.6545  0.9772 -2.3243
   45CHL1   C20 3306   4.757   1.488   3.476 -0.5135  0.1846  0.2267
   45CHL1   H20 3307   4.766   1.379   3.455 -1.8646 -0.3963  2.4062
   45CHL1   C21 3308   4.608   1.510   3.489  0.4366  0.3890 -0.3034
   45CHL1  H21A 3309   4.548   1.460   3.410  1.9410  0.4837 -1.5602
   45CHL1  H21B 3310   4.587   1.619   3.480 -1.8728 -0.0974 -1.2814
   45CHL1  H21C 3311   4.577   1.465   3.586 -0.1561 -1.1013 -1.1636
   45CHL1   C22 3312   4.830   1.517   3.602 -0.1986  0.6909  0.1553
   45CHL1  H22A 3313   4.786   1.443   3.672 -0.6085  0.4734 -0.3243
   45CHL1  H22B 3314   4.936   1.484   3.601  0.1250  1.7055 -0.2657
   45CHL1   C23 3315   4.812   1.655   3.664  0.7562  0.1302  0.0058
   45CHL1  H23A 3316   4.840   1.721   3.580  2.7328 -0.8310 -0.1714
   45CHL1  H23B 3317   4.705   1.673   3.689  0.0432 -0.5191 -2.3668
   45CHL1   C24 3318   4.911   1.671   3.783  0.3277 -0.0426 -0.3578
   45CHL1  H24A 3319   4.883   1.587   3.850  1.6067  0.7472  1.2353
   45CHL1  H24B 3320   5.013   1.659   3.741  0.9512  1.6235  0.5940
   45CHL1   C25 3321   4.897   1.801   3.864  0.7279  0.1944  0.1117
   45CHL1   H25 3322   4.786   1.809   3.874  0.7183 -0.5267  0.5811
   45CHL1   C26 3323   4.965   1.794   4.003  0.6321  0.1966  0.2948
   45CHL1  H26A 3324   4.957   1.896   4.046 -0.8637  1.0189 -1.7432
   45CHL1  H26B 3325   4.926   1.713   4.069  0.2333  0.0434 -0.1193
   45CHL1  H26C 3326   5.071   1.765   3.987  0.3113 -1.2632  0.6593
   45CHL1   C27 3327   4.953   1.921   3.789 -0.0991 -0.0498  0.6097
   45CHL1  H27A 3328   4.929   1.927   3.680  0.2572  1.8040  0.6045
   45CHL1  H27B 3329   4.936   2.010   3.853  3.4853  0.3742  1.2023
   45CHL1  H27C 3330   5.061   1.905   3.766 -0.6212 -1.9906 -0.8241
   46CHL1    C3 3331   2.109   2.026   3.141 -0.1873  0.2445  0.1664
   46CHL1    H3 3332   2.210   1.987   3.167 -0.5993  0.8810  3.0670
   46CHL1    O3 3333   2.091   1.987   3.006  0.0171 -0.4915  0.0350
   46CHL1   H3' 3334   2.015   2.039   2.980 -1.4995 -1.5086  2.1015
   46CHL1    C4 3335   2.012   1.963   3.239  0.6750 -0.0895 -0.4568
   46CHL1   H4A 3336   1.908   1.984   3.204 -0.8402 -1.6203  2.7151
   46CHL1   H4B 3337   2.010   1.852   3.236 -0.8983 -0.1354  0.6973
   46CHL1    C5 3338   2.042   2.014   3.380 -0.3091 -0.6706 -0.5610
   46CHL1    C6 3339   2.066   1.923   3.477 -0.0216  0.3802  0.5676
   46CHL1    H6 3340   2.065   1.815   3.452  0.7779  0.7417 -1.1738
   46CHL1    C7 3341   2.089   1.962   3.614 -0.0894  0.5100  0.0636
   46CHL1   H7A 3342   2.050   1.887   3.686 -0.6585 -0.4003 -1.1722
   46CHL1   H7B 3343   2.200   1.966   3.618 -0.0936  0.3197  0.4164
   46CHL1    C8 3344   2.038   2.097   3.653  0.1768 -0.1608 -0.2004
   46CHL1    H8 3345   1.927   2.099   3.665  0.1994  1.1967 -0.0777
   46CHL1   C14 3346   2.095   2.144   3.784 -0.0582 -0.6595 -0.2252
   46CHL1   H14 3347   2.204   2.161   3.775 -0.0845 -1.0772 -1.5570
   46CHL1   C15 3348   2.065   2.044   3.898 -0.4439  0.7150  0.1311
   46CHL1  H15A 3349   1.960   2.015   3.878 -1.4102  2.8935  1.7255
   46CHL1  H15B 3350   2.127   1.952   3.887  0.8919  1.4823  0.9583
   46CHL1   C16 3351   2.072   2.123   4.025  0.6013 -0.5471 -0.5701
   46CHL1  H16A 3352   1.971   2.116   4.072  0.8190 -0.7405 -0.1277
   46CHL1  H16B 3353   2.156   2.082   4.084  0.2247  0.3679  0.6473
   46CHL1   C17 3354   2.090   2.269   3.979 -0.1562 -0.2638  0.6126
   46CHL1   H17 3355   2.200   2.286   3.975 -0.4044  1.8278  1.2513
   46CHL1   C13 3356   2.039   2.274   3.830 -0.0456  0.7132 -0.8374
   46CHL1   C18 3357   1.888   2.267   3.850 -0.3496 -0.3627  0.2484
   46CHL1  H18A 3358   1.853   2.362   3.895 -0.5320  0.4724 -1.5585
   46CHL1  H18B 3359   1.837   2.259   3.751  0.9206  0.6767 -0.5239
   46CHL1  H18C 3360   1.849   2.187   3.915 -1.3117  0.1542  0.3246
   46CHL1   C12 3361   2.099   2.377   3.731  0.7045 -0.3492 -0.1305
   46CHL1  H12A 3362   2.079   2.480   3.766 -0.5312 -0.9014  0.8602
   46CHL1  H12B 3363   2.210   2.374   3.724  0.7468 -1.1047  0.7238
   46CHL1   C11 3364   2.049   2.347   3.593  0.0882  0.2215  0.3957
   46CHL1  H11A 3365   1.941   2.371   3.593 -0.1329 -0.7207  0.1487
   46CHL1  H11B 3366   2.104   2.420   3.530  2.7225 -2.5947 -0.8494
   46CHL1    C9 3367   2.081   2.202   3.543  0.2526  0.1179 -0.4284
   46CHL1    H9 3368   2.191   2.192   3.540  0.1313 -1.2859 -1.4441
   46CHL1   C10 3369   2.031   2.166   3.400  0.0824 -0.0619 -0.1896
   46CHL1   C19 3370   1.882   2.211   3.386  0.0532 -1.1421  0.0584
   46CHL1  H19A 3371   1.829   2.180   3.293  0.3162 -0.8432 -0.1895
   46CHL1  H19B 3372   1.815   2.164   3.461  0.4991 -0.7698  0.6971
   46CHL1  H19C 3373   1.864   2.320   3.389 -0.7166 -1.1793 -1.7655
   46CHL1    C1 3374   2.123   2.235   3.293  0.7408 -0.0377  0.1630
   46CHL1   H1A 3375   2.117   2.346   3.289  1.7653  0.0629  1.0019
   46CHL1   H1B 3376   2.228   2.223   3.327  0.0696 -0.1802  2.3217
   46CHL1    C2 3377   2.110   2.180   3.149 -0.5919  0.2871  0.1830
   46CHL1   H2A 3378   2.201   2.215   3.096 -0.3249 -2.0727 -1.0377
   46CHL1   H2B 3379   2.018   2.225   3.105 -0.6470  1.3671  1.3460
   46CHL1   C20 3380   2.043   2.364   4.084  0.2661 -0.3836  0.5765
   46CHL1   H20 3381   1.935   2.350   4.103 -0.2127 -1.0122 -2.1591
   46CHL1   C21 3382   2.056   2.510   4.034  0.3357 -0.2552  0.3613
   46CHL1  H21A 3383   2.160   2.532   4.003  0.1228  3.1643  1.5934
   46CHL1  H21B 3384   2.026   2.587   4.109 -0.1572  2.0588 -2.0560
   46CHL1  H21C 3385   1.988   2.526   3.947 -1.2973 -2.1449  1.2041
   46CHL1   C22 3386   2.111   2.340   4.219  0.5938 -0.1919 -0.9508
   46CHL1  H22A 3387   2.125   2.232   4.241  2.8334  0.2040 -0.1906
   46CHL1  H22B 3388   2.207   2.396   4.221 -0.0549  0.9323 -0.9665
   46CHL1   C23 3389   2.028   2.378   4.337  0.1956 -0.9644 -0.2332
   46CHL1  H23A 3390   2.019   2.489   4.347 -0.5134 -1.0475  0.1360
   46CHL1  H23B 3391   1.922   2.344   4.337 -1.1267  2.6223 -0.8486
   46CHL1   C24 3392   2.094   2.322   4.467 -0.4012 -0.2055  0.7373
   46CHL1  H24A 3393   2.116   2.215   4.450 -0.0728  0.3853 -3.5752
   46CHL1  H24B 3394   2.190   2.378   4.477 -1.1397  1.0414  1.1182
   46CHL1   C25 3395   2.033   2.329   4.602 -0.0942  0.4947 -0.3611
   46CHL1   H25 3396   2.027   2.439   4.619 -0.8967  0.2042  1.4445
   46CHL1   C26 3397   1.909   2.243   4.612  0.1665 -0.1014  0.2079
   46CHL1  H26A 3398   1.835   2.283   4.540  0.8900 -0.2078 -0.6118
   46CHL1  H26B 3399   1.938   2.139   4.586  2.0045  0.2965  0.5104
   46CHL1  H26C 3400   1.879   2.240   4.719  0.9495  0.5652  0.4633
   46CHL1   C27 3401   2.125   2.282   4.722  0.1426 -0.3886 -0.2819
   46CHL1  H27A 3402   2.078   2.309   4.819  1.4216  0.6874  0.0753
   46CHL1  H27B 3403   2.137   2.171   4.720 -1.9304 -0.7008  1.3245
   46CHL1  H27C 3404   2.227   2.326   4.720  0.8354 -1.8739  0.2678
   47CHL1    C3 3405   0.309   3.246   3.035  0.6051 -0.0274 -0.8349
   47CHL1    H3 3406   0.402   3.305   3.055 -0.7624  2.7943 -2.3087
   47CHL1    O3 3407   0.330   3.215   2.902  0.0318 -0.0594 -0.3073
   47CHL1   H3' 3408   0.244   3.188   2.869  0.7140 -0.2155 -2.0566
   47CHL1    C4 3409   0.290   3.120   3.115 -0.0038 -0.1852  0.1264
   47CHL1   H4A 3410   0.198   3.064   3.087 -0.5513 -0.2134  1.8710
   47CHL1   H4B 3411   0.374   3.057   3.080 -0.0359 -0.0904 -0.1281
   47CHL1    C5 3412   0.277   3.166   3.261  0.5907 -0.1783  0.6420
   47CHL1    C6 3413   0.373   3.134   3.350  0.1382  0.4173  0.0465
   47CHL1    H6 3414   0.458   3.077   3.310  1.0909  1.3774  0.6560
   47CHL1    C7 3415   0.376   3.174   3.499 -0.8845  0.6139  0.3799
   47CHL1   H7A 3416   0.402   3.089   3.565 -0.5550  0.8853  0.6037
   47CHL1   H7B 3417   0.467   3.238   3.507 -0.4627  0.0174  0.4322
   47CHL1    C8 3418   0.236   3.240   3.538 -0.2271  0.0945 -0.2878
   47CHL1    H8 3419   0.155   3.164   3.548 -1.9867  1.6578 -2.0605
   47CHL1   C14 3420   0.252   3.299   3.682  0.3932  0.0762  0.0114
   47CHL1   H14 3421   0.329   3.378   3.665  0.4248  0.2950  1.0889
   47CHL1   C15 3422   0.296   3.214   3.798  0.4851  0.7422 -0.2381
   47CHL1  H15A 3423   0.221   3.134   3.818 -2.2127  1.7929 -4.5970
   47CHL1  H15B 3424   0.393   3.160   3.797 -0.6410 -1.4485  0.3618
   47CHL1   C16 3425   0.287   3.310   3.920 -0.6946  0.5411  0.4217
   47CHL1  H16A 3426   0.223   3.265   3.998 -1.3014 -0.4840 -0.6306
   47CHL1  H16B 3427   0.372   3.368   3.962 -0.4874  0.3762  0.2375
   47CHL1   C17 3428   0.199   3.437   3.868  0.7548  0.1675  0.2978
   47CHL1   H17 3429   0.286   3.503   3.845  0.5067  0.8598  1.2924
   47CHL1   C13 3430   0.142   3.389   3.736  0.1499 -0.5814 -0.2810
   47CHL1   C18 3431   0.012   3.296   3.755  0.3622  0.0602  0.1357
   47CHL1  H18A 3432  -0.016   3.249   3.658  0.1947 -2.4077  1.2875
   47CHL1  H18B 3433   0.029   3.214   3.828 -0.5909 -0.9375 -0.7206
   47CHL1  H18C 3434  -0.068   3.357   3.800  1.3005  1.2934  0.1881
   47CHL1   C12 3435   0.126   3.503   3.634 -0.2070  0.4211 -0.1096
   47CHL1  H12A 3436   0.027   3.548   3.655 -1.8781 -2.4341 -1.3626
   47CHL1  H12B 3437   0.206   3.581   3.627 -1.4923  1.6606 -1.5882
   47CHL1   C11 3438   0.102   3.452   3.487  0.0250 -0.3613 -0.4893
   47CHL1  H11A 3439  -0.005   3.423   3.493 -2.2646  6.5509  1.2912
   47CHL1  H11B 3440   0.102   3.546   3.428 -1.1623 -0.0982 -0.1023
   47CHL1    C9 3441   0.207   3.346   3.436  0.4456  0.1999  0.6076
   47CHL1    H9 3442   0.304   3.400   3.428  0.4395  0.2417  0.8169
   47CHL1   C10 3443   0.173   3.275   3.295 -0.8755  0.1253 -0.0641
   47CHL1   C19 3444   0.029   3.212   3.306  1.0763  0.0462 -0.0673
   47CHL1  H19A 3445  -0.001   3.153   3.217  1.7243  0.3763 -0.5049
   47CHL1  H19B 3446   0.021   3.148   3.397  0.0647  0.1191 -0.0870
   47CHL1  H19C 3447  -0.041   3.298   3.320 -0.5811 -1.1908 -0.4562
   47CHL1    C1 3448   0.186   3.388   3.186  0.0040  0.0205 -0.1801
   47CHL1   H1A 3449   0.098   3.453   3.207  1.8942  2.1252  1.8160
   47CHL1   H1B 3450   0.276   3.450   3.207 -0.8783  1.9294 -1.6315
   47CHL1    C2 3451   0.183   3.331   3.050  0.5439  0.1896 -0.3514
   47CHL1   H2A 3452   0.174   3.417   2.981  3.6743 -0.2675 -1.4388
   47CHL1   H2B 3453   0.087   3.276   3.042  1.1148 -1.0433  0.8360
   47CHL1   C20 3454   0.109   3.499   3.976 -0.3437  0.2750 -0.0412
   47CHL1   H20 3455   0.027   3.429   4.003 -0.9776  0.6583 -0.9116
   47CHL1   C21 3456   0.025   3.622   3.924 -0.2181  0.3637 -0.5643
   47CHL1  H21A 3457  -0.052   3.648   4.000 -0.8102 -0.8937 -0.7015
   47CHL1  H21B 3458  -0.035   3.587   3.837 -0.1545  0.6842 -0.7428
   47CHL1  H21C 3459   0.090   3.703   3.884  0.9628  0.5639  1.6123
   47CHL1   C22 3460   0.190   3.527   4.112  0.3220 -0.0618 -0.3115
   47CHL1  H22A 3461   0.215   3.425   4.148 -0.5772 -0.4093 -0.6318
   47CHL1  H22B 3462   0.284   3.578   4.082 -0.0271  0.2232 -0.9556
   47CHL1   C23 3463   0.120   3.605   4.222 -0.0247  0.1698 -0.9097
   47CHL1  H23A 3464   0.115   3.709   4.182 -1.4708  0.6084  0.3233
   47CHL1  H23B 3465   0.013   3.588   4.244 -0.5599  2.2813 -1.6195
   47CHL1   C24 3466   0.200   3.602   4.354  0.6381 -0.0594  0.7132
   47CHL1  H24A 3467   0.197   3.492   4.373 -1.1257 -0.2389 -0.3442
   47CHL1  H24B 3468   0.303   3.637   4.338  0.5463  0.9662  2.1902
   47CHL1   C25 3469   0.131   3.669   4.467  0.6397 -0.3418 -0.1035
   47CHL1   H25 3470   0.035   3.615   4.473  0.5784 -0.8240 -3.5520
   47CHL1   C26 3471   0.217   3.651   4.593  0.1044  0.4213  0.5260
   47CHL1  H26A 3472   0.213   3.542   4.613 -1.6370  0.8555  3.0160
   47CHL1  H26B 3473   0.319   3.692   4.574 -0.8439  1.7879 -2.1295
   47CHL1  H26C 3474   0.161   3.698   4.676 -0.5000 -2.0166  1.5851
   47CHL1   C27 3475   0.111   3.813   4.445  0.2147 -0.3154  0.5709
   47CHL1  H27A 3476   0.045   3.835   4.359  0.3178  1.0051  0.8055
   47CHL1  H27B 3477   0.058   3.850   4.535  0.6535 -1.1297  1.1774
   47CHL1  H27C 3478   0.202   3.876   4.429 -1.3897  1.7891 -0.7390
   48CHL1    C3 3479   6.570   5.719   2.958  0.7055  0.2321 -0.8856
   48CHL1    H3 3480   6.630   5.810   2.981  1.1286 -0.1549 -0.4166
   48CHL1    O3 3481   6.534   5.705   2.820  0.2071  0.6751  0.8266
   48CHL1   H3' 3482   6.460   5.643   2.817  0.5310  0.1952  2.3005
   48CHL1    C4 3483   6.646   5.592   3.000  0.6839 -0.7156 -0.0063
   48CHL1   H4A 3484   6.583   5.501   2.990  1.1443 -1.1871  1.1350
   48CHL1   H4B 3485   6.741   5.593   2.941 -0.3216  0.4025 -1.6912
   48CHL1    C5 3486   6.682   5.607   3.147 -0.4192 -0.8657  0.8848
   48CHL1    C6 3487   6.811   5.619   3.186 -0.2069 -1.0189  0.2199
   48CHL1    H6 3488   6.889   5.616   3.109  2.2261 -0.5640  2.5216
   48CHL1    C7 3489   6.854   5.620   3.332 -0.3600  0.1068 -0.1950
   48CHL1   H7A 3490   6.952   5.573   3.351  0.0293  1.5209  1.7167
   48CHL1   H7B 3491   6.873   5.728   3.353  0.2171 -0.0435  0.0661
   48CHL1    C8 3492   6.736   5.575   3.426  0.0736 -0.4826  0.2951
   48CHL1    H8 3493   6.723   5.465   3.415  1.0774 -0.6133  0.3470
   48CHL1   C14 3494   6.775   5.590   3.568 -0.0815 -0.4862 -0.2742
   48CHL1   H14 3495   6.800   5.698   3.576  1.4879 -0.7480 -1.3471
   48CHL1   C15 3496   6.894   5.529   3.622 -0.3291  0.0160 -0.0529
   48CHL1  H15A 3497   6.916   5.431   3.575 -0.4590  0.0468 -0.1801
   48CHL1  H15B 3498   6.983   5.596   3.615  0.4144 -0.8944  0.5622
   48CHL1   C16 3499   6.877   5.519   3.769  0.1262  0.0300  0.1736
   48CHL1  H16A 3500   6.864   5.412   3.797  0.6510  0.3880  1.8937
   48CHL1  H16B 3501   6.955   5.566   3.832  1.2810 -0.5788 -0.7644
   48CHL1   C17 3502   6.738   5.583   3.788  0.6692 -0.3376 -0.1920
   48CHL1   H17 3503   6.759   5.692   3.794  0.1787 -0.3192  2.0449
   48CHL1   C13 3504   6.661   5.565   3.665 -0.9822  0.4530 -0.1136
   48CHL1   C18 3505   6.616   5.420   3.643 -0.2834 -0.8652 -0.3126
   48CHL1  H18A 3506   6.575   5.404   3.541 -0.0729 -1.1567 -0.3533
   48CHL1  H18B 3507   6.697   5.348   3.668 -0.5480 -0.7355  1.0135
   48CHL1  H18C 3508   6.536   5.395   3.716 -1.8194  1.1563 -1.2074
   48CHL1   C12 3509   6.549   5.667   3.643  0.3577  0.3142  0.0798
   48CHL1  H12A 3510   6.465   5.662   3.715  0.3566 -0.5439  0.0381
   48CHL1  H12B 3511   6.587   5.771   3.642 -1.2465  0.9496 -2.2882
   48CHL1   C11 3512   6.493   5.638   3.502 -0.1651 -0.0318  0.5148
   48CHL1  H11A 3513   6.435   5.544   3.492 -0.7350  0.4770 -1.3782
   48CHL1  H11B 3514   6.422   5.722   3.489  0.0537 -0.0770 -1.1539
   48CHL1    C9 3515   6.606   5.647   3.390  0.1328  0.6097  0.1546
   48CHL1    H9 3516   6.628   5.755   3.386  0.3307  0.5233 -2.2444
   48CHL1   C10 3517   6.565   5.620   3.245  0.6482 -0.4542 -0.7014
   48CHL1   C19 3518   6.486   5.486   3.246 -0.7035 -0.4634  0.3078
   48CHL1  H19A 3519   6.547   5.405   3.293 -0.1581  1.0130  2.2802
   48CHL1  H19B 3520   6.395   5.495   3.310 -0.9779 -0.4711 -0.0800
   48CHL1  H19C 3521   6.448   5.465   3.144  0.8179 -2.0888  0.0301
   48CHL1    C1 3522   6.476   5.736   3.193  0.3229 -0.1211  0.2905
   48CHL1   H1A 3523   6.378   5.743   3.245  0.0296 -0.0560 -0.2715
   48CHL1   H1B 3524   6.535   5.826   3.223 -0.1705  0.3335 -0.1075
   48CHL1    C2 3525   6.445   5.733   3.041  0.2633 -0.1497 -0.7274
   48CHL1   H2A 3526   6.383   5.821   3.012 -2.5918 -2.3020 -1.7134
   48CHL1   H2B 3527   6.386   5.641   3.018  0.2774 -0.3088 -0.1415
   48CHL1   C20 3528   6.670   5.544   3.918  0.5769 -0.6157  0.4182
   48CHL1   H20 3529   6.614   5.449   3.903  2.6194 -1.9919  1.0542
   48CHL1   C21 3530   6.598   5.662   3.989 -0.0837 -0.3174 -0.1727
   48CHL1  H21A 3531   6.535   5.714   3.913  0.8828  0.6522 -0.3337
   48CHL1  H21B 3532   6.669   5.740   4.022 -0.3818  0.5874 -1.6036
   48CHL1  H21C 3533   6.530   5.618   4.064 -0.6463 -0.7333 -0.9103
   48CHL1   C22 3534   6.778   5.495   4.024 -0.3104  0.2661 -0.2492
   48CHL1  H22A 3535   6.831   5.404   3.989 -1.5080 -0.3083 -0.6185
   48CHL1  H22B 3536   6.864   5.564   4.038  0.3637 -0.9445  2.0065
   48CHL1   C23 3537   6.722   5.461   4.162  0.0143 -0.5740 -0.4893
   48CHL1  H23A 3538   6.679   5.546   4.220 -0.1365 -1.0559  0.1091
   48CHL1  H23B 3539   6.629   5.404   4.142  0.4538 -1.7064  0.5534
   48CHL1   C24 3540   6.811   5.382   4.257 -0.6710  0.0815 -0.2800
   48CHL1  H24A 3541   6.767   5.381   4.359 -1.2366  0.8603 -0.5087
   48CHL1  H24B 3542   6.853   5.284   4.224  1.0687  1.9773 -4.3895
   48CHL1   C25 3543   6.949   5.447   4.301 -0.4719  0.0542 -0.3814
   48CHL1   H25 3544   7.021   5.459   4.217  0.2749  0.8311  0.3441
   48CHL1   C26 3545   6.918   5.588   4.369 -0.3688  0.0235 -0.1247
   48CHL1  H26A 3546   6.836   5.573   4.442  0.8754  0.9788  1.5490
   48CHL1  H26B 3547   7.006   5.628   4.423  1.1960 -3.1689 -0.0752
   48CHL1  H26C 3548   6.882   5.652   4.286 -0.4876  0.7953  0.5107
   48CHL1   C27 3549   7.025   5.357   4.403  0.6926  0.4711 -0.0639
   48CHL1  H27A 3550   7.125   5.396   4.433  0.3628  1.0448  0.3017
   48CHL1  H27B 3551   6.961   5.330   4.490 -0.6022 -2.3531 -1.7249
   48CHL1  H27C 3552   7.053   5.261   4.354  0.1847  0.6401 -0.7032
   49CHL1    C3 3553   4.712   3.016   2.541  0.1858 -0.5806  0.4134
   49CHL1    H3 3554   4.632   3.093   2.551  1.5492  0.6440  2.7202
   49CHL1    O3 3555   4.745   3.003   2.404  0.1678 -0.5681  0.0296
   49CHL1   H3' 3556   4.753   3.094   2.374  0.5582  0.1438  2.1402
   49CHL1    C4 3557   4.831   3.049   2.632 -0.7339  0.3297  0.3159
   49CHL1   H4A 3558   4.923   2.987   2.624  0.4583  1.9889  0.6723
   49CHL1   H4B 3559   4.870   3.146   2.597 -1.0478  1.3997  2.7393
   49CHL1    C5 3560   4.777   3.060   2.772 -0.0265  0.3449 -0.8067
   49CHL1    C6 3561   4.799   3.172   2.846  0.5003  0.4332  0.2108
   49CHL1    H6 3562   4.852   3.252   2.792  2.8447  0.8833  2.9439
   49CHL1    C7 3563   4.744   3.197   2.984 -0.0650  0.8449  0.0757
   49CHL1   H7A 3564   4.819   3.261   3.036  0.4974  0.6608 -0.4989
   49CHL1   H7B 3565   4.645   3.248   2.984 -1.2289 -1.2444  1.7842
   49CHL1    C8 3566   4.725   3.054   3.058  0.0566  0.3270 -0.2672
   49CHL1    H8 3567   4.831   3.027   3.074 -0.2825 -0.1541  1.3237
   49CHL1   C14 3568   4.652   3.077   3.185 -0.5200  0.1931 -0.4906
   49CHL1   H14 3569   4.547   3.093   3.152 -0.3779 -2.0357 -2.2896
   49CHL1   C15 3570   4.690   3.193   3.278  0.1713  0.4079 -0.2840
   49CHL1  H15A 3571   4.800   3.189   3.288  0.2598  1.6908 -0.6232
   49CHL1  H15B 3572   4.656   3.292   3.242 -0.8490  0.9186  1.9321
   49CHL1   C16 3573   4.631   3.156   3.410  0.5039 -0.1667 -0.0463
   49CHL1  H16A 3574   4.707   3.151   3.491  2.2045  0.5898 -1.5379
   49CHL1  H16B 3575   4.543   3.221   3.433  0.5516  0.7507 -2.2574
   49CHL1   C17 3576   4.569   3.008   3.400  0.0257  0.0385  0.8090
   49CHL1   H17 3577   4.463   3.026   3.371 -0.4226 -1.8547  1.1499
   49CHL1   C13 3578   4.637   2.953   3.272  0.3293  0.6300 -0.6290
   49CHL1   C18 3579   4.775   2.886   3.318  0.3284  0.0400  0.2317
   49CHL1  H18A 3580   4.750   2.782   3.348 -1.1334 -0.1177 -1.3444
   49CHL1  H18B 3581   4.835   2.876   3.225 -1.9897 -0.8788 -1.2797
   49CHL1  H18C 3582   4.831   2.939   3.398  0.8062 -0.1439  0.0200
   49CHL1   C12 3583   4.548   2.859   3.193 -0.4118 -0.5440  0.1830
   49CHL1  H12A 3584   4.522   2.760   3.237  1.7317 -1.1163  0.2669
   49CHL1  H12B 3585   4.454   2.909   3.162  0.2813  0.4443 -0.3702
   49CHL1   C11 3586   4.611   2.830   3.054  0.8346  0.3959  0.1483
   49CHL1  H11A 3587   4.709   2.787   3.083  0.9098  1.4566  1.5518
   49CHL1  H11B 3588   4.551   2.761   2.991  0.4847  1.7363 -1.0359
   49CHL1    C9 3589   4.643   2.959   2.972  0.5988  1.1288 -0.7707
   49CHL1    H9 3590   4.542   3.003   2.955  0.1424 -0.5252 -2.6906
   49CHL1   C10 3591   4.703   2.939   2.830 -0.5310 -0.6418 -0.0345
   49CHL1   C19 3592   4.811   2.819   2.847 -0.5505  0.4094  0.3006
   49CHL1  H19A 3593   4.864   2.795   2.752  1.4526  0.9378  1.2460
   49CHL1  H19B 3594   4.892   2.845   2.919 -0.1288 -0.9094  0.3231
   49CHL1  H19C 3595   4.759   2.729   2.886 -1.1920 -0.4721 -2.3317
   49CHL1    C1 3596   4.599   2.902   2.724 -0.2396  0.8452 -0.2265
   49CHL1   H1A 3597   4.563   2.802   2.758 -0.0621  0.5137 -0.9782
   49CHL1   H1B 3598   4.517   2.976   2.726 -0.8003  0.2426 -0.4093
   49CHL1    C2 3599   4.654   2.877   2.583 -0.0765 -0.3474 -0.5631
   49CHL1   H2A 3600   4.578   2.859   2.504  1.7934  0.4577 -2.6295
   49CHL1   H2B 3601   4.733   2.800   2.569 -0.3990 -0.5244 -1.4286
   49CHL1   C20 3602   4.573   2.939   3.533  0.0958 -0.3694  0.0989
   49CHL1   H20 3603   4.669   2.893   3.564  0.4586  0.6406  0.5035
   49CHL1   C21 3604   4.471   2.821   3.527  0.1975 -0.2725 -0.0807
   49CHL1  H21A 3605   4.480   2.745   3.608 -1.4726  1.1847  1.5526
   49CHL1  H21B 3606   4.470   2.772   3.427  0.4539 -0.4653  0.0092
   49CHL1  H21C 3607   4.369   2.861   3.542  0.6065  0.8162 -0.0841
   49CHL1   C22 3608   4.532   3.026   3.660 -0.6653  0.2301 -0.2447
   49CHL1  H22A 3609   4.586   3.123   3.660 -3.2830  1.7896 -1.2187
   49CHL1  H22B 3610   4.423   3.045   3.664 -0.6499  0.4494 -0.8436
   49CHL1   C23 3611   4.572   2.969   3.790  0.1924 -0.3613 -0.1341
   49CHL1  H23A 3612   4.503   2.888   3.822 -0.1300  0.2797  0.8276
   49CHL1  H23B 3613   4.671   2.920   3.794  0.3291 -0.0235  1.1409
   49CHL1   C24 3614   4.554   3.073   3.905  0.8664 -0.0631 -0.6211
   49CHL1  H24A 3615   4.641   3.140   3.920 -0.8126  1.4324  4.1427
   49CHL1  H24B 3616   4.464   3.129   3.872 -0.4361 -2.4083 -1.2666
   49CHL1   C25 3617   4.517   3.014   4.048  0.1638 -0.0068 -0.4035
   49CHL1   H25 3618   4.579   2.925   4.070 -1.4976 -0.5945  2.4060
   49CHL1   C26 3619   4.535   3.134   4.150 -0.1327  0.2371  0.1804
   49CHL1  H26A 3620   4.505   3.092   4.249  0.3097  1.8680  1.0429
   49CHL1  H26B 3621   4.641   3.166   4.151 -0.6960  2.3115 -0.9363
   49CHL1  H26C 3622   4.469   3.219   4.124  0.0884  0.3371 -0.0552
   49CHL1   C27 3623   4.367   2.964   4.058  0.5949  0.3727 -0.0386
   49CHL1  H27A 3624   4.357   2.869   4.001  2.3062  0.5312 -0.6574
   49CHL1  H27B 3625   4.335   2.955   4.164  0.8890 -3.0321 -0.1412
   49CHL1  H27C 3626   4.292   3.038   4.022 -1.2575 -1.2322  0.4002
   50CHL1    C3 3627   3.082   3.297   2.654  0.1961 -0.1559 -0.1753
   50CHL1    H3 3628   2.971   3.303   2.647  0.0484 -0.3580  1.7265
   50CHL1    O3 3629   3.133   3.298   2.518  0.5325  0.1862 -0.5405
   50CHL1   H3' 3630   3.114   3.212   2.480  0.4846 -0.7752  1.5452
   50CHL1    C4 3631   3.135   3.418   2.728  0.4443  0.3899  0.6161
   50CHL1   H4A 3632   3.243   3.431   2.705  0.4993  1.7993  1.5476
   50CHL1   H4B 3633   3.083   3.509   2.693 -2.2532 -1.3043 -0.1148
   50CHL1    C5 3634   3.109   3.419   2.878 -0.2681  0.7770  0.0876
   50CHL1    C6 3635   3.056   3.527   2.939 -0.5664 -0.1539  0.2824
   50CHL1    H6 3636   3.035   3.619   2.883  2.3549  1.1091  1.0912
   50CHL1    C7 3637   3.027   3.526   3.086  0.1493 -0.4890 -0.2794
   50CHL1   H7A 3638   3.042   3.629   3.124 -1.8599 -0.7182  1.3668
   50CHL1   H7B 3639   2.917   3.517   3.099  0.0725  0.1054 -0.4851
   50CHL1    C8 3640   3.117   3.421   3.155 -0.0133 -0.4850  0.3478
   50CHL1    H8 3641   3.222   3.456   3.147 -0.0197 -0.8346 -1.7520
   50CHL1   C14 3642   3.079   3.416   3.302  0.2538 -0.2799  0.3324
   50CHL1   H14 3643   2.974   3.380   3.308  0.5684 -1.0342  2.1813
   50CHL1   C15 3644   3.080   3.549   3.382 -0.3258  0.7074  0.3097
   50CHL1  H15A 3645   3.182   3.589   3.364  0.3579 -0.6267  1.0560
   50CHL1  H15B 3646   3.005   3.624   3.351 -1.5989 -0.5823  0.1389
   50CHL1   C16 3647   3.068   3.498   3.524  0.2065  0.1221  0.2672
   50CHL1  H16A 3648   3.134   3.557   3.592 -0.0618  1.2452 -0.4428
   50CHL1  H16B 3649   2.965   3.523   3.556  0.0371 -0.3986  0.1394
   50CHL1   C17 3650   3.082   3.343   3.527 -0.6493 -0.0307  0.0320
   50CHL1   H17 3651   2.980   3.303   3.543 -1.3050  1.9073  0.9802
   50CHL1   C13 3652   3.143   3.305   3.388 -0.1482  0.4985 -0.5080
   50CHL1   C18 3653   3.301   3.334   3.392 -0.0393  0.2257  0.2456
   50CHL1  H18A 3654   3.356   3.255   3.448  3.5920  0.5416 -2.5302
   50CHL1  H18B 3655   3.351   3.318   3.295 -1.0870 -2.9079  0.1347
   50CHL1  H18C 3656   3.331   3.435   3.427  1.8099 -0.2847  0.2216
   50CHL1   C12 3657   3.115   3.169   3.326  0.3705  0.4908  0.5146
   50CHL1  H12A 3658   3.172   3.089   3.377  1.2807 -0.3436 -1.7055
   50CHL1  H12B 3659   3.007   3.144   3.341  0.3409 -1.3157 -2.1008
   50CHL1   C11 3660   3.151   3.159   3.177  0.0104 -0.2991 -0.4992
   50CHL1  H11A 3661   3.262   3.158   3.172  0.0294 -0.3945 -0.0559
   50CHL1  H11B 3662   3.118   3.066   3.125  0.6763  0.5456 -2.5553
   50CHL1    C9 3663   3.101   3.282   3.096  0.1882  0.4752  0.5920
   50CHL1    H9 3664   2.991   3.272   3.086  0.2831  1.1841 -1.7911
   50CHL1   C10 3665   3.144   3.287   2.948  0.3855 -0.5517 -0.4940
   50CHL1   C19 3666   3.301   3.269   2.950  0.2294  0.6534 -0.4203
   50CHL1  H19A 3667   3.319   3.161   2.969  0.9154  0.7288 -0.6106
   50CHL1  H19B 3668   3.333   3.287   2.845 -1.2398 -0.0342 -1.0146
   50CHL1  H19C 3669   3.358   3.336   3.018  0.7480 -2.2217  2.1817
   50CHL1    C1 3670   3.071   3.164   2.865  1.0987  0.1010 -0.1515
   50CHL1   H1A 3671   3.099   3.061   2.898 -0.4624 -0.3126 -0.0411
   50CHL1   H1B 3672   2.960   3.169   2.868  1.1381  1.0754 -0.1653
   50CHL1    C2 3673   3.118   3.164   2.717 -0.1293 -0.7200  0.3611
   50CHL1   H2A 3674   3.067   3.082   2.663 -0.3994  0.2603 -0.9173
   50CHL1   H2B 3675   3.228   3.156   2.707 -0.0944  2.0145 -4.1380
   50CHL1   C20 3676   3.162   3.290   3.650  0.9437 -0.3298  0.4422
   50CHL1   H20 3677   3.269   3.318   3.641  1.1124 -1.6182 -2.6050
   50CHL1   C21 3678   3.162   3.134   3.652 -0.6464  0.6697  0.0930
   50CHL1  H21A 3679   3.234   3.093   3.578 -0.9584 -0.3163  0.3139
   50CHL1  H21B 3680   3.057   3.098   3.639 -0.4848 -0.3657  1.3782
   50CHL1  H21C 3681   3.201   3.096   3.748  1.0543  1.8928 -0.0802
   50CHL1   C22 3682   3.109   3.350   3.785 -0.4647  0.5556 -0.4371
   50CHL1  H22A 3683   3.070   3.453   3.775  1.5149  1.8427  3.0490
   50CHL1  H22B 3684   3.030   3.280   3.821 -0.5827  0.8321 -0.1535
   50CHL1   C23 3685   3.229   3.358   3.883  0.1505 -0.4880  0.2577
   50CHL1  H23A 3686   3.286   3.263   3.888  0.5925 -0.1751  1.4692
   50CHL1  H23B 3687   3.296   3.440   3.848 -0.7116 -0.2470 -0.9249
   50CHL1   C24 3688   3.185   3.380   4.032 -0.6753  0.6346 -0.1382
   50CHL1  H24A 3689   3.091   3.321   4.046  0.0027 -1.1819 -2.5741
   50CHL1  H24B 3690   3.256   3.327   4.099 -1.9560 -0.5991  0.3060
   50CHL1   C25 3691   3.153   3.530   4.079  0.6313  0.0126 -0.1465
   50CHL1   H25 3692   3.098   3.587   4.000 -1.9761 -2.2553 -0.1391
   50CHL1   C26 3693   3.073   3.538   4.209  0.2379  1.1935  0.5725
   50CHL1  H26A 3694   3.113   3.476   4.292 -3.3440 -1.0137  0.8704
   50CHL1  H26B 3695   3.054   3.640   4.247 -0.6660  1.0346  0.5681
   50CHL1  H26C 3696   2.973   3.500   4.179  1.5973 -2.8729  0.5965
   50CHL1   C27 3697   3.276   3.618   4.102 -0.1585  0.6268  0.0565
   50CHL1  H27A 3698   3.246   3.706   4.163 -1.8096 -0.5889  1.1057
   50CHL1  H27B 3699   3.359   3.566   4.155  1.0372  2.7921  0.3946
   50CHL1  H27C 3700   3.308   3.676   4.013  0.1219 -0.8961 -0.8786
   51CHL1    C3 3701   4.813   2.232   2.745  0.9768 -0.2125 -0.2380
   51CHL1    H3 3702   4.918   2.196   2.747  1.8224  2.0845  1.3339
   51CHL1    O3 3703   4.745   2.219   2.621 -0.1694  0.3730 -0.0694
   51CHL1   H3' 3704   4.763   2.306   2.584  2.2290  0.1778  0.4661
   51CHL1    C4 3705   4.725   2.159   2.849  0.8973  0.3602  0.2894
   51CHL1   H4A 3706   4.617   2.182   2.840  1.2591  1.3457 -2.1939
   51CHL1   H4B 3707   4.721   2.049   2.834  0.2842  0.1070  2.0031
   51CHL1    C5 3708   4.779   2.185   2.987  0.8315  0.1442 -0.9928
   51CHL1    C6 3709   4.812   2.081   3.067 -0.5489 -0.7899 -0.2065
   51CHL1    H6 3710   4.799   1.979   3.031 -0.7623  0.1758 -3.1080
   51CHL1    C7 3711   4.856   2.096   3.213 -0.1029  0.0487 -0.4955
   51CHL1   H7A 3712   4.791   2.032   3.277 -1.4527  0.9190 -0.9719
   51CHL1   H7B 3713   4.957   2.056   3.240 -1.5813 -2.0660  2.5945
   51CHL1    C8 3714   4.829   2.245   3.257 -0.5952 -0.1206 -0.5013
   51CHL1    H8 3715   4.721   2.248   3.283 -0.6612  0.4381 -0.8039
   51CHL1   C14 3716   4.898   2.258   3.396  0.3388 -0.0240  0.6154
   51CHL1   H14 3717   5.006   2.248   3.371  0.4348  0.1148  0.9635
   51CHL1   C15 3718   4.874   2.157   3.508 -0.1321  0.5337 -0.3790
   51CHL1  H15A 3719   4.766   2.131   3.502 -0.1765  0.9335 -1.5939
   51CHL1  H15B 3720   4.925   2.059   3.496 -0.5555 -0.1212  2.5150
   51CHL1   C16 3721   4.906   2.234   3.639 -0.4970 -0.0100 -0.5802
   51CHL1  H16A 3722   4.818   2.227   3.707 -0.0418  2.4045  0.3538
   51CHL1  H16B 3723   4.982   2.184   3.703  0.3538  1.1690 -0.6456
   51CHL1   C17 3724   4.934   2.380   3.600  0.5693  0.6533  0.0233
   51CHL1   H17 3725   5.045   2.381   3.588  0.5170 -0.1281 -0.6247
   51CHL1   C13 3726   4.864   2.393   3.459 -0.4457 -0.6338 -0.3672
   51CHL1   C18 3727   4.711   2.410   3.489  0.6980 -0.4042  0.2768
   51CHL1  H18A 3728   4.708   2.509   3.538  0.6188 -1.3495  2.2869
   51CHL1  H18B 3729   4.657   2.412   3.392 -0.5192  2.9726  0.8956
   51CHL1  H18C 3730   4.670   2.338   3.564 -0.5208  1.6311  1.6712
   51CHL1   C12 3731   4.920   2.500   3.356  0.1547 -0.3726  0.2265
   51CHL1  H12A 3732   4.903   2.603   3.394  1.3442 -0.0802 -0.0184
   51CHL1  H12B 3733   5.027   2.482   3.335 -0.0304 -0.4227 -0.7738
   51CHL1   C11 3734   4.851   2.490   3.213 -0.1682 -0.8826 -0.3277
   51CHL1  H11A 3735   4.747   2.510   3.245  0.7461  3.3445  0.5784
   51CHL1  H11B 3736   4.884   2.566   3.138  0.7312  0.1898  1.0979
   51CHL1    C9 3737   4.872   2.352   3.157  0.0355 -0.8227 -0.0109
   51CHL1    H9 3738   4.980   2.333   3.137 -0.5810 -2.2879 -2.1908
   51CHL1   C10 3739   4.789   2.334   3.023 -0.7060  0.5035 -0.5070
   51CHL1   C19 3740   4.647   2.394   3.035  0.0559  0.1766  0.5288
   51CHL1  H19A 3741   4.602   2.363   2.939 -0.5641 -1.0085  1.1870
   51CHL1  H19B 3742   4.583   2.346   3.112  2.2539 -1.2166  1.6044
   51CHL1  H19C 3743   4.634   2.505   3.037 -0.4447  0.1488 -0.5862
   51CHL1    C1 3744   4.865   2.410   2.907  0.2253  0.1156  0.0448
   51CHL1   H1A 3745   4.859   2.516   2.940 -1.2171  0.0665 -0.0250
   51CHL1   H1B 3746   4.974   2.391   2.918 -0.2728 -2.8137  0.7473
   51CHL1    C2 3747   4.823   2.381   2.769  0.0749 -0.3306  0.0900
   51CHL1   H2A 3748   4.892   2.407   2.686  1.4492 -3.9582 -0.1007
   51CHL1   H2B 3749   4.722   2.427   2.758  1.1600  1.7450 -2.1793
   51CHL1   C20 3750   4.909   2.476   3.712 -0.0013 -0.6465 -0.4629
   51CHL1   H20 3751   4.800   2.470   3.733  0.5647 -1.6196  2.7838
   51CHL1   C21 3752   4.931   2.623   3.669 -0.0976 -0.0583  0.3869
   51CHL1  H21A 3753   4.911   2.685   3.760 -0.9945 -0.0725  0.2100
   51CHL1  H21B 3754   4.880   2.663   3.578  1.4408  0.7108 -0.1783
   51CHL1  H21C 3755   5.041   2.625   3.656 -0.1715 -1.7261 -0.7383
   51CHL1   C22 3756   4.977   2.439   3.852 -1.1161  0.4130 -0.1380
   51CHL1  H22A 3757   4.948   2.335   3.878 -0.6434  0.5906  1.1527
   51CHL1  H22B 3758   5.086   2.445   3.833 -0.8090 -1.6770  0.6671
   51CHL1   C23 3759   4.935   2.521   3.977 -0.6305  0.2679 -0.5474
   51CHL1  H23A 3760   5.004   2.496   4.061  0.8811  1.6079 -1.3449
   51CHL1  H23B 3761   4.943   2.630   3.959  0.7411  0.4733  1.0274
   51CHL1   C24 3762   4.797   2.489   4.036  0.4007 -1.1748 -0.4470
   51CHL1  H24A 3763   4.723   2.506   3.955  0.1441  1.1798  0.1989
   51CHL1  H24B 3764   4.778   2.382   4.056 -2.2925 -0.2288  3.2607
   51CHL1   C25 3765   4.752   2.585   4.146 -0.7231  0.4625  0.3999
   51CHL1   H25 3766   4.772   2.690   4.116  0.4328  0.4618  1.1238
   51CHL1   C26 3767   4.601   2.585   4.156 -0.1264  0.5587  0.5132
   51CHL1  H26A 3768   4.558   2.488   4.189  2.8467 -0.8273  0.6507
   51CHL1  H26B 3769   4.570   2.657   4.235  1.0357  1.8267 -0.1518
   51CHL1  H26C 3770   4.563   2.619   4.058  1.8220 -2.2192 -1.3596
   51CHL1   C27 3771   4.821   2.569   4.282 -0.4439  0.1994 -0.0969
   51CHL1  H27A 3772   4.908   2.501   4.277 -0.7899 -0.2831  0.4052
   51CHL1  H27B 3773   4.841   2.676   4.306 -0.4488  0.2646 -0.3743
   51CHL1  H27C 3774   4.760   2.541   4.371  0.4898  1.2683  0.9196
   52CHL1    C3 3775   5.928   4.713   2.893  0.9829  0.7069  0.3313
   52CHL1    H3 3776   6.001   4.637   2.929 -1.2299 -0.5282  2.4881
   52CHL1    O3 3777   5.913   4.714   2.746  0.2755  0.6030 -0.0837
   52CHL1   H3' 3778   5.832   4.763   2.731 -1.0127 -1.3706  0.0260
   52CHL1    C4 3779   5.792   4.672   2.966 -0.3581 -0.4374  0.9579
   52CHL1   H4A 3780   5.721   4.747   2.926  3.4736  1.5802 -2.8498
   52CHL1   H4B 3781   5.759   4.572   2.930 -0.4095 -0.5053  1.1865
   52CHL1    C5 3782   5.801   4.672   3.123 -0.8387  0.0747 -0.0118
   52CHL1    C6 3783   5.766   4.566   3.196  0.2158  0.2649 -0.1160
   52CHL1    H6 3784   5.717   4.478   3.151 -0.2623  0.9777 -1.0182
   52CHL1    C7 3785   5.786   4.555   3.347 -0.2541 -0.1591  0.4841
   52CHL1   H7A 3786   5.695   4.512   3.395 -0.1322 -1.1872 -0.1758
   52CHL1   H7B 3787   5.871   4.484   3.361  1.5389  1.3934 -1.8090
   52CHL1    C8 3788   5.808   4.696   3.411  0.3779  0.0395 -0.6558
   52CHL1    H8 3789   5.715   4.756   3.411  1.7684  2.3772  0.7948
   52CHL1   C14 3790   5.856   4.694   3.555  0.7111  0.0791 -1.6671
   52CHL1   H14 3791   5.959   4.653   3.558  0.9552  0.7176 -0.9177
   52CHL1   C15 3792   5.755   4.626   3.654 -0.3984 -0.2526  0.0434
   52CHL1  H15A 3793   5.648   4.652   3.637 -0.0259  0.9365 -0.6075
   52CHL1  H15B 3794   5.767   4.516   3.647 -2.4654 -0.6115  1.2509
   52CHL1   C16 3795   5.795   4.681   3.794  0.3089 -0.4803  0.7105
   52CHL1  H16A 3796   5.706   4.733   3.834 -1.8447 -0.7437 -3.2591
   52CHL1  H16B 3797   5.836   4.598   3.856  1.7164 -0.0059  0.4510
   52CHL1   C17 3798   5.911   4.791   3.765 -0.5896  1.2076  0.4509
   52CHL1   H17 3799   5.999   4.724   3.756 -0.8881  0.9777 -0.9679
   52CHL1   C13 3800   5.874   4.834   3.619  0.5832  0.3481 -0.3549
   52CHL1   C18 3801   5.743   4.921   3.618 -0.2354 -0.1500  0.6104
   52CHL1  H18A 3802   5.654   4.864   3.653 -0.4109  0.4197  1.1110
   52CHL1  H18B 3803   5.767   5.019   3.665 -0.8414  0.6279 -0.6360
   52CHL1  H18C 3804   5.718   4.957   3.516  0.5277  3.1677  1.4642
   52CHL1   C12 3805   5.988   4.899   3.541  0.7084  0.1207  0.5404
   52CHL1  H12A 3806   6.000   5.003   3.577  1.1260 -0.1737  1.2661
   52CHL1  H12B 3807   6.080   4.841   3.565  0.2070 -0.6332  0.6954
   52CHL1   C11 3808   5.959   4.914   3.386  0.1515  0.4472  0.6151
   52CHL1  H11A 3809   5.880   4.991   3.377 -0.2993 -0.0867 -0.2189
   52CHL1  H11B 3810   6.053   4.942   3.334  0.1961 -1.0645 -0.1880
   52CHL1    C9 3811   5.906   4.779   3.323  0.4787  0.2064 -0.0598
   52CHL1    H9 3812   5.991   4.708   3.318 -0.2391 -0.5745 -1.8924
   52CHL1   C10 3813   5.874   4.802   3.175  0.9366  0.7418  0.2814
   52CHL1   C19 3814   5.774   4.919   3.165 -0.3372 -0.1078 -0.6057
   52CHL1  H19A 3815   5.690   4.899   3.236 -0.7645  0.3737 -0.9689
   52CHL1  H19B 3816   5.823   5.015   3.193  0.3049 -0.3865 -0.7589
   52CHL1  H19C 3817   5.730   4.932   3.064  1.6152  2.1884 -1.2306
   52CHL1    C1 3818   5.998   4.844   3.099  0.7867 -0.5196 -0.1175
   52CHL1   H1A 3819   6.035   4.942   3.135 -2.6282  0.9733 -0.3367
   52CHL1   H1B 3820   6.084   4.773   3.106  1.3433 -0.1198 -2.1548
   52CHL1    C2 3821   5.969   4.848   2.949 -0.7043 -0.3913  0.4740
   52CHL1   H2A 3822   6.060   4.880   2.894 -0.4560 -1.0023  0.5194
   52CHL1   H2B 3823   5.896   4.929   2.925  0.3883  1.0330  1.7232
   52CHL1   C20 3824   5.923   4.899   3.871  0.2194 -0.5487 -0.1928
   52CHL1   H20 3825   5.842   4.975   3.870 -0.7930 -1.5813  0.5851
   52CHL1   C21 3826   6.054   4.974   3.859 -0.7023  0.5209  0.4257
   52CHL1  H21A 3827   6.057   5.041   3.770  2.6093 -4.0880 -3.5324
   52CHL1  H21B 3828   6.141   4.907   3.840 -0.8374  0.6543 -0.7906
   52CHL1  H21C 3829   6.069   5.037   3.949 -0.9613  1.3535 -0.1071
   52CHL1   C22 3830   5.905   4.844   4.022 -0.0189 -0.3794  0.2450
   52CHL1  H22A 3831   5.908   4.932   4.090 -0.2936  0.7909 -1.2210
   52CHL1  H22B 3832   5.802   4.804   4.030 -1.0178  1.9186 -0.4222
   52CHL1   C23 3833   6.012   4.750   4.069 -0.0616 -0.7536 -0.3075
   52CHL1  H23A 3834   6.037   4.679   3.988 -1.4608 -1.3540 -0.2458
   52CHL1  H23B 3835   6.107   4.804   4.089  0.7037 -2.7904  2.1377
   52CHL1   C24 3836   5.990   4.667   4.204  0.3852 -0.7767  0.2648
   52CHL1  H24A 3837   5.920   4.586   4.174 -0.9425  0.7540 -0.9835
   52CHL1  H24B 3838   6.088   4.618   4.217 -1.4046 -4.6104  0.6693
   52CHL1   C25 3839   5.947   4.743   4.325 -0.3993 -0.4041  0.4252
   52CHL1   H25 3840   6.004   4.837   4.317  0.6797 -1.1266 -0.8267
   52CHL1   C26 3841   5.797   4.782   4.341  0.1934  0.6018  0.0881
   52CHL1  H26A 3842   5.770   4.825   4.440 -0.0256  1.3467 -0.2910
   52CHL1  H26B 3843   5.767   4.854   4.262  1.9405 -0.4200 -1.5773
   52CHL1  H26C 3844   5.733   4.692   4.329  0.8005  0.3341 -1.2715
   52CHL1   C27 3845   5.995   4.666   4.440 -0.2285  0.2730 -0.5242
   52CHL1  H27A 3846   5.964   4.701   4.541  1.1316 -0.3979  0.1434
   52CHL1  H27B 3847   5.943   4.568   4.436 -2.6986  1.5024 -1.0735
   52CHL1  H27C 3848   6.104   4.649   4.429 -0.4471 -0.2983 -2.2871
   53CHL1    C3 3849   5.694   2.375   2.676  0.5962  1.0288 -0.1696
   53CHL1    H3 3850   5.661   2.475   2.710 -1.4470 -0.1280  1.4874
   53CHL1    O3 3851   5.683   2.368   2.536  0.4652  0.3839  0.3173
   53CHL1   H3' 3852   5.757   2.318   2.500  0.4243  0.0053  0.7513
   53CHL1    C4 3853   5.835   2.348   2.726 -1.0282  0.0482 -0.4743
   53CHL1   H4A 3854   5.871   2.246   2.699 -0.5996 -0.0932  0.5830
   53CHL1   H4B 3855   5.902   2.416   2.669  0.3497 -2.0599 -1.5403
   53CHL1    C5 3856   5.846   2.360   2.877 -0.8387  0.1233 -0.1661
   53CHL1    C6 3857   5.912   2.459   2.942  0.2530  0.0122 -0.4017
   53CHL1    H6 3858   5.971   2.533   2.888 -1.4586  0.7287 -1.3845
   53CHL1    C7 3859   5.932   2.457   3.093  0.5273 -0.4199  0.0560
   53CHL1   H7A 3860   6.035   2.480   3.128 -0.3107  1.9225  1.2087
   53CHL1   H7B 3861   5.869   2.539   3.133 -1.5807 -2.0539  0.3029
   53CHL1    C8 3862   5.889   2.326   3.160  0.7403  0.2117  0.1481
   53CHL1    H8 3863   5.973   2.255   3.145  1.0308  0.9933 -2.4713
   53CHL1   C14 3864   5.867   2.347   3.314  0.2473  0.3188  0.3450
   53CHL1   H14 3865   5.787   2.424   3.321 -0.4431 -0.5477  2.8131
   53CHL1   C15 3866   5.977   2.421   3.399 -0.1686 -0.5779  0.1089
   53CHL1  H15A 3867   6.077   2.380   3.377  0.1539 -0.4082  1.2128
   53CHL1  H15B 3868   5.976   2.532   3.389  0.5997 -0.5581  0.2039
   53CHL1   C16 3869   5.941   2.387   3.541 -0.3108 -0.2486 -0.6570
   53CHL1  H16A 3870   6.017   2.313   3.575 -1.2693 -0.2749  1.5489
   53CHL1  H16B 3871   5.932   2.468   3.616 -0.3699  0.3619 -1.3098
   53CHL1   C17 3872   5.812   2.300   3.539  0.4945  1.2631 -0.3417
   53CHL1   H17 3873   5.721   2.363   3.530 -1.5135 -1.6877 -2.6457
   53CHL1   C13 3874   5.820   2.233   3.398 -0.1524 -0.4473 -0.0431
   53CHL1   C18 3875   5.925   2.116   3.394 -0.4979  0.2754  0.9348
   53CHL1  H18A 3876   6.024   2.162   3.412 -0.4585  0.3015  0.6524
   53CHL1  H18B 3877   5.893   2.037   3.465 -2.1221 -0.5698 -0.6576
   53CHL1  H18C 3878   5.928   2.061   3.297 -3.0051 -1.7630  1.8923
   53CHL1   C12 3879   5.685   2.190   3.340  0.6361 -0.3196  0.6397
   53CHL1  H12A 3880   5.639   2.105   3.395 -1.2778  0.1257 -0.1771
   53CHL1  H12B 3881   5.619   2.278   3.356  1.6826  0.5162  0.4388
   53CHL1   C11 3882   5.699   2.157   3.187 -0.0536  0.0631 -0.0147
   53CHL1  H11A 3883   5.760   2.065   3.177  0.3412  0.4858 -1.6920
   53CHL1  H11B 3884   5.597   2.124   3.155 -0.8731  2.4874 -0.1300
   53CHL1    C9 3885   5.750   2.270   3.100 -0.8329 -0.3750 -0.8744
   53CHL1    H9 3886   5.681   2.355   3.117  1.6309  1.4517  0.9285
   53CHL1   C10 3887   5.765   2.257   2.949  0.3166  0.0135  0.3024
   53CHL1   C19 3888   5.824   2.112   2.925  0.0717 -0.0792 -0.1058
   53CHL1  H19A 3889   5.840   2.091   2.817 -0.3070 -0.9690  0.0038
   53CHL1  H19B 3890   5.920   2.106   2.981  0.2556  1.0055 -0.2774
   53CHL1  H19C 3891   5.744   2.041   2.955  0.0254  0.0782  0.1479
   53CHL1    C1 3892   5.620   2.251   2.896 -0.4812 -0.0341 -0.0700
   53CHL1   H1A 3893   5.568   2.159   2.931  0.5886 -0.1147  1.3658
   53CHL1   H1B 3894   5.560   2.336   2.936  0.5945  1.5908 -1.7436
   53CHL1    C2 3895   5.610   2.263   2.741 -0.2774  0.5710  0.0701
   53CHL1   H2A 3896   5.502   2.281   2.721 -0.4807 -1.2384 -0.6070
   53CHL1   H2B 3897   5.628   2.164   2.695  1.3616  0.0535  1.7248
   53CHL1   C20 3898   5.797   2.216   3.669 -0.1727  0.1652  0.3898
   53CHL1   H20 3899   5.893   2.161   3.669 -1.1940 -1.7408 -0.8116
   53CHL1   C21 3900   5.676   2.119   3.663 -0.0091 -0.4103 -0.2252
   53CHL1  H21A 3901   5.665   2.056   3.754  0.0950 -1.1531 -0.7142
   53CHL1  H21B 3902   5.694   2.050   3.577 -1.8749  0.7015 -1.5719
   53CHL1  H21C 3903   5.585   2.179   3.640 -1.6791 -2.3510  0.9220
   53CHL1   C22 3904   5.791   2.304   3.799  0.2651  0.1349  0.5293
   53CHL1  H22A 3905   5.875   2.376   3.801  0.0989  0.3208  1.3606
   53CHL1  H22B 3906   5.710   2.381   3.799 -0.5679 -0.7260  0.3411
   53CHL1   C23 3907   5.807   2.216   3.924 -0.3070  0.2629 -0.1782
   53CHL1  H23A 3908   5.719   2.149   3.937  0.5448 -1.3233 -2.1386
   53CHL1  H23B 3909   5.888   2.143   3.903 -2.8594 -2.7028 -0.4356
   53CHL1   C24 3910   5.813   2.296   4.046 -0.0833  0.5205 -0.1676
   53CHL1  H24A 3911   5.884   2.378   4.021  2.0240 -0.9656  0.5795
   53CHL1  H24B 3912   5.720   2.348   4.075  0.5317  0.9985  1.0665
   53CHL1   C25 3913   5.867   2.214   4.161  0.6632 -0.0007 -1.1367
   53CHL1   H25 3914   5.965   2.174   4.128 -0.2328 -3.1634 -0.3408
   53CHL1   C26 3915   5.897   2.304   4.283 -0.2930 -0.4580  0.2178
   53CHL1  H26A 3916   5.803   2.359   4.307 -1.3736 -2.5487  1.0320
   53CHL1  H26B 3917   5.939   2.249   4.370 -0.5384 -1.2205 -0.1379
   53CHL1  H26C 3918   5.976   2.378   4.260 -1.3278  0.3297 -0.9165
   53CHL1   C27 3919   5.785   2.093   4.209 -0.1000 -0.4301 -0.9878
   53CHL1  H27A 3920   5.757   2.037   4.118 -1.6679  0.8307 -1.3200
   53CHL1  H27B 3921   5.855   2.028   4.266  1.3147  0.2928 -1.8202
   53CHL1  H27C 3922   5.698   2.118   4.272  0.7907 -3.7059  1.8219
   54CHL1    C3 3923   5.250   2.630   2.702  0.2723 -0.2425  0.5096
   54CHL1    H3 3924   5.224   2.524   2.720  1.7993 -0.5750  0.8245
   54CHL1    O3 3925   5.222   2.656   2.567  0.2805 -0.1408  0.5449
   54CHL1   H3' 3926   5.244   2.749   2.554 -2.7663  0.9193  1.8712
   54CHL1    C4 3927   5.174   2.729   2.789  0.2058 -0.0589 -0.7485
   54CHL1   H4A 3928   5.175   2.832   2.748 -0.5822 -0.5146 -1.9846
   54CHL1   H4B 3929   5.070   2.691   2.778  0.0413 -0.1345  0.8595
   54CHL1    C5 3930   5.219   2.723   2.932  0.2767  0.3187  0.6464
   54CHL1    C6 3931   5.122   2.700   3.027 -0.0603 -0.1608  0.5138
   54CHL1    H6 3932   5.015   2.680   3.007  0.0157  0.5752 -0.7076
   54CHL1    C7 3933   5.156   2.694   3.173 -0.2521  0.2229 -0.3695
   54CHL1   H7A 3934   5.081   2.755   3.228 -0.1919 -0.4968  0.5515
   54CHL1   H7B 3935   5.146   2.589   3.207 -0.8944 -0.1616 -1.7100
   54CHL1    C8 3936   5.300   2.747   3.207  0.1653  0.0959  1.0110
   54CHL1    H8 3937   5.304   2.858   3.203  1.8070  0.0461  0.3012
   54CHL1   C14 3938   5.339   2.712   3.348  0.6711 -0.1040  1.2022
   54CHL1   H14 3939   5.327   2.602   3.346 -0.0449 -0.0310 -0.3674
   54CHL1   C15 3940   5.244   2.749   3.463 -0.2668 -0.4937 -0.3195
   54CHL1  H15A 3941   5.222   2.855   3.439  0.6034 -0.3257 -0.4027
   54CHL1  H15B 3942   5.146   2.696   3.456 -0.1892 -0.4850 -1.8595
   54CHL1   C16 3943   5.333   2.730   3.587  0.5492  0.2187 -0.2042
   54CHL1  H16A 3944   5.326   2.832   3.629  0.6617 -0.5240  1.7080
   54CHL1  H16B 3945   5.279   2.657   3.651 -1.8307  0.8780 -1.3551
   54CHL1   C17 3946   5.479   2.694   3.540  0.4137  0.2827 -0.2170
   54CHL1   H17 3947   5.487   2.585   3.523  0.5447  0.3695 -0.7182
   54CHL1   C13 3948   5.487   2.736   3.391  0.5582  0.2359  0.5579
   54CHL1   C18 3949   5.516   2.885   3.389  0.2585 -1.2301 -0.7347
   54CHL1  H18A 3950   5.538   2.921   3.286  2.1809 -1.5355 -0.4641
   54CHL1  H18B 3951   5.441   2.956   3.429  0.4143 -1.7466  0.4932
   54CHL1  H18C 3952   5.607   2.914   3.444 -0.7809  0.0915  0.3688
   54CHL1   C12 3953   5.579   2.661   3.295  0.1501 -0.3201  0.0821
   54CHL1  H12A 3954   5.680   2.681   3.337  0.5546  0.6235 -1.2769
   54CHL1  H12B 3955   5.555   2.553   3.305 -0.1317 -0.5351 -2.2774
   54CHL1   C11 3956   5.552   2.700   3.152  0.4893  0.4688 -0.2741
   54CHL1  H11A 3957   5.599   2.798   3.125  1.3019  0.0008 -0.5943
   54CHL1  H11B 3958   5.602   2.628   3.084 -1.1905  0.4777 -1.5832
   54CHL1    C9 3959   5.400   2.687   3.109 -0.1826 -0.3802  0.1818
   54CHL1    H9 3960   5.390   2.576   3.117 -1.0565 -0.2123  1.6551
   54CHL1   C10 3961   5.377   2.728   2.961 -0.1619 -0.1729  0.6333
   54CHL1   C19 3962   5.426   2.872   2.944  0.1575  0.3538  0.1464
   54CHL1  H19A 3963   5.364   2.930   2.873 -0.5282 -0.2997  0.2014
   54CHL1  H19B 3964   5.401   2.929   3.036 -2.7563 -0.0597 -0.2959
   54CHL1  H19C 3965   5.534   2.881   2.919  0.1827 -3.0763 -1.5840
   54CHL1    C1 3966   5.452   2.647   2.858 -0.3307 -0.3320 -0.5900
   54CHL1   H1A 3967   5.560   2.666   2.846 -0.0438 -2.5133 -2.1854
   54CHL1   H1B 3968   5.445   2.541   2.892  2.0061 -0.8943 -1.6441
   54CHL1    C2 3969   5.404   2.651   2.712  0.5624 -0.7500  0.7265
   54CHL1   H2A 3970   5.455   2.574   2.652 -1.6200 -1.2949 -0.5187
   54CHL1   H2B 3971   5.414   2.746   2.655 -1.3708  0.3402  2.0620
   54CHL1   C20 3972   5.592   2.734   3.636  0.2989 -0.0025  0.3053
   54CHL1   H20 3973   5.605   2.844   3.627 -0.2318 -0.0409 -1.2205
   54CHL1   C21 3974   5.738   2.680   3.613  0.2377  0.5480  0.0488
   54CHL1  H21A 3975   5.759   2.678   3.504  0.3281 -1.4648  0.0573
   54CHL1  H21B 3976   5.759   2.575   3.643 -0.7740 -0.0552 -1.2693
   54CHL1  H21C 3977   5.820   2.733   3.666 -0.9790  0.3373  2.2917
   54CHL1   C22 3978   5.560   2.690   3.777  0.3804  0.0128  0.3101
   54CHL1  H22A 3979   5.468   2.735   3.819  0.8530  0.6938  0.6179
   54CHL1  H22B 3980   5.533   2.582   3.768 -0.0262 -0.0741  2.1973
   54CHL1   C23 3981   5.676   2.715   3.875 -0.1599  0.4123 -0.5590
   54CHL1  H23A 3982   5.759   2.643   3.862  1.5661  2.1244  0.3748
   54CHL1  H23B 3983   5.718   2.816   3.854  0.3637  0.3329  0.0672
   54CHL1   C24 3984   5.627   2.701   4.019  0.0412  0.7490  0.0650
   54CHL1  H24A 3985   5.566   2.792   4.038  1.3342  1.7134 -0.2764
   54CHL1  H24B 3986   5.559   2.614   4.032  0.2924  0.6748  1.0265
   54CHL1   C25 3987   5.742   2.696   4.116  0.1638 -0.4784  0.1711
   54CHL1   H25 3988   5.820   2.631   4.070  1.3327 -0.5147  2.0751
   54CHL1   C26 3989   5.795   2.841   4.142 -0.0864  0.3074  0.1945
   54CHL1  H26A 3990   5.837   2.868   4.043  0.1201  1.9096  0.6932
   54CHL1  H26B 3991   5.717   2.913   4.176 -2.4469 -1.2666 -1.5357
   54CHL1  H26C 3992   5.889   2.835   4.201  0.5475 -0.2415 -0.8478
   54CHL1   C27 3993   5.708   2.628   4.250  0.8586 -0.0262  0.2094
   54CHL1  H27A 3994   5.678   2.523   4.232  2.1221 -0.1580 -1.4394
   54CHL1  H27B 3995   5.796   2.623   4.318  0.6618 -1.7875  0.3602
   54CHL1  H27C 3996   5.624   2.681   4.298 -0.5735 -1.4958 -0.5926
   55CHL1    C3 3997   4.101   3.689   2.924 -0.4330 -0.3660  0.1203
   55CHL1    H3 3998   4.200   3.661   2.967  0.0422 -0.8627 -1.2351
   55CHL1    O3 3999   4.097   3.626   2.796  0.6570 -0.0459  0.0045
   55CHL1   H3' 4000   4.189   3.631   2.768  0.5061 -0.5010 -0.5766
   55CHL1    C4 4001   3.987   3.629   3.002  0.7990  0.0096 -0.8153
   55CHL1   H4A 4002   3.887   3.625   2.953 -0.0652 -0.7237  0.9224
   55CHL1   H4B 4003   4.024   3.526   3.021  1.2980  0.6231  2.1060
   55CHL1    C5 4004   3.968   3.691   3.141 -0.3789  0.6958  0.2274
   55CHL1    C6 4005   3.992   3.625   3.252  0.0103  0.2091  0.8561
   55CHL1    H6 4006   4.009   3.516   3.250 -2.8443 -0.3740 -2.1344
   55CHL1    C7 4007   3.983   3.683   3.388  0.4383  0.0889 -0.6366
   55CHL1   H7A 4008   3.927   3.615   3.456 -0.0446  1.3966  0.3300
   55CHL1   H7B 4009   4.085   3.687   3.434 -0.2984  2.9993  1.0179
   55CHL1    C8 4010   3.923   3.828   3.390  0.1264  0.5988 -0.4874
   55CHL1    H8 4011   3.814   3.819   3.366  0.2865 -0.9553 -0.7536
   55CHL1   C14 4012   3.943   3.882   3.526 -0.0995  0.0615 -0.4134
   55CHL1   H14 4013   4.051   3.869   3.547 -0.3825 -0.4438  0.8462
   55CHL1   C15 4014   3.879   3.813   3.643  0.6148  0.9884  0.3270
   55CHL1  H15A 4015   3.772   3.795   3.620  1.0351  1.2944 -2.1708
   55CHL1  H15B 4016   3.918   3.709   3.650  0.8193  0.9739 -0.8604
   55CHL1   C16 4017   3.880   3.919   3.753  0.7353 -0.1209 -0.1332
   55CHL1  H16A 4018   3.776   3.943   3.783  1.2037  0.2872  1.2462
   55CHL1  H16B 4019   3.949   3.889   3.835 -0.0602  0.4349  0.7548
   55CHL1   C17 4020   3.942   4.051   3.694 -0.1081  0.2750  0.5166
   55CHL1   H17 4021   4.053   4.043   3.697 -0.0853  0.2171 -0.3351
   55CHL1   C13 4022   3.910   4.036   3.539  0.3928  0.2502  0.4844
   55CHL1   C18 4023   3.761   4.064   3.509 -0.0995  0.1211 -0.0431
   55CHL1  H18A 4024   3.733   4.171   3.522  1.9314  0.5935  0.9574
   55CHL1  H18B 4025   3.742   4.024   3.407 -0.6627  0.7192 -0.1810
   55CHL1  H18C 4026   3.706   4.003   3.583  2.0052 -0.8107  0.8358
   55CHL1   C12 4027   3.993   4.116   3.442  0.6501  0.0188 -0.1011
   55CHL1  H12A 4028   3.974   4.225   3.454 -0.7803 -0.3067  0.8451
   55CHL1  H12B 4029   4.100   4.093   3.458 -0.1982 -2.6801  2.5778
   55CHL1   C11 4030   3.959   4.072   3.298 -0.5786 -0.0684 -0.0537
   55CHL1  H11A 4031   3.865   4.113   3.255  1.2210  3.0283 -1.4177
   55CHL1  H11B 4032   4.041   4.116   3.237  1.3119  0.3833  2.6481
   55CHL1    C9 4033   3.983   3.912   3.281  0.0505 -0.2403  0.1699
   55CHL1    H9 4034   4.091   3.897   3.303 -0.2387 -1.7319  0.6767
   55CHL1   C10 4035   3.959   3.848   3.140  0.0148 -0.0577 -0.4029
   55CHL1   C19 4036   3.825   3.888   3.089  0.5364 -0.2206 -0.6852
   55CHL1  H19A 4037   3.740   3.868   3.159  0.1775  1.5177 -0.5667
   55CHL1  H19B 4038   3.830   3.998   3.075  1.3888  0.0761  1.5239
   55CHL1  H19C 4039   3.807   3.843   2.989  0.9295  2.6696 -2.1540
   55CHL1    C1 4040   4.074   3.911   3.046 -0.2973  0.0232  0.0323
   55CHL1   H1A 4041   4.036   4.014   3.026 -1.4632 -0.3743  0.1223
   55CHL1   H1B 4042   4.178   3.925   3.083 -0.9341  1.4853  1.4132
   55CHL1    C2 4043   4.089   3.838   2.905  0.2743 -0.2742 -0.3392
   55CHL1   H2A 4044   4.172   3.886   2.849 -0.2291 -0.5530 -1.3390
   55CHL1   H2B 4045   4.000   3.864   2.845 -0.2613  1.7153  1.2169
   55CHL1   C20 4046   3.903   4.186   3.759 -0.0428 -0.1605 -0.0176
   55CHL1   H20 4047   3.801   4.222   3.732  1.2290  1.8929 -2.4889
   55CHL1   C21 4048   4.005   4.293   3.722 -0.1131  0.0638  0.2016
   55CHL1  H21A 4049   4.110   4.259   3.732 -1.1584 -4.3713 -1.5213
   55CHL1  H21B 4050   3.997   4.390   3.776  1.8420 -0.1211  0.8804
   55CHL1  H21C 4051   4.004   4.321   3.615 -2.3839  0.7601  0.3491
   55CHL1   C22 4052   3.901   4.177   3.913  0.5912  0.0950 -0.2975
   55CHL1  H22A 4053   3.827   4.100   3.942 -1.9797  1.7859 -1.9575
   55CHL1  H22B 4054   4.001   4.144   3.950  0.3140 -0.6603 -0.2107
   55CHL1   C23 4055   3.853   4.308   3.980  0.1375 -0.5572 -0.1243
   55CHL1  H23A 4056   3.915   4.395   3.950 -0.8533 -0.0024 -0.6182
   55CHL1  H23B 4057   3.750   4.329   3.945 -0.1183 -2.9813 -1.0759
   55CHL1   C24 4058   3.858   4.308   4.130  0.9366 -0.3310  0.3113
   55CHL1  H24A 4059   3.800   4.396   4.165  1.4862  0.9052 -1.7294
   55CHL1  H24B 4060   3.816   4.217   4.177 -0.3276  0.6370  1.1247
   55CHL1   C25 4061   3.999   4.331   4.186  0.3149  0.2877  0.4699
   55CHL1   H25 4062   4.075   4.262   4.143 -0.3042 -1.0744  1.5184
   55CHL1   C26 4063   4.049   4.477   4.160 -0.1122  0.1967 -0.3443
   55CHL1  H26A 4064   4.078   4.498   4.055  0.3282  1.0469 -0.0649
   55CHL1  H26B 4065   3.983   4.551   4.210 -0.8137 -0.5176 -0.1908
   55CHL1  H26C 4066   4.147   4.482   4.212 -0.3308  1.6526 -0.0262
   55CHL1   C27 4067   4.004   4.308   4.338 -0.1250 -0.0863 -0.6208
   55CHL1  H27A 4068   3.923   4.361   4.392 -2.3359 -5.5627  2.2814
   55CHL1  H27B 4069   3.979   4.203   4.367 -0.2540  0.5061  1.5248
   55CHL1  H27C 4070   4.099   4.336   4.388 -1.8551  1.3470  2.1072
   56CHL1    C3 4071   4.673   3.650   2.801  0.6384  0.6222  0.7349
   56CHL1    H3 4072   4.579   3.590   2.802  1.3264 -0.4992  1.5742
   56CHL1    O3 4073   4.713   3.685   2.673  0.0675  0.0277 -0.0311
   56CHL1   H3' 4074   4.641   3.740   2.641  0.3520  2.2438  2.7531
   56CHL1    C4 4075   4.630   3.772   2.879 -0.0404  0.4898 -0.2916
   56CHL1   H4A 4076   4.715   3.844   2.880  1.4867 -1.2197  0.4876
   56CHL1   H4B 4077   4.552   3.834   2.830 -0.8550  1.2338  1.8060
   56CHL1    C5 4078   4.593   3.742   3.025  0.2301  0.1379 -0.2827
   56CHL1    C6 4079   4.474   3.774   3.078  0.3865 -0.3589 -0.6370
   56CHL1    H6 4080   4.395   3.814   3.013 -1.0377 -0.3869  0.9939
   56CHL1    C7 4081   4.434   3.762   3.224 -0.1621 -0.0487  0.5423
   56CHL1   H7A 4082   4.374   3.846   3.266  3.2442  2.1405  1.3863
   56CHL1   H7B 4083   4.371   3.671   3.232 -0.3820  0.1295  0.8459
   56CHL1    C8 4084   4.555   3.718   3.308 -0.4144 -0.0940 -0.5599
   56CHL1    H8 4085   4.605   3.814   3.334 -0.2267 -0.7338  1.5670
   56CHL1   C14 4086   4.498   3.665   3.439 -0.6011 -0.3844 -1.0565
   56CHL1   H14 4087   4.437   3.578   3.407  1.7474 -1.7370 -2.1750
   56CHL1   C15 4088   4.396   3.760   3.511 -0.2344 -0.2621 -0.3137
   56CHL1  H15A 4089   4.425   3.867   3.498  0.1839 -0.3230  0.0919
   56CHL1  H15B 4090   4.296   3.740   3.468 -0.1425 -1.8517  0.1688
   56CHL1   C16 4091   4.396   3.704   3.657 -0.4519  0.2770  0.0671
   56CHL1  H16A 4092   4.421   3.790   3.723  0.1716  2.3049 -2.6024
   56CHL1  H16B 4093   4.296   3.661   3.680 -0.3040  0.5325  1.2135
   56CHL1   C17 4094   4.512   3.589   3.659  0.8088 -0.3274  0.2066
   56CHL1   H17 4095   4.453   3.499   3.630 -3.8600  2.1116  1.2045
   56CHL1   C13 4096   4.600   3.623   3.541 -0.1547 -0.0364 -0.0323
   56CHL1   C18 4097   4.680   3.747   3.586 -0.9464 -0.0179  0.2973
   56CHL1  H18A 4098   4.745   3.800   3.514  0.7936 -2.1320  0.2110
   56CHL1  H18B 4099   4.621   3.829   3.632  0.3264  0.8767  0.3901
   56CHL1  H18C 4100   4.758   3.717   3.660  1.2146  1.1720 -1.3823
   56CHL1   C12 4101   4.698   3.516   3.477  0.1123 -0.1971 -0.0443
   56CHL1  H12A 4102   4.783   3.503   3.548 -0.5240 -1.2605  0.5488
   56CHL1  H12B 4103   4.644   3.419   3.465 -2.5361  1.3689 -1.6909
   56CHL1   C11 4104   4.751   3.567   3.341  0.4664 -0.3059  0.1064
   56CHL1  H11A 4105   4.820   3.650   3.365 -0.6989  0.8056 -0.2734
   56CHL1  H11B 4106   4.813   3.490   3.290  0.0003 -1.1511  0.7920
   56CHL1    C9 4107   4.644   3.619   3.241  1.0180  0.0602 -0.9005
   56CHL1    H9 4108   4.577   3.533   3.218  1.6671 -0.1853 -1.9715
   56CHL1   C10 4109   4.703   3.668   3.107  1.0985  0.0884  0.6354
   56CHL1   C19 4110   4.829   3.752   3.131  1.4339 -0.7139 -1.0522
   56CHL1  H19A 4111   4.912   3.689   3.169 -0.0082 -1.4489  1.0576
   56CHL1  H19B 4112   4.858   3.809   3.041 -0.7487  4.6256  1.1906
   56CHL1  H19C 4113   4.800   3.830   3.205  1.1828  1.6474 -3.4933
   56CHL1    C1 4114   4.748   3.548   3.023  0.3151 -0.6006 -0.2293
   56CHL1   H1A 4115   4.837   3.496   3.063  0.5184  0.5101  0.7971
   56CHL1   H1B 4116   4.656   3.485   3.021 -2.4198  3.0350 -0.4342
   56CHL1    C2 4117   4.786   3.577   2.874  0.0378 -0.1107 -0.4095
   56CHL1   H2A 4118   4.805   3.481   2.822  1.3095  0.2109 -0.5732
   56CHL1   H2B 4119   4.882   3.633   2.865  1.6776 -2.6118  0.3774
   56CHL1   C20 4120   4.569   3.557   3.796  1.0343  0.8138  0.2897
   56CHL1   H20 4121   4.646   3.635   3.813  1.0383  0.6147  1.2652
   56CHL1   C21 4122   4.632   3.422   3.807 -0.2070 -0.0955 -0.3337
   56CHL1  H21A 4123   4.708   3.410   3.727  1.7456  1.0613  1.2798
   56CHL1  H21B 4124   4.565   3.333   3.807 -0.7875  0.3312  0.3497
   56CHL1  H21C 4125   4.695   3.420   3.898 -1.9838 -1.8103  0.9582
   56CHL1   C22 4126   4.471   3.555   3.912  0.1500 -0.4573 -0.0446
   56CHL1  H22A 4127   4.406   3.645   3.903  3.1779  1.7195 -2.4536
   56CHL1  H22B 4128   4.400   3.470   3.902 -0.4589 -0.3369  2.6139
   56CHL1   C23 4129   4.529   3.557   4.055  0.0042 -1.0180  0.0294
   56CHL1  H23A 4130   4.576   3.457   4.072 -0.6227 -1.7289 -2.1031
   56CHL1  H23B 4131   4.607   3.636   4.060 -0.5333 -0.5217  0.6133
   56CHL1   C24 4132   4.422   3.599   4.161 -0.6260 -0.1158 -0.0734
   56CHL1  H24A 4133   4.390   3.699   4.126  1.7042  0.6370 -0.2175
   56CHL1  H24B 4134   4.331   3.535   4.156 -1.9275  1.6562 -0.2996
   56CHL1   C25 4135   4.481   3.610   4.305  0.4830 -0.0158  0.1939
   56CHL1   H25 4136   4.564   3.683   4.302 -0.6815  1.3379 -0.8440
   56CHL1   C26 4137   4.385   3.672   4.410  0.4137  0.4161  0.0701
   56CHL1  H26A 4138   4.372   3.776   4.372 -2.7664  0.4557  0.9554
   56CHL1  H26B 4139   4.288   3.622   4.430  0.8793 -0.3651  0.4425
   56CHL1  H26C 4140   4.423   3.680   4.514 -2.4010 -0.8177  1.2922
   56CHL1   C27 4141   4.524   3.469   4.357  0.1296 -0.2025 -0.0365
   56CHL1  H27A 4142   4.447   3.392   4.339  0.4752 -0.7666  0.8177
   56CHL1  H27B 4143   4.611   3.430   4.299  0.7922  0.8031  0.2590
   56CHL1  H27C 4144   4.553   3.475   4.464  1.9963  0.1170 -0.5100
   57SAPC     N 4145   0.664   1.437   6.868 -0.4485  0.1745 -0.0978
   57SAPC   C12 4146   0.678   1.418   6.718  0.5218 -0.3024 -0.4696
   57SAPC  H12A 4147   0.783   1.426   6.692  0.5202  1.3006 -0.0988
   57SAPC  H12B 4148   0.642   1.504   6.663  1.3704  0.2475 -0.1994
   57SAPC   C13 4149   0.755   1.552   6.905 -0.3031  0.7672 -0.2514
   57SAPC  H13A 4150   0.707   1.643   6.871  0.8613  1.4456 -0.1286
   57SAPC  H13B 4151   0.752   1.563   7.013 -2.1120 -2.4909  0.1552
   57SAPC  H13C 4152   0.858   1.534   6.878 -0.4316 -0.5557  0.0767
   57SAPC   C14 4153   0.521   1.465   6.896 -0.0775 -0.1512  0.7860
   57SAPC  H14A 4154   0.467   1.377   6.862 -0.4420  0.9098 -1.6017
   57SAPC  H14B 4155   0.492   1.480   6.999 -2.3675 -0.9493  0.3316
   57SAPC  H14C 4156   0.490   1.549   6.835 -0.6923 -0.9937 -0.1059
   57SAPC   C15 4157   0.719   1.313   6.936 -0.0062 -0.5223 -0.0083
   57SAPC  H15A 4158   0.821   1.287   6.911  0.7387  0.7071  1.5211
   57SAPC  H15B 4159   0.715   1.334   7.042 -0.9878 -1.1135  0.0795
   57SAPC  H15C 4160   0.660   1.227   6.907 -1.6361  1.8634 -4.6350
   57SAPC   C11 4161   0.631   1.299   6.639  0.6980  0.0035 -0.8410
   57SAPC  H11A 4162   0.684   1.209   6.677 -1.2939  0.1212  2.5573
   57SAPC  H11B 4163   0.660   1.322   6.534  1.3391 -0.0683 -0.6865
   57SAPC     P 4164   0.386   1.381   6.576 -0.0506 -0.0164  0.1070
   57SAPC   O13 4165   0.256   1.383   6.644 -0.2701 -0.0810 -0.3932
   57SAPC   O14 4166   0.452   1.517   6.555  0.5957  0.1629  0.6191
   57SAPC   O12 4167   0.487   1.285   6.648 -0.1351  0.3197 -0.2450
   57SAPC   O11 4168   0.375   1.303   6.434  0.2331 -0.2524 -0.3873
   57SAPC    C1 4169   0.379   1.161   6.430  0.2358 -0.0581 -0.1399
   57SAPC    HA 4170   0.485   1.128   6.424  0.2393  0.2032 -2.0790
   57SAPC    HB 4171   0.324   1.102   6.506 -0.2808 -2.9434 -2.5595
   57SAPC    C2 4172   0.345   1.095   6.293 -0.0120 -0.2448  0.1841
   57SAPC    HS 4173   0.362   0.985   6.290 -3.0085 -0.8153  0.0641
   57SAPC   O21 4174   0.413   1.162   6.187  0.0914  0.3687 -0.2346
   57SAPC   C21 4175   0.537   1.119   6.170  0.3321 -0.7457 -0.0116
   57SAPC   O22 4176   0.590   1.040   6.241 -0.7930  0.2908 -0.4372
   57SAPC   C22 4177   0.598   1.186   6.045 -0.0537 -0.4184 -0.9722
   57SAPC   H2R 4178   0.537   1.267   6.001  0.9866  0.7317 -0.3689
   57SAPC   H2S 4179   0.688   1.243   6.076 -0.0703  0.9085 -3.2322
   57SAPC    C3 4180   0.189   1.114   6.270  0.2528  0.4637 -0.0193
   57SAPC    HX 4181   0.161   1.217   6.301  0.1403  0.6285 -0.6624
   57SAPC    HY 4182   0.129   1.055   6.343  1.5760  1.7057  2.2009
   57SAPC   O31 4183   0.164   1.097   6.130 -0.2230  0.1947 -0.3430
   57SAPC   C31 4184   0.051   1.139   6.081 -0.0276 -0.1165  0.5430
   57SAPC   O32 4185  -0.045   1.172   6.151  0.1431  0.3315  0.5643
   57SAPC   C32 4186   0.051   1.137   5.933  0.0899  0.1485  0.2122
   57SAPC   H2X 4187   0.029   1.031   5.909  1.2008  0.2855 -1.5608
   57SAPC   H2Y 4188   0.147   1.168   5.886  0.6831 -2.5961 -0.5262
   57SAPC   C23 4189   0.637   1.074   5.951  0.3155  0.4429 -0.6101
   57SAPC   H3R 4190   0.712   1.005   5.997 -0.2259 -0.9340 -1.7027
   57SAPC   H3S 4191   0.686   1.131   5.869 -1.0560  1.0544 -1.0272
   57SAPC   C24 4192   0.525   1.001   5.878 -0.0708  0.5172 -0.0701
   57SAPC   H4R 4193   0.477   0.941   5.958 -0.6549  0.6618 -0.3079
   57SAPC   H4S 4194   0.567   0.925   5.808 -1.6791 -0.5460  0.0900
   57SAPC   C25 4195   0.419   1.083   5.802 -0.8426  0.1524  0.2783
   57SAPC   H5R 4196   0.360   1.144   5.872 -0.7015 -0.0191  0.5470
   57SAPC   C26 4197   0.393   1.102   5.668  0.2687 -0.2309 -0.0011
   57SAPC   H6R 4198   0.322   1.180   5.637  0.5465  1.5515  3.3160
   57SAPC   C27 4199   0.459   1.024   5.563  0.0437 -0.0851  0.1938
   57SAPC   H7R 4200   0.484   0.919   5.588 -1.0056 -1.6905 -4.4315
   57SAPC   H7S 4201   0.557   1.072   5.545 -0.7413  1.6740  0.3393
   57SAPC   C28 4202   0.371   1.021   5.438 -0.5394  0.2266  0.2502
   57SAPC   H8R 4203   0.284   0.954   5.437  2.0073 -3.3447  0.0686
   57SAPC   C29 4204   0.418   1.054   5.315  0.1046  0.1916 -0.2224
   57SAPC   H9R 4205   0.339   1.046   5.239  0.7137 -0.9627 -0.7672
   57SAPC  C210 4206   0.551   1.117   5.281 -0.8058  0.2452  0.1893
   57SAPC  H10R 4207   0.616   1.029   5.262  1.5190  1.9227 -0.0806
   57SAPC  H10S 4208   0.597   1.166   5.370  0.5000 -0.4380 -0.0836
   57SAPC  C211 4209   0.544   1.208   5.163  0.3196  0.1137  0.2810
   57SAPC  H11R 4210   0.509   1.308   5.194 -0.8834 -0.1028 -0.3503
   57SAPC  C212 4211   0.587   1.193   5.035  0.8946  0.3711 -0.5689
   57SAPC  H12R 4212   0.579   1.266   4.953  2.5288  0.1931 -0.9066
   57SAPC  C213 4213   0.638   1.060   4.982  0.5914 -0.5725  0.0673
   57SAPC  H13R 4214   0.586   1.028   4.889  2.7491 -0.2741 -1.3124
   57SAPC  H13S 4215   0.619   0.978   5.054  0.4414 -1.0389 -0.4953
   57SAPC  C214 4216   0.791   1.059   4.969  0.1721  0.1809 -0.3389
   57SAPC  H14R 4217   0.841   1.015   5.057  0.9338  0.9883 -0.3505
   57SAPC  C215 4218   0.867   1.082   4.860  0.8495 -0.5135  0.2327
   57SAPC  H15R 4219   0.977   1.084   4.862  0.8327  1.5482  1.0728
   57SAPC  C216 4220   0.811   1.139   4.733 -0.4609 -0.3180  0.2705
   57SAPC  H16R 4221   0.850   1.240   4.707 -1.1077 -0.3828 -1.0350
   57SAPC  H16S 4222   0.701   1.155   4.736 -0.5132 -0.4306 -0.8523
   57SAPC  C217 4223   0.842   1.056   4.605  0.5094 -0.3086 -0.0088
   57SAPC  H17R 4224   0.781   0.963   4.611 -3.2606  2.0274  1.7580
   57SAPC  H17S 4225   0.950   1.031   4.615  0.0462 -2.2312  0.5336
   57SAPC  C218 4226   0.815   1.134   4.478  0.3156  0.6756  0.5814
   57SAPC  H18R 4227   0.890   1.214   4.463 -0.1064  1.1399  0.9060
   57SAPC  H18S 4228   0.715   1.181   4.493 -0.2150 -0.7631  1.8653
   57SAPC  C219 4229   0.804   1.044   4.356  0.0652  0.1052 -0.3180
   57SAPC  H19R 4230   0.739   1.094   4.281  1.8553  0.8379 -1.4643
   57SAPC  H19S 4231   0.767   0.946   4.394 -0.2831 -0.4161 -1.9176
   57SAPC  C220 4232   0.944   1.013   4.309 -0.3879 -0.0240  0.4743
   57SAPC  H20R 4233   0.987   1.107   4.268 -2.2815 -0.5717 -3.1550
   57SAPC  H20S 4234   0.946   0.940   4.225  1.8876 -1.5118  1.7016
   57SAPC  H20T 4235   1.005   0.966   4.389  1.7977  4.4121  1.7269
   57SAPC   C33 4236  -0.065   1.222   5.870  0.5881 -0.0013  0.3184
   57SAPC   H3X 4237  -0.072   1.323   5.917 -1.6595  1.2720 -2.4395
   57SAPC   H3Y 4238  -0.153   1.157   5.888  1.5558 -1.6090 -0.4805
   57SAPC   C34 4239  -0.058   1.240   5.713  0.1057 -0.0388 -0.2107
   57SAPC   H4X 4240   0.024   1.313   5.694 -0.3793  0.6848  0.4516
   57SAPC   H4Y 4241  -0.154   1.280   5.673 -1.2181 -2.3910  0.4613
   57SAPC   C35 4242  -0.034   1.117   5.633 -1.1509 -0.5578  0.3189
   57SAPC   H5X 4243  -0.110   1.047   5.673  0.1379 -2.2900 -0.1447
   57SAPC   H5Y 4244   0.067   1.072   5.647  0.2064  1.6685 -1.5681
   57SAPC   C36 4245  -0.052   1.139   5.484 -0.9878 -0.4029  0.3270
   57SAPC   H6X 4246  -0.159   1.168   5.470 -0.6228  0.2090 -1.4307
   57SAPC   H6Y 4247  -0.033   1.042   5.433 -1.1164  0.1976 -0.8720
   57SAPC   C37 4248   0.038   1.240   5.416  0.1680 -0.0509  0.3517
   57SAPC   H7X 4249   0.130   1.241   5.478 -0.8018 -0.4967  1.8614
   57SAPC   H7Y 4250  -0.016   1.337   5.423  0.5513  0.3524 -1.5680
   57SAPC   C38 4251   0.063   1.218   5.261  0.3357 -0.2279 -0.3918
   57SAPC   H8X 4252  -0.040   1.217   5.220  0.1638  0.9706 -0.0244
   57SAPC   H8Y 4253   0.115   1.121   5.243 -2.7040 -2.0106 -0.1900
   57SAPC   C39 4254   0.147   1.339   5.205 -0.1705 -0.3514  0.2664
   57SAPC   H9X 4255   0.238   1.354   5.266 -0.9367  3.2290  0.7264
   57SAPC   H9Y 4256   0.083   1.429   5.215 -2.1413 -1.7894  1.3654
   57SAPC  C310 4257   0.174   1.337   5.055  0.9860 -0.0949 -0.3269
   57SAPC  H10X 4258   0.209   1.237   5.023  3.1355  0.2400  0.7888
   57SAPC  H10Y 4259   0.247   1.417   5.033  2.9766 -1.1025  2.1793
   57SAPC  C311 4260   0.041   1.346   4.963 -0.1409 -0.0227 -0.6872
   57SAPC  H11X 4261  -0.026   1.430   4.991  1.8849  1.3975  0.2279
   57SAPC  H11Y 4262  -0.017   1.252   4.971  0.4740 -0.2508  2.2523
   57SAPC  C312 4263   0.088   1.366   4.817  0.2952 -0.2673 -0.0296
   57SAPC  H12X 4264   0.155   1.285   4.780 -1.3636 -0.9655 -1.6832
   57SAPC  H12Y 4265   0.136   1.465   4.805 -0.1455 -0.1540 -0.9843
   57SAPC  C313 4266  -0.029   1.359   4.712  0.4741  0.5641 -1.2332
   57SAPC  H13X 4267  -0.122   1.412   4.745  0.9883 -0.3168  1.9347
   57SAPC  H13Y 4268  -0.060   1.253   4.713 -1.1932  1.0202 -1.5747
   57SAPC  C314 4269   0.015   1.389   4.569 -0.0100 -0.1470  0.8397
   57SAPC  H14X 4270   0.093   1.312   4.551  1.7330  1.9089 -0.8813
   57SAPC  H14Y 4271   0.080   1.479   4.564  0.6324 -0.6534 -1.1830
   57SAPC  C315 4272  -0.098   1.370   4.462 -0.5355  0.9274  0.1136
   57SAPC  H15X 4273  -0.197   1.407   4.495 -0.8531  1.6505 -1.5559
   57SAPC  H15Y 4274  -0.098   1.259   4.458  1.6618  0.9032 -0.8152
   57SAPC  C316 4275  -0.070   1.423   4.325 -0.1650 -0.4496  0.4844
   57SAPC  H16X 4276   0.036   1.405   4.295  0.0990  0.1424  1.0316
   57SAPC  H16Y 4277  -0.100   1.529   4.318 -1.9481 -0.9492 -0.0472
   57SAPC  C317 4278  -0.170   1.348   4.233 -0.2248 -0.6891  0.1151
   57SAPC  H17X 4279  -0.195   1.407   4.142  1.0499  0.7688  0.6684
   57SAPC  H17Y 4280  -0.265   1.343   4.290 -1.4736  0.3179 -1.7398
   57SAPC  C318 4281  -0.137   1.204   4.182 -0.1088  0.5651 -0.3290
   57SAPC  H18X 4282  -0.211   1.183   4.102 -0.6686  1.2838 -0.0194
   57SAPC  H18Y 4283  -0.135   1.131   4.265 -0.1502 -0.9814 -1.6335
   57SAPC  H18Z 4284  -0.038   1.202   4.132 -0.0445  0.2521 -0.1932
   58SAPC     N 4285   4.352   6.091   6.511  0.2311  0.4297 -0.3981
   58SAPC   C12 4286   4.315   6.237   6.497 -0.6127 -0.3503  0.4830
   58SAPC  H12A 4287   4.230   6.241   6.430 -0.9026  1.0953  0.8983
   58SAPC  H12B 4288   4.400   6.294   6.464 -1.3695 -0.2270 -1.3656
   58SAPC   C13 4289   4.474   6.083   6.598  0.0582 -0.0801  0.5000
   58SAPC  H13A 4290   4.508   5.982   6.615  0.5138  0.0642  0.4599
   58SAPC  H13B 4291   4.556   6.132   6.547 -0.3137 -2.1981 -2.4277
   58SAPC  H13C 4292   4.460   6.122   6.697 -1.5136 -1.7698  1.0077
   58SAPC   C14 4293   4.245   6.017   6.574  0.2682 -0.1637 -0.4979
   58SAPC  H14A 4294   4.277   5.921   6.611  0.9067 -0.4963 -1.8173
   58SAPC  H14B 4295   4.220   6.082   6.656  0.0065 -0.0541 -0.6625
   58SAPC  H14C 4296   4.156   6.003   6.515 -1.7035  1.6444  1.8142
   58SAPC   C15 4297   4.388   6.040   6.371  0.1257 -0.4300  0.4033
   58SAPC  H15A 4298   4.442   5.947   6.386  0.3381 -0.0427  2.2833
   58SAPC  H15B 4299   4.305   6.037   6.303 -1.7534  1.5599  2.4551
   58SAPC  H15C 4300   4.450   6.103   6.309  0.0656 -1.7592 -1.0734
   58SAPC   C11 4301   4.274   6.314   6.623  0.0206  0.1048  0.2678
   58SAPC  H11A 4302   4.270   6.424   6.609 -1.1908  0.2127  1.2196
   58SAPC  H11B 4303   4.352   6.292   6.699 -1.4672 -0.5995  1.6657
   58SAPC     P 4304   4.022   6.329   6.627  0.1150 -0.1765 -0.0056
   58SAPC   O13 4305   3.910   6.240   6.667  0.0066 -0.2909 -0.2112
   58SAPC   O14 4306   4.009   6.470   6.677  0.8899  0.4192 -0.3593
   58SAPC   O12 4307   4.153   6.273   6.684 -0.0523  0.3783  0.5083
   58SAPC   O11 4308   4.050   6.319   6.469  1.1290 -0.3884 -0.1070
   58SAPC    C1 4309   3.942   6.310   6.382  0.5200 -0.2971  0.4520
   58SAPC    HA 4310   3.892   6.211   6.385  0.5781 -0.3782 -0.8620
   58SAPC    HB 4311   3.861   6.384   6.399  0.7235  0.5270 -1.8481
   58SAPC    C2 4312   3.992   6.351   6.244  0.1394  0.4601  0.7136
   58SAPC    HS 4313   3.906   6.380   6.180  0.6096  2.3080  0.8570
   58SAPC   O21 4314   4.077   6.252   6.184  0.1645 -0.0142 -0.4509
   58SAPC   C21 4315   4.011   6.145   6.143 -0.6247 -0.2099  0.5113
   58SAPC   O22 4316   3.894   6.125   6.138  0.3154 -0.5168  0.0721
   58SAPC   C22 4317   4.129   6.048   6.100  0.8243 -0.0994 -0.2955
   58SAPC   H2R 4318   4.212   6.117   6.072  1.4725 -0.6037  0.3404
   58SAPC   H2S 4319   4.166   5.992   6.189 -2.5908 -0.4704  1.0182
   58SAPC    C3 4320   4.076   6.484   6.256  0.4902  0.3708 -0.6392
   58SAPC    HX 4321   4.167   6.475   6.319 -0.0946 -1.1092  0.0245
   58SAPC    HY 4322   4.015   6.555   6.317  0.1321 -1.1031  0.7639
   58SAPC   O31 4323   4.114   6.529   6.124 -0.6573  0.2060  0.0166
   58SAPC   C31 4324   4.141   6.666   6.113 -0.2424  0.3387 -0.4453
   58SAPC   O32 4325   4.147   6.740   6.208  0.7692  0.1246  0.0923
   58SAPC   C32 4326   4.197   6.706   5.974  0.1081  0.5631 -0.7217
   58SAPC   H2X 4327   4.165   6.629   5.900 -0.5117 -0.3188  0.4272
   58SAPC   H2Y 4328   4.308   6.709   5.971  0.1597 -0.7147 -0.8022
   58SAPC   C23 4329   4.090   5.954   5.983 -0.1619 -0.8349 -0.1197
   58SAPC   H3R 4330   3.995   5.906   6.012 -0.2310 -3.1756 -3.6331
   58SAPC   H3S 4331   4.160   5.868   5.974  0.6720 -0.1208 -0.7297
   58SAPC   C24 4332   4.095   6.027   5.851 -0.1929  0.5553  0.4792
   58SAPC   H4R 4333   4.202   6.050   5.831 -0.2103  0.5452  0.3714
   58SAPC   H4S 4334   4.033   6.119   5.861  2.0709  2.0339  1.5694
   58SAPC   C25 4335   4.017   5.960   5.743  0.0532  0.4023  0.1252
   58SAPC   H5R 4336   3.947   5.880   5.770 -1.8142  1.6033 -0.9815
   58SAPC   C26 4337   4.027   5.996   5.615  0.7873 -0.1893  0.8500
   58SAPC   H6R 4338   3.959   5.950   5.541  2.3273 -1.2797  0.0519
   58SAPC   C27 4339   4.110   6.103   5.556  0.2784 -0.2119  0.5985
   58SAPC   H7R 4340   4.180   6.144   5.632 -0.0558 -1.5491  1.6649
   58SAPC   H7S 4341   4.050   6.184   5.509 -1.4408 -1.2002  1.0186
   58SAPC   C28 4342   4.208   6.048   5.446 -0.3056 -0.9270 -0.2645
   58SAPC   H8R 4343   4.307   6.023   5.487 -0.0911 -2.1815 -1.4760
   58SAPC   C29 4344   4.182   6.023   5.316 -0.3552  0.6338  0.0033
   58SAPC   H9R 4345   4.275   5.992   5.266  0.4822  2.8374  0.0818
   58SAPC  C210 4346   4.056   6.044   5.235 -0.2782 -0.4686 -0.4402
   58SAPC  H10R 4347   3.964   6.073   5.291  0.4116 -0.3517  0.6773
   58SAPC  H10S 4348   4.028   5.946   5.191  0.3094 -1.0997  0.5506
   58SAPC  C211 4349   4.076   6.144   5.125  0.4790  0.1602  0.6206
   58SAPC  H11R 4350   4.042   6.247   5.145  0.1084  0.5012 -1.5153
   58SAPC  C212 4351   4.135   6.112   5.009  0.2582 -0.5187  0.1843
   58SAPC  H12R 4352   4.154   6.190   4.933 -0.4398  0.2054  0.7355
   58SAPC  C213 4353   4.192   5.981   4.970 -1.1709  0.2334  0.0651
   58SAPC  H13R 4354   4.199   5.905   5.050  0.2644  1.9686  1.6927
   58SAPC  H13S 4355   4.300   5.992   4.943 -0.5535 -1.8891  1.4230
   58SAPC  C214 4356   4.113   5.933   4.861 -0.0996 -0.1323  0.2153
   58SAPC  H14R 4357   4.020   5.897   4.908  1.1227 -1.5490  1.7027
   58SAPC  C215 4358   4.144   5.911   4.732  0.1091  0.1890 -0.1492
   58SAPC  H15R 4359   4.062   5.866   4.674 -1.3623  0.6843  1.4604
   58SAPC  C216 4360   4.267   5.967   4.669 -0.8636  0.0843 -0.3593
   58SAPC  H16R 4361   4.347   5.893   4.647 -0.3061  0.3942  0.5662
   58SAPC  H16S 4362   4.310   6.056   4.720  1.6354 -0.6499 -1.0259
   58SAPC  C217 4363   4.229   6.003   4.530 -0.3710 -0.3151  0.4111
   58SAPC  H17R 4364   4.153   6.085   4.533  0.9555  1.0915 -1.6916
   58SAPC  H17S 4365   4.201   5.913   4.472  2.5576 -0.6518 -0.6523
   58SAPC  C218 4366   4.356   6.046   4.442 -0.0493  0.3100 -0.0962
   58SAPC  H18R 4367   4.430   5.963   4.451 -1.1019 -0.7096 -0.6463
   58SAPC  H18S 4368   4.399   6.138   4.487 -0.2858  0.4728 -0.2012
   58SAPC  C219 4369   4.330   6.081   4.295  0.2764  0.3775 -0.2391
   58SAPC  H19R 4370   4.266   6.171   4.287  0.6465  0.6858  0.1700
   58SAPC  H19S 4371   4.278   5.994   4.249  1.2719 -1.6549  2.2070
   58SAPC  C220 4372   4.456   6.113   4.217 -1.1049  0.1717 -0.4403
   58SAPC  H20R 4373   4.437   6.145   4.113 -0.2389 -1.8618 -1.2808
   58SAPC  H20S 4374   4.514   6.018   4.210 -2.4744 -0.8809  1.4674
   58SAPC  H20T 4375   4.518   6.189   4.269 -1.2695  1.1078 -1.5714
   58SAPC   C33 4376   4.120   6.830   5.927 -0.1654  0.0863  0.3649
   58SAPC   H3X 4377   4.108   6.908   6.005 -0.7397  0.7198 -0.3391
   58SAPC   H3Y 4378   4.017   6.810   5.890 -0.2559  1.5056 -0.2222
   58SAPC   C34 4379   4.183   6.898   5.803  0.5431  0.0378 -0.3547
   58SAPC   H4X 4380   4.290   6.920   5.824 -0.2035  3.9362  0.0929
   58SAPC   H4Y 4381   4.136   6.998   5.794 -1.1904 -0.6042  0.9891
   58SAPC   C35 4382   4.167   6.808   5.675  0.2745  0.2371 -0.5496
   58SAPC   H5X 4383   4.071   6.752   5.684 -0.6850  1.8160 -0.5332
   58SAPC   H5Y 4384   4.251   6.736   5.670  0.3962  0.4546 -2.3686
   58SAPC   C36 4385   4.167   6.896   5.554  0.2369  0.4108  0.2865
   58SAPC   H6X 4386   4.265   6.947   5.544  0.8797 -1.0437 -1.3771
   58SAPC   H6Y 4387   4.092   6.977   5.556 -0.4417 -0.0824 -2.1974
   58SAPC   C37 4388   4.127   6.823   5.428 -0.8279  0.2726  0.2076
   58SAPC   H7X 4389   4.016   6.829   5.423 -0.7646  0.4121 -2.9907
   58SAPC   H7Y 4390   4.155   6.717   5.446  0.9719  0.5183 -0.9185
   58SAPC   C38 4391   4.199   6.876   5.309  0.1646 -0.0029  0.5380
   58SAPC   H8X 4392   4.310   6.882   5.319  0.3490  2.6767 -1.9330
   58SAPC   H8Y 4393   4.162   6.979   5.291 -0.1907 -0.4078 -1.2912
   58SAPC   C39 4394   4.163   6.790   5.185 -0.5897  0.3251  0.0863
   58SAPC   H9X 4395   4.057   6.756   5.190 -0.9139  0.9743 -1.5957
   58SAPC   H9Y 4396   4.224   6.698   5.169  0.4155  0.6614  1.8209
   58SAPC  C310 4397   4.184   6.872   5.054 -0.0109  0.4195  0.0512
   58SAPC  H10X 4398   4.289   6.868   5.020  0.4553 -1.1056  1.5655
   58SAPC  H10Y 4399   4.156   6.978   5.071 -1.7462  0.1292 -0.6720
   58SAPC  C311 4400   4.100   6.814   4.939  0.0684  0.2917  0.2097
   58SAPC  H11X 4401   4.000   6.839   4.979 -0.4013  1.2895 -1.4661
   58SAPC  H11Y 4402   4.112   6.703   4.942  0.2092  0.2754 -0.6281
   58SAPC  C312 4403   4.137   6.882   4.807 -0.2278  0.8870 -0.1440
   58SAPC  H12X 4404   4.239   6.850   4.777 -0.7350  0.0502 -1.0447
   58SAPC  H12Y 4405   4.143   6.992   4.816  1.5404  0.8335 -0.3170
   58SAPC  C313 4406   4.056   6.841   4.683  0.5264  0.3889 -1.1417
   58SAPC  H13X 4407   4.067   6.731   4.671  0.8107  0.1529  1.0229
   58SAPC  H13Y 4408   4.111   6.889   4.599  1.3892  1.5474  0.0456
   58SAPC  C314 4409   3.911   6.898   4.689 -0.1202  0.0054  0.3067
   58SAPC  H14X 4410   3.908   7.003   4.653 -0.0744  0.4362  1.5141
   58SAPC  H14Y 4411   3.871   6.895   4.793 -1.0753  2.1607  0.0449
   58SAPC  C315 4412   3.824   6.822   4.587 -0.1347  0.5197 -0.5330
   58SAPC  H15X 4413   3.817   6.715   4.614 -1.6076  0.9213  0.8210
   58SAPC  H15Y 4414   3.874   6.814   4.488 -0.7958  1.1463 -0.9310
   58SAPC  C316 4415   3.683   6.870   4.582  0.2404 -0.2748  0.1039
   58SAPC  H16X 4416   3.675   6.979   4.566 -0.5410 -0.3779 -0.2724
   58SAPC  H16Y 4417   3.629   6.844   4.676  0.6847 -0.0027  0.4337
   58SAPC  C317 4418   3.599   6.805   4.468 -0.4748 -0.0776  0.6961
   58SAPC  H17X 4419   3.494   6.841   4.465 -0.4107  0.0806  0.1647
   58SAPC  H17Y 4420   3.602   6.694   4.477  1.4009 -0.3563 -1.9461
   58SAPC  C318 4421   3.643   6.827   4.324 -0.4015 -0.3868  0.5738
   58SAPC  H18X 4422   3.748   6.797   4.300 -0.0179  0.9872  0.4723
   58SAPC  H18Y 4423   3.635   6.934   4.297 -1.3442  0.1887  2.8494
   58SAPC  H18Z 4424   3.584   6.768   4.251 -2.1799  3.2681 -1.1680
   59SAPC     N 4425   2.850   1.516   6.850  0.3254 -0.6082  0.0947
   59SAPC   C12 4426   2.811   1.598   6.722 -0.4257  0.6334 -0.4589
   59SAPC  H12A 4427   2.783   1.694   6.763 -0.2783  1.2757 -1.7788
   59SAPC  H12B 4428   2.733   1.553   6.662 -0.9247 -0.3337  0.8858
   59SAPC   C13 4429   2.946   1.588   6.942  0.8346 -0.2471 -0.1642
   59SAPC  H13A 4430   3.051   1.589   6.916  1.5577  0.2480  2.5060
   59SAPC  H13B 4431   2.913   1.691   6.946  2.8006  0.4981 -1.4042
   59SAPC  H13C 4432   2.940   1.547   7.041 -2.0355 -0.3155 -0.2820
   59SAPC   C14 4433   2.727   1.482   6.928 -0.1147  0.2370  0.5776
   59SAPC  H14A 4434   2.678   1.569   6.968 -0.6118  0.3302 -0.2133
   59SAPC  H14B 4435   2.655   1.424   6.873 -1.7005  2.8196 -0.2086
   59SAPC  H14C 4436   2.753   1.426   7.017  0.3648 -0.7414 -0.1616
   59SAPC   C15 4437   2.917   1.387   6.809  0.3386  0.0898 -0.2197
   59SAPC  H15A 4438   3.007   1.394   6.751 -0.9102  2.6218 -2.0573
   59SAPC  H15B 4439   2.941   1.345   6.905 -1.3357  0.6202  0.4832
   59SAPC  H15C 4440   2.846   1.314   6.773  0.2246 -1.1061  2.2199
   59SAPC   C11 4441   2.925   1.628   6.628  0.2936  0.1998  0.0459
   59SAPC  H11A 4442   2.872   1.666   6.539 -0.1118 -0.7916 -0.1535
   59SAPC  H11B 4443   2.977   1.537   6.591  3.1703  1.0924  1.5770
   59SAPC     P 4444   2.983   1.872   6.709  0.0090  0.3487 -0.1614
   59SAPC   O13 4445   2.918   1.902   6.843 -0.5248 -0.2109  0.4782
   59SAPC   O14 4446   3.110   1.948   6.683 -0.3302  0.0194 -0.4359
   59SAPC   O12 4447   3.025   1.716   6.684  0.3145 -0.1797  0.0585
   59SAPC   O11 4448   2.877   1.903   6.592  0.1443 -0.0013 -0.2630
   59SAPC    C1 4449   2.915   1.993   6.487  0.1493  0.4833 -0.6338
   59SAPC    HA 4450   2.958   2.087   6.530 -1.1648  0.1402  1.5818
   59SAPC    HB 4451   2.981   1.941   6.415  1.1342  1.2155 -0.2851
   59SAPC    C2 4452   2.796   2.041   6.402  0.3769  0.1416 -0.2013
   59SAPC    HS 4453   2.744   1.951   6.363 -1.3976  2.2689 -3.2344
   59SAPC   O21 4454   2.852   2.126   6.301  0.1366  0.7039  0.3178
   59SAPC   C21 4455   2.871   2.071   6.183 -0.6507 -0.1202  0.5695
   59SAPC   O22 4456   2.860   1.951   6.159  0.1463  0.2620  0.1247
   59SAPC   C22 4457   2.919   2.178   6.080  0.6116 -0.5220  0.7160
   59SAPC   H2R 4458   2.832   2.240   6.052  1.1139 -0.2634 -0.3096
   59SAPC   H2S 4459   2.989   2.248   6.130 -1.1939  3.1245 -1.5173
   59SAPC    C3 4460   2.699   2.133   6.483 -0.3047  0.3406 -0.4771
   59SAPC    HX 4461   2.751   2.231   6.492 -1.7098  0.9631  1.3089
   59SAPC    HY 4462   2.682   2.084   6.581 -1.7539 -2.5897 -2.0459
   59SAPC   O31 4463   2.572   2.136   6.412  0.2016  0.6375  0.4394
   59SAPC   C31 4464   2.540   2.241   6.350 -0.0659  0.6956  0.3375
   59SAPC   O32 4465   2.605   2.341   6.334  0.0007  0.1238 -0.1714
   59SAPC   C32 4466   2.402   2.217   6.300  0.0670 -0.6222  0.3675
   59SAPC   H2X 4467   2.353   2.311   6.268 -0.4347 -0.9758  0.0918
   59SAPC   H2Y 4468   2.346   2.192   6.393 -0.3786  0.6279  0.4475
   59SAPC   C23 4469   2.978   2.114   5.955 -0.5103 -0.1216 -0.5851
   59SAPC   H3R 4470   3.007   2.190   5.880  0.9097 -1.2256 -1.2094
   59SAPC   H3S 4471   2.901   2.052   5.903 -0.6053 -2.0300  1.6538
   59SAPC   C24 4472   3.103   2.022   5.977  0.5946  0.2733 -0.3387
   59SAPC   H4R 4473   3.065   1.919   5.996 -3.4481  1.6445  0.0760
   59SAPC   H4S 4474   3.156   2.052   6.070  0.5430 -0.8127  0.0508
   59SAPC   C25 4475   3.191   2.009   5.855  0.1333 -0.1348 -0.3478
   59SAPC   H5R 4476   3.288   2.062   5.858  0.3800 -0.5799  3.0774
   59SAPC   C26 4477   3.167   1.941   5.744  0.2039  1.3989 -0.0052
   59SAPC   H6R 4478   3.247   1.939   5.668  1.1130  1.1135  0.9269
   59SAPC   C27 4479   3.040   1.864   5.717  0.5564 -0.3465  0.3449
   59SAPC   H7R 4480   2.979   1.846   5.809 -1.1689 -2.2753 -1.0738
   59SAPC   H7S 4481   3.063   1.763   5.678  0.3149  0.4892 -2.0955
   59SAPC   C28 4482   2.937   1.924   5.620 -0.0862 -0.7077 -0.6704
   59SAPC   H8R 4483   2.858   1.992   5.655 -0.4873 -0.4195 -2.0483
   59SAPC   C29 4484   2.929   1.901   5.485 -0.2001 -0.3162  0.1505
   59SAPC   H9R 4485   2.852   1.955   5.428  1.7130  0.6981 -1.6096
   59SAPC  C210 4486   3.022   1.813   5.403  0.7182  0.7201 -0.2274
   59SAPC  H10R 4487   3.117   1.807   5.460 -1.0324  0.4036  2.8835
   59SAPC  H10S 4488   3.048   1.868   5.309  0.0256  0.6448 -0.4658
   59SAPC  C211 4489   2.968   1.678   5.366 -0.2082 -0.5072  0.0083
   59SAPC  H11R 4490   2.887   1.637   5.427  0.0860 -1.4731 -0.2323
   59SAPC  C212 4491   3.007   1.602   5.263  0.0624  0.8083  0.0151
   59SAPC  H12R 4492   2.963   1.502   5.251  0.4757  0.4911  1.0710
   59SAPC  C213 4493   3.116   1.632   5.163  0.4080  0.2315 -0.0708
   59SAPC  H13R 4494   3.192   1.707   5.192  0.2241  0.0199  1.0015
   59SAPC  H13S 4495   3.069   1.666   5.068  1.4985  1.0755 -0.3242
   59SAPC  C214 4496   3.192   1.505   5.136  0.2940  0.0207  0.4761
   59SAPC  H14R 4497   3.137   1.414   5.165 -2.6862  1.2572 -0.8403
   59SAPC  C215 4498   3.312   1.496   5.076 -0.3158 -0.1548  0.6192
   59SAPC  H15R 4499   3.361   1.399   5.057 -0.1759 -0.4828  2.4659
   59SAPC  C216 4500   3.382   1.621   5.013  0.3696  0.2882 -0.0169
   59SAPC  H16R 4501   3.315   1.707   4.993 -0.5875  0.4022  3.0663
   59SAPC  H16S 4502   3.445   1.595   4.926  1.7080  1.2408  0.6402
   59SAPC  C217 4503   3.495   1.669   5.117  0.6420  0.0624  0.2874
   59SAPC  H17R 4504   3.555   1.580   5.145  0.1828 -1.2813 -2.6807
   59SAPC  H17S 4505   3.428   1.704   5.199 -0.2688 -1.8113  0.4095
   59SAPC  C218 4506   3.590   1.777   5.066 -0.1253  0.2232 -0.9291
   59SAPC  H18R 4507   3.523   1.834   4.999  1.0195  1.1050 -1.3708
   59SAPC  H18S 4508   3.671   1.729   5.006 -0.6606 -3.8932  1.2497
   59SAPC  C219 4509   3.650   1.864   5.178 -0.1485  0.2018 -0.6532
   59SAPC  H19R 4510   3.732   1.816   5.235 -1.1483  2.1278  2.6852
   59SAPC  H19S 4511   3.585   1.894   5.264 -0.1464 -1.5605  0.0035
   59SAPC  C220 4512   3.711   1.992   5.128 -0.7626 -0.8186  0.5921
   59SAPC  H20R 4513   3.801   1.965   5.069 -0.9423  0.4601 -0.3019
   59SAPC  H20S 4514   3.736   2.067   5.206 -1.9424 -0.1605  0.3710
   59SAPC  H20T 4515   3.641   2.043   5.058  0.9963 -2.0269 -2.2225
   59SAPC   C33 4516   2.402   2.108   6.191  0.0786  0.3702 -0.0065
   59SAPC   H3X 4517   2.304   2.067   6.160  1.3524 -3.1971  0.2042
   59SAPC   H3Y 4518   2.442   2.014   6.235 -3.7126 -0.1803  2.8096
   59SAPC   C34 4519   2.475   2.133   6.065 -0.1573  0.7993 -0.6709
   59SAPC   H4X 4520   2.584   2.113   6.076 -0.4643 -0.6290 -0.0400
   59SAPC   H4Y 4521   2.474   2.240   6.035 -0.4432  1.3880  1.3126
   59SAPC   C35 4522   2.416   2.041   5.956 -0.3259  0.6126  0.4328
   59SAPC   H5X 4523   2.307   2.021   5.961 -0.4208 -0.1540 -2.8723
   59SAPC   H5Y 4524   2.459   1.939   5.969 -2.6848 -0.5020 -0.1331
   59SAPC   C36 4525   2.473   2.090   5.819  0.5363 -0.4356 -0.0262
   59SAPC   H6X 4526   2.581   2.116   5.826  0.4831  0.3906 -1.6235
   59SAPC   H6Y 4527   2.421   2.187   5.802 -1.8347 -1.4858  0.8437
   59SAPC   C37 4528   2.448   2.011   5.690 -1.1920  0.5212 -0.0723
   59SAPC   H7X 4529   2.345   1.970   5.692 -1.0427 -0.0630 -1.9475
   59SAPC   H7Y 4530   2.515   1.923   5.680  0.1695  1.3813  0.9889
   59SAPC   C38 4531   2.465   2.097   5.570  0.0583  0.5166  0.2479
   59SAPC   H8X 4532   2.570   2.124   5.544 -0.3275  3.3180  1.2637
   59SAPC   H8Y 4533   2.415   2.195   5.565  2.0823  1.5935 -0.1189
   59SAPC   C39 4534   2.407   2.018   5.446  0.6222 -0.3668 -0.3783
   59SAPC   H9X 4535   2.297   2.028   5.453  0.6481 -0.0376 -0.4556
   59SAPC   H9Y 4536   2.432   1.910   5.446  0.7149 -0.3664  0.8827
   59SAPC  C310 4537   2.443   2.079   5.306 -0.1337  0.1267  0.0664
   59SAPC  H10X 4538   2.553   2.068   5.301  0.0865  1.4037  1.5182
   59SAPC  H10Y 4539   2.427   2.189   5.304 -1.9772 -0.0904  0.8141
   59SAPC  C311 4540   2.351   2.021   5.193 -0.4931 -0.5738 -1.3015
   59SAPC  H11X 4541   2.246   2.057   5.194 -0.6686 -1.0344  0.3844
   59SAPC  H11Y 4542   2.339   1.912   5.209 -1.0882 -0.0487  3.0561
   59SAPC  C312 4543   2.408   2.048   5.051 -0.2927 -0.0555  0.2696
   59SAPC  H12X 4544   2.517   2.028   5.053  0.7617  4.3694 -1.0328
   59SAPC  H12Y 4545   2.381   2.153   5.027 -1.1767 -0.1686  0.7420
   59SAPC  C313 4546   2.328   1.959   4.947  0.7251  0.7187 -1.3146
   59SAPC  H13X 4547   2.223   1.993   4.956 -0.1622 -1.6734 -1.7835
   59SAPC  H13Y 4548   2.322   1.851   4.973 -0.7144  0.1712 -3.6420
   59SAPC  C314 4549   2.356   1.964   4.796 -0.3030 -0.1279 -0.3535
   59SAPC  H14X 4550   2.461   1.932   4.776  0.0169  0.5391  0.2330
   59SAPC  H14Y 4551   2.333   2.068   4.764 -0.7766 -0.7573 -2.2128
   59SAPC  C315 4552   2.255   1.872   4.727 -0.1417 -0.7641  0.0789
   59SAPC  H15X 4553   2.148   1.879   4.758 -0.1268 -1.2959  0.2628
   59SAPC  H15Y 4554   2.303   1.775   4.748  1.8453  0.2583  0.4451
   59SAPC  C316 4555   2.257   1.906   4.576  0.2681 -0.1479  0.7112
   59SAPC  H16X 4556   2.355   1.880   4.529 -1.2343 -0.5915 -2.5040
   59SAPC  H16Y 4557   2.255   2.017   4.570  1.5676 -0.1561 -0.6401
   59SAPC  C317 4558   2.136   1.861   4.495 -0.6406 -0.1861  0.2333
   59SAPC  H17X 4559   2.044   1.890   4.550 -0.4144 -0.4448  0.7501
   59SAPC  H17Y 4560   2.133   1.750   4.491 -0.7956 -0.2051  0.8745
   59SAPC  C318 4561   2.145   1.918   4.360  0.3756 -0.5863  0.3141
   59SAPC  H18X 4562   2.244   1.882   4.327  0.5253 -0.1080  0.2276
   59SAPC  H18Y 4563   2.136   2.028   4.373  2.0054 -0.4539  0.4618
   59SAPC  H18Z 4564   2.080   1.870   4.284  2.6542 -3.0933 -0.2095
   60SAPC     N 4565   3.462   3.416   6.539 -0.7568  0.1646  0.4673
   60SAPC   C12 4566   3.563   3.443   6.426  0.0621  0.2575 -0.2560
   60SAPC  H12A 4567   3.536   3.373   6.348  0.4116 -0.6447  0.4205
   60SAPC  H12B 4568   3.663   3.413   6.452  0.4449  1.9528  0.3497
   60SAPC   C13 4569   3.475   3.515   6.652 -0.1364  0.0660  0.4849
   60SAPC  H13A 4570   3.578   3.533   6.676  0.1378  2.0344 -1.8240
   60SAPC  H13B 4571   3.443   3.615   6.624 -1.5355 -0.4805  0.0360
   60SAPC  H13C 4572   3.415   3.498   6.741  1.1483 -1.3262  1.1122
   60SAPC   C14 4573   3.323   3.430   6.486 -0.0834  0.2627  0.3921
   60SAPC  H14A 4574   3.311   3.533   6.458 -0.1468 -0.1523 -1.2115
   60SAPC  H14B 4575   3.299   3.370   6.399  0.5647  1.0589 -0.3514
   60SAPC  H14C 4576   3.259   3.411   6.571 -1.8993  2.3815 -0.4080
   60SAPC   C15 4577   3.472   3.275   6.585  0.2061 -0.0870  0.4370
   60SAPC  H15A 4578   3.403   3.246   6.663 -0.5907 -0.3025 -0.3377
   60SAPC  H15B 4579   3.477   3.211   6.499  1.3874 -1.7272  1.6658
   60SAPC  H15C 4580   3.571   3.257   6.624  1.6284  1.8711 -1.9802
   60SAPC   C11 4581   3.579   3.580   6.365  0.1140 -0.1006  0.5044
   60SAPC  H11A 4582   3.480   3.624   6.342  0.0715 -1.0940 -1.4346
   60SAPC  H11B 4583   3.629   3.569   6.266 -0.3943  0.9555  0.1107
   60SAPC     P 4584   3.651   3.816   6.463 -0.0798  0.0151  0.0405
   60SAPC   O13 4585   3.526   3.858   6.527 -0.1327  0.1361 -0.0847
   60SAPC   O14 4586   3.781   3.866   6.517  0.3175 -0.2997  0.6893
   60SAPC   O12 4587   3.661   3.655   6.449  0.0492  0.6467 -0.2637
   60SAPC   O11 4588   3.640   3.876   6.314  0.3778 -0.2265 -0.4712
   60SAPC    C1 4589   3.755   3.884   6.226 -0.0115  0.2585 -0.6974
   60SAPC    HA 4590   3.801   3.982   6.246 -0.8535  0.3851  0.8159
   60SAPC    HB 4591   3.832   3.812   6.260 -1.6116 -0.6250  1.3335
   60SAPC    C2 4592   3.717   3.856   6.079  0.1473  0.6124 -0.0974
   60SAPC    HS 4593   3.653   3.943   6.052  1.4893  1.6510 -0.0570
   60SAPC   O21 4594   3.642   3.736   6.077 -0.1146  0.9080  0.3021
   60SAPC   C21 4595   3.540   3.735   5.992 -0.3820 -0.0095  0.7703
   60SAPC   O22 4596   3.517   3.822   5.909 -0.4333  0.5151 -0.1337
   60SAPC   C22 4597   3.452   3.620   6.029  0.0533  0.3309  0.8618
   60SAPC   H2R 4598   3.508   3.541   6.084  0.4459 -0.0895 -0.1205
   60SAPC   H2S 4599   3.372   3.654   6.098 -0.3211  0.0475  0.5755
   60SAPC    C3 4600   3.842   3.847   5.985  0.0231 -0.0179  0.4156
   60SAPC    HX 4601   3.901   3.764   6.030  3.7309  1.2929 -1.5731
   60SAPC    HY 4602   3.917   3.928   5.998  2.0294 -1.9125  1.1235
   60SAPC   O31 4603   3.795   3.833   5.853  0.2783  0.7532 -0.0374
   60SAPC   C31 4604   3.782   3.706   5.804  0.2131  0.0354  0.3301
   60SAPC   O32 4605   3.813   3.608   5.867  0.1947  0.2956  0.6146
   60SAPC   C32 4606   3.734   3.722   5.665 -0.0373 -0.1974  0.3586
   60SAPC   H2X 4607   3.768   3.816   5.618  0.2458 -0.5574 -0.1742
   60SAPC   H2Y 4608   3.624   3.734   5.678 -0.2165 -0.1094 -1.0778
   60SAPC   C23 4609   3.367   3.551   5.916  0.1148  0.8070  0.1085
   60SAPC   H3R 4610   3.323   3.625   5.845 -0.3735 -0.1279 -0.5842
   60SAPC   H3S 4611   3.279   3.513   5.971  0.5862 -1.5193 -0.6184
   60SAPC   C24 4612   3.436   3.419   5.857  0.4421 -0.0953 -0.3450
   60SAPC   H4R 4613   3.468   3.359   5.945  0.5921  1.7296  0.8994
   60SAPC   H4S 4614   3.529   3.443   5.801 -0.4448  0.4362 -1.6447
   60SAPC   C25 4615   3.345   3.340   5.771 -0.4476  0.1986  0.0320
   60SAPC   H5R 4616   3.310   3.244   5.812  1.0501  0.4623  2.0912
   60SAPC   C26 4617   3.310   3.375   5.650 -0.4210  0.2081  0.1451
   60SAPC   H6R 4618   3.242   3.307   5.597 -0.9345 -0.3012  1.4281
   60SAPC   C27 4619   3.360   3.499   5.572 -0.0027  0.4251  0.4341
   60SAPC   H7R 4620   3.425   3.457   5.492 -2.5236  2.3781 -2.9190
   60SAPC   H7S 4621   3.415   3.574   5.632 -0.4793  0.7741  0.4447
   60SAPC   C28 4622   3.245   3.557   5.491  0.2538 -0.2072 -0.7874
   60SAPC   H8R 4623   3.167   3.587   5.562  0.5625 -0.9676 -0.1222
   60SAPC   C29 4624   3.220   3.547   5.362 -0.5993  0.1874  0.1004
   60SAPC   H9R 4625   3.117   3.569   5.332 -0.6510  0.4648  0.4795
   60SAPC  C210 4626   3.308   3.491   5.244 -0.1775  0.3540  0.4303
   60SAPC  H10R 4627   3.244   3.474   5.155 -0.0086  1.6376  0.0468
   60SAPC  H10S 4628   3.330   3.389   5.281  0.0694  0.9993  2.1679
   60SAPC  C211 4629   3.436   3.571   5.218  0.4368 -0.2072 -0.5046
   60SAPC  H11R 4630   3.490   3.592   5.312 -0.2937  2.6592 -0.6459
   60SAPC  C212 4631   3.473   3.615   5.102  0.1586 -0.2744  0.6663
   60SAPC  H12R 4632   3.574   3.658   5.088 -0.4724  0.7915 -0.9534
   60SAPC  C213 4633   3.387   3.596   4.973 -0.4306 -0.1513 -0.0611
   60SAPC  H13R 4634   3.282   3.626   4.994 -0.3829 -0.3571  0.4766
   60SAPC  H13S 4635   3.368   3.489   4.949 -0.9386  0.1599 -1.1699
   60SAPC  C214 4636   3.438   3.677   4.854 -0.2336 -0.3005  0.1077
   60SAPC  H14R 4637   3.419   3.785   4.864 -1.7745 -0.7240  2.9154
   60SAPC  C215 4638   3.481   3.632   4.735 -0.2919  0.5652 -0.3448
   60SAPC  H15R 4639   3.529   3.699   4.663 -1.1391  0.2354 -1.2457
   60SAPC  C216 4640   3.504   3.486   4.703  0.1859  0.0541  0.4482
   60SAPC  H16R 4641   3.481   3.418   4.787 -1.9471  2.3320  1.8311
   60SAPC  H16S 4642   3.609   3.462   4.673 -0.3474 -0.9393 -0.7453
   60SAPC  C217 4643   3.416   3.435   4.588  0.6060  0.9518  0.4289
   60SAPC  H17R 4644   3.311   3.431   4.624  0.1594 -0.6983 -0.8984
   60SAPC  H17S 4645   3.421   3.325   4.572  0.4558  1.0411 -0.2500
   60SAPC  C218 4646   3.427   3.495   4.449  0.2829 -0.0858 -0.2236
   60SAPC  H18R 4647   3.466   3.599   4.458 -1.3324  0.6251 -0.8937
   60SAPC  H18S 4648   3.328   3.526   4.408  0.5744  0.7959 -0.2778
   60SAPC  C219 4649   3.510   3.414   4.354 -0.4464 -0.4791  0.2347
   60SAPC  H19R 4650   3.525   3.487   4.272 -1.2518  0.2729  0.7383
   60SAPC  H19S 4651   3.447   3.335   4.308 -3.1113  1.6939 -0.1423
   60SAPC  C220 4652   3.656   3.374   4.391  0.7854 -0.1819  0.1476
   60SAPC  H20R 4653   3.664   3.330   4.493  0.6014  1.1075  0.7512
   60SAPC  H20S 4654   3.728   3.459   4.388  2.9574 -1.9526 -1.3685
   60SAPC  H20T 4655   3.681   3.292   4.321 -3.2548 -1.9576  0.5095
   60SAPC   C33 4656   3.761   3.595   5.580  0.2596  0.8563 -0.1447
   60SAPC   H3X 4657   3.716   3.612   5.480  0.1563  1.2153 -0.0362
   60SAPC   H3Y 4658   3.714   3.503   5.622  1.5624  0.9127  1.5308
   60SAPC   C34 4659   3.908   3.563   5.561 -0.2007  0.6943 -0.6834
   60SAPC   H4X 4660   3.927   3.481   5.489  1.9153 -0.2555  0.8813
   60SAPC   H4Y 4661   3.951   3.525   5.656 -3.3457  2.1227  1.5200
   60SAPC   C35 4662   4.009   3.681   5.515  0.0956  0.2284 -0.0310
   60SAPC   H5X 4663   4.108   3.636   5.491  0.3602  1.7689 -2.0773
   60SAPC   H5Y 4664   4.023   3.761   5.592  0.2173 -1.0092  1.2815
   60SAPC   C36 4665   3.948   3.744   5.384  0.0910  0.2982  0.5902
   60SAPC   H6X 4666   4.032   3.812   5.357 -0.9416  1.2419 -0.3159
   60SAPC   H6Y 4667   3.855   3.804   5.390 -0.9294 -1.0672 -0.8182
   60SAPC   C37 4668   3.943   3.652   5.264 -0.4396  0.2145 -0.2394
   60SAPC   H7X 4669   3.836   3.621   5.258 -0.0490 -1.0702 -1.0386
   60SAPC   H7Y 4670   4.021   3.575   5.279 -1.7034 -0.8342  1.2265
   60SAPC   C38 4671   3.981   3.723   5.130  0.7743  0.3381  0.0880
   60SAPC   H8X 4672   4.091   3.737   5.135  1.0257 -1.5575  0.8682
   60SAPC   H8Y 4673   3.928   3.820   5.141 -0.0205  0.2634 -2.4140
   60SAPC   C39 4674   3.929   3.654   5.008  0.0201  1.1954 -0.0167
   60SAPC   H9X 4675   3.818   3.649   5.005  0.0120  0.7081  0.8768
   60SAPC   H9Y 4676   3.969   3.550   5.006  0.2140  1.2673  0.0576
   60SAPC  C310 4677   3.986   3.717   4.880 -0.0330 -0.2500 -0.0646
   60SAPC  H10X 4678   4.089   3.681   4.859  0.9417  2.3846 -0.1028
   60SAPC  H10Y 4679   3.985   3.828   4.881 -0.2389 -0.2281 -1.0618
   60SAPC  C311 4680   3.898   3.687   4.758  0.0794 -0.4499  0.0076
   60SAPC  H11X 4681   3.795   3.726   4.767 -0.7687 -1.5718 -3.3833
   60SAPC  H11Y 4682   3.885   3.578   4.744  0.8673 -0.9344  2.5242
   60SAPC  C312 4683   3.979   3.727   4.630  0.3720 -0.2666  0.4424
   60SAPC  H12X 4684   4.067   3.658   4.632 -0.7964 -1.8189  0.3215
   60SAPC  H12Y 4685   4.013   3.832   4.629 -0.5842  0.0474  0.0363
   60SAPC  C313 4686   3.914   3.692   4.489  0.0843  0.4082 -0.4927
   60SAPC  H13X 4687   3.832   3.763   4.469 -1.0947 -0.6699  0.3675
   60SAPC  H13Y 4688   3.878   3.589   4.509  0.3521  0.3972 -0.0457
   60SAPC  C314 4689   4.015   3.696   4.373 -0.0720  0.1476  0.2507
   60SAPC  H14X 4690   3.967   3.641   4.289 -1.2572 -2.1309  2.3087
   60SAPC  H14Y 4691   4.106   3.640   4.402 -0.2810 -0.2591  0.1189
   60SAPC  C315 4692   4.057   3.836   4.330  0.1273 -0.6941 -0.5749
   60SAPC  H15X 4693   4.106   3.887   4.416  0.4195 -0.6391 -0.7702
   60SAPC  H15Y 4694   3.968   3.894   4.296 -0.3820 -1.2247 -0.1552
   60SAPC  C316 4695   4.147   3.833   4.203 -0.4334 -0.3990  0.6560
   60SAPC  H16X 4696   4.158   3.727   4.172  0.5428 -0.3617  0.8441
   60SAPC  H16Y 4697   4.247   3.869   4.234  0.0815 -1.5269  0.3464
   60SAPC  C317 4698   4.102   3.934   4.095  0.1419  0.6622  0.2020
   60SAPC  H17X 4699   4.102   4.038   4.134 -2.5223  1.4061 -1.5025
   60SAPC  H17Y 4700   3.993   3.929   4.070  0.2844  2.3004 -0.8468
   60SAPC  C318 4701   4.186   3.907   3.969  0.0774 -0.0031  0.1597
   60SAPC  H18X 4702   4.296   3.898   3.986  0.4459 -1.5579 -2.4777
   60SAPC  H18Y 4703   4.174   3.991   3.897 -0.5899  0.7896  1.1816
   60SAPC  H18Z 4704   4.157   3.810   3.924 -0.6161  0.7935 -1.1918
   61SAPC     N 4705   6.325   2.583   6.719 -0.6129  0.4066 -0.6679
   61SAPC   C12 4706   6.379   2.440   6.730  0.9232  0.0452 -0.8728
   61SAPC  H12A 4707   6.429   2.410   6.639  0.5369 -1.7469 -0.5343
   61SAPC  H12B 4708   6.297   2.370   6.733  0.5389  0.4959  1.1618
   61SAPC   C13 4709   6.256   2.623   6.846 -0.9399 -0.3841  0.1564
   61SAPC  H13A 4710   6.158   2.581   6.857 -0.9095 -1.0438 -1.7299
   61SAPC  H13B 4711   6.316   2.602   6.933 -0.1346 -0.0480 -0.3019
   61SAPC  H13C 4712   6.238   2.730   6.842 -1.9459 -0.5802 -1.6945
   61SAPC   C14 4713   6.443   2.678   6.692  0.6277 -0.4856 -0.2810
   61SAPC  H14A 4714   6.506   2.653   6.608 -0.6816 -2.1413 -0.8053
   61SAPC  H14B 4715   6.400   2.776   6.675  3.9874  1.4879  1.4002
   61SAPC  H14C 4716   6.516   2.672   6.772  1.4089 -0.6574 -0.9942
   61SAPC   C15 4717   6.232   2.589   6.606  0.5503  0.0162  0.1668
   61SAPC  H15A 4718   6.186   2.687   6.598  1.3947  0.6946  2.8235
   61SAPC  H15B 4719   6.287   2.564   6.516  0.0389 -1.7424  0.3122
   61SAPC  H15C 4720   6.154   2.516   6.622 -0.5332  1.5133  2.2320
   61SAPC   C11 4721   6.479   2.404   6.846 -0.2456 -0.2414 -0.1456
   61SAPC  H11A 4722   6.485   2.293   6.847  1.0022 -0.2169  1.5636
   61SAPC  H11B 4723   6.437   2.425   6.947  0.4419 -0.3432  0.1729
   61SAPC     P 4724   6.713   2.422   6.729 -0.1193  0.1766  0.5951
   61SAPC   O13 4725   6.827   2.517   6.739 -0.1231  0.1165  0.0756
   61SAPC   O14 4726   6.750   2.280   6.749 -0.4597  0.5968  0.1903
   61SAPC   O12 4727   6.608   2.464   6.838  0.2443  0.1380 -0.1871
   61SAPC   O11 4728   6.640   2.442   6.588  0.0121 -0.0350  0.2571
   61SAPC    C1 4729   6.719   2.491   6.483  0.2264  0.2186  0.3235
   61SAPC    HA 4730   6.776   2.583   6.510  0.8617  0.3428 -1.3456
   61SAPC    HB 4731   6.787   2.408   6.455  0.7009  0.4475  0.7667
   61SAPC    C2 4732   6.631   2.518   6.361  0.6765  0.2246  0.1231
   61SAPC    HS 4733   6.549   2.582   6.399  0.5403  1.1874 -1.6535
   61SAPC   O21 4734   6.588   2.393   6.297 -0.1636  0.0152  0.3242
   61SAPC   C21 4735   6.464   2.352   6.323  0.1171 -0.0184 -1.0281
   61SAPC   O22 4736   6.380   2.421   6.374 -0.1583 -0.0595  0.1031
   61SAPC   C22 4737   6.443   2.222   6.254  0.1732  0.0193  0.4338
   61SAPC   H2R 4738   6.531   2.181   6.201  0.4278  0.2980  0.6430
   61SAPC   H2S 4739   6.416   2.146   6.330 -1.7294  1.7691  1.6402
   61SAPC    C3 4740   6.714   2.600   6.262  0.1373 -0.0753  0.5139
   61SAPC    HX 4741   6.794   2.530   6.231 -0.0633  0.7146 -2.0494
   61SAPC    HY 4742   6.765   2.688   6.306  0.5889  0.7749 -1.5967
   61SAPC   O31 4743   6.661   2.639   6.133  0.1454  0.2419  0.1702
   61SAPC   C31 4744   6.577   2.736   6.151  0.6763  0.6302 -0.1188
   61SAPC   O32 4745   6.555   2.789   6.259  0.3565  0.0542 -0.5545
   61SAPC   C32 4746   6.515   2.764   6.019  0.3659 -0.1363  0.1983
   61SAPC   H2X 4747   6.416   2.806   6.047 -0.5836  0.2074 -3.1962
   61SAPC   H2Y 4748   6.501   2.670   5.961  0.4940  0.4775 -0.8577
   61SAPC   C23 4749   6.337   2.243   6.137  0.5580 -0.6327  0.5802
   61SAPC   H3R 4750   6.233   2.261   6.170  0.2398  0.3971 -0.8448
   61SAPC   H3S 4751   6.326   2.153   6.073 -2.2420  0.6936 -0.9741
   61SAPC   C24 4752   6.366   2.356   6.034 -1.2718  0.1873  0.0412
   61SAPC   H4R 4753   6.354   2.446   6.099  0.8960 -0.3842  1.3416
   61SAPC   H4S 4754   6.284   2.365   5.960  0.1371  2.7645 -1.3961
   61SAPC   C25 4755   6.498   2.353   5.965 -0.0271 -0.5300  0.3681
   61SAPC   H5R 4756   6.582   2.404   6.015 -2.1275  3.4337  0.1710
   61SAPC   C26 4757   6.528   2.297   5.846 -0.1389 -0.5739 -0.2465
   61SAPC   H6R 4758   6.634   2.309   5.817 -0.1210  0.7944  0.3118
   61SAPC   C27 4759   6.429   2.208   5.773 -0.1298 -0.1743 -0.4098
   61SAPC   H7R 4760   6.342   2.175   5.834 -0.0313 -0.1966 -0.2828
   61SAPC   H7S 4761   6.477   2.115   5.736 -1.6139 -0.4256 -1.8130
   61SAPC   C28 4762   6.374   2.271   5.650  0.5373  0.0690  0.1852
   61SAPC   H8R 4763   6.321   2.365   5.671 -1.2234 -0.4964 -1.4420
   61SAPC   C29 4764   6.389   2.241   5.521  0.0450  0.5112 -0.3188
   61SAPC   H9R 4765   6.354   2.321   5.453 -1.3283  1.1692  1.0974
   61SAPC  C210 4766   6.463   2.119   5.468 -0.4480  0.2509 -0.6867
   61SAPC  H10R 4767   6.404   2.028   5.489 -0.7906  1.1729  3.0559
   61SAPC  H10S 4768   6.551   2.096   5.531 -1.0561  0.6929  0.3422
   61SAPC  C211 4769   6.510   2.122   5.323 -0.2010 -0.3811 -0.4498
   61SAPC  H11R 4770   6.593   2.192   5.311  0.1343 -0.9935 -1.9143
   61SAPC  C212 4771   6.453   2.056   5.215 -0.6853 -0.0595 -0.5027
   61SAPC  H12R 4772   6.499   2.084   5.119  1.1925  1.6770  0.8200
   61SAPC  C213 4773   6.330   1.965   5.224  0.1143 -0.0611  0.2354
   61SAPC  H13R 4774   6.280   1.979   5.323 -0.1034 -1.7699  0.4090
   61SAPC  H13S 4775   6.346   1.856   5.212 -1.2691 -0.3573  0.7847
   61SAPC  C214 4776   6.231   1.996   5.120  0.4294 -0.2593  0.1788
   61SAPC  H14R 4777   6.186   2.096   5.132 -2.2310 -1.3264 -0.1614
   61SAPC  C215 4778   6.181   1.911   5.032 -0.5311 -0.0811  0.4468
   61SAPC  H15R 4779   6.106   1.945   4.959 -0.2442 -1.3511 -0.4752
   61SAPC  C216 4780   6.202   1.765   5.006 -0.0018  0.1326  0.7474
   61SAPC  H16R 4781   6.250   1.725   5.098  1.7766  0.8486  0.1590
   61SAPC  H16S 4782   6.274   1.750   4.923 -3.4258  0.0469 -2.4747
   61SAPC  C217 4783   6.072   1.675   4.991  0.4949 -0.7685  0.0681
   61SAPC  H17R 4784   5.994   1.687   5.069 -0.8937 -1.3461 -1.1638
   61SAPC  H17S 4785   6.113   1.573   5.004  0.7248 -0.3684  3.4306
   61SAPC  C218 4786   5.996   1.683   4.855 -0.4731  0.6451  0.6852
   61SAPC  H18R 4787   5.928   1.771   4.853 -1.5106 -0.1578 -1.1877
   61SAPC  H18S 4788   5.940   1.588   4.845 -0.9219  0.9822 -0.0945
   61SAPC  C219 4789   6.085   1.706   4.742  0.4284 -0.1277  0.7234
   61SAPC  H19R 4790   6.168   1.634   4.757  0.9110  0.2658  0.0019
   61SAPC  H19S 4791   6.125   1.808   4.759 -1.1892  0.3803  1.7587
   61SAPC  C220 4792   6.025   1.680   4.606  0.1374 -0.0679  0.8119
   61SAPC  H20R 4793   5.983   1.582   4.578  0.3793  0.6990 -2.6901
   61SAPC  H20S 4794   6.095   1.705   4.524  0.3358  1.7103  1.4596
   61SAPC  H20T 4795   5.943   1.755   4.597  1.1034  0.9453  0.1012
   61SAPC   C33 4796   6.594   2.867   5.941  0.0745 -0.5363  0.9845
   61SAPC   H3X 4797   6.696   2.822   5.935 -0.3096 -1.4883  1.4276
   61SAPC   H3Y 4798   6.596   2.964   5.994 -0.3428  0.1204 -0.1637
   61SAPC   C34 4799   6.523   2.878   5.809  0.3951 -0.0437  1.0033
   61SAPC   H4X 4800   6.425   2.923   5.835  0.8032  1.6244 -0.1398
   61SAPC   H4Y 4801   6.500   2.775   5.775 -0.8201  0.8888 -1.1557
   61SAPC   C35 4802   6.589   2.973   5.706 -0.3372 -0.1745 -0.2737
   61SAPC   H5X 4803   6.689   2.934   5.676  1.3150  2.8884  0.8544
   61SAPC   H5Y 4804   6.610   3.070   5.755 -2.1859  1.2834 -2.2152
   61SAPC   C36 4805   6.499   2.983   5.584 -0.2954 -0.1582  0.0204
   61SAPC   H6X 4806   6.406   3.039   5.607 -0.4835 -0.5273  0.1758
   61SAPC   H6Y 4807   6.466   2.885   5.544 -0.1191 -0.6579  1.0502
   61SAPC   C37 4808   6.582   3.061   5.480 -0.1222  0.1674 -0.5329
   61SAPC   H7X 4809   6.651   2.984   5.439  0.9215  0.7235  0.0976
   61SAPC   H7Y 4810   6.648   3.134   5.533 -1.5901  1.1580 -0.0235
   61SAPC   C38 4811   6.490   3.118   5.373 -0.5443  0.1054 -0.5920
   61SAPC   H8X 4812   6.420   3.189   5.423 -0.5948 -1.2819  1.4230
   61SAPC   H8Y 4813   6.417   3.043   5.335 -1.1341 -0.7201  1.9843
   61SAPC   C39 4814   6.570   3.171   5.253 -0.5351  0.0438  0.0069
   61SAPC   H9X 4815   6.604   3.094   5.180 -0.1274  0.1294  0.1037
   61SAPC   H9Y 4816   6.666   3.212   5.292 -0.3555 -1.6762  1.4775
   61SAPC  C310 4817   6.500   3.281   5.184 -0.4070 -0.5655 -0.1459
   61SAPC  H10X 4818   6.477   3.367   5.250 -1.9042 -0.2412 -1.0440
   61SAPC  H10Y 4819   6.407   3.237   5.142  1.0864 -3.0147 -1.0973
   61SAPC  C311 4820   6.590   3.324   5.065 -0.5277  0.2092 -0.5170
   61SAPC  H11X 4821   6.622   3.230   5.015  0.9468 -0.4219  1.4828
   61SAPC  H11Y 4822   6.681   3.383   5.089  2.3996 -3.1718 -2.3237
   61SAPC  C312 4823   6.523   3.419   4.962  0.6349  0.2304 -0.0943
   61SAPC  H12X 4824   6.598   3.441   4.884 -1.0855  0.5077 -1.7246
   61SAPC  H12Y 4825   6.491   3.511   5.015 -1.6757 -1.7833  2.2880
   61SAPC  C313 4826   6.400   3.357   4.892  0.7113 -0.5511 -0.4559
   61SAPC  H13X 4827   6.317   3.356   4.966  0.3063  0.3264 -0.8945
   61SAPC  H13Y 4828   6.428   3.252   4.868 -0.2680 -0.9214 -0.0508
   61SAPC  C314 4829   6.348   3.419   4.763 -0.6880 -0.0579  0.1202
   61SAPC  H14X 4830   6.291   3.341   4.709  0.9225  0.0255 -1.7929
   61SAPC  H14Y 4831   6.430   3.437   4.691 -0.6701 -0.5991  0.0043
   61SAPC  C315 4832   6.271   3.555   4.771  0.3378  0.4600 -0.5705
   61SAPC  H15X 4833   6.338   3.630   4.820  0.6621  1.0658 -1.9092
   61SAPC  H15Y 4834   6.184   3.533   4.837  1.8222  1.0294  1.7241
   61SAPC  C316 4835   6.231   3.614   4.639 -0.4077  0.1434  0.6552
   61SAPC  H16X 4836   6.171   3.534   4.591 -0.7884 -0.1502  1.5931
   61SAPC  H16Y 4837   6.324   3.630   4.580 -0.3436 -1.3247  0.3228
   61SAPC  C317 4838   6.152   3.746   4.650  0.0359  0.1449  0.0823
   61SAPC  H17X 4839   6.214   3.824   4.699 -0.2838  1.0734 -0.9569
   61SAPC  H17Y 4840   6.067   3.741   4.722 -0.3371  0.7464 -0.3055
   61SAPC  C318 4841   6.092   3.781   4.515 -0.0515  0.0337  0.1137
   61SAPC  H18X 4842   6.030   3.873   4.518 -0.6554 -0.3693  0.0997
   61SAPC  H18Y 4843   6.016   3.703   4.493  0.6978 -1.4392  2.4428
   61SAPC  H18Z 4844   6.174   3.780   4.439  0.2237  0.8165  0.3875
   62SAPC     N 4845   3.240   0.899   6.803 -0.4130  0.0681 -0.9704
   62SAPC   C12 4846   3.219   0.755   6.756 -0.1051  0.0660 -0.5925
   62SAPC  H12A 4847   3.268   0.682   6.819 -0.7697  1.3360  1.4802
   62SAPC  H12B 4848   3.275   0.741   6.665  0.8684 -4.4781  0.4151
   62SAPC   C13 4849   3.138   0.932   6.906  0.7471 -0.0967 -0.5455
   62SAPC  H13A 4850   3.051   0.958   6.848  1.6163  1.0758 -1.3727
   62SAPC  H13B 4851   3.119   0.845   6.966 -3.0840 -0.5896 -2.1916
   62SAPC  H13C 4852   3.160   1.019   6.965 -0.2606 -0.5020  0.4566
   62SAPC   C14 4853   3.369   0.905   6.866  0.3528 -0.2322  0.7627
   62SAPC  H14A 4854   3.395   1.005   6.900  0.6282 -0.5452  1.4836
   62SAPC  H14B 4855   3.368   0.857   6.962  2.7456 -1.0982  0.4119
   62SAPC  H14C 4856   3.451   0.874   6.802 -0.6434 -1.5306  0.0751
   62SAPC   C15 4857   3.229   0.988   6.690 -0.8237  0.5009  0.3348
   62SAPC  H15A 4858   3.135   0.965   6.642 -0.8618 -1.4168  1.2347
   62SAPC  H15B 4859   3.238   1.090   6.723  3.0366  0.6736 -0.7538
   62SAPC  H15C 4860   3.307   0.974   6.616 -1.7168 -1.8147 -0.2735
   62SAPC   C11 4861   3.079   0.706   6.732 -0.8695 -0.2235  0.5275
   62SAPC  H11A 4862   3.028   0.704   6.831 -1.2447 -1.7119  0.3306
   62SAPC  H11B 4863   3.084   0.601   6.696 -0.7547 -0.3796  0.9941
   62SAPC     P 4864   2.875   0.864   6.649 -0.0944 -0.1978  0.1050
   62SAPC   O13 4865   2.801   0.815   6.771  0.0869  0.1414  0.1017
   62SAPC   O14 4866   2.906   1.011   6.652  0.6780  0.1527 -1.0940
   62SAPC   O12 4867   3.013   0.780   6.630 -0.3427  0.6599 -0.2520
   62SAPC   O11 4868   2.794   0.826   6.529  0.0918  0.2014  0.1620
   62SAPC    C1 4869   2.773   0.688   6.496 -0.3781 -0.3399  0.0227
   62SAPC    HA 4870   2.864   0.636   6.459 -1.3645 -1.0111 -1.5847
   62SAPC    HB 4871   2.732   0.633   6.583 -1.3025  2.0091  1.1557
   62SAPC    C2 4872   2.668   0.674   6.379 -0.3316  0.0066  0.1009
   62SAPC    HS 4873   2.569   0.688   6.428 -0.8967 -2.3241 -0.2830
   62SAPC   O21 4874   2.668   0.537   6.330 -0.4780 -0.9134 -0.0114
   62SAPC   C21 4875   2.612   0.449   6.411 -0.3168  0.7732 -0.2744
   62SAPC   O22 4876   2.564   0.467   6.520 -0.0778 -0.6647 -0.4234
   62SAPC   C22 4877   2.615   0.316   6.325 -0.5964 -0.2213 -0.1345
   62SAPC   H2R 4878   2.573   0.338   6.225  1.1532 -0.8381 -1.0380
   62SAPC   H2S 4879   2.724   0.295   6.320 -0.8709 -1.3575 -3.0179
   62SAPC    C3 4880   2.676   0.771   6.262 -0.9113 -0.2170 -0.2543
   62SAPC    HX 4881   2.781   0.789   6.231 -0.6473 -0.2908  0.5757
   62SAPC    HY 4882   2.638   0.867   6.305 -1.1848 -0.1941 -0.5483
   62SAPC   O31 4883   2.597   0.726   6.152  0.2754  0.4879 -0.4063
   62SAPC   C31 4884   2.473   0.754   6.130 -0.1466 -0.6129  0.3555
   62SAPC   O32 4885   2.403   0.821   6.203  0.3482  0.0336  0.2519
   62SAPC   C32 4886   2.434   0.684   6.003  0.3117  0.2454  0.2984
   62SAPC   H2X 4887   2.325   0.666   6.015  0.1367  1.2375  0.3017
   62SAPC   H2Y 4888   2.492   0.591   5.990 -0.7436 -0.4967  0.7847
   62SAPC   C23 4889   2.538   0.201   6.399  0.2038 -0.9603 -0.4055
   62SAPC   H3R 4890   2.438   0.247   6.418  1.1191  1.6632 -1.5181
   62SAPC   H3S 4891   2.588   0.178   6.496 -2.0118 -2.6100  0.4363
   62SAPC   C24 4892   2.523   0.065   6.326 -0.2926 -0.0372 -0.3343
   62SAPC   H4R 4893   2.476  -0.011   6.392 -1.8161  2.4333  1.5754
   62SAPC   H4S 4894   2.625   0.032   6.295  1.0110  2.3082  1.1306
   62SAPC   C25 4895   2.434   0.089   6.207 -0.2514 -0.1941 -0.9750
   62SAPC   H5R 4896   2.335   0.124   6.241  0.6072 -0.2489  1.8647
   62SAPC   C26 4897   2.463   0.080   6.077  0.3917  0.4783 -0.3069
   62SAPC   H6R 4898   2.387   0.108   6.002  0.4003  1.5064  0.0534
   62SAPC   C27 4899   2.593   0.039   6.010  0.7485 -0.2243  0.2844
   62SAPC   H7R 4900   2.572  -0.064   5.974 -0.6748  0.2567 -0.3226
   62SAPC   H7S 4901   2.669   0.038   6.091 -0.2635 -2.1428  1.2858
   62SAPC   C28 4902   2.641   0.122   5.898  0.5422 -0.1232 -0.4359
   62SAPC   H8R 4903   2.570   0.206   5.884  0.3872  0.0755  1.3649
   62SAPC   C29 4904   2.743   0.096   5.816  0.5939  0.1543  0.0511
   62SAPC   H9R 4905   2.758   0.158   5.726 -0.7718  1.0058  0.3973
   62SAPC  C210 4906   2.833  -0.031   5.819  0.3033 -0.0156  0.4177
   62SAPC  H10R 4907   2.845  -0.064   5.925 -0.2144  0.1261  0.5266
   62SAPC  H10S 4908   2.936   0.002   5.796 -0.4258  1.2822 -1.1931
   62SAPC  C211 4909   2.784  -0.143   5.726 -0.2459  1.0338  0.7035
   62SAPC  H11R 4910   2.746  -0.237   5.770  1.8008  0.1913  0.7510
   62SAPC  C212 4911   2.791  -0.149   5.590 -0.2653  0.4504 -0.0967
   62SAPC  H12R 4912   2.749  -0.241   5.547  0.6517  0.4984 -1.1712
   62SAPC  C213 4913   2.843  -0.042   5.498  0.0249  0.0573 -0.1362
   62SAPC  H13R 4914   2.852   0.055   5.551 -1.7142 -0.5331  1.3125
   62SAPC  H13S 4915   2.768  -0.037   5.416  0.3366 -1.1101 -0.5076
   62SAPC  C214 4916   2.979  -0.081   5.441  0.2320 -0.3901 -0.1539
   62SAPC  H14R 4917   3.064  -0.109   5.506 -1.0965 -0.4177  1.6553
   62SAPC  C215 4918   3.009  -0.098   5.314 -0.1345  0.6385  1.0140
   62SAPC  H15R 4919   3.115  -0.121   5.294 -0.3683 -1.2508  1.8253
   62SAPC  C216 4920   2.929  -0.077   5.184  0.3734 -0.6638 -0.4351
   62SAPC  H16R 4921   2.825  -0.051   5.212  0.5024  0.3110 -0.8362
   62SAPC  H16S 4922   2.922  -0.175   5.132  1.5354 -0.1164 -1.6827
   62SAPC  C217 4923   2.986   0.046   5.111 -0.4086 -0.3428  0.2130
   62SAPC  H17R 4924   3.096   0.042   5.118 -0.2262  1.4522 -1.1018
   62SAPC  H17S 4925   2.954   0.132   5.174 -0.3140 -0.1020 -0.0653
   62SAPC  C218 4926   2.937   0.075   4.964 -0.3081  0.5076  0.3494
   62SAPC  H18R 4927   3.023   0.115   4.906  0.0588 -0.7053  0.0326
   62SAPC  H18S 4928   2.856   0.150   4.971 -1.8374 -0.9304 -1.1274
   62SAPC  C219 4929   2.884  -0.041   4.885  0.2438  0.7926  0.4540
   62SAPC  H19R 4930   2.811  -0.103   4.941  0.0538 -1.2692 -1.8669
   62SAPC  H19S 4931   2.965  -0.117   4.875 -1.4639 -1.4178  2.4544
   62SAPC  C220 4932   2.833   0.010   4.747 -0.0003  0.0199  0.1917
   62SAPC  H20R 4933   2.912   0.066   4.693 -1.9335  3.5560  0.7665
   62SAPC  H20S 4934   2.751   0.082   4.768  0.4278  0.7707 -0.7093
   62SAPC  H20T 4935   2.780  -0.071   4.691 -1.3254 -0.4969  2.0873
   62SAPC   C33 4936   2.474   0.751   5.869 -0.0969 -0.0318  0.3525
   62SAPC   H3X 4937   2.574   0.793   5.893  0.2033 -1.3238  1.5444
   62SAPC   H3Y 4938   2.407   0.838   5.852  0.1387  0.3734  1.4516
   62SAPC   C34 4939   2.475   0.670   5.744 -0.7338  0.1060 -0.0223
   62SAPC   H4X 4940   2.369   0.646   5.720 -0.7408  0.0471  0.0677
   62SAPC   H4Y 4941   2.537   0.579   5.759  1.0299  0.9226 -1.7659
   62SAPC   C35 4942   2.526   0.751   5.623 -0.5029  0.3370 -0.0049
   62SAPC   H5X 4943   2.630   0.777   5.654 -0.8843  0.4086  1.2826
   62SAPC   H5Y 4944   2.472   0.844   5.596  0.1764  0.5082 -0.8162
   62SAPC   C36 4945   2.557   0.672   5.492  0.6660 -0.5465 -0.0868
   62SAPC   H6X 4946   2.580   0.567   5.522  2.1320  0.2027  1.5799
   62SAPC   H6Y 4947   2.640   0.711   5.431  0.4521  0.0433 -0.0020
   62SAPC   C37 4948   2.439   0.689   5.401  0.2275  0.8500 -0.9411
   62SAPC   H7X 4949   2.363   0.759   5.441  1.4511  0.9102  1.4616
   62SAPC   H7Y 4950   2.396   0.589   5.376  1.6837  0.7334 -3.1910
   62SAPC   C38 4951   2.478   0.739   5.262 -0.2431  0.3298  0.2276
   62SAPC   H8X 4952   2.577   0.694   5.240 -0.2857  0.5759 -0.4896
   62SAPC   H8Y 4953   2.500   0.848   5.265  0.1700  0.3304 -1.6838
   62SAPC   C39 4954   2.382   0.689   5.153 -0.0148  0.2627  0.8308
   62SAPC   H9X 4955   2.392   0.582   5.124 -1.3638  0.3392  0.0149
   62SAPC   H9Y 4956   2.418   0.740   5.061  2.2134  0.3309  1.6669
   62SAPC  C310 4957   2.231   0.720   5.156 -0.1521 -0.4703  0.2963
   62SAPC  H10X 4958   2.211   0.828   5.167  1.0253 -0.1904 -0.1466
   62SAPC  H10Y 4959   2.187   0.662   5.240 -0.0303 -0.1823  0.5613
   62SAPC  C311 4960   2.163   0.684   5.023  0.7522  0.6159 -0.1433
   62SAPC  H11X 4961   2.217   0.747   4.950  0.7711  0.1028 -0.5765
   62SAPC  H11Y 4962   2.058   0.722   5.028  0.3362 -0.4669 -0.4949
   62SAPC  C312 4963   2.162   0.532   4.995  0.1552  0.1621 -0.1285
   62SAPC  H12X 4964   2.145   0.467   5.084  0.7579  0.2955  0.0840
   62SAPC  H12Y 4965   2.263   0.512   4.954  1.1203  3.8747  0.1156
   62SAPC  C313 4966   2.055   0.498   4.887 -0.0253 -0.7614 -0.4656
   62SAPC  H13X 4967   2.087   0.538   4.788 -1.9191  0.5978 -0.5760
   62SAPC  H13Y 4968   1.957   0.545   4.908 -0.3228 -0.8511 -1.5827
   62SAPC  C314 4969   2.029   0.344   4.872  0.1956  0.1257 -0.8217
   62SAPC  H14X 4970   1.986   0.315   4.970  1.3905 -0.3409 -0.4229
   62SAPC  H14Y 4971   2.124   0.288   4.858 -1.0924 -1.8374 -2.2757
   62SAPC  C315 4972   1.940   0.308   4.747 -0.2561  0.4665  0.2204
   62SAPC  H15X 4973   2.001   0.336   4.658 -0.0096  0.8038  0.4910
   62SAPC  H15Y 4974   1.847   0.369   4.753  0.8919  2.3521 -0.1224
   62SAPC  C316 4975   1.917   0.164   4.723 -0.1386  0.8302  0.0848
   62SAPC  H16X 4976   1.843   0.125   4.796  0.3377 -1.1793 -0.4510
   62SAPC  H16Y 4977   2.004   0.095   4.732 -2.1924 -2.1391 -1.1929
   62SAPC  C317 4978   1.859   0.139   4.578 -0.5359 -0.2278  0.7650
   62SAPC  H17X 4979   1.792   0.222   4.547  0.8579 -0.2826 -2.9119
   62SAPC  H17Y 4980   1.804   0.043   4.567 -1.0497  0.2345 -1.0554
   62SAPC  C318 4981   1.968   0.142   4.463 -0.9032 -0.0946  0.5326
   62SAPC  H18X 4982   1.918   0.113   4.368 -2.5174 -3.4030  2.2213
   62SAPC  H18Y 4983   2.063   0.085   4.477 -1.4325 -1.4901 -1.1066
   62SAPC  H18Z 4984   2.006   0.245   4.452 -1.1313  0.2658  2.7713
   63SAPC     N 4985   4.126   3.922   6.938  0.5036  1.0486  0.3194
   63SAPC   C12 4986   4.066   3.993   6.819  0.0242 -0.1486 -0.2367
   63SAPC  H12A 4987   4.072   4.098   6.842 -4.0570  0.2778 -0.3396
   63SAPC  H12B 4988   3.961   3.970   6.820 -0.0226 -0.0098 -1.4313
   63SAPC   C13 4989   4.080   3.982   7.068 -0.2891 -0.1473  0.6533
   63SAPC  H13A 4990   4.120   4.081   7.086 -0.8462  0.5350 -1.4879
   63SAPC  H13B 4991   3.972   3.992   7.076 -0.1123  0.0760  4.4787
   63SAPC  H13C 4992   4.108   3.918   7.150  1.7151 -2.5244 -1.7079
   63SAPC   C14 4993   4.080   3.774   6.930 -0.3302  0.3694  0.2000
   63SAPC  H14A 4994   4.121   3.714   7.009  0.2999 -0.5380 -0.7984
   63SAPC  H14B 4995   3.972   3.774   6.933 -0.3725  2.1957  0.0372
   63SAPC  H14C 4996   4.107   3.736   6.832 -0.5969 -3.5872  1.5296
   63SAPC   C15 4997   4.266   3.928   6.931 -0.2692 -0.4770  0.1365
   63SAPC  H15A 4998   4.293   4.032   6.938 -1.2662 -0.2835  1.7505
   63SAPC  H15B 4999   4.311   3.894   7.024  0.6237  2.1194  0.7303
   63SAPC  H15C 5000   4.326   3.892   6.849  2.0793  1.1285  1.0482
   63SAPC   C11 5001   4.127   3.968   6.689 -0.2873  0.0358 -0.1526
   63SAPC  H11A 5002   4.052   3.953   6.609  0.7207 -1.3916 -0.8809
   63SAPC  H11B 5003   4.183   3.872   6.684  1.5058  1.0892 -1.2829
   63SAPC     P 5004   4.179   4.195   6.573 -0.0247 -0.2334  0.4552
   63SAPC   O13 5005   4.031   4.221   6.590 -0.1402  0.1328 -0.1537
   63SAPC   O14 5006   4.266   4.309   6.597 -0.6127 -0.0834 -0.5034
   63SAPC   O12 5007   4.227   4.073   6.659 -0.2200  0.3927 -0.1444
   63SAPC   O11 5008   4.204   4.149   6.422 -0.2235 -0.5869 -0.0201
   63SAPC    C1 5009   4.108   4.086   6.340  0.5797 -0.6581  0.0804
   63SAPC    HA 5010   4.067   3.990   6.378 -1.2286 -0.0255 -0.1670
   63SAPC    HB 5011   4.020   4.154   6.331  0.8934 -0.3650 -0.8913
   63SAPC    C2 5012   4.149   4.064   6.188 -0.4299 -0.3007 -0.1589
   63SAPC    HS 5013   4.058   4.023   6.141  0.6914 -1.7023 -1.1960
   63SAPC   O21 5014   4.260   3.967   6.188  0.3008 -0.4106 -0.2314
   63SAPC   C21 5015   4.286   3.900   6.079 -0.2053 -0.0756  0.1436
   63SAPC   O22 5016   4.212   3.886   5.984  0.9267  0.2345  0.1114
   63SAPC   C22 5017   4.422   3.834   6.094 -0.0830  0.2076 -1.0781
   63SAPC   H2R 5018   4.452   3.842   6.200 -0.2187  0.1432 -1.0346
   63SAPC   H2S 5019   4.416   3.727   6.065 -0.1417 -0.1453  0.1886
   63SAPC    C3 5020   4.187   4.209   6.129  0.8685  0.3769  0.2920
   63SAPC    HX 5021   4.250   4.267   6.199  1.4409  0.6036 -0.4031
   63SAPC    HY 5022   4.091   4.263   6.112  0.1939 -0.2581  1.8582
   63SAPC   O31 5023   4.263   4.205   6.009  0.3993  0.1782  0.4409
   63SAPC   C31 5024   4.191   4.184   5.902 -0.1207  0.1455  0.1637
   63SAPC   O32 5025   4.073   4.172   5.894  0.1703 -0.6385 -0.5359
   63SAPC   C32 5026   4.283   4.168   5.783 -0.0045  0.3442  0.1777
   63SAPC   H2X 5027   4.362   4.102   5.825 -0.2252  0.7509  1.2590
   63SAPC   H2Y 5028   4.329   4.266   5.760  1.5341 -0.2060  0.7586
   63SAPC   C23 5029   4.524   3.897   5.987 -0.5242 -0.1735 -0.7048
   63SAPC   H3R 5030   4.564   3.992   6.028 -1.4742 -0.8282  1.9186
   63SAPC   H3S 5031   4.476   3.932   5.893 -2.2174 -0.2520  0.0960
   63SAPC   C24 5032   4.640   3.803   5.954 -0.0450 -0.1645 -0.0491
   63SAPC   H4R 5033   4.694   3.758   6.040 -0.4102 -0.3388  0.0890
   63SAPC   H4S 5034   4.703   3.879   5.903 -0.1073 -0.3483 -0.4070
   63SAPC   C25 5035   4.598   3.690   5.865 -0.2296 -0.3214  0.3383
   63SAPC   H5R 5036   4.565   3.604   5.925 -1.4600  0.4747  0.8466
   63SAPC   C26 5037   4.607   3.675   5.728  0.0660 -0.8092 -0.8409
   63SAPC   H6R 5038   4.588   3.582   5.673  1.0185 -1.9714  0.7207
   63SAPC   C27 5039   4.650   3.789   5.635  0.6732  1.5243  0.4451
   63SAPC   H7R 5040   4.748   3.763   5.590  0.3667  2.2162 -0.6540
   63SAPC   H7S 5041   4.671   3.881   5.695  3.0199  0.9949  0.5432
   63SAPC   C28 5042   4.546   3.816   5.524 -0.3444 -0.1745  0.2346
   63SAPC   H8R 5043   4.444   3.841   5.556 -0.8770 -1.8415 -0.0840
   63SAPC   C29 5044   4.570   3.796   5.391 -0.2140 -0.0812 -0.4224
   63SAPC   H9R 5045   4.488   3.805   5.317  0.9450  0.6482 -1.6767
   63SAPC  C210 5046   4.701   3.763   5.330 -0.0128  0.2690 -0.3130
   63SAPC  H10R 5047   4.697   3.652   5.328 -0.8637  0.2987 -0.5619
   63SAPC  H10S 5048   4.793   3.799   5.381 -0.9444  1.1383  0.8286
   63SAPC  C211 5049   4.709   3.823   5.191  0.1271  0.0740 -0.0990
   63SAPC  H11R 5050   4.732   3.931   5.184 -1.1560  0.4955  1.6106
   63SAPC  C212 5051   4.686   3.744   5.082  0.0527 -0.0225 -0.3831
   63SAPC  H12R 5052   4.682   3.797   4.986  1.6042  0.2530 -0.3286
   63SAPC  C213 5053   4.641   3.596   5.081 -0.1936 -0.6250  0.3199
   63SAPC  H13R 5054   4.565   3.582   5.161 -1.4373 -1.2121 -0.9067
   63SAPC  H13S 5055   4.726   3.532   5.111  1.5906  0.8144 -1.3831
   63SAPC  C214 5056   4.594   3.540   4.950 -0.1813  0.1570  0.4011
   63SAPC  H14R 5057   4.676   3.547   4.877  0.0529 -1.0299  0.5341
   63SAPC  C215 5058   4.471   3.492   4.918  0.5801 -0.7678  0.0896
   63SAPC  H15R 5059   4.452   3.456   4.816 -2.5403  1.5534 -0.3016
   63SAPC  C216 5060   4.354   3.492   5.013 -0.5184  0.1351  0.0433
   63SAPC  H16R 5061   4.262   3.517   4.956  0.9509  1.7268 -1.7901
   63SAPC  H16S 5062   4.356   3.578   5.084  0.8108 -0.1024  0.3195
   63SAPC  C217 5063   4.342   3.366   5.095  0.1368 -0.4715 -0.6529
   63SAPC  H17R 5064   4.446   3.346   5.129  0.2870  0.7775 -0.3563
   63SAPC  H17S 5065   4.327   3.285   5.020  2.3291 -0.2981 -1.3374
   63SAPC  C218 5066   4.231   3.382   5.208  0.0435  0.4967 -0.3236
   63SAPC  H18R 5067   4.137   3.348   5.158 -1.1793  4.1558 -0.8321
   63SAPC  H18S 5068   4.221   3.490   5.230  0.2770  0.2445  1.0807
   63SAPC  C219 5069   4.273   3.309   5.334 -0.1313 -0.0407 -0.4757
   63SAPC  H19R 5070   4.285   3.201   5.309 -0.8480 -0.2290 -0.0267
   63SAPC  H19S 5071   4.195   3.323   5.412 -0.1701 -0.8757 -0.3524
   63SAPC  C220 5072   4.405   3.353   5.406 -0.1223 -0.3182  0.1279
   63SAPC  H20R 5073   4.410   3.462   5.426 -0.2608  0.0267 -1.5866
   63SAPC  H20S 5074   4.485   3.320   5.336 -1.8415 -1.2727 -1.4719
   63SAPC  H20T 5075   4.410   3.307   5.507 -1.0383  0.1888  0.4102
   63SAPC   C33 5076   4.200   4.105   5.663 -0.2041  0.1534 -0.1303
   63SAPC   H3X 5077   4.104   4.158   5.645  0.0690  1.4600  1.9450
   63SAPC   H3Y 5078   4.189   3.997   5.686 -1.2643 -0.2580 -2.2359
   63SAPC   C34 5079   4.285   4.127   5.537 -0.1728  0.0840 -1.1777
   63SAPC   H4X 5080   4.382   4.075   5.552 -0.7790 -0.5085  1.0043
   63SAPC   H4Y 5081   4.304   4.236   5.530  1.5093 -0.0812  0.2150
   63SAPC   C35 5082   4.215   4.093   5.406 -0.1620  0.1446  0.0292
   63SAPC   H5X 5083   4.121   4.152   5.399 -0.6781 -0.7923 -1.6606
   63SAPC   H5Y 5084   4.198   3.984   5.399  1.8285 -0.2589  0.6590
   63SAPC   C36 5085   4.304   4.129   5.283  0.2692 -0.3839  0.2055
   63SAPC   H6X 5086   4.403   4.087   5.309  0.7059  0.9078  0.7217
   63SAPC   H6Y 5087   4.331   4.235   5.265 -0.4706 -0.1744  0.2908
   63SAPC   C37 5088   4.255   4.064   5.156  0.9025  0.5167 -0.0978
   63SAPC   H7X 5089   4.147   4.082   5.140  0.6841  1.4869  2.1923
   63SAPC   H7Y 5090   4.268   3.953   5.162 -0.1549  0.4255  0.7696
   63SAPC   C38 5091   4.328   4.099   5.029 -0.5417  0.0145  0.6308
   63SAPC   H8X 5092   4.385   4.192   5.050  0.9244 -0.7021 -0.0281
   63SAPC   H8Y 5093   4.259   4.116   4.943  0.6320 -1.2147 -0.6113
   63SAPC   C39 5094   4.406   3.975   4.977  0.4565 -0.2719 -0.1967
   63SAPC   H9X 5095   4.342   3.885   4.961 -0.5371  0.3434  0.1763
   63SAPC   H9Y 5096   4.484   3.941   5.048  1.6982 -0.0945 -1.4374
   63SAPC  C310 5097   4.485   3.997   4.848  0.1169 -0.3871  1.2149
   63SAPC  H10X 5098   4.428   4.072   4.790 -1.1395 -2.2469 -0.0754
   63SAPC  H10Y 5099   4.491   3.909   4.780 -0.1248  0.5507 -0.0505
   63SAPC  C311 5100   4.621   4.071   4.875  0.2522  0.1619  0.2841
   63SAPC  H11X 5101   4.691   3.998   4.921  1.2473  0.9298  0.0251
   63SAPC  H11Y 5102   4.618   4.154   4.949 -0.4751 -2.3114  3.2495
   63SAPC  C312 5103   4.682   4.125   4.743  0.1714 -0.4172  0.7575
   63SAPC  H12X 5104   4.770   4.189   4.765 -0.0826 -0.5690  2.3586
   63SAPC  H12Y 5105   4.602   4.190   4.700  1.7243  0.3989 -1.0083
   63SAPC  C313 5106   4.737   4.014   4.645 -0.5335 -0.5688 -0.2615
   63SAPC  H13X 5107   4.763   4.064   4.549 -0.1464 -0.6573 -0.2036
   63SAPC  H13Y 5108   4.662   3.933   4.632 -0.8732 -1.0644  3.5194
   63SAPC  C314 5109   4.871   3.954   4.698  0.0799 -0.0441  0.4374
   63SAPC  H14X 5110   4.859   3.916   4.801 -0.5968  1.9974  1.1479
   63SAPC  H14Y 5111   4.942   4.040   4.695 -2.2815  2.0098  0.2847
   63SAPC  C315 5112   4.928   3.829   4.618  0.1003  0.0882  0.1691
   63SAPC  H15X 5113   5.039   3.837   4.619  0.1836  0.5194 -2.6776
   63SAPC  H15Y 5114   4.902   3.842   4.511  2.8144  0.8221 -0.4802
   63SAPC  C316 5115   4.873   3.697   4.670 -0.2149 -0.4716 -0.9255
   63SAPC  H16X 5116   4.764   3.695   4.688 -0.2469 -0.9254 -1.1465
   63SAPC  H16Y 5117   4.923   3.675   4.767 -0.3571  3.9448  0.3310
   63SAPC  C317 5118   4.917   3.580   4.582  0.0325  0.2064 -0.4489
   63SAPC  H17X 5119   5.026   3.565   4.592  0.2187  2.1649  1.0201
   63SAPC  H17Y 5120   4.882   3.624   4.486  2.0435  1.8344 -0.4940
   63SAPC  C318 5121   4.837   3.456   4.633  0.0174 -0.6589  0.6013
   63SAPC  H18X 5122   4.825   3.447   4.743 -0.1073 -1.9713  0.4981
   63SAPC  H18Y 5123   4.873   3.360   4.591  0.2855 -0.8765  1.3178
   63SAPC  H18Z 5124   4.734   3.474   4.595  0.9009 -0.4202 -1.8332
   64SAPC     N 5125   3.491   5.480   6.921  0.2641 -0.8148  0.3457
   64SAPC   C12 5126   3.543   5.350   6.854 -0.3731  0.0677 -0.0325
   64SAPC  H12A 5127   3.468   5.272   6.848 -1.6224  1.3142 -1.1092
   64SAPC  H12B 5128   3.618   5.315   6.923  0.0463  0.4054 -0.3141
   64SAPC   C13 5129   3.382   5.550   6.836 -0.4422  0.5666  0.2621
   64SAPC  H13A 5130   3.339   5.640   6.878  0.9091  0.9521  0.8823
   64SAPC  H13B 5131   3.426   5.576   6.741  0.0625 -0.2958  0.2484
   64SAPC  H13C 5132   3.300   5.484   6.811  1.0064 -2.0313  1.9162
   64SAPC   C14 5133   3.419   5.445   7.046  0.3350  0.2063 -1.2626
   64SAPC  H14A 5134   3.390   5.537   7.094  0.8731 -1.0239  1.6133
   64SAPC  H14B 5135   3.330   5.388   7.020  0.2287  1.2271 -3.3100
   64SAPC  H14C 5136   3.481   5.396   7.119  0.1184  1.9647  0.1384
   64SAPC   C15 5137   3.597   5.581   6.945 -0.5090 -0.6073  0.3232
   64SAPC  H15A 5138   3.675   5.534   7.003 -0.2401  0.9941  1.3202
   64SAPC  H15B 5139   3.646   5.629   6.861 -0.8918  2.6884  1.8569
   64SAPC  H15C 5140   3.562   5.656   7.014 -1.9003 -1.5295  0.6474
   64SAPC   C11 5141   3.594   5.373   6.715  0.0087 -0.2765 -0.3794
   64SAPC  H11A 5142   3.689   5.430   6.715 -0.0532 -0.0257  2.6949
   64SAPC  H11B 5143   3.516   5.422   6.653  1.6793  2.2205 -0.6420
   64SAPC     P 5144   3.521   5.155   6.589 -0.1135  0.0337  0.1644
   64SAPC   O13 5145   3.602   5.044   6.533  0.2772  0.2285 -0.2079
   64SAPC   O14 5146   3.410   5.128   6.683  0.3020 -0.1799 -0.4136
   64SAPC   O12 5147   3.624   5.241   6.671  0.3361 -0.6736  0.1004
   64SAPC   O11 5148   3.478   5.236   6.465  0.0576  0.1478 -0.3653
   64SAPC    C1 5149   3.584   5.301   6.385  0.5484 -0.0578 -0.8391
   64SAPC    HA 5150   3.628   5.392   6.431  0.1743 -0.5463  0.5313
   64SAPC    HB 5151   3.679   5.243   6.379  1.5455  1.2266  1.2910
   64SAPC    C2 5152   3.537   5.348   6.245 -0.5429 -0.6407 -1.2715
   64SAPC    HS 5153   3.471   5.436   6.257  2.0226  1.3554 -1.0919
   64SAPC   O21 5154   3.483   5.237   6.172  0.0413 -0.1894 -1.0615
   64SAPC   C21 5155   3.381   5.271   6.102 -0.5288 -0.0401 -0.2507
   64SAPC   O22 5156   3.320   5.377   6.110 -0.2585 -0.0653  0.0109
   64SAPC   C22 5157   3.339   5.149   6.019 -0.4470  0.3462  0.1325
   64SAPC   H2R 5158   3.434   5.104   5.984  0.1385  2.7838 -1.7281
   64SAPC   H2S 5159   3.300   5.070   6.086 -0.1864  0.6065  0.5956
   64SAPC    C3 5160   3.652   5.403   6.155  0.0360 -0.7512 -0.1312
   64SAPC    HX 5161   3.719   5.315   6.137 -0.2969 -1.0851  0.2337
   64SAPC    HY 5162   3.714   5.473   6.214 -2.2710  0.4785  0.9772
   64SAPC   O31 5163   3.614   5.439   6.023  0.1720 -0.2227 -0.4696
   64SAPC   C31 5164   3.564   5.560   6.016 -0.0247  0.2579 -0.2291
   64SAPC   O32 5165   3.562   5.645   6.107  0.4634  0.7122 -0.3326
   64SAPC   C32 5166   3.515   5.603   5.875  0.5571  0.2006 -0.2287
   64SAPC   H2X 5167   3.420   5.655   5.898 -0.2131 -1.7251  1.2770
   64SAPC   H2Y 5168   3.478   5.511   5.823  1.0414  0.0670 -0.3486
   64SAPC   C23 5169   3.249   5.171   5.891 -0.1690  0.0938 -0.1788
   64SAPC   H3R 5170   3.163   5.237   5.914 -0.2189  0.2541 -0.8088
   64SAPC   H3S 5171   3.209   5.072   5.862  0.4999 -0.4253  0.6243
   64SAPC   C24 5172   3.326   5.243   5.775 -0.1422  0.6724 -0.4817
   64SAPC   H4R 5173   3.425   5.197   5.756 -0.7884 -0.5774 -0.9286
   64SAPC   H4S 5174   3.350   5.343   5.817 -0.8851  0.8433 -0.4503
   64SAPC   C25 5175   3.236   5.246   5.654 -0.3184 -0.0384 -0.1630
   64SAPC   H5R 5176   3.155   5.320   5.663  0.6517  1.1438 -0.8102
   64SAPC   C26 5177   3.252   5.177   5.538 -0.2219  0.3513  0.1976
   64SAPC   H6R 5178   3.185   5.213   5.458 -1.8787 -0.6451  1.0912
   64SAPC   C27 5179   3.345   5.072   5.491  0.1211  0.1399 -0.1122
   64SAPC   H7R 5180   3.284   4.993   5.443 -0.6466 -0.1847  1.3350
   64SAPC   H7S 5181   3.398   5.021   5.574  1.4736 -0.8566 -1.5177
   64SAPC   C28 5182   3.449   5.124   5.394  0.6976 -0.0355 -0.4196
   64SAPC   H8R 5183   3.531   5.175   5.448  0.0312  0.1100  0.4663
   64SAPC   C29 5184   3.464   5.102   5.264  0.1916 -0.1577  0.3683
   64SAPC   H9R 5185   3.542   5.154   5.208 -0.5454  1.2888  0.6282
   64SAPC  C210 5186   3.358   5.038   5.181  0.1697  0.4177 -0.8417
   64SAPC  H10R 5187   3.269   5.104   5.187 -0.8580 -1.0330  3.3920
   64SAPC  H10S 5188   3.327   4.938   5.219 -0.3420  0.8784 -0.0163
   64SAPC  C211 5189   3.395   5.030   5.034  0.7050 -0.3743  0.2314
   64SAPC  H11R 5190   3.491   4.981   5.009  0.3079 -0.3323 -1.4359
   64SAPC  C212 5191   3.316   5.047   4.930 -0.2024 -0.1011  0.0719
   64SAPC  H12R 5192   3.364   5.040   4.831  0.3154  2.8709  0.0336
   64SAPC  C213 5193   3.179   5.104   4.931  0.6447 -0.0568  0.3366
   64SAPC  H13R 5194   3.200   5.212   4.912  1.0369 -0.4749 -1.9401
   64SAPC  H13S 5195   3.141   5.093   5.034  1.0270 -2.1230  0.2995
   64SAPC  C214 5196   3.094   5.053   4.819  0.1161  0.9872  0.2463
   64SAPC  H14R 5197   3.132   4.958   4.781 -1.1197  0.9534 -0.9991
   64SAPC  C215 5198   2.992   5.117   4.760  0.0952  0.2806 -0.3234
   64SAPC  H15R 5199   2.934   5.061   4.685  1.3512  0.6671 -1.6406
   64SAPC  C216 5200   2.930   5.250   4.801  0.0986 -0.3591 -0.4644
   64SAPC  H16R 5201   2.967   5.285   4.899  0.0633 -0.6496 -0.3475
   64SAPC  H16S 5202   2.822   5.240   4.824  0.5100 -1.2445  1.1977
   64SAPC  C217 5203   2.931   5.340   4.672  0.2908 -0.1599  0.1664
   64SAPC  H17R 5204   3.037   5.345   4.641  0.0444 -0.4111 -0.7476
   64SAPC  H17S 5205   2.896   5.439   4.708 -1.4972 -0.2172 -1.2493
   64SAPC  C218 5206   2.841   5.289   4.561  0.0913 -0.2390  0.8042
   64SAPC  H18R 5207   2.735   5.316   4.583  0.1544  1.5166 -0.7811
   64SAPC  H18S 5208   2.853   5.180   4.546 -1.4776 -0.1899 -1.3241
   64SAPC  C219 5209   2.877   5.337   4.419  0.1410 -0.4980 -0.3451
   64SAPC  H19R 5210   2.807   5.303   4.339 -1.7422  0.2148  0.9219
   64SAPC  H19S 5211   2.969   5.282   4.389 -2.8818 -3.1371 -6.5572
   64SAPC  C220 5212   2.896   5.488   4.396 -0.0571 -0.4817  0.1917
   64SAPC  H20R 5213   2.810   5.553   4.425  0.6304  1.5915 -2.0814
   64SAPC  H20S 5214   2.911   5.506   4.287  1.1500 -0.2870  0.3794
   64SAPC  H20T 5215   2.989   5.525   4.444 -0.7521  2.3950 -0.5078
   64SAPC   C33 5216   3.617   5.677   5.785 -0.2761  0.3323 -0.6243
   64SAPC   H3X 5217   3.709   5.617   5.767  0.0870  0.6516  0.1262
   64SAPC   H3Y 5218   3.646   5.769   5.839  0.9602 -1.0878  1.2467
   64SAPC   C34 5219   3.553   5.705   5.646  0.1642 -0.6847 -0.4484
   64SAPC   H4X 5220   3.616   5.781   5.596  1.0296  0.0171  1.5983
   64SAPC   H4Y 5221   3.457   5.759   5.659  1.1170  0.6761  1.3685
   64SAPC   C35 5222   3.528   5.584   5.557  0.4577 -0.6013 -0.0673
   64SAPC   H5X 5223   3.458   5.520   5.615  0.6845 -0.0357  0.8557
   64SAPC   H5Y 5224   3.622   5.529   5.533 -0.8963 -1.6855 -3.3819
   64SAPC   C36 5225   3.472   5.620   5.417  0.4636  0.3630 -0.7948
   64SAPC   H6X 5226   3.557   5.643   5.349 -0.9909  1.9666 -2.1560
   64SAPC   H6Y 5227   3.406   5.709   5.432 -1.8304 -1.5703  1.7257
   64SAPC   C37 5228   3.395   5.504   5.351  0.0528 -0.0566  0.1525
   64SAPC   H7X 5229   3.305   5.478   5.411  1.6320  0.6639  3.0372
   64SAPC   H7Y 5230   3.454   5.412   5.330  0.7838  0.9277 -2.5763
   64SAPC   C38 5231   3.343   5.556   5.219 -0.2193  0.8931  0.5931
   64SAPC   H8X 5232   3.422   5.600   5.155  0.3960 -2.7902 -1.4240
   64SAPC   H8Y 5233   3.273   5.639   5.241 -0.3844  0.3039  2.4358
   64SAPC   C39 5234   3.267   5.450   5.136  0.0313 -0.5938  0.4261
   64SAPC   H9X 5235   3.167   5.421   5.173  0.2215 -1.9884 -0.0841
   64SAPC   H9Y 5236   3.328   5.357   5.144  1.6894  0.3805 -0.1751
   64SAPC  C310 5237   3.241   5.491   4.986 -0.4858  0.0405  0.8009
   64SAPC  H10X 5238   3.185   5.587   4.993 -0.8059 -0.0284 -0.6063
   64SAPC  H10Y 5239   3.180   5.416   4.931 -0.8997  0.4456  0.6989
   64SAPC  C311 5240   3.365   5.522   4.902  0.0738  0.1184 -0.6151
   64SAPC  H11X 5241   3.409   5.429   4.861 -0.7208  1.1513 -4.1549
   64SAPC  H11Y 5242   3.445   5.574   4.959  0.2418  0.2413 -0.9646
   64SAPC  C312 5243   3.348   5.608   4.775  0.5994 -0.1873  0.0340
   64SAPC  H12X 5244   3.440   5.601   4.713 -0.4719  0.8467 -1.7667
   64SAPC  H12Y 5245   3.339   5.718   4.790 -1.2342 -0.3285  0.1289
   64SAPC  C313 5246   3.238   5.559   4.672  0.0801  0.1894 -0.0814
   64SAPC  H13X 5247   3.136   5.596   4.695  0.4014  0.4222  0.9963
   64SAPC  H13Y 5248   3.227   5.453   4.701 -1.6681  0.9976  2.5742
   64SAPC  C314 5249   3.281   5.566   4.525 -0.6907  0.1891 -0.1405
   64SAPC  H14X 5250   3.205   5.507   4.470 -1.4555  1.5924 -0.6500
   64SAPC  H14Y 5251   3.376   5.516   4.498 -1.0014  1.5018 -4.4542
   64SAPC  C315 5252   3.267   5.703   4.463  0.4854 -0.8652  0.8224
   64SAPC  H15X 5253   3.356   5.769   4.478 -0.4482  0.5111  0.4921
   64SAPC  H15Y 5254   3.181   5.761   4.501  1.0084 -0.4705  1.4377
   64SAPC  C316 5255   3.235   5.690   4.312 -0.4000 -0.2389  0.0801
   64SAPC  H16X 5256   3.227   5.796   4.279 -1.7289 -0.3385  0.0321
   64SAPC  H16Y 5257   3.139   5.637   4.293 -1.5470  2.2202 -1.4836
   64SAPC  C317 5258   3.328   5.614   4.212 -0.1561 -0.2922 -0.4119
   64SAPC  H17X 5259   3.279   5.610   4.113 -0.0883 -0.6678 -0.4306
   64SAPC  H17Y 5260   3.345   5.510   4.245  1.8669  0.1202  0.0096
   64SAPC  C318 5261   3.467   5.679   4.183  0.0861  0.1510 -0.3863
   64SAPC  H18X 5262   3.522   5.635   4.097 -2.5277 -1.0462 -1.5437
   64SAPC  H18Y 5263   3.524   5.670   4.278 -2.6818 -1.4565  1.2648
   64SAPC  H18Z 5264   3.457   5.787   4.160 -1.0831  0.4547  1.3893
   65SAPC     N 5265   6.648   4.150   2.005 -0.2437 -0.0327  0.4984
   65SAPC   C12 5266   6.684   4.169   2.154  0.4830 -0.3178  0.3280
   65SAPC  H12A 5267   6.589   4.173   2.206 -0.8481  3.3575 -1.9247
   65SAPC  H12B 5268   6.727   4.268   2.158 -1.6947  0.6688  1.6320
   65SAPC   C13 5269   6.756   4.197   1.913  0.1828  0.0367 -0.4106
   65SAPC  H13A 5270   6.733   4.192   1.807  0.3496  1.9561 -0.5659
   65SAPC  H13B 5271   6.771   4.303   1.929 -2.0640  0.0486  2.3443
   65SAPC  H13C 5272   6.849   4.144   1.929 -0.1821  0.0320  1.9456
   65SAPC   C14 5273   6.625   4.006   1.972  0.2519 -0.4824  0.1313
   65SAPC  H14A 5274   6.721   3.958   1.982 -0.4285 -1.4394  3.1690
   65SAPC  H14B 5275   6.553   3.967   2.043 -0.4151  0.2625 -0.1181
   65SAPC  H14C 5276   6.582   3.995   1.873 -1.7486 -2.0280  1.0923
   65SAPC   C15 5277   6.522   4.226   1.972 -0.0678  0.6906 -0.9780
   65SAPC  H15A 5278   6.492   4.208   1.869  0.8452 -1.1313 -0.9729
   65SAPC  H15B 5279   6.436   4.187   2.025 -0.4445  0.4379 -1.7493
   65SAPC  H15C 5280   6.526   4.330   2.000 -0.0437  0.5621 -0.5066
   65SAPC   C11 5281   6.771   4.060   2.222  0.6001  0.3328  0.0673
   65SAPC  H11A 5282   6.720   3.962   2.224  0.7733  0.2016 -1.1007
   65SAPC  H11B 5283   6.776   4.093   2.328 -0.7243 -0.2992  0.3461
   65SAPC     P 5284   7.020   4.103   2.194  0.1707 -0.0122 -0.1209
   65SAPC   O13 5285   7.139   4.044   2.130  0.4259 -0.0281  0.0546
   65SAPC   O14 5286   6.999   4.249   2.188  0.4259  0.5822  0.2789
   65SAPC   O12 5287   6.895   4.026   2.146  0.2380 -0.6831 -0.8479
   65SAPC   O11 5288   7.025   4.070   2.350  0.2327 -0.1027 -0.0515
   65SAPC    C1 5289   7.070   3.940   2.392 -0.0077 -0.7765 -0.1837
   65SAPC    HA 5290   7.074   3.862   2.313  0.0889  0.1758 -1.1382
   65SAPC    HB 5291   7.170   3.936   2.440 -0.1688 -0.1734  0.2171
   65SAPC    C2 5292   6.971   3.886   2.495  0.2763  0.2698 -0.2252
   65SAPC    HS 5293   6.876   3.865   2.440  0.1244 -1.9548  0.7456
   65SAPC   O21 5294   6.951   3.990   2.597 -0.5641 -0.3466  0.8046
   65SAPC   C21 5295   6.851   3.962   2.678 -0.0020 -1.2196 -0.0614
   65SAPC   O22 5296   6.775   3.870   2.664  0.3328 -0.2375  0.3232
   65SAPC   C22 5297   6.841   4.068   2.792 -0.1295 -0.5318 -0.0426
   65SAPC   H2R 5298   6.914   4.149   2.768 -1.0727  0.0730 -0.9197
   65SAPC   H2S 5299   6.747   4.125   2.784 -0.1652 -0.4603  0.8188
   65SAPC    C3 5300   7.019   3.752   2.554  0.1632  0.7694  0.1052
   65SAPC    HX 5301   7.021   3.674   2.475  1.9322  0.1516  0.7050
   65SAPC    HY 5302   6.951   3.716   2.633  0.4792 -3.7754 -1.4113
   65SAPC   O31 5303   7.141   3.779   2.622 -0.0257 -0.0527 -0.4633
   65SAPC   C31 5304   7.213   3.668   2.656  0.1108  0.1210 -0.1054
   65SAPC   O32 5305   7.180   3.553   2.638 -0.4701  0.3609 -1.0418
   65SAPC   C32 5306   7.347   3.716   2.715 -0.2507  0.3499  0.5964
   65SAPC   H2X 5307   7.398   3.772   2.634  0.7858  0.8617  1.5567
   65SAPC   H2Y 5308   7.402   3.623   2.740  0.1645  0.8789  1.7382
   65SAPC   C23 5309   6.851   4.011   2.939 -0.5275 -0.4310  0.0707
   65SAPC   H3R 5310   6.954   3.969   2.940  0.6054  2.1723  0.4031
   65SAPC   H3S 5311   6.781   3.926   2.952 -0.0508 -0.5960  1.8112
   65SAPC   C24 5312   6.841   4.123   3.048 -0.0669 -0.1879 -0.6775
   65SAPC   H4R 5313   6.930   4.186   3.025 -0.6363  0.1929 -1.9212
   65SAPC   H4S 5314   6.851   4.078   3.149  1.5068  1.6238  0.0432
   65SAPC   C25 5315   6.721   4.213   3.036  0.0565 -0.4719  0.1889
   65SAPC   H5R 5316   6.727   4.276   2.945 -0.7309 -2.7810 -1.5569
   65SAPC   C26 5317   6.613   4.220   3.108  0.0513  0.3345 -0.3732
   65SAPC   H6R 5318   6.527   4.282   3.079 -1.4770 -1.1971  0.7166
   65SAPC   C27 5319   6.584   4.142   3.238 -0.2691 -0.0949  0.4609
   65SAPC   H7R 5320   6.627   4.195   3.325 -1.5332 -1.0463  1.7184
   65SAPC   H7S 5321   6.643   4.048   3.233 -0.4509 -0.1462 -2.4744
   65SAPC   C28 5322   6.439   4.107   3.263  0.8906  0.2273  0.5391
   65SAPC   H8R 5323   6.369   4.113   3.179 -0.2749 -0.3676  1.4230
   65SAPC   C29 5324   6.399   4.063   3.385  0.7469  0.8736  0.0672
   65SAPC   H9R 5325   6.300   4.015   3.378  0.1072  1.8552  1.7729
   65SAPC  C210 5326   6.475   4.038   3.510  0.6475 -0.3717 -1.0351
   65SAPC  H10R 5327   6.575   4.003   3.476  0.7126 -0.2067 -1.0166
   65SAPC  H10S 5328   6.422   3.953   3.558 -0.8785  0.7788 -0.6134
   65SAPC  C211 5329   6.488   4.155   3.606  0.1201  0.7738 -0.5281
   65SAPC  H11R 5330   6.537   4.243   3.562  1.2937  0.2094 -0.4098
   65SAPC  C212 5331   6.446   4.150   3.734  0.6209  0.3374 -0.2636
   65SAPC  H12R 5332   6.437   4.241   3.795  1.1558  0.0337  0.2865
   65SAPC  C213 5333   6.366   4.034   3.789 -0.4875 -0.5303 -0.2406
   65SAPC  H13R 5334   6.442   3.953   3.785 -1.7285 -1.7028 -0.4623
   65SAPC  H13S 5335   6.280   4.021   3.720 -1.1701 -0.5786  0.5984
   65SAPC  C214 5336   6.315   4.048   3.928 -0.2872 -0.2632  0.3925
   65SAPC  H14R 5337   6.206   4.048   3.938 -0.2403 -0.9000  0.9617
   65SAPC  C215 5338   6.388   4.056   4.042  0.2815 -0.5231 -0.3299
   65SAPC  H15R 5339   6.338   4.074   4.139 -0.4784  0.1332 -0.8295
   65SAPC  C216 5340   6.540   4.053   4.048 -0.3981 -0.1712  0.6598
   65SAPC  H16R 5341   6.575   4.151   4.088 -0.0560  0.5752 -1.3816
   65SAPC  H16S 5342   6.585   4.039   3.948 -0.7775  2.4601  0.0502
   65SAPC  C217 5343   6.583   3.940   4.137  0.5107 -0.4827 -0.0169
   65SAPC  H17R 5344   6.693   3.932   4.133  0.4510 -0.7775 -2.1820
   65SAPC  H17S 5345   6.547   3.842   4.099  0.5555 -0.1120 -1.0434
   65SAPC  C218 5346   6.548   3.939   4.289  0.3028  0.4303 -0.0564
   65SAPC  H18R 5347   6.582   3.840   4.325 -1.2845 -0.4118 -0.7757
   65SAPC  H18S 5348   6.438   3.939   4.304  0.3997  0.7219  0.6861
   65SAPC  C219 5349   6.613   4.050   4.377  0.2947 -0.1093  0.3539
   65SAPC  H19R 5350   6.578   4.146   4.333  3.1170  1.2142  0.7443
   65SAPC  H19S 5351   6.723   4.039   4.365 -0.0459 -2.8967 -0.8613
   65SAPC  C220 5352   6.575   4.051   4.524 -0.1180  0.5278 -1.0301
   65SAPC  H20R 5353   6.470   4.082   4.547  0.0522  0.1200  0.3862
   65SAPC  H20S 5354   6.638   4.130   4.570 -0.0141 -0.4187  0.5248
   65SAPC  H20T 5355   6.599   3.954   4.573 -3.1563  0.6008  0.9154
   65SAPC   C33 5356   7.330   3.799   2.842  0.6199 -0.2681  0.2723
   65SAPC   H3X 5357   7.282   3.896   2.815 -0.1070 -0.4204  0.9671
   65SAPC   H3Y 5358   7.429   3.807   2.891  0.4369 -0.5347  0.6948
   65SAPC   C34 5359   7.231   3.730   2.942 -0.0343 -0.6024 -0.2983
   65SAPC   H4X 5360   7.289   3.641   2.975  1.5403 -0.6090 -2.8482
   65SAPC   H4Y 5361   7.133   3.697   2.902 -0.8398 -0.7357  1.6664
   65SAPC   C35 5362   7.198   3.821   3.058  0.1354  0.4317 -0.2787
   65SAPC   H5X 5363   7.198   3.928   3.030  2.6037  0.5990  0.1659
   65SAPC   H5Y 5364   7.291   3.808   3.117 -0.8119  1.5974  1.5730
   65SAPC   C36 5365   7.076   3.788   3.156 -0.0555 -0.1894 -0.7969
   65SAPC   H6X 5366   7.080   3.682   3.187 -1.6051  0.5793  2.5193
   65SAPC   H6Y 5367   6.981   3.796   3.099 -1.8379 -0.3490  1.9740
   65SAPC   C37 5368   7.060   3.873   3.284 -0.6928 -0.4061 -0.4403
   65SAPC   H7X 5369   7.047   3.979   3.253  1.4318 -0.3971 -1.4509
   65SAPC   H7Y 5370   7.150   3.866   3.350 -1.6367  1.9318  1.2538
   65SAPC   C38 5371   6.933   3.834   3.367  0.3065  0.4664  0.0282
   65SAPC   H8X 5372   6.963   3.738   3.415  1.2108 -0.8205 -2.8701
   65SAPC   H8Y 5373   6.853   3.810   3.295 -0.2625  0.8365  0.5299
   65SAPC   C39 5374   6.878   3.940   3.464  0.7825  0.2699 -0.4397
   65SAPC   H9X 5375   6.780   3.905   3.502  0.9857 -1.3855 -1.3154
   65SAPC   H9Y 5376   6.853   4.036   3.416 -3.7903  0.4175  1.7375
   65SAPC  C310 5377   6.960   3.956   3.589 -0.9016  0.1720  0.1113
   65SAPC  H10X 5378   7.043   4.026   3.567 -1.0377 -0.1283 -1.4690
   65SAPC  H10Y 5379   7.003   3.856   3.612 -1.1498 -0.1330 -0.7384
   65SAPC  C311 5380   6.885   4.005   3.708 -0.6817  0.3575  0.0020
   65SAPC  H11X 5381   6.819   3.930   3.758 -1.4781  1.3684  0.5015
   65SAPC  H11Y 5382   6.827   4.096   3.682  1.0887  1.8098  0.9763
   65SAPC  C312 5383   6.990   4.038   3.815 -0.1903 -0.1083 -0.5943
   65SAPC  H12X 5384   7.035   4.139   3.802 -1.3648  0.4159 -0.6721
   65SAPC  H12Y 5385   7.077   3.968   3.810 -1.3747 -1.9083  2.0518
   65SAPC  C313 5386   6.933   4.063   3.954  0.1367 -0.3692 -0.0112
   65SAPC  H13X 5387   6.845   3.998   3.973 -1.2030  1.3885  0.1075
   65SAPC  H13Y 5388   6.880   4.160   3.949  0.9343  0.1651  1.4100
   65SAPC  C314 5389   7.037   4.053   4.067 -0.1802 -0.0865 -0.8398
   65SAPC  H14X 5390   7.136   4.093   4.036  0.1976 -0.7898 -0.5532
   65SAPC  H14Y 5391   7.048   3.945   4.089 -1.6588  0.1891  1.5628
   65SAPC  C315 5392   6.997   4.137   4.192  0.0318  0.0813 -0.1786
   65SAPC  H15X 5393   7.042   4.100   4.286  2.3553  0.8538 -0.8952
   65SAPC  H15Y 5394   6.891   4.112   4.210  0.5350  0.1188  3.4624
   65SAPC  C316 5395   7.018   4.291   4.175  0.2489 -0.3741 -0.3469
   65SAPC  H16X 5396   6.996   4.334   4.075 -0.2805 -1.7704 -0.8533
   65SAPC  H16Y 5397   7.124   4.306   4.205 -0.1313  0.7287  0.5129
   65SAPC  C317 5398   6.933   4.368   4.276  0.6283 -0.1893  0.1742
   65SAPC  H17X 5399   6.830   4.374   4.235  0.8876  1.4665 -0.3243
   65SAPC  H17Y 5400   6.971   4.471   4.288 -1.5808  0.7706 -0.4976
   65SAPC  C318 5401   6.949   4.312   4.422 -0.1178 -0.3979 -0.1597
   65SAPC  H18X 5402   6.916   4.381   4.503 -2.4357 -1.9746  0.3234
   65SAPC  H18Y 5403   7.055   4.300   4.451 -0.3242 -0.1287  0.7431
   65SAPC  H18Z 5404   6.903   4.212   4.434  1.9987 -1.4498 -0.3287
   66SAPC     N 5405   2.838   4.487   1.667  0.3819  0.7390 -0.4570
   66SAPC   C12 5406   2.980   4.522   1.627 -0.2450  0.6919 -0.1277
   66SAPC  H12A 5407   3.004   4.627   1.627  1.8468  0.2565 -0.0942
   66SAPC  H12B 5408   3.003   4.488   1.527 -2.7034  1.7254 -1.1019
   66SAPC   C13 5409   2.804   4.538   1.803  0.4942  0.2564  0.1501
   66SAPC  H13A 5410   2.825   4.644   1.806  1.0624  0.1317  0.8771
   66SAPC  H13B 5411   2.702   4.521   1.835  1.0895 -2.3880  0.8346
   66SAPC  H13C 5412   2.873   4.485   1.868 -1.7541 -1.3103  1.4018
   66SAPC   C14 5413   2.748   4.548   1.564  0.4549 -0.7172 -0.2584
   66SAPC  H14A 5414   2.641   4.531   1.571 -0.0740  2.0016 -0.4848
   66SAPC  H14B 5415   2.754   4.656   1.570  0.1194 -0.6979 -0.2463
   66SAPC  H14C 5416   2.771   4.510   1.465  1.7670  0.3509 -0.3931
   66SAPC   C15 5417   2.813   4.336   1.660  0.3475 -0.4699 -0.3050
   66SAPC  H15A 5418   2.717   4.315   1.703 -0.1631  3.2125  0.7508
   66SAPC  H15B 5419   2.812   4.309   1.556  1.9209 -1.2129 -0.1556
   66SAPC  H15C 5420   2.887   4.291   1.725  0.9105  2.2110  1.0931
   66SAPC   C11 5421   3.099   4.472   1.712 -0.0257  0.8448 -0.9448
   66SAPC  H11A 5422   3.195   4.502   1.663  0.2814  0.9602 -0.2900
   66SAPC  H11B 5423   3.111   4.362   1.705 -0.1306  0.8888 -2.0413
   66SAPC     P 5424   3.175   4.622   1.907  0.3287  0.1329 -0.0217
   66SAPC   O13 5425   3.313   4.592   1.875 -0.6031 -0.0105 -0.2180
   66SAPC   O14 5426   3.127   4.756   1.883  0.4000 -0.8571  0.1885
   66SAPC   O12 5427   3.080   4.516   1.844  0.1673 -0.2919 -0.2422
   66SAPC   O11 5428   3.156   4.584   2.070 -0.6500  0.4292 -0.0923
   66SAPC    C1 5429   3.023   4.594   2.118  0.6009 -0.8665 -0.9842
   66SAPC    HA 5430   2.945   4.563   2.045  0.2779  1.4774 -1.7352
   66SAPC    HB 5431   3.014   4.523   2.203  1.2629 -0.0695 -0.2346
   66SAPC    C2 5432   2.993   4.733   2.181  0.2623 -0.6821  0.2082
   66SAPC    HS 5433   3.028   4.810   2.108  0.7199  0.3055  1.4385
   66SAPC   O21 5434   3.056   4.747   2.307  0.0039  1.0892 -0.0471
   66SAPC   C21 5435   3.090   4.867   2.345  0.2754  0.2714  0.7764
   66SAPC   O22 5436   3.058   4.971   2.288  0.3112  0.2953 -0.4511
   66SAPC   C22 5437   3.162   4.854   2.475 -0.0847 -0.2904  0.4148
   66SAPC   H2R 5438   3.265   4.814   2.461  0.3248  1.7957 -3.8563
   66SAPC   H2S 5439   3.170   4.961   2.503  0.4828  0.3297 -1.9599
   66SAPC    C3 5440   2.832   4.763   2.194 -0.2515 -0.5258 -0.4818
   66SAPC    HX 5441   2.778   4.752   2.097  0.0570  4.4589 -1.4612
   66SAPC    HY 5442   2.827   4.870   2.224 -0.8873 -0.7695  0.3245
   66SAPC   O31 5443   2.776   4.676   2.294 -0.1795  0.1354 -0.5071
   66SAPC   C31 5444   2.762   4.728   2.417 -0.4201  0.4694 -0.7514
   66SAPC   O32 5445   2.776   4.844   2.455  0.3403  0.4633 -0.0986
   66SAPC   C32 5446   2.726   4.618   2.506  0.3360 -0.4364 -0.4894
   66SAPC   H2X 5447   2.812   4.548   2.496  0.0710 -0.8250 -0.0849
   66SAPC   H2Y 5448   2.644   4.564   2.454  0.0407  0.2660 -0.7687
   66SAPC   C23 5449   3.085   4.770   2.581  0.2425  0.0076  0.3478
   66SAPC   H3R 5450   3.081   4.664   2.548  0.3008 -0.1953  0.9761
   66SAPC   H3S 5451   2.992   4.831   2.585  0.6913  0.7331 -0.1592
   66SAPC   C24 5452   3.138   4.774   2.728  0.4005  0.7810 -0.5171
   66SAPC   H4R 5453   3.237   4.724   2.730 -0.3816 -0.8754 -1.2712
   66SAPC   H4S 5454   3.073   4.709   2.792 -0.1468  0.8326 -1.0158
   66SAPC   C25 5455   3.128   4.918   2.781  0.1517  0.6418  0.1707
   66SAPC   H5R 5456   3.192   4.982   2.718  1.0129 -0.9627 -0.6757
   66SAPC   C26 5457   3.060   4.974   2.887 -0.7337  0.1565 -0.1744
   66SAPC   H6R 5458   3.064   5.084   2.886 -0.3340  0.1439 -0.3229
   66SAPC   C27 5459   2.958   4.903   2.974  0.1842  0.1424  0.1837
   66SAPC   H7R 5460   3.010   4.850   3.056 -1.3658 -1.4668  0.1671
   66SAPC   H7S 5461   2.904   4.823   2.920  1.0487 -0.1441 -0.2857
   66SAPC   C28 5462   2.858   5.010   3.027  0.0630  0.0761 -0.1224
   66SAPC   H8R 5463   2.783   5.046   2.955 -1.7645 -1.7734  0.7277
   66SAPC   C29 5464   2.864   5.052   3.157  0.2557 -0.1757 -0.0085
   66SAPC   H9R 5465   2.773   5.108   3.182  0.2522 -0.0294 -0.3450
   66SAPC  C210 5466   2.968   5.014   3.264 -0.4536 -0.0870  1.0594
   66SAPC  H10R 5467   3.070   5.049   3.235  0.3990 -1.0802  2.7444
   66SAPC  H10S 5468   2.987   4.905   3.272  1.2238  0.0925  0.0530
   66SAPC  C211 5469   2.923   5.057   3.402  0.1855 -0.0437  0.9422
   66SAPC  H11R 5470   2.852   5.141   3.405  0.5318  0.3918 -1.3495
   66SAPC  C212 5471   2.968   5.008   3.519 -0.0876  0.2459  0.1437
   66SAPC  H12R 5472   2.913   5.033   3.612 -0.5716 -2.9987  0.8848
   66SAPC  C213 5473   3.063   4.897   3.529  0.1469  0.0983  0.3919
   66SAPC  H13R 5474   3.048   4.821   3.449  2.3503 -0.6286  0.6279
   66SAPC  H13S 5475   3.042   4.850   3.628  1.1777 -0.8468  0.1815
   66SAPC  C214 5476   3.207   4.954   3.518 -0.3176 -0.0779 -0.0936
   66SAPC  H14R 5477   3.231   5.004   3.423 -1.2280 -0.3683 -0.4903
   66SAPC  C215 5478   3.297   4.931   3.617 -0.1357  0.3081 -0.1883
   66SAPC  H15R 5479   3.396   4.980   3.615 -1.5355  3.3438 -0.0255
   66SAPC  C216 5480   3.285   4.848   3.747 -0.5126  0.3129  0.5900
   66SAPC  H16R 5481   3.365   4.771   3.758 -3.4264 -3.1026 -0.0809
   66SAPC  H16S 5482   3.195   4.783   3.742  0.1983 -0.6902  0.3729
   66SAPC  C217 5483   3.272   4.935   3.869  0.6957  0.5652  0.4387
   66SAPC  H17R 5484   3.359   4.999   3.893 -1.0640  3.3952 -0.1696
   66SAPC  H17S 5485   3.252   4.860   3.948  1.9131 -0.0356  0.1925
   66SAPC  C218 5486   3.160   5.045   3.858  0.6998  0.0784  0.5574
   66SAPC  H18R 5487   3.065   4.992   3.840  0.6438  0.8439 -1.7236
   66SAPC  H18S 5488   3.176   5.119   3.777  1.2227  2.0969  2.4005
   66SAPC  C219 5489   3.146   5.145   3.972 -0.6233  0.2393 -0.1670
   66SAPC  H19R 5490   3.247   5.190   3.981 -1.0600  1.1588  0.2148
   66SAPC  H19S 5491   3.142   5.091   4.069  1.9821  0.4845  0.1473
   66SAPC  C220 5492   3.050   5.255   3.948  0.5042 -0.1734  0.6735
   66SAPC  H20R 5493   2.947   5.213   3.954  0.7010 -0.9954 -1.1587
   66SAPC  H20S 5494   3.059   5.296   3.846 -2.6735 -2.2542 -0.6223
   66SAPC  H20T 5495   3.069   5.338   4.019  2.6197  1.9919 -2.1901
   66SAPC   C33 5496   2.691   4.657   2.650  0.2881 -0.0879 -0.0007
   66SAPC   H3X 5497   2.619   4.741   2.651 -0.0249 -0.2216 -2.8996
   66SAPC   H3Y 5498   2.781   4.694   2.705 -0.6177  2.1713  0.0377
   66SAPC   C34 5499   2.633   4.533   2.715 -0.4851  0.7782 -0.1667
   66SAPC   H4X 5500   2.711   4.461   2.748 -1.6897 -1.4380 -1.8882
   66SAPC   H4Y 5501   2.578   4.473   2.640 -3.3601 -0.1746  2.4808
   66SAPC   C35 5502   2.534   4.573   2.822  0.6758  0.0947  0.0356
   66SAPC   H5X 5503   2.496   4.478   2.866  0.8944  0.3224  0.7272
   66SAPC   H5Y 5504   2.447   4.628   2.779  0.8484  1.3288  1.1961
   66SAPC   C36 5505   2.606   4.668   2.932  0.8117 -0.8951 -0.3693
   66SAPC   H6X 5506   2.637   4.765   2.889  0.8775 -1.1815 -0.9729
   66SAPC   H6Y 5507   2.707   4.625   2.949  0.4923 -1.0671  1.3276
   66SAPC   C37 5508   2.529   4.674   3.061  0.3196  0.2258 -0.1130
   66SAPC   H7X 5509   2.498   4.573   3.093 -2.2757  1.5491  2.0243
   66SAPC   H7Y 5510   2.434   4.727   3.037 -1.3057 -2.4883 -0.0015
   66SAPC   C38 5511   2.601   4.740   3.185 -0.4154 -1.0070 -0.3472
   66SAPC   H8X 5512   2.513   4.759   3.250 -0.8548 -0.0770 -1.2019
   66SAPC   H8Y 5513   2.657   4.829   3.151 -1.3895  0.4981  1.7854
   66SAPC   C39 5514   2.699   4.631   3.243 -0.2488  0.6583  0.2544
   66SAPC   H9X 5515   2.781   4.630   3.169 -0.2300 -0.7437  0.2691
   66SAPC   H9Y 5516   2.653   4.530   3.241 -0.6079  0.8258 -0.1896
   66SAPC  C310 5517   2.774   4.672   3.367 -0.2886  0.2120  0.2136
   66SAPC  H10X 5518   2.816   4.775   3.362 -1.0509  0.4709 -1.5175
   66SAPC  H10Y 5519   2.857   4.601   3.386  0.7757  1.6557  1.2331
   66SAPC  C311 5520   2.683   4.669   3.494  0.3182 -0.1670 -0.2033
   66SAPC  H11X 5521   2.634   4.571   3.510  0.8640 -0.4540 -0.2650
   66SAPC  H11Y 5522   2.603   4.745   3.480  0.6378 -0.1489 -2.2816
   66SAPC  C312 5523   2.758   4.720   3.617 -0.0636  0.3548  0.7443
   66SAPC  H12X 5524   2.793   4.823   3.594 -1.8430  1.1460  1.3936
   66SAPC  H12Y 5525   2.847   4.660   3.646  1.1393  1.8416  0.2526
   66SAPC  C313 5526   2.672   4.743   3.746 -0.3473  0.4273 -0.9005
   66SAPC  H13X 5527   2.664   4.641   3.789  1.7785  0.9452  0.9007
   66SAPC  H13Y 5528   2.570   4.781   3.726 -1.4101 -1.8589 -0.2483
   66SAPC  C314 5529   2.737   4.828   3.863 -0.3913 -0.1611 -0.4797
   66SAPC  H14X 5530   2.652   4.876   3.916 -0.2913  0.5079 -0.9055
   66SAPC  H14Y 5531   2.796   4.916   3.828 -1.8567  0.3357 -1.7859
   66SAPC  C315 5532   2.817   4.739   3.961  0.0160  0.0899 -0.9084
   66SAPC  H15X 5533   2.901   4.712   3.894 -0.5195  0.6283 -1.8139
   66SAPC  H15Y 5534   2.745   4.662   3.995 -0.6691  0.0587 -2.3400
   66SAPC  C316 5535   2.870   4.828   4.086 -0.0711 -0.3330 -0.2734
   66SAPC  H16X 5536   2.823   4.927   4.068 -1.2578 -0.6948  0.6654
   66SAPC  H16Y 5537   2.981   4.833   4.086  0.2035 -3.3216  2.1779
   66SAPC  C317 5538   2.824   4.778   4.222 -0.1588 -0.8088 -0.2340
   66SAPC  H17X 5539   2.859   4.674   4.237  0.6805 -0.8000 -1.9335
   66SAPC  H17Y 5540   2.714   4.788   4.208  0.1079  0.8717 -1.4118
   66SAPC  C318 5541   2.866   4.877   4.336  0.4136  0.5473  0.1971
   66SAPC  H18X 5542   2.976   4.889   4.335  0.3191  1.5094  0.3358
   66SAPC  H18Y 5543   2.826   4.847   4.435 -0.9668  0.5383 -0.3293
   66SAPC  H18Z 5544   2.811   4.970   4.311  1.3497  1.5236  1.6454
   67SAPC     N 5545   0.723   5.550   1.870  0.1486  0.5088 -0.9232
   67SAPC   C12 5546   0.816   5.633   1.955  0.4612  0.6886  0.2405
   67SAPC  H12A 5547   0.802   5.738   1.934 -0.5487  0.3187 -1.0919
   67SAPC  H12B 5548   0.913   5.619   1.911 -0.4579  2.8862 -2.8304
   67SAPC   C13 5549   0.753   5.405   1.886 -0.2146 -0.1463  0.1473
   67SAPC  H13A 5550   0.687   5.338   1.832  2.7025 -3.4815  0.3578
   67SAPC  H13B 5551   0.858   5.385   1.869  0.1364 -0.7519  2.6381
   67SAPC  H13C 5552   0.742   5.380   1.990  1.9924 -1.0004  0.2236
   67SAPC   C14 5553   0.580   5.575   1.910  0.1335  0.8389 -0.6670
   67SAPC  H14A 5554   0.546   5.522   1.998  3.2378  0.3933  0.3774
   67SAPC  H14B 5555   0.564   5.682   1.912 -2.5241  0.7666 -5.1135
   67SAPC  H14C 5556   0.510   5.545   1.834 -0.4187  0.2675  0.0494
   67SAPC   C15 5557   0.732   5.585   1.723 -0.7097 -1.0630 -0.5175
   67SAPC  H15A 5558   0.723   5.692   1.705 -0.8007 -0.4924  2.4716
   67SAPC  H15B 5559   0.827   5.562   1.676  0.1952  0.6791  0.3339
   67SAPC  H15C 5560   0.652   5.533   1.673  0.1781 -3.0512  0.0285
   67SAPC   C11 5561   0.817   5.622   2.106  0.2533 -0.1801 -0.3776
   67SAPC  H11A 5562   0.914   5.669   2.136  0.8805 -0.5142 -1.7876
   67SAPC  H11B 5563   0.809   5.514   2.131 -0.2251 -0.0893 -0.1275
   67SAPC     P 5564   0.677   5.843   2.149  0.2695 -0.0919  0.1724
   67SAPC   O13 5565   0.759   5.898   2.040 -0.0128  0.2856 -0.0990
   67SAPC   O14 5566   0.529   5.838   2.131  0.0210  0.1893  0.3646
   67SAPC   O12 5567   0.711   5.693   2.176  0.6069 -0.5349 -0.7682
   67SAPC   O11 5568   0.708   5.922   2.282 -0.2768  0.7045  0.8698
   67SAPC    C1 5569   0.803   5.860   2.369  0.8164  0.0242 -0.4404
   67SAPC    HA 5570   0.877   5.797   2.315  1.0789  0.8455 -1.0553
   67SAPC    HB 5571   0.848   5.944   2.426 -3.3696  0.0186  3.4690
   67SAPC    C2 5572   0.734   5.783   2.488 -0.6113 -0.2478  0.4702
   67SAPC    HS 5573   0.676   5.700   2.442 -0.1477 -0.4499  0.2458
   67SAPC   O21 5574   0.654   5.875   2.563 -0.7843  0.7950  0.5773
   67SAPC   C21 5575   0.563   5.820   2.655 -0.1860 -1.2862 -0.0228
   67SAPC   O22 5576   0.524   5.708   2.648  0.2810  0.0857  0.7301
   67SAPC   C22 5577   0.513   5.935   2.742 -0.5743 -0.4025  0.3905
   67SAPC   H2R 5578   0.596   6.000   2.778 -1.1481  0.7103 -0.2457
   67SAPC   H2S 5579   0.456   5.997   2.670  0.6655  1.0907  0.6320
   67SAPC    C3 5580   0.843   5.726   2.583 -0.8684 -0.1656 -0.0478
   67SAPC    HX 5581   0.892   5.816   2.626 -1.6116 -0.1841  0.8885
   67SAPC    HY 5582   0.934   5.685   2.534 -0.8592 -0.1849 -0.0149
   67SAPC   O31 5583   0.786   5.630   2.681  0.0281 -0.1600  0.3045
   67SAPC   C31 5584   0.764   5.513   2.622  0.2586 -0.2755 -0.3388
   67SAPC   O32 5585   0.798   5.479   2.513 -0.1400 -0.3285 -0.3143
   67SAPC   C32 5586   0.715   5.420   2.735  0.6641  0.3752 -0.7249
   67SAPC   H2X 5587   0.673   5.332   2.682  1.0316  0.6241 -1.4601
   67SAPC   H2Y 5588   0.639   5.469   2.799  0.6545 -1.5823  0.8778
   67SAPC   C23 5589   0.425   5.888   2.858 -0.2513 -0.1186  0.5478
   67SAPC   H3R 5590   0.349   5.819   2.816  0.3961  0.6922 -2.1065
   67SAPC   H3S 5591   0.388   5.984   2.898  2.3583  1.2712 -0.1427
   67SAPC   C24 5592   0.503   5.808   2.967  0.1660 -0.8841  0.3860
   67SAPC   H4R 5593   0.591   5.864   3.007 -0.4824 -0.2261  0.9195
   67SAPC   H4S 5594   0.540   5.714   2.921 -2.6994 -2.5839  1.3154
   67SAPC   C25 5595   0.412   5.768   3.077 -0.5585 -0.6541 -0.3107
   67SAPC   H5R 5596   0.341   5.685   3.060 -2.4257  0.3086  2.1306
   67SAPC   C26 5597   0.415   5.811   3.209  0.6956  0.0586 -0.6570
   67SAPC   H6R 5598   0.333   5.791   3.279  1.2675  0.9747  0.2922
   67SAPC   C27 5599   0.495   5.916   3.271  0.5838  0.2458 -0.5426
   67SAPC   H7R 5600   0.561   5.963   3.195 -0.8737  0.7717 -1.5239
   67SAPC   H7S 5601   0.566   5.867   3.341  0.8121  1.0618 -0.1907
   67SAPC   C28 5602   0.404   6.026   3.323  0.5503  0.1826  0.9638
   67SAPC   H8R 5603   0.352   6.077   3.241 -1.3121 -1.7875  0.8163
   67SAPC   C29 5604   0.390   6.072   3.448  0.4235 -0.0100 -0.4714
   67SAPC   H9R 5605   0.324   6.159   3.465 -0.5378 -0.8080 -0.0220
   67SAPC  C210 5606   0.467   6.024   3.572 -0.3682 -0.4297 -0.3875
   67SAPC  H10R 5607   0.495   6.110   3.637 -0.5175 -0.4692 -0.2713
   67SAPC  H10S 5608   0.564   5.981   3.541  1.0850  1.0852  1.7681
   67SAPC  C211 5609   0.392   5.921   3.657  0.1842 -0.6610  0.5306
   67SAPC  H11R 5610   0.341   5.839   3.604 -2.1031  1.3386 -0.5717
   67SAPC  C212 5611   0.366   5.933   3.784  0.7369  0.2408 -0.2386
   67SAPC  H12R 5612   0.325   5.844   3.835 -1.4132  1.1874 -0.2104
   67SAPC  C213 5613   0.411   6.042   3.884 -0.0863 -0.1540  0.0563
   67SAPC  H13R 5614   0.326   6.108   3.913 -0.9926 -1.8013  1.3158
   67SAPC  H13S 5615   0.488   6.104   3.833  0.8565 -1.7185 -0.4855
   67SAPC  C214 5616   0.471   5.982   4.008  0.3163 -0.1145  0.2162
   67SAPC  H14R 5617   0.557   5.917   3.988  0.8392  1.7384 -5.1701
   67SAPC  C215 5618   0.417   5.983   4.132 -0.0717  0.2704  0.0881
   67SAPC  H15R 5619   0.477   5.951   4.218  0.8210 -0.6767 -0.8606
   67SAPC  C216 5620   0.288   6.053   4.164 -0.8219  0.2538 -0.0092
   67SAPC  H16R 5621   0.200   5.987   4.145  0.5081 -1.6624  0.2010
   67SAPC  H16S 5622   0.278   6.148   4.106  1.6352  0.0694 -0.8569
   67SAPC  C217 5623   0.282   6.090   4.317 -0.3123 -0.1035  0.4728
   67SAPC  H17R 5624   0.216   6.178   4.335 -1.3475 -0.8423  0.3680
   67SAPC  H17S 5625   0.383   6.109   4.359  0.3311  1.9199 -1.7504
   67SAPC  C218 5626   0.226   5.971   4.393 -0.2044 -0.0243 -0.8921
   67SAPC  H18R 5627   0.283   5.878   4.374 -0.0241 -0.2184  0.5057
   67SAPC  H18S 5628   0.119   5.958   4.364 -0.0314 -2.0159 -0.7440
   67SAPC  C219 5629   0.252   5.984   4.545  0.4567  0.8347  0.3885
   67SAPC  H19R 5630   0.210   6.081   4.578 -0.7245  1.2104 -1.9642
   67SAPC  H19S 5631   0.359   6.003   4.570 -0.6246  4.5458  2.9392
   67SAPC  C220 5632   0.187   5.873   4.633  0.3975  0.0428 -0.4199
   67SAPC  H20R 5633   0.081   5.853   4.607 -0.1230  0.8436  0.9706
   67SAPC  H20S 5634   0.201   5.885   4.742  0.4778 -3.0916 -0.0049
   67SAPC  H20T 5635   0.233   5.776   4.605 -0.4857 -0.2634 -0.8538
   67SAPC   C33 5636   0.834   5.381   2.834 -0.1658  0.4776  0.9695
   67SAPC   H3X 5637   0.930   5.369   2.779 -0.2300  0.9660  0.7436
   67SAPC   H3Y 5638   0.804   5.280   2.869 -0.4724 -0.2953 -1.3403
   67SAPC   C34 5639   0.861   5.483   2.948  0.1829  0.0136 -0.1869
   67SAPC   H4X 5640   0.808   5.577   2.923  1.2009  0.3589 -1.0902
   67SAPC   H4Y 5641   0.964   5.522   2.952 -0.2961  1.2799  0.5653
   67SAPC   C35 5642   0.825   5.427   3.091 -0.1846  0.0603 -0.4510
   67SAPC   H5X 5643   0.891   5.342   3.121  1.3392  1.0364 -0.9306
   67SAPC   H5Y 5644   0.732   5.369   3.073 -1.5854  1.9867  0.3308
   67SAPC   C36 5645   0.799   5.536   3.199  0.7559 -0.2760  0.3306
   67SAPC   H6X 5646   0.718   5.606   3.169  0.4016 -0.8116  0.0279
   67SAPC   H6Y 5647   0.884   5.608   3.201 -0.3056  1.0030  0.4149
   67SAPC   C37 5648   0.771   5.484   3.340 -0.1078  0.4015 -0.5248
   67SAPC   H7X 5649   0.860   5.423   3.364  0.6228  1.4025 -0.6210
   67SAPC   H7Y 5650   0.679   5.421   3.340  0.8906 -1.1285 -1.6506
   67SAPC   C38 5651   0.743   5.602   3.436  0.1897 -0.5574 -0.0731
   67SAPC   H8X 5652   0.732   5.554   3.535  2.5639 -1.1358 -0.0205
   67SAPC   H8Y 5653   0.658   5.660   3.394  1.8342  2.3121  0.2655
   67SAPC   C39 5654   0.859   5.699   3.454 -0.5190 -0.6348  1.0123
   67SAPC   H9X 5655   0.879   5.755   3.360 -1.1029  1.5159  2.1250
   67SAPC   H9Y 5656   0.961   5.657   3.469  0.7186  0.8596 -2.3063
   67SAPC  C310 5657   0.848   5.811   3.558  0.4896  0.9876 -0.1823
   67SAPC  H10X 5658   0.794   5.899   3.518 -0.0452 -0.3371 -2.5730
   67SAPC  H10Y 5659   0.948   5.850   3.587  0.2689  0.1908  1.8134
   67SAPC  C311 5660   0.783   5.762   3.693  0.1431 -0.7683  0.0101
   67SAPC  H11X 5661   0.824   5.664   3.727  1.2758  0.6674  3.1501
   67SAPC  H11Y 5662   0.680   5.731   3.664 -1.2619  3.7807 -0.6144
   67SAPC  C312 5663   0.784   5.861   3.806  0.3660  0.3201 -0.6018
   67SAPC  H12X 5664   0.710   5.829   3.881  0.7977 -0.6960 -0.5876
   67SAPC  H12Y 5665   0.750   5.957   3.763 -0.1071  1.4273  2.0743
   67SAPC  C313 5666   0.923   5.887   3.872 -0.3700  0.6740 -0.6271
   67SAPC  H13X 5667   1.007   5.906   3.801  0.0233 -2.2801 -1.0890
   67SAPC  H13Y 5668   0.957   5.800   3.932  0.3864  1.6781  0.4668
   67SAPC  C314 5669   0.904   6.003   3.966 -0.1705  0.0365  0.0121
   67SAPC  H14X 5670   0.822   5.968   4.031  0.0829 -0.8282 -0.1288
   67SAPC  H14Y 5671   0.867   6.090   3.907 -0.2105  0.9916  1.3787
   67SAPC  C315 5672   1.033   6.039   4.050 -0.0279  0.8067  0.4339
   67SAPC  H15X 5673   1.084   6.115   3.987 -0.5541  0.8416  0.0460
   67SAPC  H15Y 5674   1.095   5.949   4.068  0.3543  0.9372 -0.1856
   67SAPC  C316 5675   0.994   6.079   4.194  0.2222  0.1890  0.2616
   67SAPC  H16X 5676   0.978   5.986   4.251  3.4692  1.0337  2.8825
   67SAPC  H16Y 5677   0.896   6.131   4.185 -1.8569 -3.2567  1.1109
   67SAPC  C317 5678   1.086   6.164   4.279  0.1170 -0.4203  0.1930
   67SAPC  H17X 5679   1.052   6.155   4.384  1.2831  0.3695  0.6562
   67SAPC  H17Y 5680   1.089   6.274   4.266  2.9335 -0.4254  0.2463
   67SAPC  C318 5681   1.230   6.106   4.283 -0.3199 -0.4814  0.7988
   67SAPC  H18X 5682   1.291   6.151   4.364  0.2406 -0.2822  0.2771
   67SAPC  H18Y 5683   1.284   6.123   4.187 -1.4860  0.8721  0.3353
   67SAPC  H18Z 5684   1.221   5.998   4.307  0.1195 -0.3422  1.6063
   68SAPC     N 5685   3.131   3.770   1.947  0.6597 -0.3797  0.0491
   68SAPC   C12 5686   3.093   3.914   1.983 -0.2668 -0.4585  0.6773
   68SAPC  H12A 5687   3.001   3.945   1.937  0.8807  0.6001 -1.0433
   68SAPC  H12B 5688   3.167   3.979   1.938 -1.3896 -0.7877 -1.8196
   68SAPC   C13 5689   3.015   3.680   1.987 -0.7016 -0.5428  0.0246
   68SAPC  H13A 5690   2.978   3.714   2.083  0.9211  1.5245 -0.0169
   68SAPC  H13B 5691   2.939   3.673   1.911 -0.5416 -2.4157 -0.0064
   68SAPC  H13C 5692   3.054   3.580   2.001  1.2927  0.2015 -0.0199
   68SAPC   C14 5693   3.139   3.753   1.795 -0.0284 -0.2368 -0.1281
   68SAPC  H14A 5694   3.051   3.802   1.756  0.2009 -0.2075 -0.6294
   68SAPC  H14B 5695   3.225   3.796   1.746  1.0603 -0.9367  1.1025
   68SAPC  H14C 5696   3.130   3.650   1.763  0.8461 -0.0180 -1.1604
   68SAPC   C15 5697   3.263   3.728   1.999 -0.1405 -0.9606  0.0935
   68SAPC  H15A 5698   3.338   3.789   1.953 -0.2312 -0.7442  0.2293
   68SAPC  H15B 5699   3.273   3.741   2.106 -0.4133 -2.1112  0.2837
   68SAPC  H15C 5700   3.287   3.626   1.969  0.8000 -0.3298 -1.4092
   68SAPC   C11 5701   3.070   3.956   2.121 -0.2846  0.1225  0.0126
   68SAPC  H11A 5702   3.065   4.066   2.135  0.4241  0.0455  0.9476
   68SAPC  H11B 5703   3.159   3.937   2.184 -0.1303  1.0496  0.0915
   68SAPC     P 5704   2.807   3.950   2.149  0.4323  0.0885  0.0585
   68SAPC   O13 5705   2.777   3.951   2.002  0.1424 -0.3492  0.0650
   68SAPC   O14 5706   2.728   3.861   2.232 -0.1478  0.2082  0.5358
   68SAPC   O12 5707   2.952   3.898   2.171 -0.1763  0.6238  0.2819
   68SAPC   O11 5708   2.809   4.096   2.221  0.3564 -0.2038  0.0075
   68SAPC    C1 5709   2.721   4.133   2.320 -0.5717  0.0530 -0.8042
   68SAPC    HA 5710   2.676   4.231   2.294  0.0503  0.5743  0.0471
   68SAPC    HB 5711   2.646   4.055   2.343  0.5849 -1.4227 -1.8365
   68SAPC    C2 5712   2.800   4.157   2.451 -0.4026 -0.1989  0.2329
   68SAPC    HS 5713   2.839   4.058   2.482 -4.0993 -1.5764  0.9639
   68SAPC   O21 5714   2.709   4.222   2.550 -0.1235  0.1899  0.4213
   68SAPC   C21 5715   2.631   4.131   2.614 -0.1957 -0.1210 -0.2547
   68SAPC   O22 5716   2.627   4.011   2.590  0.7859  0.1750  0.1854
   68SAPC   C22 5717   2.534   4.199   2.705  0.1661 -0.3857  0.5214
   68SAPC   H2R 5718   2.579   4.267   2.781 -0.5820 -0.2910  0.8921
   68SAPC   H2S 5719   2.474   4.255   2.631  0.6881 -1.7428 -0.9820
   68SAPC    C3 5720   2.919   4.250   2.423 -0.7367 -0.0317 -0.4378
   68SAPC    HX 5721   2.873   4.338   2.373  1.1802 -0.4444 -3.1490
   68SAPC    HY 5722   2.987   4.200   2.350  0.3381 -0.4850  0.8483
   68SAPC   O31 5723   3.000   4.284   2.541 -0.0063  0.3157  0.0488
   68SAPC   C31 5724   3.099   4.366   2.513 -0.2595 -0.0447  0.3725
   68SAPC   O32 5725   3.110   4.427   2.403 -0.0439  0.7977  0.3188
   68SAPC   C32 5726   3.193   4.383   2.635 -0.2380  0.3316  0.1069
   68SAPC   H2X 5727   3.129   4.373   2.725 -0.9554  1.9972 -0.1847
   68SAPC   H2Y 5728   3.235   4.485   2.639  2.3153 -0.6777  1.3486
   68SAPC   C23 5729   2.446   4.094   2.778  0.0240  0.4643  0.0389
   68SAPC   H3R 5730   2.406   4.022   2.703 -1.0326  0.2116  0.8217
   68SAPC   H3S 5731   2.351   4.149   2.796 -0.3275  0.4505 -1.5914
   68SAPC   C24 5732   2.495   4.029   2.911 -0.1507  0.2387  0.6602
   68SAPC   H4R 5733   2.407   3.996   2.970 -2.1862  3.1912 -0.4762
   68SAPC   H4S 5734   2.533   4.120   2.962 -2.5878  1.6290  0.1601
   68SAPC   C25 5735   2.597   3.918   2.893  0.7597  0.0630  0.6463
   68SAPC   H5R 5736   2.658   3.921   2.802 -0.6623  1.0315 -0.3110
   68SAPC   C26 5737   2.638   3.828   2.980  0.2789 -0.7045 -0.3636
   68SAPC   H6R 5738   2.705   3.748   2.946  0.9969 -1.2192  2.0218
   68SAPC   C27 5739   2.585   3.802   3.120  0.4939  0.2724 -0.2991
   68SAPC   H7R 5740   2.632   3.709   3.157  0.1417  0.6105  1.0464
   68SAPC   H7S 5741   2.475   3.789   3.115  0.5621  0.0636 -1.4653
   68SAPC   C28 5742   2.614   3.910   3.218 -0.5898 -0.2482 -0.8306
   68SAPC   H8R 5743   2.564   4.008   3.207  0.9406  0.7710  0.6838
   68SAPC   C29 5744   2.701   3.894   3.316 -0.2898 -0.2487 -0.1691
   68SAPC   H9R 5745   2.713   3.985   3.377 -2.3726  0.3675 -0.5735
   68SAPC  C210 5746   2.769   3.764   3.358  0.1414 -0.3804  0.3758
   68SAPC  H10R 5747   2.867   3.795   3.400 -0.6775 -0.3980  2.4262
   68SAPC  H10S 5748   2.780   3.689   3.277  0.7951  0.2681 -0.1468
   68SAPC  C211 5749   2.687   3.688   3.463 -0.6030  0.6572  0.1082
   68SAPC  H11R 5750   2.591   3.645   3.430 -0.4160 -0.1204  0.5764
   68SAPC  C212 5751   2.706   3.681   3.597  0.4131 -0.1252 -0.0565
   68SAPC  H12R 5752   2.641   3.617   3.657  3.3070 -1.5316  1.8409
   68SAPC  C213 5753   2.818   3.751   3.675 -0.3800  0.7831 -0.1091
   68SAPC  H13R 5754   2.814   3.861   3.663  0.0527  0.9213  0.9776
   68SAPC  H13S 5755   2.915   3.735   3.623 -0.4052 -2.2641  0.5843
   68SAPC  C214 5756   2.839   3.695   3.813  0.1430 -0.0799 -0.4296
   68SAPC  H14R 5757   2.924   3.627   3.831  1.2946  0.9519 -1.7843
   68SAPC  C215 5758   2.762   3.734   3.915 -0.0107  0.9445 -0.1156
   68SAPC  H15R 5759   2.785   3.681   4.008  1.8243 -1.9374 -2.0391
   68SAPC  C216 5760   2.649   3.833   3.920 -0.1919 -0.3023 -0.3787
   68SAPC  H16R 5761   2.583   3.824   3.831  1.2081 -2.7573 -1.2655
   68SAPC  H16S 5762   2.696   3.933   3.906  0.9097 -0.7514  0.0011
   68SAPC  C217 5763   2.571   3.843   4.053 -0.4800  0.7014 -0.4611
   68SAPC  H17R 5764   2.504   3.931   4.047 -0.5338  0.8854  1.9629
   68SAPC  H17S 5765   2.650   3.870   4.126 -0.8627 -0.2464  0.3198
   68SAPC  C218 5766   2.493   3.710   4.079  0.8175 -0.9588  0.3961
   68SAPC  H18R 5767   2.560   3.625   4.103 -0.0419 -2.1705 -1.3078
   68SAPC  H18S 5768   2.431   3.682   3.991 -0.1450  0.4184  0.5873
   68SAPC  C219 5769   2.404   3.723   4.202 -0.3275  0.6542 -0.0995
   68SAPC  H19R 5770   2.344   3.816   4.209  0.5000  1.1441  0.7205
   68SAPC  H19S 5771   2.474   3.718   4.287  0.6543 -0.4949 -0.9429
   68SAPC  C220 5772   2.303   3.606   4.211 -0.5053  0.0930  0.2065
   68SAPC  H20R 5773   2.241   3.591   4.120 -1.6642 -0.3378  1.0542
   68SAPC  H20S 5774   2.227   3.614   4.291 -0.7480 -0.0969 -0.0045
   68SAPC  H20T 5775   2.356   3.509   4.226 -2.0207 -0.7118  0.4843
   68SAPC   C33 5776   3.316   4.286   2.627 -0.1729 -0.0435  0.4227
   68SAPC   H3X 5777   3.367   4.300   2.529 -0.7507  2.4889  0.4052
   68SAPC   H3Y 5778   3.265   4.188   2.638 -2.0762  0.7858 -0.5587
   68SAPC   C34 5779   3.405   4.321   2.750  1.2121  0.6510  0.2272
   68SAPC   H4X 5780   3.332   4.326   2.834 -0.5888 -0.9267 -1.1599
   68SAPC   H4Y 5781   3.447   4.424   2.746  1.4323  0.5334 -1.0242
   68SAPC   C35 5782   3.524   4.223   2.777 -0.0387  0.3785  0.0237
   68SAPC   H5X 5783   3.613   4.231   2.711  0.9645 -0.5421  1.2267
   68SAPC   H5Y 5784   3.490   4.118   2.760 -0.6949  0.5905 -0.0015
   68SAPC   C36 5785   3.588   4.226   2.917  0.4220  0.4769  0.1708
   68SAPC   H6X 5786   3.614   4.333   2.933 -1.7527  0.8693  1.6252
   68SAPC   H6Y 5787   3.679   4.164   2.904 -0.3278 -0.4860 -0.6812
   68SAPC   C37 5788   3.499   4.160   3.023  0.0495  0.5356 -0.4902
   68SAPC   H7X 5789   3.513   4.051   3.006  0.9967  0.5797 -0.0664
   68SAPC   H7Y 5790   3.397   4.203   3.024  0.6243  2.0324  1.9542
   68SAPC   C38 5791   3.553   4.192   3.166 -0.0616  0.4942  0.0063
   68SAPC   H8X 5792   3.644   4.252   3.149 -0.1302  0.6768  0.2819
   68SAPC   H8Y 5793   3.579   4.098   3.220 -0.5496  0.0781 -0.4566
   68SAPC   C39 5794   3.456   4.260   3.256 -0.3681 -0.4870  2.0661
   68SAPC   H9X 5795   3.411   4.350   3.208  1.1004 -0.4738  0.6491
   68SAPC   H9Y 5796   3.503   4.300   3.348  1.6592 -0.7635  1.1963
   68SAPC  C310 5797   3.345   4.158   3.311  0.0578 -0.6178 -0.0854
   68SAPC  H10X 5798   3.392   4.060   3.334 -0.1971 -0.6944  0.1192
   68SAPC  H10Y 5799   3.271   4.160   3.229 -1.1883  1.9456  0.9742
   68SAPC  C311 5800   3.265   4.207   3.431  0.0333 -0.0065  0.2586
   68SAPC  H11X 5801   3.228   4.310   3.413 -0.9958 -0.7479 -2.3637
   68SAPC  H11Y 5802   3.333   4.206   3.519 -0.8662 -1.9734  0.9833
   68SAPC  C312 5803   3.138   4.114   3.455 -0.5728 -0.7878 -0.3669
   68SAPC  H12X 5804   3.167   4.010   3.479 -2.2554 -1.5616 -1.4962
   68SAPC  H12Y 5805   3.092   4.110   3.354  2.6691 -1.4456 -1.9186
   68SAPC  C313 5806   3.032   4.162   3.553  0.1064  0.4168  0.2305
   68SAPC  H13X 5807   3.081   4.182   3.651 -1.5242 -0.7043  1.3281
   68SAPC  H13Y 5808   2.960   4.078   3.565  0.7010 -0.0718  0.4476
   68SAPC  C314 5809   2.951   4.280   3.499 -0.1221 -0.4728 -0.0811
   68SAPC  H14X 5810   2.966   4.280   3.389 -0.5936  2.0619 -0.1849
   68SAPC  H14Y 5811   3.013   4.368   3.525 -0.8361  0.6506 -1.9868
   68SAPC  C315 5812   2.810   4.302   3.544  0.1127 -0.3846  0.1344
   68SAPC  H15X 5813   2.759   4.206   3.524 -0.2814 -0.7627  2.6470
   68SAPC  H15Y 5814   2.768   4.382   3.479  0.8849  0.1292  0.2533
   68SAPC  C316 5815   2.793   4.319   3.693  0.3407  0.3032 -0.6189
   68SAPC  H16X 5816   2.856   4.402   3.731  1.8520 -2.1730  2.8553
   68SAPC  H16Y 5817   2.837   4.229   3.741 -1.9070  0.4241  1.8661
   68SAPC  C317 5818   2.652   4.346   3.739  0.1779 -0.9779 -1.3252
   68SAPC  H17X 5819   2.596   4.264   3.691  0.4452 -0.2318 -2.9616
   68SAPC  H17Y 5820   2.620   4.443   3.695 -1.3948 -0.2298  1.2456
   68SAPC  C318 5821   2.627   4.341   3.895  0.3835 -0.6707  0.1251
   68SAPC  H18X 5822   2.520   4.325   3.919  0.3181 -0.8120 -0.2591
   68SAPC  H18Y 5823   2.652   4.439   3.940 -2.2625  0.2683 -0.2942
   68SAPC  H18Z 5824   2.687   4.263   3.946 -0.9248 -1.9869 -0.2831
   69SAPC     N 5825   1.702   3.108   1.512 -0.3671 -0.1433 -0.3848
   69SAPC   C12 5826   1.650   3.143   1.655  0.7700 -0.3065  0.6379
   69SAPC  H12A 5827   1.545   3.116   1.651  0.2241  1.6781 -0.0515
   69SAPC  H12B 5828   1.637   3.250   1.666  1.5612 -0.1004 -0.3191
   69SAPC   C13 5829   1.839   3.159   1.492 -0.3846 -0.3603  0.1684
   69SAPC  H13A 5830   1.837   3.259   1.533  3.0165  0.5709 -1.5409
   69SAPC  H13B 5831   1.911   3.106   1.553 -0.2914  0.7287  1.0302
   69SAPC  H13C 5832   1.879   3.165   1.392  1.2781  0.8467  0.8593
   69SAPC   C14 5833   1.691   2.964   1.473  0.3223  0.1673  0.1049
   69SAPC  H14A 5834   1.742   2.939   1.382  2.3756  1.7991  0.7321
   69SAPC  H14B 5835   1.737   2.899   1.546 -0.2498 -0.8417 -0.3992
   69SAPC  H14C 5836   1.588   2.932   1.466  0.0787  0.5655  1.4405
   69SAPC   C15 5837   1.624   3.187   1.405  0.8762 -0.0682 -0.1350
   69SAPC  H15A 5838   1.518   3.164   1.409  0.8132  0.3689  1.1244
   69SAPC  H15B 5839   1.626   3.295   1.416  0.6257 -0.0324 -0.4042
   69SAPC  H15C 5840   1.670   3.168   1.309 -0.6021  0.2691 -0.9550
   69SAPC   C11 5841   1.715   3.083   1.778 -0.9695  0.0596  0.4580
   69SAPC  H11A 5842   1.689   3.138   1.871 -1.1524  0.0664  0.4030
   69SAPC  H11B 5843   1.826   3.075   1.775 -0.9790 -0.9396  1.8117
   69SAPC     P 5844   1.511   2.904   1.826  0.2362 -0.0960 -0.0585
   69SAPC   O13 5845   1.418   2.963   1.732 -0.4136  0.0222  0.0559
   69SAPC   O14 5846   1.504   2.755   1.844 -0.0722 -0.9777 -0.1077
   69SAPC   O12 5847   1.660   2.951   1.788 -0.9327  0.1073 -0.1638
   69SAPC   O11 5848   1.477   2.959   1.977 -0.0747 -0.1830  0.1986
   69SAPC    C1 5849   1.550   2.891   2.081 -0.2520 -0.2746  0.3418
   69SAPC    HA 5850   1.542   2.780   2.081 -1.1161 -0.2389 -0.7981
   69SAPC    HB 5851   1.658   2.906   2.058 -0.4185  1.6963  0.6414
   69SAPC    C2 5852   1.535   2.953   2.218  0.5290 -0.3872 -0.3989
   69SAPC    HS 5853   1.625   2.914   2.270  1.6526  2.7528  0.2483
   69SAPC   O21 5854   1.417   2.914   2.281  0.2035 -0.2184  0.1781
   69SAPC   C21 5855   1.426   2.895   2.415 -0.4880  0.6951 -0.1728
   69SAPC   O22 5856   1.529   2.886   2.483  0.0823  0.1563  0.5734
   69SAPC   C22 5857   1.287   2.895   2.467  0.0264  0.2799 -0.0116
   69SAPC   H2R 5858   1.248   2.995   2.439  2.0690  0.7137 -1.4824
   69SAPC   H2S 5859   1.236   2.824   2.399  3.8338 -0.6042 -2.2151
   69SAPC    C3 5860   1.544   3.111   2.220 -0.5587 -0.1548  0.6243
   69SAPC    HX 5861   1.441   3.148   2.201 -0.1467  0.7732  0.1912
   69SAPC    HY 5862   1.604   3.147   2.134 -1.3747  1.8152  0.8158
   69SAPC   O31 5863   1.591   3.167   2.346  0.1408 -0.3178 -0.8870
   69SAPC   C31 5864   1.726   3.147   2.368  0.0543 -0.0794 -0.4157
   69SAPC   O32 5865   1.804   3.108   2.283  0.6445  0.0848  0.0935
   69SAPC   C32 5866   1.755   3.208   2.502 -0.3583  0.7829 -0.5656
   69SAPC   H2X 5867   1.720   3.130   2.573  0.6598 -0.8699 -1.8233
   69SAPC   H2Y 5868   1.688   3.291   2.533 -0.8120 -0.2459  1.3747
   69SAPC   C23 5869   1.277   2.857   2.615 -0.1281  0.0248  0.1419
   69SAPC   H3R 5870   1.343   2.904   2.691 -0.9011  0.4139  0.5839
   69SAPC   H3S 5871   1.300   2.749   2.618  4.4823  0.6764 -1.9069
   69SAPC   C24 5872   1.133   2.876   2.662 -0.0279  0.3401 -0.2116
   69SAPC   H4R 5873   1.122   2.814   2.754  1.8746 -1.3118 -1.0208
   69SAPC   H4S 5874   1.072   2.829   2.583  1.1002 -0.2937 -0.7336
   69SAPC   C25 5875   1.098   3.021   2.700  0.3045 -0.2527 -0.1496
   69SAPC   H5R 5876   1.178   3.093   2.679  0.7332 -0.7899 -0.3911
   69SAPC   C26 5877   0.989   3.068   2.761 -0.5837 -0.0262 -0.7437
   69SAPC   H6R 5878   0.985   3.176   2.779 -0.8075 -0.3220  1.1493
   69SAPC   C27 5879   0.869   2.994   2.798 -0.2162  0.1187 -0.3076
   69SAPC   H7R 5880   0.897   2.939   2.890 -1.4246  2.2618  1.4332
   69SAPC   H7S 5881   0.847   2.910   2.728 -2.2043 -0.0205  0.4040
   69SAPC   C28 5882   0.745   3.072   2.821  0.8143 -0.5182 -0.1552
   69SAPC   H8R 5883   0.693   3.110   2.732 -0.5484 -0.5869  0.5749
   69SAPC   C29 5884   0.685   3.095   2.947  0.0081 -0.1151  0.0449
   69SAPC   H9R 5885   0.588   3.147   2.947  0.2208  0.2930  0.4981
   69SAPC  C210 5886   0.737   3.043   3.086  0.0935  0.7240  0.2759
   69SAPC  H10R 5887   0.774   2.939   3.073 -0.6622  0.3658  0.8830
   69SAPC  H10S 5888   0.648   3.024   3.150  0.8746  0.6064  1.3613
   69SAPC  C211 5889   0.848   3.138   3.146  0.3862  0.6851 -0.4508
   69SAPC  H11R 5890   0.937   3.149   3.082  0.1962  0.4445 -0.7596
   69SAPC  C212 5891   0.854   3.191   3.267  0.3713  0.4040 -0.5359
   69SAPC  H12R 5892   0.942   3.253   3.292 -0.4825  0.2154  3.4153
   69SAPC  C213 5893   0.761   3.161   3.385 -0.2019  0.2591  0.4048
   69SAPC  H13R 5894   0.692   3.077   3.365  0.9551 -0.2447 -1.7318
   69SAPC  H13S 5895   0.696   3.250   3.398  1.6853  1.8773 -0.6303
   69SAPC  C214 5896   0.844   3.132   3.506 -0.0399  1.1108 -0.0683
   69SAPC  H14R 5897   0.918   3.053   3.485  0.2831  1.6673 -1.0994
   69SAPC  C215 5898   0.854   3.199   3.624 -0.7591  0.6977 -0.5342
   69SAPC  H15R 5899   0.923   3.154   3.697  1.6196  2.4544 -1.5691
   69SAPC  C216 5900   0.774   3.321   3.659 -0.2460  0.7149  0.0476
   69SAPC  H16R 5901   0.701   3.307   3.742  1.6063  1.8130  1.9942
   69SAPC  H16S 5902   0.717   3.350   3.569  1.2012 -0.0578 -1.1612
   69SAPC  C217 5903   0.857   3.440   3.698 -0.4754  0.2325 -0.0113
   69SAPC  H17R 5904   0.805   3.534   3.724  1.0138  1.6671 -1.9727
   69SAPC  H17S 5905   0.931   3.470   3.621 -0.2611 -0.5228 -0.1153
   69SAPC  C218 5906   0.927   3.401   3.833  0.8729 -0.0525  0.3409
   69SAPC  H18R 5907   1.020   3.346   3.807 -0.2803 -2.3932  0.8199
   69SAPC  H18S 5908   0.858   3.327   3.879 -1.8158 -0.0527 -3.2408
   69SAPC  C219 5909   0.953   3.515   3.925  0.2841  0.0783 -0.4324
   69SAPC  H19R 5910   0.976   3.468   4.023 -0.1547 -0.9879 -0.8369
   69SAPC  H19S 5911   0.866   3.577   3.956 -1.1314 -1.5945 -0.9291
   69SAPC  C220 5912   1.064   3.613   3.891 -0.0186 -0.3049 -0.2406
   69SAPC  H20R 5913   1.140   3.557   3.832  1.1371 -1.0386  1.8325
   69SAPC  H20S 5914   1.114   3.668   3.974 -0.6548 -1.7078  1.1196
   69SAPC  H20T 5915   1.018   3.683   3.818  0.4647 -0.6805 -0.9253
   69SAPC   C33 5916   1.901   3.239   2.535 -0.8316 -0.9238  0.2440
   69SAPC   H3X 5917   1.966   3.284   2.457 -1.9335  0.8536  0.2921
   69SAPC   H3Y 5918   1.951   3.156   2.590  0.7109  0.8536  1.6901
   69SAPC   C34 5919   1.919   3.350   2.647 -0.1909 -0.0520  0.7589
   69SAPC   H4X 5920   1.893   3.445   2.596  1.3975 -0.2803 -0.5528
   69SAPC   H4Y 5921   2.026   3.351   2.675 -0.1390 -0.1900  0.5685
   69SAPC   C35 5922   1.833   3.314   2.768  0.5081  0.2970 -0.0460
   69SAPC   H5X 5923   1.726   3.299   2.743  0.8759 -1.8625 -0.5092
   69SAPC   H5Y 5924   1.837   3.403   2.834  0.5324  1.1641 -1.1925
   69SAPC   C36 5925   1.885   3.191   2.844  0.0735  0.0153  0.1516
   69SAPC   H6X 5926   1.996   3.196   2.847  0.0841  0.0106 -0.1552
   69SAPC   H6Y 5927   1.856   3.096   2.794 -1.5921 -0.0973  1.2572
   69SAPC   C37 5928   1.819   3.184   2.987  0.1062 -0.0449  0.6570
   69SAPC   H7X 5929   1.812   3.079   3.024 -2.9800  0.0024  0.4697
   69SAPC   H7Y 5930   1.714   3.214   2.964  0.3500 -0.4265 -1.1479
   69SAPC   C38 5931   1.894   3.281   3.083 -0.0519 -0.3207 -0.1826
   69SAPC   H8X 5932   1.900   3.378   3.030  2.3848 -0.1998  0.1674
   69SAPC   H8Y 5933   1.998   3.240   3.086 -0.1023 -0.4694 -0.4036
   69SAPC   C39 5934   1.825   3.313   3.217  0.1603  0.2956  0.2666
   69SAPC   H9X 5935   1.718   3.316   3.184 -0.0325 -0.3556  0.8066
   69SAPC   H9Y 5936   1.852   3.416   3.248  0.0116  0.9439 -1.6090
   69SAPC  C310 5937   1.860   3.207   3.320 -0.2140  0.2922  0.5514
   69SAPC  H10X 5938   1.968   3.192   3.299 -0.7330 -0.6999 -1.6455
   69SAPC  H10Y 5939   1.816   3.109   3.291  1.8392  0.0242 -2.0009
   69SAPC  C311 5940   1.827   3.245   3.465 -0.0455 -0.9855 -0.6678
   69SAPC  H11X 5941   1.862   3.345   3.499  3.0875 -1.9769 -0.7174
   69SAPC  H11Y 5942   1.883   3.175   3.531  0.0797  0.4974  0.8816
   69SAPC  C312 5943   1.678   3.231   3.503  0.0025 -0.3650 -0.6731
   69SAPC  H12X 5944   1.652   3.123   3.494 -4.0380  0.4824 -1.5055
   69SAPC  H12Y 5945   1.611   3.282   3.430  0.7863  0.4837 -0.8170
   69SAPC  C313 5946   1.636   3.277   3.649 -1.0714 -0.2455  0.3896
   69SAPC  H13X 5947   1.660   3.384   3.669 -0.2725 -0.3986  0.2501
   69SAPC  H13Y 5948   1.706   3.226   3.718  0.7922  1.8787  0.1663
   69SAPC  C314 5949   1.500   3.235   3.691  0.1561 -0.4566 -0.1348
   69SAPC  H14X 5950   1.489   3.124   3.694  0.3835 -0.5089 -0.9797
   69SAPC  H14Y 5951   1.434   3.252   3.603  1.3644 -0.8627 -1.1484
   69SAPC  C315 5952   1.450   3.303   3.818  0.0900  0.8987 -0.1471
   69SAPC  H15X 5953   1.341   3.294   3.838  0.1680 -0.8244 -0.4103
   69SAPC  H15Y 5954   1.462   3.411   3.795  1.4315  0.8755  0.3723
   69SAPC  C316 5955   1.534   3.266   3.937 -0.3946 -0.3301 -0.2220
   69SAPC  H16X 5956   1.634   3.309   3.915 -0.4881  0.3750  0.6568
   69SAPC  H16Y 5957   1.543   3.156   3.953 -1.4183 -0.6631 -1.7892
   69SAPC  C317 5958   1.459   3.317   4.068 -0.2099 -0.1561  0.5065
   69SAPC  H17X 5959   1.356   3.276   4.055  0.3976 -1.8172  0.7617
   69SAPC  H17Y 5960   1.452   3.428   4.060  0.9569 -0.1576 -1.2017
   69SAPC  C318 5961   1.534   3.271   4.194 -0.0225 -0.5019 -0.7707
   69SAPC  H18X 5962   1.634   3.318   4.204  0.6381 -1.9154 -0.4521
   69SAPC  H18Y 5963   1.546   3.161   4.191 -1.8517 -0.7169 -1.1936
   69SAPC  H18Z 5964   1.484   3.312   4.284 -1.0693  2.2957 -2.4811
   70SAPC     N 5965   4.086   6.401   1.559  0.2997 -0.3854  0.2277
   70SAPC   C12 5966   4.192   6.460   1.646  0.1572  0.3608 -0.5588
   70SAPC  H12A 5967   4.251   6.541   1.606  0.9166  0.6552  1.0752
   70SAPC  H12B 5968   4.259   6.376   1.658  1.1494  1.2468  0.3247
   70SAPC   C13 5969   4.021   6.277   1.615 -0.2424  0.1176 -0.6428
   70SAPC  H13A 5970   4.089   6.197   1.642 -1.0124  0.0307  1.1624
   70SAPC  H13B 5971   3.971   6.296   1.709 -1.0050 -0.2617 -0.9657
   70SAPC  H13C 5972   3.953   6.239   1.541  0.5302 -1.4522 -0.5986
   70SAPC   C14 5973   3.979   6.500   1.510 -0.6326  0.6767  0.4849
   70SAPC  H14A 5974   4.031   6.576   1.454 -0.4245 -0.8736 -1.5604
   70SAPC  H14B 5975   3.908   6.456   1.441 -0.1954  1.6337 -0.6035
   70SAPC  H14C 5976   3.935   6.540   1.600  0.7222 -1.2512  2.0993
   70SAPC   C15 5977   4.150   6.345   1.430 -0.6130 -0.5525  0.0764
   70SAPC  H15A 5978   4.190   6.430   1.376 -0.4875 -0.5318  0.2045
   70SAPC  H15B 5979   4.230   6.280   1.463 -1.9543 -1.9429  0.6847
   70SAPC  H15C 5980   4.072   6.293   1.376 -0.3872 -0.8496  0.0341
   70SAPC   C11 5981   4.148   6.496   1.783 -0.2478 -0.3504 -0.5028
   70SAPC  H11A 5982   4.095   6.409   1.826  2.4176 -0.8398  2.1851
   70SAPC  H11B 5983   4.081   6.585   1.790  0.6033  0.2601  0.2734
   70SAPC     P 5984   4.344   6.422   1.942  0.0964 -0.0088 -0.0568
   70SAPC   O13 5985   4.342   6.280   1.892  0.2916  0.1196  0.4119
   70SAPC   O14 5986   4.477   6.490   1.942 -0.2098 -0.0315  0.2602
   70SAPC   O12 5987   4.264   6.526   1.855  0.3687  0.3441 -0.6970
   70SAPC   O11 5988   4.264   6.430   2.084 -0.1331  0.4885  0.3462
   70SAPC    C1 5989   4.234   6.556   2.147  0.2090 -0.4253  0.4369
   70SAPC    HA 5990   4.325   6.599   2.194  0.8117 -0.5013 -0.6236
   70SAPC    HB 5991   4.192   6.629   2.074  1.4049 -0.0132  0.1293
   70SAPC    C2 5992   4.113   6.549   2.246 -0.6973  1.0020  0.1639
   70SAPC    HS 5993   4.082   6.647   2.287  0.2293  1.1791  0.4740
   70SAPC   O21 5994   4.147   6.459   2.355  0.1459  0.1833  0.1960
   70SAPC   C21 5995   4.218   6.513   2.452  0.0539 -0.2838 -0.3589
   70SAPC   O22 5996   4.250   6.629   2.464 -0.0084 -0.1134 -0.3330
   70SAPC   C22 5997   4.249   6.398   2.553  0.8375 -0.3969 -0.8993
   70SAPC   H2R 5998   4.153   6.367   2.600  1.2270  0.6462  0.6473
   70SAPC   H2S 5999   4.288   6.309   2.499  2.5122 -0.8880  1.0021
   70SAPC    C3 6000   3.992   6.488   2.165  0.8251 -0.5831 -0.5568
   70SAPC    HX 6001   4.024   6.393   2.118  0.6919 -1.0364  0.2511
   70SAPC    HY 6002   3.959   6.558   2.085 -1.2126 -1.3425 -0.4453
   70SAPC   O31 6003   3.874   6.458   2.250 -0.4297 -0.1093  0.1182
   70SAPC   C31 6004   3.778   6.548   2.259  0.1061 -0.8548 -0.5864
   70SAPC   O32 6005   3.785   6.660   2.209 -0.3271  0.3588 -0.1589
   70SAPC   C32 6006   3.655   6.483   2.320  0.1927  0.5356 -0.3033
   70SAPC   H2X 6007   3.646   6.389   2.261 -0.3017  0.7634 -0.5873
   70SAPC   H2Y 6008   3.567   6.550   2.321  0.6774  1.5435  4.9010
   70SAPC   C23 6009   4.355   6.432   2.667 -0.0205 -0.4170  0.3863
   70SAPC   H3R 6010   4.302   6.467   2.758  0.3731  1.6765 -0.1219
   70SAPC   H3S 6011   4.421   6.520   2.650 -0.6728  0.1386  0.6877
   70SAPC   C24 6012   4.456   6.317   2.695 -0.4038  0.9490  0.4225
   70SAPC   H4R 6013   4.531   6.360   2.765  0.0948  0.0757  0.4452
   70SAPC   H4S 6014   4.510   6.299   2.600 -0.4630 -0.2637  0.6068
   70SAPC   C25 6015   4.384   6.190   2.738  0.0644  0.1306 -0.9677
   70SAPC   H5R 6016   4.317   6.146   2.662  1.5893 -2.3298 -1.0040
   70SAPC   C26 6017   4.388   6.131   2.861 -0.2171 -0.1255  1.4960
   70SAPC   H6R 6018   4.340   6.033   2.878 -1.6355  0.4027  0.6569
   70SAPC   C27 6019   4.476   6.166   2.975  0.4636 -0.4201  0.6352
   70SAPC   H7R 6020   4.484   6.277   2.976  0.6306 -0.4068 -0.6577
   70SAPC   H7S 6021   4.584   6.143   2.963  0.3758 -0.4042 -0.2085
   70SAPC   C28 6022   4.435   6.112   3.110 -0.0573  0.0563  0.0044
   70SAPC   H8R 6023   4.330   6.127   3.139 -0.1586  0.1871 -0.4297
   70SAPC   C29 6024   4.523   6.063   3.206 -0.2798 -0.0312 -0.0468
   70SAPC   H9R 6025   4.475   6.009   3.289  0.9605 -2.6664 -0.9355
   70SAPC  C210 6026   4.671   6.053   3.211 -0.0849 -0.3231 -0.4633
   70SAPC  H10R 6027   4.705   6.049   3.317  0.1889 -2.9085 -0.5979
   70SAPC  H10S 6028   4.708   6.147   3.164 -0.7535  0.3050  0.2181
   70SAPC  C211 6029   4.734   5.935   3.137  0.6737  0.2983 -0.7159
   70SAPC  H11R 6030   4.668   5.896   3.058 -0.4230  0.2524  0.1987
   70SAPC  C212 6031   4.848   5.881   3.155  0.1490 -0.0326  0.4867
   70SAPC  H12R 6032   4.882   5.791   3.101  1.1169 -0.7120  2.1370
   70SAPC  C213 6033   4.955   5.944   3.241 -0.4940 -0.4355  0.1369
   70SAPC  H13R 6034   4.964   6.053   3.222  1.3458 -0.3795  1.1195
   70SAPC  H13S 6035   5.059   5.923   3.209 -0.6012 -1.6583  0.5564
   70SAPC  C214 6036   4.939   5.921   3.389 -0.6998  0.1611 -0.4023
   70SAPC  H14R 6037   4.916   5.820   3.425 -0.6605  0.8441  1.6865
   70SAPC  C215 6038   4.927   6.018   3.491  0.0082  0.0870  0.1080
   70SAPC  H15R 6039   4.908   5.979   3.592  1.3552  0.3755  0.4925
   70SAPC  C216 6040   4.953   6.164   3.475 -0.7635  0.1265 -0.0664
   70SAPC  H16R 6041   4.872   6.226   3.519  0.1924  0.6271  1.0328
   70SAPC  H16S 6042   4.971   6.187   3.368 -0.7746  0.3712 -0.0166
   70SAPC  C217 6043   5.093   6.189   3.527 -0.3423  0.1249  0.1514
   70SAPC  H17R 6044   5.174   6.156   3.458 -0.1963  0.3181  0.2279
   70SAPC  H17S 6045   5.110   6.135   3.623  0.1777 -2.2085 -1.1698
   70SAPC  C218 6046   5.096   6.340   3.538  0.3512  0.0507 -0.2645
   70SAPC  H18R 6047   5.034   6.377   3.622 -0.4955 -1.9820  0.0721
   70SAPC  H18S 6048   5.065   6.393   3.446  2.9326 -0.1087 -1.3121
   70SAPC  C219 6049   5.241   6.388   3.558 -0.0922  0.3032  0.6003
   70SAPC  H19R 6050   5.248   6.499   3.561  0.0346  0.3669 -1.0059
   70SAPC  H19S 6051   5.299   6.345   3.473 -0.5280 -1.0921  0.9862
   70SAPC  C220 6052   5.324   6.334   3.678 -1.2647  0.4094  0.1117
   70SAPC  H20R 6053   5.418   6.392   3.694 -0.3993 -1.0262  0.4622
   70SAPC  H20S 6054   5.346   6.228   3.656 -0.0301  0.9025 -1.2002
   70SAPC  H20T 6055   5.266   6.336   3.773 -0.9069  0.5930  0.3294
   70SAPC   C33 6056   3.695   6.456   2.471 -0.5842 -0.2086 -0.1656
   70SAPC   H3X 6057   3.763   6.370   2.487 -2.0217 -1.5032 -0.7383
   70SAPC   H3Y 6058   3.601   6.425   2.522 -2.9006  4.6282 -0.9056
   70SAPC   C34 6059   3.726   6.594   2.531 -0.2632  0.0104  0.3915
   70SAPC   H4X 6060   3.652   6.673   2.504  0.2598  0.0180 -1.1043
   70SAPC   H4Y 6061   3.826   6.634   2.502 -0.1527 -0.1845  0.5024
   70SAPC   C35 6062   3.739   6.584   2.681  0.0976  0.3894  0.7534
   70SAPC   H5X 6063   3.643   6.580   2.736  1.1615  1.5949  2.8414
   70SAPC   H5Y 6064   3.780   6.678   2.725  1.8153 -0.6693  1.5309
   70SAPC   C36 6065   3.820   6.464   2.740 -0.8946 -0.3450 -0.1821
   70SAPC   H6X 6066   3.915   6.473   2.682 -0.2192 -0.3867  0.8980
   70SAPC   H6Y 6067   3.764   6.370   2.721  0.4933 -0.8906 -1.8952
   70SAPC   C37 6068   3.859   6.481   2.887 -0.0606 -0.1495 -0.1109
   70SAPC   H7X 6069   3.941   6.412   2.916  0.1546  0.4120  0.6351
   70SAPC   H7Y 6070   3.897   6.583   2.907  1.5348 -0.3996 -1.6366
   70SAPC   C38 6071   3.739   6.460   2.985 -0.1831  0.2177 -0.5570
   70SAPC   H8X 6072   3.683   6.367   2.964 -0.8792  1.2057 -3.4500
   70SAPC   H8Y 6073   3.669   6.545   2.967  0.6840  1.2031  0.5789
   70SAPC   C39 6074   3.785   6.459   3.133 -0.6198 -0.5260 -0.5209
   70SAPC   H9X 6075   3.801   6.564   3.169  0.4449 -1.6686  2.6897
   70SAPC   H9Y 6076   3.874   6.403   3.168  0.5150  0.7185 -1.3021
   70SAPC  C310 6077   3.664   6.411   3.215  0.8125 -0.1508  0.1144
   70SAPC  H10X 6078   3.654   6.301   3.197 -0.2971 -0.2039  0.9443
   70SAPC  H10Y 6079   3.570   6.459   3.182  0.5287 -1.1579 -0.5774
   70SAPC  C311 6080   3.685   6.436   3.370  0.1450  0.1163 -0.4411
   70SAPC  H11X 6081   3.727   6.537   3.389 -1.4800  1.1175 -1.8761
   70SAPC  H11Y 6082   3.767   6.364   3.391 -0.8019 -1.0344 -0.5671
   70SAPC  C312 6083   3.565   6.404   3.467  0.6870 -0.0941  0.5999
   70SAPC  H12X 6084   3.527   6.302   3.442  1.6666 -0.3516  0.1058
   70SAPC  H12Y 6085   3.479   6.470   3.440 -0.1431 -0.6137  1.9102
   70SAPC  C313 6086   3.610   6.411   3.611  0.2514 -0.4025 -0.6861
   70SAPC  H13X 6087   3.703   6.352   3.630  0.7293 -0.2651 -2.4830
   70SAPC  H13Y 6088   3.533   6.368   3.679 -0.0143  0.2125 -0.6008
   70SAPC  C314 6089   3.624   6.557   3.666 -0.5952 -0.1397  0.4733
   70SAPC  H14X 6090   3.524   6.605   3.671 -1.5474 -2.0986  1.6343
   70SAPC  H14Y 6091   3.683   6.609   3.588  1.9904 -2.5444  0.6858
   70SAPC  C315 6092   3.703   6.565   3.794 -0.0556 -0.0795 -0.1984
   70SAPC  H15X 6093   3.806   6.524   3.787 -0.3878 -1.5789  2.3466
   70SAPC  H15Y 6094   3.630   6.502   3.849 -1.9321  1.7675 -0.4530
   70SAPC  C316 6095   3.717   6.701   3.856  0.9132 -0.9726  0.4293
   70SAPC  H16X 6096   3.776   6.770   3.791 -0.6391  1.6704  1.6285
   70SAPC  H16Y 6097   3.787   6.698   3.942  0.7460  2.0524  0.7974
   70SAPC  C317 6098   3.588   6.777   3.896 -0.8881  0.4313  1.0678
   70SAPC  H17X 6099   3.524   6.714   3.962 -0.9785 -2.7577 -1.8095
   70SAPC  H17Y 6100   3.528   6.784   3.803  0.5072 -1.3082 -0.0213
   70SAPC  C318 6101   3.617   6.913   3.959  0.0892 -0.3437  0.5441
   70SAPC  H18X 6102   3.648   6.893   4.063 -3.4145 -0.9682  1.6167
   70SAPC  H18Y 6103   3.521   6.969   3.962  0.3343  0.1315 -0.2566
   70SAPC  H18Z 6104   3.695   6.967   3.902  1.9764 -3.3022  0.0716
   71SAPC     N 6105   5.481   5.199   2.197 -0.0724  0.4338  0.5921
   71SAPC   C12 6106   5.612   5.111   2.196  0.1523  0.6262  0.0057
   71SAPC  H12A 6107   5.680   5.170   2.135 -1.4701  0.7620 -1.7725
   71SAPC  H12B 6108   5.591   5.017   2.147 -1.6471  1.2828 -0.5443
   71SAPC   C13 6109   5.376   5.120   2.268  0.2939 -0.0318  0.0126
   71SAPC  H13A 6110   5.377   5.020   2.227  1.5010  0.3513 -0.9396
   71SAPC  H13B 6111   5.399   5.111   2.374  0.0035  0.9867  0.1701
   71SAPC  H13C 6112   5.275   5.154   2.251 -0.1304  0.1000  2.3860
   71SAPC   C14 6113   5.496   5.330   2.266  0.3468 -0.8118 -0.0839
   71SAPC  H14A 6114   5.412   5.393   2.241 -0.2217 -1.5663 -0.1004
   71SAPC  H14B 6115   5.495   5.308   2.371 -0.0230 -3.0226 -0.4985
   71SAPC  H14C 6116   5.592   5.376   2.245 -0.3041  1.0127  0.7085
   71SAPC   C15 6117   5.440   5.222   2.054  0.1493 -0.0400 -0.3531
   71SAPC  H15A 6118   5.420   5.128   2.004 -0.8997  0.4878 -0.9575
   71SAPC  H15B 6119   5.347   5.276   2.048  1.1810  1.8750  0.2069
   71SAPC  H15C 6120   5.514   5.274   1.997 -0.9034  1.6279 -0.2621
   71SAPC   C11 6121   5.667   5.077   2.336  0.1751 -0.0835 -0.2997
   71SAPC  H11A 6122   5.732   4.987   2.340 -0.4355 -0.5721 -1.0716
   71SAPC  H11B 6123   5.583   5.030   2.393  0.0245 -2.4264 -2.2853
   71SAPC     P 6124   5.831   5.283   2.379 -0.2931  0.0663 -0.0820
   71SAPC   O13 6125   5.922   5.226   2.274  0.0612  0.4045 -0.1893
   71SAPC   O14 6126   5.778   5.418   2.354 -0.3186  0.1472 -0.6989
   71SAPC   O12 6127   5.718   5.190   2.405  0.5278 -0.0938  0.7127
   71SAPC   O11 6128   5.927   5.287   2.507 -0.3983 -0.0123 -0.4185
   71SAPC    C1 6129   5.947   5.160   2.570 -0.4538  0.8743 -0.1748
   71SAPC    HA 6130   5.900   5.078   2.512  0.9450 -0.4108  0.4366
   71SAPC    HB 6131   6.056   5.137   2.578 -0.7534 -0.7455 -0.3776
   71SAPC    C2 6132   5.898   5.150   2.713 -0.6261 -0.1133 -0.1897
   71SAPC    HS 6133   5.935   5.053   2.751  0.6613 -0.0192 -1.1252
   71SAPC   O21 6134   5.755   5.160   2.719  0.2306 -0.0159  0.2373
   71SAPC   C21 6135   5.683   5.051   2.701  0.1228  0.2137 -0.0192
   71SAPC   O22 6136   5.731   4.938   2.700  0.5748  0.2641  0.4172
   71SAPC   C22 6137   5.533   5.086   2.708 -0.1102  0.0485  0.6105
   71SAPC   H2R 6138   5.506   5.118   2.605 -0.3452  2.5472  1.3669
   71SAPC   H2S 6139   5.473   5.000   2.746  0.0936  0.1549  1.1866
   71SAPC    C3 6140   5.959   5.264   2.795  0.8211  0.1841  0.2629
   71SAPC    HX 6141   5.908   5.362   2.782 -2.3322 -1.5989 -2.2346
   71SAPC    HY 6142   6.064   5.278   2.761  0.9103  2.5270  1.2831
   71SAPC   O31 6143   5.978   5.220   2.932  1.0952  0.2998 -0.6568
   71SAPC   C31 6144   6.048   5.304   3.008  0.3756 -0.8694  0.8588
   71SAPC   O32 6145   6.102   5.410   2.966  0.2908 -0.0213 -0.1597
   71SAPC   C32 6146   6.062   5.253   3.149 -0.7245 -0.3481 -0.2953
   71SAPC   H2X 6147   6.134   5.169   3.141  0.1167 -0.1055  3.0876
   71SAPC   H2Y 6148   5.964   5.207   3.176 -0.6474  0.7549  2.1414
   71SAPC   C23 6149   5.496   5.187   2.820 -0.5112  0.9400  0.1328
   71SAPC   H3R 6150   5.385   5.189   2.826 -0.5850 -1.0654  0.2651
   71SAPC   H3S 6151   5.535   5.283   2.781  1.3092 -0.1440 -0.8471
   71SAPC   C24 6152   5.555   5.136   2.955  0.1456 -0.7374  0.0975
   71SAPC   H4R 6153   5.666   5.143   2.951  0.0555  1.7628  0.2780
   71SAPC   H4S 6154   5.528   5.032   2.984  0.5784  0.1718  4.4610
   71SAPC   C25 6155   5.518   5.224   3.069  0.1250  1.3509 -0.0263
   71SAPC   H5R 6156   5.592   5.301   3.096  1.1969 -0.4424  2.4768
   71SAPC   C26 6157   5.428   5.197   3.161 -0.0539  0.2763  0.0029
   71SAPC   H6R 6158   5.406   5.272   3.238  0.6451  0.4843  0.0009
   71SAPC   C27 6159   5.333   5.084   3.174  0.2853  0.1367  0.4929
   71SAPC   H7R 6160   5.295   5.062   3.276 -0.6792 -0.9081 -0.0680
   71SAPC   H7S 6161   5.389   4.989   3.156  0.0868 -0.0253  0.7205
   71SAPC   C28 6162   5.217   5.090   3.082 -0.2749 -0.0548  0.0618
   71SAPC   H8R 6163   5.232   5.128   2.979  0.4728 -0.5582 -0.0264
   71SAPC   C29 6164   5.084   5.085   3.112 -0.0269 -0.2838 -0.4424
   71SAPC   H9R 6165   5.010   5.094   3.031  0.6256  2.5928 -0.8270
   71SAPC  C210 6166   5.033   5.062   3.251 -0.5454 -0.1223 -0.2719
   71SAPC  H10R 6167   5.039   5.146   3.324 -0.7528 -0.9762  0.7532
   71SAPC  H10S 6168   5.103   4.991   3.300 -1.9821 -0.0043  2.1369
   71SAPC  C211 6169   4.900   5.002   3.258 -0.3850  0.0710 -0.8285
   71SAPC  H11R 6170   4.843   4.988   3.165 -0.4363  1.8863 -1.1014
   71SAPC  C212 6171   4.829   4.983   3.375  0.4927  0.4046  0.3185
   71SAPC  H12R 6172   4.738   4.922   3.370  1.9929 -2.1417  2.0397
   71SAPC  C213 6173   4.866   5.011   3.519  0.3729 -0.3841 -0.0225
   71SAPC  H13R 6174   4.957   5.070   3.541  0.0938 -0.5066  1.5811
   71SAPC  H13S 6175   4.888   4.916   3.573  1.2595  0.0108  0.3242
   71SAPC  C214 6176   4.750   5.089   3.582 -0.1945 -0.5570  0.7631
   71SAPC  H14R 6177   4.709   5.157   3.506  0.1478 -0.7340  0.4186
   71SAPC  C215 6178   4.678   5.066   3.692 -0.0763  0.9681  0.7191
   71SAPC  H15R 6179   4.602   5.139   3.723  0.4919  0.4961  3.5194
   71SAPC  C216 6180   4.709   4.962   3.790 -0.5263  0.2819  0.5828
   71SAPC  H16R 6181   4.815   4.931   3.782 -0.5086  0.9009 -3.4615
   71SAPC  H16S 6182   4.663   4.867   3.755 -0.7981  0.3236  0.8203
   71SAPC  C217 6183   4.672   4.992   3.938  0.0597  0.0023  0.3927
   71SAPC  H17R 6184   4.561   4.989   3.943  0.1435 -0.9608  2.5734
   71SAPC  H17S 6185   4.709   5.090   3.975 -3.3592  0.9072  1.8563
   71SAPC  C218 6186   4.727   4.876   4.028  0.3897 -0.1261 -0.3426
   71SAPC  H18R 6187   4.836   4.866   4.010  0.6373  2.6218 -0.8734
   71SAPC  H18S 6188   4.682   4.782   3.990  2.2221 -0.8063 -0.9430
   71SAPC  C219 6189   4.684   4.890   4.176 -0.1064 -0.4286  0.3818
   71SAPC  H19R 6190   4.758   4.957   4.224  1.5838 -2.1456  0.2957
   71SAPC  H19S 6191   4.696   4.790   4.224  1.4132  0.4518  1.9558
   71SAPC  C220 6192   4.541   4.933   4.199 -0.0275 -0.9046 -0.0178
   71SAPC  H20R 6193   4.509   4.942   4.305 -1.6099  2.2442 -0.6312
   71SAPC  H20S 6194   4.467   4.875   4.139 -0.5207  0.6628 -0.9882
   71SAPC  H20T 6195   4.518   5.031   4.153  1.4913 -0.1527  0.7711
   71SAPC   C33 6196   6.100   5.364   3.250  0.4378 -0.3474 -0.5370
   71SAPC   H3X 6197   6.010   5.426   3.270  1.8370  1.9364 -0.8792
   71SAPC   H3Y 6198   6.186   5.427   3.218 -0.1310  0.3004 -0.8047
   71SAPC   C34 6199   6.137   5.306   3.396 -0.4780 -0.3954  0.0947
   71SAPC   H4X 6200   6.243   5.278   3.378 -0.1639  1.4451 -1.2895
   71SAPC   H4Y 6201   6.072   5.220   3.421  0.2744 -0.3343  2.6092
   71SAPC   C35 6202   6.123   5.416   3.505 -0.0774 -0.2546 -0.6036
   71SAPC   H5X 6203   6.016   5.441   3.520 -1.3159 -2.8249 -3.8624
   71SAPC   H5Y 6204   6.177   5.505   3.467 -0.2141 -0.0978 -0.4293
   71SAPC   C36 6205   6.175   5.364   3.645 -0.4256  0.1629 -0.0822
   71SAPC   H6X 6206   6.277   5.320   3.644  0.8723  2.9581 -0.3343
   71SAPC   H6Y 6207   6.100   5.297   3.691 -1.0698  0.8535 -0.1151
   71SAPC   C37 6208   6.182   5.493   3.737  0.0787  0.5381 -0.1016
   71SAPC   H7X 6209   6.096   5.562   3.723  1.8855  3.3250  1.6075
   71SAPC   H7Y 6210   6.273   5.553   3.716  0.6734  0.0010  0.9074
   71SAPC   C38 6211   6.211   5.456   3.884  0.3392  0.7264 -0.7045
   71SAPC   H8X 6212   6.230   5.548   3.942 -2.5820  0.6929  0.4689
   71SAPC   H8Y 6213   6.301   5.392   3.893 -0.1704  0.2256  1.1458
   71SAPC   C39 6214   6.095   5.368   3.941 -0.1482  0.2959 -1.1188
   71SAPC   H9X 6215   6.111   5.266   3.900 -1.6870  0.7811 -3.0254
   71SAPC   H9Y 6216   5.997   5.407   3.908 -1.0490 -0.6321  0.3571
   71SAPC  C310 6217   6.096   5.340   4.097 -0.4871  0.3470 -0.0015
   71SAPC  H10X 6218   6.109   5.431   4.159  0.8095 -0.4204  0.8972
   71SAPC  H10Y 6219   6.182   5.272   4.114 -0.1340  1.1180  1.4262
   71SAPC  C311 6220   5.965   5.267   4.129 -0.4198  0.1290  0.0540
   71SAPC  H11X 6221   5.948   5.174   4.070 -1.0481  0.3464 -0.1173
   71SAPC  H11Y 6222   5.888   5.341   4.102 -1.5795 -0.2782  1.9956
   71SAPC  C312 6223   5.934   5.245   4.281 -0.2751  0.0369  0.0988
   71SAPC  H12X 6224   6.025   5.201   4.328  0.8977  3.0495  0.8608
   71SAPC  H12Y 6225   5.845   5.182   4.300 -0.7825  1.0062  1.0965
   71SAPC  C313 6226   5.916   5.382   4.351  0.0591  0.0585  0.3706
   71SAPC  H13X 6227   5.862   5.464   4.301 -0.8583 -0.1164  1.0540
   71SAPC  H13Y 6228   6.016   5.419   4.383 -0.1792  2.0134 -0.9840
   71SAPC  C314 6229   5.830   5.351   4.476  0.4683 -0.3746 -0.1993
   71SAPC  H14X 6230   5.891   5.291   4.548 -1.3751  0.5168  2.2591
   71SAPC  H14Y 6231   5.744   5.285   4.450  2.0139 -1.7648 -2.0533
   71SAPC  C315 6232   5.779   5.475   4.537 -0.1266 -0.4208 -0.2493
   71SAPC  H15X 6233   5.763   5.551   4.457 -1.4768 -3.1233 -2.7495
   71SAPC  H15Y 6234   5.859   5.509   4.606  1.4082 -2.7963 -0.7431
   71SAPC  C316 6235   5.639   5.459   4.592 -0.3051  0.9512  0.1711
   71SAPC  H16X 6236   5.612   5.539   4.664  0.0236  0.3939  0.9182
   71SAPC  H16Y 6237   5.637   5.363   4.647  0.7465  1.0817  0.4610
   71SAPC  C317 6238   5.531   5.450   4.479  0.5223  0.3271  0.7424
   71SAPC  H17X 6239   5.562   5.374   4.404 -0.8259 -0.3329  0.8119
   71SAPC  H17Y 6240   5.531   5.549   4.427 -1.6629 -0.0258 -0.0495
   71SAPC  C318 6241   5.388   5.422   4.525  0.3821 -0.2693 -0.5851
   71SAPC  H18X 6242   5.349   5.510   4.581  1.2832 -0.4168  0.3110
   71SAPC  H18Y 6243   5.378   5.328   4.584 -3.0267 -0.3520 -1.1359
   71SAPC  H18Z 6244   5.329   5.400   4.434 -0.6967  0.4092 -0.0771
   72SAPC     N 6245   4.590   3.705   2.177  0.4575  0.3569 -0.1122
   72SAPC   C12 6246   4.484   3.809   2.223 -0.0337 -1.0605  0.0219
   72SAPC  H12A 6247   4.459   3.854   2.128  1.2989 -0.5553 -0.1086
   72SAPC  H12B 6248   4.506   3.886   2.296 -0.9242 -0.2660 -0.5220
   72SAPC   C13 6249   4.709   3.772   2.115  0.2481 -0.0749 -0.0270
   72SAPC  H13A 6250   4.675   3.795   2.015  0.0992  0.6203  0.1776
   72SAPC  H13B 6251   4.719   3.867   2.165  0.9737 -1.0589  1.7724
   72SAPC  H13C 6252   4.801   3.717   2.111  0.4601  0.0714  1.9086
   72SAPC   C14 6253   4.630   3.627   2.298  0.1719 -0.3924 -0.0964
   72SAPC  H14A 6254   4.706   3.554   2.276 -1.4971 -1.8343 -1.3413
   72SAPC  H14B 6255   4.682   3.693   2.366  4.7443 -0.9840 -2.6218
   72SAPC  H14C 6256   4.541   3.579   2.335 -0.6037 -1.0127 -2.5875
   72SAPC   C15 6257   4.530   3.613   2.078 -0.3229  0.1496 -0.0713
   72SAPC  H15A 6258   4.516   3.670   1.988  0.4844  1.7626  0.7809
   72SAPC  H15B 6259   4.593   3.527   2.059  1.8063  1.5669  0.2616
   72SAPC  H15C 6260   4.431   3.583   2.109 -1.3893  2.8960 -0.5186
   72SAPC   C11 6261   4.351   3.767   2.287 -0.1911 -0.3016 -0.4338
   72SAPC  H11A 6262   4.295   3.706   2.213 -2.0780  2.1092 -1.0990
   72SAPC  H11B 6263   4.294   3.860   2.307 -1.9607 -1.5649  0.7335
   72SAPC     P 6264   4.373   3.757   2.554 -0.2204  0.2732  0.0585
   72SAPC   O13 6265   4.333   3.657   2.658 -0.1927  0.1936 -1.1062
   72SAPC   O14 6266   4.505   3.828   2.570 -0.9365  0.1920 -0.2247
   72SAPC   O12 6267   4.374   3.693   2.413  0.0850  0.0345  0.1289
   72SAPC   O11 6268   4.268   3.858   2.544  0.1609 -0.4204 -0.2196
   72SAPC    C1 6269   4.126   3.833   2.518  0.3663 -0.9126  0.4671
   72SAPC    HA 6270   4.116   3.780   2.421 -0.5120 -1.8675  1.0534
   72SAPC    HB 6271   4.080   3.776   2.602  0.5640 -1.0156  0.5081
   72SAPC    C2 6272   4.054   3.970   2.497  0.1113 -0.1239 -0.0309
   72SAPC    HS 6273   4.104   4.027   2.416 -0.3461  1.6116  0.8584
   72SAPC   O21 6274   4.038   4.050   2.617  0.6694 -0.7690 -0.6365
   72SAPC   C21 6275   4.149   4.124   2.644  0.7114 -0.4831 -0.1023
   72SAPC   O22 6276   4.235   4.151   2.568  0.2522  0.4965  0.0061
   72SAPC   C22 6277   4.138   4.190   2.783  0.7377  0.1084  0.6049
   72SAPC   H2R 6278   4.084   4.118   2.848  0.7593 -0.1661  0.3179
   72SAPC   H2S 6279   4.243   4.192   2.818  0.4171  1.5259  1.5782
   72SAPC    C3 6280   3.910   3.945   2.435  0.0007  0.1661 -0.3443
   72SAPC    HX 6281   3.933   3.908   2.333 -0.2622 -1.6271  0.2188
   72SAPC    HY 6282   3.856   4.042   2.430 -0.7597 -0.2708 -0.7589
   72SAPC   O31 6283   3.837   3.840   2.511 -0.4715 -0.1368  0.0643
   72SAPC   C31 6284   3.744   3.882   2.581  0.0184  0.5039  0.1959
   72SAPC   O32 6285   3.685   3.990   2.578  0.2393  0.0002 -0.0977
   72SAPC   C32 6286   3.688   3.756   2.643  0.5360  0.0236 -0.4496
   72SAPC   H2X 6287   3.778   3.697   2.671  0.1854  0.3958  1.6520
   72SAPC   H2Y 6288   3.635   3.712   2.556  1.5246 -0.9688 -0.5686
   72SAPC   C23 6289   4.092   4.334   2.786 -0.1540 -0.3900 -0.0432
   72SAPC   H3R 6290   4.038   4.357   2.691  1.2302 -1.8611 -1.2483
   72SAPC   H3S 6291   4.183   4.398   2.781 -0.8145  0.6699  1.0052
   72SAPC   C24 6292   3.995   4.360   2.900  0.4348  0.4412 -0.6746
   72SAPC   H4R 6293   3.899   4.308   2.879  0.0633  1.3399 -1.2446
   72SAPC   H4S 6294   3.967   4.466   2.883 -0.0900  0.3717 -0.2599
   72SAPC   C25 6295   4.041   4.322   3.043 -0.5734 -0.0651 -0.5196
   72SAPC   H5R 6296   4.090   4.224   3.041 -3.0501 -1.4752 -4.4161
   72SAPC   C26 6297   4.012   4.390   3.159  0.1421 -0.2471  0.6148
   72SAPC   H6R 6298   4.061   4.369   3.255  1.2565 -0.7316 -0.0433
   72SAPC   C27 6299   3.915   4.509   3.163 -0.2061 -0.0332  0.3486
   72SAPC   H7R 6300   3.898   4.550   3.061  1.2011 -1.1507 -0.3802
   72SAPC   H7S 6301   3.967   4.586   3.223  2.2169 -0.6737 -0.8284
   72SAPC   C28 6302   3.776   4.478   3.215  0.1001 -0.2511 -0.8186
   72SAPC   H8R 6303   3.713   4.447   3.130  1.8388  0.5728 -2.4617
   72SAPC   C29 6304   3.723   4.491   3.345  0.5010  0.2029  0.2868
   72SAPC   H9R 6305   3.613   4.494   3.343  0.5271  1.4372 -0.9830
   72SAPC  C210 6306   3.795   4.525   3.474 -0.3209 -0.4888 -0.2159
   72SAPC  H10R 6307   3.807   4.635   3.472  0.2266 -0.5382 -2.6427
   72SAPC  H10S 6308   3.902   4.497   3.464  0.6130  0.5398  4.4915
   72SAPC  C211 6309   3.737   4.476   3.605 -1.0028 -0.4199  0.0059
   72SAPC  H11R 6310   3.707   4.370   3.611 -0.7877 -0.5248 -0.6044
   72SAPC  C212 6311   3.693   4.548   3.713 -0.2102  0.2413 -0.5937
   72SAPC  H12R 6312   3.641   4.501   3.797  0.1990  1.0968  0.1486
   72SAPC  C213 6313   3.728   4.690   3.748  0.4661  0.0770 -0.1523
   72SAPC  H13R 6314   3.638   4.741   3.790  0.4716  0.0470 -0.1046
   72SAPC  H13S 6315   3.748   4.750   3.657 -3.0449  1.0691 -0.4388
   72SAPC  C214 6316   3.834   4.706   3.851  0.4204  0.1183  0.7379
   72SAPC  H14R 6317   3.936   4.704   3.811  0.2588  0.1993  0.3217
   72SAPC  C215 6318   3.812   4.735   3.983 -0.1173 -0.0805 -0.7135
   72SAPC  H15R 6319   3.898   4.749   4.050 -1.9223  0.0652  1.7133
   72SAPC  C216 6320   3.680   4.744   4.054  0.0387  0.5290 -0.3340
   72SAPC  H16R 6321   3.685   4.660   4.127  0.7238 -0.4242 -1.4644
   72SAPC  H16S 6322   3.592   4.723   3.989  0.6711 -1.6137 -0.5576
   72SAPC  C217 6323   3.665   4.878   4.132  0.8680  0.9001 -0.4109
   72SAPC  H17R 6324   3.756   4.911   4.186  0.7840 -0.0755  0.3523
   72SAPC  H17S 6325   3.597   4.861   4.219  0.7235 -3.1367 -1.1440
   72SAPC  C218 6326   3.609   4.994   4.041  0.1163 -0.2572 -0.7764
   72SAPC  H18R 6327   3.509   4.960   4.006 -0.0499 -1.5066  0.8037
   72SAPC  H18S 6328   3.665   5.010   3.947  0.9554 -0.6472 -0.3544
   72SAPC  C219 6329   3.598   5.132   4.109  0.2655 -0.7676  0.5689
   72SAPC  H19R 6330   3.559   5.122   4.212  1.5763  0.8875  1.2727
   72SAPC  H19S 6331   3.529   5.184   4.039  0.8019 -0.4263  0.2863
   72SAPC  C220 6332   3.732   5.208   4.108  0.4745 -0.8998  0.4935
   72SAPC  H20R 6333   3.813   5.139   4.139  0.7255 -0.6552  0.3862
   72SAPC  H20S 6334   3.732   5.292   4.181  1.4496  0.2539 -0.7832
   72SAPC  H20T 6335   3.754   5.252   4.008 -0.4890  1.0456  1.0666
   72SAPC   C33 6336   3.605   3.776   2.764  0.6344 -0.7364  0.3483
   72SAPC   H3X 6337   3.523   3.845   2.737  0.9718 -0.8638 -1.1261
   72SAPC   H3Y 6338   3.656   3.832   2.846 -0.2018  1.0301 -0.3020
   72SAPC   C34 6339   3.540   3.646   2.808  0.8336 -1.1756  0.1484
   72SAPC   H4X 6340   3.602   3.556   2.830  0.5044 -1.9204 -1.7322
   72SAPC   H4Y 6341   3.471   3.613   2.727  0.1837  1.0471 -0.2572
   72SAPC   C35 6342   3.451   3.680   2.931 -0.2279 -0.5777 -0.0276
   72SAPC   H5X 6343   3.368   3.608   2.938 -1.6924  1.1362  1.2667
   72SAPC   H5Y 6344   3.406   3.779   2.908 -0.6992 -1.0418 -1.1803
   72SAPC   C36 6345   3.530   3.692   3.061 -0.6288  0.1575  0.0126
   72SAPC   H6X 6346   3.591   3.785   3.047 -0.4979 -0.1668 -1.8475
   72SAPC   H6Y 6347   3.599   3.606   3.077  1.5109  1.6193 -0.8495
   72SAPC   C37 6348   3.435   3.718   3.176 -0.3563  0.2554  0.2247
   72SAPC   H7X 6349   3.374   3.626   3.190 -0.3817  0.5273  2.0921
   72SAPC   H7Y 6350   3.366   3.801   3.151 -0.7487 -0.0454  0.2914
   72SAPC   C38 6351   3.505   3.760   3.308  0.3036  0.1110  0.4712
   72SAPC   H8X 6352   3.553   3.860   3.306  0.9060 -0.1239 -2.8501
   72SAPC   H8Y 6353   3.582   3.681   3.324 -0.3621 -0.8829 -0.9825
   72SAPC   C39 6354   3.409   3.755   3.425  0.5338  0.1780 -0.0042
   72SAPC   H9X 6355   3.363   3.655   3.443 -3.1000  1.6622 -0.1223
   72SAPC   H9Y 6356   3.317   3.810   3.396 -0.2968 -1.6369 -1.0364
   72SAPC  C310 6357   3.462   3.816   3.555 -0.2403  0.6583  0.6153
   72SAPC  H10X 6358   3.492   3.920   3.528  1.7130 -0.0786 -0.2301
   72SAPC  H10Y 6359   3.555   3.759   3.574 -0.4113 -0.5488 -1.7606
   72SAPC  C311 6360   3.374   3.792   3.685  0.2476 -0.0398  0.0921
   72SAPC  H11X 6361   3.385   3.685   3.713 -2.3219  0.2151  2.5353
   72SAPC  H11Y 6362   3.270   3.815   3.652  0.0745  1.6991  1.6949
   72SAPC  C312 6363   3.425   3.880   3.805 -0.2128 -0.8713 -0.5432
   72SAPC  H12X 6364   3.529   3.847   3.827  0.3866  0.2701 -1.5528
   72SAPC  H12Y 6365   3.358   3.862   3.891 -1.7897  0.4144 -1.4571
   72SAPC  C313 6366   3.414   4.035   3.775 -0.2142  0.9233  0.1873
   72SAPC  H13X 6367   3.304   4.047   3.768 -0.4857 -0.8624  1.0009
   72SAPC  H13Y 6368   3.458   4.065   3.677  2.2183 -1.3629  0.4743
   72SAPC  C314 6369   3.473   4.118   3.881 -0.3909  0.3859  0.4421
   72SAPC  H14X 6370   3.576   4.082   3.899 -0.1279 -0.1295 -1.7539
   72SAPC  H14Y 6371   3.413   4.106   3.973  0.0564  1.4696  0.8902
   72SAPC  C315 6372   3.473   4.271   3.852 -0.6728  0.2561  0.2423
   72SAPC  H15X 6373   3.542   4.295   3.768 -2.3566 -0.2944 -1.3628
   72SAPC  H15Y 6374   3.509   4.329   3.940  1.3026  0.6534 -0.7599
   72SAPC  C316 6375   3.338   4.329   3.831  0.4042 -0.9712 -0.1489
   72SAPC  H16X 6376   3.274   4.334   3.922  1.6090  5.0122  0.7878
   72SAPC  H16Y 6377   3.292   4.264   3.753  0.7141  0.0066 -1.1648
   72SAPC  C317 6378   3.334   4.465   3.759  0.0433  0.4320 -0.5034
   72SAPC  H17X 6379   3.398   4.459   3.668  1.3797  0.1993  0.4213
   72SAPC  H17Y 6380   3.382   4.550   3.812 -0.7599  0.5077  0.1104
   72SAPC  C318 6381   3.192   4.500   3.728  0.9198 -0.4563 -0.1539
   72SAPC  H18X 6382   3.135   4.544   3.813 -0.4815 -3.4304  0.5832
   72SAPC  H18Y 6383   3.125   4.414   3.704  0.3046  0.0969 -0.4361
   72SAPC  H18Z 6384   3.194   4.565   3.638  1.2334 -0.9281 -0.4959
   73SLPC     N 6385   5.849   1.262   6.809 -0.0532 -0.2826  0.3066
   73SLPC   C13 6386   5.959   1.225   6.717 -0.8753  0.0347 -0.8739
   73SLPC  H13A 6387   5.971   1.118   6.713 -1.7360 -0.1189  0.1500
   73SLPC  H13B 6388   5.946   1.274   6.622  1.2910  1.8040 -0.3459
   73SLPC  H13C 6389   6.055   1.261   6.750 -1.9669  0.6548  1.8605
   73SLPC   C14 6390   5.891   1.233   6.949 -0.1934  0.4385  1.2586
   73SLPC  H14A 6391   5.813   1.239   7.024  0.8516  0.9901  2.3421
   73SLPC  H14B 6392   5.913   1.127   6.951  1.4280  0.7170 -0.0208
   73SLPC  H14C 6393   5.981   1.281   6.984  0.7188 -1.2339  1.3490
   73SLPC   C15 6394   5.725   1.172   6.780 -0.0792 -0.1542  0.4105
   73SLPC  H15A 6395   5.700   1.200   6.679 -1.5347  3.3857  1.5842
   73SLPC  H15B 6396   5.740   1.066   6.788  0.2128 -0.1582 -0.1304
   73SLPC  H15C 6397   5.638   1.212   6.829  0.0291  0.9990 -0.2882
   73SLPC   C12 6398   5.814   1.405   6.789  0.3743  0.0015 -0.8993
   73SLPC  H12A 6399   5.795   1.444   6.690  1.5247  0.6365 -0.8888
   73SLPC  H12B 6400   5.889   1.470   6.832 -0.8611  1.3837 -0.7657
   73SLPC   C11 6401   5.690   1.454   6.870 -0.1630 -0.5889 -0.1509
   73SLPC  H11A 6402   5.688   1.565   6.865  0.6543 -0.5706 -0.1464
   73SLPC  H11B 6403   5.714   1.425   6.974  1.0733 -0.1834 -0.3048
   73SLPC     P 6404   5.500   1.431   6.691  0.2818 -0.0348 -0.2995
   73SLPC   O13 6405   5.487   1.308   6.609 -0.1421 -0.0192  0.3052
   73SLPC   O14 6406   5.375   1.496   6.733  0.0951  0.0428 -0.1490
   73SLPC   O12 6407   5.564   1.397   6.827  0.3781 -0.1305 -0.3443
   73SLPC   O11 6408   5.603   1.518   6.618  0.3005 -0.1290 -0.1093
   73SLPC    C1 6409   5.550   1.639   6.549  0.0317 -0.2078  0.7981
   73SLPC    HA 6410   5.476   1.618   6.469 -1.4860  2.4349  1.3671
   73SLPC    HB 6411   5.495   1.707   6.617 -0.1552  0.5283 -0.0717
   73SLPC    C2 6412   5.661   1.720   6.474  0.0824  0.4625  0.1279
   73SLPC    HS 6413   5.614   1.805   6.420 -1.4943  1.1902  2.4899
   73SLPC   O21 6414   5.741   1.631   6.389  0.0715 -0.2455 -0.2280
   73SLPC   C21 6415   5.722   1.653   6.262  0.0280 -0.5023 -0.3675
   73SLPC   O22 6416   5.653   1.740   6.211  0.2142  0.4255  0.0455
   73SLPC   C22 6417   5.803   1.550   6.185  1.2846 -0.2028 -0.7124
   73SLPC   H2R 6418   5.910   1.550   6.215  1.1120  0.1393 -0.0714
   73SLPC   H2S 6419   5.764   1.450   6.215  1.3286 -0.9954 -3.0849
   73SLPC    C3 6420   5.748   1.790   6.592 -0.4354 -0.0229 -0.2437
   73SLPC    HX 6421   5.793   1.712   6.657  2.5715  1.3658 -0.4852
   73SLPC    HY 6422   5.675   1.846   6.654 -1.0862 -0.8087 -0.2915
   73SLPC   O31 6423   5.848   1.883   6.531 -0.1648  0.1972  0.0973
   73SLPC   C31 6424   5.966   1.825   6.508 -0.4042  0.0122 -0.2867
   73SLPC   O32 6425   5.997   1.716   6.549  1.0789 -0.4295 -0.2018
   73SLPC   C32 6426   6.061   1.931   6.437 -0.1075  0.6026  0.2285
   73SLPC   H2X 6427   6.110   2.004   6.506  1.0125 -0.7206  0.8892
   73SLPC   H2Y 6428   5.990   2.002   6.390 -1.8486 -0.7681  0.7123
   73SLPC   C23 6429   5.795   1.568   6.029 -0.0067  0.1377  0.3529
   73SLPC   H3R 6430   5.851   1.659   5.997  0.9335 -0.7372 -0.5681
   73SLPC   H3S 6431   5.687   1.575   6.005 -0.2253 -0.4720  1.0946
   73SLPC   C24 6432   5.851   1.445   5.944  0.0548  0.1603 -0.3266
   73SLPC   H4R 6433   5.799   1.355   5.984  0.5971  0.1769  0.4444
   73SLPC   H4S 6434   5.958   1.438   5.971 -0.1149 -0.2921  0.2581
   73SLPC   C25 6435   5.846   1.448   5.789 -0.9194 -0.3248  0.2565
   73SLPC   H5R 6436   5.893   1.546   5.769 -0.9236  0.3465  3.0838
   73SLPC   H5S 6437   5.739   1.452   5.757 -0.5553  1.9929 -0.8408
   73SLPC   C26 6438   5.920   1.335   5.711 -0.0502 -0.7858  0.1662
   73SLPC   H6R 6439   6.028   1.349   5.733 -0.3500  0.5604  0.8862
   73SLPC   H6S 6440   5.904   1.326   5.601 -2.4047 -0.5563  0.4360
   73SLPC   C27 6441   5.897   1.191   5.755 -0.8367 -0.1103  0.3741
   73SLPC   H7R 6442   5.788   1.177   5.770 -0.4949 -2.3830  1.2070
   73SLPC   H7S 6443   5.943   1.164   5.852 -1.5234  0.0952  0.7618
   73SLPC   C28 6444   5.957   1.089   5.644 -0.0454 -0.2012  0.7364
   73SLPC   H8R 6445   5.988   0.987   5.676  1.7688 -1.2039 -3.4769
   73SLPC   H8S 6446   6.057   1.128   5.614  0.2998 -1.4359  0.2269
   73SLPC   C29 6447   5.858   1.085   5.534 -0.0150 -0.0144  0.7989
   73SLPC   H9R 6448   5.754   1.091   5.569 -0.1214  1.6691  0.2677
   73SLPC  C210 6449   5.878   1.113   5.401 -0.1367  0.1381 -0.3626
   73SLPC  H10R 6450   5.794   1.083   5.336  0.8829 -2.2230 -0.7106
   73SLPC  C211 6451   6.016   1.140   5.340  0.2600 -0.1114 -0.4255
   73SLPC  H11R 6452   6.082   1.054   5.364  2.0152  1.4175  0.4361
   73SLPC  H11S 6453   6.067   1.220   5.397  1.9630 -1.9667  0.7818
   73SLPC  C212 6454   6.014   1.182   5.199 -0.2868  0.1730 -0.4490
   73SLPC  H12R 6455   5.948   1.268   5.178 -1.2536 -1.0428 -2.6160
   73SLPC  C213 6456   6.070   1.111   5.094  0.5643 -0.2894 -0.5243
   73SLPC  H13R 6457   6.048   1.155   4.996  1.1157 -0.2864 -0.6493
   73SLPC  C214 6458   6.129   0.971   5.101  0.0416 -0.1735  0.1662
   73SLPC  H14R 6459   6.163   0.949   5.204 -2.2383 -1.4608  0.7112
   73SLPC  H14S 6460   6.213   0.977   5.028 -2.8706  1.3357 -3.3776
   73SLPC  C215 6461   6.035   0.857   5.066 -0.2977  0.2161  0.8664
   73SLPC  H15R 6462   5.948   0.881   5.130  1.6628  1.7911  3.1058
   73SLPC  H15S 6463   6.092   0.764   5.091 -2.3951 -1.6776 -0.8763
   73SLPC  C216 6464   5.968   0.860   4.922  0.0288 -0.7838 -0.6333
   73SLPC  H16R 6465   5.900   0.948   4.914 -0.5741 -0.9137  2.0312
   73SLPC  H16S 6466   5.907   0.768   4.912 -2.6022  0.9316 -1.5570
   73SLPC  C217 6467   6.062   0.876   4.805 -0.3326 -0.4925 -0.1782
   73SLPC  H17R 6468   6.124   0.784   4.791 -0.3205 -0.7572  1.4280
   73SLPC  H17S 6469   6.136   0.957   4.823 -0.5987 -0.0093 -1.2188
   73SLPC  C218 6470   5.993   0.904   4.671  0.0438 -0.0859 -0.4905
   73SLPC  H18R 6471   5.926   0.823   4.635 -0.0521 -0.0636 -0.3651
   73SLPC  H18S 6472   6.058   0.930   4.585  1.6098  0.3311  0.7827
   73SLPC  H18T 6473   5.936   0.997   4.693  1.7701  1.2516 -1.4480
   73SLPC   C33 6474   6.170   1.867   6.350 -0.1023  0.3517 -0.1910
   73SLPC   H3X 6475   6.226   1.780   6.390  0.5397 -0.0237 -1.8307
   73SLPC   H3Y 6476   6.247   1.943   6.323  0.5508 -0.1878  0.1335
   73SLPC   C34 6477   6.118   1.813   6.218  0.5205  0.1015 -0.5943
   73SLPC   H4X 6478   6.083   1.899   6.156 -0.2133  0.0847 -0.2175
   73SLPC   H4Y 6479   6.024   1.756   6.234  0.5894  0.3086  0.6519
   73SLPC   C35 6480   6.214   1.727   6.137  0.2207  0.4139  1.0019
   73SLPC   H5X 6481   6.206   1.624   6.178 -0.9528 -0.4690 -1.2622
   73SLPC   H5Y 6482   6.322   1.752   6.149  0.3993  0.2095 -0.0969
   73SLPC   C36 6483   6.184   1.739   5.985 -0.0285  0.7399 -0.2983
   73SLPC   H6X 6484   6.218   1.833   5.938  3.3936 -0.5058 -0.6269
   73SLPC   H6Y 6485   6.074   1.728   5.979 -0.1418  2.0084 -0.6920
   73SLPC   C37 6486   6.238   1.619   5.900  0.1183 -1.0040 -0.0442
   73SLPC   H7X 6487   6.162   1.538   5.902 -2.2131  1.0991  1.7401
   73SLPC   H7Y 6488   6.336   1.594   5.946 -0.2038  1.4219  2.1286
   73SLPC   C38 6489   6.265   1.662   5.757  0.5202  0.1186  0.6355
   73SLPC   H8X 6490   6.316   1.578   5.706  0.1601  0.0978  0.3072
   73SLPC   H8Y 6491   6.341   1.744   5.752  0.2518  0.5596  2.8429
   73SLPC   C39 6492   6.148   1.718   5.688 -0.0404 -0.6330  0.3899
   73SLPC   H9X 6493   6.109   1.807   5.743  0.1003  0.2727 -0.9181
   73SLPC   H9Y 6494   6.061   1.650   5.680 -0.5975  0.1780 -0.8033
   73SLPC  C310 6495   6.191   1.775   5.550 -0.0503  0.1988  0.4005
   73SLPC  H10X 6496   6.298   1.806   5.551 -0.0284  0.2741 -1.4553
   73SLPC  H10Y 6497   6.132   1.869   5.546 -1.1894 -0.4805  0.6956
   73SLPC  C311 6498   6.163   1.673   5.443  0.2966 -0.3680  0.4359
   73SLPC  H11X 6499   6.204   1.573   5.470  2.1326  0.7889  2.2531
   73SLPC  H11Y 6500   6.226   1.696   5.354 -2.6613 -0.1932 -1.7863
   73SLPC  C312 6501   6.019   1.657   5.399  0.8659 -0.1887 -0.5049
   73SLPC  H12X 6502   5.983   1.740   5.335  0.3555 -0.2861 -0.3529
   73SLPC  H12Y 6503   5.959   1.677   5.491  1.3073  2.4591 -0.7291
   73SLPC  C313 6504   5.982   1.511   5.355  0.4386  0.0365  0.4733
   73SLPC  H13X 6505   6.021   1.439   5.430  0.8273  0.1309  0.3618
   73SLPC  H13Y 6506   6.035   1.489   5.261  1.5943 -0.0633  1.1321
   73SLPC  C314 6507   5.833   1.488   5.322  0.4513 -0.0515 -0.1465
   73SLPC  H14X 6508   5.766   1.517   5.406  0.8153 -0.7310  0.3904
   73SLPC  H14Y 6509   5.812   1.382   5.299 -1.2569  0.4596 -1.0907
   73SLPC  C315 6510   5.771   1.581   5.221  0.2460  0.7061  0.0859
   73SLPC  H15X 6511   5.828   1.585   5.126 -1.4569  0.5061 -0.9855
   73SLPC  H15Y 6512   5.767   1.688   5.253 -1.7614  0.9419 -0.7582
   73SLPC  C316 6513   5.630   1.540   5.193 -0.3105 -0.7442 -0.7821
   73SLPC  H16X 6514   5.578   1.534   5.291  0.9445  1.6544  0.1420
   73SLPC  H16Y 6515   5.632   1.439   5.148  1.8233 -0.7040 -0.8938
   73SLPC  C317 6516   5.552   1.652   5.113  0.9027 -0.3484 -0.0492
   73SLPC  H17X 6517   5.533   1.742   5.175 -0.4623 -1.7769  1.7294
   73SLPC  H17Y 6518   5.454   1.611   5.078  0.5565  1.0033 -0.7292
   73SLPC  C318 6519   5.612   1.693   4.977 -0.1641  0.0983  0.1744
   73SLPC  H18X 6520   5.540   1.757   4.921  0.9421  0.2645 -1.1002
   73SLPC  H18Y 6521   5.635   1.602   4.918  2.3207  1.2800 -0.8049
   73SLPC  H18Z 6522   5.708   1.747   4.988 -0.2804  0.1682  0.9233
   74SLPC     N 6523   2.448   6.117   7.122 -0.6594 -0.5796 -0.7311
   74SLPC   C13 6524   2.504   6.076   6.989  1.2658 -0.0338 -0.6176
   74SLPC  H13A 6525   2.461   5.983   6.954  0.9277 -0.9487  2.0356
   74SLPC  H13B 6526   2.483   6.147   6.911 -3.5396 -0.3294  0.1561
   74SLPC  H13C 6527   2.611   6.061   6.999  1.0971 -1.3460 -0.6414
   74SLPC   C14 6528   2.439   5.998   7.210 -0.7768  0.4169 -0.0978
   74SLPC  H14A 6529   2.535   5.959   7.240 -0.6762 -0.0164 -0.9603
   74SLPC  H14B 6530   2.391   6.014   7.306  3.1469 -2.7259  2.7336
   74SLPC  H14C 6531   2.384   5.927   7.150  1.8036  0.2576 -2.4292
   74SLPC   C15 6532   2.311   6.181   7.107 -0.1446 -0.4550 -0.6955
   74SLPC  H15A 6533   2.236   6.124   7.055 -0.6830 -1.5706  1.2429
   74SLPC  H15B 6534   2.265   6.209   7.201 -0.5662 -0.5484 -0.8722
   74SLPC  H15C 6535   2.334   6.270   7.050 -1.0466  0.2608  0.0331
   74SLPC   C12 6536   2.540   6.218   7.185  0.2575  0.2239  0.2482
   74SLPC  H12A 6537   2.515   6.223   7.290  0.6563 -2.3324  0.5429
   74SLPC  H12B 6538   2.520   6.319   7.154  0.6467  0.0252 -0.6880
   74SLPC   C11 6539   2.689   6.203   7.173 -0.0200 -0.2776  0.5830
   74SLPC  H11A 6540   2.712   6.096   7.196  0.9878 -1.6727 -5.3483
   74SLPC  H11B 6541   2.738   6.275   7.242 -0.5923  0.2166  0.4784
   74SLPC     P 6542   2.852   6.150   6.975 -0.3062  0.1519 -0.1424
   74SLPC   O13 6543   2.968   6.213   7.044  0.4398 -0.3177  0.1804
   74SLPC   O14 6544   2.812   6.011   7.009 -0.3159  0.2794  0.3282
   74SLPC   O12 6545   2.732   6.238   7.032 -0.3505 -0.5081  0.0431
   74SLPC   O11 6546   2.854   6.170   6.815 -0.3683 -0.4244 -0.2126
   74SLPC    C1 6547   2.737   6.169   6.739 -0.1619  0.0790 -0.5246
   74SLPC    HA 6548   2.696   6.066   6.741 -2.3356  0.8866  1.7345
   74SLPC    HB 6549   2.661   6.225   6.797 -0.5130 -0.1823 -0.7251
   74SLPC    C2 6550   2.747   6.235   6.595 -0.1434  0.2963 -0.8442
   74SLPC    HS 6551   2.648   6.274   6.562  0.9666  2.5888 -1.6997
   74SLPC   O21 6552   2.804   6.151   6.492 -0.1014  0.4647  0.2204
   74SLPC   C21 6553   2.742   6.036   6.471 -0.2810  0.7864  0.1517
   74SLPC   O22 6554   2.636   6.001   6.522  0.0659  0.0087 -0.0839
   74SLPC   C22 6555   2.819   5.945   6.368 -0.8744  0.0405 -0.0610
   74SLPC   H2R 6556   2.903   5.988   6.310  0.8063  1.2500  3.0442
   74SLPC   H2S 6557   2.881   5.878   6.430  0.5553  1.5143  0.1696
   74SLPC    C3 6558   2.835   6.354   6.607  0.1867 -0.0141  0.4146
   74SLPC    HX 6559   2.940   6.322   6.624  0.1120  0.0617  1.0471
   74SLPC    HY 6560   2.808   6.397   6.706  0.0005 -0.3114  0.4964
   74SLPC   O31 6561   2.827   6.442   6.493  0.0742 -0.0065 -0.0448
   74SLPC   C31 6562   2.879   6.560   6.518  0.1764  0.4821 -0.6435
   74SLPC   O32 6563   2.938   6.596   6.619 -0.0708 -0.0498  0.1717
   74SLPC   C32 6564   2.856   6.656   6.397  0.1072 -0.0149 -0.0397
   74SLPC   H2X 6565   2.765   6.716   6.417  0.8569  0.8742  0.7461
   74SLPC   H2Y 6566   2.829   6.591   6.310  3.8469 -3.0018  0.7617
   74SLPC   C23 6567   2.721   5.869   6.266 -0.2064  0.7145  0.3777
   74SLPC   H3R 6568   2.643   5.816   6.324  0.0945  1.4069  1.4588
   74SLPC   H3S 6569   2.774   5.785   6.216 -2.7389 -0.9618  0.3159
   74SLPC   C24 6570   2.657   5.956   6.152 -0.3571 -0.2869  0.3697
   74SLPC   H4R 6571   2.583   6.027   6.194  1.4300  0.8950  1.6823
   74SLPC   H4S 6572   2.607   5.884   6.084  1.8181  0.0460 -1.7401
   74SLPC   C25 6573   2.765   6.034   6.078  0.0432 -0.2906  0.8335
   74SLPC   H5R 6574   2.839   5.963   6.033  0.3750 -0.0875  1.0562
   74SLPC   H5S 6575   2.817   6.107   6.143 -3.1689  0.6793  2.5102
   74SLPC   C26 6576   2.707   6.102   5.947 -0.1498  0.2430 -0.1092
   74SLPC   H6R 6577   2.649   6.189   5.984 -0.4738  0.5094 -1.2305
   74SLPC   H6S 6578   2.631   6.033   5.904  0.6193 -1.5229  1.1986
   74SLPC   C27 6579   2.819   6.141   5.854 -0.3779  0.0617 -1.1115
   74SLPC   H7R 6580   2.896   6.062   5.855  0.6613  1.0162  1.0624
   74SLPC   H7S 6581   2.872   6.222   5.909 -0.2200 -0.9335  0.2618
   74SLPC   C28 6582   2.767   6.186   5.725 -0.2699  0.3769  0.9932
   74SLPC   H8R 6583   2.818   6.280   5.697  0.2545  0.0042  0.6777
   74SLPC   H8S 6584   2.658   6.210   5.724 -0.3808 -0.1058 -0.0946
   74SLPC   C29 6585   2.782   6.073   5.621 -0.1728 -1.0374 -0.4095
   74SLPC   H9R 6586   2.801   5.976   5.670 -1.0719 -0.5622  0.9490
   74SLPC  C210 6587   2.781   6.075   5.488 -0.2568  0.2317  0.0982
   74SLPC  H10R 6588   2.809   5.985   5.432 -0.3212 -0.0945  0.5747
   74SLPC  C211 6589   2.777   6.194   5.398  0.3373  0.0101  0.0254
   74SLPC  H11R 6590   2.750   6.289   5.448  0.6237 -0.2129  0.6042
   74SLPC  H11S 6591   2.701   6.164   5.322  2.4143  0.2072 -2.2828
   74SLPC  C212 6592   2.914   6.211   5.335 -0.2820  0.0830  0.2782
   74SLPC  H12R 6593   3.002   6.210   5.400  1.4020 -0.1921 -1.8933
   74SLPC  C213 6594   2.932   6.228   5.199 -0.2127 -0.5233 -0.4576
   74SLPC  H13R 6595   3.031   6.239   5.153  0.0763 -1.5689 -0.1041
   74SLPC  C214 6596   2.816   6.257   5.100  0.2191 -0.0805  0.0448
   74SLPC  H14R 6597   2.719   6.291   5.143 -0.0025 -0.3627 -0.2234
   74SLPC  H14S 6598   2.782   6.164   5.048 -0.5083 -0.3176  0.9224
   74SLPC  C215 6599   2.852   6.363   4.990 -0.0017 -0.3183 -0.4298
   74SLPC  H15R 6600   2.954   6.347   4.949  0.9433 -0.9088  1.9207
   74SLPC  H15S 6601   2.844   6.470   5.017  1.9008  0.6477 -3.2665
   74SLPC  C216 6602   2.768   6.346   4.859 -0.3576  0.1405  0.0280
   74SLPC  H16R 6603   2.670   6.321   4.903 -0.9655  3.3123  0.7431
   74SLPC  H16S 6604   2.801   6.258   4.799  2.4539  0.9083  0.3048
   74SLPC  C217 6605   2.753   6.465   4.772 -0.4769  0.2500  0.4081
   74SLPC  H17R 6606   2.733   6.544   4.848 -0.7397 -0.2083  0.8219
   74SLPC  H17S 6607   2.661   6.455   4.712 -0.4705 -2.9786  0.7590
   74SLPC  C218 6608   2.867   6.490   4.676 -0.4122  0.1250 -0.4384
   74SLPC  H18R 6609   2.830   6.565   4.603 -0.9711  0.8211  0.5168
   74SLPC  H18S 6610   2.909   6.408   4.615 -1.1666 -1.0062  0.5058
   74SLPC  H18T 6611   2.938   6.537   4.747 -0.6283 -1.7908  1.1353
   74SLPC   C33 6612   2.981   6.735   6.355  0.1772  0.3750  0.6276
   74SLPC   H3X 6613   3.064   6.666   6.329  2.0821  2.3303  1.1462
   74SLPC   H3Y 6614   3.020   6.795   6.441 -1.2533  0.3953  1.2839
   74SLPC   C34 6615   2.961   6.822   6.230 -0.7681  0.3884  0.0878
   74SLPC   H4X 6616   2.876   6.892   6.242 -0.5607  0.6381  0.1253
   74SLPC   H4Y 6617   2.928   6.746   6.156  0.2952 -1.3829  1.3486
   74SLPC   C35 6618   3.089   6.889   6.196 -0.6941 -0.3546  1.0431
   74SLPC   H5X 6619   3.169   6.817   6.167  0.9483  1.2236  1.4971
   74SLPC   H5Y 6620   3.112   6.955   6.282 -2.1611  1.9933 -0.2545
   74SLPC   C36 6621   3.089   6.997   6.082 -0.1569 -0.3031  0.0124
   74SLPC   H6X 6622   3.022   7.082   6.107 -1.2186 -1.0182 -0.3420
   74SLPC   H6Y 6623   3.053   6.957   5.985  2.5220  2.3413 -2.3290
   74SLPC   C37 6624   3.226   7.042   6.038  0.1638 -1.0618 -0.1407
   74SLPC   H7X 6625   3.304   6.963   6.028 -0.0414 -1.1484 -1.2245
   74SLPC   H7Y 6626   3.259   7.111   6.118 -0.5548 -0.9143  0.0372
   74SLPC   C38 6627   3.229   7.125   5.911 -0.0032  0.7829  0.8881
   74SLPC   H8X 6628   3.287   7.219   5.913  0.7182  0.4678 -1.5234
   74SLPC   H8Y 6629   3.130   7.170   5.891  0.7081  0.9915 -3.1105
   74SLPC   C39 6630   3.253   7.035   5.794  0.7833  0.1549  0.0984
   74SLPC   H9X 6631   3.185   6.947   5.791  0.6995  0.2435 -0.5791
   74SLPC   H9Y 6632   3.356   6.992   5.805  1.7331  2.3593  0.2399
   74SLPC  C310 6633   3.264   7.111   5.667  0.0699 -0.9080  0.2511
   74SLPC  H10X 6634   3.343   7.187   5.681 -0.2220 -0.7413  1.0321
   74SLPC  H10Y 6635   3.172   7.171   5.649  0.9628  0.8059  1.1756
   74SLPC  C311 6636   3.300   7.018   5.555 -0.0187 -0.0029  0.2010
   74SLPC  H11X 6637   3.209   6.958   5.532  0.0286 -1.9091  4.2763
   74SLPC  H11Y 6638   3.377   6.945   5.585 -0.9426 -0.3984  1.7037
   74SLPC  C312 6639   3.343   7.112   5.434  1.0163  0.2247  0.5175
   74SLPC  H12X 6640   3.433   7.164   5.474  1.6581  0.9681 -1.7375
   74SLPC  H12Y 6641   3.277   7.200   5.418  0.0978 -0.6699 -0.7548
   74SLPC  C313 6642   3.373   7.037   5.311 -0.6093  0.9987  0.4736
   74SLPC  H13X 6643   3.287   6.984   5.265  1.3849 -0.0730 -2.3995
   74SLPC  H13Y 6644   3.453   6.963   5.336 -0.2635  0.7229 -1.2646
   74SLPC  C314 6645   3.426   7.135   5.203  0.0973 -0.0189  0.1257
   74SLPC  H14X 6646   3.485   7.081   5.126  0.3157 -0.0222  0.2924
   74SLPC  H14Y 6647   3.500   7.206   5.245 -1.4781 -0.8101  4.8849
   74SLPC  C315 6648   3.314   7.219   5.138  0.1429  0.2528  0.1930
   74SLPC  H15X 6649   3.292   7.292   5.218  1.8877  0.2414  0.7312
   74SLPC  H15Y 6650   3.223   7.160   5.112  0.1295  0.7825 -1.0248
   74SLPC  C316 6651   3.371   7.306   5.022 -0.3347 -0.2921 -0.4382
   74SLPC  H16X 6652   3.446   7.374   5.068 -1.4220  1.2973 -0.9612
   74SLPC  H16Y 6653   3.284   7.361   4.983 -1.0559  0.9741  2.6458
   74SLPC  C317 6654   3.430   7.217   4.907 -0.0048  0.2021  0.6965
   74SLPC  H17X 6655   3.364   7.130   4.892  0.3586 -0.2681  1.7491
   74SLPC  H17Y 6656   3.531   7.188   4.942 -1.0309 -1.4464  2.4588
   74SLPC  C318 6657   3.436   7.290   4.770  0.1537  0.1182 -0.2190
   74SLPC  H18X 6658   3.461   7.220   4.686 -0.4458 -0.1375 -0.1880
   74SLPC  H18Y 6659   3.507   7.375   4.766 -0.4306  0.5728 -1.3044
   74SLPC  H18Z 6660   3.336   7.330   4.744  1.3794  3.4072 -0.2445
   75SLPC     N 6661   4.551   4.349   6.797 -0.2504  0.8594  0.4081
   75SLPC   C13 6662   4.542   4.243   6.688  0.2154 -0.3248  0.1062
   75SLPC  H13A 6663   4.544   4.146   6.736 -0.4263 -1.3845 -1.8848
   75SLPC  H13B 6664   4.445   4.253   6.641  0.8329  0.5290 -1.0333
   75SLPC  H13C 6665   4.623   4.236   6.617 -0.5491  1.6402 -1.0223
   75SLPC   C14 6666   4.673   4.307   6.872  0.0274 -0.3613  0.4114
   75SLPC  H14A 6667   4.670   4.209   6.918 -0.6507  0.1182  1.3952
   75SLPC  H14B 6668   4.760   4.312   6.807  0.2264 -1.6407  0.5463
   75SLPC  H14C 6669   4.692   4.375   6.953  1.7741  0.0203 -0.2615
   75SLPC   C15 6670   4.424   4.325   6.882  0.3991  0.5097 -0.8216
   75SLPC  H15A 6671   4.425   4.386   6.971  0.8418 -1.2360  0.4060
   75SLPC  H15B 6672   4.340   4.357   6.822  1.0408  0.3807 -1.8093
   75SLPC  H15C 6673   4.413   4.223   6.913 -0.8598  0.5974 -0.9304
   75SLPC   C12 6674   4.553   4.495   6.734  0.1390 -0.2505  0.4523
   75SLPC  H12A 6675   4.458   4.502   6.683  0.4521  2.2012  0.1111
   75SLPC  H12B 6676   4.634   4.496   6.663  0.6301  0.6168  1.0134
   75SLPC   C11 6677   4.563   4.616   6.823  0.3423 -0.7223  0.1038
   75SLPC  H11A 6678   4.475   4.607   6.890 -0.2446 -2.1466 -0.8171
   75SLPC  H11B 6679   4.553   4.711   6.766  2.9353  0.2116  1.0451
   75SLPC     P 6680   4.830   4.636   6.847 -0.5038  0.0606 -0.2035
   75SLPC   O13 6681   4.853   4.784   6.849  0.3197  0.0814 -0.8449
   75SLPC   O14 6682   4.932   4.555   6.918  0.2675 -0.0339 -0.0144
   75SLPC   O12 6683   4.684   4.608   6.901 -0.0449 -0.3315 -1.0153
   75SLPC   O11 6684   4.829   4.584   6.701  0.2255  0.4014  0.2414
   75SLPC    C1 6685   4.899   4.640   6.592  0.1956 -0.6825  0.0667
   75SLPC    HA 6686   4.834   4.630   6.502 -2.8202  1.0679  1.8945
   75SLPC    HB 6687   4.913   4.749   6.605 -1.6462 -0.5339  1.0742
   75SLPC    C2 6688   5.036   4.566   6.560  0.2200 -0.8076  0.4775
   75SLPC    HS 6689   5.103   4.608   6.638  0.3575  1.3763 -0.7372
   75SLPC   O21 6690   5.074   4.609   6.427  0.5599  0.2901 -0.1457
   75SLPC   C21 6691   5.121   4.732   6.429 -0.8273  0.1934  0.1898
   75SLPC   O22 6692   5.147   4.795   6.529 -0.1668  0.1119  0.2669
   75SLPC   C22 6693   5.149   4.807   6.291  0.9742 -0.7117  0.7397
   75SLPC   H2R 6694   5.056   4.862   6.268  2.6295  1.4490 -1.3984
   75SLPC   H2S 6695   5.210   4.895   6.324 -0.7936  1.2412 -0.9174
   75SLPC    C3 6696   5.011   4.411   6.578  0.3256 -0.0349  0.4288
   75SLPC    HX 6697   4.908   4.382   6.549  0.5949 -1.8932  1.1468
   75SLPC    HY 6698   5.006   4.391   6.688 -0.1450 -0.7483  0.2850
   75SLPC   O31 6699   5.106   4.326   6.506 -0.4746 -0.6130 -0.5391
   75SLPC   C31 6700   5.226   4.337   6.565 -0.1530  0.5661  0.4290
   75SLPC   O32 6701   5.255   4.400   6.665  0.6031 -0.2734  0.0359
   75SLPC   C32 6702   5.323   4.252   6.495  0.2561  0.1112  0.8023
   75SLPC   H2X 6703   5.279   4.151   6.481  0.3043  0.2930 -0.8981
   75SLPC   H2Y 6704   5.413   4.245   6.559  0.1659  0.4974  0.9706
   75SLPC   C23 6705   5.212   4.729   6.169 -0.2109 -0.3009 -0.4338
   75SLPC   H3R 6706   5.215   4.806   6.090 -2.6828 -0.9515 -1.2279
   75SLPC   H3S 6707   5.147   4.645   6.138  0.4386 -1.1766  0.4830
   75SLPC   C24 6708   5.354   4.675   6.192 -0.4272  0.6755  0.0661
   75SLPC   H4R 6709   5.398   4.640   6.096 -1.3925 -0.9304  0.1632
   75SLPC   H4S 6710   5.336   4.587   6.258  0.6839  0.1738 -0.2690
   75SLPC   C25 6711   5.454   4.766   6.260  0.7252  0.3364  0.2492
   75SLPC   H5R 6712   5.397   4.826   6.334  0.8123 -3.4342  3.7046
   75SLPC   H5S 6713   5.498   4.846   6.197  1.9518  0.7758  1.6109
   75SLPC   C26 6714   5.562   4.686   6.325 -0.5531  0.3766  0.0990
   75SLPC   H6R 6715   5.623   4.628   6.252 -2.1401 -0.1053 -0.8891
   75SLPC   H6S 6716   5.517   4.607   6.390  0.8312  1.2831  2.3008
   75SLPC   C27 6717   5.658   4.779   6.410 -0.3622  0.5411  0.2240
   75SLPC   H7R 6718   5.732   4.718   6.467  0.6767  0.6249 -1.0015
   75SLPC   H7S 6719   5.589   4.837   6.474  1.4268  2.2537  0.6970
   75SLPC   C28 6720   5.733   4.880   6.324 -0.0833 -0.5918  0.1690
   75SLPC   H8R 6721   5.782   4.946   6.399  0.4144  0.8728 -1.3886
   75SLPC   H8S 6722   5.651   4.939   6.277  1.1018  0.0213 -1.1842
   75SLPC   C29 6723   5.835   4.812   6.236  0.9091 -0.4398  0.0121
   75SLPC   H9R 6724   5.895   4.744   6.299  2.2124 -0.3157 -1.0588
   75SLPC  C210 6725   5.871   4.835   6.108  0.1256 -0.5076  1.2692
   75SLPC  H10R 6726   5.943   4.771   6.056  0.3950  0.7146  0.0577
   75SLPC  C211 6727   5.799   4.934   6.015  0.7072 -0.3757  0.2499
   75SLPC  H11R 6728   5.866   4.973   5.935  0.8827  0.8100  0.9482
   75SLPC  H11S 6729   5.776   5.028   6.069  0.1404  0.3352 -1.1777
   75SLPC  C212 6730   5.672   4.877   5.946 -0.0727 -0.3502  0.3573
   75SLPC  H12R 6731   5.627   4.800   6.010  1.0897 -0.5031  1.0175
   75SLPC  C213 6732   5.641   4.899   5.819  0.1256 -0.4340 -0.1390
   75SLPC  H13R 6733   5.544   4.863   5.783  0.3143  0.3273 -1.4831
   75SLPC  C214 6734   5.722   4.994   5.733 -0.0052 -0.2586  0.0210
   75SLPC  H14R 6735   5.806   4.931   5.696  0.6553  0.2626  0.5873
   75SLPC  H14S 6736   5.767   5.076   5.793 -0.4350  0.6865 -0.9181
   75SLPC  C215 6737   5.628   5.046   5.618 -0.4705  0.0530 -0.1197
   75SLPC  H15R 6738   5.685   5.126   5.565  0.1055 -0.3067 -0.0572
   75SLPC  H15S 6739   5.541   5.093   5.670 -1.3323 -1.9605  0.3225
   75SLPC  C216 6740   5.579   4.952   5.515  0.1630 -0.1904  0.4219
   75SLPC  H16R 6741   5.498   4.891   5.561 -2.3449  2.4579 -0.1548
   75SLPC  H16S 6742   5.665   4.891   5.481  0.3523 -0.3517  1.1740
   75SLPC  C217 6743   5.523   5.030   5.392  0.6464  0.2348 -0.0630
   75SLPC  H17R 6744   5.601   5.097   5.349  1.3153  1.4324  2.7541
   75SLPC  H17S 6745   5.438   5.094   5.425  1.9534  1.2381  1.5396
   75SLPC  C218 6746   5.469   4.945   5.284  0.7160 -0.3967  1.1094
   75SLPC  H18R 6747   5.422   4.850   5.317 -0.2114  0.6326  2.9001
   75SLPC  H18S 6748   5.560   4.927   5.221  0.5829  0.2212  0.7346
   75SLPC  H18T 6749   5.396   4.998   5.219  0.5927  0.3040  1.8228
   75SLPC   C33 6750   5.368   4.308   6.359  0.0521 -0.5411  0.4905
   75SLPC   H3X 6751   5.411   4.408   6.381  1.3266 -0.6860 -1.1820
   75SLPC   H3Y 6752   5.285   4.328   6.287  1.8915  1.9066 -1.0835
   75SLPC   C34 6753   5.460   4.216   6.279 -0.0655 -0.7991 -0.1130
   75SLPC   H4X 6754   5.403   4.127   6.244 -0.2180 -1.5823  2.0297
   75SLPC   H4Y 6755   5.542   4.175   6.342 -0.0718 -1.6622 -0.6451
   75SLPC   C35 6756   5.537   4.292   6.166  0.4430  0.4969  0.3031
   75SLPC   H5X 6757   5.627   4.234   6.137  1.4369  1.5773  1.1209
   75SLPC   H5Y 6758   5.564   4.392   6.206  0.6168  0.4745  0.2432
   75SLPC   C36 6759   5.445   4.314   6.054  0.6481 -0.0055 -0.3920
   75SLPC   H6X 6760   5.361   4.376   6.090 -0.1245 -1.8154  1.0913
   75SLPC   H6Y 6761   5.406   4.217   6.015  3.3014 -1.2138 -0.2967
   75SLPC   C37 6762   5.506   4.395   5.939 -0.4348 -1.1434  0.6593
   75SLPC   H7X 6763   5.595   4.347   5.894 -1.2642 -2.6913  0.6116
   75SLPC   H7Y 6764   5.534   4.493   5.984 -2.3995  0.4506 -1.3183
   75SLPC   C38 6765   5.402   4.426   5.831 -0.1661  0.3362  0.1916
   75SLPC   H8X 6766   5.309   4.462   5.880 -0.1652 -0.0908  0.5144
   75SLPC   H8Y 6767   5.376   4.328   5.785 -0.2937  0.1413  0.6787
   75SLPC   C39 6768   5.449   4.525   5.723  0.0671 -0.6572 -0.4505
   75SLPC   H9X 6769   5.526   4.591   5.769 -0.6094  0.4660 -0.8883
   75SLPC   H9Y 6770   5.359   4.590   5.717  0.0766 -0.5631  0.4296
   75SLPC  C310 6771   5.482   4.453   5.584  0.7597 -0.4664  0.2962
   75SLPC  H10X 6772   5.406   4.377   5.560 -0.8705  0.7928  1.2624
   75SLPC  H10Y 6773   5.579   4.398   5.591  0.9079 -0.4844 -1.5326
   75SLPC  C311 6774   5.508   4.554   5.473  0.1779  0.0927  0.2710
   75SLPC  H11X 6775   5.588   4.613   5.523  2.0597 -1.5902 -0.6119
   75SLPC  H11Y 6776   5.416   4.612   5.454 -1.0017 -1.4593  0.9951
   75SLPC  C312 6777   5.558   4.492   5.340 -0.5903  0.9423 -0.1769
   75SLPC  H12X 6778   5.471   4.446   5.289  0.0801  0.5188 -0.9688
   75SLPC  H12Y 6779   5.621   4.405   5.366  1.3962  1.8118 -1.7658
   75SLPC  C313 6780   5.615   4.585   5.231 -0.1034  0.1826  0.2369
   75SLPC  H13X 6781   5.707   4.629   5.276  0.1463 -0.2469  0.1473
   75SLPC  H13Y 6782   5.542   4.668   5.222  1.1382  1.1980 -1.1309
   75SLPC  C314 6783   5.629   4.510   5.098 -0.1202 -0.1808  0.2299
   75SLPC  H14X 6784   5.525   4.491   5.065 -0.1689 -0.3860  0.5038
   75SLPC  H14Y 6785   5.689   4.417   5.108 -0.0348 -0.3336 -1.3899
   75SLPC  C315 6786   5.700   4.592   4.989  0.3503  0.2167  0.2084
   75SLPC  H15X 6787   5.802   4.618   5.022  0.8172 -0.3543 -0.7573
   75SLPC  H15Y 6788   5.643   4.685   4.966  3.7272  1.9371 -2.0594
   75SLPC  C316 6789   5.711   4.510   4.854  0.4567 -0.6266  1.0162
   75SLPC  H16X 6790   5.709   4.584   4.771 -2.7259 -0.1727  1.3804
   75SLPC  H16Y 6791   5.633   4.433   4.839 -0.2843  0.3791 -0.6751
   75SLPC  C317 6792   5.854   4.464   4.833  0.0641  0.4978 -0.4427
   75SLPC  H17X 6793   5.890   4.407   4.922 -0.7301 -1.8102 -1.5200
   75SLPC  H17Y 6794   5.919   4.553   4.820  2.1410 -1.0254 -1.0815
   75SLPC  C318 6795   5.883   4.381   4.708  0.1955  0.0941  0.2286
   75SLPC  H18X 6796   5.837   4.427   4.617 -2.0083 -0.7555  0.8660
   75SLPC  H18Y 6797   5.831   4.283   4.702  0.1663  0.1326 -0.2358
   75SLPC  H18Z 6798   5.990   4.367   4.680  0.2659  2.5095 -0.9911
   76SLPC     N 6799   0.260   2.313   6.758 -0.1965  0.9046  0.5309
   76SLPC   C13 6800   0.262   2.435   6.671  0.5632  0.1122 -0.9960
   76SLPC  H13A 6801   0.166   2.483   6.663  1.8143  2.6454 -1.7761
   76SLPC  H13B 6802   0.330   2.508   6.713 -2.4673  1.8740  1.2193
   76SLPC  H13C 6803   0.290   2.408   6.570  1.0299 -0.6576 -0.6722
   76SLPC   C14 6804   0.226   2.366   6.896  0.0403  0.4472 -0.2556
   76SLPC  H14A 6805   0.276   2.459   6.917 -0.8397  1.3012 -1.6992
   76SLPC  H14B 6806   0.120   2.385   6.898  0.2010  1.2985  0.9440
   76SLPC  H14C 6807   0.240   2.294   6.975  1.4100  1.3222  0.3259
   76SLPC   C15 6808   0.398   2.249   6.762 -0.1229 -0.2048  0.1219
   76SLPC  H15A 6809   0.404   2.181   6.846 -1.5247 -1.5525 -0.8056
   76SLPC  H15B 6810   0.431   2.204   6.670 -0.8150  0.1529 -0.3068
   76SLPC  H15C 6811   0.473   2.324   6.782  0.5275 -0.6422 -0.6216
   76SLPC   C12 6812   0.158   2.214   6.716  0.0973  0.3179 -0.6544
   76SLPC  H12A 6813   0.062   2.260   6.700 -0.0124 -0.4041 -2.2383
   76SLPC  H12B 6814   0.151   2.135   6.790  0.8718 -0.7242 -1.6498
   76SLPC   C11 6815   0.196   2.144   6.581  0.4474 -0.1179 -0.1773
   76SLPC  H11A 6816   0.297   2.097   6.580  1.3615  1.7329  0.6399
   76SLPC  H11B 6817   0.185   2.228   6.510  0.4919 -0.4290 -0.5571
   76SLPC     P 6818   0.090   1.905   6.655  0.2754  0.0176  0.1841
   76SLPC   O13 6819   0.224   1.858   6.691  0.3675  0.3185 -0.0271
   76SLPC   O14 6820  -0.009   1.940   6.759  0.3171 -0.3037  0.0714
   76SLPC   O12 6821   0.102   2.034   6.560 -0.3100  0.5245 -0.0209
   76SLPC   O11 6822   0.024   1.793   6.561  0.2295 -0.4408  0.2043
   76SLPC    C1 6823   0.112   1.724   6.461  0.1539 -0.3206 -0.3113
   76SLPC    HA 6824   0.206   1.781   6.445 -0.0683 -0.0080 -0.5399
   76SLPC    HB 6825   0.132   1.621   6.496  0.7114  0.9642  3.5286
   76SLPC    C2 6826   0.039   1.712   6.326  0.3598 -1.1691  0.2800
   76SLPC    HS 6827   0.103   1.658   6.253  0.3807 -2.2009  1.0341
   76SLPC   O21 6828   0.012   1.848   6.284 -0.1920  0.2641  0.1222
   76SLPC   C21 6829   0.109   1.920   6.225  0.0129 -0.0499 -0.0340
   76SLPC   O22 6830   0.215   1.878   6.190 -0.4716 -0.3387 -0.1307
   76SLPC   C22 6831   0.055   2.059   6.192 -0.1634 -0.1415  0.1183
   76SLPC   H2R 6832   0.019   2.098   6.290  1.6269  0.1279  0.7008
   76SLPC   H2S 6833   0.135   2.128   6.158  2.3089 -2.1220  1.5302
   76SLPC    C3 6834  -0.095   1.633   6.349  0.2412 -0.2785  0.5291
   76SLPC    HX 6835  -0.144   1.671   6.441 -1.2441  0.8910 -0.6867
   76SLPC    HY 6836  -0.062   1.530   6.375  1.9388  0.2869  0.7013
   76SLPC   O31 6837  -0.181   1.631   6.236  0.1004 -0.7195  0.2448
   76SLPC   C31 6838  -0.137   1.560   6.133  0.2836 -0.0697  0.1140
   76SLPC   O32 6839  -0.034   1.500   6.129 -0.1342  0.0597 -0.3827
   76SLPC   C32 6840  -0.242   1.557   6.016  0.1226 -0.2238  0.1454
   76SLPC   H2X 6841  -0.349   1.559   6.045 -1.0223  1.0996 -3.5452
   76SLPC   H2Y 6842  -0.223   1.457   5.971 -0.2450  0.7303 -2.2621
   76SLPC   C23 6843  -0.054   2.051   6.083 -0.4093  0.1677  0.0441
   76SLPC   H3R 6844  -0.111   2.146   6.080  1.1836  1.1249 -1.9414
   76SLPC   H3S 6845  -0.122   1.968   6.110 -1.4366  1.5353  1.9616
   76SLPC   C24 6846   0.006   2.039   5.948 -0.9977  0.6345  0.1303
   76SLPC   H4R 6847   0.081   1.958   5.941  2.1928  3.4575 -0.9656
   76SLPC   H4S 6848   0.063   2.132   5.927  0.4362 -0.0397  0.9232
   76SLPC   C25 6849  -0.095   2.015   5.830  0.6151  0.0617 -0.1099
   76SLPC   H5R 6850  -0.152   2.110   5.819  0.5130  0.1076  0.7336
   76SLPC   H5S 6851  -0.155   1.929   5.867  2.0500 -0.4403  1.1513
   76SLPC   C26 6852  -0.035   1.982   5.692  0.1620 -0.1667 -0.0286
   76SLPC   H6R 6853  -0.113   1.966   5.614  0.8380  0.0321 -0.7531
   76SLPC   H6S 6854   0.009   1.880   5.698 -2.1371 -1.2284  0.0930
   76SLPC   C27 6855   0.077   2.076   5.642 -0.4640 -0.2414 -0.4181
   76SLPC   H7R 6856   0.132   2.034   5.555  0.5920  0.5238 -0.1472
   76SLPC   H7S 6857   0.149   2.087   5.726 -0.4451 -0.2022 -0.4392
   76SLPC   C28 6858   0.043   2.229   5.620  0.8042 -0.6679 -0.0960
   76SLPC   H8R 6859   0.140   2.282   5.615  1.3232 -1.4915  0.9034
   76SLPC   H8S 6860  -0.018   2.262   5.707  1.5809 -3.0313  1.4558
   76SLPC   C29 6861  -0.035   2.255   5.502  0.0159 -0.2713 -0.0883
   76SLPC   H9R 6862  -0.144   2.246   5.515  0.1011 -1.0854  0.1296
   76SLPC  C210 6863   0.022   2.283   5.382  0.2008 -0.0521  0.6161
   76SLPC  H10R 6864  -0.050   2.304   5.302 -0.3515 -1.0637  0.8256
   76SLPC  C211 6865   0.167   2.303   5.343  0.2837 -0.4665  0.7657
   76SLPC  H11R 6866   0.216   2.354   5.429  0.0958  0.2284  0.4613
   76SLPC  H11S 6867   0.176   2.368   5.254 -1.7950 -0.5514  0.4313
   76SLPC  C212 6868   0.244   2.181   5.311  0.8561  0.0723  0.3901
   76SLPC  H12R 6869   0.317   2.148   5.387 -0.3486 -0.2188  1.4563
   76SLPC  C213 6870   0.238   2.102   5.200  0.2422  0.2013  0.3854
   76SLPC  H13R 6871   0.315   2.023   5.203 -1.7785 -2.0779 -1.8610
   76SLPC  C214 6872   0.155   2.113   5.072  0.2584  0.3310  0.2458
   76SLPC  H14R 6873   0.054   2.153   5.094 -0.2783 -0.5933 -0.4522
   76SLPC  H14S 6874   0.129   2.012   5.035  0.0214  0.9043 -1.2316
   76SLPC  C215 6875   0.218   2.184   4.956 -0.1677  0.5703 -0.6128
   76SLPC  H15R 6876   0.308   2.126   4.927  0.5603  0.7799  1.0667
   76SLPC  H15S 6877   0.247   2.280   5.005 -0.8613  0.3157  0.3110
   76SLPC  C216 6878   0.116   2.213   4.843  0.1515  0.3933  0.3899
   76SLPC  H16R 6879   0.144   2.300   4.779 -1.3307  1.0105  0.5481
   76SLPC  H16S 6880   0.029   2.253   4.900  0.2072 -2.2252  2.4594
   76SLPC  C217 6881   0.079   2.096   4.761  0.1130 -0.4006 -0.0688
   76SLPC  H17R 6882   0.075   2.005   4.825  2.2266 -0.0932  0.5950
   76SLPC  H17S 6883   0.158   2.075   4.685 -0.7871 -2.2773 -0.5295
   76SLPC  C218 6884  -0.058   2.095   4.691 -1.4440 -0.0114 -0.2337
   76SLPC  H18R 6885  -0.136   2.077   4.768 -1.1593  1.4190  0.4248
   76SLPC  H18S 6886  -0.065   2.014   4.615 -2.9744 -0.0582 -0.0754
   76SLPC  H18T 6887  -0.076   2.189   4.634 -0.2185  0.1777 -0.3361
   76SLPC   C33 6888  -0.221   1.650   5.896  0.4750  0.6492  0.6535
   76SLPC   H3X 6889  -0.132   1.716   5.899  1.1201 -0.1256 -0.5234
   76SLPC   H3Y 6890  -0.309   1.717   5.886  0.9800  1.1919 -0.3734
   76SLPC   C34 6891  -0.209   1.571   5.764  0.0423 -0.2991 -0.2303
   76SLPC   H4X 6892  -0.299   1.509   5.746  0.0863 -0.6351  0.6587
   76SLPC   H4Y 6893  -0.125   1.497   5.764  1.0466  0.8155  0.3523
   76SLPC   C35 6894  -0.184   1.659   5.640 -0.1187  0.2183 -0.2709
   76SLPC   H5X 6895  -0.080   1.692   5.662 -0.0380 -0.0687 -0.2073
   76SLPC   H5Y 6896  -0.230   1.760   5.643 -0.2191  0.1698 -0.1621
   76SLPC   C36 6897  -0.209   1.582   5.515 -0.0319  0.8470 -0.0433
   76SLPC   H6X 6898  -0.320   1.574   5.512 -0.0051  0.7185 -1.3392
   76SLPC   H6Y 6899  -0.192   1.474   5.535  1.3308  0.4689 -2.8680
   76SLPC   C37 6900  -0.141   1.625   5.389  0.1496 -0.0633  0.2404
   76SLPC   H7X 6901  -0.160   1.555   5.304  0.9991  0.7244 -0.6230
   76SLPC   H7Y 6902  -0.033   1.624   5.413  0.3053  1.7908 -0.1839
   76SLPC   C38 6903  -0.189   1.770   5.352  0.0477  0.1882  0.6184
   76SLPC   H8X 6904  -0.184   1.833   5.443  1.1933  2.1075 -0.7025
   76SLPC   H8Y 6905  -0.294   1.764   5.316  0.2960  0.5825 -0.2025
   76SLPC   C39 6906  -0.105   1.849   5.245 -0.1095 -0.2004  0.1649
   76SLPC   H9X 6907  -0.005   1.875   5.287 -1.2204  3.0751  1.1003
   76SLPC   H9Y 6908  -0.147   1.951   5.227 -0.8765 -0.4491  0.5347
   76SLPC  C310 6909  -0.076   1.777   5.120 -0.6297  0.3381 -0.3466
   76SLPC  H10X 6910  -0.049   1.670   5.127  2.3833  1.1061  1.1155
   76SLPC  H10Y 6911   0.009   1.832   5.076  0.5760 -1.6846 -0.6510
   76SLPC  C311 6912  -0.201   1.783   5.030 -0.0567  0.1452 -0.7905
   76SLPC  H11X 6913  -0.243   1.886   5.033  1.0000  0.6109 -1.3158
   76SLPC  H11Y 6914  -0.264   1.702   5.073 -0.2094 -0.9152 -2.9236
   76SLPC  C312 6915  -0.175   1.731   4.887  0.1080  0.5153  0.1767
   76SLPC  H12X 6916  -0.111   1.642   4.899 -0.7253 -0.5745 -2.7157
   76SLPC  H12Y 6917  -0.120   1.809   4.830  1.3018  2.8670  4.0811
   76SLPC  C313 6918  -0.302   1.695   4.815 -0.0844 -0.3661  0.0785
   76SLPC  H13X 6919  -0.380   1.767   4.849 -0.8033 -0.7579 -0.6967
   76SLPC  H13Y 6920  -0.342   1.598   4.850  0.1474 -0.5155 -0.0715
   76SLPC  C314 6921  -0.280   1.677   4.659 -0.1894  0.4469 -0.3997
   76SLPC  H14X 6922  -0.175   1.645   4.638 -0.6523 -0.4988 -1.3775
   76SLPC  H14Y 6923  -0.283   1.778   4.614  0.3387  0.1710 -1.0885
   76SLPC  C315 6924  -0.399   1.600   4.609  0.6470  0.1308  0.1193
   76SLPC  H15X 6925  -0.491   1.649   4.649 -0.2547 -2.4919  1.5568
   76SLPC  H15Y 6926  -0.399   1.493   4.638  2.1441 -0.1589 -0.8823
   76SLPC  C316 6927  -0.422   1.622   4.452  0.1884  0.0909  0.2455
   76SLPC  H16X 6928  -0.331   1.599   4.392 -0.4902 -2.2170  0.0171
   76SLPC  H16Y 6929  -0.439   1.732   4.451  1.0995  0.2663  1.5244
   76SLPC  C317 6930  -0.541   1.546   4.402  0.0577 -0.0558 -0.0803
   76SLPC  H17X 6931  -0.631   1.612   4.405 -0.1708 -0.3089 -1.0730
   76SLPC  H17Y 6932  -0.550   1.451   4.459  0.8092 -0.0334  0.0801
   76SLPC  C318 6933  -0.520   1.505   4.251 -0.4852  0.5797  0.5311
   76SLPC  H18X 6934  -0.421   1.456   4.235 -1.4802 -1.5710  0.6760
   76SLPC  H18Y 6935  -0.527   1.604   4.201 -2.6949 -1.2946 -3.2362
   76SLPC  H18Z 6936  -0.597   1.440   4.206  1.0142 -2.1089  1.5677
   77SLPC     N 6937   1.666   1.045   7.228  0.3654 -0.6508 -0.7384
   77SLPC   C13 6938   1.736   1.159   7.310 -0.4844 -0.1843  0.6643
   77SLPC  H13A 6939   1.688   1.252   7.284  0.0751  0.1000  0.6287
   77SLPC  H13B 6940   1.727   1.156   7.417 -0.6579  2.2288  0.7802
   77SLPC  H13C 6941   1.839   1.160   7.278 -0.4631 -2.3839  0.5267
   77SLPC   C14 6942   1.527   1.035   7.288 -0.3520 -0.1395 -0.1425
   77SLPC  H14A 6943   1.535   1.042   7.395  1.0492 -0.1166 -0.2282
   77SLPC  H14B 6944   1.469   1.119   7.250 -0.2235 -1.1691 -2.8924
   77SLPC  H14C 6945   1.476   0.942   7.268 -0.3785  0.2383 -2.0313
   77SLPC   C15 6946   1.727   0.915   7.269 -0.1525  0.0320 -0.1084
   77SLPC  H15A 6947   1.674   0.827   7.235  1.2107  0.2472 -3.1519
   77SLPC  H15B 6948   1.826   0.914   7.225 -0.0299  0.3318  0.1587
   77SLPC  H15C 6949   1.734   0.903   7.376 -0.5834 -2.2568 -0.2820
   77SLPC   C12 6950   1.659   1.058   7.079 -0.0087  0.1048 -0.1359
   77SLPC  H12A 6951   1.608   1.149   7.050  0.8284  0.3886 -0.7586
   77SLPC  H12B 6952   1.611   0.970   7.037  1.8350 -0.2827 -1.5894
   77SLPC   C11 6953   1.795   1.079   6.998  0.8229 -0.4420 -0.1696
   77SLPC  H11A 6954   1.768   1.070   6.891 -0.7366  0.7606  0.0758
   77SLPC  H11B 6955   1.865   0.997   7.021 -1.0117 -1.9644  0.2728
   77SLPC     P 6956   2.005   1.227   7.031  0.1200  0.2602  0.0216
   77SLPC   O13 6957   2.019   1.355   7.105  0.3894  0.2314  0.0695
   77SLPC   O14 6958   2.064   1.099   7.091 -0.1058 -0.1768 -0.0730
   77SLPC   O12 6959   1.847   1.208   7.024  0.0895 -0.0731  0.1479
   77SLPC   O11 6960   2.065   1.240   6.885  0.1444  0.0579 -0.1427
   77SLPC    C1 6961   1.988   1.267   6.766  0.0355 -0.3196 -0.4360
   77SLPC    HA 6962   1.882   1.235   6.764 -0.3390  0.8180  0.0654
   77SLPC    HB 6963   1.985   1.377   6.751  1.0141 -0.1669  0.3554
   77SLPC    C2 6964   2.066   1.220   6.639 -0.1302  0.1614 -0.3873
   77SLPC    HS 6965   2.087   1.111   6.638  0.0161  0.1720 -2.3019
   77SLPC   O21 6966   2.177   1.305   6.623 -0.0896 -0.1412 -0.6298
   77SLPC   C21 6967   2.267   1.264   6.537 -0.3045  0.4218 -0.2421
   77SLPC   O22 6968   2.282   1.150   6.495  0.2492  0.7159  0.3781
   77SLPC   C22 6969   2.368   1.373   6.491 -0.1746 -0.6646  0.2414
   77SLPC   H2R 6970   2.320   1.473   6.497 -1.9435 -1.5588  1.8952
   77SLPC   H2S 6971   2.455   1.364   6.560 -0.5726  0.6720  0.9459
   77SLPC    C3 6972   1.978   1.243   6.514 -0.1879  0.8781  0.3576
   77SLPC    HX 6973   1.965   1.352   6.503  1.5956  1.1744  0.8326
   77SLPC    HY 6974   1.884   1.191   6.542  0.1827 -0.1102 -0.1625
   77SLPC   O31 6975   2.031   1.190   6.393  0.0456  0.1536  0.4701
   77SLPC   C31 6976   1.999   1.071   6.354 -0.0821 -0.7978 -0.8815
   77SLPC   O32 6977   1.927   0.992   6.409 -0.1317  0.2559  0.2658
   77SLPC   C32 6978   2.077   1.041   6.227 -0.1239 -0.1454 -0.3034
   77SLPC   H2X 6979   2.143   0.959   6.262 -2.7876 -2.2492  0.1060
   77SLPC   H2Y 6980   2.127   1.134   6.190  0.2464 -0.0300  0.4475
   77SLPC   C23 6981   2.427   1.351   6.344 -0.1299  0.3545  0.4440
   77SLPC   H3R 6982   2.470   1.249   6.339 -2.2953 -0.7358  2.2224
   77SLPC   H3S 6983   2.518   1.412   6.325  0.1031 -0.1490 -0.0908
   77SLPC   C24 6984   2.334   1.386   6.224 -0.2552  0.2830  0.4356
   77SLPC   H4R 6985   2.315   1.496   6.228 -1.3923  0.1592 -0.8846
   77SLPC   H4S 6986   2.238   1.331   6.233  0.9831 -2.6806 -2.4671
   77SLPC   C25 6987   2.392   1.348   6.090  0.1474  0.2999 -0.0541
   77SLPC   H5R 6988   2.436   1.246   6.097  1.6040  0.8633 -0.6723
   77SLPC   H5S 6989   2.469   1.419   6.054  0.5877 -1.0440 -1.9669
   77SLPC   C26 6990   2.287   1.352   5.982 -0.0378 -0.1498 -0.2545
   77SLPC   H6R 6991   2.250   1.457   5.976  0.6508  0.0445 -1.8407
   77SLPC   H6S 6992   2.195   1.296   6.006 -0.4710 -0.0647 -1.6112
   77SLPC   C27 6993   2.333   1.308   5.839  0.2409  0.3272  0.2638
   77SLPC   H7R 6994   2.435   1.353   5.830  0.3141 -0.0204 -0.7661
   77SLPC   H7S 6995   2.282   1.368   5.762  3.2362  2.7954  0.0274
   77SLPC   C28 6996   2.321   1.157   5.827  0.2408  0.4047 -1.0410
   77SLPC   H8R 6997   2.214   1.129   5.821  0.2068 -0.1762  1.2287
   77SLPC   H8S 6998   2.333   1.104   5.924 -2.8282  2.0342  0.3844
   77SLPC   C29 6999   2.416   1.097   5.730  0.3852 -0.9250 -0.3507
   77SLPC   H9R 7000   2.506   1.069   5.786 -0.0598 -0.8489  0.4271
   77SLPC  C210 7001   2.406   1.100   5.597 -0.0986  0.5135  0.2329
   77SLPC  H10R 7002   2.496   1.071   5.541 -0.1856  1.5871 -0.4826
   77SLPC  C211 7003   2.285   1.142   5.523  0.1515  0.1319  0.2873
   77SLPC  H11R 7004   2.286   1.252   5.512  0.1254 -0.0564 -1.9707
   77SLPC  H11S 7005   2.198   1.114   5.587  1.0157 -0.4267  1.2486
   77SLPC  C212 7006   2.269   1.068   5.393  0.4625  0.3337 -0.1503
   77SLPC  H12R 7007   2.208   0.978   5.411 -0.7691  1.0547 -0.5520
   77SLPC  C213 7008   2.275   1.106   5.266 -0.0416  0.0359  0.6754
   77SLPC  H13R 7009   2.254   1.035   5.185 -0.9355  1.3980 -0.3412
   77SLPC  C214 7010   2.335   1.241   5.230 -0.1658  0.5862  0.2011
   77SLPC  H14R 7011   2.341   1.310   5.317  0.8859  0.5213  0.1906
   77SLPC  H14S 7012   2.267   1.281   5.152 -2.1908 -0.0016  1.5814
   77SLPC  C215 7013   2.474   1.232   5.162 -0.4498  1.2231 -0.6419
   77SLPC  H15R 7014   2.490   1.142   5.099 -0.5159  1.6485 -1.2855
   77SLPC  H15S 7015   2.552   1.225   5.240  1.5102 -0.9298 -2.6194
   77SLPC  C216 7016   2.506   1.355   5.069  0.1869  0.0237 -0.5092
   77SLPC  H16R 7017   2.448   1.333   4.976  0.0605  0.7345 -0.6086
   77SLPC  H16S 7018   2.615   1.352   5.051  0.5284  2.4451  0.7362
   77SLPC  C217 7019   2.485   1.494   5.126  0.3250 -0.9098 -0.3887
   77SLPC  H17R 7020   2.375   1.507   5.136  0.4325 -0.7806  0.7511
   77SLPC  H17S 7021   2.516   1.571   5.053  0.8824 -0.2404  0.5330
   77SLPC  C218 7022   2.550   1.516   5.263  1.0156  0.4840 -0.2518
   77SLPC  H18R 7023   2.657   1.486   5.264  1.2896  1.3442  1.8358
   77SLPC  H18S 7024   2.494   1.457   5.338 -0.3679  1.7266 -0.2744
   77SLPC  H18T 7025   2.534   1.618   5.305  3.1270  0.9637 -0.4776
   77SLPC   C33 7026   1.992   0.972   6.115 -0.6503  0.6373  0.0909
   77SLPC   H3X 7027   1.938   1.044   6.050  0.3248  0.7732 -0.5929
   77SLPC   H3Y 7028   1.917   0.912   6.171 -0.9412  1.9287  1.1377
   77SLPC   C34 7029   2.081   0.873   6.027 -0.3791 -0.0049  0.2080
   77SLPC   H4X 7030   2.107   0.790   6.096 -0.5162 -0.0174  0.2436
   77SLPC   H4Y 7031   2.161   0.937   5.984  0.1678 -2.2692 -2.4164
   77SLPC   C35 7032   1.989   0.809   5.919 -0.5383 -0.3225 -0.5838
   77SLPC   H5X 7033   1.926   0.885   5.868  0.8319  0.5295 -1.0784
   77SLPC   H5Y 7034   1.913   0.738   5.957 -1.0048  0.7201  0.4754
   77SLPC   C36 7035   2.064   0.729   5.814 -0.0200  0.1837  0.3142
   77SLPC   H6X 7036   2.130   0.656   5.866  2.7271  1.6457 -0.9212
   77SLPC   H6Y 7037   2.141   0.797   5.773  0.6326 -0.9366 -0.3632
   77SLPC   C37 7038   1.979   0.665   5.711 -0.5768  0.5948  0.6979
   77SLPC   H7X 7039   1.912   0.748   5.681 -2.3011 -0.7492  0.6413
   77SLPC   H7Y 7040   1.931   0.567   5.731 -0.6167 -0.0528 -2.1164
   77SLPC   C38 7041   2.077   0.626   5.588  0.7766  0.3639  0.3924
   77SLPC   H8X 7042   2.124   0.531   5.621 -1.1005 -0.8251 -0.2474
   77SLPC   H8Y 7043   2.152   0.707   5.571 -2.7987  3.7519 -0.7366
   77SLPC   C39 7044   1.990   0.594   5.465  0.4892 -0.2445  1.1386
   77SLPC   H9X 7045   1.902   0.537   5.501  1.4429 -1.3906  1.7237
   77SLPC   H9Y 7046   2.046   0.523   5.401 -0.7610 -1.7697  1.6696
   77SLPC  C310 7047   1.947   0.725   5.401 -0.1524  0.7412 -0.3353
   77SLPC  H10X 7048   2.036   0.788   5.377 -1.1017  2.3904  0.3082
   77SLPC  H10Y 7049   1.887   0.783   5.473  0.7919  1.3610 -0.0239
   77SLPC  C311 7050   1.869   0.693   5.271 -0.3214  0.3024 -0.4940
   77SLPC  H11X 7051   1.781   0.627   5.290  0.4308 -0.7613 -0.6305
   77SLPC  H11Y 7052   1.934   0.642   5.197  0.7938  2.5416 -1.1539
   77SLPC  C312 7053   1.839   0.829   5.205 -0.1683  1.0059  0.1791
   77SLPC  H12X 7054   1.933   0.878   5.174 -0.6319  3.1880  2.0137
   77SLPC  H12Y 7055   1.797   0.897   5.282 -2.3999 -0.4279  0.3355
   77SLPC  C313 7056   1.741   0.815   5.088  0.2498 -0.0676  0.5354
   77SLPC  H13X 7057   1.652   0.789   5.150 -0.8258  2.0852 -0.0156
   77SLPC  H13Y 7058   1.766   0.731   5.020  0.6415  0.4985 -0.0285
   77SLPC  C314 7059   1.713   0.939   4.999  0.6918 -0.4767 -0.3056
   77SLPC  H14X 7060   1.659   0.907   4.907  1.4510 -0.6662 -0.6926
   77SLPC  H14Y 7061   1.812   0.971   4.960  1.0841  0.0722  1.0769
   77SLPC  C315 7062   1.639   1.053   5.077  0.0827 -0.4835  0.6147
   77SLPC  H15X 7063   1.688   1.102   5.164  2.3450  1.2076 -1.4774
   77SLPC  H15Y 7064   1.545   1.012   5.120 -0.0540 -0.5396  0.2689
   77SLPC  C316 7065   1.605   1.169   4.980 -0.0532 -0.4819 -0.0491
   77SLPC  H16X 7066   1.560   1.124   4.889 -0.9849  0.1721  0.0648
   77SLPC  H16Y 7067   1.698   1.224   4.954 -0.2995 -1.3680 -3.2483
   77SLPC  C317 7068   1.501   1.266   5.038 -0.3237 -0.2220 -0.0532
   77SLPC  H17X 7069   1.408   1.218   5.077 -2.0592  2.9136  0.0174
   77SLPC  H17Y 7070   1.470   1.332   4.955  0.8335  1.7359  1.0107
   77SLPC  C318 7071   1.557   1.363   5.138  0.2188  0.3350  0.1227
   77SLPC  H18X 7072   1.472   1.426   5.170 -2.6291 -3.1066 -0.0143
   77SLPC  H18Y 7073   1.633   1.428   5.091  1.0808  3.3140  4.9739
   77SLPC  H18Z 7074   1.604   1.307   5.222  0.9508  0.0931 -0.4325
   78SLPC     N 7075   4.216   5.061   6.833 -0.6385 -0.4287  0.5678
   78SLPC   C13 7076   4.137   5.175   6.770  0.0739  0.3020 -0.7628
   78SLPC  H13A 7077   4.182   5.216   6.681 -1.2308  1.7354 -0.7995
   78SLPC  H13B 7078   4.042   5.135   6.738 -0.8974  0.2732  1.9279
   78SLPC  H13C 7079   4.136   5.254   6.843  1.3434 -1.2278  1.0332
   78SLPC   C14 7080   4.152   5.017   6.962  0.0509 -0.0206 -0.4494
   78SLPC  H14A 7081   4.052   4.982   6.944 -0.5023 -0.6261  3.0650
   78SLPC  H14B 7082   4.194   4.930   7.011 -1.4785  1.1264  3.2028
   78SLPC  H14C 7083   4.152   5.093   7.038 -0.9786 -0.9525  0.5122
   78SLPC   C15 7084   4.358   5.098   6.863  0.2098 -1.1069 -0.1173
   78SLPC  H15A 7085   4.350   5.204   6.883 -1.9378 -0.9072 -1.7456
   78SLPC  H15B 7086   4.389   5.034   6.944  1.6197 -0.8523 -0.4310
   78SLPC  H15C 7087   4.422   5.079   6.778  2.7132 -1.2599  1.6982
   78SLPC   C12 7088   4.226   4.938   6.741  0.2319  0.8314  0.3033
   78SLPC  H12A 7089   4.122   4.907   6.744 -0.7142  3.7112  0.5034
   78SLPC  H12B 7090   4.290   4.864   6.787 -0.1070 -1.6703 -2.8537
   78SLPC   C11 7091   4.266   4.954   6.593  0.2865 -0.4089 -0.1226
   78SLPC  H11A 7092   4.370   4.993   6.586 -0.2221  0.8404 -1.0789
   78SLPC  H11B 7093   4.213   5.040   6.548  2.8267  1.2957 -0.0435
   78SLPC     P 7094   4.114   4.803   6.433 -0.5820 -0.3239  0.1176
   78SLPC   O13 7095   4.067   4.672   6.483 -0.7087  0.1124 -0.0981
   78SLPC   O14 7096   4.020   4.918   6.436 -0.0851 -0.4672 -0.1142
   78SLPC   O12 7097   4.248   4.840   6.514  0.2836  0.1998  0.4504
   78SLPC   O11 7098   4.166   4.790   6.286 -0.2598 -0.4426  0.4443
   78SLPC    C1 7099   4.230   4.897   6.217 -0.9173  0.0090  0.1131
   78SLPC    HA 7100   4.324   4.934   6.264 -0.1875 -3.3820  1.6448
   78SLPC    HB 7101   4.267   4.855   6.121 -0.0078  1.3511 -0.1439
   78SLPC    C2 7102   4.147   5.019   6.168 -0.0580 -0.0870  0.3315
   78SLPC    HS 7103   4.125   5.086   6.254 -2.3975 -0.4479  0.0622
   78SLPC   O21 7104   4.024   4.980   6.106  0.0783 -0.0023  0.6496
   78SLPC   C21 7105   3.929   5.066   6.110  0.7088  0.0293 -0.3453
   78SLPC   O22 7106   3.932   5.173   6.172 -0.1874 -0.0371  0.0178
   78SLPC   C22 7107   3.806   5.024   6.025 -0.8341 -0.6645 -0.0952
   78SLPC   H2R 7108   3.835   4.930   5.973  1.1386 -1.1589  1.7362
   78SLPC   H2S 7109   3.728   5.000   6.101  0.4651  0.5911  1.7199
   78SLPC    C3 7110   4.229   5.103   6.060  0.3680  0.2927  0.0403
   78SLPC    HX 7111   4.242   5.029   5.978 -0.4947 -0.4413  0.5583
   78SLPC    HY 7112   4.335   5.128   6.080  0.3588  0.4434 -0.0916
   78SLPC   O31 7113   4.162   5.217   6.003 -0.4057  0.4716  0.0954
   78SLPC   C31 7114   4.152   5.326   6.082  0.9531  0.0666 -0.0377
   78SLPC   O32 7115   4.199   5.333   6.194  0.1986  0.2678 -0.1922
   78SLPC   C32 7116   4.076   5.438   6.009  0.3435 -0.3706  1.3572
   78SLPC   H2X 7117   4.097   5.534   6.061  1.3088  0.0734  0.1758
   78SLPC   H2Y 7118   3.967   5.415   6.011  0.4424 -0.9538  0.4889
   78SLPC   C23 7119   3.758   5.123   5.920  0.0042 -0.2556 -0.4989
   78SLPC   H3R 7120   3.782   5.230   5.942  0.0414  0.4344 -3.3955
   78SLPC   H3S 7121   3.649   5.117   5.900 -0.1296  0.5780 -0.0836
   78SLPC   C24 7122   3.824   5.092   5.781 -0.7198  0.0228 -0.2201
   78SLPC   H4R 7123   3.815   4.984   5.756  0.4774 -0.3048  0.7130
   78SLPC   H4S 7124   3.931   5.116   5.797 -0.9051  1.2431 -0.6946
   78SLPC   C25 7125   3.775   5.184   5.677 -0.3019 -0.1977 -0.3638
   78SLPC   H5R 7126   3.751   5.284   5.721 -2.1628 -0.3424 -0.9578
   78SLPC   H5S 7127   3.682   5.141   5.634  0.0143 -1.5391  0.2494
   78SLPC   C26 7128   3.885   5.199   5.563  0.3988 -0.8657 -0.2156
   78SLPC   H6R 7129   3.984   5.194   5.614  1.1200 -1.8646 -1.6448
   78SLPC   H6S 7130   3.861   5.294   5.511 -0.2429 -1.2165 -0.5673
   78SLPC   C27 7131   3.879   5.098   5.446  0.5392  0.4971 -0.5658
   78SLPC   H7R 7132   3.790   5.131   5.390 -0.0478  0.6898  0.4642
   78SLPC   H7S 7133   3.859   5.002   5.498 -0.5674  1.2521  0.4426
   78SLPC   C28 7134   4.012   5.114   5.368 -0.1005  0.2492 -0.5376
   78SLPC   H8R 7135   4.106   5.097   5.425  0.3342  0.0015 -1.3184
   78SLPC   H8S 7136   4.026   5.220   5.337  1.1327  0.0002 -0.8712
   78SLPC   C29 7137   4.008   5.015   5.261 -0.3281  0.4378  0.2244
   78SLPC   H9R 7138   4.069   4.926   5.283 -1.0003 -0.6649 -2.1057
   78SLPC  C210 7139   3.934   5.019   5.154  0.3924 -0.2625  0.0805
   78SLPC  H10R 7140   3.918   4.928   5.094  0.3626  1.3788 -2.5384
   78SLPC  C211 7141   3.843   5.126   5.109 -0.1582 -0.1648 -0.7087
   78SLPC  H11R 7142   3.798   5.189   5.189 -0.9740  1.2764 -2.2396
   78SLPC  H11S 7143   3.753   5.072   5.075 -0.3801 -0.6481  0.5968
   78SLPC  C212 7144   3.899   5.210   5.000  0.2840 -0.8079 -0.4429
   78SLPC  H12R 7145   4.009   5.217   5.010  0.1575 -0.2950  0.7039
   78SLPC  C213 7146   3.833   5.282   4.903  0.6446 -0.1189  0.0237
   78SLPC  H13R 7147   3.894   5.328   4.824 -1.9200  0.1339 -1.9459
   78SLPC  C214 7148   3.680   5.278   4.877 -0.0806 -0.5713 -0.0609
   78SLPC  H14R 7149   3.646   5.376   4.836  1.1901 -1.3278 -3.2920
   78SLPC  H14S 7150   3.616   5.263   4.966 -0.1903 -2.1306 -0.3715
   78SLPC  C215 7151   3.646   5.172   4.774 -0.1298  0.3905  0.4406
   78SLPC  H15R 7152   3.538   5.147   4.777 -0.1297 -0.6692 -3.4440
   78SLPC  H15S 7153   3.694   5.080   4.814 -0.7982  0.5536  1.6877
   78SLPC  C216 7154   3.682   5.210   4.639  0.0333 -0.4169  1.3384
   78SLPC  H16R 7155   3.790   5.191   4.621 -0.0652 -1.9224  2.1978
   78SLPC  H16S 7156   3.671   5.320   4.629 -0.2941 -0.6593 -1.9675
   78SLPC  C217 7157   3.587   5.143   4.537 -0.1954 -0.6385 -0.2932
   78SLPC  H17R 7158   3.587   5.032   4.544 -0.9940 -0.6168  0.2654
   78SLPC  H17S 7159   3.627   5.168   4.436  0.8285  1.6481  0.6121
   78SLPC  C218 7160   3.441   5.195   4.539  0.2437  0.1291 -0.2995
   78SLPC  H18R 7161   3.383   5.147   4.458  1.3822  0.0839 -1.1213
   78SLPC  H18S 7162   3.455   5.304   4.528  0.2245  0.2906  1.0634
   78SLPC  H18T 7163   3.392   5.181   4.638 -0.4347  1.5345 -0.4196
   78SLPC   C33 7164   4.125   5.463   5.870  0.2687 -0.0267  0.2087
   78SLPC   H3X 7165   4.134   5.366   5.816 -1.4085  0.0948 -0.3386
   78SLPC   H3Y 7166   4.211   5.533   5.865  1.4288 -1.2095  2.2009
   78SLPC   C34 7167   4.010   5.540   5.789 -0.3883 -0.4485  0.6682
   78SLPC   H4X 7168   3.989   5.630   5.851  1.2089 -0.3291  1.0795
   78SLPC   H4Y 7169   3.918   5.481   5.772 -1.5392  1.3606  0.3491
   78SLPC   C35 7170   4.060   5.593   5.651 -0.1141 -0.0443 -0.3573
   78SLPC   H5X 7171   4.102   5.509   5.590  0.0697 -0.3475  0.1849
   78SLPC   H5Y 7172   4.143   5.665   5.661 -0.3146 -0.1374  2.6317
   78SLPC   C36 7173   3.934   5.653   5.580  0.9306  0.4904 -0.3987
   78SLPC   H6X 7174   3.902   5.747   5.631  2.5972 -0.1555  2.0140
   78SLPC   H6Y 7175   3.859   5.573   5.596  2.7014 -0.8789  1.6278
   78SLPC   C37 7176   3.942   5.673   5.436 -0.0449  0.0054  0.0608
   78SLPC   H7X 7177   4.024   5.742   5.407 -0.3283  0.1642 -0.3805
   78SLPC   H7Y 7178   3.849   5.710   5.386 -0.0338 -1.0218 -0.7432
   78SLPC   C38 7179   3.957   5.546   5.358 -0.2901  0.9461  0.5328
   78SLPC   H8X 7180   3.875   5.472   5.368 -0.9861  1.6078 -0.1133
   78SLPC   H8Y 7181   4.045   5.490   5.396 -0.0077  0.7944 -0.3134
   78SLPC   C39 7182   3.974   5.565   5.209 -0.3356 -0.2414  0.2846
   78SLPC   H9X 7183   4.016   5.468   5.175  1.2012  0.3719  0.3611
   78SLPC   H9Y 7184   4.055   5.638   5.189  0.6932 -0.9514  1.6591
   78SLPC  C310 7185   3.842   5.604   5.131  0.0587  0.3957 -0.0660
   78SLPC  H10X 7186   3.792   5.692   5.176 -0.4924  0.2248 -0.3450
   78SLPC  H10Y 7187   3.770   5.520   5.135  0.1121  0.3695  0.3552
   78SLPC  C311 7188   3.874   5.633   4.985 -0.7374 -0.5224 -0.0858
   78SLPC  H11X 7189   3.928   5.559   4.922 -0.1585  0.4020 -0.6953
   78SLPC  H11Y 7190   3.950   5.714   4.989 -1.3673  0.0447  1.2121
   78SLPC  C312 7191   3.753   5.674   4.906 -0.0019 -0.0317 -0.2169
   78SLPC  H12X 7192   3.696   5.757   4.954  0.7874  0.4516 -0.1088
   78SLPC  H12Y 7193   3.684   5.589   4.884 -1.0335  0.6797  0.1648
   78SLPC  C313 7194   3.801   5.725   4.762  0.1803  0.6205 -0.2336
   78SLPC  H13X 7195   3.846   5.639   4.708  0.0600  1.6290 -2.0112
   78SLPC  H13Y 7196   3.882   5.801   4.770  0.6901  0.0279  0.3609
   78SLPC  C314 7197   3.683   5.799   4.696  0.8939 -0.0203  0.3049
   78SLPC  H14X 7198   3.621   5.842   4.777 -0.2875 -1.2957  0.1082
   78SLPC  H14Y 7199   3.616   5.726   4.647  0.3836 -0.6203  1.8433
   78SLPC  C315 7200   3.727   5.922   4.603 -0.6617 -0.2259 -0.1806
   78SLPC  H15X 7201   3.800   5.986   4.657 -0.0490 -1.6886  0.7916
   78SLPC  H15Y 7202   3.634   5.978   4.582 -1.8519 -2.4432 -1.1481
   78SLPC  C316 7203   3.788   5.876   4.470  0.3247 -0.1421 -0.2813
   78SLPC  H16X 7204   3.726   5.803   4.412  2.2491  0.0274 -2.6867
   78SLPC  H16Y 7205   3.879   5.815   4.490  0.2072 -0.4490 -0.6693
   78SLPC  C317 7206   3.820   5.990   4.374 -0.6390  0.1881  0.6032
   78SLPC  H17X 7207   3.861   6.068   4.441 -0.2334 -1.3193  2.2119
   78SLPC  H17Y 7208   3.721   6.013   4.331 -0.3512 -1.1784 -0.8926
   78SLPC  C318 7209   3.924   5.949   4.264 -0.0424  0.1203 -0.0156
   78SLPC  H18X 7210   4.009   5.890   4.306 -0.4496 -1.1156 -0.8921
   78SLPC  H18Y 7211   3.969   6.030   4.203  0.6105 -1.0565 -1.1424
   78SLPC  H18Z 7212   3.870   5.888   4.189 -0.1603  1.6977 -1.2407
   79SLPC     N 7213   2.742   3.799   6.801 -0.1303 -0.6902 -0.3457
   79SLPC   C13 7214   2.825   3.782   6.931 -0.0697 -0.7382 -0.1593
   79SLPC  H13A 7215   2.930   3.768   6.908  1.0943  1.1457  3.2456
   79SLPC  H13B 7216   2.820   3.877   6.982  3.1599  0.0200 -0.9897
   79SLPC  H13C 7217   2.786   3.705   6.996 -0.9181  0.8329  1.2527
   79SLPC   C14 7218   2.801   3.917   6.730  0.3398 -0.5274  0.1110
   79SLPC  H14A 7219   2.756   3.937   6.634  1.3629  0.8765 -0.1022
   79SLPC  H14B 7220   2.791   4.000   6.797  0.5184  0.3506 -0.9311
   79SLPC  H14C 7221   2.909   3.909   6.720  0.4230  0.9576 -0.3871
   79SLPC   C15 7222   2.597   3.834   6.834 -0.3239  0.3616 -0.1287
   79SLPC  H15A 7223   2.588   3.928   6.886 -2.8016 -0.3587  0.8675
   79SLPC  H15B 7224   2.535   3.837   6.746  1.9046  0.3101 -1.7934
   79SLPC  H15C 7225   2.553   3.760   6.899  1.8653  0.3013  1.4312
   79SLPC   C12 7226   2.766   3.677   6.720  0.0379 -0.4958 -0.4451
   79SLPC  H12A 7227   2.740   3.593   6.783  1.3802 -0.5692  0.0278
   79SLPC  H12B 7228   2.871   3.665   6.700 -0.2695 -0.4850 -2.2190
   79SLPC   C11 7229   2.680   3.662   6.594  0.0771 -0.0563 -0.2238
   79SLPC  H11A 7230   2.714   3.571   6.540  0.1897  0.1796 -0.5554
   79SLPC  H11B 7231   2.691   3.750   6.527 -0.7720  1.2554  1.2920
   79SLPC     P 7232   2.513   3.485   6.690 -0.1460  0.1762 -0.0385
   79SLPC   O13 7233   2.634   3.440   6.762  0.4945  0.0085  0.4674
   79SLPC   O14 7234   2.385   3.485   6.763  0.0849  0.3343  0.0053
   79SLPC   O12 7235   2.545   3.628   6.629  0.2722 -0.2540  0.1730
   79SLPC   O11 7236   2.495   3.405   6.559  0.3150  0.6491 -0.1488
   79SLPC    C1 7237   2.453   3.467   6.435 -0.0459  0.2867  1.0648
   79SLPC    HA 7238   2.367   3.533   6.459  0.1601  0.1516  2.2353
   79SLPC    HB 7239   2.535   3.529   6.393 -0.1529 -1.8809 -2.7962
   79SLPC    C2 7240   2.421   3.364   6.324  0.1385  0.6239 -0.6130
   79SLPC    HS 7241   2.499   3.286   6.314 -0.0908  0.3702 -0.4447
   79SLPC   O21 7242   2.395   3.433   6.197 -0.0935 -0.2078  0.0889
   79SLPC   C21 7243   2.499   3.466   6.120  0.1393 -0.1881  0.7671
   79SLPC   O22 7244   2.619   3.452   6.142  0.0886  0.3553 -0.7299
   79SLPC   C22 7245   2.438   3.520   5.991 -0.1249 -0.1971  0.6333
   79SLPC   H2R 7246   2.361   3.595   6.020 -1.2268 -1.2136  0.3949
   79SLPC   H2S 7247   2.516   3.572   5.932 -0.0339  0.0108  0.9354
   79SLPC    C3 7248   2.292   3.290   6.358  0.1027 -0.2633  0.8655
   79SLPC    HX 7249   2.209   3.363   6.346  0.0440 -0.6293 -1.5083
   79SLPC    HY 7250   2.262   3.257   6.459 -0.5050 -0.8149  0.5102
   79SLPC   O31 7251   2.272   3.179   6.266  0.4485 -0.2787  0.5254
   79SLPC   C31 7252   2.149   3.132   6.265  0.4584  0.2144  0.4127
   79SLPC   O32 7253   2.063   3.161   6.347  0.7807 -0.2857  0.0862
   79SLPC   C32 7254   2.126   3.035   6.146  0.8433  0.7525 -0.8166
   79SLPC   H2X 7255   2.046   2.965   6.181 -0.3699  2.7300  0.6070
   79SLPC   H2Y 7256   2.219   2.985   6.113  0.8920  0.4474 -0.2285
   79SLPC   C23 7257   2.374   3.421   5.897 -0.9420 -0.1030 -0.8031
   79SLPC   H3R 7258   2.308   3.472   5.823 -1.5037 -1.0134 -0.9442
   79SLPC   H3S 7259   2.301   3.353   5.946 -1.2123  0.5921 -0.2211
   79SLPC   C24 7260   2.479   3.376   5.793  0.0530  0.2437  0.0749
   79SLPC   H4R 7261   2.563   3.340   5.855 -0.4210 -0.2119  0.4644
   79SLPC   H4S 7262   2.518   3.454   5.724  0.1446  0.0010 -0.1509
   79SLPC   C25 7263   2.455   3.250   5.714  0.7896  0.0493  0.1698
   79SLPC   H5R 7264   2.460   3.168   5.788  0.0947  0.0534  0.2236
   79SLPC   H5S 7265   2.530   3.223   5.637 -0.2112  0.1329 -0.8614
   79SLPC   C26 7266   2.316   3.236   5.654 -0.8203  0.5359  0.3627
   79SLPC   H6R 7267   2.296   3.330   5.598  2.2224  2.0108  1.4957
   79SLPC   H6S 7268   2.250   3.235   5.743  0.3562 -2.4242  1.3333
   79SLPC   C27 7269   2.303   3.106   5.570 -0.2186 -0.3285 -0.1082
   79SLPC   H7R 7270   2.296   3.017   5.635  1.6683 -0.4077  0.0361
   79SLPC   H7S 7271   2.389   3.089   5.501 -0.0280 -0.0323  0.0558
   79SLPC   C28 7272   2.173   3.109   5.490 -0.4702 -0.1244 -0.5181
   79SLPC   H8R 7273   2.096   3.118   5.570  1.2402 -1.1928  1.3359
   79SLPC   H8S 7274   2.157   3.008   5.447  0.4430  0.1097 -1.4314
   79SLPC   C29 7275   2.162   3.224   5.389  0.2543  0.0595 -0.3261
   79SLPC   H9R 7276   2.161   3.323   5.436 -0.5148 -0.4853  0.8489
   79SLPC  C210 7277   2.151   3.218   5.257  0.0084  0.5028 -0.0839
   79SLPC  H10R 7278   2.167   3.311   5.200 -0.5269  0.2911 -0.5878
   79SLPC  C211 7279   2.157   3.091   5.178  0.0165 -0.2386 -0.7883
   79SLPC  H11R 7280   2.095   3.105   5.087 -0.7851  0.4421 -0.1512
   79SLPC  H11S 7281   2.114   3.001   5.226 -2.0174  0.7157 -0.7466
   79SLPC  C212 7282   2.303   3.071   5.146  0.2384 -0.0983 -0.0960
   79SLPC  H12R 7283   2.366   3.059   5.235  0.4452 -0.4080 -0.2820
   79SLPC  C213 7284   2.360   3.047   5.032 -0.1553 -0.4191  0.0198
   79SLPC  H13R 7285   2.470   3.042   5.031 -0.1224 -0.2712 -2.0874
   79SLPC  C214 7286   2.294   3.053   4.896  0.7301  0.1253 -0.0810
   79SLPC  H14R 7287   2.186   3.079   4.899 -0.1425 -2.4172 -3.4653
   79SLPC  H14S 7288   2.297   2.946   4.867 -2.0858 -0.0354  0.0164
   79SLPC  C215 7289   2.365   3.138   4.792  0.1396 -0.1486 -0.3007
   79SLPC  H15R 7290   2.321   3.121   4.692 -0.5943 -0.8585  0.1264
   79SLPC  H15S 7291   2.472   3.109   4.789 -0.2525 -1.6374 -0.5842
   79SLPC  C216 7292   2.359   3.288   4.821 -0.3863  0.2907  0.0374
   79SLPC  H16R 7293   2.439   3.307   4.897 -0.3927  2.9352 -0.5058
   79SLPC  H16S 7294   2.262   3.306   4.872 -0.9380  1.4832 -1.3502
   79SLPC  C217 7295   2.368   3.381   4.703 -0.0868 -0.0535  0.4902
   79SLPC  H17R 7296   2.342   3.487   4.724 -0.2280  0.1234 -0.5366
   79SLPC  H17S 7297   2.278   3.346   4.648  1.3318 -0.8748 -1.4342
   79SLPC  C218 7298   2.488   3.352   4.608 -0.3757 -0.4811 -0.4766
   79SLPC  H18R 7299   2.483   3.419   4.519  0.6805  0.9006  0.4568
   79SLPC  H18S 7300   2.480   3.246   4.577 -0.6083 -0.1429 -1.6194
   79SLPC  H18T 7301   2.580   3.373   4.668 -0.3057  0.7968 -1.0017
   79SLPC   C33 7302   2.075   3.107   6.020  0.0743 -0.0996 -0.3973
   79SLPC   H3X 7303   2.157   3.181   6.009  1.2334 -1.3475 -0.3310
   79SLPC   H3Y 7304   1.980   3.160   6.043  0.7981  0.3511  1.8421
   79SLPC   C34 7305   2.064   3.018   5.899 -0.5090  0.0223 -0.5332
   79SLPC   H4X 7306   2.168   2.984   5.882 -1.1681 -1.1582 -2.5931
   79SLPC   H4Y 7307   2.059   3.086   5.811  1.7464  0.3844 -0.4299
   79SLPC   C35 7308   1.972   2.897   5.898  0.2031 -0.8012  0.4298
   79SLPC   H5X 7309   1.864   2.913   5.918  0.1178 -0.0358 -0.5619
   79SLPC   H5Y 7310   2.008   2.821   5.970 -2.1509 -0.7311  1.7937
   79SLPC   C36 7311   1.972   2.841   5.750 -0.8739  0.5082  0.0368
   79SLPC   H6X 7312   2.074   2.800   5.731 -1.8362 -1.8746 -0.2555
   79SLPC   H6Y 7313   1.953   2.919   5.673 -1.1498  0.9559  0.5534
   79SLPC   C37 7314   1.866   2.732   5.716 -0.8371 -0.3960  0.3806
   79SLPC   H7X 7315   1.764   2.772   5.732  0.7097  4.6301 -0.4995
   79SLPC   H7Y 7316   1.873   2.649   5.790  0.1116 -1.7111 -1.1205
   79SLPC   C38 7317   1.869   2.675   5.573  0.0163  0.5354  0.0573
   79SLPC   H8X 7318   1.803   2.587   5.557 -0.9164  0.9074  1.6106
   79SLPC   H8Y 7319   1.973   2.636   5.565  1.0174  3.1253 -0.3184
   79SLPC   C39 7320   1.826   2.777   5.460 -0.0569  0.6858 -0.2701
   79SLPC   H9X 7321   1.878   2.874   5.472  1.7995 -0.4819  2.0774
   79SLPC   H9Y 7322   1.716   2.790   5.462 -0.2345 -0.5725  1.4308
   79SLPC  C310 7323   1.882   2.726   5.333  0.1849  0.1767 -0.6170
   79SLPC  H10X 7324   1.836   2.628   5.307 -0.4393 -0.1779  1.6237
   79SLPC  H10Y 7325   1.993   2.724   5.337  0.2930  2.5244 -1.2089
   79SLPC  C311 7326   1.847   2.825   5.222 -0.1773 -0.2098  0.2037
   79SLPC  H11X 7327   1.885   2.929   5.232  2.5561 -1.1909  1.0161
   79SLPC  H11Y 7328   1.736   2.828   5.213 -0.1530  1.0671  0.1371
   79SLPC  C312 7329   1.911   2.776   5.088  0.2717 -0.1613 -0.7316
   79SLPC  H12X 7330   1.891   2.669   5.068 -0.8385  0.4928 -3.7133
   79SLPC  H12Y 7331   2.020   2.798   5.092  0.5543 -1.5818  0.4897
   79SLPC  C313 7332   1.854   2.850   4.971  0.3013  0.0171  0.3665
   79SLPC  H13X 7333   1.813   2.941   5.019  0.7893  0.7485 -0.5742
   79SLPC  H13Y 7334   1.770   2.788   4.934 -1.6759  2.7034  0.0724
   79SLPC  C314 7335   1.958   2.892   4.864 -0.3059 -0.1539 -0.4539
   79SLPC  H14X 7336   2.017   2.809   4.819 -0.1332 -1.1118  1.4412
   79SLPC  H14Y 7337   2.018   2.969   4.916 -0.1579  0.4211 -1.4448
   79SLPC  C315 7338   1.891   2.983   4.757  0.1727 -0.0433 -0.1163
   79SLPC  H15X 7339   1.852   3.070   4.814 -1.0822 -0.6277 -0.0561
   79SLPC  H15Y 7340   1.813   2.927   4.701  1.3083 -0.4397 -1.3828
   79SLPC  C316 7341   1.999   3.042   4.667 -0.0605  0.4204  0.3966
   79SLPC  H16X 7342   2.062   2.957   4.632  0.4726  1.2799 -0.8234
   79SLPC  H16Y 7343   2.070   3.101   4.729 -0.1333  0.5498  0.3591
   79SLPC  C317 7344   1.941   3.138   4.558  0.5696 -0.0173 -0.2532
   79SLPC  H17X 7345   1.886   3.088   4.475 -1.1685 -1.0344  1.4369
   79SLPC  H17Y 7346   2.028   3.187   4.509  0.6722 -0.2268 -0.2789
   79SLPC  C318 7347   1.849   3.250   4.597 -0.4971 -0.1654  0.1320
   79SLPC  H18X 7348   1.746   3.211   4.610 -0.9321  1.2861  1.4140
   79SLPC  H18Y 7349   1.832   3.334   4.526 -0.5288 -0.5457 -0.3184
   79SLPC  H18Z 7350   1.886   3.298   4.690 -0.0193  2.5985 -1.3720
   80SLPC     N 7351   1.943   1.796   6.863  0.0507  0.2406  0.2471
   80SLPC   C13 7352   1.807   1.749   6.891  0.8552  0.3242  0.2407
   80SLPC  H13A 7353   1.789   1.643   6.878 -0.1945  0.6095 -0.7483
   80SLPC  H13B 7354   1.766   1.782   6.985 -1.5646 -0.4581 -0.4771
   80SLPC  H13C 7355   1.747   1.803   6.819  1.7103 -0.8351 -1.4359
   80SLPC   C14 7356   2.036   1.758   6.972 -0.3509 -0.3355 -0.1216
   80SLPC  H14A 7357   2.132   1.806   6.960 -0.7889  0.5736 -0.0502
   80SLPC  H14B 7358   2.009   1.768   7.076  1.2153  0.2238  0.2593
   80SLPC  H14C 7359   2.051   1.652   6.958 -2.2692 -0.5765 -0.5881
   80SLPC   C15 7360   1.936   1.948   6.869  0.4466 -0.6481  0.3416
   80SLPC  H15A 7361   2.028   1.989   6.831 -0.2152 -0.1666 -0.7928
   80SLPC  H15B 7362   1.858   1.983   6.803  2.1932 -2.3089 -2.8231
   80SLPC  H15C 7363   1.920   1.992   6.967 -1.3702 -2.8400  1.1121
   80SLPC   C12 7364   1.984   1.745   6.728 -0.1684  0.0665 -0.7352
   80SLPC  H12A 7365   1.977   1.638   6.734 -2.0250  0.2111  0.5472
   80SLPC  H12B 7366   2.079   1.784   6.693 -1.3289  0.8107 -3.2895
   80SLPC   C11 7367   1.893   1.764   6.600  0.4287 -0.8020  0.9760
   80SLPC  H11A 7368   1.792   1.718   6.610 -0.0394 -0.3515 -1.1400
   80SLPC  H11B 7369   1.940   1.701   6.521 -1.0797 -0.4788 -0.2384
   80SLPC     P 7370   1.995   1.989   6.513  0.0361 -0.1780  0.2056
   80SLPC   O13 7371   1.998   2.107   6.602 -0.8306  0.0214  0.0716
   80SLPC   O14 7372   2.113   1.901   6.507  0.1017 -0.1583 -0.3104
   80SLPC   O12 7373   1.873   1.896   6.554 -0.1715 -0.1016  0.1591
   80SLPC   O11 7374   1.948   2.033   6.369  0.2070  0.0071  0.1919
   80SLPC    C1 7375   1.835   2.114   6.347  0.4333  0.3014  0.6605
   80SLPC    HA 7376   1.744   2.057   6.316 -0.4115  1.5072  0.8738
   80SLPC    HB 7377   1.805   2.171   6.438 -1.3027  0.1996  0.1926
   80SLPC    C2 7378   1.872   2.228   6.240 -0.2359  0.0507 -0.0471
   80SLPC    HS 7379   1.870   2.322   6.300  0.2518  0.6391 -0.9429
   80SLPC   O21 7380   1.767   2.233   6.144 -0.4670  0.4575 -0.7733
   80SLPC   C21 7381   1.746   2.351   6.085  0.6599  0.1979 -0.1473
   80SLPC   O22 7382   1.787   2.457   6.121  0.5428  0.4794 -0.5443
   80SLPC   C22 7383   1.655   2.323   5.968 -0.2543  0.7028  0.5572
   80SLPC   H2R 7384   1.708   2.246   5.907  0.2993  1.9738 -0.6158
   80SLPC   H2S 7385   1.556   2.288   6.006 -0.7776  0.8067 -0.6608
   80SLPC    C3 7386   2.016   2.198   6.173 -0.3542 -0.2059 -0.2319
   80SLPC    HX 7387   2.012   2.093   6.138  0.0687 -0.5887  0.7981
   80SLPC    HY 7388   2.094   2.204   6.252 -2.0436 -0.9432  1.5734
   80SLPC   O31 7389   2.048   2.282   6.056 -0.7307  0.1715  0.2796
   80SLPC   C31 7390   2.079   2.406   6.089 -0.4661 -0.7003 -1.0292
   80SLPC   O32 7391   2.094   2.447   6.205  0.1294 -0.1040  0.4283
   80SLPC   C32 7392   2.131   2.489   5.968  1.0645 -0.2731  0.0183
   80SLPC   H2X 7393   2.150   2.591   6.008 -0.5292  0.5448 -1.1782
   80SLPC   H2Y 7394   2.044   2.499   5.898  0.9371  0.6744  0.2972
   80SLPC   C23 7395   1.622   2.445   5.876  0.0864  1.0247 -0.1924
   80SLPC   H3R 7396   1.709   2.483   5.819  0.6374  0.8955  0.5571
   80SLPC   H3S 7397   1.583   2.523   5.944  0.4383  0.4126  0.7205
   80SLPC   C24 7398   1.527   2.396   5.767 -0.2873  0.6329  0.1918
   80SLPC   H4R 7399   1.438   2.346   5.812 -2.2394  1.8605 -2.0913
   80SLPC   H4S 7400   1.579   2.314   5.713  1.4497  2.1019 -0.4908
   80SLPC   C25 7401   1.480   2.498   5.664 -0.1965 -0.4405  1.5788
   80SLPC   H5R 7402   1.414   2.441   5.594 -0.7655  0.9543  0.9546
   80SLPC   H5S 7403   1.574   2.529   5.613 -0.4905 -2.4282 -0.3405
   80SLPC   C26 7404   1.393   2.608   5.715 -0.3303  0.2134 -0.5956
   80SLPC   H6R 7405   1.454   2.665   5.788 -0.3935  0.2432 -0.5663
   80SLPC   H6S 7406   1.308   2.561   5.769 -1.0117  0.2827 -1.5814
   80SLPC   C27 7407   1.348   2.715   5.606 -0.3231  0.0970 -0.1049
   80SLPC   H7R 7408   1.273   2.787   5.645 -1.2663 -0.3721 -1.0026
   80SLPC   H7S 7409   1.299   2.648   5.533 -2.0043  1.1180  0.0500
   80SLPC   C28 7410   1.469   2.792   5.543  0.5684  0.1975 -0.1943
   80SLPC   H8R 7411   1.530   2.718   5.488  0.4289 -1.4178  1.7117
   80SLPC   H8S 7412   1.533   2.828   5.626  0.1530  1.2235 -0.3073
   80SLPC   C29 7413   1.414   2.912   5.470 -0.5899  0.6361  0.8135
   80SLPC   H9R 7414   1.411   3.010   5.520 -1.6155  2.9353 -3.3084
   80SLPC  C210 7415   1.376   2.913   5.339  0.7678 -0.3561 -0.0433
   80SLPC  H10R 7416   1.330   3.008   5.306  1.8294  0.8756  1.8381
   80SLPC  C211 7417   1.367   2.791   5.255 -0.1990  0.7771  0.5460
   80SLPC  H11R 7418   1.274   2.738   5.285 -2.8202  4.1232 -0.9265
   80SLPC  H11S 7419   1.458   2.732   5.279 -1.3656 -0.4683  2.0542
   80SLPC  C212 7420   1.370   2.823   5.111 -0.3283 -0.5386  0.3247
   80SLPC  H12R 7421   1.471   2.823   5.068  0.2537 -0.1025  1.6341
   80SLPC  C213 7422   1.261   2.840   5.035  0.3097 -0.4227  0.3262
   80SLPC  H13R 7423   1.261   2.881   4.933 -1.1261 -0.2127  0.3870
   80SLPC  C214 7424   1.115   2.830   5.078  0.1446  0.6388 -0.4100
   80SLPC  H14R 7425   1.056   2.915   5.037  0.7457  0.6606 -1.2615
   80SLPC  H14S 7426   1.114   2.837   5.189  0.8288  1.4045 -0.4397
   80SLPC  C215 7427   1.049   2.700   5.036  0.0647 -0.2737 -0.6733
   80SLPC  H15R 7428   0.952   2.714   5.088  1.7982  0.1023  2.7789
   80SLPC  H15S 7429   1.103   2.617   5.085 -1.3343 -1.0740 -0.4420
   80SLPC  C216 7430   1.017   2.673   4.888 -0.4059  0.3468 -0.3850
   80SLPC  H16R 7431   1.107   2.676   4.824 -1.4604  3.4374 -1.8929
   80SLPC  H16S 7432   0.949   2.753   4.853 -2.4351 -0.3675  1.6026
   80SLPC  C217 7433   0.942   2.538   4.876 -0.3935 -0.2890  0.4604
   80SLPC  H17R 7434   0.864   2.518   4.952 -1.4655 -0.0027 -0.5329
   80SLPC  H17S 7435   1.006   2.451   4.904 -0.1964  0.1646  1.4554
   80SLPC  C218 7436   0.875   2.508   4.740 -0.0248 -0.0512 -0.6366
   80SLPC  H18R 7437   0.929   2.467   4.652 -1.0118 -0.6501 -0.9791
   80SLPC  H18S 7438   0.816   2.597   4.707 -1.3159 -0.9639 -0.8528
   80SLPC  H18T 7439   0.794   2.433   4.749 -0.9748  1.1303  1.4071
   80SLPC   C33 7440   2.252   2.426   5.909  0.0270 -0.1102 -0.1215
   80SLPC   H3X 7441   2.234   2.326   5.864 -1.3672  0.0062  0.1370
   80SLPC   H3Y 7442   2.316   2.407   5.998 -2.6595 -0.2710  1.8998
   80SLPC   C34 7443   2.317   2.503   5.795  0.2356  0.9159 -0.1352
   80SLPC   H4X 7444   2.418   2.458   5.786  0.9122  1.9094  1.9504
   80SLPC   H4Y 7445   2.332   2.611   5.817 -1.1096  1.2108 -0.5452
   80SLPC   C35 7446   2.228   2.490   5.670 -0.0239  0.1971  0.3516
   80SLPC   H5X 7447   2.122   2.514   5.697 -1.1182 -3.0191 -0.6002
   80SLPC   H5Y 7448   2.219   2.386   5.632  0.9351  0.3297 -0.2423
   80SLPC   C36 7449   2.285   2.578   5.559  0.3814  0.5218  0.8303
   80SLPC   H6X 7450   2.393   2.552   5.556  0.4777  1.0000 -1.2562
   80SLPC   H6Y 7451   2.277   2.685   5.588 -2.7520  0.1428  1.7518
   80SLPC   C37 7452   2.219   2.540   5.426 -0.0766 -0.3116 -0.4440
   80SLPC   H7X 7453   2.110   2.558   5.437  0.3669  1.6498  1.5299
   80SLPC   H7Y 7454   2.234   2.432   5.405 -0.1682 -0.5372  0.6027
   80SLPC   C38 7455   2.280   2.617   5.297 -0.1161  0.5981 -0.4714
   80SLPC   H8X 7456   2.390   2.612   5.311 -0.4054 -3.1864  1.6390
   80SLPC   H8Y 7457   2.271   2.726   5.321  0.7906  0.6701 -0.4277
   80SLPC   C39 7458   2.237   2.571   5.152  0.0399  0.6312 -0.6826
   80SLPC   H9X 7459   2.129   2.597   5.142 -0.5936  0.4811  3.6547
   80SLPC   H9Y 7460   2.251   2.461   5.154 -2.7796  0.1972  0.0557
   80SLPC  C310 7461   2.320   2.638   5.042  0.3456  0.0032  0.3453
   80SLPC  H10X 7462   2.420   2.671   5.076 -0.4047  1.1355  1.5652
   80SLPC  H10Y 7463   2.272   2.735   5.016 -0.4067  0.0421  1.7981
   80SLPC  C311 7464   2.314   2.557   4.912  0.3084 -0.8785  0.7341
   80SLPC  H11X 7465   2.211   2.519   4.895  0.0247  0.7978 -1.7312
   80SLPC  H11Y 7466   2.383   2.471   4.925 -0.0833 -1.3337 -0.1634
   80SLPC  C312 7467   2.349   2.654   4.791  0.5810  0.3711 -0.0655
   80SLPC  H12X 7468   2.455   2.687   4.792  0.7674 -0.1671 -0.8678
   80SLPC  H12Y 7469   2.279   2.740   4.791 -1.2189 -1.0246 -0.2467
   80SLPC  C313 7470   2.336   2.586   4.654 -0.4095  0.2130 -0.1561
   80SLPC  H13X 7471   2.230   2.553   4.658 -0.2731 -0.2020  0.1187
   80SLPC  H13Y 7472   2.394   2.492   4.638 -1.2705 -0.1739 -1.1155
   80SLPC  C314 7473   2.358   2.678   4.536 -0.3455 -0.0096 -0.5371
   80SLPC  H14X 7474   2.360   2.619   4.442  1.6344 -0.0173 -0.5250
   80SLPC  H14Y 7475   2.462   2.715   4.540 -0.1458 -0.5304 -0.8006
   80SLPC  C315 7476   2.259   2.788   4.520 -0.3581  0.4439 -0.2512
   80SLPC  H15X 7477   2.289   2.856   4.604 -0.4999 -1.1538  1.1424
   80SLPC  H15Y 7478   2.157   2.748   4.540  0.0163 -0.7913 -0.7863
   80SLPC  C316 7479   2.265   2.855   4.387 -0.3157 -0.8761  0.0590
   80SLPC  H16X 7480   2.359   2.845   4.328  0.4888 -1.0718  1.3571
   80SLPC  H16Y 7481   2.244   2.962   4.405  2.4738 -0.2404 -0.0210
   80SLPC  C317 7482   2.155   2.813   4.293  0.7370  0.2591  0.0752
   80SLPC  H17X 7483   2.054   2.846   4.326  0.0415  0.0399 -1.7062
   80SLPC  H17Y 7484   2.151   2.702   4.287  0.3242  0.3044 -0.7376
   80SLPC  C318 7485   2.183   2.876   4.158 -0.2860  0.3268 -0.4556
   80SLPC  H18X 7486   2.181   2.987   4.155 -0.6210  0.3094 -1.2512
   80SLPC  H18Y 7487   2.112   2.841   4.080 -0.7194 -2.5078  1.1137
   80SLPC  H18Z 7488   2.282   2.845   4.117  0.6420  0.1002  1.8277
   81SLPC     N 7489   3.435   0.237   1.977 -0.6003  0.5136  0.2060
   81SLPC   C13 7490   3.349   0.158   1.880 -0.1598 -0.5747  0.3194
   81SLPC  H13A 7491   3.403   0.137   1.789  1.4842 -0.1364  1.1454
   81SLPC  H13B 7492   3.324   0.060   1.920  3.6188 -1.3322  1.2274
   81SLPC  H13C 7493   3.259   0.215   1.861  0.1458 -0.7691 -1.9680
   81SLPC   C14 7494   3.487   0.361   1.912  0.8259  1.0136  0.9903
   81SLPC  H14A 7495   3.408   0.428   1.883  1.1359  1.3477  0.9228
   81SLPC  H14B 7496   3.556   0.405   1.981  0.1075  2.0749  1.0510
   81SLPC  H14C 7497   3.532   0.334   1.818 -5.1507  1.5311 -2.5658
   81SLPC   C15 7498   3.555   0.149   2.004  0.3544  0.0549  0.4153
   81SLPC  H15A 7499   3.525   0.072   2.073  1.4486 -0.0694  0.7660
   81SLPC  H15B 7500   3.595   0.104   1.914  2.2691 -1.0602  1.7589
   81SLPC  H15C 7501   3.629   0.204   2.060 -0.9261  0.6479  1.5810
   81SLPC   C12 7502   3.367   0.260   2.111 -0.3788 -0.3111 -0.0231
   81SLPC  H12A 7503   3.274   0.313   2.097 -0.3633  0.0785  1.2735
   81SLPC  H12B 7504   3.427   0.330   2.167 -2.0047  0.5177  0.7311
   81SLPC   C11 7505   3.327   0.147   2.212  0.7551  0.6725  0.5830
   81SLPC  H11A 7506   3.296   0.202   2.304  2.5954  0.6250  1.2757
   81SLPC  H11B 7507   3.421   0.098   2.245  0.0983 -0.1480  1.2904
   81SLPC     P 7508   3.254  -0.100   2.143 -0.0107  0.2058 -0.0121
   81SLPC   O13 7509   3.122  -0.154   2.113  0.3783  0.8960 -0.2420
   81SLPC   O14 7510   3.374  -0.135   2.062  0.3594 -0.1679  0.1502
   81SLPC   O12 7511   3.234   0.057   2.156  0.3767  0.1871 -0.2149
   81SLPC   O11 7512   3.297  -0.138   2.288 -0.2590  0.1067 -0.2331
   81SLPC    C1 7513   3.192  -0.132   2.386 -0.1729 -0.1224 -0.0744
   81SLPC    HA 7514   3.139  -0.035   2.374  1.2700  0.5958 -1.0130
   81SLPC    HB 7515   3.103  -0.196   2.367 -2.2032  2.7054 -0.7358
   81SLPC    C2 7516   3.254  -0.122   2.538  0.3245  0.0630  0.7545
   81SLPC    HS 7517   3.173  -0.082   2.604  0.6060 -1.0577  1.8306
   81SLPC   O21 7518   3.378  -0.051   2.546 -0.1352 -0.5610  0.0479
   81SLPC   C21 7519   3.367   0.079   2.539  0.1477  0.7639 -0.3334
   81SLPC   O22 7520   3.267   0.153   2.537 -0.5544 -0.2558  0.2920
   81SLPC   C22 7521   3.512   0.124   2.538 -0.4016 -1.0525 -0.0667
   81SLPC   H2R 7522   3.583   0.041   2.520 -0.9994 -1.5515 -0.1603
   81SLPC   H2S 7523   3.513   0.202   2.459 -3.3923  0.1066  0.8933
   81SLPC    C3 7524   3.290  -0.269   2.584  0.9030  0.4929 -0.3755
   81SLPC    HX 7525   3.371  -0.302   2.515  3.1496  1.6260  1.5716
   81SLPC    HY 7526   3.197  -0.329   2.580  1.7515 -0.8909 -0.0722
   81SLPC   O31 7527   3.341  -0.269   2.723  0.7127 -0.3794  0.4066
   81SLPC   C31 7528   3.246  -0.241   2.814 -0.5592  0.0222 -0.3789
   81SLPC   O32 7529   3.126  -0.230   2.795 -0.5221  0.6561  0.0382
   81SLPC   C32 7530   3.311  -0.223   2.950  0.1606  0.0139 -0.1265
   81SLPC   H2X 7531   3.386  -0.142   2.964  3.7465 -2.8423 -1.3270
   81SLPC   H2Y 7532   3.366  -0.318   2.968 -3.5214 -2.0012  1.4988
   81SLPC   C23 7533   3.555   0.206   2.665  0.7233  0.7495  0.4373
   81SLPC   H3R 7534   3.479   0.281   2.695 -0.7159 -0.5419  0.1894
   81SLPC   H3S 7535   3.647   0.263   2.643  1.0590  0.3241  0.7342
   81SLPC   C24 7536   3.583   0.109   2.777 -0.2247 -0.6203 -0.1687
   81SLPC   H4R 7537   3.644   0.029   2.732  1.6500  1.0236 -0.6993
   81SLPC   H4S 7538   3.485   0.068   2.809  0.6715  0.1895  4.2207
   81SLPC   C25 7539   3.642   0.174   2.905  0.4624 -0.1726 -0.1424
   81SLPC   H5R 7540   3.576   0.255   2.942  1.6969  1.2038 -0.8118
   81SLPC   H5S 7541   3.728   0.239   2.878 -0.1250  0.2331 -1.0882
   81SLPC   C26 7542   3.684   0.065   3.005  0.3783 -0.5037 -0.7031
   81SLPC   H6R 7543   3.765  -0.002   2.968 -0.1052 -1.0219 -0.8434
   81SLPC   H6S 7544   3.592   0.005   3.021 -0.7843  1.0410 -1.3487
   81SLPC   C27 7545   3.718   0.118   3.145 -0.1479 -0.2924  1.0818
   81SLPC   H7R 7546   3.667   0.216   3.158  2.0665  0.9802  0.6516
   81SLPC   H7S 7547   3.827   0.135   3.155 -0.4688  1.5729  1.9797
   81SLPC   C28 7548   3.680   0.027   3.255 -0.8867 -0.3049 -0.4129
   81SLPC   H8R 7549   3.737  -0.068   3.243  0.6960  0.4873  0.5794
   81SLPC   H8S 7550   3.572   0.002   3.250 -1.0640  0.1332  0.8933
   81SLPC   C29 7551   3.718   0.060   3.396 -0.4771 -0.9243 -0.8351
   81SLPC   H9R 7552   3.667   0.148   3.438  3.6452  0.4694  1.7770
   81SLPC  C210 7553   3.818   0.012   3.477 -0.7240  0.2183  0.0385
   81SLPC  H10R 7554   3.830   0.057   3.576 -2.7298  0.2708  0.2920
   81SLPC  C211 7555   3.918  -0.086   3.432 -0.4829 -0.3280  0.1618
   81SLPC  H11R 7556   3.952  -0.070   3.328  1.2028  0.7341  0.8114
   81SLPC  H11S 7557   3.855  -0.175   3.415 -0.7562 -0.1176  0.0725
   81SLPC  C212 7558   4.041  -0.115   3.524  0.7798 -0.3132  0.5991
   81SLPC  H12R 7559   4.077  -0.027   3.579  0.9479  0.8989 -1.3518
   81SLPC  C213 7560   4.112  -0.232   3.519 -0.1034  0.6911  0.0788
   81SLPC  H13R 7561   4.203  -0.239   3.580  0.6514 -1.7139 -1.1860
   81SLPC  C214 7562   4.088  -0.363   3.455  0.5288 -1.0016  0.1414
   81SLPC  H14R 7563   3.983  -0.378   3.421  1.0574 -3.7973 -0.4901
   81SLPC  H14S 7564   4.116  -0.447   3.522 -0.7020 -1.1448  0.5055
   81SLPC  C215 7565   4.172  -0.373   3.333 -0.1241  0.4517 -0.5843
   81SLPC  H15R 7566   4.155  -0.475   3.292 -3.9568  1.8752 -3.1218
   81SLPC  H15S 7567   4.277  -0.360   3.366 -0.0606 -1.0755 -0.1324
   81SLPC  C216 7568   4.135  -0.275   3.215 -0.2332 -0.3875 -0.1105
   81SLPC  H16R 7569   4.145  -0.169   3.246  2.4944 -0.6635  0.2464
   81SLPC  H16S 7570   4.031  -0.310   3.196 -1.2586 -0.4651  4.4524
   81SLPC  C217 7571   4.224  -0.302   3.089  0.0110  0.3526  0.5576
   81SLPC  H17R 7572   4.315  -0.240   3.101 -0.3707  1.2038 -0.6961
   81SLPC  H17S 7573   4.178  -0.253   3.000  0.9640  0.3756  0.0646
   81SLPC  C218 7574   4.239  -0.446   3.054 -0.0808 -0.2073  0.3859
   81SLPC  H18R 7575   4.302  -0.471   2.966  0.1742 -0.9469  0.7721
   81SLPC  H18S 7576   4.139  -0.490   3.037  0.1653 -0.9658  0.8368
   81SLPC  H18T 7577   4.278  -0.508   3.138 -1.6016 -1.3074  0.3135
   81SLPC   C33 7578   3.208  -0.202   3.059 -0.5195  0.1006 -0.3033
   81SLPC   H3X 7579   3.118  -0.263   3.036 -0.2736 -0.8983  1.2068
   81SLPC   H3Y 7580   3.176  -0.097   3.049  1.2336  0.4908 -2.7505
   81SLPC   C34 7581   3.255  -0.242   3.192  0.2859 -0.4567 -0.6751
   81SLPC   H4X 7582   3.356  -0.200   3.207 -0.4565  0.4930  2.0662
   81SLPC   H4Y 7583   3.254  -0.352   3.208 -1.2724 -0.2346  1.1282
   81SLPC   C35 7584   3.157  -0.201   3.307 -0.4580  0.7195  0.1198
   81SLPC   H5X 7585   3.071  -0.270   3.289  1.4466 -0.7832 -4.9227
   81SLPC   H5Y 7586   3.134  -0.093   3.294 -2.9357  0.5429  2.1584
   81SLPC   C36 7587   3.219  -0.210   3.453 -0.5616  0.6285  0.1256
   81SLPC   H6X 7588   3.306  -0.142   3.457  0.2896 -0.4860  1.0706
   81SLPC   H6Y 7589   3.258  -0.310   3.480 -1.1477 -0.2004 -1.9108
   81SLPC   C37 7590   3.122  -0.166   3.555  0.4759 -0.5150  0.2761
   81SLPC   H7X 7591   3.039  -0.239   3.561 -2.1326  2.2334  0.0299
   81SLPC   H7Y 7592   3.090  -0.061   3.539  2.9984  0.0057 -2.1831
   81SLPC   C38 7593   3.194  -0.169   3.696 -0.3684  0.0022 -0.1304
   81SLPC   H8X 7594   3.271  -0.089   3.701  0.6476 -0.9490 -0.2144
   81SLPC   H8Y 7595   3.248  -0.265   3.713  2.1330  1.7105  2.5748
   81SLPC   C39 7596   3.096  -0.167   3.810  0.4781  0.6109  0.1591
   81SLPC   H9X 7597   3.003  -0.227   3.808  0.8335  0.0229 -2.1011
   81SLPC   H9Y 7598   3.062  -0.063   3.827 -0.6135  0.7560 -2.3925
   81SLPC  C310 7599   3.184  -0.194   3.934 -0.3430  0.1318 -0.1665
   81SLPC  H10X 7600   3.253  -0.108   3.946 -2.2338  1.5855  0.8206
   81SLPC  H10Y 7601   3.235  -0.292   3.924 -0.4502  0.1671 -1.1253
   81SLPC  C311 7602   3.107  -0.210   4.068  0.6071 -0.5493 -0.6987
   81SLPC  H11X 7603   3.063  -0.312   4.078 -0.9383  0.2781  2.1521
   81SLPC  H11Y 7604   3.019  -0.142   4.071  2.1629  1.6185 -1.7898
   81SLPC  C312 7605   3.195  -0.176   4.192  0.1354  0.3244  0.1526
   81SLPC  H12X 7606   3.128  -0.222   4.268 -1.8690  1.3083 -0.9382
   81SLPC  H12Y 7607   3.202  -0.066   4.208 -1.0920  0.4136  0.1585
   81SLPC  C313 7608   3.336  -0.244   4.198  0.1049 -1.4363 -0.6776
   81SLPC  H13X 7609   3.399  -0.203   4.279  1.3946 -2.2544 -1.2369
   81SLPC  H13Y 7610   3.386  -0.221   4.102 -1.2402 -1.1980 -1.3575
   81SLPC  C314 7611   3.346  -0.400   4.218  0.2842 -0.2408  0.6963
   81SLPC  H14X 7612   3.333  -0.453   4.121 -0.3448  0.2058  0.5308
   81SLPC  H14Y 7613   3.273  -0.439   4.291 -0.8428 -0.6801 -0.6136
   81SLPC  C315 7614   3.481  -0.447   4.274  0.4508  0.1075 -0.4238
   81SLPC  H15X 7615   3.471  -0.541   4.332  0.8078  0.2608 -0.1136
   81SLPC  H15Y 7616   3.512  -0.366   4.344  0.0786  1.6476 -1.9678
   81SLPC  C316 7617   3.595  -0.453   4.177 -0.4502  0.6722  0.7677
   81SLPC  H16X 7618   3.598  -0.358   4.120  0.8456  0.7537  0.9468
   81SLPC  H16Y 7619   3.579  -0.531   4.100  0.1245  1.5662 -0.2819
   81SLPC  C317 7620   3.733  -0.468   4.245  0.1349 -0.2337 -0.1085
   81SLPC  H17X 7621   3.721  -0.560   4.306 -0.3318 -1.7059 -2.3075
   81SLPC  H17Y 7622   3.754  -0.382   4.313 -1.9231 -0.3407  0.7391
   81SLPC  C318 7623   3.846  -0.494   4.147 -0.0730  0.2862 -0.2635
   81SLPC  H18X 7624   3.840  -0.599   4.111  1.0411 -0.4976  1.6420
   81SLPC  H18Y 7625   3.946  -0.476   4.193  0.7664  1.6352 -2.4332
   81SLPC  H18Z 7626   3.835  -0.422   4.063 -0.0316  2.1552  1.2836
   82SLPC     N 7627   6.393   0.456   2.257  0.0975 -0.4778 -0.8989
   82SLPC   C13 7628   6.288   0.452   2.367 -0.2228  0.2264 -0.7019
   82SLPC  H13A 7629   6.194   0.401   2.352 -0.4422 -0.4761  2.3231
   82SLPC  H13B 7630   6.334   0.407   2.454  0.2039  0.6446 -0.7082
   82SLPC  H13C 7631   6.258   0.553   2.389  0.5631  0.1722  0.7173
   82SLPC   C14 7632   6.335   0.507   2.127  0.1075 -0.4607  0.3556
   82SLPC  H14A 7633   6.249   0.449   2.098  0.7100 -0.3882 -1.6745
   82SLPC  H14B 7634   6.303   0.609   2.142  2.0723  0.2911 -0.2137
   82SLPC  H14C 7635   6.421   0.509   2.062  0.7569  0.4212  1.2031
   82SLPC   C15 7636   6.432   0.316   2.234  0.6533 -0.0634  0.6219
   82SLPC  H15A 7637   6.345   0.270   2.190  2.0189 -1.3218 -0.9015
   82SLPC  H15B 7638   6.502   0.312   2.153 -2.2233  0.3614 -2.0715
   82SLPC  H15C 7639   6.468   0.263   2.321  0.9680  0.1780  0.6408
   82SLPC   C12 7640   6.510   0.539   2.293 -0.1635  0.6035 -0.7698
   82SLPC  H12A 7641   6.471   0.640   2.301 -1.8104 -0.1093  0.9942
   82SLPC  H12B 7642   6.586   0.536   2.217  1.0414 -0.5842  0.4198
   82SLPC   C11 7643   6.576   0.519   2.433  0.0053  0.4833  0.0532
   82SLPC  H11A 7644   6.500   0.564   2.500 -1.0698  0.9163 -1.3892
   82SLPC  H11B 7645   6.660   0.591   2.436  0.4144  0.0145  0.0179
   82SLPC     P 7646   6.751   0.332   2.413 -0.2370 -0.6044 -0.2816
   82SLPC   O13 7647   6.744   0.182   2.420 -0.6249  0.6985  0.3302
   82SLPC   O14 7648   6.785   0.397   2.280 -0.7988  0.0533  0.3679
   82SLPC   O12 7649   6.610   0.387   2.468  0.3235  0.7381  0.6853
   82SLPC   O11 7650   6.855   0.376   2.529 -0.5787  0.0670  0.5139
   82SLPC    C1 7651   6.817   0.396   2.661  0.3981  0.2033 -0.3884
   82SLPC    HA 7652   6.887   0.475   2.697  0.7506  0.1871 -1.0294
   82SLPC    HB 7653   6.717   0.444   2.669  0.1702 -0.4823  1.4772
   82SLPC    C2 7654   6.833   0.270   2.741  0.2753  0.1680 -0.2057
   82SLPC    HS 7655   6.767   0.188   2.703  4.1428 -2.9591 -0.8811
   82SLPC   O21 7656   6.825   0.305   2.881  0.4484  0.5480 -0.0976
   82SLPC   C21 7657   6.699   0.296   2.931  0.8281 -0.3327  0.1442
   82SLPC   O22 7658   6.609   0.255   2.855 -0.0601  0.5820  0.0244
   82SLPC   C22 7659   6.692   0.345   3.077 -0.0864 -0.2655 -0.2468
   82SLPC   H2R 7660   6.764   0.284   3.136 -0.7482 -1.8479 -1.0161
   82SLPC   H2S 7661   6.719   0.453   3.083 -0.4494 -0.1860 -0.0119
   82SLPC    C3 7662   6.975   0.207   2.705  0.0648  0.1498 -0.3899
   82SLPC    HX 7663   7.050   0.286   2.728 -1.1146  1.4956 -1.0255
   82SLPC    HY 7664   6.984   0.184   2.596 -3.0229 -0.1494 -0.6687
   82SLPC   O31 7665   6.987   0.080   2.776  0.3358 -0.4710  0.0558
   82SLPC   C31 7666   7.113   0.033   2.797  0.5364 -0.0384  0.6096
   82SLPC   O32 7667   7.218   0.080   2.758  0.4819 -0.6121 -0.6208
   82SLPC   C32 7668   7.096  -0.096   2.878 -0.2180  1.0792 -0.1871
   82SLPC   H2X 7669   7.201  -0.129   2.894 -0.2666 -1.0061 -3.4578
   82SLPC   H2Y 7670   7.062  -0.170   2.803 -2.4143  2.2160 -0.4037
   82SLPC   C23 7671   6.551   0.331   3.148  0.4873 -0.2320  0.2954
   82SLPC   H3R 7672   6.500   0.236   3.118  1.9034 -0.1691 -2.6255
   82SLPC   H3S 7673   6.483   0.414   3.118 -2.0075 -2.6074 -1.1192
   82SLPC   C24 7674   6.585   0.334   3.299  0.0290 -0.7148  0.1403
   82SLPC   H4R 7675   6.642   0.246   3.335 -2.6402 -1.8643  1.9331
   82SLPC   H4S 7676   6.486   0.326   3.348  0.1033 -1.2933  0.1925
   82SLPC   C25 7677   6.649   0.473   3.350 -0.2276  0.0813 -0.5838
   82SLPC   H5R 7678   6.581   0.553   3.313  1.3344  0.7236 -2.2212
   82SLPC   H5S 7679   6.748   0.496   3.306  0.3714  0.3615  0.8465
   82SLPC   C26 7680   6.657   0.473   3.504  0.0916 -0.3017  1.1260
   82SLPC   H6R 7681   6.697   0.375   3.536  1.7326  0.3506  1.1456
   82SLPC   H6S 7682   6.554   0.476   3.547 -1.2236  3.1369 -1.7431
   82SLPC   C27 7683   6.739   0.599   3.544  0.1379  0.2213 -0.2661
   82SLPC   H7R 7684   6.700   0.685   3.485  1.4169 -0.0584 -1.5727
   82SLPC   H7S 7685   6.842   0.590   3.504 -0.3610  2.7232 -2.4023
   82SLPC   C28 7686   6.724   0.617   3.692 -0.2811  0.6987  0.5730
   82SLPC   H8R 7687   6.785   0.542   3.746 -1.3204  1.5659  3.1224
   82SLPC   H8S 7688   6.624   0.589   3.730 -0.4100  1.6220  0.9404
   82SLPC   C29 7689   6.756   0.753   3.746  0.2740  0.2577  0.6949
   82SLPC   H9R 7690   6.813   0.822   3.682 -1.6648 -0.2921 -1.7807
   82SLPC  C210 7691   6.705   0.806   3.857  1.0859 -0.3014  0.0264
   82SLPC  H10R 7692   6.750   0.898   3.897 -0.3727 -0.1909  1.5091
   82SLPC  C211 7693   6.619   0.736   3.957  0.0688 -0.0913 -0.7803
   82SLPC  H11R 7694   6.545   0.672   3.905  1.7672 -2.7490 -0.1149
   82SLPC  H11S 7695   6.552   0.811   4.003  1.2257  2.3274 -2.7581
   82SLPC  C212 7696   6.692   0.640   4.047  0.7056 -0.4633  0.5065
   82SLPC  H12R 7697   6.736   0.554   3.994  0.8574 -0.7021  1.0194
   82SLPC  C213 7698   6.707   0.656   4.178  0.2087 -0.0369 -0.0802
   82SLPC  H13R 7699   6.765   0.583   4.236  0.1101  1.3707  1.8993
   82SLPC  C214 7700   6.647   0.766   4.264  0.0123  0.2805  0.5398
   82SLPC  H14R 7701   6.662   0.861   4.208 -1.2150  0.4060  0.4010
   82SLPC  H14S 7702   6.713   0.775   4.353  1.1381 -2.2712  0.0516
   82SLPC  C215 7703   6.506   0.747   4.308  0.0651  0.2216 -0.1846
   82SLPC  H15R 7704   6.431   0.744   4.227 -0.6556  1.2964  0.4170
   82SLPC  H15S 7705   6.487   0.827   4.383  1.7779  1.8081 -1.3504
   82SLPC  C216 7706   6.481   0.616   4.381  1.2161 -0.2524  0.3830
   82SLPC  H16R 7707   6.536   0.611   4.477  0.7215  2.2001  0.8681
   82SLPC  H16S 7708   6.498   0.535   4.306  0.2018 -0.5910  0.5072
   82SLPC  C217 7709   6.335   0.582   4.431  0.1343 -0.4871  0.5431
   82SLPC  H17R 7710   6.344   0.475   4.459  1.9582 -0.1263  1.4828
   82SLPC  H17S 7711   6.269   0.586   4.342  2.1584  0.6363 -1.0052
   82SLPC  C218 7712   6.280   0.662   4.549 -0.5972 -0.0158  0.1609
   82SLPC  H18R 7713   6.269   0.772   4.536  1.1275  0.1348 -0.3028
   82SLPC  H18S 7714   6.339   0.658   4.643  0.9390  1.5181 -0.6664
   82SLPC  H18T 7715   6.181   0.623   4.580 -0.4605 -1.8380 -1.4946
   82SLPC   C33 7716   7.017  -0.079   3.003  0.1642  1.0145  0.0430
   82SLPC   H3X 7717   7.000  -0.184   3.037  1.3753 -0.0222 -2.2772
   82SLPC   H3Y 7718   6.914  -0.039   2.996 -0.3817 -0.5924 -3.4334
   82SLPC   C34 7719   7.095  -0.000   3.114  0.5986 -0.4023 -0.5811
   82SLPC   H4X 7720   7.162   0.080   3.076  1.7073 -0.9229  0.2112
   82SLPC   H4Y 7721   7.155  -0.081   3.161 -1.5981 -1.6864  0.1305
   82SLPC   C35 7722   7.006   0.057   3.219 -0.2230 -0.3611  0.1607
   82SLPC   H5X 7723   6.933  -0.015   3.262 -1.3982  1.3365  1.1463
   82SLPC   H5Y 7724   6.950   0.140   3.170 -0.2718 -1.3176 -1.4655
   82SLPC   C36 7725   7.097   0.122   3.325 -0.9092 -0.1696 -0.2394
   82SLPC   H6X 7726   7.149   0.209   3.279 -1.4267  0.6699  0.7328
   82SLPC   H6Y 7727   7.184   0.059   3.350 -1.0859 -0.5492 -0.5681
   82SLPC   C37 7728   7.026   0.152   3.459 -0.6756  0.3813  0.4056
   82SLPC   H7X 7729   6.935   0.214   3.457  0.2394  1.7484  0.0086
   82SLPC   H7Y 7730   7.095   0.213   3.521  3.2677 -0.3707 -2.7432
   82SLPC   C38 7731   6.985   0.021   3.535 -0.0620  0.3688  0.2381
   82SLPC   H8X 7732   7.070  -0.011   3.598 -0.5257  1.6211  1.5511
   82SLPC   H8Y 7733   6.962  -0.058   3.461  0.9384  1.6808 -1.5446
   82SLPC   C39 7734   6.864   0.041   3.626 -0.6404  0.3240 -0.0902
   82SLPC   H9X 7735   6.833  -0.056   3.670  1.9565  0.7439  3.0697
   82SLPC   H9Y 7736   6.772   0.069   3.570  0.0023  1.1349 -0.7589
   82SLPC  C310 7737   6.896   0.132   3.745 -0.0419  0.0815  0.0717
   82SLPC  H10X 7738   6.906   0.237   3.708 -0.1508 -0.7618 -2.5730
   82SLPC  H10Y 7739   6.988   0.090   3.790 -0.5894 -0.0210  1.1263
   82SLPC  C311 7740   6.788   0.138   3.850 -0.5911 -0.0317  0.5595
   82SLPC  H11X 7741   6.827   0.179   3.946  0.4003 -0.5025  0.3728
   82SLPC  H11Y 7742   6.756   0.032   3.867 -0.1132 -0.2271  0.2570
   82SLPC  C312 7743   6.657   0.205   3.807  0.6421 -0.0507  0.0830
   82SLPC  H12X 7744   6.633   0.169   3.705  1.1134  0.2460 -0.1332
   82SLPC  H12Y 7745   6.673   0.314   3.791  2.2876  0.6490  4.8995
   82SLPC  C313 7746   6.533   0.201   3.906 -0.2019 -0.8101 -0.4509
   82SLPC  H13X 7747   6.564   0.271   3.987 -0.7608 -0.2932 -0.6716
   82SLPC  H13Y 7748   6.514   0.098   3.943  1.6784 -0.8288  0.5930
   82SLPC  C314 7749   6.414   0.267   3.827  0.1167  0.1105 -0.4506
   82SLPC  H14X 7750   6.441   0.373   3.810  0.2800 -0.2374 -2.6863
   82SLPC  H14Y 7751   6.330   0.266   3.900  0.2200 -1.3868 -0.3315
   82SLPC  C315 7752   6.370   0.188   3.705 -0.0360 -0.1909  0.2816
   82SLPC  H15X 7753   6.394   0.082   3.728 -2.7605 -0.9723 -0.0785
   82SLPC  H15Y 7754   6.430   0.208   3.614 -0.6444  1.4789  0.2171
   82SLPC  C316 7755   6.220   0.175   3.667 -0.5946 -0.2310 -0.0210
   82SLPC  H16X 7756   6.225   0.104   3.582 -0.4690  0.0850 -0.2819
   82SLPC  H16Y 7757   6.183   0.274   3.631  0.4839  0.4416  0.6830
   82SLPC  C317 7758   6.131   0.112   3.778 -0.5432  0.0192 -0.1207
   82SLPC  H17X 7759   6.029   0.152   3.760 -0.6525 -0.0944  0.2486
   82SLPC  H17Y 7760   6.152   0.147   3.881 -1.1080  0.4217 -0.1394
   82SLPC  C318 7761   6.118  -0.041   3.782  0.4981  0.1670  1.1617
   82SLPC  H18X 7762   6.126  -0.090   3.682  2.4056 -0.2851  1.5001
   82SLPC  H18Y 7763   6.035  -0.075   3.847 -1.9039  2.2516 -0.5910
   82SLPC  H18Z 7764   6.211  -0.083   3.828  0.0390 -0.9695  1.0947
   83SLPC     N 7765   2.252   0.287   2.081 -0.4957 -0.1329 -0.0308
   83SLPC   C13 7766   2.349   0.188   2.035  0.7204 -0.2910 -0.6300
   83SLPC  H13A 7767   2.344   0.099   2.095  0.8530  0.7758  1.0402
   83SLPC  H13B 7768   2.329   0.172   1.930 -3.4272 -0.5052  0.0318
   83SLPC  H13C 7769   2.452   0.222   2.037 -0.2955  3.2423 -0.5918
   83SLPC   C14 7770   2.111   0.241   2.045 -0.6500  0.3076  0.2169
   83SLPC  H14A 7771   2.094   0.141   2.084  1.1935  0.5001  1.6700
   83SLPC  H14B 7772   2.048   0.312   2.096 -0.1261  1.1846 -0.3271
   83SLPC  H14C 7773   2.098   0.253   1.939 -0.0666  0.2538  0.1341
   83SLPC   C15 7774   2.270   0.421   2.011 -0.0062 -0.1180  0.4789
   83SLPC  H15A 7775   2.374   0.451   2.016 -0.1209  0.9327 -1.9364
   83SLPC  H15B 7776   2.252   0.404   1.906 -2.2207 -2.3445  1.1153
   83SLPC  H15C 7777   2.219   0.506   2.053  0.8132  1.7183 -1.9855
   83SLPC   C12 7778   2.277   0.307   2.230  0.2668 -0.3814 -0.9832
   83SLPC  H12A 7779   2.377   0.345   2.243  0.0731 -0.3830  0.7427
   83SLPC  H12B 7780   2.274   0.213   2.283  0.7916  0.0256 -0.2130
   83SLPC   C11 7781   2.189   0.406   2.302 -0.8598 -0.8038  0.3858
   83SLPC  H11A 7782   2.172   0.495   2.238 -0.6314 -0.4316  0.8365
   83SLPC  H11B 7783   2.242   0.447   2.391  0.7242 -1.0797 -0.3958
   83SLPC     P 7784   2.031   0.231   2.423 -0.2536 -0.3659 -0.0178
   83SLPC   O13 7785   1.961   0.279   2.540 -0.0263  0.3308  0.1658
   83SLPC   O14 7786   1.961   0.126   2.341  0.4104 -0.3343 -0.1874
   83SLPC   O12 7787   2.060   0.346   2.323  0.0074  0.3086 -0.4987
   83SLPC   O11 7788   2.169   0.170   2.460 -0.5483  0.9242  0.4016
   83SLPC    C1 7789   2.182   0.038   2.526 -0.3047 -0.5130 -0.1387
   83SLPC    HA 7790   2.090   0.002   2.577  0.4128  0.7032  2.1488
   83SLPC    HB 7791   2.224  -0.044   2.464  2.3660  0.7686 -0.1712
   83SLPC    C2 7792   2.280   0.068   2.636  0.0756  0.4438 -0.4645
   83SLPC    HS 7793   2.295  -0.028   2.690 -0.4536 -0.4003 -1.7765
   83SLPC   O21 7794   2.231   0.169   2.726  0.3006 -0.1294 -0.4580
   83SLPC   C21 7795   2.132   0.125   2.810 -0.3063  0.0444 -0.5440
   83SLPC   O22 7796   2.102   0.009   2.819  0.9460 -0.2830  0.0078
   83SLPC   C22 7797   2.076   0.236   2.902  0.5068 -0.0334 -0.0991
   83SLPC   H2R 7798   2.023   0.309   2.837 -0.6591  0.1044  0.9716
   83SLPC   H2S 7799   1.996   0.193   2.966 -1.3115  1.3960 -1.2993
   83SLPC    C3 7800   2.425   0.097   2.570  0.4264 -0.5933  0.1486
   83SLPC    HX 7801   2.428   0.190   2.509 -0.5940 -0.3185  0.4916
   83SLPC    HY 7802   2.449   0.015   2.499 -0.6335 -1.8047  1.1303
   83SLPC   O31 7803   2.525   0.107   2.670 -0.6371 -0.0029 -0.3616
   83SLPC   C31 7804   2.576  -0.006   2.721 -0.1607  0.1305 -0.3750
   83SLPC   O32 7805   2.541  -0.119   2.692  0.3375  0.5584 -0.3001
   83SLPC   C32 7806   2.674   0.035   2.833 -0.2631 -0.6623  0.2381
   83SLPC   H2X 7807   2.726   0.132   2.814  0.3446 -1.5917 -3.8725
   83SLPC   H2Y 7808   2.747  -0.049   2.830  1.2630  0.5815  0.7640
   83SLPC   C23 7809   2.189   0.317   2.978  0.3749  0.8524  0.8187
   83SLPC   H3R 7810   2.147   0.416   3.007 -1.5172  0.5100 -0.5465
   83SLPC   H3S 7811   2.273   0.328   2.906 -0.8077  0.5138 -0.6540
   83SLPC   C24 7812   2.247   0.238   3.101  0.6406  0.1042  0.0611
   83SLPC   H4R 7813   2.285   0.141   3.063  0.0106 -0.9256  1.9031
   83SLPC   H4S 7814   2.163   0.191   3.158  0.3918 -4.0305 -3.2112
   83SLPC   C25 7815   2.344   0.306   3.201 -0.3497 -0.6596 -0.4521
   83SLPC   H5R 7816   2.431   0.325   3.134 -1.4453  1.1448 -1.4260
   83SLPC   H5S 7817   2.349   0.243   3.293 -0.6240 -1.1126 -0.7432
   83SLPC   C26 7818   2.291   0.445   3.247 -0.6719  0.1788  0.1943
   83SLPC   H6R 7819   2.193   0.441   3.299 -1.2627  1.9455 -0.6921
   83SLPC   H6S 7820   2.283   0.519   3.165 -5.1647  1.4623  1.4940
   83SLPC   C27 7821   2.381   0.516   3.350  0.0200  0.0915 -0.6692
   83SLPC   H7R 7822   2.475   0.549   3.301  1.1391 -3.1175 -0.9718
   83SLPC   H7S 7823   2.415   0.436   3.419  0.7440  1.5840  0.7677
   83SLPC   C28 7824   2.314   0.641   3.406 -0.1147 -0.0893  0.3504
   83SLPC   H8R 7825   2.275   0.700   3.320  0.4452  1.2513  0.9752
   83SLPC   H8S 7826   2.387   0.717   3.444  1.2556  0.3373 -2.8030
   83SLPC   C29 7827   2.209   0.609   3.511 -0.2457 -0.2238  0.4272
   83SLPC   H9R 7828   2.103   0.611   3.484 -1.4620  1.8427  4.6008
   83SLPC  C210 7829   2.236   0.588   3.642  0.0746  0.2386 -0.3742
   83SLPC  H10R 7830   2.153   0.557   3.708  0.7955 -0.7404  0.0890
   83SLPC  C211 7831   2.377   0.573   3.701 -0.5263 -0.5019 -0.9412
   83SLPC  H11R 7832   2.451   0.577   3.619 -1.2213 -0.2560 -1.5725
   83SLPC  H11S 7833   2.379   0.467   3.734 -0.7548  0.3583  2.0698
   83SLPC  C212 7834   2.421   0.677   3.805  0.3357  0.2460 -0.3750
   83SLPC  H12R 7835   2.449   0.775   3.764 -1.2569  0.3974 -1.1794
   83SLPC  C213 7836   2.447   0.654   3.935  0.2757  0.4770  0.0101
   83SLPC  H13R 7837   2.472   0.736   4.004 -0.6896  1.8878 -1.2764
   83SLPC  C214 7838   2.421   0.517   3.998  0.2413  0.1680 -0.5031
   83SLPC  H14R 7839   2.490   0.498   4.083  0.9867  3.6247 -0.2001
   83SLPC  H14S 7840   2.434   0.435   3.925 -2.2244 -1.0282  0.3025
   83SLPC  C215 7841   2.287   0.526   4.062  0.4796  0.2384  0.3332
   83SLPC  H15R 7842   2.275   0.424   4.105  1.6340  0.2643  0.7558
   83SLPC  H15S 7843   2.202   0.552   3.995  0.4428 -1.3367 -0.2914
   83SLPC  C216 7844   2.299   0.623   4.186 -0.0136 -0.6922 -0.5369
   83SLPC  H16R 7845   2.309   0.728   4.149 -1.2712 -0.1372  0.5977
   83SLPC  H16S 7846   2.390   0.593   4.243  0.7915  1.4589 -0.5718
   83SLPC  C217 7847   2.167   0.625   4.272  0.1932  0.0455  0.0824
   83SLPC  H17R 7848   2.083   0.666   4.213 -0.7562 -0.7733  0.8198
   83SLPC  H17S 7849   2.175   0.689   4.362  1.1807 -2.1299  1.6459
   83SLPC  C218 7850   2.138   0.493   4.341  0.4212 -0.4933 -0.5004
   83SLPC  H18R 7851   2.069   0.510   4.426  1.3814  0.4592  0.1075
   83SLPC  H18S 7852   2.221   0.434   4.384 -0.2265 -0.5178  0.7709
   83SLPC  H18T 7853   2.090   0.424   4.268 -0.0200  0.9329 -1.6133
   83SLPC   C33 7854   2.590   0.049   2.964 -0.1962  0.1829 -0.8400
   83SLPC   H3X 7855   2.519  -0.035   2.981 -0.2860  0.8376  2.9568
   83SLPC   H3Y 7856   2.522   0.135   2.946  0.1889  0.4901 -0.8594
   83SLPC   C34 7857   2.668   0.078   3.090  0.3591  0.5922 -0.2316
   83SLPC   H4X 7858   2.606   0.097   3.180  0.4068  0.7328 -0.2277
   83SLPC   H4Y 7859   2.722   0.173   3.070  0.1712  0.4676 -1.4156
   83SLPC   C35 7860   2.766  -0.027   3.136 -0.4032  1.0436 -0.2432
   83SLPC   H5X 7861   2.850  -0.021   3.062  0.7690  0.7298  1.0217
   83SLPC   H5Y 7862   2.714  -0.124   3.124 -0.0841  0.6426  1.4371
   83SLPC   C36 7863   2.830   0.003   3.280  0.6571  0.0596 -0.0642
   83SLPC   H6X 7864   2.858   0.110   3.272 -0.3530  0.5415  2.0149
   83SLPC   H6Y 7865   2.909  -0.069   3.310 -0.1540  0.2600  2.9150
   83SLPC   C37 7866   2.725  -0.014   3.396 -0.4472 -0.5818  0.0237
   83SLPC   H7X 7867   2.667  -0.108   3.387 -0.3213 -0.6603  0.0352
   83SLPC   H7Y 7868   2.656   0.073   3.385 -0.7714 -0.8641 -0.2016
   83SLPC   C38 7869   2.793  -0.016   3.528  0.3263 -0.4226  0.7389
   83SLPC   H8X 7870   2.896   0.017   3.504  0.4552 -0.3304  1.4009
   83SLPC   H8Y 7871   2.796  -0.124   3.557 -2.9451 -1.4238 -2.0261
   83SLPC   C39 7872   2.723   0.068   3.636 -0.2406 -0.0810  0.0132
   83SLPC   H9X 7873   2.618   0.039   3.653 -0.6743  1.8125  0.9037
   83SLPC   H9Y 7874   2.720   0.174   3.601 -1.0705  0.2157  0.9218
   83SLPC  C310 7875   2.793   0.063   3.772  0.2684  0.4403 -0.2438
   83SLPC  H10X 7876   2.897   0.103   3.771  0.1205  0.8985  0.8268
   83SLPC  H10Y 7877   2.795  -0.045   3.800 -1.7341  0.3405 -0.3284
   83SLPC  C311 7878   2.712   0.145   3.873 -0.1369  0.2107 -0.1716
   83SLPC  H11X 7879   2.621   0.092   3.910 -1.6555  2.9568  0.3062
   83SLPC  H11Y 7880   2.674   0.243   3.836  0.4508  0.7383  0.5772
   83SLPC  C312 7881   2.801   0.165   3.991 -0.7046 -0.6454  0.1104
   83SLPC  H12X 7882   2.860   0.258   3.981  0.9646 -1.6486  0.2771
   83SLPC  H12Y 7883   2.861   0.072   3.999 -0.8611 -0.8552 -0.9803
   83SLPC  C313 7884   2.735   0.181   4.130  0.6355  0.0913 -0.5970
   83SLPC  H13X 7885   2.669   0.093   4.146 -0.2040  0.7710 -0.2060
   83SLPC  H13Y 7886   2.670   0.272   4.126 -0.8122 -0.7635  1.4278
   83SLPC  C314 7887   2.840   0.214   4.236  0.4104  0.3291  0.0462
   83SLPC  H14X 7888   2.777   0.231   4.326 -0.5927  0.3574 -0.6459
   83SLPC  H14Y 7889   2.898   0.306   4.214 -0.8200  0.9990 -0.5128
   83SLPC  C315 7890   2.928   0.102   4.283  0.7340  0.7406 -0.1787
   83SLPC  H15X 7891   2.992   0.078   4.195  1.6953  1.7318  0.2317
   83SLPC  H15Y 7892   2.863   0.011   4.283  2.7755 -0.8620 -2.7216
   83SLPC  C316 7893   3.000   0.114   4.407  0.0835 -0.4452 -0.4976
   83SLPC  H16X 7894   3.058   0.022   4.433  0.3400 -0.8998 -2.5442
   83SLPC  H16Y 7895   2.932   0.149   4.488  1.5954  3.5363 -0.7481
   83SLPC  C317 7896   3.119   0.216   4.390 -0.1505 -0.4892  0.5579
   83SLPC  H17X 7897   3.084   0.321   4.377  1.2070 -0.1750 -0.7964
   83SLPC  H17Y 7898   3.173   0.199   4.294  0.1107 -1.9562  0.9427
   83SLPC  C318 7899   3.213   0.220   4.508 -0.3041 -0.2277 -0.1567
   83SLPC  H18X 7900   3.151   0.200   4.598 -2.4212 -2.8301 -2.0471
   83SLPC  H18Y 7901   3.254   0.323   4.512 -0.5065 -0.1765  0.7369
   83SLPC  H18Z 7902   3.299   0.149   4.499  1.7032  2.0306  0.2452
   84SLPC     N 7903   0.995   3.539   1.897  1.1116  0.2005 -0.4141
   84SLPC   C13 7904   1.062   3.656   1.835 -0.3106 -0.0464 -1.0347
   84SLPC  H13A 7905   1.160   3.630   1.796 -0.4572 -1.5263 -0.4796
   84SLPC  H13B 7906   1.014   3.699   1.749  0.7103  1.2054 -1.0135
   84SLPC  H13C 7907   1.073   3.734   1.910 -0.9904  0.0523 -1.0368
   84SLPC   C14 7908   1.071   3.473   2.005  0.6305 -0.3917 -0.3002
   84SLPC  H14A 7909   1.008   3.397   2.048 -1.3591  0.7708 -1.0577
   84SLPC  H14B 7910   1.166   3.438   1.967 -0.9676 -2.1225 -3.0492
   84SLPC  H14C 7911   1.083   3.545   2.085 -0.0438 -0.4167 -0.1727
   84SLPC   C15 7912   0.971   3.438   1.784 -0.6839  0.0220 -0.1505
   84SLPC  H15A 7913   0.901   3.476   1.711  0.6026 -0.0622 -1.4586
   84SLPC  H15B 7914   1.063   3.395   1.749 -0.2628  0.1028  0.8330
   84SLPC  H15C 7915   0.929   3.350   1.830 -0.3916 -0.2150 -0.3362
   84SLPC   C12 7916   0.856   3.573   1.951  1.3707  0.2889 -0.1224
   84SLPC  H12A 7917   0.811   3.494   2.010 -2.2034  1.8831 -0.4842
   84SLPC  H12B 7918   0.790   3.592   1.868 -0.4998 -0.5206  1.1094
   84SLPC   C11 7919   0.851   3.698   2.042  0.2323  0.1294 -0.5264
   84SLPC  H11A 7920   0.937   3.690   2.112  0.7196 -2.0390 -1.2948
   84SLPC  H11B 7921   0.752   3.690   2.092 -1.1297  2.6433 -2.5777
   84SLPC     P 7922   0.921   3.954   2.019  0.0583  0.2895  0.1253
   84SLPC   O13 7923   1.068   3.941   2.021 -0.4596 -0.6181  0.2946
   84SLPC   O14 7924   0.860   4.073   1.954 -0.2913 -0.2989 -0.0860
   84SLPC   O12 7925   0.859   3.818   1.961  0.4287 -0.0956  0.3764
   84SLPC   O11 7926   0.874   3.953   2.167 -0.4002  0.4555 -0.0658
   84SLPC    C1 7927   0.734   3.966   2.198  0.2025  0.1200  0.2308
   84SLPC    HA 7928   0.671   4.008   2.117 -1.2336 -0.2343  1.1319
   84SLPC    HB 7929   0.683   3.869   2.218  1.1703 -0.8321 -1.5340
   84SLPC    C2 7930   0.706   4.050   2.329 -0.1379 -0.0794 -0.0153
   84SLPC    HS 7931   0.715   4.159   2.309 -0.5989 -0.2855 -1.4964
   84SLPC   O21 7932   0.801   4.015   2.433  0.2757 -0.0210 -0.3645
   84SLPC   C21 7933   0.823   4.107   2.528  0.1246  0.2156  0.3441
   84SLPC   O22 7934   0.798   4.225   2.519  0.2187 -0.2982  0.0300
   84SLPC   C22 7935   0.894   4.038   2.645 -0.0555 -0.2811  0.0655
   84SLPC   H2R 7936   0.910   3.932   2.617 -1.4589 -1.0837  2.0218
   84SLPC   H2S 7937   0.991   4.087   2.669 -1.4574  1.4835  2.7130
   84SLPC    C3 7938   0.556   4.032   2.362 -0.2069 -0.4226 -0.1913
   84SLPC    HX 7939   0.546   3.924   2.339  1.9087 -0.2674 -2.2756
   84SLPC    HY 7940   0.493   4.088   2.290  2.7142  1.9581 -1.0956
   84SLPC   O31 7941   0.513   4.054   2.497 -0.1669 -0.4193  0.6114
   84SLPC   C31 7942   0.446   4.176   2.513 -0.3145  0.3790 -0.4837
   84SLPC   O32 7943   0.430   4.258   2.426  0.0028 -0.1494 -0.2406
   84SLPC   C32 7944   0.388   4.181   2.652 -0.4381  0.2601  0.1699
   84SLPC   H2X 7945   0.455   4.125   2.721  0.7616 -0.1026 -1.2380
   84SLPC   H2Y 7946   0.294   4.122   2.648  1.9169 -3.7577 -1.3259
   84SLPC   C23 7947   0.811   4.040   2.776 -0.1180  0.0149  0.5083
   84SLPC   H3R 7948   0.727   3.968   2.775  0.7798 -1.0980  1.9306
   84SLPC   H3S 7949   0.765   4.139   2.793 -2.8771 -1.5561  3.1540
   84SLPC   C24 7950   0.892   4.001   2.901  0.8217  0.0877  0.2793
   84SLPC   H4R 7951   0.991   4.051   2.907  0.3968  1.4170 -2.2519
   84SLPC   H4S 7952   0.916   3.893   2.895  1.1378  0.2338 -1.5066
   84SLPC   C25 7953   0.817   4.028   3.032  0.1037  0.4105 -0.2770
   84SLPC   H5R 7954   0.723   3.968   3.031  0.4803 -0.2095 -2.1924
   84SLPC   H5S 7955   0.776   4.131   3.033  0.2176  0.4517  0.0119
   84SLPC   C26 7956   0.905   3.974   3.153  0.1756 -0.4385  0.3230
   84SLPC   H6R 7957   0.995   4.039   3.166 -1.5538  1.9923  0.7619
   84SLPC   H6S 7958   0.937   3.869   3.133 -1.4529 -0.8803 -0.0554
   84SLPC   C27 7959   0.824   3.965   3.282 -0.3470 -0.2432 -0.2433
   84SLPC   H7R 7960   0.739   3.894   3.281  1.8692 -3.0752  0.4936
   84SLPC   H7S 7961   0.775   4.061   3.310 -1.1106 -0.5151 -0.6167
   84SLPC   C28 7962   0.917   3.938   3.402 -0.8872  0.3353  0.5453
   84SLPC   H8R 7963   0.986   4.020   3.432 -1.5123  1.1604 -0.1963
   84SLPC   H8S 7964   0.991   3.861   3.373 -0.9727  0.6236 -0.4862
   84SLPC   C29 7965   0.841   3.898   3.528  0.7398 -0.3536 -0.1482
   84SLPC   H9R 7966   0.758   3.826   3.514  0.4687  0.1989 -1.5370
   84SLPC  C210 7967   0.860   3.956   3.651  1.1679 -0.0540  0.1890
   84SLPC  H10R 7968   0.788   3.923   3.727 -2.9568  1.8768 -2.5323
   84SLPC  C211 7969   0.975   4.046   3.696  0.7131 -0.0907 -0.3952
   84SLPC  H11R 7970   1.070   4.012   3.650  2.6138 -1.0737  3.7247
   84SLPC  H11S 7971   0.995   4.034   3.805 -1.3000 -1.9402 -0.1609
   84SLPC  C212 7972   0.941   4.195   3.670  0.1003 -0.4465  0.0053
   84SLPC  H12R 7973   0.871   4.220   3.589  1.0876  0.5089 -0.5809
   84SLPC  C213 7974   0.980   4.301   3.742  0.7683 -0.6811 -0.2449
   84SLPC  H13R 7975   0.934   4.395   3.707  0.5643 -1.1688 -1.3429
   84SLPC  C214 7976   1.075   4.308   3.854 -0.5543 -0.4134  1.0038
   84SLPC  H14R 7977   1.065   4.220   3.920 -0.1390 -0.3066  1.2130
   84SLPC  H14S 7978   1.056   4.403   3.909 -2.2268 -0.4872  0.5909
   84SLPC  C215 7979   1.225   4.297   3.813 -0.1644 -0.3203 -0.2626
   84SLPC  H15R 7980   1.239   4.391   3.754  0.6348  0.6442  1.4052
   84SLPC  H15S 7981   1.241   4.212   3.744  0.2608  1.3335 -2.3145
   84SLPC  C216 7982   1.319   4.300   3.937  0.3285  0.1385  0.2734
   84SLPC  H16R 7983   1.268   4.227   4.004  1.7057 -0.5005  0.6538
   84SLPC  H16S 7984   1.320   4.395   3.994 -1.7242  0.3582  0.0383
   84SLPC  C217 7985   1.452   4.259   3.887 -0.1885 -0.0292 -0.2475
   84SLPC  H17R 7986   1.468   4.328   3.801  3.3427 -1.1992 -0.7137
   84SLPC  H17S 7987   1.465   4.156   3.849  2.6794 -0.1181  0.7039
   84SLPC  C218 7988   1.545   4.290   3.994 -0.3473  0.2673  0.0678
   84SLPC  H18R 7989   1.499   4.266   4.092  1.2766  0.4291  0.9084
   84SLPC  H18S 7990   1.569   4.398   4.001 -1.4791  0.4346  2.5885
   84SLPC  H18T 7991   1.638   4.230   3.985 -0.8648 -0.4256 -0.8817
   84SLPC   C33 7992   0.381   4.327   2.695  0.7190 -0.4426 -0.2158
   84SLPC   H3X 7993   0.323   4.394   2.628  0.1519  1.0019  1.6329
   84SLPC   H3Y 7994   0.480   4.377   2.697  0.1450  0.7327 -0.1891
   84SLPC   C34 7995   0.303   4.342   2.828 -0.9107  1.1022  0.1850
   84SLPC   H4X 7996   0.227   4.261   2.837 -0.6351  0.5630 -1.9444
   84SLPC   H4Y 7997   0.261   4.444   2.842  0.4918  1.8307 -0.6959
   84SLPC   C35 7998   0.408   4.312   2.941 -0.1668  1.0759  0.3103
   84SLPC   H5X 7999   0.486   4.388   2.920  1.4945 -1.0544 -1.9552
   84SLPC   H5Y 8000   0.441   4.209   2.914 -0.8223  0.5587  1.4399
   84SLPC   C36 8001   0.350   4.321   3.078 -0.3735  0.0140 -0.2996
   84SLPC   H6X 8002   0.274   4.241   3.093  1.7860 -1.8703  1.1349
   84SLPC   H6Y 8003   0.296   4.418   3.091 -0.4972 -0.2602  1.3929
   84SLPC   C37 8004   0.450   4.286   3.182 -0.1000  0.7958 -0.6401
   84SLPC   H7X 8005   0.530   4.362   3.194  1.8069 -1.3154  1.0629
   84SLPC   H7Y 8006   0.494   4.187   3.154 -1.9041 -0.0533 -0.6236
   84SLPC   C38 8007   0.389   4.274   3.322  0.4981 -0.2092  0.6549
   84SLPC   H8X 8008   0.280   4.255   3.324  0.4310  0.1957  1.0472
   84SLPC   H8Y 8009   0.405   4.371   3.373 -2.1551  1.6400 -1.6706
   84SLPC   C39 8010   0.457   4.163   3.403  0.1838  0.1572 -0.4616
   84SLPC   H9X 8011   0.567   4.165   3.393  0.3385 -0.1702  0.9593
   84SLPC   H9Y 8012   0.418   4.073   3.350  2.6983 -0.6715 -1.0231
   84SLPC  C310 8013   0.449   4.190   3.552  0.8799 -0.0807 -0.3162
   84SLPC  H10X 8014   0.344   4.195   3.587  0.6685  3.1936 -1.0570
   84SLPC  H10Y 8015   0.483   4.295   3.567 -0.9023  0.2137  2.3375
   84SLPC  C311 8016   0.539   4.102   3.643 -0.1367  0.3037  0.2602
   84SLPC  H11X 8017   0.643   4.134   3.619  0.0921 -1.2178 -0.9554
   84SLPC  H11Y 8018   0.546   3.995   3.616 -0.5136  0.4801 -0.5470
   84SLPC  C312 8019   0.508   4.117   3.793  0.5641 -0.0795  0.4276
   84SLPC  H12X 8020   0.584   4.066   3.855  1.5920  1.9241  0.8955
   84SLPC  H12Y 8021   0.407   4.084   3.825 -1.1391  3.7219 -0.3665
   84SLPC  C313 8022   0.534   4.263   3.838 -0.1426 -0.1564  0.5309
   84SLPC  H13X 8023   0.479   4.327   3.766  0.0699  0.5912  1.0260
   84SLPC  H13Y 8024   0.641   4.281   3.816 -0.2733  0.8854  0.7178
   84SLPC  C314 8025   0.501   4.298   3.981 -0.5150 -0.0405  0.5818
   84SLPC  H14X 8026   0.393   4.299   4.006 -0.3469 -0.5251  1.3544
   84SLPC  H14Y 8027   0.525   4.405   4.000 -1.6210 -0.0061  1.9683
   84SLPC  C315 8028   0.562   4.210   4.086  0.0255  0.3334 -0.6568
   84SLPC  H15X 8029   0.543   4.103   4.064  1.0141  0.3455 -1.6411
   84SLPC  H15Y 8030   0.521   4.219   4.189  1.3337 -2.2012  0.1676
   84SLPC  C316 8031   0.715   4.233   4.097  0.1958  0.5411 -0.4633
   84SLPC  H16X 8032   0.742   4.327   4.149  1.4462 -0.5129  0.8773
   84SLPC  H16Y 8033   0.765   4.239   3.998  0.4316 -1.2714 -0.4821
   84SLPC  C317 8034   0.788   4.118   4.173  0.1382  0.8063 -0.3487
   84SLPC  H17X 8035   0.707   4.068   4.232  0.7281  2.0537  1.6081
   84SLPC  H17Y 8036   0.847   4.150   4.261  0.0649 -1.1082  0.4338
   84SLPC  C318 8037   0.863   4.010   4.093 -0.4250  0.0799  0.6185
   84SLPC  H18X 8038   0.794   3.965   4.018  0.9340 -0.0402 -0.6126
   84SLPC  H18Y 8039   0.913   3.930   4.152 -0.8796  0.0135  0.9174
   84SLPC  H18Z 8040   0.948   4.061   4.043 -0.1067  0.1906  1.2584
   85SLPC     N 8041   3.933   0.380   1.690 -0.3210  0.0678  0.3402
   85SLPC   C13 8042   3.867   0.513   1.696 -0.7173  0.1724  0.1199
   85SLPC  H13A 8043   3.932   0.581   1.644 -1.0866  0.2967 -0.1774
   85SLPC  H13B 8044   3.775   0.514   1.639  0.3087  2.2091 -1.6116
   85SLPC  H13C 8045   3.842   0.543   1.797 -2.3783  0.3536 -0.3168
   85SLPC   C14 8046   3.960   0.355   1.549  0.1497 -0.1182  0.6090
   85SLPC  H14A 8047   4.040   0.419   1.516  0.3934 -0.7120  0.0166
   85SLPC  H14B 8048   3.981   0.251   1.526 -0.4505  0.1085 -1.1241
   85SLPC  H14C 8049   3.879   0.373   1.480 -1.0373 -2.0966  1.4004
   85SLPC   C15 8050   3.834   0.281   1.739  0.4450  0.4725  0.2608
   85SLPC  H15A 8051   3.873   0.180   1.733  0.4246  0.4893 -0.1531
   85SLPC  H15B 8052   3.809   0.305   1.842  0.3345  0.4768  0.2336
   85SLPC  H15C 8053   3.741   0.276   1.684  0.8685  0.0683 -0.4244
   85SLPC   C12 8054   4.073   0.367   1.759  0.4060  0.6980 -0.6939
   85SLPC  H12A 8055   4.142   0.439   1.717 -0.2805 -0.1263 -3.4828
   85SLPC  H12B 8056   4.105   0.268   1.730  0.2285  1.0951 -2.3390
   85SLPC   C11 8057   4.088   0.381   1.914 -0.2040  0.1949 -0.0877
   85SLPC  H11A 8058   4.193   0.358   1.943 -0.2335  0.1822  0.0073
   85SLPC  H11B 8059   4.020   0.312   1.967 -0.1362  0.6536  0.6155
   85SLPC     P 8060   4.167   0.631   1.955  0.0331 -0.1817  0.4614
   85SLPC   O13 8061   4.281   0.593   1.865  0.3595 -0.9619 -0.1075
   85SLPC   O14 8062   4.090   0.757   1.933 -0.2015 -0.2752  0.1868
   85SLPC   O12 8063   4.058   0.516   1.946 -0.0800 -0.0686 -0.0459
   85SLPC   O11 8064   4.213   0.614   2.097 -0.0070  0.3498  0.1586
   85SLPC    C1 8065   4.282   0.731   2.153  0.3679  0.6807 -0.0540
   85SLPC    HA 8066   4.385   0.694   2.170 -0.0185 -0.2504  0.3532
   85SLPC    HB 8067   4.281   0.819   2.085 -1.9926  0.9480  0.2562
   85SLPC    C2 8068   4.229   0.774   2.300 -0.3339  0.0164 -0.0847
   85SLPC    HS 8069   4.267   0.875   2.326 -0.9742 -0.1018  1.4101
   85SLPC   O21 8070   4.268   0.680   2.397  0.5554 -0.0549 -0.4116
   85SLPC   C21 8071   4.393   0.695   2.429 -0.2561 -0.5297 -0.1677
   85SLPC   O22 8072   4.476   0.769   2.374  0.3616  0.8799  0.0241
   85SLPC   C22 8073   4.421   0.595   2.544 -0.5359 -0.0897 -0.2217
   85SLPC   H2R 8074   4.433   0.490   2.509  0.6741 -1.0962  2.8698
   85SLPC   H2S 8075   4.519   0.618   2.591 -0.4647 -0.4161 -0.2113
   85SLPC    C3 8076   4.073   0.792   2.306  0.4960  0.6980  0.1472
   85SLPC    HX 8077   4.027   0.696   2.274  0.6441  1.0501 -1.1906
   85SLPC    HY 8078   4.053   0.870   2.229 -1.1598 -1.1636 -1.3914
   85SLPC   O31 8079   4.012   0.823   2.437  0.3365 -0.0443 -0.2917
   85SLPC   C31 8080   4.029   0.942   2.481  0.2305 -0.0926  1.3324
   85SLPC   O32 8081   4.096   1.031   2.432  0.5184 -0.1087  0.2487
   85SLPC   C32 8082   3.960   0.955   2.622  0.2085  0.2059 -0.5440
   85SLPC   H2X 8083   3.998   0.867   2.678 -0.7526 -0.4196 -0.8377
   85SLPC   H2Y 8084   3.850   0.941   2.618  0.0472  0.7488  1.3735
   85SLPC   C23 8085   4.312   0.607   2.658  0.1280 -0.4836  0.0221
   85SLPC   H3R 8086   4.325   0.519   2.724 -1.6457 -0.8626 -0.0864
   85SLPC   H3S 8087   4.209   0.596   2.617  1.2016  0.2984 -3.1622
   85SLPC   C24 8088   4.331   0.741   2.734  0.5506 -0.0415  0.3207
   85SLPC   H4R 8089   4.300   0.823   2.667  3.3319  2.9066  2.3506
   85SLPC   H4S 8090   4.436   0.755   2.767  0.1101 -0.5720  2.0543
   85SLPC   C25 8091   4.235   0.754   2.855  0.2238 -0.2538  0.8766
   85SLPC   H5R 8092   4.226   0.862   2.875  2.6588  0.3504 -0.9117
   85SLPC   H5S 8093   4.130   0.727   2.827  0.1376 -2.4089  2.8915
   85SLPC   C26 8094   4.286   0.687   2.981 -0.6559  0.4773  0.9879
   85SLPC   H6R 8095   4.393   0.715   2.992  0.0971 -2.0162  0.5311
   85SLPC   H6S 8096   4.268   0.579   2.963 -1.4459  0.7220  0.2363
   85SLPC   C27 8097   4.225   0.722   3.114  0.0027 -0.4111 -0.4085
   85SLPC   H7R 8098   4.117   0.695   3.114 -0.6233  1.8701 -0.0263
   85SLPC   H7S 8099   4.212   0.832   3.129 -1.1265 -0.7843  1.9318
   85SLPC   C28 8100   4.304   0.664   3.231 -0.2803 -0.1186  0.0316
   85SLPC   H8R 8101   4.411   0.691   3.226  0.0690 -0.5674  3.0890
   85SLPC   H8S 8102   4.306   0.553   3.232  0.2150 -0.2462 -3.7072
   85SLPC   C29 8103   4.232   0.696   3.362  0.3159 -0.9525 -0.3889
   85SLPC   H9R 8104   4.126   0.727   3.364  0.2283 -1.2869  0.9281
   85SLPC  C210 8105   4.282   0.674   3.483  0.3447  0.4501  0.1842
   85SLPC  H10R 8106   4.221   0.684   3.573 -0.4141  2.8757 -0.5224
   85SLPC  C211 8107   4.418   0.612   3.514 -0.7014  0.0447 -0.3833
   85SLPC  H11R 8108   4.465   0.567   3.424  1.7344  1.0915  0.2722
   85SLPC  H11S 8109   4.415   0.531   3.589 -0.2899  1.4954  1.2607
   85SLPC  C212 8110   4.507   0.724   3.559 -0.2332  0.3071  0.1667
   85SLPC  H12R 8111   4.497   0.820   3.506  2.3041  0.3946 -0.2742
   85SLPC  C213 8112   4.608   0.725   3.657 -0.2731 -0.8515  0.5959
   85SLPC  H13R 8113   4.662   0.818   3.677  0.2084 -1.1536  0.7272
   85SLPC  C214 8114   4.656   0.609   3.750  0.9343 -0.4419 -0.0141
   85SLPC  H14R 8115   4.753   0.573   3.710  0.3376  0.1188 -2.0973
   85SLPC  H14S 8116   4.586   0.523   3.748  1.3206 -0.7526 -0.3772
   85SLPC  C215 8117   4.677   0.656   3.895  0.4716 -0.0840  0.4685
   85SLPC  H15R 8118   4.757   0.733   3.899  0.9730 -0.4866 -0.9894
   85SLPC  H15S 8119   4.723   0.573   3.951  2.0426 -1.3694 -2.5073
   85SLPC  C216 8120   4.548   0.698   3.971  0.1604 -0.3917 -0.3844
   85SLPC  H16R 8121   4.481   0.752   3.901 -0.3059 -0.4905 -0.0207
   85SLPC  H16S 8122   4.564   0.771   4.054 -1.0984 -2.1679  1.5160
   85SLPC  C217 8123   4.466   0.576   4.028  0.1545  0.9430 -0.2647
   85SLPC  H17R 8124   4.535   0.518   4.093  0.4581 -1.1658 -2.3098
   85SLPC  H17S 8125   4.451   0.511   3.939 -0.4140  2.2488 -1.1590
   85SLPC  C218 8126   4.326   0.609   4.082  0.0059 -0.7551  0.5458
   85SLPC  H18R 8127   4.271   0.654   3.996  2.8362  0.3357 -0.7976
   85SLPC  H18S 8128   4.322   0.686   4.162 -0.8056 -0.7361  0.5002
   85SLPC  H18T 8129   4.254   0.527   4.103 -1.5563 -0.3053 -2.5445
   85SLPC   C33 8130   4.006   1.074   2.693 -0.3871 -0.7045  0.1073
   85SLPC   H3X 8131   3.990   1.163   2.628  0.5721 -0.3072  0.3873
   85SLPC   H3Y 8132   4.115   1.075   2.713  0.0158  1.4052 -1.7705
   85SLPC   C34 8133   3.938   1.112   2.824  0.0191 -0.7313 -0.2826
   85SLPC   H4X 8134   3.831   1.088   2.804 -1.0354  1.0851  2.6050
   85SLPC   H4Y 8135   3.952   1.219   2.850  2.2006 -1.2885  1.0318
   85SLPC   C35 8136   3.987   1.036   2.942  0.5847  0.1746 -0.8398
   85SLPC   H5X 8137   4.092   1.056   2.971  0.6655 -2.5466  1.1737
   85SLPC   H5Y 8138   3.990   0.927   2.923 -0.2747 -0.1020  0.4241
   85SLPC   C36 8139   3.897   1.074   3.066 -0.2062 -0.5427  0.1360
   85SLPC   H6X 8140   3.795   1.047   3.031  0.1493 -0.4713 -1.0135
   85SLPC   H6Y 8141   3.919   1.182   3.077 -0.3337 -0.4228 -0.7240
   85SLPC   C37 8142   3.932   0.988   3.191 -0.2802 -0.1511 -0.3745
   85SLPC   H7X 8143   4.035   0.953   3.171 -1.1125 -2.8296 -0.3782
   85SLPC   H7Y 8144   3.864   0.900   3.198 -1.2449  0.6066  0.0614
   85SLPC   C38 8145   3.930   1.076   3.320  0.0176 -0.1182 -0.0294
   85SLPC   H8X 8146   3.827   1.115   3.336 -0.3175  0.3151 -2.7192
   85SLPC   H8Y 8147   3.997   1.162   3.299 -0.3602  0.3731  0.7304
   85SLPC   C39 8148   3.982   1.003   3.448 -0.6631  0.3614  0.6278
   85SLPC   H9X 8149   4.056   0.930   3.409 -2.2956 -0.5066 -0.9967
   85SLPC   H9Y 8150   3.896   0.953   3.496 -0.5886  0.1936  0.5861
   85SLPC  C310 8151   4.045   1.091   3.557 -0.1778  0.7953 -0.1963
   85SLPC  H10X 8152   3.976   1.174   3.585 -1.8272 -0.5202 -0.1918
   85SLPC  H10Y 8153   4.136   1.131   3.508  0.7900 -1.2935 -0.2004
   85SLPC  C311 8154   4.082   1.008   3.679  0.5545  0.4614  0.9451
   85SLPC  H11X 8155   4.137   0.919   3.641 -2.0166 -0.7606 -0.1467
   85SLPC  H11Y 8156   3.987   0.978   3.728  0.6749  0.1759  1.0026
   85SLPC  C312 8157   4.156   1.101   3.783  0.4325  0.1469  0.0431
   85SLPC  H12X 8158   4.092   1.183   3.821 -1.6422 -2.2850  2.2056
   85SLPC  H12Y 8159   4.241   1.144   3.727  0.8911  1.5792  1.7296
   85SLPC  C313 8160   4.200   1.016   3.903 -0.1169 -0.3211 -0.8104
   85SLPC  H13X 8161   4.262   0.929   3.874  1.2300 -0.3589  1.8312
   85SLPC  H13Y 8162   4.104   0.984   3.949 -0.7589 -0.7413 -2.3600
   85SLPC  C314 8163   4.277   1.099   4.007 -0.0592  0.1696  0.0159
   85SLPC  H14X 8164   4.223   1.190   4.041 -0.5108 -0.6937  1.7644
   85SLPC  H14Y 8165   4.360   1.133   3.942  1.4908 -2.2131  0.6256
   85SLPC  C315 8166   4.335   1.020   4.123  0.6424 -0.2051 -0.4576
   85SLPC  H15X 8167   4.413   0.957   4.075  0.4875  1.2905 -2.7940
   85SLPC  H15Y 8168   4.256   0.955   4.166  0.3671 -0.4553 -1.3356
   85SLPC  C316 8169   4.391   1.114   4.239  0.5364  0.0969  0.5494
   85SLPC  H16X 8170   4.307   1.173   4.281 -0.7905 -0.6928 -0.8799
   85SLPC  H16Y 8171   4.467   1.175   4.186  1.6395 -0.3312  1.5867
   85SLPC  C317 8172   4.466   1.027   4.343  0.2590 -0.4146 -0.1056
   85SLPC  H17X 8173   4.505   1.092   4.425 -1.4743  0.6265 -0.0507
   85SLPC  H17Y 8174   4.552   0.973   4.299  0.7788 -0.4336  0.8887
   85SLPC  C318 8175   4.379   0.927   4.417 -0.3001 -0.1278  1.2272
   85SLPC  H18X 8176   4.451   0.869   4.478  0.5888  0.7839  1.0758
   85SLPC  H18Y 8177   4.337   0.860   4.340 -0.6915  0.9819  0.4406
   85SLPC  H18Z 8178   4.305   0.986   4.476 -0.8447 -0.0675  0.4946
   86SLPC     N 8179   0.071   2.007   2.419 -0.7675 -0.0598  0.0534
   86SLPC   C13 8180   0.036   1.905   2.315  0.1940 -0.3239  0.2479
   86SLPC  H13A 8181  -0.064   1.864   2.309  0.2046 -0.1233 -2.7644
   86SLPC  H13B 8182   0.061   1.946   2.219  1.5674  0.1630  0.7806
   86SLPC  H13C 8183   0.092   1.813   2.322  0.8490  0.0862  0.4518
   86SLPC   C14 8184   0.219   1.993   2.435  0.5657 -0.3137 -0.4047
   86SLPC  H14A 8185   0.266   2.004   2.338 -0.7501 -2.7349 -1.4311
   86SLPC  H14B 8186   0.256   2.082   2.483  0.6183  1.2773 -3.1908
   86SLPC  H14C 8187   0.265   1.909   2.485  0.4113  0.8395  1.8032
   86SLPC   C15 8188   0.005   1.970   2.545 -0.1318  0.4370 -0.9020
   86SLPC  H15A 8189  -0.102   1.967   2.536 -0.4597  1.1895  1.8019
   86SLPC  H15B 8190   0.040   1.874   2.578 -1.2115 -0.2140 -1.6001
   86SLPC  H15C 8191   0.024   2.041   2.625 -0.3600 -1.1176  0.6035
   86SLPC   C12 8192   0.042   2.147   2.367  0.3394  0.4297  0.3324
   86SLPC  H12A 8193  -0.062   2.151   2.336 -0.1013  0.6163  1.7543
   86SLPC  H12B 8194   0.085   2.154   2.269 -0.7549 -1.2787 -0.2993
   86SLPC   C11 8195   0.070   2.269   2.455 -0.1072 -0.2323 -0.0734
   86SLPC  H11A 8196   0.015   2.255   2.551  1.2219 -0.5616  0.6529
   86SLPC  H11B 8197   0.025   2.359   2.408 -1.0074 -1.1104 -0.9609
   86SLPC     P 8198   0.298   2.377   2.380 -0.2465 -0.5733  0.1111
   86SLPC   O13 8199   0.423   2.414   2.450 -0.3257 -0.1611 -0.4124
   86SLPC   O14 8200   0.316   2.323   2.245  0.2771  0.0302  0.0399
   86SLPC   O12 8201   0.213   2.282   2.475  0.0943  0.5353  0.6479
   86SLPC   O11 8202   0.207   2.503   2.363 -0.2697  0.2925  0.0924
   86SLPC    C1 8203   0.247   2.627   2.419 -0.3144  0.8400 -0.9890
   86SLPC    HA 8204   0.350   2.665   2.398  0.7218 -0.0255  1.9432
   86SLPC    HB 8205   0.183   2.715   2.396  1.6041  2.7256  0.4199
   86SLPC    C2 8206   0.237   2.625   2.572 -0.6100  0.1983 -0.1351
   86SLPC    HS 8207   0.308   2.544   2.599 -0.8537 -1.1726 -3.1611
   86SLPC   O21 8208   0.094   2.610   2.603 -0.4170 -0.0175 -0.0373
   86SLPC   C21 8209   0.075   2.534   2.711 -0.4261 -0.5208  0.2653
   86SLPC   O22 8210   0.163   2.502   2.788 -0.3791  0.0596 -1.1093
   86SLPC   C22 8211  -0.072   2.491   2.710  0.7754 -0.2527 -0.1512
   86SLPC   H2R 8212  -0.135   2.582   2.704  2.2120  0.7891 -0.0287
   86SLPC   H2S 8213  -0.087   2.435   2.615  0.1976 -0.0374 -0.1927
   86SLPC    C3 8214   0.295   2.752   2.635 -0.1187  0.1485 -0.1852
   86SLPC    HX 8215   0.236   2.831   2.584  0.5020  0.5443 -0.3049
   86SLPC    HY 8216   0.401   2.749   2.602 -0.5361 -2.1301 -1.5094
   86SLPC   O31 8217   0.276   2.764   2.777 -0.3908  0.2215  0.4092
   86SLPC   C31 8218   0.375   2.721   2.850  0.4884  0.0708 -0.6582
   86SLPC   O32 8219   0.486   2.684   2.812  0.1746  0.2183 -0.2019
   86SLPC   C32 8220   0.331   2.742   2.992 -0.6363  0.0969  0.3075
   86SLPC   H2X 8221   0.266   2.653   3.007  0.4750 -0.9861 -0.9815
   86SLPC   H2Y 8222   0.272   2.834   3.008  2.5806  2.5040 -0.4931
   86SLPC   C23 8223  -0.095   2.399   2.831 -0.1158  0.5437  0.3554
   86SLPC   H3R 8224  -0.030   2.309   2.834 -0.3520  0.2296 -1.7782
   86SLPC   H3S 8225  -0.197   2.356   2.818  0.5215 -1.1280  0.5334
   86SLPC   C24 8226  -0.100   2.465   2.972 -0.3585  0.1589  0.6837
   86SLPC   H4R 8227  -0.176   2.546   2.976 -3.1903 -2.0240 -2.8485
   86SLPC   H4S 8228  -0.001   2.509   2.998 -0.3233  0.6341 -0.2053
   86SLPC   C25 8229  -0.151   2.363   3.079 -0.2733  0.5103  0.8813
   86SLPC   H5R 8230  -0.070   2.287   3.081 -0.3239  0.4616  1.5075
   86SLPC   H5S 8231  -0.249   2.331   3.040  1.2717 -1.2824 -1.8307
   86SLPC   C26 8232  -0.160   2.421   3.222  0.7447  0.9577 -0.0992
   86SLPC   H6R 8233  -0.234   2.505   3.224  0.1907  0.4676  1.9359
   86SLPC   H6S 8234  -0.062   2.464   3.253  0.9738 -0.2740  0.9503
   86SLPC   C27 8235  -0.203   2.314   3.327 -0.6103  0.0950  0.1789
   86SLPC   H7R 8236  -0.127   2.233   3.326  0.5661  1.1384  1.3974
   86SLPC   H7S 8237  -0.294   2.258   3.296 -1.5859  1.3109  0.7686
   86SLPC   C28 8238  -0.229   2.379   3.464  1.2243  0.1583  0.2072
   86SLPC   H8R 8239  -0.292   2.310   3.525  2.2313  0.5240  1.7186
   86SLPC   H8S 8240  -0.297   2.464   3.444  0.1914 -0.5030  0.7989
   86SLPC   C29 8241  -0.108   2.439   3.527 -0.0433 -0.2667 -0.2943
   86SLPC   H9R 8242  -0.051   2.514   3.469  1.2693 -0.8052  0.2566
   86SLPC  C210 8243  -0.075   2.408   3.652 -0.7035 -0.1405 -0.6318
   86SLPC  H10R 8244   0.027   2.437   3.684  0.0718 -0.0416 -3.0196
   86SLPC  C211 8245  -0.150   2.326   3.756  0.0542 -0.7944  0.1314
   86SLPC  H11R 8246  -0.083   2.331   3.845 -2.2083  0.4314  1.8731
   86SLPC  H11S 8247  -0.165   2.221   3.724  1.5609 -0.5978 -1.3379
   86SLPC  C212 8248  -0.280   2.386   3.798  0.0149 -0.1390  0.1460
   86SLPC  H12R 8249  -0.362   2.367   3.728  0.3095  1.2016 -0.6102
   86SLPC  C213 8250  -0.303   2.452   3.912  0.0641  0.6640  0.1223
   86SLPC  H13R 8251  -0.399   2.499   3.938  0.4037  1.2723  0.2891
   86SLPC  C214 8252  -0.202   2.470   4.028  0.7397  1.1120 -0.0098
   86SLPC  H14R 8253  -0.131   2.551   4.000  5.2154 -2.4626 -0.1237
   86SLPC  H14S 8254  -0.130   2.386   4.034  0.9508  1.3403  0.6464
   86SLPC  C215 8255  -0.265   2.505   4.168 -0.1692 -0.3391  0.4698
   86SLPC  H15R 8256  -0.193   2.500   4.252  0.8097  0.0684 -0.3258
   86SLPC  H15S 8257  -0.354   2.446   4.198 -0.7571  0.7691  0.9752
   86SLPC  C216 8258  -0.332   2.643   4.163 -0.7382  0.1885 -0.0210
   86SLPC  H16R 8259  -0.408   2.641   4.082 -0.0566 -2.7717 -0.6865
   86SLPC  H16S 8260  -0.255   2.721   4.142 -0.5521  0.1592  0.5209
   86SLPC  C217 8261  -0.402   2.676   4.291  0.1766  0.0160 -0.1114
   86SLPC  H17R 8262  -0.330   2.690   4.374  1.8232  2.6073 -1.8284
   86SLPC  H17S 8263  -0.464   2.585   4.305  0.1053 -0.1101 -1.1685
   86SLPC  C218 8264  -0.467   2.810   4.283 -0.0548 -0.1778 -0.5025
   86SLPC  H18R 8265  -0.493   2.839   4.387  0.8090  0.1264 -0.3707
   86SLPC  H18S 8266  -0.565   2.788   4.235 -0.8598  1.3493  0.3564
   86SLPC  H18T 8267  -0.408   2.894   4.242  0.7712  0.1391  1.2559
   86SLPC   C33 8268   0.460   2.742   3.083 -0.3130 -0.0205 -0.5742
   86SLPC   H3X 8269   0.513   2.836   3.055  0.5371 -0.0523  0.8470
   86SLPC   H3Y 8270   0.522   2.654   3.056  1.2615  1.3163 -1.4888
   86SLPC   C34 8271   0.426   2.732   3.229 -0.1002 -0.4419 -0.4171
   86SLPC   H4X 8272   0.349   2.655   3.248  1.6635 -2.3135 -0.5574
   86SLPC   H4Y 8273   0.380   2.829   3.258 -0.1880 -0.5844 -0.0820
   86SLPC   C35 8274   0.546   2.713   3.323 -0.6810  0.6166  0.0644
   86SLPC   H5X 8275   0.625   2.773   3.272 -0.0935  0.5889  0.9006
   86SLPC   H5Y 8276   0.577   2.606   3.326 -0.4886  0.6332 -1.0725
   86SLPC   C36 8277   0.526   2.751   3.468  0.0609  0.0677 -0.2650
   86SLPC   H6X 8278   0.452   2.681   3.514  0.3210 -1.2389 -1.7455
   86SLPC   H6Y 8279   0.479   2.851   3.473 -1.6404 -0.7549  1.9734
   86SLPC   C37 8280   0.660   2.748   3.547  0.5725 -0.0483  0.2549
   86SLPC   H7X 8281   0.723   2.829   3.503  1.5884 -0.8160  0.2521
   86SLPC   H7Y 8282   0.699   2.649   3.516  0.2259  0.0020 -0.3757
   86SLPC   C38 8283   0.634   2.762   3.698  0.2441 -0.1559 -0.7057
   86SLPC   H8X 8284   0.728   2.733   3.750 -0.4480 -1.7489 -0.2751
   86SLPC   H8Y 8285   0.563   2.681   3.728  2.9246 -2.1329  0.7191
   86SLPC   C39 8286   0.587   2.906   3.745  0.2732 -0.0272 -0.1499
   86SLPC   H9X 8287   0.490   2.934   3.700  0.5987  0.3849 -0.5973
   86SLPC   H9Y 8288   0.657   2.980   3.702 -2.0065  2.1515 -0.3377
   86SLPC  C310 8289   0.593   2.923   3.888  0.3102 -0.5171  0.1679
   86SLPC  H10X 8290   0.659   2.850   3.940 -0.5494 -0.8722  0.7807
   86SLPC  H10Y 8291   0.493   2.906   3.933  0.3820  0.3463  0.6856
   86SLPC  C311 8292   0.628   3.066   3.935 -0.9107 -0.2054 -0.0473
   86SLPC  H11X 8293   0.600   3.146   3.863 -0.7729 -0.8228 -0.8040
   86SLPC  H11Y 8294   0.739   3.067   3.935 -0.8073 -0.6884  3.0344
   86SLPC  C312 8295   0.576   3.105   4.072 -0.2254 -0.0992 -0.4497
   86SLPC  H12X 8296   0.615   3.028   4.142  0.9893  1.5409  0.7472
   86SLPC  H12Y 8297   0.467   3.091   4.084 -0.1733 -0.9060 -0.8547
   86SLPC  C313 8298   0.608   3.251   4.117  0.2915  0.4960  0.1093
   86SLPC  H13X 8299   0.545   3.325   4.064 -1.0901 -0.1482  0.8227
   86SLPC  H13Y 8300   0.711   3.282   4.088 -0.5272  1.7497 -1.6059
   86SLPC  C314 8301   0.591   3.271   4.263 -0.2678 -0.0094  0.3366
   86SLPC  H14X 8302   0.600   3.376   4.298 -0.4060  0.1176 -0.0104
   86SLPC  H14Y 8303   0.679   3.221   4.309 -0.0153 -1.6789 -1.8294
   86SLPC  C315 8304   0.452   3.230   4.319 -0.6489  0.0822 -0.1565
   86SLPC  H15X 8305   0.375   3.253   4.242 -1.3417 -1.9906 -0.1216
   86SLPC  H15Y 8306   0.426   3.299   4.403 -0.4028 -0.8982  0.7462
   86SLPC  C316 8307   0.445   3.096   4.394  0.1015 -0.0615 -0.6156
   86SLPC  H16X 8308   0.532   3.091   4.464 -0.9597 -0.3707  0.7204
   86SLPC  H16Y 8309   0.445   3.020   4.314 -2.1506 -0.1363 -0.5996
   86SLPC  C317 8310   0.318   3.088   4.480  0.0980  0.3605  0.6981
   86SLPC  H17X 8311   0.237   3.128   4.416  0.0564 -2.0995 -0.9537
   86SLPC  H17Y 8312   0.345   3.153   4.566 -0.9613 -0.5780  1.7754
   86SLPC  C318 8313   0.279   2.946   4.524  0.2216  0.3748 -0.1624
   86SLPC  H18X 8314   0.349   2.907   4.601  0.4011  0.0503 -0.4880
   86SLPC  H18Y 8315   0.282   2.885   4.431  3.7951 -0.5017  0.3983
   86SLPC  H18Z 8316   0.179   2.954   4.573 -0.3772  0.1549 -1.3037
   87SLPC     N 8317   5.318   4.581   1.808  0.0439 -0.0802 -0.5385
   87SLPC   C13 8318   5.304   4.593   1.656  0.2324 -0.4266 -0.1893
   87SLPC  H13A 8319   5.377   4.532   1.604 -1.7560 -2.9091 -0.2397
   87SLPC  H13B 8320   5.200   4.579   1.629 -0.4087  0.8248  1.4589
   87SLPC  H13C 8321   5.328   4.698   1.644  0.5448 -0.2163  1.9419
   87SLPC   C14 8322   5.220   4.677   1.865 -0.5282 -0.2264 -0.0184
   87SLPC  H14A 8323   5.227   4.776   1.825 -0.8781 -0.1008  0.2265
   87SLPC  H14B 8324   5.117   4.649   1.844 -1.0057  1.8890 -0.7484
   87SLPC  H14C 8325   5.222   4.677   1.973 -0.0522 -2.9045  0.0518
   87SLPC   C15 8326   5.464   4.609   1.856  0.8739  0.3015 -0.7267
   87SLPC  H15A 8327   5.489   4.568   1.953 -1.4263  0.4775 -0.0030
   87SLPC  H15B 8328   5.539   4.563   1.793 -0.1565  0.3901 -2.0565
   87SLPC  H15C 8329   5.484   4.715   1.860  3.2953 -0.1070 -0.8096
   87SLPC   C12 8330   5.280   4.440   1.841 -0.0509 -0.1946  0.3006
   87SLPC  H12A 8331   5.371   4.386   1.821 -0.1731 -2.3195  4.5001
   87SLPC  H12B 8332   5.203   4.421   1.768  1.4415 -1.0557 -1.1186
   87SLPC   C11 8333   5.250   4.395   1.987  0.2875  0.7184 -0.5235
   87SLPC  H11A 8334   5.224   4.287   1.987 -0.6595  0.9323 -0.0312
   87SLPC  H11B 8335   5.156   4.440   2.026  0.0609 -2.1464  2.7530
   87SLPC     P 8336   5.468   4.328   2.117  0.0426 -0.3118 -0.0849
   87SLPC   O13 8337   5.404   4.238   2.214  0.3159  0.3962 -0.7011
   87SLPC   O14 8338   5.521   4.273   1.991 -0.1744  0.5079 -0.5226
   87SLPC   O12 8339   5.356   4.430   2.075 -0.0206 -0.6671  0.2920
   87SLPC   O11 8340   5.570   4.423   2.187 -0.6313 -0.2085 -0.5873
   87SLPC    C1 8341   5.668   4.378   2.270 -0.7290  0.7744 -0.0420
   87SLPC    HA 8342   5.693   4.272   2.245 -2.3472 -0.1489  1.9815
   87SLPC    HB 8343   5.764   4.428   2.247 -0.8783  0.1454 -2.2400
   87SLPC    C2 8344   5.623   4.386   2.413  0.2660 -0.1763 -0.3852
   87SLPC    HS 8345   5.537   4.316   2.416 -0.0798 -0.1961 -4.5598
   87SLPC   O21 8346   5.598   4.522   2.454 -0.6092  0.1273 -0.4198
   87SLPC   C21 8347   5.479   4.565   2.443 -0.1829 -0.1647 -0.3904
   87SLPC   O22 8348   5.380   4.504   2.404 -0.1767 -0.3562  0.2513
   87SLPC   C22 8349   5.493   4.709   2.490  0.2296 -0.2174 -0.3433
   87SLPC   H2R 8350   5.594   4.734   2.531  0.0032 -0.3044  0.2864
   87SLPC   H2S 8351   5.482   4.780   2.406 -0.5294 -0.0752 -0.1238
   87SLPC    C3 8352   5.725   4.326   2.520 -0.9949 -0.2079  0.7938
   87SLPC    HX 8353   5.822   4.378   2.507 -0.2360 -1.7507  0.1312
   87SLPC    HY 8354   5.731   4.219   2.493 -0.6828  0.3584 -1.6111
   87SLPC   O31 8355   5.687   4.334   2.657 -0.2022  0.1721  0.7036
   87SLPC   C31 8356   5.615   4.242   2.716 -0.3525  0.1704  0.2975
   87SLPC   O32 8357   5.563   4.142   2.667 -0.3395 -0.5030  0.1107
   87SLPC   C32 8358   5.591   4.287   2.859 -0.2812  0.1706 -0.4008
   87SLPC   H2X 8359   5.560   4.393   2.855  0.7274  0.4296 -1.9841
   87SLPC   H2Y 8360   5.687   4.270   2.913  0.1811  2.5050 -0.3822
   87SLPC   C23 8361   5.381   4.744   2.592 -0.6374 -0.0416  0.0379
   87SLPC   H3R 8362   5.288   4.688   2.571 -1.2817  1.4813 -1.4688
   87SLPC   H3S 8363   5.367   4.854   2.578  1.0526  0.5883  2.6041
   87SLPC   C24 8364   5.431   4.715   2.732  0.1397  0.1027  0.0395
   87SLPC   H4R 8365   5.521   4.769   2.770 -0.4010  0.0303  1.4874
   87SLPC   H4S 8366   5.465   4.610   2.744  1.7398  0.6926  1.0451
   87SLPC   C25 8367   5.330   4.733   2.854 -0.1958 -0.2902 -0.2875
   87SLPC   H5R 8368   5.242   4.668   2.835 -0.6081  0.0232  0.5046
   87SLPC   H5S 8369   5.294   4.836   2.875 -0.8991 -0.3425 -1.1755
   87SLPC   C26 8370   5.400   4.685   2.983 -0.2960  0.5890  0.2467
   87SLPC   H6R 8371   5.473   4.759   3.021 -0.9063  2.5939 -2.2783
   87SLPC   H6S 8372   5.438   4.584   2.955 -0.5756  0.4868  0.2277
   87SLPC   C27 8373   5.302   4.664   3.100  0.2524  0.9157 -0.2531
   87SLPC   H7R 8374   5.219   4.595   3.075 -1.6349  2.5502  1.1579
   87SLPC   H7S 8375   5.262   4.768   3.103  0.4027  0.9628  0.1239
   87SLPC   C28 8376   5.359   4.614   3.230 -0.9363  0.3130  0.0871
   87SLPC   H8R 8377   5.440   4.673   3.278  0.3952  0.2573 -1.9876
   87SLPC   H8S 8378   5.397   4.510   3.224 -2.1505 -0.1543  0.2839
   87SLPC   C29 8379   5.242   4.607   3.333  0.1408  0.2539  1.1683
   87SLPC   H9R 8380   5.168   4.532   3.303  0.4045  0.9533 -1.4662
   87SLPC  C210 8381   5.212   4.708   3.419 -0.4446  0.0994  0.2197
   87SLPC  H10R 8382   5.118   4.686   3.471 -0.9128  1.7666  0.1204
   87SLPC  C211 8383   5.299   4.826   3.468  0.1440  0.4252  0.7399
   87SLPC  H11R 8384   5.224   4.908   3.467 -0.1723  0.1873 -1.4063
   87SLPC  H11S 8385   5.371   4.844   3.385  0.6470 -0.4506  0.9680
   87SLPC  C212 8386   5.390   4.823   3.589  0.2343 -1.0355  0.3936
   87SLPC  H12R 8387   5.478   4.758   3.584  0.4801 -0.7106  0.4632
   87SLPC  C213 8388   5.366   4.906   3.694 -0.3931 -0.1778  0.3001
   87SLPC  H13R 8389   5.437   4.909   3.779  0.0743 -0.0842 -0.0890
   87SLPC  C214 8390   5.274   5.017   3.717 -0.4857  0.2775 -0.2755
   87SLPC  H14R 8391   5.248   5.053   3.615  3.0614 -0.0452 -1.3985
   87SLPC  H14S 8392   5.313   5.108   3.766  1.7351  0.2375 -1.8198
   87SLPC  C215 8393   5.151   4.971   3.793  0.1905  0.0092  0.6184
   87SLPC  H15R 8394   5.088   4.930   3.712  0.1869  1.9048 -0.4018
   87SLPC  H15S 8395   5.113   5.071   3.824  0.4856  0.7243 -1.2024
   87SLPC  C216 8396   5.159   4.872   3.914 -0.0912  0.1423 -0.9149
   87SLPC  H16R 8397   5.193   4.775   3.872  1.6810  0.6730 -0.7747
   87SLPC  H16S 8398   5.061   4.871   3.968  0.6910  0.8234  0.5771
   87SLPC  C217 8399   5.256   4.914   4.027  0.3986 -0.0148 -0.2079
   87SLPC  H17R 8400   5.238   5.022   4.047 -1.8987 -0.6017  1.3499
   87SLPC  H17S 8401   5.361   4.895   3.998  0.2686  2.8320 -3.1619
   87SLPC  C218 8402   5.239   4.834   4.149 -0.1542 -0.0723  0.1138
   87SLPC  H18R 8403   5.294   4.876   4.235 -0.6656 -0.7551  0.7947
   87SLPC  H18S 8404   5.280   4.731   4.155  0.6752  0.2415 -0.0348
   87SLPC  H18T 8405   5.134   4.828   4.186 -0.2585 -2.0468 -0.3618
   87SLPC   C33 8406   5.480   4.201   2.925 -0.8445  0.3011  0.4004
   87SLPC   H3X 8407   5.505   4.093   2.919  1.5715  0.8252  0.0270
   87SLPC   H3Y 8408   5.390   4.226   2.864  0.6532  3.3621 -0.7645
   87SLPC   C34 8409   5.452   4.252   3.069  0.3288  0.0110  0.5717
   87SLPC   H4X 8410   5.345   4.246   3.095  0.5106  0.1958  1.3956
   87SLPC   H4Y 8411   5.474   4.360   3.079 -2.0334  0.7321 -1.1750
   87SLPC   C35 8412   5.538   4.182   3.175  0.3011  0.2439  1.8561
   87SLPC   H5X 8413   5.646   4.182   3.148 -0.0829 -0.7640  0.1770
   87SLPC   H5Y 8414   5.518   4.073   3.175  0.5458  0.1627  0.2420
   87SLPC   C36 8415   5.536   4.238   3.314  0.7157  0.0299  0.1275
   87SLPC   H6X 8416   5.554   4.346   3.295  2.3464 -0.5595 -2.1331
   87SLPC   H6Y 8417   5.628   4.210   3.370  2.9011 -0.4427 -3.4088
   87SLPC   C37 8418   5.404   4.230   3.390  0.1584  0.1399 -0.0318
   87SLPC   H7X 8419   5.365   4.126   3.385  1.0860 -0.1637 -1.3132
   87SLPC   H7Y 8420   5.330   4.299   3.343  0.6248  1.0110  0.4909
   87SLPC   C38 8421   5.419   4.277   3.538 -0.2765  0.0028 -0.0219
   87SLPC   H8X 8422   5.445   4.385   3.536 -0.2477 -0.0035 -0.0226
   87SLPC   H8Y 8423   5.501   4.216   3.581  0.3614  0.5368 -0.4451
   87SLPC   C39 8424   5.290   4.255   3.614 -0.0173  0.4404  0.0115
   87SLPC   H9X 8425   5.320   4.192   3.701  1.5090  2.5181  1.0962
   87SLPC   H9Y 8426   5.217   4.206   3.547 -1.0159  0.7729  0.8283
   87SLPC  C310 8427   5.228   4.388   3.671 -0.0491  0.9523  0.6478
   87SLPC  H10X 8428   5.137   4.365   3.730 -2.2324  3.9428 -1.2830
   87SLPC  H10Y 8429   5.196   4.438   3.578 -2.4622 -2.2531 -0.4037
   87SLPC  C311 8430   5.309   4.487   3.749 -0.6908 -0.0414  0.6546
   87SLPC  H11X 8431   5.237   4.562   3.787 -0.2655 -0.3716  2.1740
   87SLPC  H11Y 8432   5.385   4.537   3.684 -0.4608 -1.0954  0.0843
   87SLPC  C312 8433   5.378   4.420   3.868 -0.3992  0.5843 -0.0122
   87SLPC  H12X 8434   5.432   4.330   3.830 -1.9942  0.4924 -2.2606
   87SLPC  H12Y 8435   5.302   4.373   3.935  0.6155 -0.1839  0.6348
   87SLPC  C313 8436   5.493   4.496   3.941 -0.0762 -0.0084 -0.3231
   87SLPC  H13X 8437   5.457   4.599   3.962 -0.6731 -0.2783  0.0146
   87SLPC  H13Y 8438   5.581   4.511   3.875 -0.3577  4.7165  0.0795
   87SLPC  C314 8439   5.533   4.429   4.075 -0.0384  0.8194 -0.0038
   87SLPC  H14X 8440   5.572   4.327   4.057 -2.5133 -0.3199  0.7067
   87SLPC  H14Y 8441   5.444   4.407   4.137  0.2296  2.5845  1.0909
   87SLPC  C315 8442   5.640   4.504   4.160 -0.3060 -0.5116 -0.3205
   87SLPC  H15X 8443   5.605   4.602   4.199  0.9942  0.4220 -1.4316
   87SLPC  H15Y 8444   5.724   4.524   4.092  0.7076 -2.1179  0.3989
   87SLPC  C316 8445   5.706   4.414   4.271 -0.3771 -0.7039 -0.1773
   87SLPC  H16X 8446   5.782   4.481   4.316 -0.8546 -0.8186  0.8335
   87SLPC  H16Y 8447   5.759   4.337   4.211 -1.4841 -2.7402  1.3222
   87SLPC  C317 8448   5.618   4.367   4.385 -0.8163 -0.1302 -0.2824
   87SLPC  H17X 8449   5.668   4.295   4.453 -3.3485 -1.8572 -0.1364
   87SLPC  H17Y 8450   5.531   4.312   4.344  0.2110 -1.2738 -1.0308
   87SLPC  C318 8451   5.565   4.476   4.474  0.2375  0.1826  0.0656
   87SLPC  H18X 8452   5.525   4.449   4.574 -3.5480  0.9743 -1.0717
   87SLPC  H18Y 8453   5.480   4.521   4.418  1.0959  0.6798 -0.8675
   87SLPC  H18Z 8454   5.636   4.558   4.497  1.3540 -0.8738  0.4281
   88SLPC     N 8455   5.525   3.899   2.024 -0.1204 -0.0194 -0.0243
   88SLPC   C13 8456   5.482   3.920   1.883  1.0208  0.2397 -0.5201
   88SLPC  H13A 8457   5.443   3.833   1.833 -2.4401  2.9882 -3.1203
   88SLPC  H13B 8458   5.407   3.996   1.869 -0.5116 -1.1485 -0.2015
   88SLPC  H13C 8459   5.566   3.949   1.822  1.1010 -1.6289 -1.3804
   88SLPC   C14 8460   5.636   3.997   2.044 -0.2145 -0.4644 -0.0457
   88SLPC  H14A 8461   5.696   3.973   2.130 -1.8903 -0.0309  1.2951
   88SLPC  H14B 8462   5.701   4.013   1.959  2.4264 -0.6202  1.8091
   88SLPC  H14C 8463   5.590   4.088   2.079  0.5390 -0.4003  0.8074
   88SLPC   C15 8464   5.577   3.766   2.026 -0.5044  0.7802 -0.4965
   88SLPC  H15A 8465   5.632   3.752   2.119 -0.6933  2.2761 -0.1342
   88SLPC  H15B 8466   5.495   3.696   2.029 -0.5424  0.7994 -1.0933
   88SLPC  H15C 8467   5.632   3.742   1.937  0.3008  1.5273 -0.2171
   88SLPC   C12 8468   5.413   3.914   2.133 -0.2700  0.9295 -0.6037
   88SLPC  H12A 8469   5.384   4.018   2.124 -0.8974  0.7533 -0.6658
   88SLPC  H12B 8470   5.441   3.881   2.232 -0.6713 -1.5032 -1.2412
   88SLPC   C11 8471   5.277   3.842   2.109  0.1545 -0.5321  0.7217
   88SLPC  H11A 8472   5.256   3.882   2.007  0.4732 -2.5792 -0.1857
   88SLPC  H11B 8473   5.199   3.887   2.175  0.2079  2.3889 -1.0037
   88SLPC     P 8474   5.142   3.633   2.061  0.2430 -0.0355  0.1674
   88SLPC   O13 8475   5.030   3.728   2.073  0.3590  0.1279  0.5386
   88SLPC   O14 8476   5.162   3.572   1.933  0.6322 -0.9492 -0.2273
   88SLPC   O12 8477   5.285   3.700   2.096  0.0675 -0.2128 -0.4939
   88SLPC   O11 8478   5.138   3.526   2.178 -0.5925 -0.1262 -0.0535
   88SLPC    C1 8479   5.110   3.573   2.307  0.1480  0.4548  0.5673
   88SLPC    HA 8480   5.086   3.681   2.307 -3.5732 -0.1988 -1.8050
   88SLPC    HB 8481   5.019   3.518   2.337  0.1139 -0.7859 -1.6000
   88SLPC    C2 8482   5.226   3.550   2.414 -1.0242  0.6762 -0.1906
   88SLPC    HS 8483   5.216   3.445   2.449 -0.3410  0.6667 -0.0103
   88SLPC   O21 8484   5.214   3.647   2.515  0.2965 -0.5221  0.1177
   88SLPC   C21 8485   5.126   3.625   2.615 -0.0966  0.4637  0.7920
   88SLPC   O22 8486   5.045   3.533   2.620 -0.4057  0.4169  0.0319
   88SLPC   C22 8487   5.157   3.720   2.734 -0.3134 -0.8429 -0.0727
   88SLPC   H2R 8488   5.236   3.787   2.693 -1.5995  0.8481  0.0816
   88SLPC   H2S 8489   5.058   3.770   2.739 -0.0525 -0.3237  0.0471
   88SLPC    C3 8490   5.370   3.567   2.369  0.2664 -0.1721 -0.3369
   88SLPC    HX 8491   5.369   3.670   2.327 -0.2702 -0.4809 -1.1136
   88SLPC    HY 8492   5.383   3.488   2.292 -1.5652  0.9152 -1.8621
   88SLPC   O31 8493   5.456   3.546   2.480  0.0859  0.0930 -0.1387
   88SLPC   C31 8494   5.556   3.624   2.490 -1.0500 -0.3345  0.4758
   88SLPC   O32 8495   5.610   3.695   2.403 -0.6544  0.3508  0.2327
   88SLPC   C32 8496   5.620   3.616   2.632  0.1558 -0.1290  0.6491
   88SLPC   H2X 8497   5.707   3.548   2.620  0.6950  0.7923 -0.9082
   88SLPC   H2Y 8498   5.557   3.551   2.696 -1.0880 -0.1918 -0.5959
   88SLPC   C23 8499   5.192   3.655   2.873  0.0784  0.1033 -0.4456
   88SLPC   H3R 8500   5.294   3.611   2.874 -0.0233 -0.2849  2.4632
   88SLPC   H3S 8501   5.121   3.571   2.893  0.5508 -0.4072 -0.8872
   88SLPC   C24 8502   5.172   3.751   2.988 -0.2574  0.4060  1.0714
   88SLPC   H4R 8503   5.086   3.817   2.967  0.1152  0.0522 -2.0704
   88SLPC   H4S 8504   5.259   3.820   2.986  0.1575 -0.0981 -0.8488
   88SLPC   C25 8505   5.182   3.694   3.130  0.0108  0.1835 -0.1137
   88SLPC   H5R 8506   5.277   3.637   3.126 -0.9602 -1.8453  2.6588
   88SLPC   H5S 8507   5.100   3.620   3.131  1.8573 -2.0106 -1.8562
   88SLPC   C26 8508   5.178   3.791   3.251  0.0230 -0.5878  0.3786
   88SLPC   H6R 8509   5.171   3.724   3.340  0.3749 -1.7171 -0.4320
   88SLPC   H6S 8510   5.087   3.853   3.240  0.8994  1.1160  2.1452
   88SLPC   C27 8511   5.296   3.888   3.251  0.3183 -0.4890 -0.5819
   88SLPC   H7R 8512   5.281   3.948   3.344 -1.2022 -2.7189  0.6959
   88SLPC   H7S 8513   5.291   3.956   3.163  2.1508 -0.5124 -0.7424
   88SLPC   C28 8514   5.430   3.814   3.245 -0.1902  0.2789 -0.5260
   88SLPC   H8R 8515   5.502   3.893   3.274  2.0235 -1.6972 -0.2736
   88SLPC   H8S 8516   5.442   3.772   3.143 -1.3184 -0.4003 -0.4027
   88SLPC   C29 8517   5.449   3.702   3.338  0.3241 -0.3911  0.2984
   88SLPC   H9R 8518   5.387   3.613   3.319 -0.3670 -0.5386  2.9021
   88SLPC  C210 8519   5.528   3.685   3.443 -0.4068  0.0687  0.2986
   88SLPC  H10R 8520   5.525   3.594   3.505  0.2366  0.1810  0.5031
   88SLPC  C211 8521   5.627   3.786   3.500 -0.3764 -0.2411  0.3817
   88SLPC  H11R 8522   5.706   3.811   3.426  0.8232 -0.2126  1.6290
   88SLPC  H11S 8523   5.694   3.743   3.578  0.9987  0.9017 -0.1376
   88SLPC  C212 8524   5.567   3.907   3.566 -0.3792  0.0768 -0.7026
   88SLPC  H12R 8525   5.564   3.995   3.500  2.5144  2.1037  1.6398
   88SLPC  C213 8526   5.520   3.920   3.692 -0.0560  0.7002 -0.4311
   88SLPC  H13R 8527   5.469   4.014   3.719  1.4175  1.3383  0.2225
   88SLPC  C214 8528   5.517   3.809   3.791 -0.3282 -0.1694  0.7679
   88SLPC  H14R 8529   5.578   3.724   3.753  2.4152  2.0434 -0.1539
   88SLPC  H14S 8530   5.415   3.773   3.815 -0.0785  0.5992  3.2189
   88SLPC  C215 8531   5.584   3.857   3.915 -0.4318  0.6724  0.0156
   88SLPC  H15R 8532   5.683   3.905   3.897  0.2335 -0.8085 -0.4299
   88SLPC  H15S 8533   5.599   3.761   3.968  0.7935  0.7582 -0.1494
   88SLPC  C216 8534   5.497   3.943   4.010  0.6177 -0.0332 -0.6132
   88SLPC  H16R 8535   5.393   3.904   4.005  0.8131 -0.7322  0.4040
   88SLPC  H16S 8536   5.495   4.049   3.976  0.4545  0.1165 -0.1375
   88SLPC  C217 8537   5.546   3.945   4.157 -0.2482  0.1536 -0.0050
   88SLPC  H17R 8538   5.589   3.847   4.187 -0.0771 -0.3307 -1.7164
   88SLPC  H17S 8539   5.456   3.961   4.220  0.4974 -0.9367  1.4002
   88SLPC  C218 8540   5.643   4.062   4.184  0.0926 -0.0776  0.2164
   88SLPC  H18R 8541   5.720   4.071   4.105  0.5500  0.0684  0.6749
   88SLPC  H18S 8542   5.690   4.042   4.283  0.5111  2.1656  0.5166
   88SLPC  H18T 8543   5.585   4.156   4.191 -0.6947 -0.4247 -1.2247
   88SLPC   C33 8544   5.646   3.752   2.694 -0.7467 -0.6527  0.2556
   88SLPC   H3X 8545   5.552   3.773   2.749 -0.5610  1.0425 -0.0148
   88SLPC   H3Y 8546   5.670   3.831   2.619  1.5185  0.6769  2.2189
   88SLPC   C34 8547   5.759   3.746   2.801  0.5407  0.0020  0.5605
   88SLPC   H4X 8548   5.851   3.706   2.754  0.0905 -0.4830  0.0697
   88SLPC   H4Y 8549   5.729   3.660   2.866  0.5005 -0.8682 -0.5833
   88SLPC   C35 8550   5.789   3.875   2.883  0.2703  0.3241 -0.1991
   88SLPC   H5X 8551   5.815   3.834   2.983  0.5547 -0.9815 -0.7839
   88SLPC   H5Y 8552   5.696   3.936   2.891  0.3286  0.4573 -0.5165
   88SLPC   C36 8553   5.906   3.944   2.808 -0.9212 -0.7037  0.0179
   88SLPC   H6X 8554   5.889   3.937   2.699  2.1035 -0.5194 -0.5513
   88SLPC   H6Y 8555   6.004   3.900   2.835 -1.2173 -1.8436 -0.7262
   88SLPC   C37 8556   5.924   4.091   2.836  0.4203  0.5064 -0.0543
   88SLPC   H7X 8557   5.832   4.146   2.809  0.0264 -0.3331 -0.4697
   88SLPC   H7Y 8558   6.004   4.136   2.772  0.0909  0.0046 -0.8335
   88SLPC   C38 8559   5.971   4.109   2.983  0.7142  0.1711  0.0583
   88SLPC   H8X 8560   6.073   4.065   2.990 -0.6622 -3.5093 -0.8835
   88SLPC   H8Y 8561   5.891   4.063   3.045  0.4582 -0.1330 -0.4939
   88SLPC   C39 8562   5.973   4.258   3.026 -0.6388 -0.4986  0.5853
   88SLPC   H9X 8563   5.869   4.297   3.028 -1.5502 -2.8456  1.5633
   88SLPC   H9Y 8564   6.028   4.327   2.957  0.8207 -0.4057  1.7987
   88SLPC  C310 8565   6.031   4.278   3.163 -0.5198 -0.6022 -0.7513
   88SLPC  H10X 8566   6.028   4.387   3.186 -0.2592 -1.0129  1.4451
   88SLPC  H10Y 8567   6.139   4.251   3.158 -0.3884 -0.1359 -0.5190
   88SLPC  C311 8568   5.975   4.194   3.279 -0.3872 -0.2497  0.4555
   88SLPC  H11X 8569   5.976   4.087   3.251  0.2972 -0.5169  1.4353
   88SLPC  H11Y 8570   5.868   4.214   3.301 -0.6078 -1.5911  0.6938
   88SLPC  C312 8571   6.058   4.212   3.409 -0.5644 -0.5431  0.5296
   88SLPC  H12X 8572   6.033   4.316   3.439 -0.4088 -0.4390  0.2988
   88SLPC  H12Y 8573   6.169   4.209   3.401 -0.7059 -1.9097 -1.7820
   88SLPC  C313 8574   6.014   4.114   3.517 -0.0323 -0.2524 -0.4489
   88SLPC  H13X 8575   6.067   4.020   3.489 -0.9621 -0.7024 -0.7228
   88SLPC  H13Y 8576   5.904   4.101   3.506 -0.0802 -0.5248  0.3179
   88SLPC  C314 8577   6.047   4.160   3.655  0.0347 -0.0869 -0.2212
   88SLPC  H14X 8578   6.154   4.186   3.671 -0.0286  0.4253 -0.6006
   88SLPC  H14Y 8579   6.024   4.072   3.718 -0.4774 -0.3818 -0.8174
   88SLPC  C315 8580   5.957   4.274   3.700  0.9189  0.4980 -0.0194
   88SLPC  H15X 8581   5.855   4.239   3.672  0.9094 -0.1075  0.7506
   88SLPC  H15Y 8582   5.984   4.371   3.652  2.1329 -0.3284 -1.0515
   88SLPC  C316 8583   5.947   4.291   3.855  0.6130 -0.0694 -0.4815
   88SLPC  H16X 8584   5.943   4.192   3.905 -1.4206  1.0713  1.8820
   88SLPC  H16Y 8585   5.856   4.352   3.871 -0.2174 -1.2661 -0.5073
   88SLPC  C317 8586   6.067   4.358   3.913 -0.1336 -0.1960  0.2171
   88SLPC  H17X 8587   6.066   4.465   3.885 -1.6921 -0.2629 -0.0940
   88SLPC  H17Y 8588   6.153   4.318   3.855 -0.4328  1.8714 -1.7554
   88SLPC  C318 8589   6.084   4.336   4.065 -0.3187 -0.6407  0.4340
   88SLPC  H18X 8590   6.000   4.394   4.108  0.4583  0.1957  0.8747
   88SLPC  H18Y 8591   6.181   4.379   4.098 -0.1767 -0.2043 -0.5371
   88SLPC  H18Z 8592   6.085   4.228   4.091 -0.5149 -0.5849  0.6745
   89SAPE     N 8593   4.171   0.798   6.749 -0.2244 -0.6125 -0.2878
   89SAPE   HN1 8594   4.245   0.868   6.770  0.3807 -1.3841  0.2079
   89SAPE   HN2 8595   4.221   0.718   6.705  2.6129  0.8751 -0.0622
   89SAPE   HN3 8596   4.098   0.831   6.683  1.3524  1.4860 -1.0955
   89SAPE   C12 8597   4.087   0.767   6.874  0.6284 -0.1037 -0.5432
   89SAPE  H12A 8598   4.065   0.866   6.920 -1.5908 -1.3182  1.1885
   89SAPE  H12B 8599   4.159   0.721   6.945  0.7638  0.1712 -0.5012
   89SAPE   C11 8600   3.955   0.693   6.855 -0.6290  0.1783 -0.0145
   89SAPE  H11A 8601   3.899   0.690   6.952  0.4506 -1.5970  0.5958
   89SAPE  H11B 8602   3.978   0.589   6.826 -0.5662  0.4055 -0.8001
   89SAPE     P 8603   3.779   0.877   6.799  0.2988 -0.0561  0.0139
   89SAPE   O13 8604   3.664   0.823   6.871 -0.5614 -0.1234  0.1043
   89SAPE   O14 8605   3.842   0.991   6.871 -0.5021 -0.0378  0.3234
   89SAPE   O12 8606   3.875   0.755   6.753 -0.0310  0.1764 -0.5918
   89SAPE   O11 8607   3.717   0.933   6.666 -0.3270 -0.6292  0.3806
   89SAPE    C1 8608   3.699   0.860   6.540 -0.4420  0.0065 -0.3342
   89SAPE    HA 8609   3.737   0.758   6.561 -0.2849  0.3272  1.1047
   89SAPE    HB 8610   3.593   0.835   6.519 -0.5896 -2.1209  2.3968
   89SAPE    C2 8611   3.791   0.913   6.420  0.4051  0.7518 -0.3995
   89SAPE    HS 8612   3.858   0.827   6.400 -2.5263 -2.4286  2.1516
   89SAPE   O21 8613   3.856   1.031   6.449 -0.0677 -0.4749  0.8245
   89SAPE   C21 8614   3.964   1.031   6.527 -0.4235 -0.5122 -0.4705
   89SAPE   O22 8615   4.021   0.931   6.563  0.8644  0.3079  0.2932
   89SAPE   C22 8616   4.003   1.178   6.550 -0.0996 -0.0010 -0.4122
   89SAPE   H2R 8617   3.933   1.250   6.502  1.1306  1.1929 -0.4576
   89SAPE   H2S 8618   4.002   1.200   6.659 -1.3150 -0.5052 -0.3051
   89SAPE    C3 8619   3.704   0.927   6.293 -0.0540 -0.5064 -0.7353
   89SAPE    HX 8620   3.652   1.023   6.314  0.8863 -0.4487  1.5325
   89SAPE    HY 8621   3.623   0.850   6.287 -1.7479  1.1576 -0.2548
   89SAPE   O31 8622   3.775   0.936   6.166  0.0808 -0.3150  0.8178
   89SAPE   C31 8623   3.718   0.898   6.057  0.6829 -0.4263  0.4549
   89SAPE   O32 8624   3.601   0.868   6.049  0.5929  0.3523 -0.2216
   89SAPE   C32 8625   3.808   0.918   5.929  0.2511 -0.7093  0.0385
   89SAPE   H2X 8626   3.890   0.845   5.946  1.4774  0.3503 -1.0683
   89SAPE   H2Y 8627   3.840   1.024   5.943 -0.6851 -0.5158  0.8278
   89SAPE   C23 8628   4.140   1.204   6.489 -0.5086 -0.5041 -0.0329
   89SAPE   H3R 8629   4.205   1.114   6.489  0.3744  0.1005  1.4924
   89SAPE   H3S 8630   4.184   1.290   6.544 -2.4270  1.4175 -1.3090
   89SAPE   C24 8631   4.136   1.260   6.344  0.0884  0.9234  0.5767
   89SAPE   H4R 8632   4.103   1.174   6.282  0.7520  0.9778  0.1326
   89SAPE   H4S 8633   4.240   1.278   6.309  0.3261  0.9901  1.2904
   89SAPE   C25 8634   4.061   1.380   6.316 -0.1769 -0.0858  0.2968
   89SAPE   H5R 8635   4.116   1.472   6.343  1.4530 -1.4468  1.8659
   89SAPE   C26 8636   3.954   1.389   6.235  0.0200  0.8241 -0.0881
   89SAPE   H6R 8637   3.907   1.486   6.214  0.1514  1.1051  0.9046
   89SAPE   C27 8638   3.867   1.277   6.190  0.3699 -0.4265  0.1004
   89SAPE   H7R 8639   3.904   1.181   6.234  0.3140  0.2441  1.6608
   89SAPE   H7S 8640   3.878   1.259   6.081  2.6929  1.6590 -0.1125
   89SAPE   C28 8641   3.726   1.292   6.236 -0.0019 -0.1821 -0.0479
   89SAPE   H8R 8642   3.709   1.336   6.336  0.2031 -0.2950  0.0390
   89SAPE   C29 8643   3.612   1.256   6.172 -0.1960 -0.3369  0.4470
   89SAPE   H9R 8644   3.515   1.264   6.223  0.8727 -1.7672  2.8787
   89SAPE  C210 8645   3.601   1.214   6.028 -0.1174 -0.0920  0.4239
   89SAPE  H10R 8646   3.541   1.120   6.020 -0.3728  0.1592 -0.8440
   89SAPE  H10S 8647   3.704   1.198   5.990 -1.1604  1.3138 -3.5434
   89SAPE  C211 8648   3.533   1.324   5.952  0.2416  0.2786 -0.1788
   89SAPE  H11R 8649   3.461   1.379   6.014 -0.5831  0.1285 -0.9827
   89SAPE  C212 8650   3.558   1.379   5.830 -0.6001  0.4733 -0.0637
   89SAPE  H12R 8651   3.507   1.470   5.797 -1.5342 -0.3156 -0.8720
   89SAPE  C213 8652   3.661   1.323   5.729 -0.2471  0.0370 -0.8640
   89SAPE  H13R 8653   3.703   1.230   5.772  2.0566  0.2071 -2.5590
   89SAPE  H13S 8654   3.748   1.391   5.720  1.3397 -1.7651  0.2348
   89SAPE  C214 8655   3.603   1.301   5.592 -1.2465 -0.1966  0.3532
   89SAPE  H14R 8656   3.583   1.195   5.570 -0.2127 -0.7646  1.9965
   89SAPE  C215 8657   3.572   1.389   5.499  0.3570 -0.0115 -0.2513
   89SAPE  H15R 8658   3.524   1.353   5.407  0.8209 -2.1766  0.2834
   89SAPE  C216 8659   3.575   1.540   5.508  0.1203  0.1280  0.6859
   89SAPE  H16R 8660   3.654   1.568   5.435  1.0651 -0.7277  1.3526
   89SAPE  H16S 8661   3.609   1.570   5.609  4.0637 -2.1809  0.2567
   89SAPE  C217 8662   3.449   1.620   5.469  0.6931 -0.1204 -0.8189
   89SAPE  H17R 8663   3.417   1.594   5.366  0.7265  2.1800 -1.4670
   89SAPE  H17S 8664   3.481   1.726   5.480  0.2341 -0.0534 -0.1196
   89SAPE  C218 8665   3.331   1.604   5.568 -0.1170  0.1304 -0.6170
   89SAPE  H18R 8666   3.267   1.695   5.567 -0.2776  0.1067  1.6393
   89SAPE  H18S 8667   3.372   1.606   5.672  0.4956  2.9546 -0.8431
   89SAPE  C219 8668   3.242   1.487   5.540  0.0771 -0.4693  0.5140
   89SAPE  H19R 8669   3.298   1.394   5.520  0.9860  0.5419 -2.0183
   89SAPE  H19S 8670   3.187   1.509   5.446 -1.9974  0.3958  1.8460
   89SAPE  C220 8671   3.131   1.463   5.642 -0.3574 -0.2917  0.2717
   89SAPE  H20R 8672   3.093   1.567   5.651 -0.3659 -0.2798  0.0867
   89SAPE  H20S 8673   3.169   1.419   5.737  1.4391 -0.8873 -0.6751
   89SAPE  H20T 8674   3.067   1.391   5.587  1.8474 -2.0662 -0.1017
   89SAPE   C33 8675   3.725   0.886   5.800  1.0397 -0.5236  0.3510
   89SAPE   H3X 8676   3.641   0.958   5.796  0.3741 -1.2302  1.2578
   89SAPE   H3Y 8677   3.690   0.782   5.810 -0.0272 -0.2626 -0.5452
   89SAPE   C34 8678   3.806   0.906   5.677 -0.7312 -0.5020 -0.2418
   89SAPE   H4X 8679   3.888   0.831   5.679 -0.1706  0.1064 -0.0881
   89SAPE   H4Y 8680   3.856   1.004   5.693  0.9646 -0.8335 -2.8052
   89SAPE   C35 8681   3.730   0.919   5.544 -0.6954 -0.2366 -0.6940
   89SAPE   H5X 8682   3.655   1.000   5.554 -1.2094 -0.5278 -2.0260
   89SAPE   H5Y 8683   3.665   0.829   5.537 -0.4415 -0.4431 -0.4452
   89SAPE   C36 8684   3.805   0.928   5.416  0.1921  0.5307 -0.2845
   89SAPE   H6X 8685   3.872   0.839   5.409 -2.8456 -1.8461 -0.8905
   89SAPE   H6Y 8686   3.847   1.031   5.409  1.3984  0.0046 -1.5183
   89SAPE   C37 8687   3.711   0.895   5.303 -0.9052 -0.4697  0.1709
   89SAPE   H7X 8688   3.625   0.965   5.302 -0.5128  0.1720 -3.4519
   89SAPE   H7Y 8689   3.673   0.792   5.320 -0.4959 -0.5439  0.6724
   89SAPE   C38 8690   3.795   0.910   5.167  0.2808 -0.4538  0.3746
   89SAPE   H8X 8691   3.736   0.866   5.084  1.4070 -0.8977 -0.2167
   89SAPE   H8Y 8692   3.887   0.852   5.187  0.4156  0.1717  1.6618
   89SAPE   C39 8693   3.842   1.052   5.127  0.1904 -0.6076 -0.1865
   89SAPE   H9X 8694   3.925   1.057   5.052  0.9867 -0.7944  0.6660
   89SAPE   H9Y 8695   3.887   1.100   5.217  0.2628  0.9110 -0.9951
   89SAPE  C310 8696   3.732   1.147   5.083  0.0126  0.2122 -0.3702
   89SAPE  H10X 8697   3.643   1.145   5.150  0.0587  0.8730 -0.2855
   89SAPE  H10Y 8698   3.698   1.108   4.984  0.9136 -2.2491  0.2050
   89SAPE  C311 8699   3.767   1.293   5.060  0.3926 -0.5209 -0.0611
   89SAPE  H11X 8700   3.853   1.300   4.990 -0.3374 -1.0413 -1.0369
   89SAPE  H11Y 8701   3.801   1.330   5.159  0.6073  1.2508 -0.7586
   89SAPE  C312 8702   3.647   1.376   5.017  0.5912 -1.0674 -0.2158
   89SAPE  H12X 8703   3.677   1.483   5.031 -0.9558 -0.8296  1.6866
   89SAPE  H12Y 8704   3.555   1.359   5.076  1.5153  1.1931  2.1220
   89SAPE  C313 8705   3.600   1.354   4.873  0.0984  0.1226 -0.2154
   89SAPE  H13X 8706   3.501   1.392   4.838  0.0799  0.4156  0.1505
   89SAPE  H13Y 8707   3.587   1.244   4.863 -1.3816  0.3532 -1.2665
   89SAPE  C314 8708   3.699   1.400   4.765 -0.6719 -0.3952  0.0989
   89SAPE  H14X 8709   3.654   1.368   4.668 -1.3720  0.7131  0.0428
   89SAPE  H14Y 8710   3.792   1.344   4.787 -1.2535 -0.4116  2.9059
   89SAPE  C315 8711   3.717   1.551   4.768 -0.5998  0.0925 -0.1713
   89SAPE  H15X 8712   3.762   1.583   4.865 -0.5449 -1.6725  0.4271
   89SAPE  H15Y 8713   3.615   1.594   4.763 -1.0332 -0.6019  1.6902
   89SAPE  C316 8714   3.804   1.599   4.649 -0.7508 -0.7637 -0.2263
   89SAPE  H16X 8715   3.818   1.537   4.558  1.6959 -0.5382 -0.0940
   89SAPE  H16Y 8716   3.909   1.626   4.675 -0.8054 -2.6816  2.3586
   89SAPE  C317 8717   3.749   1.729   4.585 -1.0620 -0.3114  0.3929
   89SAPE  H17X 8718   3.647   1.698   4.555 -1.3581 -0.4861  1.5064
   89SAPE  H17Y 8719   3.799   1.766   4.493 -3.8549  1.7001 -0.4250
   89SAPE  C318 8720   3.738   1.851   4.679  0.1895 -0.1652 -0.3769
   89SAPE  H18X 8721   3.691   1.941   4.634  0.2290  1.7450  3.0811
   89SAPE  H18Y 8722   3.837   1.881   4.719 -0.5949  0.8375  0.8603
   89SAPE  H18Z 8723   3.672   1.818   4.761 -0.7974  2.4383 -0.0391
   90SAPE     N 8724   0.481   0.587   6.477  0.3962 -0.3999 -0.3772
   90SAPE   HN1 8725   0.398   0.609   6.419 -0.4195  1.4757  1.3466
   90SAPE   HN2 8726   0.520   0.498   6.441 -1.4727 -2.0008  1.2982
   90SAPE   HN3 8727   0.460   0.555   6.574 -2.0645  0.7763 -0.4446
   90SAPE   C12 8728   0.585   0.699   6.467  0.2326  1.2556  0.8851
   90SAPE  H12A 8729   0.595   0.749   6.566  1.9939  0.3573  1.1987
   90SAPE  H12B 8730   0.546   0.779   6.402  1.3676  0.3922 -0.9313
   90SAPE   C11 8731   0.723   0.639   6.418  0.3035  0.3839  0.5286
   90SAPE  H11A 8732   0.799   0.717   6.441 -2.1106  2.2394  2.6210
   90SAPE  H11B 8733   0.712   0.608   6.311  0.8078  0.7493  0.3663
   90SAPE     P 8734   0.894   0.475   6.527  0.7997  0.1243  0.2323
   90SAPE   O13 8735   0.978   0.471   6.411  0.1623  0.4719 -0.1634
   90SAPE   O14 8736   0.948   0.571   6.624 -0.5029  0.4061 -0.8751
   90SAPE   O12 8737   0.752   0.511   6.478  0.4718  0.0353  0.2627
   90SAPE   O11 8738   0.876   0.333   6.587 -1.2732  0.2374 -0.6266
   90SAPE    C1 8739   0.760   0.252   6.547  0.3604 -0.3781 -0.0976
   90SAPE    HA 8740   0.672   0.286   6.606 -1.2916  0.7544 -2.9847
   90SAPE    HB 8741   0.747   0.265   6.437  0.8877  1.5611  0.0222
   90SAPE    C2 8742   0.793   0.105   6.575 -0.5927 -0.2208  0.3704
   90SAPE    HS 8743   0.804   0.096   6.685 -1.4635  0.8892  0.5738
   90SAPE   O21 8744   0.911   0.071   6.498  0.5648  0.3326  0.2124
   90SAPE   C21 8745   0.977  -0.033   6.563 -0.1639  0.0740  0.5121
   90SAPE   O22 8746   0.928  -0.096   6.654  0.5183 -0.3045  0.1969
   90SAPE   C22 8747   1.107  -0.053   6.492  0.6751 -0.2486 -0.6896
   90SAPE   H2R 8748   1.108  -0.009   6.390 -1.1678 -5.1516 -3.1621
   90SAPE   H2S 8749   1.179  -0.005   6.561 -0.8830  1.6261 -0.2880
   90SAPE    C3 8750   0.667   0.018   6.543  0.1069  1.0584  0.8208
   90SAPE    HX 8751   0.586   0.056   6.609 -1.0070  0.4007 -0.1208
   90SAPE    HY 8752   0.704  -0.082   6.572  0.8652  1.2902  0.6810
   90SAPE   O31 8753   0.628   0.026   6.399 -0.1336 -0.2650 -0.8823
   90SAPE   C31 8754   0.569  -0.083   6.351 -0.0463 -0.4288 -0.4384
   90SAPE   O32 8755   0.542  -0.189   6.414 -0.1546 -0.2788  0.2899
   90SAPE   C32 8756   0.528  -0.058   6.206  0.3015  0.3237  0.9692
   90SAPE   H2X 8757   0.614  -0.007   6.157 -0.8822  0.8938 -0.6070
   90SAPE   H2Y 8758   0.444   0.015   6.204 -0.4053 -0.5013 -0.4706
   90SAPE   C23 8759   1.160  -0.200   6.489 -0.0937 -0.2298 -0.0906
   90SAPE   H3R 8760   1.135  -0.249   6.586 -0.0078  1.2274  0.7084
   90SAPE   H3S 8761   1.270  -0.189   6.479  0.2226 -3.1042 -0.4688
   90SAPE   C24 8762   1.103  -0.282   6.376 -0.2149 -0.0886  0.4627
   90SAPE   H4R 8763   1.147  -0.384   6.389  0.3087 -0.1097 -1.2211
   90SAPE   H4S 8764   1.141  -0.240   6.280  0.2753  1.3872  1.2667
   90SAPE   C25 8765   0.956  -0.297   6.370  0.3621  0.3003  0.2718
   90SAPE   H5R 8766   0.918  -0.381   6.428  0.4774 -1.7229 -2.3952
   90SAPE   C26 8767   0.870  -0.242   6.279 -0.8949  1.0089  0.1568
   90SAPE   H6R 8768   0.762  -0.251   6.299 -0.4392 -2.0024  2.0141
   90SAPE   C27 8769   0.918  -0.141   6.176  0.1025 -0.5849 -0.1091
   90SAPE   H7R 8770   0.998  -0.071   6.205  0.2106 -0.0876 -1.5146
   90SAPE   H7S 8771   0.835  -0.074   6.147  1.0046 -0.2960 -2.2316
   90SAPE   C28 8772   0.946  -0.216   6.044  0.4357 -1.3156 -0.3008
   90SAPE   H8R 8773   0.862  -0.285   6.024 -1.0884 -0.0199  1.2073
   90SAPE   C29 8774   1.033  -0.197   5.954 -0.5305 -0.5563 -0.6103
   90SAPE   H9R 8775   1.024  -0.247   5.856 -1.3140  0.5791 -1.1367
   90SAPE  C210 8776   1.153  -0.105   5.975 -0.0492  0.6903 -0.1144
   90SAPE  H10R 8777   1.246  -0.165   5.965  0.2874  1.3272 -0.8641
   90SAPE  H10S 8778   1.165  -0.069   6.079 -2.2685  2.6832 -0.4671
   90SAPE  C211 8779   1.147   0.019   5.891 -0.5110 -0.0530 -0.0549
   90SAPE  H11R 8780   1.095   0.097   5.948  0.4967  0.0124  0.8211
   90SAPE  C212 8781   1.197   0.034   5.771  0.1091 -0.3518 -0.2745
   90SAPE  H12R 8782   1.193   0.135   5.727 -0.0212 -0.1637  0.1615
   90SAPE  C213 8783   1.255  -0.078   5.689  0.1728 -0.6600  0.2172
   90SAPE  H13R 8784   1.189  -0.072   5.600  1.0431 -0.4995 -0.4299
   90SAPE  H13S 8785   1.230  -0.181   5.725 -1.4893 -0.7848 -1.1747
   90SAPE  C214 8786   1.400  -0.057   5.641  0.0705 -0.0417  0.4479
   90SAPE  H14R 8787   1.473  -0.095   5.714  2.8125  3.3377 -0.2500
   90SAPE  C215 8788   1.446  -0.003   5.529 -0.2417 -0.3767 -0.2461
   90SAPE  H15R 8789   1.553  -0.012   5.508 -0.0599 -0.3634  0.6651
   90SAPE  C216 8790   1.366   0.060   5.421  0.6230  0.0558 -0.4184
   90SAPE  H16R 8791   1.387   0.169   5.409  0.6940 -0.0109 -0.9423
   90SAPE  H16S 8792   1.256   0.060   5.438  0.6947  1.8358  0.2942
   90SAPE  C217 8793   1.396   0.005   5.278 -0.2005 -0.1985  0.7236
   90SAPE  H17R 8794   1.500  -0.030   5.263 -0.1068  0.1032  0.6559
   90SAPE  H17S 8795   1.377   0.080   5.198 -0.1878 -0.6387  0.3037
   90SAPE  C218 8796   1.309  -0.115   5.235 -0.0761 -0.2570 -0.3501
   90SAPE  H18R 8797   1.201  -0.095   5.251 -0.1478 -1.0553  0.2224
   90SAPE  H18S 8798   1.342  -0.207   5.287  2.6630  1.5181  1.2939
   90SAPE  C219 8799   1.314  -0.120   5.079  0.3580  0.5979 -0.0803
   90SAPE  H19R 8800   1.415  -0.136   5.035 -0.4213 -2.6559 -0.9726
   90SAPE  H19S 8801   1.290  -0.021   5.036 -0.1643  1.1816  1.4945
   90SAPE  C220 8802   1.212  -0.224   5.039 -0.0507  0.2165  1.2130
   90SAPE  H20R 8803   1.114  -0.184   5.075 -0.6501  0.4220 -0.5547
   90SAPE  H20S 8804   1.228  -0.321   5.092  2.2804  0.8038  1.6590
   90SAPE  H20T 8805   1.218  -0.245   4.930  2.1778 -0.2806  1.3936
   90SAPE   C33 8806   0.493  -0.189   6.137 -0.3458 -0.1427 -0.1331
   90SAPE   H3X 8807   0.393  -0.221   6.172 -0.3609  0.9830  0.9157
   90SAPE   H3Y 8808   0.567  -0.266   6.166 -1.5896 -0.8619  1.2422
   90SAPE   C34 8809   0.489  -0.162   5.988  0.4956  0.0930 -0.2159
   90SAPE   H4X 8810   0.420  -0.078   5.967 -0.8832 -0.9378  0.0198
   90SAPE   H4Y 8811   0.446  -0.253   5.941 -3.5956  1.6738  0.1113
   90SAPE   C35 8812   0.625  -0.134   5.921  0.1805  0.4168  0.4819
   90SAPE   H5X 8813   0.678  -0.232   5.924 -2.2386 -0.9657  2.6177
   90SAPE   H5Y 8814   0.685  -0.062   5.981 -1.3011  1.2772  0.9830
   90SAPE   C36 8815   0.613  -0.079   5.774 -0.1075  0.5485  0.1207
   90SAPE   H6X 8816   0.554   0.014   5.759  0.0101  0.6093  0.0317
   90SAPE   H6Y 8817   0.554  -0.158   5.724  0.4012  0.4917 -0.3957
   90SAPE   C37 8818   0.748  -0.059   5.699  0.4879  0.1430  0.0611
   90SAPE   H7X 8819   0.803  -0.153   5.675  1.6140  0.9786 -0.6780
   90SAPE   H7Y 8820   0.824  -0.004   5.759  1.5363  1.2121 -2.1330
   90SAPE   C38 8821   0.741   0.033   5.576  0.4266 -0.5086 -0.1034
   90SAPE   H8X 8822   0.708   0.132   5.613 -0.4360 -1.2771  1.2179
   90SAPE   H8Y 8823   0.666  -0.009   5.505 -0.1257 -0.0225  0.1847
   90SAPE   C39 8824   0.875   0.039   5.499 -0.1645  0.5771 -0.6583
   90SAPE   H9X 8825   0.907  -0.065   5.475 -1.0778 -0.6508  2.8219
   90SAPE   H9Y 8826   0.953   0.077   5.570  0.0813 -0.7078 -0.2059
   90SAPE  C310 8827   0.873   0.118   5.373  0.1070 -0.0819  0.5964
   90SAPE  H10X 8828   0.812   0.208   5.395 -0.1665 -0.2745  0.6226
   90SAPE  H10Y 8829   0.834   0.062   5.285  0.3509  2.4800 -1.2625
   90SAPE  C311 8830   1.010   0.176   5.344  0.5518 -0.3916 -0.1458
   90SAPE  H11X 8831   1.077   0.090   5.323 -0.3718 -0.6670 -2.2865
   90SAPE  H11Y 8832   1.051   0.221   5.437 -0.5612  0.0482  0.1555
   90SAPE  C312 8833   1.012   0.262   5.218 -0.6303 -0.4303  0.3393
   90SAPE  H12X 8834   0.944   0.349   5.216  0.6237  0.6085  1.2034
   90SAPE  H12Y 8835   0.982   0.199   5.131 -1.5957  1.4591 -0.7537
   90SAPE  C313 8836   1.157   0.318   5.188  0.3753  0.4486  0.6000
   90SAPE  H13X 8837   1.225   0.230   5.201  0.0788  0.4643  2.6599
   90SAPE  H13Y 8838   1.188   0.387   5.270  0.8618 -0.2852  1.0425
   90SAPE  C314 8839   1.172   0.381   5.051  0.4353 -0.3964 -0.0117
   90SAPE  H14X 8840   1.282   0.391   5.039  0.0071  1.5213 -3.5496
   90SAPE  H14Y 8841   1.132   0.484   5.042  0.4328 -0.5930 -3.4816
   90SAPE  C315 8842   1.122   0.299   4.935  0.8344  0.3046 -0.0382
   90SAPE  H15X 8843   1.011   0.304   4.944  0.9716  1.6455  1.2026
   90SAPE  H15Y 8844   1.168   0.199   4.948 -0.8112 -0.3812  0.8994
   90SAPE  C316 8845   1.170   0.349   4.799 -0.2694  0.2388 -0.1261
   90SAPE  H16X 8846   1.277   0.375   4.812  0.3337 -2.6506  1.6304
   90SAPE  H16Y 8847   1.114   0.444   4.787 -0.5329  0.2600  1.0920
   90SAPE  C317 8848   1.144   0.244   4.691  0.2020 -0.0554  0.0342
   90SAPE  H17X 8849   1.035   0.223   4.680 -0.0647  1.8018 -1.4006
   90SAPE  H17Y 8850   1.200   0.151   4.713  3.5015  2.2402  2.0711
   90SAPE  C318 8851   1.181   0.291   4.552  0.5677  0.2599  0.6449
   90SAPE  H18X 8852   1.283   0.336   4.550  1.3483 -1.0351  3.8283
   90SAPE  H18Y 8853   1.106   0.363   4.513 -1.6870 -2.0561  0.4440
   90SAPE  H18Z 8854   1.179   0.208   4.479  1.1123  1.8789 -1.3121
   91SAPE     N 8855   4.917   2.041   6.800 -0.5613  0.2106  0.0658
   91SAPE   HN1 8856   4.932   2.143   6.819 -0.1745  0.4316 -1.3405
   91SAPE   HN2 8857   4.822   2.021   6.838 -0.1722  0.3517  1.1741
   91SAPE   HN3 8858   4.989   1.991   6.857 -1.5777  0.0832  1.2779
   91SAPE   C12 8859   4.917   2.021   6.652 -0.0249 -0.0893  0.2945
   91SAPE  H12A 8860   5.017   2.030   6.604  0.1282 -2.5112  0.0495
   91SAPE  H12B 8861   4.856   2.100   6.601 -2.2501 -1.9038 -0.0081
   91SAPE   C11 8862   4.845   1.886   6.617 -0.4235 -0.1897 -0.4132
   91SAPE  H11A 8863   4.912   1.809   6.661 -0.2097  1.2774  2.0091
   91SAPE  H11B 8864   4.840   1.864   6.508  0.3634 -2.0903 -0.1098
   91SAPE     P 8865   4.632   1.745   6.707 -0.0694 -0.2067 -0.1061
   91SAPE   O13 8866   4.718   1.642   6.768 -0.6157 -0.0960 -0.3616
   91SAPE   O14 8867   4.507   1.788   6.769 -0.2594  0.5017 -0.1429
   91SAPE   O12 8868   4.720   1.876   6.682  0.1238 -0.1557 -0.4028
   91SAPE   O11 8869   4.592   1.693   6.564 -0.2888 -0.1164 -0.2372
   91SAPE    C1 8870   4.681   1.664   6.457 -0.0237  0.7473 -0.2119
   91SAPE    HA 8871   4.790   1.655   6.474  0.2224  1.6689 -1.2188
   91SAPE    HB 8872   4.661   1.560   6.423  2.3197 -0.8084  2.7153
   91SAPE    C2 8873   4.648   1.763   6.345  0.9031  0.0248 -0.4922
   91SAPE    HS 8874   4.646   1.860   6.398 -1.1555 -0.2929  0.0907
   91SAPE   O21 8875   4.515   1.725   6.296 -0.2331  0.3561  0.5291
   91SAPE   C21 8876   4.436   1.818   6.245 -0.4267 -0.2689 -0.6807
   91SAPE   O22 8877   4.450   1.938   6.235 -0.6557 -0.3077 -0.1256
   91SAPE   C22 8878   4.306   1.747   6.197  1.0979 -0.1311  0.0192
   91SAPE   H2R 8879   4.292   1.651   6.251  0.1791  0.1473  0.2949
   91SAPE   H2S 8880   4.222   1.818   6.209  0.2447 -1.2061  0.6159
   91SAPE    C3 8881   4.740   1.755   6.229 -0.1598  0.2782  0.4651
   91SAPE    HX 8882   4.735   1.664   6.166  0.6030  0.5259  0.0392
   91SAPE    HY 8883   4.843   1.750   6.271 -0.3419  0.5536  0.9487
   91SAPE   O31 8884   4.733   1.862   6.135  0.0082 -0.5025 -0.0970
   91SAPE   C31 8885   4.799   1.978   6.167  0.1033 -0.3720 -0.6060
   91SAPE   O32 8886   4.859   2.001   6.272 -0.1736 -0.9071  0.1929
   91SAPE   C32 8887   4.797   2.070   6.040  0.2180  0.4026  0.5744
   91SAPE   H2X 8888   4.784   2.176   6.070  1.3551  1.8986 -3.5512
   91SAPE   H2Y 8889   4.705   2.050   5.980  0.4605 -0.7891  0.5690
   91SAPE   C23 8890   4.304   1.730   6.047  0.6358  0.4223 -0.0005
   91SAPE   H3R 8891   4.384   1.661   6.014  0.0646 -0.0100 -0.5260
   91SAPE   H3S 8892   4.325   1.825   5.993  0.0899  1.2466  1.2022
   91SAPE   C24 8893   4.163   1.683   5.988 -0.5263 -0.2054 -0.4249
   91SAPE   H4R 8894   4.085   1.757   6.016  0.1391  0.9010 -1.4108
   91SAPE   H4S 8895   4.143   1.587   6.042  0.1471 -0.7481 -1.1166
   91SAPE   C25 8896   4.154   1.674   5.836  0.3721  0.2832  0.1769
   91SAPE   H5R 8897   4.237   1.615   5.795  0.4671 -0.0121  0.7799
   91SAPE   C26 8898   4.065   1.733   5.755  0.1830 -0.3375 -0.0969
   91SAPE   H6R 8899   4.072   1.714   5.647  2.5292 -1.3807  0.1831
   91SAPE   C27 8900   3.944   1.810   5.792 -0.6284 -0.3438 -0.2944
   91SAPE   H7R 8901   3.978   1.915   5.783 -2.8241  0.3946 -0.5596
   91SAPE   H7S 8902   3.936   1.799   5.902  1.7328  0.2566 -0.0139
   91SAPE   C28 8903   3.836   1.772   5.702 -0.2037 -0.5583 -0.1860
   91SAPE   H8R 8904   3.772   1.686   5.727 -0.8868 -0.1525 -0.4969
   91SAPE   C29 8905   3.800   1.846   5.600 -0.5535  0.0252  0.9130
   91SAPE   H9R 8906   3.722   1.807   5.532 -0.2391 -1.6425  1.4627
   91SAPE  C210 8907   3.852   1.979   5.556 -0.9783  0.1036  0.1621
   91SAPE  H10R 8908   3.864   1.975   5.446  1.1305  0.5215  0.3326
   91SAPE  H10S 8909   3.955   1.974   5.597 -0.7008 -2.9286 -0.6304
   91SAPE  C211 8910   3.789   2.103   5.609 -0.9000  1.2871  0.3025
   91SAPE  H11R 8911   3.742   2.081   5.706 -1.5784  0.0502 -0.2811
   91SAPE  C212 8912   3.808   2.224   5.554 -0.1554 -0.1715  0.3718
   91SAPE  H12R 8913   3.740   2.310   5.570  0.7294  0.5522  0.3142
   91SAPE  C213 8914   3.891   2.245   5.432 -0.3541 -0.1278  0.1834
   91SAPE  H13R 8915   3.823   2.247   5.344  0.6456 -3.5187 -0.8533
   91SAPE  H13S 8916   3.958   2.160   5.403 -1.3131 -1.0455  0.5768
   91SAPE  C214 8917   3.982   2.367   5.450  0.3584  0.9542 -0.1934
   91SAPE  H14R 8918   4.044   2.359   5.540  1.3238 -0.4832 -0.9491
   91SAPE  C215 8919   3.986   2.479   5.377  0.3865  0.8101 -0.0909
   91SAPE  H15R 8920   4.053   2.562   5.401 -0.4921  0.4517  4.5164
   91SAPE  C216 8921   3.903   2.496   5.249  0.0058 -0.4888  0.0405
   91SAPE  H16R 8922   3.885   2.605   5.235  1.6569 -0.1999 -0.0226
   91SAPE  H16S 8923   3.803   2.450   5.262  1.2833 -4.1195 -1.8286
   91SAPE  C217 8924   3.962   2.428   5.124 -0.1433 -0.3079 -0.8534
   91SAPE  H17R 8925   3.929   2.322   5.122  0.5712 -0.5946  0.8982
   91SAPE  H17S 8926   4.072   2.415   5.133 -0.3571 -1.9399 -0.2879
   91SAPE  C218 8927   3.928   2.494   4.986  0.4402  0.3030 -0.3072
   91SAPE  H18R 8928   3.962   2.420   4.911 -1.1504 -1.4613  0.6271
   91SAPE  H18S 8929   3.975   2.594   4.996  0.0661  0.4831 -0.3591
   91SAPE  C219 8930   3.780   2.513   4.950 -0.0819  1.2751 -0.4790
   91SAPE  H19R 8931   3.763   2.537   4.843 -1.1592  0.9830 -0.3824
   91SAPE  H19S 8932   3.740   2.601   5.006 -0.4619 -0.8486  2.8916
   91SAPE  C220 8933   3.694   2.396   4.982 -0.6011  0.2832 -0.1842
   91SAPE  H20R 8934   3.741   2.303   4.943  1.6572  1.6137 -0.7919
   91SAPE  H20S 8935   3.606   2.411   4.915 -0.0159 -2.0566 -1.5974
   91SAPE  H20T 8936   3.664   2.372   5.086 -0.9158  2.1010  0.1721
   91SAPE   C33 8937   4.936   2.055   5.954 -0.3930 -0.5301  0.0686
   91SAPE   H3X 8938   5.016   2.081   6.026 -1.1127 -1.9295  1.4359
   91SAPE   H3Y 8939   4.934   2.125   5.868 -0.7812 -0.1441  0.3847
   91SAPE   C34 8940   4.941   1.917   5.881  0.1330  0.9513  0.1204
   91SAPE   H4X 8941   4.919   1.839   5.958 -0.4321 -2.7153 -3.4297
   91SAPE   H4Y 8942   5.041   1.900   5.836 -0.7911 -1.5881 -1.1696
   91SAPE   C35 8943   4.837   1.899   5.770 -0.0993 -0.0615  0.1618
   91SAPE   H5X 8944   4.731   1.907   5.801 -0.0938  0.0565  0.1505
   91SAPE   H5Y 8945   4.837   1.792   5.740 -2.6116  0.3272 -1.5300
   91SAPE   C36 8946   4.879   1.976   5.649 -0.7329 -0.3237 -0.9707
   91SAPE   H6X 8947   4.989   1.984   5.636 -1.0270  1.3895 -2.9976
   91SAPE   H6Y 8948   4.859   2.084   5.669 -2.1152 -0.9352  1.3198
   91SAPE   C37 8949   4.818   1.939   5.513 -1.2802 -0.0083 -1.0398
   91SAPE   H7X 8950   4.707   1.948   5.511 -1.1792  1.5540 -0.7705
   91SAPE   H7Y 8951   4.851   1.837   5.485  0.2977  0.8657 -2.5199
   91SAPE   C38 8952   4.866   2.034   5.401 -0.6972 -0.2286  0.0967
   91SAPE   H8X 8953   4.970   2.004   5.377 -0.8156 -0.9971  0.4900
   91SAPE   H8Y 8954   4.848   2.141   5.425 -0.5550  0.2020 -1.6391
   91SAPE   C39 8955   4.786   1.994   5.275  0.3916 -0.1162  0.2945
   91SAPE   H9X 8956   4.677   1.989   5.295  0.2651  1.3172  0.0933
   91SAPE   H9Y 8957   4.829   1.899   5.238  2.7335  0.3796  1.5192
   91SAPE  C310 8958   4.798   2.105   5.164  0.7626  0.1970  0.0530
   91SAPE  H10X 8959   4.899   2.102   5.120  0.8895  0.2255  0.3426
   91SAPE  H10Y 8960   4.783   2.204   5.213 -3.6293  1.5356 -3.3351
   91SAPE  C311 8961   4.714   2.105   5.032  0.4011  0.0434  0.0599
   91SAPE  H11X 8962   4.730   2.191   4.964 -1.0811 -0.2349 -0.6933
   91SAPE  H11Y 8963   4.608   2.110   5.065 -0.3825  0.8785 -2.3686
   91SAPE  C312 8964   4.747   1.976   4.955 -0.6880 -0.0745  0.6559
   91SAPE  H12X 8965   4.725   1.882   5.009  0.6350 -0.8737 -0.1474
   91SAPE  H12Y 8966   4.856   1.982   4.939 -0.5234 -0.7539  1.4392
   91SAPE  C313 8967   4.671   1.953   4.823  0.1179 -0.5787 -0.5749
   91SAPE  H13X 8968   4.708   1.854   4.786  0.1160 -0.7034 -0.2465
   91SAPE  H13Y 8969   4.696   2.019   4.737 -0.4290  0.5708  0.1301
   91SAPE  C314 8970   4.514   1.965   4.831  0.4627 -0.1639  0.0407
   91SAPE  H14X 8971   4.487   2.066   4.868 -0.3433  0.3244 -1.7803
   91SAPE  H14Y 8972   4.472   1.893   4.905  1.3094 -0.7846 -0.0593
   91SAPE  C315 8973   4.447   1.951   4.701 -0.3550  0.0941  0.8830
   91SAPE  H15X 8974   4.506   2.008   4.626 -1.0268  1.1240  1.1292
   91SAPE  H15Y 8975   4.344   1.993   4.709 -0.3707  0.2084  0.1278
   91SAPE  C316 8976   4.442   1.798   4.669 -0.2948 -0.4542  0.2763
   91SAPE  H16X 8977   4.443   1.738   4.763 -0.9144  0.0464  0.6100
   91SAPE  H16Y 8978   4.535   1.775   4.613 -1.7660 -0.5405 -2.2726
   91SAPE  C317 8979   4.328   1.766   4.580  0.0202 -0.4042  0.0583
   91SAPE  H17X 8980   4.233   1.767   4.638 -0.2395  1.7213 -0.3037
   91SAPE  H17Y 8981   4.336   1.663   4.538 -0.5494 -0.5507  0.3063
   91SAPE  C318 8982   4.312   1.866   4.468 -0.1923  0.0678  0.6697
   91SAPE  H18X 8983   4.226   1.828   4.409 -2.2685  3.4607  1.2534
   91SAPE  H18Y 8984   4.398   1.863   4.397 -0.5116 -0.8361  0.3047
   91SAPE  H18Z 8985   4.296   1.973   4.492 -2.8085 -0.1484  0.2062
   92SAPE     N 8986   3.563   2.491   6.417  0.2135 -0.0001  0.6959
   92SAPE   HN1 8987   3.653   2.457   6.379 -0.8923 -1.5639 -0.6679
   92SAPE   HN2 8988   3.564   2.488   6.521  3.4551 -1.0918  0.7359
   92SAPE   HN3 8989   3.494   2.420   6.386 -0.0983  0.5075  0.2236
   92SAPE   C12 8990   3.536   2.633   6.373  0.5124  0.8667 -0.4691
   92SAPE  H12A 8991   3.600   2.690   6.444  1.0949 -1.4218  0.9355
   92SAPE  H12B 8992   3.426   2.649   6.383  0.2782 -1.1929  1.0994
   92SAPE   C11 8993   3.583   2.671   6.231  0.4688 -0.0786 -0.0233
   92SAPE  H11A 8994   3.569   2.779   6.212 -0.5697 -0.4350 -1.4891
   92SAPE  H11B 8995   3.521   2.624   6.152  0.1781 -0.0007  0.1563
   92SAPE     P 8996   3.780   2.516   6.134 -0.0429 -0.3571  0.0971
   92SAPE   O13 8997   3.932   2.502   6.142  0.3012 -0.2386 -0.3609
   92SAPE   O14 8998   3.707   2.396   6.183  0.0949 -0.1645 -0.1294
   92SAPE   O12 8999   3.723   2.643   6.218 -0.1570  0.6323  0.1858
   92SAPE   O11 9000   3.749   2.543   5.980 -0.1240  0.2027 -0.1013
   92SAPE    C1 9001   3.789   2.665   5.919 -0.1365 -0.5206  0.0074
   92SAPE    HA 9002   3.703   2.726   5.883 -0.9679 -1.5396  0.2241
   92SAPE    HB 9003   3.851   2.734   5.981  2.1898 -1.1627 -1.4812
   92SAPE    C2 9004   3.883   2.639   5.795 -0.0304 -0.3257  0.0833
   92SAPE    HS 9005   3.935   2.735   5.773  1.0640 -0.5077  1.7306
   92SAPE   O21 9006   3.805   2.591   5.684 -0.9565  0.2739  0.1167
   92SAPE   C21 9007   3.753   2.683   5.613 -0.8369  0.5702  0.7451
   92SAPE   O22 9008   3.774   2.802   5.618 -0.5870  0.0782 -0.3368
   92SAPE   C22 9009   3.637   2.632   5.520 -0.7107  0.8240 -0.0504
   92SAPE   H2R 9010   3.664   2.532   5.483 -0.3312  0.9584 -0.1370
   92SAPE   H2S 9011   3.546   2.622   5.584 -0.6372  0.5948  0.0188
   92SAPE    C3 9012   3.994   2.541   5.834  0.3781  0.0351  0.4959
   92SAPE    HX 9013   3.950   2.440   5.833  1.4579 -0.4549  0.7989
   92SAPE    HY 9014   4.013   2.556   5.942 -1.4842 -0.4197  0.9283
   92SAPE   O31 9015   4.113   2.560   5.750  0.7078 -0.0348 -0.0565
   92SAPE   C31 9016   4.209   2.639   5.797 -0.5010  0.4324 -0.6910
   92SAPE   O32 9017   4.199   2.707   5.900 -0.4187 -0.3298 -0.2344
   92SAPE   C32 9018   4.332   2.645   5.711 -0.1815  0.1298  0.3156
   92SAPE   H2X 9019   4.419   2.641   5.781  0.2566 -0.0513 -0.2307
   92SAPE   H2Y 9020   4.318   2.748   5.670 -3.6499  0.2157  1.3821
   92SAPE   C23 9021   3.614   2.725   5.400 -0.4507 -0.4086  0.2977
   92SAPE   H3R 9022   3.717   2.737   5.361 -0.4361  0.1540  0.4898
   92SAPE   H3S 9023   3.587   2.824   5.445 -0.1472  0.5366 -1.4955
   92SAPE   C24 9024   3.522   2.654   5.301 -0.5813  0.1663  0.0604
   92SAPE   H4R 9025   3.421   2.678   5.340 -0.8972 -0.0762 -0.5973
   92SAPE   H4S 9026   3.545   2.546   5.304 -1.3455 -0.0379 -1.0300
   92SAPE   C25 9027   3.531   2.712   5.164  0.2450 -1.0350  0.6726
   92SAPE   H5R 9028   3.634   2.729   5.129  0.9057 -1.8605  2.0986
   92SAPE   C26 9029   3.437   2.739   5.074 -0.3227 -0.7201 -1.0330
   92SAPE   H6R 9030   3.455   2.796   4.982 -0.3838  0.1285 -0.5341
   92SAPE   C27 9031   3.290   2.723   5.090  0.4992 -0.0093  0.2291
   92SAPE   H7R 9032   3.250   2.812   5.142  0.4891 -0.0813  0.3460
   92SAPE   H7S 9033   3.267   2.640   5.161 -1.8811  1.2960  1.1113
   92SAPE   C28 9034   3.200   2.708   4.963  0.0577  0.1633 -0.2419
   92SAPE   H8R 9035   3.198   2.796   4.898 -0.4057  0.1464 -0.2586
   92SAPE   C29 9036   3.150   2.593   4.917 -0.0262 -0.1491  0.8934
   92SAPE   H9R 9037   3.069   2.595   4.843  0.3000 -0.3677  0.5314
   92SAPE  C210 9038   3.144   2.457   4.991  0.6027 -0.0388 -0.1906
   92SAPE  H10R 9039   3.052   2.408   4.952 -1.2161  2.3022  0.8443
   92SAPE  H10S 9040   3.123   2.484   5.097 -2.3123  0.2311 -0.7430
   92SAPE  C211 9041   3.270   2.383   4.977  0.1918 -0.6178 -0.1574
   92SAPE  H11R 9042   3.338   2.391   5.062 -0.4405 -0.1881  0.3165
   92SAPE  C212 9043   3.308   2.301   4.877 -0.6588 -0.5747  0.7272
   92SAPE  H12R 9044   3.406   2.250   4.886 -1.2074 -1.7062  0.4862
   92SAPE  C213 9045   3.235   2.268   4.753  0.7714 -0.2886  0.1444
   92SAPE  H13R 9046   3.301   2.243   4.667 -0.5405  0.8280 -1.2388
   92SAPE  H13S 9047   3.176   2.355   4.716 -0.8796 -1.7667 -0.8578
   92SAPE  C214 9048   3.123   2.167   4.761 -0.1032 -0.3990 -0.0288
   92SAPE  H14R 9049   3.024   2.210   4.782 -0.5263 -0.3169 -2.0362
   92SAPE  C215 9050   3.134   2.030   4.741  0.5588 -0.4455  0.7502
   92SAPE  H15R 9051   3.045   1.966   4.727  0.7582 -0.8742  1.4055
   92SAPE  C216 9052   3.259   1.952   4.702 -0.4479  0.4534 -0.6293
   92SAPE  H16R 9053   3.343   1.989   4.764 -0.6650 -0.5024  0.2685
   92SAPE  H16S 9054   3.277   1.977   4.595  0.9837 -2.2150 -1.1175
   92SAPE  C217 9055   3.218   1.808   4.714  0.7280  0.6423 -0.7000
   92SAPE  H17R 9056   3.134   1.784   4.645 -1.1668  2.7157  0.7388
   92SAPE  H17S 9057   3.185   1.789   4.818  1.0663 -0.1884 -0.7398
   92SAPE  C218 9058   3.331   1.712   4.679 -0.3904 -0.1811  0.4065
   92SAPE  H18R 9059   3.429   1.738   4.725  1.2751 -3.8716 -0.6766
   92SAPE  H18S 9060   3.360   1.735   4.574  1.2235 -0.9372  0.6581
   92SAPE  C219 9061   3.297   1.560   4.681 -0.1161  0.2617 -0.2817
   92SAPE  H19R 9062   3.289   1.537   4.789  2.2524 -0.2356 -0.1626
   92SAPE  H19S 9063   3.385   1.507   4.639  0.1529 -1.6402  2.4293
   92SAPE  C220 9064   3.170   1.519   4.601 -0.1919 -0.4140 -0.3989
   92SAPE  H20R 9065   3.154   1.410   4.614 -1.1665 -0.5040 -1.9762
   92SAPE  H20S 9066   3.188   1.540   4.493 -0.5178  1.5000 -0.1199
   92SAPE  H20T 9067   3.081   1.579   4.629  0.1421 -0.7043  1.4040
   92SAPE   C33 9068   4.338   2.534   5.604 -0.9842 -0.5630  0.6323
   92SAPE   H3X 9069   4.279   2.557   5.513 -0.2713 -1.7279 -0.1471
   92SAPE   H3Y 9070   4.300   2.433   5.629  1.0529 -1.4141  0.5253
   92SAPE   C34 9071   4.488   2.516   5.573 -0.1399 -0.5974  0.0752
   92SAPE   H4X 9072   4.536   2.463   5.658  0.1591 -0.4157  0.0204
   92SAPE   H4Y 9073   4.545   2.611   5.562  0.8685 -1.3242 -1.2101
   92SAPE   C35 9074   4.507   2.444   5.444 -0.1693  0.1618 -0.6443
   92SAPE   H5X 9075   4.474   2.340   5.463 -1.8986  0.4089 -1.9951
   92SAPE   H5Y 9076   4.617   2.444   5.433 -0.2248 -1.0558 -1.3851
   92SAPE   C36 9077   4.442   2.500   5.315  0.1773 -0.6281  0.4299
   92SAPE   H6X 9078   4.480   2.604   5.308 -1.0013 -0.0526  1.8623
   92SAPE   H6Y 9079   4.331   2.505   5.318  0.0818 -2.0651  0.0856
   92SAPE   C37 9080   4.487   2.429   5.189 -0.4429 -0.1978  0.4623
   92SAPE   H7X 9081   4.440   2.328   5.196 -0.8028  0.0722  2.7258
   92SAPE   H7Y 9082   4.598   2.425   5.181 -0.4994  1.2436 -2.6262
   92SAPE   C38 9083   4.447   2.505   5.064  0.1304  0.1613 -0.3457
   92SAPE   H8X 9084   4.497   2.604   5.059 -0.0756  0.2386 -4.2165
   92SAPE   H8Y 9085   4.341   2.538   5.063  0.1356  0.2481  0.9234
   92SAPE   C39 9086   4.472   2.432   4.932  0.3376 -0.0305  0.8028
   92SAPE   H9X 9087   4.429   2.329   4.924  0.3088 -0.0031  0.5968
   92SAPE   H9Y 9088   4.582   2.429   4.922  0.2046  1.4433 -2.2113
   92SAPE  C310 9089   4.411   2.517   4.817 -0.3493  0.2409 -0.1477
   92SAPE  H10X 9090   4.453   2.619   4.803 -1.1808  0.5948 -0.0959
   92SAPE  H10Y 9091   4.301   2.517   4.835 -0.4063 -0.6691 -0.4641
   92SAPE  C311 9092   4.428   2.441   4.680 -0.1297 -0.6218 -0.1913
   92SAPE  H11X 9093   4.367   2.509   4.616  1.2587 -0.4953 -1.4636
   92SAPE  H11Y 9094   4.376   2.344   4.687  0.2983 -0.9781 -1.5434
   92SAPE  C312 9095   4.577   2.434   4.641 -0.3259 -0.5070  0.2676
   92SAPE  H12X 9096   4.640   2.391   4.721 -2.8363 -1.5657  1.7792
   92SAPE  H12Y 9097   4.622   2.535   4.640  2.4537 -1.4260  4.5636
   92SAPE  C313 9098   4.580   2.359   4.501 -0.1176 -0.1218 -0.2310
   92SAPE  H13X 9099   4.601   2.427   4.416  0.9867  2.6416  2.0761
   92SAPE  H13Y 9100   4.477   2.320   4.488  0.2276 -0.9129 -0.6344
   92SAPE  C314 9101   4.686   2.249   4.490 -0.1480 -0.3939 -0.1759
   92SAPE  H14X 9102   4.666   2.167   4.562  1.7829  0.1470  1.0490
   92SAPE  H14Y 9103   4.782   2.298   4.519 -0.6316 -0.4425  1.6095
   92SAPE  C315 9104   4.689   2.180   4.351  0.0736  0.0883  0.5043
   92SAPE  H15X 9105   4.698   2.264   4.280 -0.8128  0.2849  0.6188
   92SAPE  H15Y 9106   4.598   2.120   4.330  0.2737  0.2223 -0.7959
   92SAPE  C316 9107   4.811   2.085   4.330 -0.1099  0.8244  1.0742
   92SAPE  H16X 9108   4.900   2.146   4.359  0.2330  0.2318  1.2873
   92SAPE  H16Y 9109   4.816   2.064   4.222 -2.1145 -2.8396  1.5492
   92SAPE  C317 9110   4.828   1.960   4.410  0.1222  0.6332 -0.0239
   92SAPE  H17X 9111   4.848   1.983   4.517  0.6119 -1.5948  0.4151
   92SAPE  H17Y 9112   4.921   1.915   4.370  0.0363 -0.0870  0.5635
   92SAPE  C318 9113   4.707   1.862   4.404 -0.6125 -0.1834 -0.0834
   92SAPE  H18X 9114   4.729   1.771   4.464 -1.6613  0.6305  1.6050
   92SAPE  H18Y 9115   4.682   1.827   4.302  0.7660 -4.2901  0.7863
   92SAPE  H18Z 9116   4.620   1.909   4.455 -0.1664 -0.2027  0.7116
   93SAPE     N 9117   0.477   1.773   6.592  0.4405  0.6653 -0.1521
   93SAPE   HN1 9118   0.445   1.792   6.495 -0.1182 -0.9372 -0.3050
   93SAPE   HN2 9119   0.493   1.670   6.596  1.4549  0.8053 -0.2508
   93SAPE   HN3 9120   0.392   1.795   6.648  0.6045  0.7853  0.0528
   93SAPE   C12 9121   0.597   1.847   6.638  0.3137  0.8989 -0.3245
   93SAPE  H12A 9122   0.616   1.837   6.747  1.1987  0.9530 -0.4643
   93SAPE  H12B 9123   0.580   1.955   6.618 -0.6136  0.3940 -2.6130
   93SAPE   C11 9124   0.721   1.810   6.561 -1.0073 -0.3505 -0.3517
   93SAPE  H11A 9125   0.796   1.892   6.566  1.6010 -2.6458  1.0323
   93SAPE  H11B 9126   0.702   1.797   6.452  0.9057 -1.2677 -0.6310
   93SAPE     P 9127   0.918   1.643   6.544 -0.1418 -0.1516 -0.7796
   93SAPE   O13 9128   1.015   1.742   6.600 -0.5424  0.3892  0.0228
   93SAPE   O14 9129   0.946   1.501   6.577  0.0848  0.1200  0.0852
   93SAPE   O12 9130   0.768   1.680   6.605 -0.3556  0.4640 -0.2397
   93SAPE   O11 9131   0.891   1.667   6.390 -0.0175  0.2414 -0.3083
   93SAPE    C1 9132   0.819   1.568   6.314 -0.2399 -0.3039  0.3395
   93SAPE    HA 9133   0.843   1.466   6.351  1.9071 -0.0183 -0.1372
   93SAPE    HB 9134   0.709   1.573   6.322 -0.3863 -3.7590  2.8709
   93SAPE    C2 9135   0.867   1.549   6.165 -0.0329  0.0437  0.7302
   93SAPE    HS 9136   0.856   1.441   6.142 -0.7920  0.3256 -0.2592
   93SAPE   O21 9137   1.000   1.592   6.148 -0.0157  0.3094 -0.2438
   93SAPE   C21 9138   1.094   1.537   6.230  0.6152 -0.4394  0.4576
   93SAPE   O22 9139   1.084   1.427   6.281  0.5576 -0.1610  0.2490
   93SAPE   C22 9140   1.218   1.625   6.224 -0.8910  0.2874 -0.1326
   93SAPE   H2R 9141   1.200   1.715   6.162 -1.0259  2.1565  2.4697
   93SAPE   H2S 9142   1.237   1.650   6.331  0.8540  1.3360 -0.6399
   93SAPE    C3 9143   0.779   1.634   6.069 -0.2668  0.4193 -0.7127
   93SAPE    HX 9144   0.782   1.740   6.101 -2.6245  0.2939  0.1519
   93SAPE    HY 9145   0.672   1.605   6.070 -0.5865  1.5199  0.5997
   93SAPE   O31 9146   0.827   1.621   5.930  0.0196  0.5254 -0.0041
   93SAPE   C31 9147   0.857   1.733   5.857 -0.2140  0.4494 -0.2582
   93SAPE   O32 9148   0.820   1.848   5.892  0.4300 -0.5586 -0.0152
   93SAPE   C32 9149   0.934   1.700   5.731 -0.3660 -0.2193  0.7285
   93SAPE   H2X 9150   0.881   1.620   5.675 -0.4377 -0.5912  1.3178
   93SAPE   H2Y 9151   1.038   1.668   5.753 -1.4060 -3.0159  2.0972
   93SAPE   C23 9152   1.358   1.555   6.194 -0.3079 -0.4750 -0.2881
   93SAPE   H3R 9153   1.355   1.450   6.230  0.2874 -0.0480  1.0711
   93SAPE   H3S 9154   1.435   1.600   6.260 -0.7967 -0.3399  0.2032
   93SAPE   C24 9155   1.403   1.554   6.043  0.2050  0.1545  0.7996
   93SAPE   H4R 9156   1.510   1.524   6.036 -0.3282 -1.7590  0.4217
   93SAPE   H4S 9157   1.402   1.655   5.997  2.7723  0.2053  0.6803
   93SAPE   C25 9158   1.329   1.452   5.955  0.5255  0.9040  0.5898
   93SAPE   H5R 9159   1.274   1.372   6.006  1.8112  0.8842  2.0167
   93SAPE   C26 9160   1.310   1.446   5.819 -0.1254 -0.3187 -0.2844
   93SAPE   H6R 9161   1.271   1.352   5.778  2.0339 -1.0965 -0.7159
   93SAPE   C27 9162   1.371   1.531   5.709 -0.0741  0.1149  0.4525
   93SAPE   H7R 9163   1.452   1.588   5.759 -0.4131  0.5545  0.4954
   93SAPE   H7S 9164   1.303   1.612   5.677  1.4493  1.8819  1.4634
   93SAPE   C28 9165   1.427   1.449   5.588 -1.2678 -0.7748  0.5111
   93SAPE   H8R 9166   1.453   1.344   5.608  0.3659 -0.7587 -1.2576
   93SAPE   C29 9167   1.462   1.499   5.472  0.0240 -0.2158 -0.1400
   93SAPE   H9R 9168   1.476   1.429   5.388 -1.1867  0.3853 -0.8664
   93SAPE  C210 9169   1.453   1.645   5.434  0.0969 -0.2228 -0.5887
   93SAPE  H10R 9170   1.422   1.706   5.521 -3.6180 -2.0478 -0.4462
   93SAPE  H10S 9171   1.369   1.664   5.363 -0.0718  0.9778 -0.0789
   93SAPE  C211 9172   1.592   1.698   5.382  1.0260  0.7586 -0.7130
   93SAPE  H11R 9173   1.673   1.682   5.455  0.8172  2.9420  0.0732
   93SAPE  C212 9174   1.626   1.747   5.266  0.0513 -0.0007 -0.0034
   93SAPE  H12R 9175   1.730   1.782   5.257  0.0039  0.1552  0.0596
   93SAPE  C213 9176   1.537   1.770   5.148  0.6686 -0.3073  0.3932
   93SAPE  H13R 9177   1.462   1.688   5.152  1.3781 -1.1027 -1.5125
   93SAPE  H13S 9178   1.598   1.764   5.055 -1.0523 -1.7913 -0.7029
   93SAPE  C214 9179   1.451   1.898   5.142 -0.4410  0.0218  0.0711
   93SAPE  H14R 9180   1.399   1.921   5.236 -0.1381  0.1808  0.2008
   93SAPE  C215 9181   1.422   1.982   5.042 -0.1145  0.8622  0.2115
   93SAPE  H15R 9182   1.337   2.049   5.059 -1.2267  0.9291 -4.4039
   93SAPE  C216 9183   1.474   1.990   4.902 -0.2780  0.2507 -0.6847
   93SAPE  H16R 9184   1.501   1.888   4.865 -0.5061 -0.3034  0.5973
   93SAPE  H16S 9185   1.559   2.062   4.899  1.3426 -1.5916 -1.1815
   93SAPE  C217 9186   1.381   2.045   4.789  0.3413 -0.4255  0.1067
   93SAPE  H17R 9187   1.307   1.965   4.766 -0.7458  0.1235  1.5505
   93SAPE  H17S 9188   1.440   2.060   4.696 -0.8117  0.4790 -0.5039
   93SAPE  C218 9189   1.310   2.176   4.829 -0.5387 -0.5397 -0.1766
   93SAPE  H18R 9190   1.383   2.258   4.848  0.8382 -1.0368 -2.9548
   93SAPE  H18S 9191   1.242   2.163   4.917  0.4678 -1.7309  0.4525
   93SAPE  C219 9192   1.225   2.243   4.717  0.4256  0.0958 -0.2799
   93SAPE  H19R 9193   1.292   2.266   4.632 -0.7136 -0.6410 -1.4182
   93SAPE  H19S 9194   1.177   2.330   4.766 -0.2942  0.1096 -0.9880
   93SAPE  C220 9195   1.110   2.159   4.657  0.2610 -0.5642  0.0364
   93SAPE  H20R 9196   1.041   2.126   4.738 -0.8482  1.1633 -0.1457
   93SAPE  H20S 9197   1.141   2.070   4.598 -1.6393 -1.8547  0.8607
   93SAPE  H20T 9198   1.053   2.226   4.589 -1.0875 -1.5867  0.1008
   93SAPE   C33 9199   0.941   1.820   5.625  0.1535 -0.3202 -0.4486
   93SAPE   H3X 9200   0.999   1.893   5.685  0.5321 -0.7027 -0.3441
   93SAPE   H3Y 9201   0.843   1.869   5.608  0.2727 -0.1606 -0.6866
   93SAPE   C34 9202   1.002   1.791   5.489  0.5134 -0.4814 -0.3268
   93SAPE   H4X 9203   0.959   1.699   5.443  0.5499 -0.6456 -0.0374
   93SAPE   H4Y 9204   1.109   1.763   5.497  0.5437 -0.4487 -0.5958
   93SAPE   C35 9205   0.968   1.897   5.387 -0.4360  0.6140  0.5076
   93SAPE   H5X 9206   0.974   1.998   5.433 -2.5759  0.3265  1.5107
   93SAPE   H5Y 9207   0.863   1.885   5.355 -0.3862 -0.5612  0.7604
   93SAPE   C36 9208   1.068   1.893   5.269 -0.0293  0.1964 -0.0686
   93SAPE   H6X 9209   1.042   1.796   5.223  0.5710 -0.1369  0.2863
   93SAPE   H6Y 9210   1.174   1.883   5.303  0.4641 -1.3966 -1.9039
   93SAPE   C37 9211   1.062   2.022   5.196 -0.7000  0.5050  0.2805
   93SAPE   H7X 9212   1.112   2.022   5.097  0.3647  0.3775  0.7969
   93SAPE   H7Y 9213   1.107   2.105   5.255 -0.6274  0.0631  0.8586
   93SAPE   C38 9214   0.922   2.062   5.149 -0.0344 -0.7601 -0.3170
   93SAPE   H8X 9215   0.859   2.077   5.239  1.5221 -1.8425  0.9891
   93SAPE   H8Y 9216   0.888   1.975   5.088 -1.5829  1.4984 -2.9390
   93SAPE   C39 9217   0.929   2.180   5.050  0.3467 -0.4923 -0.1265
   93SAPE   H9X 9218   0.996   2.161   4.963  0.2218 -0.7955 -0.1587
   93SAPE   H9Y 9219   0.974   2.275   5.087  1.5143 -0.3088 -1.8784
   93SAPE  C310 9220   0.788   2.208   4.991 -0.3107  0.4356 -0.5448
   93SAPE  H10X 9221   0.811   2.270   4.901  1.4956 -0.8196 -1.0132
   93SAPE  H10Y 9222   0.721   2.264   5.060 -1.3690 -0.6931 -0.6237
   93SAPE  C311 9223   0.720   2.087   4.926  0.3339  0.3037 -0.1137
   93SAPE  H11X 9224   0.697   2.012   5.005  2.2302 -0.9488 -0.6736
   93SAPE  H11Y 9225   0.795   2.035   4.862  2.4528  1.6903  1.1270
   93SAPE  C312 9226   0.597   2.123   4.835  0.0749 -0.5478 -0.1241
   93SAPE  H12X 9227   0.543   2.205   4.885  3.7285  0.8385  1.9113
   93SAPE  H12Y 9228   0.527   2.037   4.842 -0.1106 -0.4387 -0.5660
   93SAPE  C313 9229   0.633   2.152   4.690  0.6599  0.4674  0.4920
   93SAPE  H13X 9230   0.730   2.201   4.668 -0.1294  1.4003 -1.1256
   93SAPE  H13Y 9231   0.551   2.212   4.645  0.3360  1.6026  2.4986
   93SAPE  C314 9232   0.640   2.027   4.606 -0.3069  0.6060 -0.3587
   93SAPE  H14X 9233   0.553   1.960   4.619  1.1958 -2.1161 -3.1710
   93SAPE  H14Y 9234   0.731   1.969   4.631  0.2719  1.5073 -0.3419
   93SAPE  C315 9235   0.632   2.054   4.454  0.1090  0.0151  0.5407
   93SAPE  H15X 9236   0.529   2.092   4.438  1.3431  2.7261 -1.9569
   93SAPE  H15Y 9237   0.635   1.952   4.412 -0.0457 -0.8252  2.4514
   93SAPE  C316 9238   0.746   2.139   4.386 -0.6084 -0.9951 -0.0556
   93SAPE  H16X 9239   0.847   2.100   4.414 -0.0168  0.4612 -0.0842
   93SAPE  H16Y 9240   0.740   2.240   4.431  2.8755 -0.6369 -0.0836
   93SAPE  C317 9241   0.725   2.145   4.229  0.3128  0.1350 -0.3733
   93SAPE  H17X 9242   0.806   2.211   4.191  1.0458 -2.1238 -3.0321
   93SAPE  H17Y 9243   0.626   2.194   4.217  0.2693 -0.1013 -1.0055
   93SAPE  C318 9244   0.726   2.012   4.160  0.1179 -1.5485  0.3748
   93SAPE  H18X 9245   0.689   2.023   4.056  0.0999 -0.2033  0.5023
   93SAPE  H18Y 9246   0.643   1.951   4.202 -3.0533  0.4054 -2.5399
   93SAPE  H18Z 9247   0.825   1.963   4.166  1.1833  0.2195 -1.5334
   94SAPE     N 9248   5.629   4.419   6.810  0.2534  0.0540  0.6659
   94SAPE   HN1 9249   5.646   4.498   6.875 -0.6066 -0.4981  1.5860
   94SAPE   HN2 9250   5.532   4.438   6.778  1.1788  1.1804 -1.7399
   94SAPE   HN3 9251   5.628   4.326   6.857  3.5209 -1.5859 -2.0477
   94SAPE   C12 9252   5.717   4.414   6.690 -0.2860  0.0463  0.4313
   94SAPE  H12A 9253   5.820   4.384   6.721 -0.1482  0.1551  0.0882
   94SAPE  H12B 9254   5.719   4.512   6.637  0.2101 -1.9971 -3.7749
   94SAPE   C11 9255   5.687   4.312   6.578  0.0619  0.5839 -0.7150
   94SAPE  H11A 9256   5.779   4.296   6.517 -0.6959 -0.1542 -1.7056
   94SAPE  H11B 9257   5.607   4.358   6.517  0.6630  1.2756 -0.9971
   94SAPE     P 9258   5.744   4.061   6.670  0.2123  0.3121  0.0193
   94SAPE   O13 9259   5.840   4.094   6.775  0.4711 -0.2570  0.5113
   94SAPE   O14 9260   5.660   3.941   6.689  0.4173  0.0190 -0.9303
   94SAPE   O12 9261   5.656   4.188   6.650 -0.2651 -0.1179 -0.0632
   94SAPE   O11 9262   5.821   4.051   6.535 -0.2586 -0.1045 -0.0594
   94SAPE    C1 9263   5.855   3.932   6.470 -0.4790 -0.1496  0.5262
   94SAPE    HA 9264   5.952   3.898   6.513 -0.1558 -0.1377 -0.1765
   94SAPE    HB 9265   5.791   3.844   6.489  0.0136 -0.3726  1.1801
   94SAPE    C2 9266   5.870   3.949   6.310  0.1620  0.5607 -1.0179
   94SAPE    HS 9267   5.933   3.866   6.273 -0.6695 -0.1952 -0.7660
   94SAPE   O21 9268   5.913   4.081   6.271 -0.2832 -0.2675  0.1396
   94SAPE   C21 9269   6.045   4.080   6.234  0.3263  0.2658 -0.1892
   94SAPE   O22 9270   6.124   3.995   6.269  0.0701 -0.3528  0.6723
   94SAPE   C22 9271   6.067   4.196   6.132 -0.1424  0.6635  0.4563
   94SAPE   H2R 9272   6.134   4.256   6.196 -0.4309  2.0696 -0.5258
   94SAPE   H2S 9273   6.113   4.152   6.042  0.8837  1.3043  0.6532
   94SAPE    C3 9274   5.728   3.930   6.251  0.4271  0.3505  0.4313
   94SAPE    HX 9275   5.657   3.996   6.305  0.6228  1.4750 -0.6339
   94SAPE    HY 9276   5.698   3.824   6.260 -0.0172  0.3176 -1.1642
   94SAPE   O31 9277   5.728   3.972   6.116  0.3614  0.1483  0.1820
   94SAPE   C31 9278   5.754   3.884   6.020 -0.4055 -0.0716  0.3878
   94SAPE   O32 9279   5.791   3.769   6.035 -0.3405  0.1021  0.2076
   94SAPE   C32 9280   5.733   3.956   5.888  0.2000 -0.0167  0.0194
   94SAPE   H2X 9281   5.742   3.876   5.812  3.1104 -1.2732  1.5260
   94SAPE   H2Y 9282   5.824   4.020   5.885  0.9730 -1.1284 -1.2656
   94SAPE   C23 9283   5.942   4.283   6.100 -0.7218 -0.3957  0.2264
   94SAPE   H3R 9284   5.881   4.293   6.193 -1.8986 -1.2741 -0.4171
   94SAPE   H3S 9285   5.877   4.233   6.025 -0.5383  0.2152 -0.3480
   94SAPE   C24 9286   5.974   4.430   6.048  0.3974 -0.2568  0.4840
   94SAPE   H4R 9287   6.045   4.417   5.963  1.0536  3.9073  0.1412
   94SAPE   H4S 9288   6.032   4.486   6.125  0.2269 -0.3839  0.7048
   94SAPE   C25 9289   5.855   4.506   5.989 -0.3541  0.6688 -0.1908
   94SAPE   H5R 9290   5.813   4.581   6.057  0.4162  0.9335  0.0015
   94SAPE   C26 9291   5.823   4.512   5.863 -0.9552 -0.0573  0.4290
   94SAPE   H6R 9292   5.734   4.574   5.842 -0.1072  1.2034  0.4223
   94SAPE   C27 9293   5.884   4.439   5.749 -0.1948  0.1996  0.3864
   94SAPE   H7R 9294   5.851   4.332   5.746  3.2403 -0.9827  0.7554
   94SAPE   H7S 9295   5.992   4.425   5.770 -0.4765  0.6762  2.3917
   94SAPE   C28 9296   5.859   4.510   5.617 -0.0315  0.9327 -0.5863
   94SAPE   H8R 9297   5.781   4.460   5.558  1.9319 -3.2963  0.0864
   94SAPE   C29 9298   5.931   4.607   5.555 -0.4556  0.1727  0.0586
   94SAPE   H9R 9299   5.890   4.648   5.462 -0.4456 -0.6094 -0.3022
   94SAPE  C210 9300   6.059   4.680   5.592  0.6135  0.5099  0.4000
   94SAPE  H10R 9301   6.037   4.759   5.668 -0.9899  0.5287 -0.0451
   94SAPE  H10S 9302   6.099   4.728   5.501 -0.6111 -2.2003 -1.7151
   94SAPE  C211 9303   6.168   4.600   5.649  0.3637 -0.1958 -0.2759
   94SAPE  H11R 9304   6.151   4.570   5.753  2.6049 -0.3405  0.0989
   94SAPE  C212 9305   6.266   4.539   5.581  0.2085 -0.3844 -0.0537
   94SAPE  H12R 9306   6.333   4.470   5.634  1.8632  0.4216 -1.0294
   94SAPE  C213 9307   6.287   4.550   5.432  0.7376  0.3369 -0.5071
   94SAPE  H13R 9308   6.354   4.633   5.402  1.1376  0.1529 -0.1389
   94SAPE  H13S 9309   6.190   4.573   5.384  1.5119 -1.6146 -3.2602
   94SAPE  C214 9310   6.353   4.431   5.367 -0.1044 -0.4020 -0.9103
   94SAPE  H14R 9311   6.436   4.392   5.428 -0.8418  0.5746  0.7821
   94SAPE  C215 9312   6.313   4.375   5.253  0.0482  0.0017 -0.6577
   94SAPE  H15R 9313   6.368   4.289   5.211 -2.1050 -1.3307 -0.9040
   94SAPE  C216 9314   6.189   4.414   5.178 -0.1434  0.4188  0.2311
   94SAPE  H16R 9315   6.117   4.483   5.228 -1.5629 -0.8387 -0.0249
   94SAPE  H16S 9316   6.131   4.322   5.159 -3.1458  2.5322 -1.7520
   94SAPE  C217 9317   6.234   4.466   5.041 -0.6901 -0.6620 -0.1875
   94SAPE  H17R 9318   6.300   4.553   5.060 -2.7700  1.0576 -0.4901
   94SAPE  H17S 9319   6.143   4.509   4.994 -1.2827 -0.8690  0.7587
   94SAPE  C218 9320   6.300   4.361   4.950  0.7128 -0.2183  0.6055
   94SAPE  H18R 9321   6.408   4.364   4.974  1.7789  2.3729 -3.5128
   94SAPE  H18S 9322   6.293   4.409   4.850 -0.4273  1.1156  1.2954
   94SAPE  C219 9323   6.248   4.213   4.950  0.4285 -0.2171  0.2003
   94SAPE  H19R 9324   6.142   4.236   4.925 -0.3608 -1.4847  2.1236
   94SAPE  H19S 9325   6.245   4.169   5.052 -0.8964  1.9193  1.1449
   94SAPE  C220 9326   6.320   4.119   4.858  0.1435  0.0219  0.1989
   94SAPE  H20R 9327   6.274   4.018   4.851  2.3382 -1.2117  2.0202
   94SAPE  H20S 9328   6.425   4.104   4.892 -0.2501  0.5055  1.7121
   94SAPE  H20T 9329   6.320   4.163   4.756  0.6565  0.0497  0.2082
   94SAPE   C33 9330   5.597   4.027   5.870 -0.5242  0.0157 -0.0753
   94SAPE   H3X 9331   5.585   4.089   5.962  2.3259 -3.0284  2.5608
   94SAPE   H3Y 9332   5.513   3.954   5.874  0.5172 -1.2079 -0.1052
   94SAPE   C34 9333   5.579   4.105   5.739 -0.0865 -0.3980  0.1663
   94SAPE   H4X 9334   5.660   4.181   5.729 -0.1401 -0.4629 -0.8990
   94SAPE   H4Y 9335   5.485   4.165   5.740 -0.8745 -1.5638  2.9704
   94SAPE   C35 9336   5.598   4.021   5.608  0.2503 -0.2142  0.2323
   94SAPE   H5X 9337   5.555   3.919   5.618  0.5064 -0.2594  0.9199
   94SAPE   H5Y 9338   5.705   4.004   5.584 -0.0908 -1.4242 -0.5496
   94SAPE   C36 9339   5.532   4.089   5.485 -0.2806 -0.4641 -0.0347
   94SAPE   H6X 9340   5.594   4.180   5.469 -0.6393 -0.4693 -1.6440
   94SAPE   H6Y 9341   5.429   4.120   5.510 -0.2959 -0.0297 -0.6082
   94SAPE   C37 9342   5.549   4.003   5.359 -0.2363  0.3307 -0.4491
   94SAPE   H7X 9343   5.471   3.924   5.352  0.8678 -0.9186  0.6917
   94SAPE   H7Y 9344   5.641   3.942   5.367  0.1820  1.1310  1.5378
   94SAPE   C38 9345   5.533   4.085   5.233 -0.1810 -0.0649 -0.1153
   94SAPE   H8X 9346   5.605   4.169   5.242 -2.6975  2.0953  1.3735
   94SAPE   H8Y 9347   5.434   4.135   5.229  0.5593  1.3736 -1.6807
   94SAPE   C39 9348   5.543   4.007   5.106 -0.2438 -0.3489  1.5843
   94SAPE   H9X 9349   5.459   3.937   5.090 -2.2027  2.1034  0.3391
   94SAPE   H9Y 9350   5.632   3.942   5.119 -0.9592 -1.8167 -0.3511
   94SAPE  C310 9351   5.547   4.089   4.980 -0.0577 -0.1447 -0.0662
   94SAPE  H10X 9352   5.637   4.154   4.972 -1.3349  1.5298 -2.2392
   94SAPE  H10Y 9353   5.449   4.142   4.991 -0.2610 -0.1129 -1.6959
   94SAPE  C311 9354   5.547   4.000   4.857 -0.0197  0.2904 -0.0180
   94SAPE  H11X 9355   5.448   3.959   4.829  0.8321 -1.0556 -1.1717
   94SAPE  H11Y 9356   5.623   3.924   4.884  0.0438  1.4579  3.6657
   94SAPE  C312 9357   5.580   4.074   4.726 -0.0596 -0.5677 -0.1614
   94SAPE  H12X 9358   5.681   4.117   4.746 -0.0631 -1.0824  1.0338
   94SAPE  H12Y 9359   5.515   4.163   4.718  1.9221  1.2336  2.1483
   94SAPE  C313 9360   5.584   3.988   4.595  0.0589  0.3705 -0.1249
   94SAPE  H13X 9361   5.667   3.914   4.595 -0.0575  0.2167 -1.1759
   94SAPE  H13Y 9362   5.610   4.065   4.519 -0.9015  0.0585 -0.7880
   94SAPE  C314 9363   5.448   3.926   4.550  0.5634 -0.3242  0.0162
   94SAPE  H14X 9364   5.428   3.839   4.617  0.2997 -1.8740 -1.9822
   94SAPE  H14Y 9365   5.465   3.883   4.449  2.9835  0.4859  0.0225
   94SAPE  C315 9366   5.319   4.015   4.555  0.1634 -0.8673  0.4187
   94SAPE  H15X 9367   5.308   4.046   4.661  1.6918  0.0646  0.3319
   94SAPE  H15Y 9368   5.231   3.955   4.523  0.7067 -1.2046 -0.4717
   94SAPE  C316 9369   5.339   4.150   4.474 -0.0373 -0.4741 -0.1565
   94SAPE  H16X 9370   5.423   4.138   4.402  0.6669 -1.2123  0.7811
   94SAPE  H16Y 9371   5.368   4.242   4.528 -0.4695 -0.1365 -0.4846
   94SAPE  C317 9372   5.209   4.184   4.394 -0.2943 -0.2903  0.1190
   94SAPE  H17X 9373   5.193   4.101   4.322 -0.3766 -0.5800  0.4647
   94SAPE  H17Y 9374   5.233   4.271   4.330 -2.1200  1.3719  1.5456
   94SAPE  C318 9375   5.076   4.209   4.465 -0.8639 -0.1142  0.3419
   94SAPE  H18X 9376   5.051   4.121   4.528  0.7501 -1.5405 -0.8908
   94SAPE  H18Y 9377   4.998   4.210   4.386 -0.1410  0.0759 -0.3913
   94SAPE  H18Z 9378   5.068   4.305   4.519  1.4501 -0.5287  1.5515
   95SAPE     N 9379   2.852   2.553   6.755 -0.0639 -0.3363 -0.0983
   95SAPE   HN1 9380   2.886   2.458   6.777  0.6852 -0.1541 -0.4616
   95SAPE   HN2 9381   2.787   2.548   6.674 -1.4516 -0.1809  0.9655
   95SAPE   HN3 9382   2.933   2.613   6.728  1.8592 -1.5076  2.5796
   95SAPE   C12 9383   2.773   2.619   6.861  0.4062 -0.2826  0.1444
   95SAPE  H12A 9384   2.830   2.623   6.956 -0.1481 -0.6271  0.4974
   95SAPE  H12B 9385   2.678   2.564   6.877  1.0129 -1.3196  0.2467
   95SAPE   C11 9386   2.757   2.761   6.808 -0.1896 -0.7629 -0.1186
   95SAPE  H11A 9387   2.705   2.747   6.711  1.9225 -1.8057 -1.1684
   95SAPE  H11B 9388   2.858   2.804   6.789 -1.2037  1.9701  0.2450
   95SAPE     P 9389   2.673   2.995   6.867  0.0360  0.4901  0.1394
   95SAPE   O13 9390   2.542   3.042   6.911 -0.3314 -0.5784  0.5888
   95SAPE   O14 9391   2.788   3.071   6.909  0.1420  0.2721  0.4812
   95SAPE   O12 9392   2.691   2.841   6.906 -0.0271 -0.5546  0.0060
   95SAPE   O11 9393   2.676   2.987   6.709 -0.6377 -0.4914 -0.4092
   95SAPE    C1 9394   2.561   3.041   6.649 -0.5104 -0.1281  0.3907
   95SAPE    HA 9395   2.466   2.991   6.678 -0.0424 -0.6054  1.1282
   95SAPE    HB 9396   2.559   3.150   6.671  0.8055  0.2520 -1.2259
   95SAPE    C2 9397   2.563   3.042   6.493  0.8848  1.0383  0.2754
   95SAPE    HS 9398   2.468   3.092   6.466  0.6344 -0.2919 -1.5494
   95SAPE   O21 9399   2.562   2.902   6.447 -0.3649 -0.1238  0.2178
   95SAPE   C21 9400   2.437   2.853   6.443  0.2131 -0.5318 -0.4224
   95SAPE   O22 9401   2.334   2.923   6.453 -0.1313  0.2492 -0.0379
   95SAPE   C22 9402   2.433   2.697   6.422  1.1966 -0.2792  0.1689
   95SAPE   H2R 9403   2.530   2.659   6.459  0.4371 -0.1357  2.5085
   95SAPE   H2S 9404   2.349   2.668   6.489 -0.1924 -1.6483 -2.0274
   95SAPE    C3 9405   2.679   3.125   6.436  0.3146  0.9083  0.1046
   95SAPE    HX 9406   2.771   3.101   6.493  1.5803 -1.1439 -2.5954
   95SAPE    HY 9407   2.663   3.234   6.453  2.5371  1.1963  0.6285
   95SAPE   O31 9408   2.696   3.099   6.293  0.1562  0.1536  0.0177
   95SAPE   C31 9409   2.794   3.170   6.236 -0.2197  0.5784 -0.3777
   95SAPE   O32 9410   2.884   3.232   6.299  0.4559  0.2860 -0.8361
   95SAPE   C32 9411   2.784   3.180   6.079  0.3844 -0.1378 -0.3710
   95SAPE   H2X 9412   2.795   3.288   6.056  0.5750  0.2991  1.5353
   95SAPE   H2Y 9413   2.686   3.141   6.046 -0.5784  1.3610  0.5740
   95SAPE   C23 9414   2.397   2.673   6.274 -0.5891  0.2708 -0.4717
   95SAPE   H3R 9415   2.294   2.708   6.252 -0.3304  0.2969 -1.7253
   95SAPE   H3S 9416   2.395   2.563   6.258 -1.0984  0.2181 -0.0875
   95SAPE   C24 9417   2.489   2.747   6.167 -0.8121 -0.2707 -0.3661
   95SAPE   H4R 9418   2.458   2.854   6.171 -0.5159 -0.1925 -0.1253
   95SAPE   H4S 9419   2.444   2.727   6.068  0.8425  0.3576 -1.2717
   95SAPE   C25 9420   2.638   2.725   6.166  0.0050 -0.3362 -0.5766
   95SAPE   H5R 9421   2.680   2.753   6.264  0.6528  2.4969 -1.5610
   95SAPE   C26 9422   2.714   2.663   6.075  0.3133 -1.0144  0.1920
   95SAPE   H6R 9423   2.819   2.645   6.103 -0.3687 -2.5982  1.9392
   95SAPE   C27 9424   2.667   2.607   5.944  0.0977  0.2323 -0.4360
   95SAPE   H7R 9425   2.730   2.659   5.869 -0.3690  0.6879 -0.5162
   95SAPE   H7S 9426   2.562   2.637   5.926 -0.6298 -1.2830  1.0166
   95SAPE   C28 9427   2.682   2.459   5.939  0.5443 -0.3177 -0.6069
   95SAPE   H8R 9428   2.649   2.418   6.035 -0.8878  1.5958 -0.2252
   95SAPE   C29 9429   2.742   2.386   5.839 -0.1097 -0.0358 -0.5037
   95SAPE   H9R 9430   2.756   2.276   5.837  0.3793  0.0104  0.0374
   95SAPE  C210 9431   2.803   2.437   5.711  0.4977  0.3108  0.0818
   95SAPE  H10R 9432   2.895   2.388   5.674  1.0149  0.7751  0.7323
   95SAPE  H10S 9433   2.840   2.540   5.728  0.0600  0.4221  0.4109
   95SAPE  C211 9434   2.694   2.446   5.603 -0.0485 -0.1015 -0.6016
   95SAPE  H11R 9435   2.607   2.506   5.635  0.6623 -0.2860  1.8909
   95SAPE  C212 9436   2.688   2.371   5.495  0.3984  0.7028  0.1038
   95SAPE  H12R 9437   2.598   2.362   5.433 -0.6936 -1.1700  1.8194
   95SAPE  C213 9438   2.802   2.290   5.447  0.6772 -0.5618 -0.5020
   95SAPE  H13R 9439   2.767   2.185   5.436 -1.6942  0.2188 -0.9628
   95SAPE  H13S 9440   2.885   2.288   5.521 -0.5314  2.8396  1.1654
   95SAPE  C214 9441   2.867   2.339   5.323  0.0162  0.6496  0.0513
   95SAPE  H14R 9442   2.973   2.367   5.335  0.5268 -0.5004 -1.4658
   95SAPE  C215 9443   2.819   2.354   5.201  0.4994 -0.0747 -0.6267
   95SAPE  H15R 9444   2.889   2.389   5.124  0.0337 -0.8062 -1.3926
   95SAPE  C216 9445   2.680   2.322   5.152  0.3862 -0.0032 -0.0096
   95SAPE  H16R 9446   2.607   2.282   5.225 -0.9166 -1.1329 -1.8421
   95SAPE  H16S 9447   2.681   2.238   5.080  0.8932 -0.3632  0.4111
   95SAPE  C217 9448   2.631   2.451   5.083 -0.3287 -0.2159 -0.0746
   95SAPE  H17R 9449   2.642   2.530   5.161  0.8878 -0.3903 -0.0458
   95SAPE  H17S 9450   2.523   2.425   5.076 -0.5901 -0.2614  2.7210
   95SAPE  C218 9451   2.691   2.500   4.949 -0.7882  0.2198  0.4113
   95SAPE  H18R 9452   2.794   2.539   4.960 -0.9092  1.1516 -1.3910
   95SAPE  H18S 9453   2.630   2.577   4.899  0.6243  0.8199 -0.4244
   95SAPE  C219 9454   2.704   2.376   4.859 -0.9738  0.2463 -0.6047
   95SAPE  H19R 9455   2.616   2.309   4.857  0.1894 -1.3466 -1.7459
   95SAPE  H19S 9456   2.792   2.320   4.898 -1.4680  0.3281  0.6646
   95SAPE  C220 9457   2.735   2.401   4.714 -0.0214 -0.1101 -0.3774
   95SAPE  H20R 9458   2.654   2.455   4.659 -1.6955 -1.6746  0.4265
   95SAPE  H20S 9459   2.754   2.303   4.667 -4.1524 -0.2004 -2.2887
   95SAPE  H20T 9460   2.829   2.460   4.711  0.2628 -0.0158  3.9107
   95SAPE   C33 9461   2.890   3.095   6.010 -0.3173 -0.4073 -0.4323
   95SAPE   H3X 9462   2.899   2.985   6.023  1.5354 -0.0088  2.3020
   95SAPE   H3Y 9463   2.983   3.123   6.062  0.6341 -2.3606 -0.9747
   95SAPE   C34 9464   2.909   3.138   5.863  0.3324 -0.5956  0.5939
   95SAPE   H4X 9465   3.014   3.117   5.835 -0.0932  0.3253 -1.9896
   95SAPE   H4Y 9466   2.913   3.249   5.855  2.4829 -0.7151 -0.8744
   95SAPE   C35 9467   2.822   3.072   5.752  0.5705  0.3629 -0.2085
   95SAPE   H5X 9468   2.862   3.108   5.655  1.1978 -1.7378 -0.7744
   95SAPE   H5Y 9469   2.715   3.100   5.765  0.6448  0.8592 -0.6255
   95SAPE   C36 9470   2.823   2.917   5.751  0.0375 -0.4215 -0.7686
   95SAPE   H6X 9471   2.758   2.888   5.836  0.5197  0.3281 -0.1403
   95SAPE   H6Y 9472   2.925   2.876   5.761  1.0124  1.8111 -0.9731
   95SAPE   C37 9473   2.773   2.865   5.617 -0.0482  0.1418  0.3765
   95SAPE   H7X 9474   2.799   2.757   5.609  0.7272  0.3179  0.4459
   95SAPE   H7Y 9475   2.837   2.923   5.547  2.2941 -0.8642  1.5679
   95SAPE   C38 9476   2.616   2.882   5.590 -0.4502 -0.1314 -0.0301
   95SAPE   H8X 9477   2.593   2.986   5.558  0.0032 -0.4017 -1.3279
   95SAPE   H8Y 9478   2.557   2.861   5.681 -1.3879  0.1622 -0.5582
   95SAPE   C39 9479   2.563   2.801   5.480  1.0217 -0.1106 -1.2540
   95SAPE   H9X 9480   2.453   2.805   5.465  0.6118 -3.7506 -0.1476
   95SAPE   H9Y 9481   2.572   2.695   5.514 -1.9108  0.2534  1.0944
   95SAPE  C310 9482   2.638   2.798   5.342 -0.4693 -0.7346 -0.0257
   95SAPE  H10X 9483   2.587   2.722   5.278 -0.0540 -1.4770  0.5051
   95SAPE  H10Y 9484   2.744   2.770   5.359 -0.4416 -0.0876  0.9117
   95SAPE  C311 9485   2.654   2.924   5.254  0.0892 -0.2826  0.1571
   95SAPE  H11X 9486   2.711   2.994   5.319  0.1863  0.1626 -0.4003
   95SAPE  H11Y 9487   2.562   2.983   5.233  1.4675  2.2373  0.7441
   95SAPE  C312 9488   2.720   2.899   5.119  0.0574 -1.0002  0.0347
   95SAPE  H12X 9489   2.654   2.834   5.057 -0.6258  0.9992 -1.4206
   95SAPE  H12Y 9490   2.816   2.844   5.131  1.4843  1.5020  0.8244
   95SAPE  C313 9491   2.763   3.039   5.060 -0.3298  0.0377 -0.0058
   95SAPE  H13X 9492   2.810   3.092   5.146 -1.0049 -0.1177  0.4573
   95SAPE  H13Y 9493   2.674   3.093   5.020 -1.4579 -1.2986  0.6200
   95SAPE  C314 9494   2.866   3.019   4.954 -0.0191 -0.5503  0.7111
   95SAPE  H14X 9495   2.934   2.938   4.986  0.0168 -1.4417 -1.4603
   95SAPE  H14Y 9496   2.926   3.112   4.952 -2.3284  1.0268  0.0175
   95SAPE  C315 9497   2.799   2.995   4.818  0.1718 -0.5650  0.0251
   95SAPE  H15X 9498   2.737   3.082   4.788  1.6786  0.6089  0.1384
   95SAPE  H15Y 9499   2.723   2.918   4.840  1.7605 -3.0248 -2.5120
   95SAPE  C316 9500   2.899   2.942   4.711  0.3432 -0.2650  0.1345
   95SAPE  H16X 9501   2.995   2.998   4.710  0.4341 -0.4361 -0.9519
   95SAPE  H16Y 9502   2.841   2.949   4.617 -1.3545 -1.5861  1.0183
   95SAPE  C317 9503   2.936   2.793   4.727 -0.0263 -0.6409 -0.4702
   95SAPE  H17X 9504   2.852   2.725   4.699  1.1582 -1.2004 -2.8895
   95SAPE  H17Y 9505   2.969   2.779   4.832 -0.3970 -0.9683 -0.3906
   95SAPE  C318 9506   3.053   2.759   4.637  0.2765  0.3280 -1.1671
   95SAPE  H18X 9507   3.135   2.828   4.665 -2.2855  2.8286  0.8216
   95SAPE  H18Y 9508   3.033   2.771   4.529  1.4537  1.6309 -1.2640
   95SAPE  H18Z 9509   3.093   2.658   4.659 -0.6366  0.3996  1.1121
   96SAPE     N 9510   0.493   3.619   6.564  0.4817 -0.8380 -0.3364
   96SAPE   HN1 9511   0.488   3.716   6.527 -2.0656 -1.6232 -2.2617
   96SAPE   HN2 9512   0.437   3.603   6.651  0.7954  1.4028  0.3415
   96SAPE   HN3 9513   0.595   3.612   6.586 -0.2815  0.2060  5.1765
   96SAPE   C12 9514   0.451   3.527   6.451 -0.3478 -0.4415 -0.3326
   96SAPE  H12A 9515   0.474   3.429   6.499 -0.4952 -0.0391  0.5714
   96SAPE  H12B 9516   0.522   3.547   6.368 -1.1634  1.2997 -0.6422
   96SAPE   C11 9517   0.307   3.540   6.394 -0.6862 -0.3198 -0.1820
   96SAPE  H11A 9518   0.280   3.463   6.319  0.3818  1.4277 -2.4748
   96SAPE  H11B 9519   0.300   3.640   6.347  1.0772  0.6377  1.4533
   96SAPE     P 9520   0.143   3.408   6.550 -0.1987 -0.3373 -0.2172
   96SAPE   O13 9521   0.234   3.294   6.520  0.0726 -0.2695 -0.0682
   96SAPE   O14 9522   0.093   3.427   6.686  0.1835 -0.2199 -0.3891
   96SAPE   O12 9523   0.213   3.550   6.505  0.3298 -0.4384  0.0976
   96SAPE   O11 9524   0.019   3.400   6.454  0.3418 -0.1694 -0.2457
   96SAPE    C1 9525  -0.070   3.288   6.461  0.2162 -0.9472 -0.0682
   96SAPE    HA 9526  -0.025   3.198   6.414  1.1881 -0.0770 -0.8441
   96SAPE    HB 9527  -0.098   3.269   6.567 -0.9062 -0.9220 -0.3529
   96SAPE    C2 9528  -0.196   3.310   6.371 -0.3598  0.3658 -0.1003
   96SAPE    HS 9529  -0.256   3.217   6.381 -1.7692  1.2484 -0.0724
   96SAPE   O21 9530  -0.143   3.330   6.236  0.6729  0.4221 -0.2140
   96SAPE   C21 9531  -0.126   3.222   6.171 -0.0651  0.4117  0.7471
   96SAPE   O22 9532  -0.149   3.106   6.208  0.1813  0.4018  0.1046
   96SAPE   C22 9533  -0.046   3.255   6.044  0.2042  0.5694  0.0739
   96SAPE   H2R 9534  -0.101   3.332   5.985  1.5201  2.6289  1.3760
   96SAPE   H2S 9535   0.050   3.303   6.073 -0.4591  1.7217  0.4313
   96SAPE    C3 9536  -0.275   3.441   6.396  0.5027  0.6138 -0.5604
   96SAPE    HX 9537  -0.200   3.521   6.377 -1.4473  2.0796 -2.4451
   96SAPE    HY 9538  -0.300   3.442   6.505  2.1607 -1.8619 -0.0473
   96SAPE   O31 9539  -0.394   3.445   6.313  0.8788  0.3108  0.0589
   96SAPE   C31 9540  -0.432   3.577   6.293  0.4302 -0.1481 -1.7143
   96SAPE   O32 9541  -0.385   3.676   6.351  0.1687  0.2356  0.0391
   96SAPE   C32 9542  -0.545   3.587   6.185 -0.0549  0.6094 -0.3866
   96SAPE   H2X 9543  -0.633   3.551   6.243  0.9230  2.3057  2.3947
   96SAPE   H2Y 9544  -0.516   3.515   6.106 -2.3734 -1.4691  0.5241
   96SAPE   C23 9545  -0.015   3.133   5.953  0.5331  0.8489 -0.6294
   96SAPE   H3R 9546  -0.093   3.109   5.878 -0.8964  0.1822  0.9916
   96SAPE   H3S 9547  -0.011   3.041   6.015 -2.5149  0.8541 -0.2804
   96SAPE   C24 9548   0.109   3.166   5.881  0.0052  0.0367  0.5263
   96SAPE   H4R 9549   0.201   3.181   5.941  0.2040  0.6851  0.0711
   96SAPE   H4S 9550   0.106   3.263   5.827 -0.3392  0.2829  0.9734
   96SAPE   C25 9551   0.140   3.057   5.776  0.3831  0.0006  0.1242
   96SAPE   H5R 9552   0.149   2.954   5.812 -1.0044 -0.5445 -0.9807
   96SAPE   C26 9553   0.141   3.079   5.641 -0.0176  0.1688 -0.6326
   96SAPE   H6R 9554   0.168   2.995   5.576 -0.1854 -1.4792  1.3142
   96SAPE   C27 9555   0.122   3.215   5.583 -0.2580  0.6242 -0.1042
   96SAPE   H7R 9556   0.170   3.295   5.644 -0.3934  0.2108  0.5546
   96SAPE   H7S 9557   0.015   3.242   5.574 -0.8914 -1.6688 -0.0091
   96SAPE   C28 9558   0.193   3.225   5.450  0.1061  0.4677  0.6294
   96SAPE   H8R 9559   0.276   3.155   5.430  0.8818  1.2922  0.9234
   96SAPE   C29 9560   0.171   3.306   5.350  0.5033 -0.2019 -0.2186
   96SAPE   H9R 9561   0.222   3.303   5.253  0.4725 -0.0133 -0.2419
   96SAPE  C210 9562   0.066   3.406   5.332 -0.3179 -0.1993 -1.0243
   96SAPE  H10R 9563  -0.018   3.381   5.400 -1.2549  1.0100 -1.6763
   96SAPE  H10S 9564   0.017   3.397   5.232 -0.4775 -0.4376 -0.9240
   96SAPE  C211 9565   0.103   3.549   5.364 -0.8008 -0.1079 -0.3545
   96SAPE  H11R 9566   0.167   3.571   5.451  0.7302  0.7085 -1.6243
   96SAPE  C212 9567   0.074   3.661   5.302 -0.0017 -0.0250  0.4138
   96SAPE  H12R 9568   0.106   3.758   5.342 -0.4884  0.3244 -0.0295
   96SAPE  C213 9569   0.000   3.668   5.166  0.5208 -0.6605 -0.8058
   96SAPE  H13R 9570  -0.101   3.641   5.204  0.0475 -0.7161 -2.0473
   96SAPE  H13S 9571   0.019   3.579   5.102 -1.6380 -0.2911 -2.0530
   96SAPE  C214 9572   0.001   3.798   5.091 -0.2198 -0.5121  0.3444
   96SAPE  H14R 9573   0.011   3.892   5.149  0.1972 -0.5060  0.2605
   96SAPE  C215 9574  -0.038   3.809   4.963  0.0253 -0.0899 -0.4979
   96SAPE  H15R 9575  -0.045   3.914   4.930 -1.3818 -0.1095 -0.3065
   96SAPE  C216 9576  -0.075   3.700   4.870  0.0778  0.4474  0.8728
   96SAPE  H16R 9577  -0.124   3.622   4.931  0.6196  0.8442  1.8342
   96SAPE  H16S 9578   0.020   3.662   4.825  0.1928  0.6048  0.9782
   96SAPE  C217 9579  -0.159   3.740   4.750  0.1653 -0.4274  0.6086
   96SAPE  H17R 9580  -0.095   3.819   4.705  0.9112 -0.7768  1.0413
   96SAPE  H17S 9581  -0.247   3.792   4.794  1.9248  1.1969  2.4034
   96SAPE  C218 9582  -0.193   3.622   4.653 -0.5247  0.6241  0.1447
   96SAPE  H18R 9583  -0.269   3.560   4.705 -0.9212 -0.1248 -1.2712
   96SAPE  H18S 9584  -0.102   3.559   4.647 -0.7841  0.3654 -1.8052
   96SAPE  C219 9585  -0.229   3.678   4.515 -0.5363  0.5437  0.2376
   96SAPE  H19R 9586  -0.153   3.741   4.463 -0.0716 -2.1879 -2.7396
   96SAPE  H19S 9587  -0.320   3.739   4.535 -0.5576  0.1599  1.3614
   96SAPE  C220 9588  -0.274   3.574   4.415  0.2550 -0.6631 -0.5200
   96SAPE  H20R 9589  -0.357   3.527   4.471 -0.9756  1.2422 -0.6612
   96SAPE  H20S 9590  -0.201   3.492   4.395  0.7383 -0.4649  0.3994
   96SAPE  H20T 9591  -0.320   3.613   4.321 -1.6341  0.5883  0.8683
   96SAPE   C33 9592  -0.561   3.727   6.126  0.3712 -0.3260  1.0122
   96SAPE   H3X 9593  -0.469   3.754   6.070 -0.8799 -1.9508 -2.0381
   96SAPE   H3Y 9594  -0.564   3.812   6.197  0.3335  0.5692 -0.0418
   96SAPE   C34 9595  -0.681   3.751   6.039 -0.3848 -0.1564 -0.3084
   96SAPE   H4X 9596  -0.674   3.859   6.013 -1.1099  0.4380  1.7515
   96SAPE   H4Y 9597  -0.779   3.744   6.091 -0.8240  0.4276 -1.0245
   96SAPE   C35 9598  -0.682   3.673   5.909  0.2601  0.8223  0.1962
   96SAPE   H5X 9599  -0.690   3.565   5.935  2.5751  0.2937 -0.9983
   96SAPE   H5Y 9600  -0.578   3.683   5.871  0.8571 -2.1901  0.8186
   96SAPE   C36 9601  -0.787   3.714   5.809 -0.1007 -0.0436  0.3564
   96SAPE   H6X 9602  -0.778   3.824   5.795  0.5578  0.3868  3.4526
   96SAPE   H6Y 9603  -0.891   3.682   5.829  0.7088 -3.2425 -0.0686
   96SAPE   C37 9604  -0.766   3.629   5.680  0.2570 -0.2940  0.1662
   96SAPE   H7X 9605  -0.780   3.522   5.706  0.0279  0.0481  1.5562
   96SAPE   H7Y 9606  -0.658   3.637   5.653  0.4827 -0.4747  0.9812
   96SAPE   C38 9607  -0.862   3.678   5.562  0.4906 -0.4768  0.1320
   96SAPE   H8X 9608  -0.820   3.778   5.539  0.5960 -0.5567 -0.0152
   96SAPE   H8Y 9609  -0.962   3.685   5.611  0.6706 -1.1981  0.6188
   96SAPE   C39 9610  -0.873   3.581   5.444  0.2784 -0.7375 -0.6550
   96SAPE   H9X 9611  -0.929   3.615   5.354  0.7903  1.1746 -0.2747
   96SAPE   H9Y 9612  -0.929   3.494   5.486 -3.0757  1.4806 -0.1375
   96SAPE  C310 9613  -0.732   3.541   5.390 -0.0191 -0.2868 -0.0290
   96SAPE  H10X 9614  -0.739   3.455   5.320 -0.8245  0.2306 -0.6097
   96SAPE  H10Y 9615  -0.667   3.507   5.473 -0.1589 -1.7326 -0.4882
   96SAPE  C311 9616  -0.667   3.661   5.315 -0.3520 -0.0700 -0.9035
   96SAPE  H11X 9617  -0.653   3.739   5.392  0.7029 -1.8735  0.8099
   96SAPE  H11Y 9618  -0.738   3.681   5.232  0.6105  0.2409 -1.6740
   96SAPE  C312 9619  -0.522   3.616   5.260 -0.3277  0.4804  0.1662
   96SAPE  H12X 9620  -0.529   3.548   5.172 -2.5877  2.5927 -1.4547
   96SAPE  H12Y 9621  -0.475   3.554   5.339  0.5374  1.7648  0.6797
   96SAPE  C313 9622  -0.436   3.732   5.220  0.2972  0.6075  0.3160
   96SAPE  H13X 9623  -0.510   3.807   5.184 -1.3382 -0.3525  1.5128
   96SAPE  H13Y 9624  -0.374   3.704   5.133 -2.0482 -0.2390 -1.1992
   96SAPE  C314 9625  -0.358   3.813   5.328  0.0127 -0.0898  0.7261
   96SAPE  H14X 9626  -0.266   3.760   5.362  0.6759  1.4245  1.3720
   96SAPE  H14Y 9627  -0.426   3.816   5.416 -1.2964  0.4828 -0.2756
   96SAPE  C315 9628  -0.329   3.956   5.278 -0.2577 -0.4271 -0.2843
   96SAPE  H15X 9629  -0.419   3.999   5.229 -0.2869 -1.6962 -1.4246
   96SAPE  H15Y 9630  -0.257   3.950   5.193 -0.8288 -1.0410 -0.7354
   96SAPE  C316 9631  -0.290   4.054   5.391  1.1614  0.0884  0.1487
   96SAPE  H16X 9632  -0.357   4.038   5.478  0.0421  0.6995 -0.5799
   96SAPE  H16Y 9633  -0.310   4.156   5.353  0.7709  0.1834  0.6107
   96SAPE  C317 9634  -0.144   4.049   5.429 -0.5424 -0.1607 -0.0629
   96SAPE  H17X 9635  -0.080   4.081   5.344  1.1291  0.1444  1.2652
   96SAPE  H17Y 9636  -0.123   3.942   5.449 -1.6736 -1.0936 -3.2101
   96SAPE  C318 9637  -0.113   4.132   5.548 -0.3374 -0.1868 -0.2985
   96SAPE  H18X 9638  -0.004   4.130   5.571 -0.2465 -0.7667 -0.7514
   96SAPE  H18Y 9639  -0.140   4.096   5.649  0.3236  1.1297  0.3691
   96SAPE  H18Z 9640  -0.156   4.234   5.545  0.1013  0.0958  1.7114
   97SAPE     N 9641   0.470   6.243   7.047 -0.4052  0.6353  1.1340
   97SAPE   HN1 9642   0.441   6.288   6.958 -2.1642 -1.5849  0.5045
   97SAPE   HN2 9643   0.518   6.317   7.102 -0.7806  1.8145 -0.0874
   97SAPE   HN3 9644   0.533   6.162   7.030 -0.8158  0.4665  0.3917
   97SAPE   C12 9645   0.356   6.194   7.131 -1.0125  0.0185 -0.1750
   97SAPE  H12A 9646   0.298   6.281   7.167 -3.6148 -2.6754  2.7244
   97SAPE  H12B 9647   0.387   6.165   7.234 -2.9270  2.6661  1.2555
   97SAPE   C11 9648   0.286   6.093   7.054 -0.4463  0.0562 -0.0231
   97SAPE  H11A 9649   0.243   6.135   6.960 -0.1742 -0.5711 -0.4291
   97SAPE  H11B 9650   0.193   6.067   7.108  0.2099  0.3767  1.2969
   97SAPE     P 9651   0.299   5.849   6.954 -0.3457  0.0378 -0.3152
   97SAPE   O13 9652   0.401   5.741   6.947 -0.0745 -0.7561  0.5391
   97SAPE   O14 9653   0.172   5.818   7.026 -0.7096  0.2300 -0.8577
   97SAPE   O12 9654   0.361   5.981   7.022  0.3692  0.0525  0.0391
   97SAPE   O11 9655   0.264   5.903   6.808 -0.2215  0.3893  0.1299
   97SAPE    C1 9656   0.368   5.981   6.735  0.0013 -0.1506 -0.6135
   97SAPE    HA 9657   0.310   6.038   6.659 -2.8209 -0.5331  1.0760
   97SAPE    HB 9658   0.414   6.057   6.802  2.5616  0.2475 -2.6789
   97SAPE    C2 9659   0.476   5.892   6.678  0.5140  0.2838  0.1100
   97SAPE    HS 9660   0.517   5.846   6.771 -0.6272 -1.5838 -0.2738
   97SAPE   O21 9661   0.579   5.950   6.602 -0.3282 -0.1701  0.0108
   97SAPE   C21 9662   0.633   6.066   6.653  0.7399 -0.3303  0.6828
   97SAPE   O22 9663   0.636   6.101   6.765 -0.6472  0.0059 -0.6423
   97SAPE   C22 9664   0.689   6.148   6.534 -0.0545 -0.4637 -0.0666
   97SAPE   H2R 9665   0.733   6.237   6.584 -0.5180 -0.1359 -0.2362
   97SAPE   H2S 9666   0.774   6.090   6.492 -0.4408 -0.7487 -0.4620
   97SAPE    C3 9667   0.418   5.768   6.606 -1.0120 -0.2548  0.7094
   97SAPE    HX 9668   0.350   5.718   6.678 -0.3748 -0.8192  0.9297
   97SAPE    HY 9669   0.499   5.694   6.584  0.2748  1.1234  0.6717
   97SAPE   O31 9670   0.353   5.816   6.493  0.3110  0.3786  0.2032
   97SAPE   C31 9671   0.426   5.830   6.383  0.1803 -0.4778  0.4959
   97SAPE   O32 9672   0.535   5.779   6.361  0.0312  0.1597 -0.3009
   97SAPE   C32 9673   0.345   5.905   6.282 -0.5296 -0.5230 -0.7616
   97SAPE   H2X 9674   0.332   6.008   6.321  2.9774 -1.2226  2.9500
   97SAPE   H2Y 9675   0.239   5.873   6.297 -1.5373  3.2399  1.6706
   97SAPE   C23 9676   0.578   6.193   6.435  0.2141  0.1779 -0.5716
   97SAPE   H3R 9677   0.481   6.219   6.482  0.7190 -1.2593  1.4157
   97SAPE   H3S 9678   0.552   6.109   6.367  0.1092  0.8833 -1.4054
   97SAPE   C24 9679   0.628   6.306   6.349 -0.5302 -0.5979 -0.1377
   97SAPE   H4R 9680   0.678   6.384   6.411 -0.2792  0.2905 -1.4131
   97SAPE   H4S 9681   0.538   6.348   6.298 -1.5077 -1.5224  0.7737
   97SAPE   C25 9682   0.735   6.257   6.256 -0.4004 -0.3430 -0.9825
   97SAPE   H5R 9683   0.803   6.186   6.304 -0.9737 -0.8911 -0.9629
   97SAPE   C26 9684   0.740   6.257   6.118 -0.5919  1.1486 -0.6490
   97SAPE   H6R 9685   0.832   6.226   6.067  0.6819 -1.1320  2.6877
   97SAPE   C27 9686   0.649   6.322   6.018  1.5813  0.3488 -0.1242
   97SAPE   H7R 9687   0.676   6.419   5.971 -0.1446  0.3848 -1.1341
   97SAPE   H7S 9688   0.563   6.357   6.079  2.5033  2.2695  0.1590
   97SAPE   C28 9689   0.603   6.234   5.905  0.0273 -0.6882 -0.1320
   97SAPE   H8R 9690   0.590   6.128   5.930  1.9391 -0.9210  0.0441
   97SAPE   C29 9691   0.577   6.269   5.780 -0.0405  0.8101 -0.6125
   97SAPE   H9R 9692   0.555   6.181   5.718 -1.5720  1.4988 -1.0847
   97SAPE  C210 9693   0.599   6.408   5.720  0.5806  0.4047 -0.3769
   97SAPE  H10R 9694   0.559   6.483   5.791 -1.5350  1.1713 -2.2579
   97SAPE  H10S 9695   0.534   6.413   5.630  0.2846 -1.5703 -0.3263
   97SAPE  C211 9696   0.740   6.437   5.691 -0.3869  1.0251  0.3216
   97SAPE  H11R 9697   0.803   6.434   5.781 -1.6261 -0.2966  1.2062
   97SAPE  C212 9698   0.789   6.457   5.570  0.0986 -0.2290  0.1903
   97SAPE  H12R 9699   0.893   6.492   5.566  0.9085 -2.5758 -0.9725
   97SAPE  C213 9700   0.713   6.458   5.434 -0.8557 -0.0255  1.5607
   97SAPE  H13R 9701   0.700   6.564   5.403 -0.2079 -0.6642 -1.0592
   97SAPE  H13S 9702   0.612   6.416   5.456 -1.0048  0.4398  1.7803
   97SAPE  C214 9703   0.778   6.379   5.326 -0.3368 -1.2079 -0.0982
   97SAPE  H14R 9704   0.774   6.270   5.346 -0.0924 -1.2523 -0.2871
   97SAPE  C215 9705   0.829   6.423   5.209  1.1962  0.4490 -0.6740
   97SAPE  H15R 9706   0.866   6.347   5.138  0.9192  0.7506 -1.1483
   97SAPE  C216 9707   0.849   6.564   5.168 -0.8582  0.0069 -0.3271
   97SAPE  H16R 9708   0.957   6.575   5.146 -0.7467 -1.8239 -0.8787
   97SAPE  H16S 9709   0.820   6.641   5.243 -0.9471  0.4884 -0.8413
   97SAPE  C217 9710   0.776   6.589   5.036  0.3134  0.1731  0.7608
   97SAPE  H17R 9711   0.667   6.590   5.058  0.3529 -0.1041  0.9827
   97SAPE  H17S 9712   0.779   6.514   4.954 -0.9844  0.5995  0.2972
   97SAPE  C218 9713   0.818   6.726   4.977 -0.3946 -0.1120 -0.3712
   97SAPE  H18R 9714   0.850   6.792   5.061 -3.0851  2.1670 -0.9613
   97SAPE  H18S 9715   0.731   6.777   4.930 -0.8805 -0.3588  0.2396
   97SAPE  C219 9716   0.914   6.710   4.853 -0.1965  0.4116  0.1289
   97SAPE  H19R 9717   0.852   6.659   4.776  0.1584 -2.8118  1.8000
   97SAPE  H19S 9718   0.989   6.632   4.880  0.7118  0.8892 -0.9207
   97SAPE  C220 9719   0.981   6.839   4.815  0.1902  0.0064  0.4987
   97SAPE  H20R 9720   0.906   6.903   4.763 -0.7959 -2.3969 -1.2422
   97SAPE  H20S 9721   1.060   6.814   4.742  1.7203  1.8506  1.4577
   97SAPE  H20T 9722   1.019   6.888   4.907  0.0872 -1.7303  1.5247
   97SAPE   C33 9723   0.383   5.905   6.131 -0.0973  0.2143 -0.8358
   97SAPE   H3X 9724   0.448   5.816   6.118 -0.1735  0.0552 -0.1577
   97SAPE   H3Y 9725   0.454   5.987   6.110 -0.4911  0.0481 -3.1124
   97SAPE   C34 9726   0.258   5.919   6.048 -0.0725 -0.6166 -0.3047
   97SAPE   H4X 9727   0.197   6.008   6.076  1.4550  1.0043 -1.8384
   97SAPE   H4Y 9728   0.196   5.829   6.067 -0.3141 -0.1909  0.9828
   97SAPE   C35 9729   0.275   5.932   5.894 -0.8595  0.3501 -0.0374
   97SAPE   H5X 9730   0.335   5.847   5.855 -1.2370  0.8304 -1.7705
   97SAPE   H5Y 9731   0.334   6.022   5.865 -2.2449  0.3035 -3.5700
   97SAPE   C36 9732   0.148   5.941   5.824  0.8352  0.1660  0.1927
   97SAPE   H6X 9733   0.081   6.022   5.859 -1.4991 -0.2866 -2.8073
   97SAPE   H6Y 9734   0.103   5.839   5.822  1.0652  0.0655 -1.7436
   97SAPE   C37 9735   0.169   5.974   5.678  0.0602 -0.1472  0.1410
   97SAPE   H7X 9736   0.179   6.084   5.670 -0.8362 -0.0532  0.2784
   97SAPE   H7Y 9737   0.068   5.961   5.634  0.6253 -1.6264 -0.8102
   97SAPE   C38 9738   0.280   5.891   5.598 -0.1519 -0.2367 -0.8112
   97SAPE   H8X 9739   0.270   5.781   5.611 -2.1171  0.0409  0.5471
   97SAPE   H8Y 9740   0.378   5.904   5.648 -0.6867  0.5080  0.0649
   97SAPE   C39 9741   0.290   5.937   5.457 -0.4437  0.4543  0.1838
   97SAPE   H9X 9742   0.188   5.937   5.414 -1.7402  0.4146  3.0545
   97SAPE   H9Y 9743   0.341   5.862   5.392 -0.8008 -0.5731  1.0467
   97SAPE  C310 9744   0.351   6.079   5.437  0.4692  0.8657  0.0249
   97SAPE  H10X 9745   0.462   6.068   5.438  0.3328 -0.8131 -0.8345
   97SAPE  H10Y 9746   0.317   6.140   5.524  1.1069  1.4538 -0.1248
   97SAPE  C311 9747   0.311   6.147   5.302 -0.4507 -0.2041  0.5499
   97SAPE  H11X 9748   0.342   6.254   5.302  1.4472 -0.7029 -1.4846
   97SAPE  H11Y 9749   0.200   6.148   5.294 -0.3306 -1.8224 -5.0665
   97SAPE  C312 9750   0.366   6.072   5.184  0.1612 -0.3052 -0.2514
   97SAPE  H12X 9751   0.336   5.968   5.208  1.8762 -0.4400  1.5752
   97SAPE  H12Y 9752   0.477   6.083   5.186  0.0118  1.5130  1.2865
   97SAPE  C313 9753   0.313   6.108   5.045  0.3940  0.0734 -0.6695
   97SAPE  H13X 9754   0.330   6.215   5.019 -0.4269 -0.0806 -1.9491
   97SAPE  H13Y 9755   0.204   6.087   5.036  0.6940 -1.1422 -1.7600
   97SAPE  C314 9756   0.375   6.015   4.932 -0.5291 -0.3488  0.3615
   97SAPE  H14X 9757   0.316   6.012   4.838  0.6437 -2.5196 -0.3852
   97SAPE  H14Y 9758   0.361   5.911   4.968 -2.0123 -0.9719 -1.8024
   97SAPE  C315 9759   0.525   6.041   4.898 -0.2446  0.3027  0.6195
   97SAPE  H15X 9760   0.564   5.952   4.843  0.3210  1.0807 -0.2662
   97SAPE  H15Y 9761   0.579   6.041   4.994  0.2643  0.7860  0.3367
   97SAPE  C316 9762   0.543   6.167   4.824  0.1067 -0.4306 -0.3641
   97SAPE  H16X 9763   0.507   6.255   4.881  0.6777 -0.3169 -0.1736
   97SAPE  H16Y 9764   0.480   6.152   4.734 -0.5510 -0.4304  0.0836
   97SAPE  C317 9765   0.693   6.193   4.788 -0.2922  0.2645  0.0826
   97SAPE  H17X 9766   0.754   6.189   4.880  0.4789  0.0867 -0.4235
   97SAPE  H17Y 9767   0.702   6.299   4.757 -0.5998  0.4601  0.6560
   97SAPE  C318 9768   0.751   6.104   4.669  0.1848 -0.5040 -0.0223
   97SAPE  H18X 9769   0.698   6.122   4.573  0.1403 -2.1142 -0.3234
   97SAPE  H18Y 9770   0.741   5.997   4.695  0.4249 -0.2645  1.1540
   97SAPE  H18Z 9771   0.856   6.128   4.640  0.2412 -0.7144  0.0071
   98SAPE     N 9772   5.135   6.845   6.473 -0.5910  0.3198  0.0672
   98SAPE   HN1 9773   5.229   6.858   6.431 -0.4075 -0.6238  0.1558
   98SAPE   HN2 9774   5.074   6.920   6.435 -1.0526  1.1289  2.2385
   98SAPE   HN3 9775   5.136   6.845   6.577  1.0272 -3.2045  0.2115
   98SAPE   C12 9776   5.095   6.711   6.418 -0.2309 -0.4236  0.1088
   98SAPE  H12A 9777   4.988   6.730   6.397  0.1612  2.3565  0.3518
   98SAPE  H12B 9778   5.112   6.638   6.501 -1.3267  0.8852  1.5417
   98SAPE   C11 9779   5.174   6.676   6.289  0.5322  0.5636 -0.7072
   98SAPE  H11A 9780   5.154   6.746   6.205 -0.6761  0.8712 -0.1918
   98SAPE  H11B 9781   5.149   6.569   6.275 -0.8262  0.4691  1.7773
   98SAPE     P 9782   5.411   6.759   6.248  0.4181  0.1436  0.5707
   98SAPE   O13 9783   5.361   6.891   6.291  0.1243  0.2440  0.2427
   98SAPE   O14 9784   5.550   6.726   6.277 -0.1256 -0.5581 -0.1339
   98SAPE   O12 9785   5.313   6.656   6.321  0.5006 -0.2900  0.6335
   98SAPE   O11 9786   5.376   6.741   6.086  0.1910 -0.5393  0.1564
   98SAPE    C1 9787   5.369   6.619   6.028  0.5499  0.2268 -0.0298
   98SAPE    HA 9788   5.274   6.571   6.057 -1.5008  4.5346  1.3171
   98SAPE    HB 9789   5.351   6.648   5.922  0.7510  0.7270  0.0652
   98SAPE    C2 9790   5.494   6.523   6.044 -0.2727  0.3973  0.1744
   98SAPE    HS 9791   5.483   6.465   6.138 -2.7649 -1.3774 -1.0729
   98SAPE   O21 9792   5.612   6.600   6.020  0.1909 -0.0364  0.3622
   98SAPE   C21 9793   5.720   6.535   6.050 -0.1965 -0.2700 -0.7416
   98SAPE   O22 9794   5.732   6.438   6.122  0.3000 -0.3682  0.5685
   98SAPE   C22 9795   5.836   6.607   6.003 -0.1031  0.4131  0.9047
   98SAPE   H2R 9796   5.808   6.690   5.934 -1.1844  0.5915  1.5331
   98SAPE   H2S 9797   5.880   6.651   6.095 -0.4819 -0.4711  1.5206
   98SAPE    C3 9798   5.480   6.398   5.951  0.7713 -0.1996  0.7050
   98SAPE    HX 9799   5.381   6.352   5.968 -0.1218  1.9015  1.6317
   98SAPE    HY 9800   5.556   6.322   5.978  1.3628  0.2290  0.2888
   98SAPE   O31 9801   5.506   6.424   5.811  0.1819  0.0332  0.1839
   98SAPE   C31 9802   5.396   6.452   5.742  0.0691 -1.0803 -0.5146
   98SAPE   O32 9803   5.282   6.459   5.781 -0.2173  0.1190  0.1955
   98SAPE   C32 9804   5.430   6.468   5.596 -0.6074  0.0670  0.0317
   98SAPE   H2X 9805   5.467   6.372   5.554 -1.6282 -0.8940  1.2626
   98SAPE   H2Y 9806   5.511   6.544   5.597  0.2658 -0.7777 -1.6545
   98SAPE   C23 9807   5.953   6.529   5.940  0.6866  0.5748 -0.1624
   98SAPE   H3R 9808   5.997   6.462   6.018 -2.1175  0.5972  1.5799
   98SAPE   H3S 9809   6.030   6.603   5.908  2.7473 -1.0559  0.7584
   98SAPE   C24 9810   5.914   6.448   5.817  1.0977 -0.0403 -0.4577
   98SAPE   H4R 9811   5.833   6.493   5.755  0.2086 -0.0083  0.7030
   98SAPE   H4S 9812   5.861   6.355   5.849  0.3262  0.9204  1.1841
   98SAPE   C25 9813   6.032   6.426   5.729  0.1658 -0.0764 -0.4740
   98SAPE   H5R 9814   6.072   6.325   5.741  1.1836  0.0602 -2.3265
   98SAPE   C26 9815   6.079   6.515   5.639  0.1357  0.2726 -1.0751
   98SAPE   H6R 9816   6.169   6.482   5.585  0.1128 -0.6094 -0.5862
   98SAPE   C27 9817   6.045   6.654   5.595  0.2417  0.2937 -0.7870
   98SAPE   H7R 9818   6.135   6.709   5.561 -0.0439 -0.1369 -2.3150
   98SAPE   H7S 9819   6.006   6.716   5.679  3.6889  1.5686  0.0114
   98SAPE   C28 9820   5.940   6.644   5.486  0.3618 -0.4202 -0.2967
   98SAPE   H8R 9821   5.837   6.615   5.513  0.0598  1.9708  1.4972
   98SAPE   C29 9822   5.948   6.679   5.353 -0.1307 -0.0619  0.2782
   98SAPE   H9R 9823   5.853   6.668   5.299 -1.5967 -0.7920  2.8534
   98SAPE  C210 9824   6.064   6.728   5.271 -0.7793  0.1025  0.5710
   98SAPE  H10R 9825   6.156   6.724   5.333  0.4241  0.4029 -1.1205
   98SAPE  H10S 9826   6.050   6.835   5.248  1.8694 -0.0118 -2.1523
   98SAPE  C211 9827   6.106   6.654   5.143 -0.5148  0.4621 -0.0810
   98SAPE  H11R 9828   6.163   6.563   5.166  1.2737  1.1121 -1.6984
   98SAPE  C212 9829   6.074   6.692   5.017 -0.6273 -0.4038 -0.6661
   98SAPE  H12R 9830   6.120   6.639   4.933  2.5328 -0.8942  1.1980
   98SAPE  C213 9831   6.007   6.821   4.966  0.5114  0.6192 -0.2668
   98SAPE  H13R 9832   6.081   6.888   4.916  1.7985  0.1451  0.9487
   98SAPE  H13S 9833   5.956   6.869   5.052  0.1564 -0.6712  0.2565
   98SAPE  C214 9834   5.902   6.786   4.862 -0.0592 -0.7480  0.4853
   98SAPE  H14R 9835   5.809   6.738   4.896 -0.1800 -1.8170 -1.2097
   98SAPE  C215 9836   5.907   6.813   4.727  0.9387  0.2206 -0.6816
   98SAPE  H15R 9837   5.808   6.805   4.680 -0.1181 -1.7988  1.7128
   98SAPE  C216 9838   6.020   6.866   4.648 -0.3085  0.0686  0.0961
   98SAPE  H16R 9839   6.115   6.829   4.691  0.7473  2.9747  0.4842
   98SAPE  H16S 9840   6.024   6.976   4.666  3.2183  0.1655 -0.6327
   98SAPE  C217 9841   6.003   6.825   4.497  0.4554 -0.0749 -0.3420
   98SAPE  H17R 9842   5.904   6.848   4.452 -0.0141 -1.1402  0.1199
   98SAPE  H17S 9843   5.999   6.714   4.490  2.2001 -0.2732  1.0684
   98SAPE  C218 9844   6.108   6.879   4.401 -0.5856  0.5093  0.4074
   98SAPE  H18R 9845   6.213   6.856   4.430 -0.1563  1.7172 -0.1202
   98SAPE  H18S 9846   6.107   6.990   4.413 -0.4979  0.4730  0.7686
   98SAPE  C219 9847   6.099   6.830   4.256  0.1957  0.6821  0.3050
   98SAPE  H19R 9848   5.994   6.857   4.233 -0.7201 -1.7165  1.3707
   98SAPE  H19S 9849   6.103   6.719   4.264  0.2356  0.7163  0.7474
   98SAPE  C220 9850   6.202   6.892   4.160  0.5254 -0.2809  0.1493
   98SAPE  H20R 9851   6.300   6.843   4.176  0.2031 -0.6049  1.2240
   98SAPE  H20S 9852   6.220   6.999   4.185  1.8576 -0.4762  0.0687
   98SAPE  H20T 9853   6.175   6.870   4.054 -2.0413  1.1931  0.4115
   98SAPE   C33 9854   5.320   6.521   5.499  0.2121  0.1366 -0.8295
   98SAPE   H3X 9855   5.278   6.618   5.534 -0.1350 -0.8479  1.6182
   98SAPE   H3Y 9856   5.239   6.445   5.501 -1.1600  1.5104 -1.8194
   98SAPE   C34 9857   5.363   6.544   5.352 -0.1719 -0.1327  0.5064
   98SAPE   H4X 9858   5.432   6.631   5.359  0.2211 -0.4828  1.1204
   98SAPE   H4Y 9859   5.280   6.593   5.297  1.6819  2.5443 -0.1162
   98SAPE   C35 9860   5.424   6.423   5.273  0.2459 -0.3855 -0.0303
   98SAPE   H5X 9861   5.357   6.337   5.253 -1.4240  0.5283  1.3186
   98SAPE   H5Y 9862   5.505   6.385   5.338  0.4809 -1.2139 -0.7872
   98SAPE   C36 9863   5.489   6.471   5.139 -0.8965  0.3352 -0.3846
   98SAPE   H6X 9864   5.532   6.570   5.166 -2.1931  0.1197  3.0281
   98SAPE   H6Y 9865   5.413   6.493   5.062 -1.5876 -0.1258  0.1560
   98SAPE   C37 9866   5.605   6.378   5.098 -0.2923 -0.1613 -0.4905
   98SAPE   H7X 9867   5.564   6.284   5.054 -0.2583 -0.2561 -0.3198
   98SAPE   H7Y 9868   5.666   6.362   5.189 -2.2602 -1.6564  0.6532
   98SAPE   C38 9869   5.703   6.453   5.008 -0.2725  0.2863  0.2474
   98SAPE   H8X 9870   5.797   6.393   5.007 -0.5021 -0.0720 -0.5488
   98SAPE   H8Y 9871   5.723   6.553   5.052  1.3087  0.5162 -0.9223
   98SAPE   C39 9872   5.667   6.469   4.858 -0.3375 -0.1433  0.4046
   98SAPE   H9X 9873   5.753   6.519   4.807 -0.5896 -0.2884 -0.1729
   98SAPE   H9Y 9874   5.586   6.543   4.844 -0.5502 -0.6398 -1.2655
   98SAPE  C310 9875   5.652   6.335   4.790 -0.2261  0.0782 -0.0605
   98SAPE  H10X 9876   5.564   6.286   4.836 -0.5365  0.3504 -0.3602
   98SAPE  H10Y 9877   5.742   6.270   4.805 -0.5333 -0.4517 -0.4622
   98SAPE  C311 9878   5.608   6.332   4.637 -0.8669 -0.3624 -0.5009
   98SAPE  H11X 9879   5.685   6.390   4.582 -1.9682  1.4748 -0.1908
   98SAPE  H11Y 9880   5.513   6.389   4.630 -0.8109 -0.2546 -0.3779
   98SAPE  C312 9881   5.601   6.193   4.594 -0.1437 -0.3301  0.1346
   98SAPE  H12X 9882   5.541   6.132   4.665 -0.6855  0.9746  0.8302
   98SAPE  H12Y 9883   5.697   6.139   4.589  0.7130  1.2308 -1.3793
   98SAPE  C313 9884   5.538   6.186   4.455  0.6092 -0.6489  0.0479
   98SAPE  H13X 9885   5.590   6.265   4.397  0.8323 -1.5449 -1.0152
   98SAPE  H13Y 9886   5.432   6.218   4.450  0.0328 -2.4062  0.2658
   98SAPE  C314 9887   5.548   6.053   4.378  0.1962  0.1880  0.5554
   98SAPE  H14X 9888   5.514   6.076   4.275  0.9234 -1.3019 -0.0555
   98SAPE  H14Y 9889   5.470   5.986   4.421  1.1615  0.1218  2.2892
   98SAPE  C315 9890   5.686   5.990   4.367 -0.3465  0.4039 -0.1912
   98SAPE  H15X 9891   5.729   5.941   4.457  1.5701 -1.7523 -2.1484
   98SAPE  H15Y 9892   5.751   6.068   4.323 -0.4823 -0.4038 -1.9120
   98SAPE  C316 9893   5.677   5.877   4.258  0.3927 -0.1073 -0.2509
   98SAPE  H16X 9894   5.634   5.915   4.163  1.2549 -1.6832 -1.3290
   98SAPE  H16Y 9895   5.609   5.796   4.292  2.5012 -0.8028  2.7549
   98SAPE  C317 9896   5.807   5.807   4.218  0.1682 -0.6863  0.3306
   98SAPE  H17X 9897   5.857   5.779   4.313  1.8630 -0.7665 -0.5447
   98SAPE  H17Y 9898   5.883   5.880   4.183 -0.4981 -1.4591 -3.1535
   98SAPE  C318 9899   5.798   5.684   4.130 -0.1624 -0.5315  0.4347
   98SAPE  H18X 9900   5.729   5.610   4.176 -1.3459  0.5016  0.3720
   98SAPE  H18Y 9901   5.893   5.630   4.112  1.2536  0.4144  4.0463
   98SAPE  H18Z 9902   5.745   5.719   4.039 -0.3920  0.8307  1.0545
   99SAPE     N 9903   6.795   5.857   6.959  0.3181 -0.1337 -0.3692
   99SAPE   HN1 9904   6.789   5.958   6.983  2.7380  0.2889 -1.3006
   99SAPE   HN2 9905   6.708   5.807   6.989 -0.2981  2.3797  2.6758
   99SAPE   HN3 9906   6.877   5.810   7.002 -1.3007 -0.0676  3.1352
   99SAPE   C12 9907   6.807   5.853   6.807 -0.6503  0.0845  0.7256
   99SAPE  H12A 9908   6.843   5.752   6.778  0.8818  1.2374 -1.7229
   99SAPE  H12B 9909   6.883   5.931   6.783 -2.6967  2.0930  0.5145
   99SAPE   C11 9910   6.668   5.877   6.745  0.0509  0.6780  0.5712
   99SAPE  H11A 9911   6.676   5.890   6.635 -0.9117  1.9929  0.6302
   99SAPE  H11B 9912   6.625   5.972   6.784 -0.4881  0.7752 -0.2334
   99SAPE     P 9913   6.430   5.744   6.713 -0.1853 -0.0446 -0.0761
   99SAPE   O13 9914   6.385   5.621   6.779 -0.3535 -0.0623 -0.8332
   99SAPE   O14 9915   6.346   5.865   6.720 -0.6481  0.0917 -0.6491
   99SAPE   O12 9916   6.577   5.768   6.766  0.4014 -0.0400  0.2407
   99SAPE   O11 9917   6.454   5.715   6.555  0.4724  0.3126  0.4360
   99SAPE    C1 9918   6.536   5.605   6.520 -0.2757 -0.0414 -0.6505
   99SAPE    HA 9919   6.611   5.579   6.598 -1.5695 -1.1462  0.2757
   99SAPE    HB 9920   6.474   5.513   6.507  0.0976 -0.3148 -0.5124
   99SAPE    C2 9921   6.617   5.629   6.388 -0.0474  0.1030 -0.2444
   99SAPE    HS 9922   6.687   5.712   6.411 -0.9227  1.4926 -2.3851
   99SAPE   O21 9923   6.522   5.663   6.286  0.2468 -0.6009  0.1547
   99SAPE   C21 9924   6.567   5.732   6.180 -0.7542 -0.1825 -0.4192
   99SAPE   O22 9925   6.678   5.784   6.177 -0.1487  0.4028  0.7872
   99SAPE   C22 9926   6.456   5.731   6.068 -0.8656 -0.0707 -0.1037
   99SAPE   H2R 9927   6.451   5.629   6.025 -1.7363  0.1977 -0.6642
   99SAPE   H2S 9928   6.359   5.750   6.120 -0.1972  1.3335  0.6872
   99SAPE    C3 9929   6.692   5.495   6.360  0.1975 -0.1092  0.1476
   99SAPE    HX 9930   6.623   5.410   6.376  1.0367 -0.7897  0.2382
   99SAPE    HY 9931   6.766   5.474   6.440  0.1370 -1.5897 -0.1514
   99SAPE   O31 9932   6.751   5.489   6.227  0.2075 -0.1299  0.1861
   99SAPE   C31 9933   6.877   5.538   6.210  0.7636  0.0239 -0.4888
   99SAPE   O32 9934   6.938   5.596   6.297 -0.0370  0.1763 -0.4694
   99SAPE   C32 9935   6.920   5.497   6.072 -0.0901  0.3343 -0.6000
   99SAPE   H2X 9936   6.878   5.572   6.002 -1.5852 -1.0561 -1.2547
   99SAPE   H2Y 9937   6.874   5.399   6.046 -2.3854  0.6428  1.8641
   99SAPE   C23 9938   6.479   5.828   5.949  0.1877 -0.3401 -0.0858
   99SAPE   H3R 9939   6.487   5.927   5.999 -2.0444  0.2539 -0.7953
   99SAPE   H3S 9940   6.389   5.824   5.884  0.1049  1.1792 -0.0959
   99SAPE   C24 9941   6.600   5.793   5.857  0.1966  0.2985 -0.6436
   99SAPE   H4R 9942   6.684   5.776   5.928 -1.6749 -2.6341  1.0873
   99SAPE   H4S 9943   6.628   5.879   5.794  0.1392  0.3285 -0.6288
   99SAPE   C25 9944   6.598   5.667   5.769  0.4017 -0.2907 -0.0833
   99SAPE   H5R 9945   6.555   5.578   5.818  0.1719  0.0171  0.2764
   99SAPE   C26 9946   6.652   5.649   5.643  0.3200  0.4034  0.1572
   99SAPE   H6R 9947   6.657   5.548   5.598  0.9625 -0.2849  1.6717
   99SAPE   C27 9948   6.712   5.761   5.554  0.0314 -0.4561 -0.2017
   99SAPE   H7R 9949   6.817   5.784   5.581  0.5191 -1.1339 -1.4208
   99SAPE   H7S 9950   6.651   5.850   5.581 -1.1848 -1.5998  1.0048
   99SAPE   C28 9951   6.698   5.734   5.409 -0.1520 -0.2828  0.7113
   99SAPE   H8R 9952   6.655   5.634   5.394 -1.2613  0.0307  1.7036
   99SAPE   C29 9953   6.740   5.815   5.305 -0.0101  0.3559  0.2174
   99SAPE   H9R 9954   6.707   5.780   5.206 -2.2493 -1.0910  1.3872
   99SAPE  C210 9955   6.798   5.944   5.331 -0.4744 -0.4367 -0.6216
   99SAPE  H10R 9956   6.888   5.969   5.271  1.5112 -0.2021  2.2048
   99SAPE  H10S 9957   6.840   5.951   5.434  0.8995  0.5526 -1.2157
   99SAPE  C211 9958   6.689   6.045   5.307  0.6511 -0.8231 -0.3105
   99SAPE  H11R 9959   6.618   6.046   5.391  1.1294  2.8002  0.2480
   99SAPE  C212 9960   6.666   6.128   5.208 -0.2529 -0.7883 -0.1767
   99SAPE  H12R 9961   6.586   6.201   5.227 -0.9718 -0.9284 -2.3431
   99SAPE  C213 9962   6.750   6.156   5.093 -0.4735 -0.9301 -0.7152
   99SAPE  H13R 9963   6.816   6.071   5.066  0.8175  0.0683 -0.8082
   99SAPE  H13S 9964   6.807   6.247   5.121 -1.8481 -0.6164  1.2392
   99SAPE  C214 9965   6.691   6.213   4.969  0.2103 -0.2934 -0.2867
   99SAPE  H14R 9966   6.581   6.220   4.964  0.1569 -1.8514 -3.6577
   99SAPE  C215 9967   6.759   6.260   4.867 -0.1098 -0.6058 -0.6374
   99SAPE  H15R 9968   6.706   6.324   4.796 -1.9684 -0.3627  0.8949
   99SAPE  C216 9969   6.911   6.257   4.850 -0.5904 -0.4694  0.2501
   99SAPE  H16R 9970   6.938   6.162   4.799  0.1471 -0.7123  1.0783
   99SAPE  H16S 9971   6.962   6.253   4.948 -0.4248 -0.8211  0.1540
   99SAPE  C217 9972   6.967   6.374   4.770 -0.2137 -0.7610  0.3915
   99SAPE  H17R 9973   6.960   6.470   4.826 -1.2475 -1.2524  1.1502
   99SAPE  H17S 9974   6.923   6.398   4.671  0.4859  1.0290  0.4673
   99SAPE  C218 9975   7.116   6.348   4.752  0.5367 -0.8397 -0.4160
   99SAPE  H18R 9976   7.116   6.241   4.723  0.1329 -0.3531 -2.3702
   99SAPE  H18S 9977   7.168   6.345   4.850 -0.8620  1.8335  0.5190
   99SAPE  C219 9978   7.196   6.414   4.640 -0.9600 -0.3850 -0.6978
   99SAPE  H19R 9979   7.136   6.416   4.546 -1.0518  0.5359 -0.6323
   99SAPE  H19S 9980   7.287   6.360   4.608 -0.7874 -1.7785  1.8758
   99SAPE  C220 9981   7.230   6.568   4.671 -0.3251 -0.2924  0.2023
   99SAPE  H20R 9982   7.133   6.607   4.709 -0.8167 -1.2969  0.0022
   99SAPE  H20S 9983   7.257   6.628   4.581 -0.0603  0.8369  1.0176
   99SAPE  H20T 9984   7.307   6.573   4.751  0.9499 -2.1911 -0.8312
   99SAPE   C33 9985   7.069   5.480   6.035  0.0446  0.5918 -0.3973
   99SAPE   H3X 9986   7.116   5.420   6.116 -0.6156 -1.6348 -1.5632
   99SAPE   H3Y 9987   7.109   5.583   6.041 -0.4550  0.7105  1.8309
   99SAPE   C34 9988   7.090   5.402   5.906 -0.0735  0.1293  1.0839
   99SAPE   H4X 9989   7.038   5.305   5.919  0.4668 -0.4020 -0.4245
   99SAPE   H4Y 9990   7.196   5.378   5.884 -0.4151  0.5923 -1.5139
   99SAPE   C35 9991   7.024   5.476   5.785 -0.3808 -0.1383 -0.3281
   99SAPE   H5X 9992   7.060   5.580   5.773  0.3382 -0.5597 -1.9734
   99SAPE   H5Y 9993   6.913   5.478   5.791 -0.3553  1.5745  0.1633
   99SAPE   C36 9994   7.047   5.384   5.663  0.5837  0.5733 -0.9449
   99SAPE   H6X 9995   7.029   5.275   5.678  4.2530 -0.5135 -3.0782
   99SAPE   H6Y 9996   7.153   5.376   5.631 -0.0895  0.2123 -3.2200
   99SAPE   C37 9997   6.958   5.422   5.544 -0.2555 -0.4320  0.4583
   99SAPE   H7X 9998   6.987   5.521   5.505 -3.2903  2.4517  4.6521
   99SAPE   H7Y 9999   6.857   5.442   5.586 -1.0971  0.1293 -1.7188
   99SAPE   C3810000   6.965   5.324   5.420  0.0971 -0.0257  0.1105
   99SAPE   H8X10001   6.930   5.230   5.467 -1.7445  1.9445  2.9256
   99SAPE   H8Y10002   7.066   5.312   5.374 -0.2365  1.2810 -1.0388
   99SAPE   C3910003   6.864   5.371   5.312 -0.1012 -0.2561 -0.3780
   99SAPE   H9X10004   6.891   5.470   5.269  1.0501  0.0644  1.0298
   99SAPE   H9Y10005   6.763   5.384   5.357 -0.1458 -0.6032 -0.3789
   99SAPE  C31010006   6.858   5.265   5.206 -0.0669 -0.0311  0.4048
   99SAPE  H10X10007   6.813   5.170   5.241 -0.2620  0.3659  1.2578
   99SAPE  H10Y10008   6.962   5.233   5.185  0.1824  0.1863  1.2719
   99SAPE  C31110009   6.791   5.317   5.081 -0.0918  0.7065  0.2507
   99SAPE  H11X10010   6.846   5.409   5.052 -0.5688  1.4263  1.5399
   99SAPE  H11Y10011   6.687   5.354   5.095  0.2519  1.9730 -0.3507
   99SAPE  C31210012   6.804   5.209   4.974  0.1444 -0.8682 -0.1918
   99SAPE  H12X10013   6.769   5.114   5.020 -3.2323 -0.3210 -1.3460
   99SAPE  H12Y10014   6.913   5.202   4.955 -0.2711 -1.5385 -2.6849
   99SAPE  C31310015   6.729   5.231   4.842 -0.2768  0.1722 -0.0133
   99SAPE  H13X10016   6.620   5.211   4.853 -0.2299 -0.7762 -1.0390
   99SAPE  H13Y10017   6.756   5.145   4.777  0.2909  0.1910  0.1909
   99SAPE  C31410018   6.766   5.371   4.786  0.2289 -0.4188 -0.7974
   99SAPE  H14X10019   6.877   5.369   4.778  0.3626 -3.7094  0.2940
   99SAPE  H14Y10020   6.731   5.443   4.863 -0.3390 -0.4833 -0.9953
   99SAPE  C31510021   6.698   5.402   4.648 -0.4234  0.2129  0.3875
   99SAPE  H15X10022   6.724   5.317   4.582  1.1453  0.6649  0.3865
   99SAPE  H15Y10023   6.743   5.499   4.617 -0.1531  0.2790  0.9602
   99SAPE  C31610024   6.547   5.416   4.640  0.8901  0.1727 -0.0617
   99SAPE  H16X10025   6.516   5.515   4.680 -0.8346  0.5786 -2.2086
   99SAPE  H16Y10026   6.495   5.332   4.691  0.2843  0.2935 -0.4724
   99SAPE  C31710027   6.503   5.419   4.494  0.4896 -0.7167  0.5578
   99SAPE  H17X10028   6.578   5.469   4.430  0.3978 -2.6989 -1.2283
   99SAPE  H17Y10029   6.414   5.486   4.498  0.6271 -0.5707  1.1904
   99SAPE  C31810030   6.465   5.282   4.426  0.1255 -0.2818  0.7664
   99SAPE  H18X10031   6.451   5.287   4.316 -0.4408 -0.2868  0.8371
   99SAPE  H18Y10032   6.368   5.252   4.470  0.0640 -3.8594 -1.3762
   99SAPE  H18Z10033   6.544   5.205   4.440  1.4180  0.8336  0.0164
  100SAPE     N10034   2.203   4.161   6.655 -0.8177 -0.3073  0.3693
  100SAPE   HN110035   2.173   4.177   6.753  0.1353  0.6741  0.5089
  100SAPE   HN210036   2.262   4.235   6.613  1.6897 -3.0820 -1.4731
  100SAPE   HN310037   2.122   4.167   6.591 -1.1041 -0.4510  0.7139
  100SAPE   C1210038   2.288   4.038   6.636  0.4199  0.9653  0.1123
  100SAPE  H12A10039   2.221   3.951   6.651  1.1639  0.5371  1.0818
  100SAPE  H12B10040   2.356   4.032   6.724 -1.3912  0.3167  1.5650
  100SAPE   C1110041   2.351   4.018   6.494  0.1609 -0.3679 -0.4109
  100SAPE  H11A10042   2.268   3.999   6.423 -0.0273  0.0499 -0.3074
  100SAPE  H11B10043   2.414   3.927   6.507  1.0733  0.4084  0.8193
  100SAPE     P10044   2.496   4.134   6.319  0.2387  0.0996 -0.1160
  100SAPE   O1310045   2.588   4.244   6.314 -0.4521 -0.4668  0.1889
  100SAPE   O1410046   2.563   4.004   6.290 -0.1364  0.6381  0.3962
  100SAPE   O1210047   2.431   4.136   6.459 -0.1614 -0.1653 -0.5940
  100SAPE   O1110048   2.372   4.151   6.212  0.3089 -0.2138  0.3589
  100SAPE    C110049   2.294   4.269   6.205 -0.0418  0.3760 -0.4746
  100SAPE    HA10050   2.214   4.277   6.282 -1.3833  1.5702 -1.9161
  100SAPE    HB10051   2.359   4.359   6.208 -1.0680  1.3110 -2.9872
  100SAPE    C210052   2.214   4.297   6.065 -0.1193  1.2127  0.4017
  100SAPE    HS10053   2.116   4.251   6.092  1.7301 -4.0206 -0.5766
  100SAPE   O2110054   2.273   4.225   5.958 -0.3191  0.1601  0.6629
  100SAPE   C2110055   2.253   4.099   5.956  0.0310  0.7430  0.0668
  100SAPE   O2210056   2.172   4.030   6.020  0.0409  0.0554 -0.2903
  100SAPE   C2210057   2.355   4.033   5.866  0.3001 -0.0354  0.6427
  100SAPE   H2R10058   2.286   3.972   5.804  1.9574 -1.1655 -0.1506
  100SAPE   H2S10059   2.415   4.103   5.804  1.7117 -1.7293  0.0066
  100SAPE    C310060   2.181   4.448   6.041 -0.0761 -0.6521  0.4616
  100SAPE    HX10061   2.274   4.501   6.070 -0.3584 -0.5615  1.2114
  100SAPE    HY10062   2.106   4.486   6.113 -0.5098  0.9665 -0.7713
  100SAPE   O3110063   2.159   4.478   5.903  0.0455  0.2713 -0.3260
  100SAPE   C3110064   2.042   4.439   5.850  0.5288  0.2469  0.0996
  100SAPE   O3210065   1.955   4.385   5.915  0.2251 -0.2307  0.4581
  100SAPE   C3210066   2.028   4.495   5.710 -0.2697 -0.8464 -0.7007
  100SAPE   H2X10067   2.056   4.603   5.718 -0.2848 -0.8846 -0.0433
  100SAPE   H2Y10068   1.925   4.511   5.672  0.1445  0.3317 -1.3786
  100SAPE   C2310069   2.459   3.948   5.939 -0.6128 -0.3091 -0.1774
  100SAPE   H3R10070   2.404   3.879   6.006 -0.7330  1.2758  1.4197
  100SAPE   H3S10071   2.528   4.006   6.004 -1.2488 -1.3280  1.4683
  100SAPE   C2410072   2.532   3.863   5.842  0.1655 -0.2699  0.7032
  100SAPE   H4R10073   2.458   3.796   5.792  1.8195 -0.3351 -1.8693
  100SAPE   H4S10074   2.603   3.795   5.894  1.7609  1.6242  1.0957
  100SAPE   C2510075   2.612   3.941   5.741  0.0046 -0.8120  0.4785
  100SAPE   H5R10076   2.704   3.980   5.786  0.6370 -2.4662  0.6778
  100SAPE   C2610077   2.595   3.957   5.607  0.3446 -0.5558 -0.1644
  100SAPE   H6R10078   2.663   4.023   5.552  0.7789 -2.2134 -1.7438
  100SAPE   C2710079   2.487   3.897   5.525  0.4329  0.2563  0.0326
  100SAPE   H7R10080   2.445   3.970   5.453 -0.8397 -1.7362 -1.3423
  100SAPE   H7S10081   2.407   3.874   5.599  1.9465 -3.4057  0.7542
  100SAPE   C2810082   2.539   3.770   5.461 -0.3835 -0.0608 -0.2726
  100SAPE   H8R10083   2.583   3.697   5.530 -0.2909  1.8090  1.7278
  100SAPE   C2910084   2.522   3.732   5.336  0.0316  0.1956  0.7182
  100SAPE   H9R10085   2.563   3.632   5.316 -0.5342  0.3024 -1.1237
  100SAPE  C21010086   2.475   3.820   5.223 -0.4333  0.0066  0.3764
  100SAPE  H10R10087   2.368   3.846   5.237 -0.3163  0.8808 -0.2428
  100SAPE  H10S10088   2.474   3.757   5.132 -1.9603  2.3264 -1.3276
  100SAPE  C21110089   2.558   3.942   5.195 -0.8149  0.4290 -0.2228
  100SAPE  H11R10090   2.608   3.988   5.282  2.0459 -1.0554 -0.9488
  100SAPE  C21210091   2.569   3.999   5.080  0.3790 -0.9271  0.7239
  100SAPE  H12R10092   2.634   4.087   5.072 -1.1407  0.1915  0.3191
  100SAPE  C21310093   2.490   3.954   4.961 -0.4294 -0.4238  0.7541
  100SAPE  H13R10094   2.495   4.035   4.885  1.8412  2.4423  3.6567
  100SAPE  H13S10095   2.383   3.941   4.988  0.0143 -0.0062  2.9215
  100SAPE  C21410096   2.549   3.831   4.893  0.2114  0.4481 -0.0494
  100SAPE  H14R10097   2.613   3.766   4.954  0.2990 -0.2404 -0.8597
  100SAPE  C21510098   2.563   3.813   4.756  0.0734 -0.0577  0.7557
  100SAPE  H15R10099   2.605   3.717   4.721 -0.6579  0.1260 -0.6749
  100SAPE  C21610100   2.509   3.914   4.648 -0.1601  0.4003 -0.0855
  100SAPE  H16R10101   2.428   3.978   4.690 -0.5759 -0.1829  0.0137
  100SAPE  H16S10102   2.460   3.862   4.563 -1.1260  1.4990 -0.2313
  100SAPE  C21710103   2.627   3.997   4.600 -0.1475 -0.6671 -0.3705
  100SAPE  H17R10104   2.699   3.930   4.548 -1.9537 -3.2624  0.2595
  100SAPE  H17S10105   2.670   4.058   4.682  0.6231 -1.9367  0.2069
  100SAPE  C21810106   2.578   4.102   4.503  0.3398  0.1907  0.4112
  100SAPE  H18R10107   2.546   4.202   4.542  0.4103  0.8409 -1.1140
  100SAPE  H18S10108   2.487   4.056   4.458 -1.2836  3.4210  0.0634
  100SAPE  C21910109   2.675   4.126   4.387  0.3678  0.1646 -0.5100
  100SAPE  H19R10110   2.713   4.027   4.356  1.5594 -1.0814  4.0794
  100SAPE  H19S10111   2.766   4.176   4.426  0.1542 -0.4396  0.8357
  100SAPE  C22010112   2.614   4.209   4.267 -0.3249  0.4291  0.7592
  100SAPE  H20R10113   2.694   4.237   4.195 -0.4431 -0.6779  0.1870
  100SAPE  H20S10114   2.566   4.304   4.300  0.0942  0.6313  0.8001
  100SAPE  H20T10115   2.536   4.149   4.216 -1.7936  2.6659  0.2218
  100SAPE   C3310116   2.111   4.413   5.616  0.5235 -1.0800  0.4844
  100SAPE   H3X10117   2.066   4.311   5.619 -2.0084 -0.0250  0.3491
  100SAPE   H3Y10118   2.219   4.392   5.636  0.6065 -0.0105  1.2398
  100SAPE   C3410119   2.081   4.461   5.473 -0.6468 -0.4435 -1.0058
  100SAPE   H4X10120   2.135   4.550   5.435 -0.6195 -0.1223 -0.2288
  100SAPE   H4Y10121   1.975   4.487   5.456 -0.4398 -0.6778 -2.8078
  100SAPE   C3510122   2.134   4.354   5.379  0.3563  0.0607 -0.3279
  100SAPE   H5X10123   2.087   4.257   5.404  2.0913 -0.1394  2.6394
  100SAPE   H5Y10124   2.241   4.338   5.406  0.3729  1.7297  0.7863
  100SAPE   C3610125   2.130   4.397   5.233 -0.5440 -0.6553  0.1553
  100SAPE   H6X10126   2.184   4.493   5.218 -0.9123 -0.6898 -1.5595
  100SAPE   H6Y10127   2.024   4.419   5.208  0.1986 -0.1636 -3.0859
  100SAPE   C3710128   2.173   4.284   5.139  0.1182 -0.1272 -0.0934
  100SAPE   H7X10129   2.260   4.231   5.182 -0.5064 -0.6331  0.5528
  100SAPE   H7Y10130   2.212   4.319   5.041  4.2391  1.6209  1.9325
  100SAPE   C3810131   2.067   4.174   5.122 -0.8734  0.6477  0.2427
  100SAPE   H8X10132   2.032   4.142   5.222 -0.0487  1.1988  0.7247
  100SAPE   H8Y10133   2.115   4.083   5.079  0.0288  0.7701  0.9604
  100SAPE   C3910134   1.953   4.217   5.039 -0.0169  0.7808  0.4265
  100SAPE   H9X10135   1.983   4.271   4.947 -0.0594 -0.9983 -0.6915
  100SAPE   H9Y10136   1.883   4.278   5.099 -1.3246 -1.0297  0.8480
  100SAPE  C31010137   1.866   4.098   4.991  0.1348  0.4688 -0.5530
  100SAPE  H10X10138   1.822   4.040   5.075 -1.1638  1.2095 -0.6940
  100SAPE  H10Y10139   1.938   4.029   4.943  1.7548  0.1310  2.1537
  100SAPE  C31110140   1.753   4.147   4.903  0.4620  1.1347 -0.3000
  100SAPE  H11X10141   1.692   4.224   4.955 -1.4164  0.0040 -0.7125
  100SAPE  H11Y10142   1.688   4.057   4.898 -0.2826  1.4321  2.1787
  100SAPE  C31210143   1.793   4.191   4.760 -0.3297 -0.0086 -0.5177
  100SAPE  H12X10144   1.843   4.104   4.713 -1.3551 -0.5573 -0.6166
  100SAPE  H12Y10145   1.863   4.277   4.763  0.2641 -0.4856  2.5433
  100SAPE  C31310146   1.675   4.218   4.672 -0.3080 -0.7836  0.1305
  100SAPE  H13X10147   1.716   4.270   4.583  1.2800  0.0095  1.2860
  100SAPE  H13Y10148   1.616   4.291   4.730  0.9124  0.4961 -0.1946
  100SAPE  C31410149   1.598   4.099   4.622  0.7107 -0.4100  0.3029
  100SAPE  H14X10150   1.553   4.058   4.715  0.5214  0.1614  0.4638
  100SAPE  H14Y10151   1.660   4.017   4.579 -1.0290 -0.5649 -2.1767
  100SAPE  C31510152   1.477   4.130   4.532 -0.2322 -0.1624 -0.3206
  100SAPE  H15X10153   1.507   4.126   4.425  0.1641  1.2750 -0.2909
  100SAPE  H15Y10154   1.434   4.228   4.563  0.8617  0.1746  0.1897
  100SAPE  C31610155   1.360   4.038   4.559  0.1574 -0.4346 -0.1179
  100SAPE  H16X10156   1.324   4.025   4.664 -0.0357 -2.1715 -0.3773
  100SAPE  H16Y10157   1.395   3.935   4.538  0.8049 -0.7857  2.3097
  100SAPE  C31710158   1.243   4.076   4.471  1.2116 -0.1403  0.5762
  100SAPE  H17X10159   1.211   4.181   4.488  0.3700 -0.1924 -0.5641
  100SAPE  H17Y10160   1.155   4.020   4.509  1.0511  1.0918  2.1220
  100SAPE  C31810161   1.258   4.029   4.316  0.8060  0.1854  0.2521
  100SAPE  H18X10162   1.168   4.065   4.263 -0.6734  1.2233  3.2585
  100SAPE  H18Y10163   1.270   3.918   4.309 -1.3720 -0.2388  2.0051
  100SAPE  H18Z10164   1.335   4.093   4.269 -0.3402  1.8622  0.5692
  101SAPE     N10165   2.233   5.149   6.780 -0.6008  0.3105 -0.1867
  101SAPE   HN110166   2.268   5.183   6.688  0.1754 -0.8352 -0.3391
  101SAPE   HN210167   2.296   5.178   6.857  1.5583  1.9373 -2.4211
  101SAPE   HN310168   2.245   5.045   6.777  0.4160  0.2076  3.0912
  101SAPE   C1210169   2.086   5.171   6.809 -0.0176 -0.3823 -0.0053
  101SAPE  H12A10170   2.065   5.087   6.879  1.2992 -0.9913 -0.3226
  101SAPE  H12B10171   2.039   5.165   6.709  2.8457  0.7353 -1.5246
  101SAPE   C1110172   2.062   5.308   6.869 -1.1024  0.7024  0.4176
  101SAPE  H11A10173   2.080   5.301   6.978 -2.6553  1.2800  0.7379
  101SAPE  H11B10174   1.952   5.321   6.865 -0.9758  1.5912 -2.2847
  101SAPE     P10175   2.070   5.549   6.778  0.2306 -0.0828 -0.3952
  101SAPE   O1310176   1.971   5.597   6.885 -0.0257 -0.6880 -0.3167
  101SAPE   O1410177   2.166   5.654   6.723  0.1903 -0.0203  0.4675
  101SAPE   O1210178   2.146   5.418   6.816  0.0305  0.4317 -0.0485
  101SAPE   O1110179   1.985   5.495   6.661 -0.4141 -0.2099  0.0127
  101SAPE    C110180   1.849   5.469   6.655 -0.0854 -0.3525  0.2974
  101SAPE    HA10181   1.797   5.445   6.750 -0.1755  1.8567  0.8524
  101SAPE    HB10182   1.790   5.547   6.603 -1.1130 -1.3567 -0.0956
  101SAPE    C210183   1.810   5.347   6.554  0.3447 -0.2963  1.2813
  101SAPE    HS10184   1.864   5.261   6.600 -0.7292 -1.2834  0.7298
  101SAPE   O2110185   1.864   5.384   6.425 -0.1966 -0.6303  0.3869
  101SAPE   C2110186   1.878   5.277   6.345 -1.0058  0.3573  0.3589
  101SAPE   O2210187   1.856   5.163   6.379 -0.2004  0.6896  0.3086
  101SAPE   C2210188   1.927   5.312   6.202  0.2002 -0.1344  0.1159
  101SAPE   H2R10189   1.972   5.412   6.222 -2.0165  1.1259 -0.8049
  101SAPE   H2S10190   2.006   5.247   6.158  0.0583  0.6491 -1.3605
  101SAPE    C310191   1.658   5.329   6.544  0.0814 -0.4767  0.0314
  101SAPE    HX10192   1.614   5.293   6.640  1.1954 -4.5104 -0.8084
  101SAPE    HY10193   1.633   5.246   6.475 -0.6129 -0.5979  0.4114
  101SAPE   O3110194   1.599   5.452   6.498  0.2100 -0.2356  0.7454
  101SAPE   C3110195   1.538   5.450   6.379 -0.0360 -0.2513 -0.9413
  101SAPE   O3210196   1.555   5.367   6.293 -0.0682 -0.4545  0.0237
  101SAPE   C3210197   1.452   5.579   6.370  0.1776 -0.4237 -0.2755
  101SAPE   H2X10198   1.481   5.631   6.277  1.1769  1.0996  0.8374
  101SAPE   H2Y10199   1.459   5.649   6.456  0.3263  0.0554 -0.6733
  101SAPE   C2310200   1.814   5.320   6.103 -0.1461 -0.5222  0.2019
  101SAPE   H3R10201   1.746   5.402   6.136  0.8972 -0.1387  1.4623
  101SAPE   H3S10202   1.744   5.233   6.105 -1.0844  0.1877 -0.5127
  101SAPE   C2410203   1.869   5.332   5.964  0.0021 -0.0126  0.0379
  101SAPE   H4R10204   1.934   5.422   5.959 -1.4604  1.0288 -1.0752
  101SAPE   H4S10205   1.782   5.360   5.900  0.2884  2.2753  0.5540
  101SAPE   C2510206   1.930   5.209   5.912 -0.3144  0.7010  0.2626
  101SAPE   H5R10207   1.925   5.128   5.987  1.7347  1.7948  1.6928
  101SAPE   C2610208   1.976   5.192   5.785  0.0566 -1.0605 -0.7639
  101SAPE   H6R10209   2.017   5.091   5.767 -0.0612 -1.1626 -0.4630
  101SAPE   C2710210   1.965   5.305   5.684 -0.6703  0.0593  0.1654
  101SAPE   H7R10211   1.987   5.402   5.733  3.0627 -1.0432  1.0039
  101SAPE   H7S10212   1.862   5.309   5.643 -0.2657 -0.9357 -1.0233
  101SAPE   C2810213   2.058   5.296   5.564  0.0917 -0.2447 -0.0165
  101SAPE   H8R10214   2.161   5.336   5.573  0.1634 -0.2617 -0.6969
  101SAPE   C2910215   2.029   5.251   5.441 -0.8112 -0.3594  0.1963
  101SAPE   H9R10216   2.094   5.279   5.357 -1.4051 -0.0831 -0.1815
  101SAPE  C21010217   1.899   5.192   5.397 -0.3028 -0.2073  0.0866
  101SAPE  H10R10218   1.846   5.161   5.491 -0.8270  1.9262  0.5587
  101SAPE  H10S10219   1.924   5.106   5.332  1.1023  0.0744  0.2205
  101SAPE  C21110220   1.813   5.288   5.314 -0.6637 -0.5293  0.2215
  101SAPE  H11R10221   1.735   5.345   5.366  0.4435  0.4756  0.8381
  101SAPE  C21210222   1.824   5.308   5.179  0.2041 -0.0937  0.1236
  101SAPE  H12R10223   1.750   5.381   5.144  0.5074  0.1560  0.0003
  101SAPE  C21310224   1.918   5.242   5.078  0.1919  0.6358 -1.0663
  101SAPE  H13R10225   1.861   5.212   4.988  0.3057 -2.1073 -0.3101
  101SAPE  H13S10226   1.950   5.144   5.119 -0.4947  0.3195 -1.2877
  101SAPE  C21410227   2.048   5.319   5.050  0.2915  0.2225  0.8378
  101SAPE  H14R10228   2.079   5.382   5.135  0.2421  2.1681 -0.5126
  101SAPE  C21510229   2.120   5.302   4.936 -0.2631 -0.5968 -0.2737
  101SAPE  H15R10230   2.207   5.364   4.912 -0.1181 -1.4214 -2.0615
  101SAPE  C21610231   2.088   5.217   4.815  0.5233  1.0775 -0.0101
  101SAPE  H16R10232   2.020   5.133   4.840  0.5864  1.7636  2.7408
  101SAPE  H16S10233   2.175   5.161   4.775  0.1690 -0.0846  0.8091
  101SAPE  C21710234   2.005   5.277   4.696  0.8738 -0.4799  0.0345
  101SAPE  H17R10235   2.066   5.320   4.614 -0.2358 -1.0404 -1.1100
  101SAPE  H17S10236   1.935   5.347   4.745  1.2103 -0.2135  0.1413
  101SAPE  C21810237   1.911   5.178   4.620  0.1155  0.3731  0.3172
  101SAPE  H18R10238   1.850   5.242   4.553  0.4917  0.3437 -0.0568
  101SAPE  H18S10239   1.849   5.116   4.689  3.8950 -0.5344  3.2428
  101SAPE  C21910240   1.991   5.077   4.533  0.5234  0.2734 -0.3505
  101SAPE  H19R10241   2.051   5.029   4.613  0.2140  1.1559  0.4353
  101SAPE  H19S10242   2.065   5.122   4.463  2.9722 -1.5308  0.9284
  101SAPE  C22010243   1.902   4.981   4.451  0.0752  0.2492 -0.0858
  101SAPE  H20R10244   1.830   5.037   4.387  0.4048  0.7752 -0.0048
  101SAPE  H20S10245   1.839   4.914   4.513 -0.4570 -2.0017 -2.8589
  101SAPE  H20T10246   1.976   4.926   4.389  1.0895  1.3264  0.1259
  101SAPE   C3310247   1.307   5.542   6.362 -0.0741 -1.0858  0.7036
  101SAPE   H3X10248   1.258   5.624   6.418 -0.5590 -0.0018 -1.2212
  101SAPE   H3Y10249   1.283   5.450   6.419  0.2430 -1.0971  0.8217
  101SAPE   C3410250   1.253   5.514   6.224 -0.5254 -0.2594 -0.1967
  101SAPE   H4X10251   1.294   5.423   6.175  1.6456  0.8742 -0.6443
  101SAPE   H4Y10252   1.284   5.603   6.164 -0.8130 -0.2392 -0.3184
  101SAPE   C3510253   1.100   5.511   6.222  0.5743 -0.0996  1.1120
  101SAPE   H5X10254   1.073   5.617   6.244 -1.2377 -0.7782  2.3616
  101SAPE   H5Y10255   1.077   5.450   6.311  0.9839  1.6719  2.4807
  101SAPE   C3610256   1.040   5.454   6.087  0.2856  1.1041  0.0692
  101SAPE   H6X10257   0.932   5.446   6.109  0.1886  1.8629 -0.0900
  101SAPE   H6Y10258   1.087   5.355   6.074 -0.6830  0.6141  0.2247
  101SAPE   C3710259   1.066   5.543   5.963  0.3847  0.3465  0.5506
  101SAPE   H7X10260   1.173   5.565   5.941  0.8517  0.2172  2.5024
  101SAPE   H7Y10261   1.020   5.635   6.005 -1.4483 -0.4118  0.2947
  101SAPE   C3810262   0.990   5.492   5.833 -0.0693  0.0238 -0.8907
  101SAPE   H8X10263   0.883   5.496   5.862  0.1468  2.1391 -0.2552
  101SAPE   H8Y10264   1.003   5.382   5.822 -0.0028 -0.1312  0.5361
  101SAPE   C3910265   1.035   5.559   5.702  0.7308 -1.1999 -0.1183
  101SAPE   H9X10266   1.145   5.570   5.694  0.5405  2.4938  0.6892
  101SAPE   H9Y10267   0.978   5.654   5.702  2.3229 -0.1913  1.1320
  101SAPE  C31010268   1.016   5.473   5.574 -0.2040  0.3292  0.7588
  101SAPE  H10X10269   0.911   5.438   5.572 -0.8246  2.1123  0.7117
  101SAPE  H10Y10270   1.098   5.398   5.570  0.0366  0.6424 -1.6448
  101SAPE  C31110271   1.035   5.550   5.440 -0.5544 -0.7271  0.2147
  101SAPE  H11X10272   1.140   5.587   5.435 -0.8140 -0.0790 -0.6337
  101SAPE  H11Y10273   0.970   5.640   5.445  0.9954  0.5465 -1.2821
  101SAPE  C31210274   0.999   5.449   5.326 -0.1737  0.0230 -0.1602
  101SAPE  H12X10275   0.903   5.394   5.318 -0.2585  0.3296 -1.5880
  101SAPE  H12Y10276   1.083   5.377   5.330  2.5430  2.9939  4.1101
  101SAPE  C31310277   0.990   5.521   5.195 -0.0812 -0.0966 -0.3962
  101SAPE  H13X10278   1.015   5.449   5.114 -2.0362 -2.0036  0.5888
  101SAPE  H13Y10279   1.064   5.603   5.184 -1.7042  1.3587 -0.9055
  101SAPE  C31410280   0.849   5.581   5.165  0.3535 -0.3568  0.1604
  101SAPE  H14X10281   0.812   5.651   5.243 -1.2148 -1.0247  0.0315
  101SAPE  H14Y10282   0.783   5.493   5.175 -2.1801  1.5610  1.3715
  101SAPE  C31510283   0.841   5.641   5.029  0.4266  0.1515 -0.0642
  101SAPE  H15X10284   0.888   5.559   4.970  0.8484  0.6694 -0.4540
  101SAPE  H15Y10285   0.906   5.730   5.026  0.3861  0.1936  0.2857
  101SAPE  C31610286   0.697   5.671   4.979 -0.3252 -0.2257 -0.6389
  101SAPE  H16X10287   0.667   5.768   5.023  0.6577 -0.0079 -0.4105
  101SAPE  H16Y10288   0.631   5.587   5.008  0.2642 -0.0091  1.5022
  101SAPE  C31710289   0.688   5.691   4.823  0.5937 -0.2193 -0.0467
  101SAPE  H17X10290   0.756   5.776   4.800  0.8181 -0.6846 -1.1719
  101SAPE  H17Y10291   0.588   5.732   4.801  0.1967  0.5122  2.6664
  101SAPE  C31810292   0.740   5.573   4.740 -0.0100  0.0668 -0.5898
  101SAPE  H18X10293   0.848   5.556   4.761 -0.2746  0.9675  1.8576
  101SAPE  H18Y10294   0.717   5.593   4.633 -0.5375  0.4203 -0.4163
  101SAPE  H18Z10295   0.680   5.485   4.771  1.3173  0.0145  2.1183
  102SAPE     N10296   1.189   4.263   6.834 -0.6192  0.8013 -0.3654
  102SAPE   HN110297   1.285   4.248   6.797 -0.4157 -0.4258  0.5938
  102SAPE   HN210298   1.202   4.334   6.909  1.1305 -0.2333  0.3815
  102SAPE   HN310299   1.164   4.168   6.869  1.9564 -1.0505 -3.0716
  102SAPE   C1210300   1.094   4.307   6.723  0.0348  0.4949  0.5868
  102SAPE  H12A10301   1.107   4.414   6.696 -1.2631  0.0871 -2.0589
  102SAPE  H12B10302   0.990   4.293   6.760 -0.6790  1.3314 -1.0113
  102SAPE   C1110303   1.116   4.206   6.601 -0.3459 -0.0329  0.2572
  102SAPE  H11A10304   1.047   4.249   6.526 -2.4060  1.3001  2.7588
  102SAPE  H11B10305   1.106   4.102   6.638 -1.5091  0.7918  2.4712
  102SAPE     P10306   1.343   4.145   6.488 -0.1607  0.2027  0.2727
  102SAPE   O1310307   1.474   4.212   6.457  0.0020  0.6917 -0.4186
  102SAPE   O1410308   1.348   4.007   6.547  0.1657 -0.2597  0.7152
  102SAPE   O1210309   1.249   4.232   6.573  0.3587 -0.1171  0.2624
  102SAPE   O1110310   1.267   4.130   6.354 -0.4168 -0.0783 -0.2664
  102SAPE    C110311   1.303   4.018   6.270  0.5433  0.2281  0.1825
  102SAPE    HA10312   1.316   3.919   6.319 -0.2075 -0.4499 -0.9538
  102SAPE    HB10313   1.215   4.009   6.203  0.4186 -1.5390  0.5385
  102SAPE    C210314   1.429   4.042   6.183 -0.1453 -0.2008  0.5158
  102SAPE    HS10315   1.507   4.072   6.256 -0.5939 -0.4269  1.1012
  102SAPE   O2110316   1.390   4.144   6.093  0.0186  0.1193  0.8237
  102SAPE   C2110317   1.480   4.239   6.082 -0.2453  0.3123 -0.0435
  102SAPE   O2210318   1.590   4.242   6.127 -0.2690 -0.6752 -0.0937
  102SAPE   C2210319   1.426   4.346   5.992 -0.0930 -0.2560  0.0487
  102SAPE   H2R10320   1.498   4.359   5.908  0.0521 -0.7295  0.1018
  102SAPE   H2S10321   1.324   4.318   5.959  0.1377 -0.2375 -0.6951
  102SAPE    C310322   1.478   3.922   6.102 -0.8802 -0.2358 -0.1010
  102SAPE    HX10323   1.394   3.896   6.033  1.2191 -0.9634 -2.5537
  102SAPE    HY10324   1.482   3.826   6.158  1.6033  0.2675  0.6842
  102SAPE   O3110325   1.599   3.948   6.025  0.2603 -0.9833  0.5555
  102SAPE   C3110326   1.713   3.933   6.085 -0.0340 -0.2514  0.3143
  102SAPE   O3210327   1.727   3.918   6.206 -0.5736  0.0754  0.0758
  102SAPE   C3210328   1.833   3.934   5.996 -0.8895 -0.2119 -0.1308
  102SAPE   H2X10329   1.885   3.836   5.988  0.4452  0.5324 -1.2023
  102SAPE   H2Y10330   1.909   3.999   6.045 -1.3220  1.1383 -1.1863
  102SAPE   C2310331   1.425   4.475   6.067 -0.9568  0.1932  0.9844
  102SAPE   H3R10332   1.525   4.519   6.089 -0.7089  0.1049  0.0582
  102SAPE   H3S10333   1.383   4.452   6.168 -2.7250  0.5020  0.3469
  102SAPE   C2410334   1.339   4.583   6.003 -0.9013 -0.3194  0.1489
  102SAPE   H4R10335   1.352   4.674   6.066  1.3597 -0.1125 -0.5100
  102SAPE   H4S10336   1.235   4.546   5.992 -0.1945 -2.8275  1.1494
  102SAPE   C2510337   1.408   4.633   5.876  0.8055 -0.0571 -0.4347
  102SAPE   H5R10338   1.508   4.676   5.893  1.8474 -3.0906  1.9177
  102SAPE   C2610339   1.370   4.620   5.750 -0.4946 -0.2780 -0.6006
  102SAPE   H6R10340   1.443   4.651   5.674  2.3403  1.4843  2.5393
  102SAPE   C2710341   1.250   4.545   5.704  0.5656 -0.0939  0.3812
  102SAPE   H7R10342   1.180   4.624   5.671 -1.8744 -0.9255  3.1168
  102SAPE   H7S10343   1.199   4.499   5.792 -0.9006 -1.0102 -0.8886
  102SAPE   C2810344   1.270   4.444   5.594  0.3833  0.1998  0.3054
  102SAPE   H8R10345   1.282   4.339   5.627  0.9487  0.7303  1.8638
  102SAPE   C2910346   1.275   4.471   5.464 -0.2216  0.3615  0.6832
  102SAPE   H9R10347   1.293   4.395   5.388 -3.0606  0.5384 -0.2846
  102SAPE  C21010348   1.244   4.609   5.405  0.8162 -0.1637  0.6650
  102SAPE  H10R10349   1.267   4.694   5.473  3.7413  0.7187 -1.2159
  102SAPE  H10S10350   1.137   4.611   5.376 -0.2186  2.5043  3.9325
  102SAPE  C21110351   1.319   4.626   5.276 -0.2040 -0.2030  0.2866
  102SAPE  H11R10352   1.428   4.626   5.291 -0.3402  2.1548  1.9361
  102SAPE  C21210353   1.272   4.648   5.149 -0.6441 -0.0315  0.0095
  102SAPE  H12R10354   1.348   4.659   5.071 -1.2525 -0.3893 -0.6487
  102SAPE  C21310355   1.128   4.667   5.105 -0.3009  0.2125  0.2724
  102SAPE  H13R10356   1.061   4.634   5.187  0.4275  0.0393  0.8070
  102SAPE  H13S10357   1.108   4.592   5.026  0.3784  0.3290 -0.0192
  102SAPE  C21410358   1.093   4.805   5.052  0.0395  0.3112  0.6519
  102SAPE  H14R10359   1.103   4.887   5.125 -4.6791 -0.8296  2.9997
  102SAPE  C21510360   1.053   4.835   4.929 -0.4620  0.3306  0.7179
  102SAPE  H15R10361   1.026   4.939   4.905 -1.2997  0.4920  2.2089
  102SAPE  C21610362   1.062   4.750   4.800 -0.3087 -0.1160  0.4379
  102SAPE  H16R10363   1.102   4.649   4.824 -2.9111 -1.4751 -0.5932
  102SAPE  H16S10364   1.137   4.794   4.730 -0.0204 -0.5138  0.4930
  102SAPE  C21710365   0.935   4.749   4.713 -0.1927 -0.4617  0.3656
  102SAPE  H17R10366   0.964   4.702   4.616 -0.7883 -0.3497  0.1322
  102SAPE  H17S10367   0.904   4.848   4.671 -0.2556 -1.0860 -1.1463
  102SAPE  C21810368   0.811   4.686   4.774 -0.0867  0.3402 -0.3035
  102SAPE  H18R10369   0.775   4.742   4.863  0.0637 -0.6201  0.3770
  102SAPE  H18S10370   0.842   4.586   4.812  0.3351  0.6859  0.2816
  102SAPE  C21910371   0.688   4.665   4.686 -0.3575  0.1961 -0.3870
  102SAPE  H19R10372   0.717   4.574   4.629 -0.6709 -0.1780  0.0566
  102SAPE  H19S10373   0.684   4.754   4.619  1.2356 -1.0820 -2.3004
  102SAPE  C22010374   0.557   4.650   4.754  1.1548  0.3118  0.1468
  102SAPE  H20R10375   0.547   4.566   4.827  0.3681  1.6457  1.6421
  102SAPE  H20S10376   0.474   4.639   4.681  0.5015  0.6039  0.8290
  102SAPE  H20T10377   0.530   4.744   4.806  3.5251  2.3230 -2.0230
  102SAPE   C3310378   1.810   3.996   5.858  0.1644 -0.1394 -0.7357
  102SAPE   H3X10379   1.773   4.100   5.867  0.8023  0.1359 -1.2058
  102SAPE   H3Y10380   1.751   3.927   5.794  2.1077 -3.4142  0.7490
  102SAPE   C3410381   1.939   4.012   5.771 -0.2196 -0.2371  0.2904
  102SAPE   H4X10382   1.994   3.915   5.775  0.4799  0.1763  1.6081
  102SAPE   H4Y10383   1.999   4.100   5.802  1.7983 -1.7376  0.8868
  102SAPE   C3510384   1.905   4.034   5.620 -0.4246 -0.5122 -0.2328
  102SAPE   H5X10385   1.860   3.940   5.580 -0.0332 -1.5100  1.5566
  102SAPE   H5Y10386   2.004   4.042   5.573 -1.0584  0.5780 -1.4248
  102SAPE   C3610387   1.819   4.155   5.584  0.3648  0.7181  0.1064
  102SAPE   H6X10388   1.879   4.247   5.605  0.5199  0.5897  0.2263
  102SAPE   H6Y10389   1.727   4.166   5.646 -0.0469 -0.8480 -0.1929
  102SAPE   C3710390   1.777   4.165   5.439  0.4001 -0.4729  0.1336
  102SAPE   H7X10391   1.732   4.070   5.403 -0.9102  0.2073 -0.0644
  102SAPE   H7Y10392   1.868   4.181   5.378  0.0203  2.0770  0.1273
  102SAPE   C3810393   1.664   4.267   5.404 -0.0002 -0.0795 -0.5275
  102SAPE   H8X10394   1.707   4.363   5.441 -1.9899 -0.4854  3.3126
  102SAPE   H8Y10395   1.581   4.249   5.476 -0.2050  1.3505 -0.3729
  102SAPE   C3910396   1.600   4.265   5.259  0.1651  0.4600  0.3873
  102SAPE   H9X10397   1.688   4.263   5.192 -0.5129 -1.6320 -0.5048
  102SAPE   H9Y10398   1.534   4.355   5.254 -0.8896 -0.2794  0.8099
  102SAPE  C31010399   1.510   4.148   5.237  0.8611 -0.1186  1.0292
  102SAPE  H10X10400   1.486   4.091   5.329 -2.8745 -0.8417 -0.1898
  102SAPE  H10Y10401   1.566   4.078   5.171  1.7262  1.0681  0.4733
  102SAPE  C31110402   1.373   4.171   5.174 -0.2989 -0.5743  0.4946
  102SAPE  H11X10403   1.324   4.231   5.253  0.0415  0.8243 -0.3199
  102SAPE  H11Y10404   1.316   4.077   5.160 -0.1407 -0.2297 -4.1947
  102SAPE  C31210405   1.383   4.227   5.037 -0.6372 -0.0206 -0.7604
  102SAPE  H12X10406   1.437   4.161   4.965 -1.1010 -0.8537 -0.3642
  102SAPE  H12Y10407   1.438   4.323   5.040 -0.6827 -0.0114 -0.1991
  102SAPE  C31310408   1.241   4.271   4.989  0.1450  0.0076 -0.1529
  102SAPE  H13X10409   1.209   4.349   5.061 -2.4454  0.5514 -1.7665
  102SAPE  H13Y10410   1.171   4.185   4.989 -0.7221  0.6760 -1.6065
  102SAPE  C31410411   1.247   4.333   4.848 -0.7516  0.3184 -0.2096
  102SAPE  H14X10412   1.322   4.277   4.788 -2.5850 -2.1167 -0.4026
  102SAPE  H14Y10413   1.280   4.439   4.852  1.4434 -0.2656 -1.2747
  102SAPE  C31510414   1.113   4.330   4.779  0.2723  0.5050  0.7517
  102SAPE  H15X10415   1.037   4.373   4.849 -2.3011 -1.1600 -0.8624
  102SAPE  H15Y10416   1.088   4.223   4.764 -0.7259  0.7124  0.8170
  102SAPE  C31610417   1.104   4.408   4.649  0.4529 -0.3544 -0.3043
  102SAPE  H16X10418   1.185   4.394   4.574  1.2588  1.8615  0.0495
  102SAPE  H16Y10419   1.122   4.518   4.658  0.5425 -0.4051  0.1771
  102SAPE  C31710420   0.973   4.381   4.568 -0.5536 -0.8276 -0.3175
  102SAPE  H17X10421   0.888   4.415   4.631 -0.4525 -1.4367  0.1557
  102SAPE  H17Y10422   0.958   4.273   4.547  0.5392 -1.0873  0.1760
  102SAPE  C31810423   0.979   4.456   4.436 -0.7373 -0.3514 -0.4366
  102SAPE  H18X10424   0.977   4.563   4.465  1.2527 -0.7295  1.2965
  102SAPE  H18Y10425   0.912   4.416   4.357 -1.5984  0.4812 -0.1472
  102SAPE  H18Z10426   1.071   4.442   4.376 -1.6095  0.3312 -1.9982
  103SAPE     N10427   0.157   0.497   2.228  0.2977 -0.0649 -1.0492
  103SAPE   HN110428   0.168   0.547   2.137 -2.1632 -2.0159 -2.5447
  103SAPE   HN210429   0.219   0.414   2.226  2.4001  1.4027 -0.6472
  103SAPE   HN310430   0.060   0.464   2.243  0.7494 -1.5573 -1.2465
  103SAPE   C1210431   0.202   0.583   2.351  0.5510  0.9759  0.2663
  103SAPE  H12A10432   0.294   0.640   2.324  0.8163  0.4034 -0.0564
  103SAPE  H12B10433   0.225   0.508   2.430 -0.4817 -1.0486 -1.2653
  103SAPE   C1110434   0.087   0.685   2.393  0.1549 -0.7761  0.0520
  103SAPE  H11A10435   0.096   0.702   2.502  2.5418 -0.3388 -0.1713
  103SAPE  H11B10436  -0.017   0.644   2.396  0.4414 -1.4683  1.3397
  103SAPE     P10437   0.118   0.940   2.379  0.0731 -0.0882  0.0454
  103SAPE   O1310438   0.251   0.924   2.446  0.1607 -0.1674  0.5656
  103SAPE   O1410439   0.107   1.051   2.282  0.0350  0.1228  0.0403
  103SAPE   O1210440   0.083   0.807   2.314 -0.4012  0.3739 -0.1488
  103SAPE   O1110441   0.006   0.948   2.496  0.3373 -0.3243  0.4472
  103SAPE    C110442   0.046   0.947   2.635 -0.3347  0.1161  0.2094
  103SAPE    HA10443  -0.032   0.893   2.692 -0.8776  0.9539  0.2647
  103SAPE    HB10444   0.135   0.882   2.650 -0.9327 -0.7302  0.1961
  103SAPE    C210445   0.056   1.088   2.698 -0.1046 -0.2513 -0.5943
  103SAPE    HS10446   0.150   1.133   2.659 -1.2233  0.8958 -2.0529
  103SAPE   O2110447   0.053   1.069   2.840  0.4653 -0.9601  0.0641
  103SAPE   C2110448   0.091   1.178   2.913  0.2177 -0.0245  0.6378
  103SAPE   O2210449   0.133   1.269   2.849  0.6328  0.0523 -0.5665
  103SAPE   C2210450   0.109   1.152   3.064  0.2233 -0.0767 -0.3683
  103SAPE   H2R10451   0.046   1.063   3.089 -0.8006  0.3741 -1.2629
  103SAPE   H2S10452   0.212   1.116   3.085  0.6526  1.2880 -0.0804
  103SAPE    C310453  -0.068   1.176   2.658  0.1136  0.1389  0.2176
  103SAPE    HX10454  -0.097   1.171   2.551  0.1486 -1.1166  0.2511
  103SAPE    HY10455  -0.032   1.279   2.679 -0.9669  0.5191  0.2173
  103SAPE   O3110456  -0.180   1.150   2.743 -0.1756 -0.1404 -0.0805
  103SAPE   C3110457  -0.282   1.094   2.682 -0.5960 -0.2833 -0.1067
  103SAPE   O3210458  -0.286   1.067   2.560 -0.2105 -0.0352 -0.2224
  103SAPE   C3210459  -0.393   1.049   2.786  0.1450  0.1129  0.4263
  103SAPE   H2X10460  -0.333   1.007   2.869  0.9145  0.5429  0.0986
  103SAPE   H2Y10461  -0.436   0.958   2.738 -0.6350  0.3287  0.6997
  103SAPE   C2310462   0.063   1.278   3.151  0.3907  0.5865 -0.7355
  103SAPE   H3R10463   0.113   1.362   3.097  0.4596  0.0047 -1.6050
  103SAPE   H3S10464   0.116   1.271   3.248 -0.7777  3.4682  0.2109
  103SAPE   C2410465  -0.086   1.288   3.181 -0.5346 -0.3589  0.0383
  103SAPE   H4R10466  -0.115   1.209   3.253 -4.4702  0.3945 -0.4429
  103SAPE   H4S10467  -0.140   1.267   3.086  2.0654 -1.3377 -1.3142
  103SAPE   C2510468  -0.127   1.419   3.251  0.7591  0.7722  0.1123
  103SAPE   H5R10469  -0.117   1.507   3.186 -3.4547  1.9302  0.7249
  103SAPE   C2610470  -0.187   1.440   3.370 -0.3813 -0.1439  0.5551
  103SAPE   H6R10471  -0.201   1.546   3.399  1.5276 -0.3278  2.3955
  103SAPE   C2710472  -0.223   1.341   3.481  0.0929 -1.0896  0.1301
  103SAPE   H7R10473  -0.133   1.288   3.517  0.4413 -0.1197  0.7139
  103SAPE   H7S10474  -0.281   1.259   3.433  1.4190 -1.1151 -1.5106
  103SAPE   C2810475  -0.305   1.396   3.600  0.7172  0.7798 -0.0964
  103SAPE   H8R10476  -0.380   1.476   3.599 -1.3859 -1.0925 -0.6669
  103SAPE   C2910477  -0.297   1.340   3.717  0.1935  0.3246  0.3719
  103SAPE   H9R10478  -0.361   1.375   3.799 -0.8159 -1.3760  0.3420
  103SAPE  C21010479  -0.207   1.223   3.762 -0.1986  0.2918 -0.6217
  103SAPE  H10R10480  -0.198   1.155   3.675  1.7701  0.6570 -0.7376
  103SAPE  H10S10481  -0.279   1.164   3.823 -0.2216 -0.9978 -1.8710
  103SAPE  C21110482  -0.080   1.249   3.843  0.5948 -0.1823  0.1904
  103SAPE  H11R10483  -0.095   1.308   3.934 -1.9479  0.6448 -0.6844
  103SAPE  C21210484   0.033   1.179   3.825  0.2463  0.4390  0.3826
  103SAPE  H12R10485   0.121   1.205   3.886  0.5980  1.0573 -0.3663
  103SAPE  C21310486   0.070   1.090   3.705 -0.3895 -0.1956  0.4703
  103SAPE  H13R10487   0.004   1.124   3.622 -0.3846 -1.5921 -0.1342
  103SAPE  H13S10488   0.045   0.985   3.729 -2.4999 -0.4473 -2.2596
  103SAPE  C21410489   0.207   1.107   3.649 -0.4535  0.2765 -0.4238
  103SAPE  H14R10490   0.254   1.195   3.694  1.2150  0.7739 -2.8981
  103SAPE  C21510491   0.277   1.011   3.581  0.0069 -0.2395  0.4029
  103SAPE  H15R10492   0.373   1.046   3.539 -1.2443  0.5109 -1.9931
  103SAPE  C21610493   0.223   0.883   3.528 -0.4372 -0.8481  0.9382
  103SAPE  H16R10494   0.114   0.879   3.550 -1.1611 -1.9528 -2.2879
  103SAPE  H16S10495   0.264   0.793   3.578  1.2295 -0.6524  0.0192
  103SAPE  C21710496   0.243   0.869   3.372 -0.1269  0.1309  0.4962
  103SAPE  H17R10497   0.352   0.868   3.352 -0.1313 -0.5205  0.4886
  103SAPE  H17S10498   0.200   0.959   3.321  0.3473 -0.4491 -0.9860
  103SAPE  C21810499   0.182   0.737   3.322  0.2934  0.1964 -0.9788
  103SAPE  H18R10500   0.073   0.755   3.338  0.9926  2.1733  2.9212
  103SAPE  H18S10501   0.205   0.653   3.391 -1.4428 -0.6814 -1.3956
  103SAPE  C21910502   0.213   0.701   3.179  0.7844 -0.1947 -1.0506
  103SAPE  H19R10503   0.152   0.612   3.155  2.4352 -0.6149 -4.2947
  103SAPE  H19S10504   0.323   0.684   3.169  0.7289 -1.0502 -0.3570
  103SAPE  C22010505   0.182   0.809   3.067  0.7351  0.1721 -0.7375
  103SAPE  H20R10506   0.080   0.851   3.078  0.6132 -0.4415  0.6949
  103SAPE  H20S10507   0.204   0.763   2.968  0.5415 -3.1968  0.6490
  103SAPE  H20T10508   0.246   0.898   3.084 -0.3367  1.0350 -1.1056
  103SAPE   C3310509  -0.502   1.151   2.831 -0.1328  0.0121  0.7898
  103SAPE   H3X10510  -0.601   1.123   2.789  0.3366 -1.8875  0.8514
  103SAPE   H3Y10511  -0.484   1.250   2.785  0.2302 -0.8548 -1.0328
  103SAPE   C3410512  -0.507   1.173   2.986  0.6941 -1.1305  0.3410
  103SAPE   H4X10513  -0.408   1.195   3.032  0.4662 -0.4444  0.5025
  103SAPE   H4Y10514  -0.546   1.078   3.028  2.5177 -2.7750 -1.4473
  103SAPE   C3510515  -0.585   1.299   3.034 -0.2118  0.0373  0.3711
  103SAPE   H5X10516  -0.693   1.283   3.009  0.2756 -1.7507 -0.8055
  103SAPE   H5Y10517  -0.541   1.384   2.978 -1.4762 -0.1640 -1.0118
  103SAPE   C3610518  -0.556   1.329   3.180  0.1392  0.3700 -0.4130
  103SAPE   H6X10519  -0.448   1.352   3.187  0.1003  0.4657 -0.1191
  103SAPE   H6Y10520  -0.587   1.237   3.235 -0.6549  0.3676 -0.8462
  103SAPE   C3710521  -0.642   1.442   3.228  0.2038  0.3720  0.0793
  103SAPE   H7X10522  -0.747   1.407   3.226 -0.1748  1.3301  1.6351
  103SAPE   H7Y10523  -0.625   1.518   3.148  0.3869 -0.0469 -0.2862
  103SAPE   C3810524  -0.595   1.502   3.362 -0.0036 -0.3147  0.2566
  103SAPE   H8X10525  -0.488   1.531   3.355 -0.7101  2.1462 -2.1372
  103SAPE   H8Y10526  -0.602   1.427   3.443  0.9832  0.0113  0.6628
  103SAPE   C3910527  -0.656   1.635   3.390  0.8292  0.0996 -0.2968
  103SAPE   H9X10528  -0.764   1.613   3.404  1.2334 -1.8297  0.0326
  103SAPE   H9Y10529  -0.645   1.711   3.310 -2.4689  2.7396  1.4677
  103SAPE  C31010530  -0.611   1.694   3.526  0.2474 -0.2749  0.3669
  103SAPE  H10X10531  -0.654   1.796   3.532  1.4328  0.1794  1.8065
  103SAPE  H10Y10532  -0.500   1.699   3.515  0.1030 -0.2411 -1.2474
  103SAPE  C31110533  -0.651   1.617   3.654  0.1546  0.3599 -0.8456
  103SAPE  H11X10534  -0.613   1.513   3.651 -2.3672 -0.6276 -0.9759
  103SAPE  H11Y10535  -0.762   1.609   3.653  0.0702  1.4124 -1.1875
  103SAPE  C31210536  -0.608   1.692   3.782  0.2336 -0.2374 -0.2295
  103SAPE  H12X10537  -0.632   1.800   3.768  1.6463 -0.0745 -1.7003
  103SAPE  H12Y10538  -0.498   1.688   3.795  0.3694 -0.3037 -1.3002
  103SAPE  C31310539  -0.685   1.639   3.905  0.6503 -0.7843 -0.3739
  103SAPE  H13X10540  -0.636   1.667   4.001 -1.9489 -0.1386  0.8595
  103SAPE  H13Y10541  -0.687   1.528   3.899 -1.8586 -0.7753 -0.7481
  103SAPE  C31410542  -0.829   1.696   3.918 -0.4585 -0.1115 -0.0759
  103SAPE  H14X10543  -0.862   1.711   3.813 -1.3265 -0.0266  0.1965
  103SAPE  H14Y10544  -0.824   1.799   3.958 -0.7518  0.1424 -0.6868
  103SAPE  C31510545  -0.935   1.606   3.986 -0.2855 -0.1461 -0.4405
  103SAPE  H15X10546  -0.917   1.512   3.930  0.9239 -0.4336  0.3885
  103SAPE  H15Y10547  -1.041   1.638   3.972  0.0640  1.4046  0.2594
  103SAPE  C31610548  -0.918   1.584   4.133  0.4223 -0.0794 -0.1889
  103SAPE  H16X10549  -0.956   1.676   4.183 -2.6242 -0.9481 -0.6892
  103SAPE  H16Y10550  -0.809   1.576   4.152  0.4631  2.0044  0.7455
  103SAPE  C31710551  -0.992   1.463   4.191  0.1512 -0.1742 -0.5082
  103SAPE  H17X10552  -0.942   1.424   4.281  0.6321  2.4283  0.4267
  103SAPE  H17Y10553  -0.987   1.394   4.104  2.8428  1.6881 -1.9708
  103SAPE  C31810554  -1.136   1.501   4.232  0.4655 -0.0681 -0.0179
  103SAPE  H18X10555  -1.131   1.551   4.331  1.4788  0.9875 -0.5739
  103SAPE  H18Y10556  -1.196   1.408   4.239 -0.5653  0.5620 -0.3520
  103SAPE  H18Z10557  -1.195   1.555   4.155  0.6820 -1.6496 -1.3529
  104SAPE     N10558   5.698   1.547   2.260  0.0260 -0.2573 -0.5537
  104SAPE   HN110559   5.773   1.576   2.195  0.8529  0.0923  0.5225
  104SAPE   HN210560   5.607   1.540   2.210  0.7630 -0.5539 -1.8900
  104SAPE   HN310561   5.688   1.618   2.336 -2.0078 -0.5690 -0.4824
  104SAPE   C1210562   5.743   1.424   2.328  0.1966 -0.2533  0.0702
  104SAPE  H12A10563   5.735   1.343   2.253  0.2982 -0.8103  0.6436
  104SAPE  H12B10564   5.666   1.394   2.404 -0.2615  0.2910 -0.1762
  104SAPE   C1110565   5.884   1.436   2.381  0.2902  0.1422  0.1392
  104SAPE  H11A10566   5.927   1.340   2.418 -0.5393 -1.1103 -1.9940
  104SAPE  H11B10567   5.884   1.508   2.466  4.4687  1.3924 -0.6643
  104SAPE     P10568   6.125   1.489   2.311 -0.0887 -0.0401  0.1396
  104SAPE   O1310569   6.158   1.345   2.311  0.3415 -0.1413  0.5348
  104SAPE   O1410570   6.209   1.570   2.219 -0.2099  0.0341 -0.0312
  104SAPE   O1210571   5.967   1.494   2.284  0.1415 -0.3612 -0.0558
  104SAPE   O1110572   6.130   1.535   2.462 -0.0832 -0.3686  0.5445
  104SAPE    C110573   6.249   1.530   2.544  0.9740  0.2168  0.5452
  104SAPE    HA10574   6.283   1.425   2.537 -0.3024 -0.1825 -0.1957
  104SAPE    HB10575   6.326   1.596   2.500  1.3713  0.2220  1.2500
  104SAPE    C210576   6.223   1.560   2.691  0.5880  0.1350 -0.0667
  104SAPE    HS10577   6.185   1.664   2.696 -1.4398 -0.5687  0.0201
  104SAPE   O2110578   6.343   1.537   2.770 -0.8336  0.0940  0.6429
  104SAPE   C2110579   6.420   1.649   2.783 -0.0007  0.6257  0.2413
  104SAPE   O2210580   6.392   1.758   2.746  0.1319 -0.7457  0.6551
  104SAPE   C2210581   6.542   1.615   2.867  0.2258  0.0982  0.2191
  104SAPE   H2R10582   6.578   1.510   2.854 -0.5775  0.0708 -2.3340
  104SAPE   H2S10583   6.620   1.671   2.810 -2.6138 -0.0311 -4.2915
  104SAPE    C310584   6.101   1.486   2.760 -0.1030  0.1507 -0.2167
  104SAPE    HX10585   6.131   1.379   2.763  2.0491  0.7264  2.3271
  104SAPE    HY10586   6.011   1.493   2.694 -0.6439  3.0037  0.6976
  104SAPE   O3110587   6.091   1.532   2.890  0.0543  0.0749 -0.2065
  104SAPE   C3110588   6.015   1.639   2.917  0.0112 -0.3379  0.2284
  104SAPE   O3210589   5.971   1.716   2.840  0.2162 -0.4604  0.1190
  104SAPE   C3210590   6.000   1.659   3.075 -0.4236  0.2182  0.6570
  104SAPE   H2X10591   6.097   1.711   3.091 -1.0215  2.2352 -1.7317
  104SAPE   H2Y10592   6.009   1.558   3.120 -1.5158 -0.8582 -1.4292
  104SAPE   C2310593   6.535   1.665   3.011 -0.0697 -0.5023 -0.0291
  104SAPE   H3R10594   6.572   1.581   3.074 -0.9802 -1.3310 -0.5939
  104SAPE   H3S10595   6.429   1.685   3.039  0.3457 -0.2388  1.4749
  104SAPE   C2410596   6.608   1.801   3.032 -0.0056  0.4845  0.3235
  104SAPE   H4R10597   6.580   1.849   3.128 -0.2928  1.0436 -0.0389
  104SAPE   H4S10598   6.576   1.871   2.952  0.4057  0.9844  0.5873
  104SAPE   C2510599   6.756   1.792   3.022 -0.0068 -0.1807 -0.0432
  104SAPE   H5R10600   6.797   1.781   2.921 -1.5104 -0.7267 -0.6145
  104SAPE   C2610601   6.840   1.783   3.128  0.3319  0.4048  0.4387
  104SAPE   H6R10602   6.946   1.785   3.102  0.0373 -0.1159 -0.8640
  104SAPE   C2710603   6.807   1.790   3.273 -0.2557 -0.5775 -0.6453
  104SAPE   H7R10604   6.873   1.711   3.316 -1.0698 -0.6985  0.4409
  104SAPE   H7S10605   6.702   1.767   3.305 -0.4898  0.7894 -0.3734
  104SAPE   C2810606   6.850   1.930   3.328  0.3475  0.0525 -0.1652
  104SAPE   H8R10607   6.881   1.993   3.243  0.3610 -0.9192 -0.9120
  104SAPE   C2910608   6.838   1.972   3.452 -0.0564  0.2012  0.1894
  104SAPE   H9R10609   6.869   2.073   3.482  1.3078 -0.3478  0.6939
  104SAPE  C21010610   6.793   1.868   3.557 -1.0745 -0.1774  0.3205
  104SAPE  H10R10611   6.860   1.885   3.644  0.0463 -3.0789  0.1398
  104SAPE  H10S10612   6.827   1.765   3.533 -1.0254 -0.9010  3.1977
  104SAPE  C21110613   6.648   1.854   3.581  0.1372 -0.6231  0.6739
  104SAPE  H11R10614   6.588   1.851   3.488 -0.0470  1.5648  0.6652
  104SAPE  C21210615   6.583   1.851   3.697  0.1935  0.9080 -0.3354
  104SAPE  H12R10616   6.476   1.825   3.684  1.0930 -4.3391  0.3189
  104SAPE  C21310617   6.630   1.868   3.842 -0.3896  0.2748  0.1188
  104SAPE  H13R10618   6.540   1.888   3.905  1.0936  0.0781  2.4271
  104SAPE  H13S10619   6.691   1.961   3.837 -0.7981  0.7308  2.3523
  104SAPE  C21410620   6.714   1.759   3.899  0.3194 -0.0387  0.2595
  104SAPE  H14R10621   6.784   1.705   3.834  1.1924 -1.1622  2.0638
  104SAPE  C21510622   6.710   1.732   4.037 -0.1479  0.5833  0.9836
  104SAPE  H15R10623   6.763   1.642   4.071 -0.5312 -0.1605 -0.3257
  104SAPE  C21610624   6.627   1.790   4.151  0.1020  0.3321  0.3403
  104SAPE  H16R10625   6.572   1.703   4.192 -1.5021  1.1898  0.0651
  104SAPE  H16S10626   6.543   1.853   4.117 -0.0962 -1.0426 -1.8726
  104SAPE  C21710627   6.715   1.854   4.257  0.3398 -0.0939  0.3355
  104SAPE  H17R10628   6.808   1.795   4.271  1.5660  1.5547 -0.5520
  104SAPE  H17S10629   6.655   1.855   4.351  0.6979 -1.2007  0.5903
  104SAPE  C21810630   6.745   2.003   4.231  0.0522 -0.1066  0.3614
  104SAPE  H18R10631   6.676   2.050   4.157  3.3711  0.4064 -2.6568
  104SAPE  H18S10632   6.842   2.005   4.178 -0.6178 -2.5105 -1.1240
  104SAPE  C21910633   6.750   2.078   4.358 -0.3762  0.0875  0.0001
  104SAPE  H19R10634   6.840   2.029   4.401  0.1329 -1.0439 -2.2234
  104SAPE  H19S10635   6.661   2.077   4.425  0.9106  2.2519  1.8934
  104SAPE  C22010636   6.776   2.226   4.334 -0.4190  0.0385  0.0864
  104SAPE  H20R10637   6.805   2.285   4.424 -1.0164  2.0057 -0.9489
  104SAPE  H20S10638   6.690   2.285   4.296 -0.4840  1.1150  1.7811
  104SAPE  H20T10639   6.849   2.244   4.252  0.4879  4.0344  1.5404
  104SAPE   C3310640   5.874   1.728   3.119  0.4713  0.0372  0.0022
  104SAPE   H3X10641   5.779   1.690   3.076  0.7148 -0.9745  0.3328
  104SAPE   H3Y10642   5.882   1.839   3.118 -0.4504  0.1721 -3.3140
  104SAPE   C3410643   5.831   1.699   3.269 -0.4659 -0.2073 -0.0999
  104SAPE   H4X10644   5.747   1.768   3.294  0.7094  1.1047  0.3548
  104SAPE   H4Y10645   5.906   1.742   3.338  0.8405  1.2055 -2.2685
  104SAPE   C3510646   5.791   1.558   3.314 -0.4931 -0.3835  0.4047
  104SAPE   H5X10647   5.845   1.490   3.245 -0.0188  0.7613 -0.3768
  104SAPE   H5Y10648   5.684   1.533   3.301 -0.3021 -0.6275 -0.7989
  104SAPE   C3610649   5.824   1.518   3.457 -0.1609 -0.5357  0.4644
  104SAPE   H6X10650   5.807   1.611   3.515  0.7339  0.8993 -1.4755
  104SAPE   H6Y10651   5.928   1.479   3.460 -0.7111 -2.0536  0.6229
  104SAPE   C3710652   5.722   1.423   3.518 -0.1953 -0.5758  0.0867
  104SAPE   H7X10653   5.735   1.327   3.464 -1.1239 -0.0549 -1.0952
  104SAPE   H7Y10654   5.619   1.453   3.490 -0.7352 -1.4257  1.0822
  104SAPE   C3810655   5.728   1.413   3.672  0.4666  0.0415  0.4355
  104SAPE   H8X10656   5.692   1.497   3.734 -2.5768 -1.5475  1.0157
  104SAPE   H8Y10657   5.828   1.377   3.705 -0.1413 -1.3485  0.8673
  104SAPE   C3910658   5.635   1.305   3.736  0.4314  0.1355 -0.1455
  104SAPE   H9X10659   5.635   1.214   3.673 -1.7424  0.7207 -1.1008
  104SAPE   H9Y10660   5.529   1.339   3.741  0.0938 -1.0325  1.3093
  104SAPE  C31010661   5.683   1.272   3.883  0.5019 -0.1776  0.0907
  104SAPE  H10X10662   5.638   1.352   3.946 -1.3175 -1.9295  1.1224
  104SAPE  H10Y10663   5.793   1.278   3.898  0.6078  1.3629 -1.0655
  104SAPE  C31110664   5.635   1.129   3.917  0.8730  0.2557 -0.7992
  104SAPE  H11X10665   5.698   1.053   3.866  1.1604  0.8995 -1.4080
  104SAPE  H11Y10666   5.534   1.107   3.877  0.3063 -1.6687  1.4665
  104SAPE  C31210667   5.628   1.105   4.067 -0.2126  0.1858 -0.9853
  104SAPE  H12X10668   5.565   1.181   4.118 -0.4455  0.0820 -1.1150
  104SAPE  H12Y10669   5.727   1.110   4.115 -0.9429 -2.3906  1.0275
  104SAPE  C31310670   5.563   0.973   4.098  0.9236 -0.7274 -0.0024
  104SAPE  H13X10671   5.635   0.895   4.063 -0.3696 -1.6825 -0.6280
  104SAPE  H13Y10672   5.466   0.988   4.046  1.6179  0.2958 -1.0282
  104SAPE  C31410673   5.539   0.949   4.248 -0.2054 -0.4684  0.4149
  104SAPE  H14X10674   5.469   1.021   4.296  1.0515 -1.2438  3.6628
  104SAPE  H14Y10675   5.633   0.961   4.307 -1.0643  1.4620  1.4883
  104SAPE  C31510676   5.490   0.815   4.285  0.0769  0.2024 -0.9295
  104SAPE  H15X10677   5.560   0.736   4.252 -0.4865 -0.9176  0.4657
  104SAPE  H15Y10678   5.393   0.799   4.232 -0.7221 -3.0655  1.2516
  104SAPE  C31610679   5.449   0.812   4.436 -0.9926 -0.4867 -0.4456
  104SAPE  H16X10680   5.364   0.743   4.452  0.3033 -2.6075 -2.1805
  104SAPE  H16Y10681   5.418   0.907   4.484  1.2098 -1.7122  3.9603
  104SAPE  C31710682   5.567   0.762   4.525  0.6239  0.1725 -0.3529
  104SAPE  H17X10683   5.643   0.842   4.522  2.4130 -1.4393  0.3357
  104SAPE  H17Y10684   5.621   0.675   4.481 -0.6909  0.4591 -2.7259
  104SAPE  C31810685   5.530   0.725   4.665  0.5228 -0.2027  0.2826
  104SAPE  H18X10686   5.494   0.807   4.730 -2.2974  0.1815 -1.5479
  104SAPE  H18Y10687   5.613   0.669   4.712  2.1305  0.7395 -1.2975
  104SAPE  H18Z10688   5.437   0.664   4.664  2.2524 -3.0196 -1.2218
  105SAPE     N10689   4.368   4.383   2.177 -0.1501  0.3809  0.2945
  105SAPE   HN110690   4.305   4.369   2.258  0.7229 -0.7073  0.8037
  105SAPE   HN210691   4.466   4.366   2.205 -0.2150  1.2916  1.1233
  105SAPE   HN310692   4.380   4.485   2.158  2.0828  0.1884  0.4056
  105SAPE   C1210693   4.333   4.310   2.055  0.5629 -0.3003  0.8672
  105SAPE  H12A10694   4.312   4.203   2.075 -1.8675 -0.2415 -0.9306
  105SAPE  H12B10695   4.426   4.326   1.995  0.2072  0.0222  0.3923
  105SAPE   C1110696   4.218   4.373   1.972  0.6315 -1.1172 -0.0064
  105SAPE  H11A10697   4.195   4.301   1.891  4.4360 -1.0490 -1.3259
  105SAPE  H11B10698   4.256   4.465   1.923 -1.0104  0.6470  1.8159
  105SAPE     P10699   3.973   4.467   1.976  0.2724 -0.1362 -0.1861
  105SAPE   O1310700   4.001   4.514   1.839  0.1698  0.4138  0.1309
  105SAPE   O1410701   3.865   4.366   1.994  0.2642 -0.1716  0.3059
  105SAPE   O1210702   4.101   4.404   2.053  0.2037  0.0872 -0.3355
  105SAPE   O1110703   3.948   4.595   2.061  0.0316 -0.1623 -0.0485
  105SAPE    C110704   4.052   4.676   2.122  0.3383  0.4634 -0.4203
  105SAPE    HA10705   4.154   4.644   2.091  0.6231  0.3607  0.5654
  105SAPE    HB10706   4.050   4.784   2.097  0.9396  0.7002  0.5101
  105SAPE    C210707   4.052   4.661   2.281  0.1907 -0.1251 -0.5580
  105SAPE    HS10708   4.110   4.569   2.303  0.0845  0.4277  2.4060
  105SAPE   O2110709   3.917   4.655   2.329  0.2497 -0.1451 -0.5361
  105SAPE   C2110710   3.885   4.565   2.420 -0.5222 -0.0628 -0.1655
  105SAPE   O2210711   3.966   4.492   2.477  0.1200  0.2977  0.1620
  105SAPE   C2210712   3.730   4.545   2.437 -0.1471  0.1320 -0.5681
  105SAPE   H2R10713   3.667   4.550   2.346 -2.0542 -2.3011  0.5004
  105SAPE   H2S10714   3.704   4.440   2.460 -0.3313  0.6398  1.8873
  105SAPE    C310715   4.137   4.770   2.355  0.5199 -0.0404  0.4002
  105SAPE    HX10716   4.083   4.865   2.332  0.9814  0.3036  0.7271
  105SAPE    HY10717   4.234   4.785   2.304 -0.7757  1.4172 -1.8493
  105SAPE   O3110718   4.146   4.753   2.499 -0.2658 -0.5369 -0.8073
  105SAPE   C3110719   4.245   4.686   2.543 -0.0595  0.2344  0.0816
  105SAPE   O3210720   4.331   4.632   2.474  0.1632 -0.9433 -0.1694
  105SAPE   C3210721   4.250   4.700   2.690 -0.3395  0.6753  0.1406
  105SAPE   H2X10722   4.162   4.644   2.729 -3.0561  2.3857 -2.9878
  105SAPE   H2Y10723   4.235   4.808   2.713 -1.4818  0.7343 -0.7714
  105SAPE   C2310724   3.664   4.631   2.548 -0.1372 -0.6630 -0.0247
  105SAPE   H3R10725   3.722   4.609   2.640  1.7835  0.2605 -0.9461
  105SAPE   H3S10726   3.561   4.591   2.554 -1.0887  1.7150  0.8708
  105SAPE   C2410727   3.646   4.781   2.516 -0.1966 -0.7556 -0.0208
  105SAPE   H4R10728   3.577   4.820   2.594  0.4061 -0.7902  0.5385
  105SAPE   H4S10729   3.596   4.781   2.416 -2.0222  0.3316  0.8465
  105SAPE   C2510730   3.778   4.856   2.504 -0.9119 -0.1770 -0.1436
  105SAPE   H5R10731   3.812   4.857   2.400 -2.3704 -0.3415 -0.6434
  105SAPE   C2610732   3.855   4.909   2.603 -0.1138  0.3105 -0.2635
  105SAPE   H6R10733   3.952   4.954   2.581 -1.2061  1.4403 -3.2080
  105SAPE   C2710734   3.818   4.906   2.749 -0.2122  0.2356 -0.4394
  105SAPE   H7R10735   3.719   4.864   2.777  0.7001 -1.9506 -0.2649
  105SAPE   H7S10736   3.819   5.005   2.799 -2.1754 -0.4248  1.0669
  105SAPE   C2810737   3.913   4.829   2.839 -0.2343  1.2639  0.3730
  105SAPE   H8R10738   3.979   4.759   2.786 -0.0191  0.6042  1.4863
  105SAPE   C2910739   3.916   4.822   2.969 -0.3356  0.3450 -0.1864
  105SAPE   H9R10740   3.989   4.754   3.016 -0.5734 -0.0765 -0.4195
  105SAPE  C21010741   3.841   4.899   3.074 -0.2894  0.0138 -0.2243
  105SAPE  H10R10742   3.761   4.841   3.126 -2.4187  0.4916 -2.7495
  105SAPE  H10S10743   3.790   4.982   3.020 -1.7157  0.4866  1.7216
  105SAPE  C21110744   3.928   4.986   3.160 -0.1894  0.2716  0.1118
  105SAPE  H11R10745   4.031   5.003   3.127 -0.3469  2.2962  0.4954
  105SAPE  C21210746   3.896   5.037   3.276  0.3047 -0.3553  0.6201
  105SAPE  H12R10747   3.973   5.105   3.316  1.1906 -0.2824 -1.1551
  105SAPE  C21310748   3.768   5.025   3.352 -0.3061 -0.1251  0.1249
  105SAPE  H13R10749   3.793   4.974   3.447  1.0758 -1.9138 -1.1332
  105SAPE  H13S10750   3.701   4.949   3.307 -0.2106  0.3530 -0.8550
  105SAPE  C21410751   3.686   5.154   3.345 -0.6487 -0.8975 -0.5423
  105SAPE  H14R10752   3.686   5.198   3.244  0.3935  1.0223  0.2286
  105SAPE  C21510753   3.644   5.228   3.449 -0.2151 -0.0324 -0.1887
  105SAPE  H15R10754   3.595   5.323   3.423  0.0431 -0.3682 -1.9743
  105SAPE  C21610755   3.662   5.194   3.593  0.3143 -0.0648 -0.4728
  105SAPE  H16R10756   3.739   5.249   3.652 -1.4289 -0.2865  2.2117
  105SAPE  H16S10757   3.698   5.089   3.605  0.4419  0.1533  1.5063
  105SAPE  C21710758   3.539   5.216   3.679 -0.0423 -0.9072  0.2795
  105SAPE  H17R10759   3.564   5.176   3.780  0.8916 -1.4634 -0.1557
  105SAPE  H17S10760   3.446   5.169   3.641  0.5795 -1.4748 -0.5785
  105SAPE  C21810761   3.509   5.361   3.713 -0.4708  0.6279  0.6060
  105SAPE  H18R10762   3.494   5.419   3.620  1.5806 -0.7596 -0.6784
  105SAPE  H18S10763   3.597   5.405   3.764 -0.6811  0.0365  1.5026
  105SAPE  C21910764   3.415   5.387   3.824  0.5498 -1.0201  0.1792
  105SAPE  H19R10765   3.445   5.338   3.919 -1.0147 -0.0302  1.2323
  105SAPE  H19S10766   3.322   5.337   3.787 -0.3716  0.0809  0.9275
  105SAPE  C22010767   3.398   5.541   3.839 -0.4060  0.4403  0.6838
  105SAPE  H20R10768   3.375   5.578   3.737 -1.3515 -0.4407  0.5733
  105SAPE  H20S10769   3.497   5.585   3.867  0.5001 -0.9269 -0.2548
  105SAPE  H20T10770   3.316   5.572   3.907 -0.6427  1.2104  0.0676
  105SAPE   C3310771   4.371   4.642   2.763 -0.3419 -0.5976  0.2499
  105SAPE   H3X10772   4.460   4.699   2.729 -1.2497 -0.4121 -2.0019
  105SAPE   H3Y10773   4.383   4.537   2.729  0.1804 -0.2184 -0.7766
  105SAPE   C3410774   4.354   4.653   2.920 -0.2200  0.7799  0.0264
  105SAPE   H4X10775   4.452   4.617   2.958  1.0684  2.0286 -1.9329
  105SAPE   H4Y10776   4.277   4.590   2.969 -0.7618  0.1264 -1.5843
  105SAPE   C3510777   4.331   4.798   2.967  0.4436 -0.7647  0.0212
  105SAPE   H5X10778   4.244   4.852   2.924  1.6910  1.3160 -0.0573
  105SAPE   H5Y10779   4.408   4.852   2.908 -0.3000 -1.3860 -1.5743
  105SAPE   C3610780   4.337   4.819   3.120 -0.7621 -0.1404 -0.3230
  105SAPE   H6X10781   4.344   4.926   3.147 -0.5607 -0.0505 -0.7263
  105SAPE   H6Y10782   4.439   4.778   3.141  0.4218  2.0299 -1.5545
  105SAPE   C3710783   4.231   4.762   3.212 -0.3247 -0.9682  0.2038
  105SAPE   H7X10784   4.212   4.656   3.184  1.2028 -0.8755 -1.3817
  105SAPE   H7Y10785   4.140   4.818   3.182  0.4244 -0.0493 -0.3967
  105SAPE   C3810786   4.267   4.784   3.356  0.5902  0.0738 -0.3061
  105SAPE   H8X10787   4.273   4.893   3.377  0.3558 -0.3269  2.0904
  105SAPE   H8Y10788   4.363   4.738   3.388 -0.0457 -1.1670 -0.1481
  105SAPE   C3910789   4.155   4.742   3.447  0.2010  0.2743  0.7517
  105SAPE   H9X10790   4.137   4.635   3.423 -1.0963  1.1004 -2.5069
  105SAPE   H9Y10791   4.061   4.796   3.423 -0.6991 -0.8040  1.7234
  105SAPE  C31010792   4.185   4.753   3.591  0.6174 -0.4516 -0.0832
  105SAPE  H10X10793   4.097   4.722   3.652  0.7690  0.9736  0.9142
  105SAPE  H10Y10794   4.201   4.861   3.612 -2.6818  0.7002 -2.5660
  105SAPE  C31110795   4.301   4.668   3.638  0.7306 -0.1186 -0.1910
  105SAPE  H11X10796   4.399   4.704   3.602 -0.0712  1.8715 -0.5088
  105SAPE  H11Y10797   4.291   4.570   3.588  0.5371 -0.0710 -0.2474
  105SAPE  C31210798   4.312   4.655   3.796  0.4534 -0.2355  0.4945
  105SAPE  H12X10799   4.260   4.563   3.832 -2.0771 -0.1180 -2.4268
  105SAPE  H12Y10800   4.253   4.742   3.832 -0.3319 -1.0450  1.2429
  105SAPE  C31310801   4.458   4.662   3.848  0.8620 -0.1250 -0.4704
  105SAPE  H13X10802   4.495   4.767   3.855  0.9266 -0.2470  1.5731
  105SAPE  H13Y10803   4.531   4.607   3.785  0.2326 -0.2028 -1.1481
  105SAPE  C31410804   4.459   4.603   3.992  0.1554 -0.0676 -0.0589
  105SAPE  H14X10805   4.376   4.656   4.044  0.7260  1.7527 -0.9076
  105SAPE  H14Y10806   4.551   4.635   4.044 -1.2997  0.7360  2.1724
  105SAPE  C31510807   4.427   4.447   3.994  0.6871 -0.1491 -0.1978
  105SAPE  H15X10808   4.496   4.392   3.926 -0.8808 -0.0031 -1.9968
  105SAPE  H15Y10809   4.330   4.413   3.952 -0.0072  1.9233 -0.3518
  105SAPE  C31610810   4.443   4.389   4.132  0.1904 -0.1040  0.1376
  105SAPE  H16X10811   4.384   4.450   4.204  0.5743 -1.0917  1.3335
  105SAPE  H16Y10812   4.549   4.395   4.165  1.0715  1.8405 -2.6889
  105SAPE  C31710813   4.396   4.244   4.154  0.0211 -0.3459  0.3767
  105SAPE  H17X10814   4.446   4.176   4.082 -0.3215 -1.8657  1.5181
  105SAPE  H17Y10815   4.289   4.245   4.125  0.1637 -1.9722 -0.3421
  105SAPE  C31810816   4.411   4.191   4.299 -0.4774  0.3737 -0.1519
  105SAPE  H18X10817   4.364   4.090   4.306 -1.3220  0.6385 -1.4641
  105SAPE  H18Y10818   4.348   4.259   4.361 -0.4842 -0.8777  1.2704
  105SAPE  H18Z10819   4.517   4.185   4.329  0.1565  0.9610 -2.1297
  106SAPE     N10820   3.503   0.905   2.241  0.2301  0.3754 -0.5075
  106SAPE   HN110821   3.442   0.959   2.177  0.0187  0.6600 -0.0746
  106SAPE   HN210822   3.579   0.970   2.270  0.5472 -0.0525 -0.3701
  106SAPE   HN310823   3.554   0.841   2.177 -0.3650  0.2231 -0.8356
  106SAPE   C1210824   3.439   0.830   2.354 -0.5085 -0.9552 -0.2431
  106SAPE  H12A10825   3.372   0.750   2.316 -2.2237 -0.1348  0.9160
  106SAPE  H12B10826   3.376   0.905   2.406 -1.6802 -0.7449 -1.8967
  106SAPE   C1110827   3.540   0.767   2.443 -0.0652  0.1428 -0.5227
  106SAPE  H11A10828   3.494   0.719   2.532  1.8901 -0.7944  0.0342
  106SAPE  H11B10829   3.612   0.840   2.487 -0.0070 -0.1989 -0.0402
  106SAPE     P10830   3.574   0.513   2.381  0.0854 -0.3474 -0.4944
  106SAPE   O1310831   3.485   0.494   2.500 -0.5461  0.2415 -0.2907
  106SAPE   O1410832   3.510   0.477   2.249  0.6904 -0.1985  0.1886
  106SAPE   O1210833   3.611   0.666   2.369 -0.0358  0.5626 -0.2437
  106SAPE   O1110834   3.714   0.436   2.405  0.1869 -0.1674 -0.4750
  106SAPE    C110835   3.835   0.504   2.398  0.5161  0.1414 -0.4110
  106SAPE    HA10836   3.909   0.456   2.331 -0.0087 -1.0811 -0.1292
  106SAPE    HB10837   3.825   0.610   2.366 -1.8775  0.2484  0.4804
  106SAPE    C210838   3.891   0.516   2.546  0.2480 -0.3803  0.2506
  106SAPE    HS10839   3.996   0.552   2.546 -1.0990  4.2374  1.7107
  106SAPE   O2110840   3.883   0.389   2.615  0.0988 -0.1833 -0.2156
  106SAPE   C2110841   3.974   0.303   2.581 -0.5232 -0.2097  0.1707
  106SAPE   O2210842   4.061   0.318   2.498  0.3264 -0.1683  0.6945
  106SAPE   C2210843   3.938   0.164   2.638  0.6839  0.3799 -0.4712
  106SAPE   H2R10844   3.933   0.167   2.749  0.4685  2.2569 -0.4980
  106SAPE   H2S10845   3.837   0.145   2.595  0.6815  3.3233 -2.0293
  106SAPE    C310846   3.793   0.603   2.631  0.2824  0.3528  0.0293
  106SAPE    HX10847   3.694   0.554   2.619  0.3296  0.6150 -1.8628
  106SAPE    HY10848   3.780   0.699   2.577 -2.3409 -1.0306 -2.0327
  106SAPE   O3110849   3.843   0.630   2.761 -0.1257  0.3398 -0.4079
  106SAPE   C3110850   3.781   0.573   2.868 -0.5362 -0.0281 -0.8704
  106SAPE   O3210851   3.683   0.499   2.860 -0.0715  0.0145 -0.4509
  106SAPE   C3210852   3.850   0.619   3.007 -0.2985 -0.1864  0.6681
  106SAPE   H2X10853   3.899   0.718   3.002 -1.4959  0.3646 -1.4963
  106SAPE   H2Y10854   3.939   0.553   3.016 -0.2298 -0.4990 -1.7990
  106SAPE   C2310855   4.024   0.042   2.594 -0.3393 -0.9761 -0.5322
  106SAPE   H3R10856   4.037   0.052   2.485 -1.3892  0.9023 -0.5227
  106SAPE   H3S10857   3.957  -0.046   2.608  0.2590 -1.3719 -0.1222
  106SAPE   C2410858   4.140   0.016   2.690  0.0242 -0.0496  0.3672
  106SAPE   H4R10859   4.194  -0.076   2.659 -1.8468 -1.4629  1.1043
  106SAPE   H4S10860   4.090   0.007   2.789 -2.3996  0.5736 -0.7225
  106SAPE   C2510861   4.237   0.135   2.694  0.1393  0.0244 -0.1510
  106SAPE   H5R10862   4.264   0.166   2.592  0.6246  0.1147  0.0002
  106SAPE   C2610863   4.273   0.195   2.809 -0.0418  0.3852 -0.5640
  106SAPE   H6R10864   4.359   0.263   2.801 -0.2096  0.4706 -1.7977
  106SAPE   C2710865   4.232   0.151   2.947 -0.8642 -0.4150 -0.2434
  106SAPE   H7R10866   4.315   0.164   3.020 -1.6776  0.8785  0.4918
  106SAPE   H7S10867   4.223   0.040   2.951  0.8642 -0.5576  1.9926
  106SAPE   C2810868   4.114   0.228   3.000  0.3007  0.1202  0.1491
  106SAPE   H8R10869   4.057   0.289   2.929 -0.0374 -2.3120 -1.8358
  106SAPE   C2910870   4.088   0.227   3.133  0.6774 -0.4443 -0.1551
  106SAPE   H9R10871   4.006   0.287   3.176 -0.8823 -2.5237 -0.0741
  106SAPE  C21010872   4.157   0.151   3.240 -0.2156 -0.5557 -0.2336
  106SAPE  H10R10873   4.197   0.051   3.213  0.2371 -0.7087  0.9638
  106SAPE  H10S10874   4.096   0.132   3.330  0.5162  0.6960  0.5594
  106SAPE  C21110875   4.274   0.227   3.293 -0.4773 -0.0816 -0.2289
  106SAPE  H11R10876   4.338   0.269   3.215 -0.5386 -2.5040 -1.6817
  106SAPE  C21210877   4.305   0.273   3.421  0.4036 -0.6476  0.3509
  106SAPE  H12R10878   4.400   0.325   3.434  0.1790  0.3408 -1.6866
  106SAPE  C21310879   4.232   0.247   3.551 -0.4363  0.0673 -0.5910
  106SAPE  H13R10880   4.151   0.174   3.532 -0.8708  0.0769  1.0407
  106SAPE  H13S10881   4.191   0.339   3.598 -1.0495  0.0660 -1.1294
  106SAPE  C21410882   4.331   0.186   3.649  0.0852 -0.9506 -0.3509
  106SAPE  H14R10883   4.437   0.187   3.619  0.0352  1.5022 -0.6832
  106SAPE  C21510884   4.297   0.134   3.773 -0.2709 -0.5512 -0.2064
  106SAPE  H15R10885   4.380   0.114   3.844 -1.7543 -1.5913  1.3029
  106SAPE  C21610886   4.162   0.116   3.835  0.4243  0.0571  0.6517
  106SAPE  H16R10887   4.135   0.010   3.821 -0.8624  0.4666 -0.1125
  106SAPE  H16S10888   4.083   0.174   3.783 -0.8953 -1.7516  0.5802
  106SAPE  C21710889   4.170   0.169   3.977  0.5041  0.6044 -0.8507
  106SAPE  H17R10890   4.065   0.177   4.013  0.3433 -1.3248 -0.7774
  106SAPE  H17S10891   4.214   0.270   3.987 -0.7593  1.4767 -3.2348
  106SAPE  C21810892   4.246   0.075   4.086 -0.1476 -0.6395  0.0846
  106SAPE  H18R10893   4.337   0.037   4.034  0.8309 -1.1520  2.0725
  106SAPE  H18S10894   4.175  -0.007   4.109 -0.3643 -0.2836  0.6907
  106SAPE  C21910895   4.285   0.162   4.208  0.6473  0.8844  0.9903
  106SAPE  H19R10896   4.355   0.245   4.182 -1.0361  1.5791 -1.7071
  106SAPE  H19S10897   4.323   0.086   4.279 -1.6968 -1.6855 -0.3304
  106SAPE  C22010898   4.161   0.221   4.279 -0.0684 -0.3280 -0.2391
  106SAPE  H20R10899   4.121   0.304   4.216 -0.1339  0.5546  0.9174
  106SAPE  H20S10900   4.176   0.260   4.382 -2.3631 -0.6324  0.2600
  106SAPE  H20T10901   4.080   0.148   4.297 -0.6395  0.6410  1.3279
  106SAPE   C3310902   3.756   0.614   3.133  0.8850  0.2237 -0.4596
  106SAPE   H3X10903   3.653   0.619   3.094  0.7832 -2.4061 -0.7375
  106SAPE   H3Y10904   3.780   0.704   3.193 -0.2147 -0.0821  0.4643
  106SAPE   C3410905   3.771   0.488   3.213  0.0284  0.6787  0.5523
  106SAPE   H4X10906   3.806   0.402   3.151  0.1839  0.6742  0.6466
  106SAPE   H4Y10907   3.673   0.463   3.259 -0.0985 -0.2205 -0.1625
  106SAPE   C3510908   3.851   0.517   3.333 -0.3334 -0.2206 -1.2883
  106SAPE   H5X10909   3.828   0.621   3.365  4.4104  0.2880  1.3062
  106SAPE   H5Y10910   3.956   0.503   3.302  0.0285 -0.2021 -0.1110
  106SAPE   C3610911   3.821   0.426   3.453 -0.9603 -0.4177  0.1428
  106SAPE   H6X10912   3.860   0.323   3.441  3.0884  0.9918 -0.7170
  106SAPE   H6Y10913   3.714   0.424   3.480 -1.7882  0.9339 -2.6336
  106SAPE   C3710914   3.907   0.478   3.574  0.2324  0.2935 -0.2369
  106SAPE   H7X10915   3.892   0.588   3.583 -0.9107  0.1609 -0.3607
  106SAPE   H7Y10916   4.015   0.471   3.548  0.3272 -0.0891  0.2481
  106SAPE   C3810917   3.872   0.400   3.696  0.0975 -0.1159 -0.6591
  106SAPE   H8X10918   3.898   0.293   3.683  1.8914  0.4398 -2.0801
  106SAPE   H8Y10919   3.763   0.405   3.716  0.1075 -1.9729  0.0046
  106SAPE   C3910920   3.934   0.440   3.830 -0.1387  0.1375  0.1826
  106SAPE   H9X10921   4.039   0.461   3.801 -0.5744  0.4052 -1.3400
  106SAPE   H9Y10922   3.945   0.359   3.904  1.0862 -0.7187 -0.8987
  106SAPE  C31010923   3.871   0.568   3.887  0.3485 -0.2484  0.2310
  106SAPE  H10X10924   3.762   0.549   3.898  0.6731 -2.5954 -0.2373
  106SAPE  H10Y10925   3.877   0.644   3.806 -0.0796  0.6626  1.0390
  106SAPE  C31110926   3.920   0.623   4.023  0.7981 -0.4199  0.2550
  106SAPE  H11X10927   3.897   0.731   4.027  1.4931 -0.2840  1.1790
  106SAPE  H11Y10928   4.030   0.606   4.018  0.6003 -1.8786  0.2023
  106SAPE  C31210929   3.855   0.540   4.133 -0.5387 -0.7638 -0.1865
  106SAPE  H12X10930   3.879   0.433   4.115  0.3297 -0.5453 -0.3847
  106SAPE  H12Y10931   3.745   0.556   4.136 -0.2010  2.5611 -1.1972
  106SAPE  C31310932   3.927   0.591   4.263 -0.1509  0.4036 -0.3532
  106SAPE  H13X10933   4.038   0.593   4.254 -0.2961 -0.3791 -3.5914
  106SAPE  H13Y10934   3.905   0.521   4.346  0.8547 -1.2668 -1.4465
  106SAPE  C31410935   3.889   0.733   4.319 -0.1408 -0.3159  0.0481
  106SAPE  H14X10936   3.781   0.758   4.304  0.5741  1.3723 -3.1677
  106SAPE  H14Y10937   3.946   0.803   4.254 -1.5570  0.6421 -0.2327
  106SAPE  C31510938   3.927   0.757   4.471  0.0300 -0.0277 -0.1575
  106SAPE  H15X10939   4.036   0.774   4.477 -0.0865  0.7095 -0.0994
  106SAPE  H15Y10940   3.888   0.666   4.521 -0.6449 -0.7628 -1.9222
  106SAPE  C31610941   3.853   0.870   4.531  0.7712 -0.8381 -0.5228
  106SAPE  H16X10942   3.743   0.856   4.521  0.7545 -1.1909  0.1288
  106SAPE  H16Y10943   3.887   0.958   4.473 -1.2656  0.3783  0.0064
  106SAPE  C31710944   3.895   0.905   4.672 -0.1909 -0.3994 -0.8426
  106SAPE  H17X10945   4.006   0.911   4.675 -0.1980  0.5697 -1.9693
  106SAPE  H17Y10946   3.886   0.820   4.744  0.1912  1.8551  2.0214
  106SAPE  C31810947   3.832   1.031   4.711  0.1996 -0.1824 -0.0996
  106SAPE  H18X10948   3.724   1.031   4.739 -0.1004 -0.1130 -1.2366
  106SAPE  H18Y10949   3.837   1.100   4.624 -0.9500  0.1855  0.1100
  106SAPE  H18Z10950   3.887   1.077   4.797  1.9907  0.1893 -1.3820
  107SAPE     N10951   0.260   5.905   2.116 -0.3277  0.2391  0.1304
  107SAPE   HN110952   0.203   5.831   2.069  1.1027 -0.2774 -0.9026
  107SAPE   HN210953   0.254   5.988   2.053 -1.3923 -2.1546 -3.2363
  107SAPE   HN310954   0.355   5.862   2.109 -0.9914 -1.0728 -2.5551
  107SAPE   C1210955   0.218   5.926   2.260  1.1839  0.6079 -0.0295
  107SAPE  H12A10956   0.108   5.930   2.243  1.1825 -1.0277 -0.5899
  107SAPE  H12B10957   0.263   6.017   2.303 -1.5979  1.0786  2.2320
  107SAPE   C1110958   0.252   5.796   2.352 -0.0588 -0.1956  0.3621
  107SAPE  H11A10959   0.195   5.809   2.447 -2.8541 -1.8703 -0.9926
  107SAPE  H11B10960   0.360   5.801   2.380  0.2298 -1.4100 -0.4896
  107SAPE     P10961   0.083   5.600   2.315  0.2427 -0.1993  0.0628
  107SAPE   O1310962  -0.018   5.666   2.228  0.0461 -0.7969 -0.5120
  107SAPE   O1410963   0.103   5.462   2.296 -0.7678  1.0394 -0.1850
  107SAPE   O1210964   0.221   5.672   2.294  0.2177 -0.1621  0.3388
  107SAPE   O1110965   0.050   5.627   2.462 -0.3600  0.5729 -0.0510
  107SAPE    C110966   0.098   5.560   2.579  0.3773  0.5333 -0.3292
  107SAPE    HA10967   0.038   5.471   2.608 -0.5282  1.5096  0.8592
  107SAPE    HB10968   0.202   5.523   2.563 -0.7082 -2.1048 -1.9525
  107SAPE    C210969   0.101   5.648   2.706 -0.0826 -0.5630  0.0806
  107SAPE    HS10970  -0.003   5.650   2.746 -0.2098  0.0792 -0.2833
  107SAPE   O2110971   0.150   5.790   2.679  1.0012  0.5727  0.0452
  107SAPE   C2110972   0.050   5.875   2.642 -0.3527  0.0317  0.0276
  107SAPE   O2210973  -0.068   5.855   2.642  0.6828 -0.4638 -0.2670
  107SAPE   C2210974   0.122   6.011   2.614  0.7427  0.2128 -0.2278
  107SAPE   H2R10975   0.222   5.988   2.571  1.7290  0.9426  1.5673
  107SAPE   H2S10976   0.061   6.068   2.541  0.8265 -0.6952 -1.0240
  107SAPE    C310977   0.183   5.589   2.824 -0.1581 -0.4142  0.1729
  107SAPE    HX10978   0.160   5.653   2.912  1.5257 -0.2529  0.5290
  107SAPE    HY10979   0.290   5.599   2.799  0.0053  0.1887  1.0648
  107SAPE   O3110980   0.149   5.450   2.843  0.0048 -0.3856  0.7173
  107SAPE   C3110981   0.192   5.411   2.962  0.0960  0.4924 -0.5033
  107SAPE   O3210982   0.230   5.480   3.054  0.2192 -0.2217  0.1874
  107SAPE   C3210983   0.185   5.256   2.970 -0.0101 -0.4983  0.1655
  107SAPE   H2X10984   0.259   5.209   2.902  0.7074  1.0839 -0.1905
  107SAPE   H2Y10985   0.085   5.220   2.937 -0.1987 -0.9173  1.1525
  107SAPE   C2310986   0.126   6.091   2.742 -0.2151 -0.1413 -0.3569
  107SAPE   H3R10987   0.210   6.158   2.712 -0.9307 -0.0789 -2.3859
  107SAPE   H3S10988   0.163   6.036   2.831 -0.3245 -0.6529 -0.6215
  107SAPE   C2410989  -0.000   6.170   2.774  0.1446 -0.1101 -0.2645
  107SAPE   H4R10990  -0.088   6.103   2.780  1.6321 -2.1001  0.1343
  107SAPE   H4S10991  -0.030   6.235   2.689  0.3326 -0.8858 -0.9348
  107SAPE   C2510992   0.025   6.265   2.892  0.4715  1.5758  0.2248
  107SAPE   H5R10993   0.046   6.370   2.866  0.8254  1.6826  0.9123
  107SAPE   C2610994  -0.009   6.242   3.017  0.2833  0.8174 -0.1175
  107SAPE   H6R10995   0.020   6.320   3.088 -0.9105  1.6364 -0.5042
  107SAPE   C2710996  -0.072   6.117   3.076  0.2609  0.1562  0.2904
  107SAPE   H7R10997  -0.122   6.060   2.994 -1.3970 -0.4200  1.6398
  107SAPE   H7S10998  -0.163   6.149   3.132  1.0168 -1.7932  2.7943
  107SAPE   C2810999   0.029   6.034   3.147  0.2061 -0.0698 -1.0329
  107SAPE   H8R11000   0.102   5.976   3.088  0.5067 -0.1346 -0.6054
  107SAPE   C2911001   0.033   6.004   3.278 -0.2513  0.2917 -0.7658
  107SAPE   H9R11002   0.120   5.945   3.310  1.0079  1.9265 -1.0324
  107SAPE  C21011003  -0.065   6.039   3.390 -0.7505 -0.2745  0.3899
  107SAPE  H10R11004  -0.082   5.943   3.442 -0.5964 -0.6976 -0.3246
  107SAPE  H10S11005  -0.157   6.084   3.347 -0.4675  1.2161  1.2468
  107SAPE  C21111006   0.004   6.139   3.476 -0.6915 -0.0019  0.1550
  107SAPE  H11R11007   0.076   6.206   3.428 -0.9005 -0.6277 -1.0876
  107SAPE  C21211008  -0.007   6.159   3.610 -0.0160 -0.0123 -0.5062
  107SAPE  H12R11009   0.055   6.228   3.669 -0.1004  1.4390 -2.0431
  107SAPE  C21311010  -0.097   6.092   3.708  0.3994 -0.1033  0.5072
  107SAPE  H13R11011  -0.158   6.014   3.658  0.1286  0.4071  0.0348
  107SAPE  H13S11012  -0.171   6.166   3.746  1.6237  1.3354  0.1533
  107SAPE  C21411013  -0.014   6.027   3.817  0.5254 -0.1184  0.7764
  107SAPE  H14R11014   0.069   5.971   3.772  0.4286 -0.1210  0.6011
  107SAPE  C21511015  -0.009   6.041   3.947  0.2723  0.0720  0.4461
  107SAPE  H15R11016   0.053   5.984   4.018  0.2490  1.9778  2.0723
  107SAPE  C21611017  -0.108   6.130   4.024  0.3064  0.0062 -0.5770
  107SAPE  H16R11018  -0.206   6.078   4.012 -0.2294  0.4186  1.5074
  107SAPE  H16S11019  -0.122   6.232   3.982 -0.4333  1.2199  2.3493
  107SAPE  C21711020  -0.088   6.139   4.178 -0.8339  0.1900  0.5997
  107SAPE  H17R11021   0.015   6.169   4.205 -0.2327 -0.9878 -0.2864
  107SAPE  H17S11022  -0.103   6.044   4.234  0.4968 -0.8281 -0.6927
  107SAPE  C21811023  -0.191   6.232   4.239  0.1554  0.1614  0.3137
  107SAPE  H18R11024  -0.289   6.181   4.231  0.5207 -0.5802  0.3893
  107SAPE  H18S11025  -0.190   6.331   4.190 -0.3312  1.1899  2.2645
  107SAPE  C21911026  -0.149   6.284   4.380 -0.5065  0.0644  0.6787
  107SAPE  H19R11027  -0.219   6.359   4.420 -1.4163 -0.4929  0.1731
  107SAPE  H19S11028  -0.050   6.325   4.352 -1.3827  2.2687  0.6696
  107SAPE  C22011029  -0.139   6.174   4.482  0.1349  0.3643 -0.0145
  107SAPE  H20R11030  -0.232   6.117   4.462  1.1031 -0.9442 -0.9435
  107SAPE  H20S11031  -0.130   6.213   4.586  2.4524 -3.7219  1.5477
  107SAPE  H20T11032  -0.054   6.103   4.474 -0.7534 -0.5347 -2.5875
  107SAPE   C3311033   0.214   5.201   3.108  0.4789  0.0967  0.0991
  107SAPE   H3X11034   0.307   5.243   3.152  0.6789 -0.3106  0.0693
  107SAPE   H3Y11035   0.223   5.090   3.104 -1.0040 -0.0359 -0.0880
  107SAPE   C3411036   0.098   5.235   3.207 -0.1283 -0.4242  0.3220
  107SAPE   H4X11037   0.003   5.217   3.154  1.1041 -2.6355 -1.3094
  107SAPE   H4Y11038   0.093   5.344   3.229  0.2440 -0.2912 -0.2353
  107SAPE   C3511039   0.103   5.150   3.327 -0.0834  0.0267  0.2100
  107SAPE   H5X11040   0.177   5.199   3.395 -0.4392  0.3915  0.3403
  107SAPE   H5Y11041   0.127   5.045   3.304  1.2788  0.1989  0.7562
  107SAPE   C3611042  -0.029   5.156   3.407  0.0721 -0.1728 -0.9422
  107SAPE   H6X11043  -0.100   5.074   3.381 -4.2742  1.7639  3.3281
  107SAPE   H6Y11044  -0.083   5.247   3.375  0.9426  0.3601 -0.9038
  107SAPE   C3711045  -0.021   5.144   3.560  0.1770  0.3263  0.1316
  107SAPE   H7X11046  -0.123   5.166   3.597  0.3874 -1.2327  1.7731
  107SAPE   H7Y11047   0.052   5.224   3.584  0.3584  1.2412 -2.9684
  107SAPE   C3811048   0.036   5.014   3.621  0.0989  0.9696 -1.1399
  107SAPE   H8X11049   0.132   4.996   3.569  0.0908  2.1738 -1.5808
  107SAPE   H8Y11050  -0.034   4.934   3.589  1.3571 -0.9577  0.6310
  107SAPE   C3911051   0.046   5.025   3.775 -0.4660  0.0203 -0.6293
  107SAPE   H9X11052   0.074   4.924   3.812  0.5381  0.5154  0.0160
  107SAPE   H9Y11053  -0.053   5.033   3.826  0.4566 -2.1619  1.7592
  107SAPE  C31011054   0.148   5.131   3.818 -0.1703  0.2358 -0.4422
  107SAPE  H10X11055   0.106   5.231   3.794 -0.9000 -0.0020 -0.1964
  107SAPE  H10Y11056   0.247   5.122   3.768  0.6189  2.3677  0.5829
  107SAPE  C31111057   0.169   5.139   3.970 -0.1381  0.3309  0.0495
  107SAPE  H11X11058   0.075   5.171   4.021 -1.0861 -0.8004 -0.9213
  107SAPE  H11Y11059   0.240   5.222   3.991  1.9595 -1.1743 -0.7547
  107SAPE  C31211060   0.220   5.009   4.038  0.2536 -0.2170 -0.7488
  107SAPE  H12X11061   0.325   4.994   4.005  0.5686 -0.4431  0.3186
  107SAPE  H12Y11062   0.158   4.920   4.016  0.5159 -0.6942  0.3897
  107SAPE  C31311063   0.215   5.019   4.195  0.1759 -0.5455  0.0723
  107SAPE  H13X11064   0.111   5.027   4.234 -0.1863  0.6669 -1.1017
  107SAPE  H13Y11065   0.271   5.104   4.238  2.0528 -1.5524 -0.2812
  107SAPE  C31411066   0.265   4.891   4.261  0.5933 -0.2204  0.2249
  107SAPE  H14X11067   0.205   4.802   4.236 -2.4137  2.0969 -1.5571
  107SAPE  H14Y11068   0.250   4.915   4.369 -0.6457 -1.3045  0.3074
  107SAPE  C31511069   0.411   4.850   4.220  0.2800  0.1564 -0.2205
  107SAPE  H15X11070   0.466   4.946   4.233  2.2551 -0.9430 -0.0761
  107SAPE  H15Y11071   0.422   4.824   4.113  0.0963  0.6038 -0.3548
  107SAPE  C31611072   0.463   4.747   4.311  0.4015  0.2495 -0.7166
  107SAPE  H16X11073   0.419   4.648   4.286  0.9757 -0.0761 -0.4542
  107SAPE  H16Y11074   0.419   4.767   4.412 -0.5424 -1.4188 -0.7598
  107SAPE  C31711075   0.621   4.724   4.316  0.0190 -0.1042  0.2794
  107SAPE  H17X11076   0.643   4.628   4.366 -0.9352  0.2797  1.4918
  107SAPE  H17Y11077   0.652   4.812   4.377 -0.8940  0.7217 -0.4210
  107SAPE  C31811078   0.677   4.710   4.174 -0.1274  0.2455  0.8642
  107SAPE  H18X11079   0.655   4.801   4.114 -1.9161 -0.4475  0.3765
  107SAPE  H18Y11080   0.636   4.624   4.117  0.4587  1.6183 -1.7819
  107SAPE  H18Z11081   0.787   4.702   4.187 -0.0297  1.9335  1.2483
  108SAPE     N11082   0.539   6.857   1.844 -0.2868  0.1909  0.9882
  108SAPE   HN111083   0.637   6.829   1.822 -0.5457  1.1040 -1.5926
  108SAPE   HN211084   0.497   6.881   1.752 -0.8588 -1.7539  0.6977
  108SAPE   HN311085   0.533   6.946   1.897 -0.7007  0.1358  1.0323
  108SAPE   C1211086   0.467   6.756   1.920  0.2579  0.1046  0.7054
  108SAPE  H12A11087   0.535   6.722   2.001 -0.6077  0.8023  1.7718
  108SAPE  H12B11088   0.448   6.670   1.853  2.8026 -1.9642  2.4588
  108SAPE   C1111089   0.340   6.822   1.990 -0.7302  0.1240 -0.3199
  108SAPE  H11A11090   0.312   6.752   2.072 -0.7669  1.1382  0.5566
  108SAPE  H11B11091   0.250   6.838   1.926 -0.1339  1.1724 -0.9104
  108SAPE     P11092   0.260   7.013   2.136  0.3445  0.0459  0.3660
  108SAPE   O1311093   0.293   7.141   2.206  0.1638  0.0563  0.1443
  108SAPE   O1411094   0.142   7.028   2.044 -0.2492 -0.3195 -0.4435
  108SAPE   O1211095   0.382   6.943   2.054  0.1157  0.1084 -0.0228
  108SAPE   O1111096   0.217   6.912   2.248  1.0742 -0.1837 -0.0069
  108SAPE    C111097   0.292   6.902   2.366 -0.1542 -0.1019  0.6330
  108SAPE    HA11098   0.397   6.935   2.350  0.4326 -2.5237 -1.2131
  108SAPE    HB11099   0.256   6.965   2.450 -0.2839 -1.5896  1.7328
  108SAPE    C211100   0.296   6.757   2.411  0.4945  0.1127 -0.2874
  108SAPE    HS11101   0.284   6.692   2.322  2.5531 -1.9320  0.8183
  108SAPE   O2111102   0.174   6.746   2.494 -0.4947 -0.1086 -0.3047
  108SAPE   C2111103   0.106   6.629   2.493 -1.2510  0.8224  0.0512
  108SAPE   O2211104   0.146   6.526   2.437 -0.0199  0.1811 -0.1240
  108SAPE   C2211105  -0.027   6.649   2.577  0.1739 -0.3498  0.3262
  108SAPE   H2R11106  -0.002   6.730   2.648  0.0232 -1.0896  1.2405
  108SAPE   H2S11107  -0.104   6.684   2.505 -1.5233 -2.6240  0.9113
  108SAPE    C311108   0.426   6.710   2.479 -0.4333 -0.1192 -0.0588
  108SAPE    HX11109   0.445   6.792   2.551 -2.7912  0.6130 -0.1694
  108SAPE    HY11110   0.507   6.725   2.405 -0.5944  1.5724  0.0723
  108SAPE   O3111111   0.425   6.577   2.535  0.3225 -0.0489 -0.1605
  108SAPE   C3111112   0.459   6.559   2.664 -0.3152 -0.7166  1.2690
  108SAPE   O3211113   0.512   6.642   2.735 -0.0105 -0.5676  0.1488
  108SAPE   C3211114   0.450   6.404   2.703  0.3335  0.5392 -0.0297
  108SAPE   H2X11115   0.523   6.350   2.639  0.8536  0.2259  0.8024
  108SAPE   H2Y11116   0.350   6.361   2.682  0.2200  0.4992  0.5849
  108SAPE   C2311117  -0.073   6.530   2.659  0.2241  0.5426  0.2782
  108SAPE   H3R11118   0.021   6.480   2.691  0.1115  0.8549  1.1318
  108SAPE   H3S11119  -0.128   6.454   2.601 -1.4892  0.1045  2.3358
  108SAPE   C2411120  -0.152   6.560   2.784  0.2918  0.1621 -0.2042
  108SAPE   H4R11121  -0.075   6.584   2.860 -1.6915  0.8197  1.7369
  108SAPE   H4S11122  -0.180   6.467   2.838  0.4957 -0.5711 -1.3228
  108SAPE   C2511123  -0.271   6.653   2.787 -0.4415 -0.3110  0.7165
  108SAPE   H5R11124  -0.311   6.684   2.689  1.4698 -0.2924 -0.1054
  108SAPE   C2611125  -0.340   6.696   2.886  1.0238 -0.0662  0.2532
  108SAPE   H6R11126  -0.437   6.742   2.858 -0.6692 -2.2196  2.2374
  108SAPE   C2711127  -0.335   6.658   3.026  0.3798  0.4479  0.3199
  108SAPE   H7R11128  -0.337   6.547   3.033 -0.0308  0.2434 -2.1303
  108SAPE   H7S11129  -0.438   6.673   3.065  0.2483 -1.8773  0.9881
  108SAPE   C2811130  -0.226   6.712   3.114 -0.1719 -0.2819 -0.1230
  108SAPE   H8R11131  -0.138   6.755   3.063 -0.2507 -1.2359 -1.0888
  108SAPE   C2911132  -0.236   6.731   3.251 -0.6702  0.2288  0.1048
  108SAPE   H9R11133  -0.147   6.763   3.307  1.0702 -1.4302 -1.5312
  108SAPE  C21011134  -0.349   6.692   3.340  0.0081  0.2539  0.0076
  108SAPE  H10R11135  -0.346   6.581   3.344 -4.1321 -0.2372 -2.9153
  108SAPE  H10S11136  -0.447   6.708   3.289  0.3832  2.0166 -0.2191
  108SAPE  C21111137  -0.337   6.749   3.479  0.3237 -0.3126 -0.2074
  108SAPE  H11R11138  -0.394   6.842   3.486 -2.3360 -1.7878 -0.6540
  108SAPE  C21211139  -0.295   6.688   3.585 -0.6794  0.6357 -0.6931
  108SAPE  H12R11140  -0.304   6.751   3.675  3.0803 -0.5722  0.7170
  108SAPE  C21311141  -0.197   6.572   3.605 -0.3522  0.0421 -0.4869
  108SAPE  H13R11142  -0.104   6.619   3.642 -1.3818  1.2160  0.6801
  108SAPE  H13S11143  -0.159   6.538   3.506  0.7650 -1.2770  0.3569
  108SAPE  C21411144  -0.248   6.452   3.680 -0.0380 -0.0494  0.0859
  108SAPE  H14R11145  -0.281   6.364   3.623 -0.8132 -2.1858  3.4914
  108SAPE  C21511146  -0.270   6.440   3.812  0.1136  0.4560 -0.6530
  108SAPE  H15R11147  -0.292   6.339   3.849 -0.6941  1.1374  0.8305
  108SAPE  C21611148  -0.239   6.543   3.916  0.1264 -0.3308 -0.4086
  108SAPE  H16R11149  -0.154   6.605   3.880  0.5364 -0.8997 -0.4298
  108SAPE  H16S11150  -0.208   6.489   4.008  0.2934 -0.5014 -0.5645
  108SAPE  C21711151  -0.352   6.644   3.960  0.0471 -0.6011  0.6589
  108SAPE  H17R11152  -0.403   6.663   3.863 -0.9039 -2.1544  0.8043
  108SAPE  H17S11153  -0.309   6.745   3.974 -0.7466 -0.2053  0.3497
  108SAPE  C21811154  -0.450   6.600   4.071 -0.3667 -0.5066 -0.7750
  108SAPE  H18R11155  -0.509   6.510   4.044 -1.9192  0.3948 -0.5271
  108SAPE  H18S11156  -0.530   6.677   4.076 -1.3271 -1.5843  1.8133
  108SAPE  C21911157  -0.378   6.593   4.208 -0.3089  0.7868  0.2829
  108SAPE  H19R11158  -0.350   6.693   4.247  1.5073  0.6629 -0.6232
  108SAPE  H19S11159  -0.281   6.538   4.205  0.2449  1.7204  0.7154
  108SAPE  C22011160  -0.466   6.537   4.312  0.4951 -0.1516 -0.5621
  108SAPE  H20R11161  -0.419   6.536   4.413 -1.8553 -0.8526  0.5815
  108SAPE  H20S11162  -0.478   6.430   4.283  0.0717  0.2615 -2.0079
  108SAPE  H20T11163  -0.570   6.575   4.316  0.8042  0.5972  1.6626
  108SAPE   C3311164   0.499   6.378   2.846 -0.0801  0.3373  0.1464
  108SAPE   H3X11165   0.591   6.436   2.870  0.3745  0.1290 -0.9992
  108SAPE   H3Y11166   0.511   6.268   2.853 -1.5439  0.0676 -0.9282
  108SAPE   C3411167   0.392   6.412   2.953  0.1610  0.1131 -0.6722
  108SAPE   H4X11168   0.289   6.383   2.925 -0.4645 -1.9537  3.0483
  108SAPE   H4Y11169   0.389   6.522   2.968 -0.6968  0.0077 -0.0076
  108SAPE   C3511170   0.424   6.337   3.083  0.8338 -0.0596  0.1652
  108SAPE   H5X11171   0.417   6.229   3.057  0.8654 -0.6153  2.3180
  108SAPE   H5Y11172   0.529   6.362   3.111  0.5607 -0.1263  1.2871
  108SAPE   C3611173   0.334   6.368   3.206  0.4585 -0.2945  0.2087
  108SAPE   H6X11174   0.364   6.306   3.292 -1.8120 -1.9028 -0.0675
  108SAPE   H6Y11175   0.230   6.347   3.174 -0.0972  1.3175  0.8660
  108SAPE   C3711176   0.356   6.513   3.249  0.0804 -0.3062 -0.4878
  108SAPE   H7X11177   0.315   6.576   3.167  1.2806  2.0299  0.6104
  108SAPE   H7Y11178   0.462   6.538   3.274 -0.7440  2.2893  0.7572
  108SAPE   C3811179   0.255   6.531   3.364  0.1404  0.0807 -0.2040
  108SAPE   H8X11180   0.166   6.471   3.335  0.0251  0.7215 -1.2161
  108SAPE   H8Y11181   0.220   6.637   3.362  0.5706  0.2813  1.4256
  108SAPE   C3911182   0.309   6.491   3.504  0.5856  0.2108  0.5953
  108SAPE   H9X11183   0.398   6.548   3.541  0.4011  2.5675 -2.2136
  108SAPE   H9Y11184   0.328   6.382   3.492 -0.2726  0.0989  0.1925
  108SAPE  C31011185   0.209   6.499   3.623 -0.3481  0.7148 -0.2259
  108SAPE  H10X11186   0.112   6.456   3.590  0.2885  0.5046 -1.9327
  108SAPE  H10Y11187   0.193   6.608   3.634 -0.0140  0.8355 -0.8717
  108SAPE  C31111188   0.247   6.446   3.761  0.4893 -0.0350 -0.1410
  108SAPE  H11X11189   0.341   6.491   3.799 -1.2551  1.3825  2.7950
  108SAPE  H11Y11190   0.263   6.338   3.741 -2.3882 -0.5139 -0.3396
  108SAPE  C31211191   0.135   6.472   3.859 -0.3284  0.3266 -0.5521
  108SAPE  H12X11192   0.037   6.429   3.828 -0.1944 -1.3538  1.1457
  108SAPE  H12Y11193   0.116   6.581   3.859 -0.4732  0.3018 -0.7100
  108SAPE  C31311194   0.175   6.429   3.995  0.1081  0.8684 -0.1229
  108SAPE  H13X11195   0.281   6.463   3.999  0.6574 -0.5048 -1.4629
  108SAPE  H13Y11196   0.179   6.318   4.002  2.5114  1.0164  2.2070
  108SAPE  C31411197   0.091   6.481   4.107  0.3075 -0.0825 -0.9597
  108SAPE  H14X11198   0.127   6.439   4.203 -0.2601  0.6050 -0.4419
  108SAPE  H14Y11199  -0.007   6.431   4.089  0.8293 -0.6148 -2.4953
  108SAPE  C31511200   0.060   6.631   4.114  0.5930 -0.1845  1.0266
  108SAPE  H15X11201   0.004   6.654   4.021  1.6551 -2.6086 -0.3202
  108SAPE  H15Y11202   0.157   6.685   4.105 -0.2129  1.0398 -0.8876
  108SAPE  C31611203  -0.018   6.687   4.235  0.3350  0.3355 -0.3669
  108SAPE  H16X11204  -0.097   6.612   4.257  2.5310 -2.0557  0.0022
  108SAPE  H16Y11205  -0.071   6.782   4.215 -1.7490 -0.7354 -0.2215
  108SAPE  C31711206   0.061   6.694   4.368 -0.4045 -0.4980 -0.2765
  108SAPE  H17X11207   0.129   6.780   4.354 -0.8475 -0.5426 -3.3135
  108SAPE  H17Y11208   0.114   6.597   4.372 -0.9967 -0.8712 -1.2106
  108SAPE  C31811209  -0.021   6.716   4.499 -0.8750 -0.5110  0.5659
  108SAPE  H18X11210   0.039   6.747   4.588  1.9615  1.5023 -1.8636
  108SAPE  H18Y11211  -0.062   6.616   4.526  1.3208 -1.7803 -0.4582
  108SAPE  H18Z11212  -0.098   6.792   4.478 -1.1769 -0.9196  0.1873
  109SAPE     N11213   2.498   3.759   2.154  0.2482  0.0861 -0.1136
  109SAPE   HN111214   2.438   3.822   2.211  0.2263  0.8054 -0.9149
  109SAPE   HN211215   2.474   3.661   2.180  0.1350  0.1963  0.1981
  109SAPE   HN311216   2.596   3.769   2.186  0.3169  0.7461 -0.5215
  109SAPE   C1211217   2.483   3.786   2.010  0.4037  0.3664  0.2712
  109SAPE  H12A11218   2.522   3.700   1.952 -1.5988  0.0512 -0.7014
  109SAPE  H12B11219   2.532   3.881   1.979 -0.8678  0.4885 -1.5002
  109SAPE   C1111220   2.338   3.806   1.959  0.2798 -0.4926  0.0464
  109SAPE  H11A11221   2.342   3.815   1.849 -0.7345  0.3427  0.0577
  109SAPE  H11B11222   2.313   3.902   2.010  1.5353 -0.2370  0.2309
  109SAPE     P11223   2.105   3.706   1.944 -0.3275  0.0919 -0.1371
  109SAPE   O1311224   2.088   3.761   1.810 -0.6863  0.4502  0.0815
  109SAPE   O1411225   2.060   3.569   1.974  0.1442 -0.2074  0.2996
  109SAPE   O1211226   2.251   3.709   2.000 -0.4991  0.8956 -0.1729
  109SAPE   O1111227   2.029   3.795   2.045 -0.2039 -0.6315 -0.2256
  109SAPE    C111228   2.067   3.800   2.179 -0.2306 -0.4040 -0.5667
  109SAPE    HA11229   2.176   3.786   2.196 -0.0835 -0.7403 -1.7320
  109SAPE    HB11230   2.037   3.901   2.213  1.3153  0.1737 -0.8563
  109SAPE    C211231   1.990   3.700   2.264 -0.0575  0.2537  0.1625
  109SAPE    HS11232   2.035   3.601   2.242 -0.5152  0.2061 -0.5964
  109SAPE   O2111233   1.854   3.699   2.232 -0.1355 -0.7462  0.1472
  109SAPE   C2111234   1.791   3.589   2.260  0.2310 -0.2714  0.0414
  109SAPE   O2211235   1.843   3.487   2.300  0.6093  0.5616  0.3483
  109SAPE   C2211236   1.645   3.621   2.241 -0.0414 -0.5325 -0.2245
  109SAPE   H2R11237   1.643   3.710   2.174  0.5043 -0.3407  0.0027
  109SAPE   H2S11238   1.598   3.536   2.188 -2.0426 -1.5072  2.8940
  109SAPE    C311239   1.998   3.733   2.415 -0.0177 -0.0780  0.1919
  109SAPE    HX11240   1.929   3.666   2.471  0.0297 -1.5590 -1.4388
  109SAPE    HY11241   1.961   3.835   2.438  1.5430  0.7987 -1.0209
  109SAPE   O3111242   2.137   3.735   2.460  0.4985 -0.4048 -0.1240
  109SAPE   C3111243   2.187   3.621   2.483  0.4573  0.0841 -0.3314
  109SAPE   O3211244   2.135   3.511   2.466  0.0521 -0.3487  0.1109
  109SAPE   C3211245   2.332   3.643   2.541  0.3113  0.3510 -0.0526
  109SAPE   H2X11246   2.386   3.724   2.487 -2.1980  1.0030 -1.7017
  109SAPE   H2Y11247   2.388   3.548   2.528 -0.1193 -0.5625  3.4899
  109SAPE   C2311248   1.569   3.658   2.376 -1.2185 -0.1143  0.6893
  109SAPE   H3R11249   1.472   3.705   2.349 -1.5730 -0.7340  0.8577
  109SAPE   H3S11250   1.630   3.742   2.415 -0.0690  0.8631 -2.8317
  109SAPE   C2411251   1.545   3.554   2.483 -0.0183  0.7090 -0.1454
  109SAPE   H4R11252   1.640   3.511   2.523  0.1591 -0.7389 -1.9920
  109SAPE   H4S11253   1.495   3.465   2.440 -0.5301  0.0711  1.6928
  109SAPE   C2511254   1.454   3.624   2.585  0.0466 -0.2327  0.0186
  109SAPE   H5R11255   1.349   3.635   2.553 -0.2859  0.4195  1.3011
  109SAPE   C2611256   1.488   3.679   2.712  0.8647  0.0883  0.3071
  109SAPE   H6R11257   1.410   3.730   2.772  0.5441  0.7449 -0.6527
  109SAPE   C2711258   1.627   3.673   2.775  0.4409 -0.0473 -0.3339
  109SAPE   H7R11259   1.698   3.664   2.690 -0.4385  1.0316 -1.2164
  109SAPE   H7S11260   1.629   3.581   2.837  2.9996  1.0904  1.4765
  109SAPE   C2811261   1.659   3.790   2.854  0.6679 -0.0370  0.1855
  109SAPE   H8R11262   1.621   3.886   2.817  1.3686 -0.3916 -1.5820
  109SAPE   C2911263   1.702   3.790   2.982 -0.6765  0.2114 -0.4239
  109SAPE   H9R11264   1.721   3.881   3.042 -0.5638 -0.1553  0.1073
  109SAPE  C21011265   1.730   3.672   3.064  0.8049  0.2848 -0.6219
  109SAPE  H10R11266   1.833   3.689   3.102  0.4585 -0.4705  0.7157
  109SAPE  H10S11267   1.742   3.583   2.999 -0.3139  0.5111 -1.1740
  109SAPE  C21111268   1.635   3.642   3.177 -0.0129  0.3284 -0.6000
  109SAPE  H11R11269   1.564   3.560   3.155  0.5395 -0.3246 -0.0274
  109SAPE  C21211270   1.642   3.679   3.304 -0.2098  0.2800 -0.3378
  109SAPE  H12R11271   1.556   3.651   3.366 -1.3264 -1.0127 -2.3570
  109SAPE  C21311272   1.741   3.784   3.356  0.1255 -0.6541 -0.4658
  109SAPE  H13R11273   1.737   3.887   3.315  0.4973  0.1794  1.4759
  109SAPE  H13S11274   1.843   3.749   3.329 -1.0469 -4.3955 -0.6340
  109SAPE  C21411275   1.738   3.800   3.506  0.0039 -0.3681  0.1898
  109SAPE  H14R11276   1.701   3.715   3.565 -0.7224  0.1107  0.4320
  109SAPE  C21511277   1.765   3.918   3.568  0.0702  0.3927  0.0173
  109SAPE  H15R11278   1.749   3.922   3.676 -0.7269 -1.4532  0.0001
  109SAPE  C21611279   1.819   4.038   3.511 -0.3793  0.2459  0.1209
  109SAPE  H16R11280   1.745   4.066   3.433 -0.9666 -1.6810 -0.0639
  109SAPE  H16S11281   1.915   4.006   3.464 -0.6556  2.8128 -2.5003
  109SAPE  C21711282   1.837   4.150   3.608 -0.2562 -0.1760 -0.5286
  109SAPE  H17R11283   1.915   4.119   3.682  2.0311 -0.6334 -2.9850
  109SAPE  H17S11284   1.751   4.181   3.671 -1.3571  0.7115 -2.3761
  109SAPE  C21811285   1.890   4.281   3.550  0.1026  0.4834  0.1011
  109SAPE  H18R11286   1.834   4.306   3.457  0.2068 -0.8134 -0.3333
  109SAPE  H18S11287   1.998   4.266   3.531 -0.0556  1.0299 -1.3128
  109SAPE  C21911288   1.867   4.408   3.636 -0.3450 -0.1278  0.2052
  109SAPE  H19R11289   1.757   4.419   3.645 -0.7305 -2.6813 -0.5271
  109SAPE  H19S11290   1.889   4.504   3.584  0.7302 -0.9882 -0.9826
  109SAPE  C22011291   1.930   4.403   3.776  0.0988 -0.3360 -0.2384
  109SAPE  H20R11292   1.907   4.500   3.825  1.9406  0.7421 -1.3813
  109SAPE  H20S11293   2.041   4.404   3.763  0.4173 -1.0214  2.0287
  109SAPE  H20T11294   1.885   4.327   3.843 -0.4146  1.6038  1.7544
  109SAPE   C3311295   2.328   3.676   2.696 -0.1128 -0.1735  0.1438
  109SAPE   H3X11296   2.290   3.778   2.718 -3.2971 -1.2496  0.1414
  109SAPE   H3Y11297   2.434   3.663   2.729 -0.7619  0.6221  2.7599
  109SAPE   C3411298   2.246   3.580   2.787 -0.1207 -0.0192 -0.9571
  109SAPE   H4X11299   2.272   3.477   2.755  2.5992  0.6190 -1.0946
  109SAPE   H4Y11300   2.137   3.598   2.775 -0.5500 -1.5234  0.3731
  109SAPE   C3511301   2.286   3.605   2.931 -0.1816  0.2709 -0.8440
  109SAPE   H5X11302   2.281   3.715   2.946  1.1715  0.0913  1.5452
  109SAPE   H5Y11303   2.395   3.584   2.934  0.0719  1.2804 -2.0260
  109SAPE   C3611304   2.196   3.524   3.038  0.1135 -0.1401  0.1198
  109SAPE   H6X11305   2.211   3.415   3.023 -1.3575 -0.4650  0.8996
  109SAPE   H6Y11306   2.089   3.544   3.019  0.0143 -0.5345  0.2622
  109SAPE   C3711307   2.221   3.568   3.180 -0.1218 -0.7793 -0.2146
  109SAPE   H7X11308   2.220   3.679   3.180 -1.2453 -0.7631  1.1385
  109SAPE   H7Y11309   2.329   3.556   3.205  0.4727  1.7863 -1.3173
  109SAPE   C3811310   2.126   3.523   3.290 -0.1225  0.2028 -0.1018
  109SAPE   H8X11311   2.130   3.414   3.313  2.3132  0.1388 -0.5942
  109SAPE   H8Y11312   2.028   3.548   3.243  0.3614  0.7596 -0.8343
  109SAPE   C3911313   2.147   3.597   3.422  0.6479 -0.4518  0.9170
  109SAPE   H9X11314   2.124   3.702   3.396  1.6494 -0.2940  0.6200
  109SAPE   H9Y11315   2.255   3.594   3.448  0.4563 -0.3713  1.7556
  109SAPE  C31011316   2.046   3.544   3.526  0.0181 -0.8269 -0.8699
  109SAPE  H10X11317   2.049   3.433   3.538 -1.6461 -1.0007 -1.8660
  109SAPE  H10Y11318   1.941   3.571   3.504  0.3499  1.6903  0.3234
  109SAPE  C31111319   2.076   3.604   3.663  1.0157 -0.7332 -0.6239
  109SAPE  H11X11320   2.091   3.713   3.652 -1.3424 -0.3459 -0.6703
  109SAPE  H11Y11321   2.165   3.568   3.718  0.1670  0.8618  1.9457
  109SAPE  C31211322   1.950   3.585   3.749 -0.0095  0.0139 -0.3128
  109SAPE  H12X11323   1.936   3.484   3.793  1.5480 -0.3025 -0.4733
  109SAPE  H12Y11324   1.855   3.597   3.694 -0.5005 -0.2393  0.4600
  109SAPE  C31311325   1.930   3.686   3.861 -1.2229  0.0997  0.0520
  109SAPE  H13X11326   1.927   3.789   3.819 -1.1761 -1.0793 -3.0802
  109SAPE  H13Y11327   2.012   3.676   3.935 -0.7501  0.8143 -0.3580
  109SAPE  C31411328   1.796   3.658   3.923 -0.0316  0.0648 -0.1946
  109SAPE  H14X11329   1.806   3.554   3.961 -1.0003 -0.0880 -0.3259
  109SAPE  H14Y11330   1.721   3.658   3.840  0.5606 -1.4734 -0.7663
  109SAPE  C31511331   1.758   3.751   4.037  0.5080 -0.5095  0.7506
  109SAPE  H15X11332   1.760   3.860   4.014  0.5994 -0.5488  0.5707
  109SAPE  H15Y11333   1.831   3.739   4.120  0.4714 -2.0066  0.5945
  109SAPE  C31611334   1.610   3.722   4.077 -0.8932 -0.7630 -1.1120
  109SAPE  H16X11335   1.584   3.782   4.167  0.9870 -0.4476 -0.7386
  109SAPE  H16Y11336   1.606   3.613   4.095  2.9071 -0.3938  4.1395
  109SAPE  C31711337   1.505   3.754   3.962 -0.3586 -0.3103 -0.3285
  109SAPE  H17X11338   1.456   3.657   3.937 -0.1346 -0.1131 -1.5850
  109SAPE  H17Y11339   1.557   3.788   3.870  0.3462  1.4560  0.6687
  109SAPE  C31811340   1.398   3.854   4.008 -0.1953  0.2017  0.0257
  109SAPE  H18X11341   1.342   3.887   3.919 -1.2560  2.6367  1.5036
  109SAPE  H18Y11342   1.433   3.951   4.048 -0.4331  0.1290  0.4255
  109SAPE  H18Z11343   1.332   3.788   4.069  2.1429 -1.2986  1.1088
  110SAPE     N11344   1.102   1.579   1.980  0.2085 -0.0548  0.5667
  110SAPE   HN111345   1.020   1.517   1.997  0.5803 -0.6491  0.2283
  110SAPE   HN211346   1.061   1.649   1.914  1.1128 -0.4689 -0.4671
  110SAPE   HN311347   1.178   1.527   1.931  1.7048  0.6684  2.0695
  110SAPE   C1211348   1.152   1.650   2.111 -0.4688  0.8337  0.8065
  110SAPE  H12A11349   1.243   1.708   2.084 -0.5424  1.1991  1.3217
  110SAPE  H12B11350   1.173   1.573   2.188 -0.7112 -0.1500 -0.0945
  110SAPE   C1111351   1.044   1.750   2.162 -0.8787  0.0571  0.9274
  110SAPE  H11A11352   1.073   1.795   2.259 -0.1727 -3.5863  2.5814
  110SAPE  H11B11353   0.945   1.701   2.171  0.3616 -3.5325 -2.1214
  110SAPE     P11354   1.098   1.976   2.036 -0.2695 -0.2998  0.0002
  110SAPE   O1311355   1.236   1.939   1.992  0.2713  0.5390  1.0205
  110SAPE   O1411356   1.014   2.059   1.952 -0.1559 -0.0402 -0.0186
  110SAPE   O1211357   1.016   1.841   2.057 -0.3521  0.1534  0.5458
  110SAPE   O1111358   1.101   2.045   2.179 -0.2248 -0.5908  0.2316
  110SAPE    C111359   1.217   2.059   2.255 -0.8251 -0.0906 -0.1531
  110SAPE    HA11360   1.278   1.967   2.243 -3.5003 -2.0052 -0.0015
  110SAPE    HB11361   1.269   2.153   2.226 -2.1803  0.6616 -0.2059
  110SAPE    C211362   1.191   2.077   2.410  0.5524  0.1906  0.1854
  110SAPE    HS11363   1.288   2.066   2.463  2.2282  1.0067 -2.5282
  110SAPE   O2111364   1.081   2.004   2.468 -0.0107  0.0511 -0.2840
  110SAPE   C2111365   1.123   1.897   2.521 -0.2058 -0.2808 -0.5074
  110SAPE   O2211366   1.237   1.851   2.520  0.2549 -0.1049  0.2748
  110SAPE   C2211367   1.014   1.831   2.604  0.1372  0.3695 -0.1971
  110SAPE   H2R11368   0.935   1.792   2.537 -0.2475  0.9157 -0.0802
  110SAPE   H2S11369   1.055   1.746   2.662 -0.3676  1.0527  1.2297
  110SAPE    C311370   1.161   2.228   2.427  0.6427  0.2412 -0.6871
  110SAPE    HX11371   1.251   2.283   2.392  0.1128  0.9088 -1.0334
  110SAPE    HY11372   1.077   2.237   2.355  1.4744 -1.0910 -1.8654
  110SAPE   O3111373   1.142   2.262   2.570 -0.1756  0.4138  0.0505
  110SAPE   C3111374   1.034   2.336   2.594 -0.5136 -0.1112  0.0098
  110SAPE   O3211375   0.950   2.356   2.506  0.2335 -0.3936 -0.5656
  110SAPE   C3211376   1.040   2.391   2.730 -0.1378 -1.0034  0.3466
  110SAPE   H2X11377   1.061   2.312   2.805  1.3470  0.9401  2.0969
  110SAPE   H2Y11378   0.950   2.452   2.750  2.2282  2.1803  2.0986
  110SAPE   C2311379   0.939   1.928   2.700  0.1918 -0.3542 -0.4171
  110SAPE   H3R11380   0.871   1.869   2.765 -0.5814 -0.2136 -1.0827
  110SAPE   H3S11381   0.883   2.013   2.656 -3.5291 -1.3967  1.8136
  110SAPE   C2411382   1.034   1.990   2.807 -0.1367 -0.8586  0.2034
  110SAPE   H4R11383   0.971   2.055   2.871 -0.6552  0.3621 -1.4729
  110SAPE   H4S11384   1.111   2.060   2.769 -0.8874  1.0933  2.0666
  110SAPE   C2511385   1.098   1.883   2.882 -0.7427 -0.4569  0.2318
  110SAPE   H5R11386   1.164   1.821   2.821  1.1691  0.5343  1.2217
  110SAPE   C2611387   1.079   1.849   3.010  0.9749 -0.7959  0.3065
  110SAPE   H6R11388   1.142   1.770   3.054 -1.8052 -3.9575 -0.8785
  110SAPE   C2711389   0.977   1.922   3.110 -0.1579  0.2206 -0.0634
  110SAPE   H7R11390   0.936   1.853   3.187  0.7351  1.4873  1.6124
  110SAPE   H7S11391   0.893   1.950   3.043 -0.7201 -0.1833  0.4691
  110SAPE   C2811392   1.039   2.045   3.176 -0.3490  0.3479 -0.1270
  110SAPE   H8R11393   1.147   2.054   3.162 -0.3789  1.2750  0.1655
  110SAPE   C2911394   0.974   2.156   3.201  0.1018  0.2347 -0.2237
  110SAPE   H9R11395   1.030   2.238   3.249 -2.5308  1.0196  1.7347
  110SAPE  C21011396   0.820   2.178   3.182 -0.0988  0.0002  0.4020
  110SAPE  H10R11397   0.770   2.082   3.153 -0.5357  0.1358  0.7095
  110SAPE  H10S11398   0.815   2.249   3.097  1.2450  2.2592  2.1259
  110SAPE  C21111399   0.754   2.240   3.308 -0.2331 -0.1515 -0.6034
  110SAPE  H11R11400   0.749   2.350   3.314  0.7342 -0.1793  1.3406
  110SAPE  C21211401   0.713   2.164   3.409  0.3370  0.0288  0.3012
  110SAPE  H12R11402   0.669   2.219   3.494  0.1107 -1.9561  1.5554
  110SAPE  C21311403   0.715   2.013   3.414 -0.1244 -0.1471  0.2993
  110SAPE  H13R11404   0.813   1.969   3.443  0.8272  1.4515 -0.3920
  110SAPE  H13S11405   0.701   1.971   3.312  2.4979 -0.8455  0.1475
  110SAPE  C21411406   0.609   1.954   3.502 -0.0508  0.1485  0.5315
  110SAPE  H14R11407   0.505   1.942   3.469 -0.0922  1.0311  0.3078
  110SAPE  C21511408   0.622   1.925   3.635  0.3137 -0.8262 -0.4289
  110SAPE  H15R11409   0.536   1.873   3.679  2.8622 -4.1238  1.1010
  110SAPE  C21611410   0.733   1.945   3.731  0.5078  0.1470 -0.8180
  110SAPE  H16R11411   0.694   1.994   3.823  0.2323  0.7071 -1.2325
  110SAPE  H16S11412   0.809   2.012   3.686 -0.6977  1.9023 -0.3420
  110SAPE  C21711413   0.817   1.826   3.773 -0.0925  0.5571  0.3087
  110SAPE  H17R11414   0.909   1.869   3.820  0.4220  0.5037 -0.6157
  110SAPE  H17S11415   0.853   1.759   3.692 -0.1955  1.7626 -0.7732
  110SAPE  C21811416   0.751   1.735   3.884 -0.2673  0.1823  0.2709
  110SAPE  H18R11417   0.649   1.699   3.858 -0.5039 -0.2130  1.6769
  110SAPE  H18S11418   0.746   1.795   3.978  0.5970 -1.2589  1.2728
  110SAPE  C21911419   0.836   1.613   3.926  0.0643 -0.5792  0.5730
  110SAPE  H19R11420   0.778   1.572   4.011 -1.0612 -0.3351 -0.0526
  110SAPE  H19S11421   0.937   1.646   3.958  0.2292 -0.1521 -0.3494
  110SAPE  C22011422   0.841   1.492   3.831  0.1571 -0.1874 -0.9058
  110SAPE  H20R11423   0.742   1.442   3.833 -0.2476  0.6033 -0.5559
  110SAPE  H20S11424   0.917   1.417   3.864 -1.0583 -0.7107  0.8430
  110SAPE  H20T11425   0.847   1.525   3.725  0.8702 -2.6084 -1.6711
  110SAPE   C3311426   1.156   2.489   2.748 -0.0109 -0.0605 -0.4563
  110SAPE   H3X11427   1.145   2.581   2.688  1.0480  1.1018  1.0535
  110SAPE   H3Y11428   1.252   2.450   2.707 -0.7395  0.8253 -3.2461
  110SAPE   C3411429   1.162   2.540   2.893  0.3224 -0.2896 -0.1724
  110SAPE   H4X11430   1.235   2.624   2.890 -0.6949  0.5772 -1.1665
  110SAPE   H4Y11431   1.197   2.455   2.956  0.1119  0.6917  1.3168
  110SAPE   C3511432   1.033   2.580   2.959 -0.0663 -0.3323 -0.2789
  110SAPE   H5X11433   0.987   2.482   2.984  1.3878 -1.1188 -0.5425
  110SAPE   H5Y11434   0.959   2.628   2.892 -3.4556 -2.0871  1.9246
  110SAPE   C3611435   1.063   2.656   3.091 -0.3277 -0.1250  0.7872
  110SAPE   H6X11436   1.093   2.759   3.065 -1.6532  0.3614  1.0922
  110SAPE   H6Y11437   1.143   2.606   3.149  1.0350  2.5113  1.3152
  110SAPE   C3711438   0.947   2.659   3.192  0.4843 -0.5655 -0.9269
  110SAPE   H7X11439   0.885   2.568   3.180  0.6521 -1.4268  3.2496
  110SAPE   H7Y11440   0.885   2.750   3.174 -2.3140 -1.8206  1.5342
  110SAPE   C3811441   1.000   2.654   3.343 -0.0946 -0.0537  0.2174
  110SAPE   H8X11442   0.917   2.702   3.399 -2.5657 -2.3210 -1.2675
  110SAPE   H8Y11443   1.097   2.707   3.352  0.6209 -0.8309 -2.2821
  110SAPE   C3911444   1.015   2.515   3.406 -0.4344 -0.9422 -0.1222
  110SAPE   H9X11445   1.083   2.440   3.361  0.7020  0.4445 -0.7947
  110SAPE   H9Y11446   0.921   2.459   3.388  0.1453 -2.3364  1.0154
  110SAPE  C31011447   1.047   2.529   3.559 -0.6225 -0.5828  0.4270
  110SAPE  H10X11448   0.979   2.608   3.597  0.8539  0.2664  1.3674
  110SAPE  H10Y11449   1.153   2.559   3.573 -0.9083 -0.2962  2.1553
  110SAPE  C31111450   1.014   2.407   3.640  0.2614  0.6348 -0.5163
  110SAPE  H11X11451   1.074   2.321   3.604  0.6129  0.7778 -0.2706
  110SAPE  H11Y11452   0.906   2.388   3.617  0.2456  0.1914 -0.0954
  110SAPE  C31211453   1.020   2.412   3.793 -0.0531  0.2427  0.2015
  110SAPE  H12X11454   0.982   2.313   3.829  0.9002 -0.2970 -0.2518
  110SAPE  H12Y11455   0.944   2.481   3.836 -0.1538 -0.4527  1.1770
  110SAPE  C31311456   1.155   2.429   3.845  0.6707  0.1696  0.0975
  110SAPE  H13X11457   1.173   2.536   3.821 -2.4590  0.5336 -1.0347
  110SAPE  H13Y11458   1.226   2.368   3.786  1.6742  2.1608 -0.8566
  110SAPE  C31411459   1.166   2.410   4.000 -0.4979  0.0180  0.1038
  110SAPE  H14X11460   1.271   2.433   4.030 -0.6536  0.6693  0.1581
  110SAPE  H14Y11461   1.143   2.304   4.023 -0.3961 -0.1867 -0.7172
  110SAPE  C31511462   1.066   2.497   4.082  0.2701 -0.3477  0.2135
  110SAPE  H15X11463   0.958   2.471   4.095 -0.6214  3.0252  0.6371
  110SAPE  H15Y11464   1.078   2.589   4.021  1.8682 -0.1867  0.7277
  110SAPE  C31611465   1.106   2.530   4.227  0.1044 -0.2901 -0.2211
  110SAPE  H16X11466   1.047   2.621   4.250 -2.6138 -1.0321 -3.4737
  110SAPE  H16Y11467   1.213   2.561   4.224  0.3098 -0.8220  1.0054
  110SAPE  C31711468   1.080   2.412   4.322 -0.4873  0.0461  0.2201
  110SAPE  H17X11469   0.990   2.353   4.298 -1.7523  2.4694 -1.3883
  110SAPE  H17Y11470   1.058   2.451   4.424 -0.0117 -1.6516  0.9994
  110SAPE  C31811471   1.197   2.310   4.339  0.6342 -0.5108 -0.0423
  110SAPE  H18X11472   1.280   2.363   4.391  1.9984 -0.0883 -2.4858
  110SAPE  H18Y11473   1.247   2.282   4.243 -1.3890  0.7179 -1.5304
  110SAPE  H18Z11474   1.160   2.220   4.391  0.1013  0.5709  1.5067
  111SAPE     N11475   0.692   2.153   2.317  0.3847 -0.3571 -0.2465
  111SAPE   HN111476   0.654   2.175   2.411  2.3662  0.2576  0.4465
  111SAPE   HN211477   0.733   2.242   2.282 -1.2267  0.3662 -0.4326
  111SAPE   HN311478   0.609   2.130   2.258  0.6529 -0.2011 -0.6866
  111SAPE   C1211479   0.788   2.042   2.345  0.0670 -0.5406  0.9819
  111SAPE  H12A11480   0.849   2.061   2.436  0.5847 -0.8254  0.6981
  111SAPE  H12B11481   0.864   2.042   2.264  2.7459  0.2109  3.3131
  111SAPE   C1111482   0.711   1.913   2.335  0.7670 -0.7872  0.0756
  111SAPE  H11A11483   0.776   1.826   2.357  0.1631 -0.8483  1.7796
  111SAPE  H11B11484   0.668   1.893   2.235  1.4871 -1.5324 -0.0964
  111SAPE     P11485   0.520   1.783   2.470  0.1555  0.3159  0.0670
  111SAPE   O1311486   0.431   1.754   2.355 -0.0583 -0.1673  0.4431
  111SAPE   O1411487   0.601   1.670   2.520 -0.4010  0.3580  0.4606
  111SAPE   O1211488   0.610   1.908   2.430  0.0881  0.5109 -1.5029
  111SAPE   O1111489   0.426   1.838   2.590  0.4239 -0.1846 -0.2484
  111SAPE    C111490   0.456   1.953   2.664 -0.3335 -0.4822  0.3855
  111SAPE    HA11491   0.491   2.035   2.597  3.6441  0.1076  2.8944
  111SAPE    HB11492   0.371   1.993   2.723  0.0036  0.6356  0.1486
  111SAPE    C211493   0.563   1.922   2.764  0.4437 -0.8133 -0.2323
  111SAPE    HS11494   0.654   1.892   2.709  1.6790 -0.0423  1.3311
  111SAPE   O2111495   0.512   1.813   2.850 -0.1920 -0.3565 -0.1572
  111SAPE   C2111496   0.604   1.748   2.925 -0.0588  0.1416 -0.9208
  111SAPE   O2211497   0.721   1.775   2.932  0.3638  0.2909 -0.2030
  111SAPE   C2211498   0.529   1.627   2.987  0.0757  0.5656 -0.6985
  111SAPE   H2R11499   0.421   1.655   2.992  0.3957  1.7655 -0.1503
  111SAPE   H2S11500   0.537   1.533   2.928 -0.4905  0.3133 -0.3815
  111SAPE    C311501   0.612   2.048   2.850  0.5205  0.2661  0.3750
  111SAPE    HX11502   0.635   2.135   2.784 -0.6608  0.9279  0.8026
  111SAPE    HY11503   0.703   2.031   2.910  0.9447  1.0721 -0.0196
  111SAPE   O3111504   0.500   2.070   2.938  0.4987  0.8717 -0.1013
  111SAPE   C3111505   0.464   2.191   2.957  0.0274 -0.2957 -0.3193
  111SAPE   O3211506   0.485   2.291   2.894  0.2798 -0.0365 -0.0998
  111SAPE   C3211507   0.377   2.195   3.089 -0.0645 -0.2562 -0.7213
  111SAPE   H2X11508   0.449   2.170   3.169  1.4118 -0.2150 -1.9862
  111SAPE   H2Y11509   0.305   2.110   3.090  0.8919 -1.0735  0.0221
  111SAPE   C2311510   0.583   1.608   3.130  0.0210  0.0624  0.6799
  111SAPE   H3R11511   0.690   1.577   3.131  0.1438  0.3803 -0.9145
  111SAPE   H3S11512   0.523   1.530   3.183 -1.3718  0.5242 -0.1750
  111SAPE   C2411513   0.561   1.723   3.220  0.4871 -1.1243 -0.4679
  111SAPE   H4R11514   0.628   1.806   3.187 -0.8718  0.2435  0.0847
  111SAPE   H4S11515   0.591   1.693   3.323 -1.2685 -0.1201  0.3816
  111SAPE   C2511516   0.417   1.766   3.226 -0.1311  0.0782 -0.0553
  111SAPE   H5R11517   0.391   1.827   3.138 -1.7414 -1.7184 -0.8809
  111SAPE   C2611518   0.319   1.751   3.317 -0.9085 -0.3359 -0.0166
  111SAPE   H6R11519   0.223   1.799   3.294 -1.3292 -0.5917  1.1369
  111SAPE   C2711520   0.334   1.683   3.449 -0.1510  0.2938 -0.5069
  111SAPE   H7R11521   0.343   1.756   3.532  1.5025  0.1196 -0.4881
  111SAPE   H7S11522   0.438   1.649   3.471 -0.0940  0.6928 -0.1453
  111SAPE   C2811523   0.231   1.574   3.469 -0.2487 -0.6983  0.2365
  111SAPE   H8R11524   0.179   1.530   3.382 -0.4540  0.7900 -0.4162
  111SAPE   C2911525   0.194   1.521   3.583 -0.0496 -1.0818  0.0659
  111SAPE   H9R11526   0.123   1.438   3.573 -0.8420 -0.2666 -1.4969
  111SAPE  C21011527   0.246   1.572   3.713  0.9951 -0.5085 -0.5026
  111SAPE  H10R11528   0.193   1.669   3.722  1.5170 -0.3803  1.6147
  111SAPE  H10S11529   0.352   1.604   3.713  0.6614  0.6402 -0.8693
  111SAPE  C21111530   0.221   1.477   3.834  0.4418 -0.3418  0.6173
  111SAPE  H11R11531   0.215   1.373   3.800 -0.9668  0.4598 -1.8410
  111SAPE  C21211532   0.193   1.517   3.958  0.1279 -0.3870  0.4812
  111SAPE  H12R11533   0.162   1.445   4.035  1.5997  0.5229  1.9943
  111SAPE  C21311534   0.193   1.663   4.011 -0.4063  0.3885 -0.4026
  111SAPE  H13R11535   0.160   1.668   4.117  2.4666  0.2046  0.6000
  111SAPE  H13S11536   0.125   1.723   3.947  0.0454 -0.0374 -1.2991
  111SAPE  C21411537   0.329   1.727   4.001 -0.4644 -0.8723 -0.0699
  111SAPE  H14R11538   0.402   1.655   3.960 -1.0728 -1.1657 -0.6571
  111SAPE  C21511539   0.360   1.857   4.025 -0.1679 -0.2850 -0.3751
  111SAPE  H15R11540   0.457   1.895   3.989  0.5054 -2.7999 -1.3539
  111SAPE  C21611541   0.264   1.965   4.072  0.5579 -0.1786 -0.4295
  111SAPE  H16R11542   0.161   1.924   4.075  0.2576  0.6038  1.2089
  111SAPE  H16S11543   0.266   2.064   4.022 -2.9300  0.9756  1.4114
  111SAPE  C21711544   0.296   1.995   4.229  0.1816 -0.6006  0.6803
  111SAPE  H17R11545   0.215   2.070   4.232  0.2154 -0.5275 -0.1594
  111SAPE  H17S11546   0.395   2.046   4.237  0.4777 -0.9359 -0.6241
  111SAPE  C21811547   0.270   1.877   4.322 -0.2779 -0.0621 -0.5118
  111SAPE  H18R11548   0.336   1.790   4.298  2.4486  2.1919 -1.7965
  111SAPE  H18S11549   0.171   1.833   4.300 -0.8449 -0.0475  1.8139
  111SAPE  C21911550   0.270   1.921   4.466  0.5031 -0.0759 -0.1065
  111SAPE  H19R11551   0.238   2.027   4.470 -1.4201 -0.6368  0.5173
  111SAPE  H19S11552   0.373   1.911   4.506 -0.2211 -0.4342  1.7458
  111SAPE  C22011553   0.173   1.827   4.546 -1.2123 -0.9795 -0.0806
  111SAPE  H20R11554   0.178   1.859   4.652  0.6468  0.3601 -0.5140
  111SAPE  H20S11555   0.192   1.720   4.524  0.8298 -1.0926  1.8987
  111SAPE  H20T11556   0.070   1.844   4.507 -1.7478 -0.6653  1.4079
  111SAPE   C3311557   0.312   2.336   3.109  0.0191  0.6502  0.1979
  111SAPE   H3X11558   0.243   2.341   3.022 -0.3590 -1.6192  0.3235
  111SAPE   H3Y11559   0.396   2.410   3.112 -0.4558  1.2031  0.1151
  111SAPE   C3411560   0.226   2.328   3.238 -0.7200  0.3761  0.0970
  111SAPE   H4X11561   0.157   2.241   3.234 -2.4987  1.7474 -0.7565
  111SAPE   H4Y11562   0.159   2.417   3.240 -2.1477 -0.6641  0.5672
  111SAPE   C3511563   0.323   2.343   3.360  0.2272 -0.2175  0.0224
  111SAPE   H5X11564   0.393   2.428   3.347 -1.4465  1.7535  2.6188
  111SAPE   H5Y11565   0.368   2.243   3.376 -2.4558 -1.7712 -1.3819
  111SAPE   C3611566   0.236   2.366   3.484 -0.3398 -0.1104 -0.3444
  111SAPE   H6X11567   0.157   2.288   3.491 -1.1975  0.8818  2.3369
  111SAPE   H6Y11568   0.188   2.465   3.472  2.3668  1.5062  1.0597
  111SAPE   C3711569   0.305   2.379   3.616 -0.8460  0.1394 -0.2239
  111SAPE   H7X11570   0.220   2.375   3.687 -0.4565  0.2384  0.2529
  111SAPE   H7Y11571   0.354   2.478   3.626 -2.0522  1.1021 -2.9753
  111SAPE   C3811572   0.399   2.263   3.663 -0.3156 -0.6655 -0.5313
  111SAPE   H8X11573   0.484   2.250   3.593 -0.5701 -0.0494 -0.9602
  111SAPE   H8Y11574   0.348   2.165   3.672  1.7830 -1.6761  1.3199
  111SAPE   C3911575   0.466   2.281   3.807  0.4535  0.1472 -0.5503
  111SAPE   H9X11576   0.552   2.212   3.819  0.0170 -0.4022 -0.5157
  111SAPE   H9Y11577   0.390   2.258   3.885  2.0889 -1.1284  0.7352
  111SAPE  C31011578   0.512   2.431   3.840 -0.3021  0.5913  0.5915
  111SAPE  H10X11579   0.414   2.482   3.849 -0.6472 -0.0999  0.7897
  111SAPE  H10Y11580   0.570   2.463   3.750  0.4042 -1.5260  0.2343
  111SAPE  C31111581   0.580   2.435   3.976  0.6678 -0.4248  0.8547
  111SAPE  H11X11582   0.663   2.361   3.975 -0.7251 -2.0713 -0.7366
  111SAPE  H11Y11583   0.511   2.405   4.057 -1.7921  0.7557 -0.6715
  111SAPE  C31211584   0.643   2.576   4.014  0.2030 -0.2344  0.2701
  111SAPE  H12X11585   0.571   2.658   3.994 -0.0929 -0.4126  0.5898
  111SAPE  H12Y11586   0.735   2.597   3.955 -1.6281  1.8062 -2.1054
  111SAPE  C31311587   0.677   2.578   4.166  0.1030 -0.4844  0.3311
  111SAPE  H13X11588   0.737   2.489   4.196  0.0119 -1.8351 -3.1184
  111SAPE  H13Y11589   0.582   2.581   4.223 -0.3190  0.9166 -0.4058
  111SAPE  C31411590   0.765   2.693   4.214  0.3196  0.0084 -0.2619
  111SAPE  H14X11591   0.722   2.792   4.185  1.1256 -0.0650 -1.7956
  111SAPE  H14Y11592   0.857   2.700   4.154  0.2083  0.3352 -0.3973
  111SAPE  C31511593   0.803   2.684   4.359 -0.1980 -0.0543 -0.5134
  111SAPE  H15X11594   0.856   2.587   4.376 -1.2634 -0.9860 -2.2584
  111SAPE  H15Y11595   0.707   2.678   4.415 -0.4860  3.3804 -0.4651
  111SAPE  C31611596   0.880   2.808   4.406  0.7600 -0.2249  0.0708
  111SAPE  H16X11597   0.963   2.842   4.341  0.2256 -0.4075 -0.7184
  111SAPE  H16Y11598   0.918   2.781   4.507 -1.5726 -0.7701  0.8665
  111SAPE  C31711599   0.792   2.943   4.416 -0.5985  0.9392  0.5092
  111SAPE  H17X11600   0.692   2.913   4.452  0.1127  0.4148  2.1741
  111SAPE  H17Y11601   0.779   2.981   4.312  3.0112 -0.8533 -0.7865
  111SAPE  C31811602   0.846   3.050   4.507 -0.3242  0.1350  0.0955
  111SAPE  H18X11603   0.795   3.148   4.499  2.0454  1.4402 -0.2157
  111SAPE  H18Y11604   0.948   3.083   4.476 -1.2097  2.0032 -1.0336
  111SAPE  H18Z11605   0.852   3.029   4.616  1.3187  1.6026  0.3457
  112SAPE     N11606   2.835   1.814   2.355 -0.5327 -0.2882 -0.0134
  112SAPE   HN111607   2.823   1.737   2.286 -1.6570 -1.1951  1.1551
  112SAPE   HN211608   2.790   1.790   2.445  1.5798  0.0439  1.2149
  112SAPE   HN311609   2.794   1.904   2.323 -1.5377 -0.1339  1.5958
  112SAPE   C1211610   2.985   1.826   2.376 -0.4850 -0.0412  0.4134
  112SAPE  H12A11611   3.030   1.749   2.442  1.6079  1.3434  0.7326
  112SAPE  H12B11612   3.002   1.922   2.429 -1.2584  0.6095 -0.4881
  112SAPE   C1111613   3.068   1.822   2.240 -0.1755 -0.0926  0.2122
  112SAPE  H11A11614   3.177   1.841   2.254  0.4523 -2.0199 -1.5621
  112SAPE  H11B11615   3.019   1.894   2.170  0.3281 -1.1813 -1.3068
  112SAPE     P11616   3.154   1.652   2.067  0.1641  0.3891  0.2739
  112SAPE   O1311617   3.102   1.533   1.998  0.3129 -0.4316  0.5256
  112SAPE   O1411618   3.181   1.772   1.982  0.1526  0.1948 -0.2797
  112SAPE   O1211619   3.059   1.687   2.187 -0.1188 -0.3458  0.5737
  112SAPE   O1111620   3.290   1.607   2.134 -0.3594  0.3882  0.0383
  112SAPE    C111621   3.290   1.515   2.243 -0.3444  0.2042 -0.9442
  112SAPE    HA11622   3.208   1.532   2.316  1.1362  2.0481  0.3947
  112SAPE    HB11623   3.296   1.409   2.209 -0.1413 -0.0758 -0.0540
  112SAPE    C211624   3.421   1.527   2.329  0.7028 -0.2459 -0.4896
  112SAPE    HS11625   3.406   1.473   2.425 -0.1718 -0.0232 -0.4974
  112SAPE   O2111626   3.462   1.660   2.347 -0.7550  0.1345  0.1039
  112SAPE   C2111627   3.378   1.724   2.431 -1.0753 -0.9517  0.1107
  112SAPE   O2211628   3.296   1.670   2.505  0.4318 -0.4936  0.2913
  112SAPE   C2211629   3.419   1.879   2.429 -0.0713  0.1233 -0.7074
  112SAPE   H2R11630   3.449   1.905   2.325 -1.9700  1.7822 -0.8919
  112SAPE   H2S11631   3.330   1.936   2.462 -1.6888 -2.5465 -0.1385
  112SAPE    C311632   3.533   1.433   2.274 -0.5060 -0.2222 -0.3317
  112SAPE    HX11633   3.562   1.466   2.172  2.3141  0.7701  0.7070
  112SAPE    HY11634   3.493   1.329   2.275 -1.7634  0.1964 -1.9647
  112SAPE   O3111635   3.639   1.415   2.366  0.0826 -0.4257 -0.0174
  112SAPE   C3111636   3.758   1.467   2.332  0.6255  0.0412 -0.0033
  112SAPE   O3211637   3.785   1.496   2.217 -0.3870 -0.2962  0.0115
  112SAPE   C3211638   3.842   1.489   2.455 -0.6605 -0.3441 -0.0734
  112SAPE   H2X11639   3.948   1.511   2.427  0.2407 -1.6697  2.0172
  112SAPE   H2Y11640   3.856   1.399   2.519  0.5976  0.9980  1.6549
  112SAPE   C2311641   3.535   1.910   2.523 -0.0852 -0.1959  0.7984
  112SAPE   H3R11642   3.634   1.884   2.479  0.1380  0.6119  0.7908
  112SAPE   H3S11643   3.537   1.850   2.616  0.6952 -0.1179  0.8471
  112SAPE   C2411644   3.536   2.057   2.576  0.3932 -0.2229  0.6090
  112SAPE   H4R11645   3.532   2.136   2.497  0.9316 -2.1564 -1.4618
  112SAPE   H4S11646   3.637   2.067   2.620  1.7274 -0.6942 -2.1113
  112SAPE   C2511647   3.433   2.098   2.679  0.3114 -0.2971 -0.0947
  112SAPE   H5R11648   3.342   2.129   2.626 -0.5219 -1.9101  0.3532
  112SAPE   C2611649   3.448   2.090   2.811 -0.1834  0.7656  0.0488
  112SAPE   H6R11650   3.364   2.116   2.878 -1.3788 -1.4319 -0.5051
  112SAPE   C2711651   3.579   2.044   2.883  0.7764 -0.4937  0.0228
  112SAPE   H7R11652   3.570   2.099   2.979 -1.7618  2.2746 -1.6207
  112SAPE   H7S11653   3.676   2.080   2.841  0.2689  0.4669 -0.3436
  112SAPE   C2811654   3.591   1.902   2.904 -0.4030  0.0623 -0.1684
  112SAPE   H8R11655   3.535   1.845   2.829  1.8899 -0.8516 -1.2914
  112SAPE   C2911656   3.636   1.825   3.007  0.4424 -0.2617  0.5618
  112SAPE   H9R11657   3.629   1.715   3.002  0.6467 -0.2278 -2.2298
  112SAPE  C21011658   3.696   1.886   3.131 -0.2871 -1.0129  0.4374
  112SAPE  H10R11659   3.713   1.995   3.120 -2.8171 -0.7703 -2.7795
  112SAPE  H10S11660   3.795   1.836   3.143  0.0497 -0.6033 -0.4795
  112SAPE  C21111661   3.604   1.869   3.250 -0.0197 -0.1958 -0.2430
  112SAPE  H11R11662   3.500   1.898   3.231 -0.2151  0.9960  2.2372
  112SAPE  C21211663   3.651   1.849   3.381 -0.2112 -0.2626 -0.5204
  112SAPE  H12R11664   3.576   1.839   3.461  0.5581  2.1893  0.6158
  112SAPE  C21311665   3.795   1.835   3.430 -0.2793 -0.0305  0.2904
  112SAPE  H13R11666   3.854   1.773   3.359 -0.4485  0.7311 -0.5229
  112SAPE  H13S11667   3.802   1.772   3.521 -0.9230  1.5093  1.4540
  112SAPE  C21411668   3.851   1.973   3.444  0.6735 -0.0721 -0.1447
  112SAPE  H14R11669   3.847   2.038   3.356  1.2201  0.3668  0.1513
  112SAPE  C21511670   3.871   2.033   3.561 -0.3083 -0.0605 -0.3152
  112SAPE  H15R11671   3.915   2.132   3.576  1.3581 -0.8963  0.5728
  112SAPE  C21611672   3.873   1.974   3.697  0.0460  0.0763 -0.0984
  112SAPE  H16R11673   3.816   1.879   3.708 -1.1047  0.6410 -1.0193
  112SAPE  H16S11674   3.820   2.052   3.755 -0.2892 -0.0196 -0.2731
  112SAPE  C21711675   4.016   1.945   3.747  0.2582  0.3569 -0.0434
  112SAPE  H17R11676   4.077   2.036   3.766 -0.7433  0.5619  2.5216
  112SAPE  H17S11677   4.079   1.879   3.683 -1.4757 -2.6414  1.1146
  112SAPE  C21811678   4.005   1.870   3.880  0.0057  0.6328  0.0968
  112SAPE  H18R11679   4.101   1.818   3.900 -0.3654  0.6389  2.1399
  112SAPE  H18S11680   3.934   1.786   3.868  0.9968 -0.3185  0.7545
  112SAPE  C21911681   3.965   1.958   4.002  0.0444 -0.1105  0.0135
  112SAPE  H19R11682   3.928   1.889   4.080 -0.1279  2.0092  1.9362
  112SAPE  H19S11683   3.886   2.026   3.964  1.8659  0.5582 -2.8808
  112SAPE  C22011684   4.077   2.047   4.063 -0.0129  0.2695 -0.3472
  112SAPE  H20R11685   4.124   2.117   3.990  2.0160 -0.5443  0.0857
  112SAPE  H20S11686   4.159   1.979   4.096  0.6896  1.6727  0.8988
  112SAPE  H20T11687   4.041   2.101   4.153  0.3130 -2.0441  1.2668
  112SAPE   C3311688   3.792   1.601   2.549 -0.0725 -0.0794 -0.1682
  112SAPE   H3X11689   3.753   1.691   2.496 -1.8513  0.0949  1.3406
  112SAPE   H3Y11690   3.873   1.628   2.619 -1.3634  1.5892  0.7566
  112SAPE   C3411691   3.678   1.563   2.647  0.0878 -0.5136  0.0054
  112SAPE   H4X11692   3.594   1.509   2.598 -1.1724  2.9426 -2.0322
  112SAPE   H4Y11693   3.639   1.658   2.690  0.7423 -0.6769  0.9982
  112SAPE   C3511694   3.748   1.485   2.761  0.1609 -0.2026 -0.1222
  112SAPE   H5X11695   3.818   1.556   2.809  1.3453 -0.5920 -1.2239
  112SAPE   H5Y11696   3.812   1.401   2.726  0.7472  0.6985 -1.3008
  112SAPE   C3611697   3.638   1.436   2.858  0.7411 -0.1264 -0.0907
  112SAPE   H6X11698   3.578   1.348   2.827 -3.6336  2.6971 -0.5639
  112SAPE   H6Y11699   3.557   1.506   2.888 -0.5391 -1.3755 -0.5165
  112SAPE   C3711700   3.712   1.407   2.995  0.3141  0.0888 -0.2684
  112SAPE   H7X11701   3.797   1.478   3.005  0.5460 -0.1879 -0.2649
  112SAPE   H7Y11702   3.757   1.306   3.004 -0.6316 -0.2698  0.6975
  112SAPE   C3811703   3.630   1.415   3.125 -0.3170  0.6426  0.9354
  112SAPE   H8X11704   3.555   1.333   3.118  0.8831 -0.5136  1.2472
  112SAPE   H8Y11705   3.563   1.504   3.127  0.2987  1.1190  0.4474
  112SAPE   C3911706   3.720   1.404   3.244  0.3093 -0.4781  0.4905
  112SAPE   H9X11707   3.804   1.472   3.219  0.5097 -1.1614 -0.8024
  112SAPE   H9Y11708   3.765   1.305   3.266  1.0144  0.1372  1.9871
  112SAPE  C31011709   3.659   1.451   3.380  0.5924 -0.5930  0.1986
  112SAPE  H10X11710   3.586   1.377   3.421 -1.1310  2.2556  2.6839
  112SAPE  H10Y11711   3.600   1.541   3.352  1.0430 -0.1217  0.7503
  112SAPE  C31111712   3.753   1.485   3.495 -0.1537  0.2625 -0.0079
  112SAPE  H11X11713   3.815   1.569   3.458 -2.3075  1.6402 -0.6638
  112SAPE  H11Y11714   3.826   1.402   3.513 -1.1016 -0.6065 -0.1016
  112SAPE  C31211715   3.676   1.525   3.619 -0.0762  0.2047  0.4111
  112SAPE  H12X11716   3.606   1.441   3.641 -1.5917  1.6128  1.1083
  112SAPE  H12Y11717   3.609   1.612   3.604  1.2702  1.1259 -0.4137
  112SAPE  C31311718   3.782   1.547   3.735  0.1676 -0.1348 -0.3134
  112SAPE  H13X11719   3.861   1.619   3.705  1.5242 -1.3517  0.1725
  112SAPE  H13Y11720   3.841   1.455   3.758  0.9645  0.8667  1.9984
  112SAPE  C31411721   3.715   1.608   3.859  0.0522  0.1791  0.0116
  112SAPE  H14X11722   3.663   1.705   3.844 -1.1031 -0.4924 -0.5099
  112SAPE  H14Y11723   3.797   1.616   3.934  0.5266 -0.5839 -0.4138
  112SAPE  C31511724   3.610   1.515   3.912 -0.1175  0.1320 -0.0168
  112SAPE  H15X11725   3.652   1.412   3.917  1.9369  0.9728  1.1537
  112SAPE  H15Y11726   3.524   1.524   3.842  0.8128  0.8594 -1.0863
  112SAPE  C31611727   3.571   1.571   4.051  0.3990 -0.8867  0.4976
  112SAPE  H16X11728   3.537   1.675   4.034  0.3362 -1.1941 -1.5677
  112SAPE  H16Y11729   3.656   1.571   4.123  1.2254 -3.7927 -0.3173
  112SAPE  C31711730   3.453   1.498   4.122 -0.3272 -0.3712 -0.0321
  112SAPE  H17X11731   3.481   1.394   4.152 -0.0410  0.1979  1.8132
  112SAPE  H17Y11732   3.360   1.490   4.062 -1.0241 -1.7640  1.1539
  112SAPE  C31811733   3.412   1.576   4.250 -0.3406  0.0129  0.4354
  112SAPE  H18X11734   3.332   1.516   4.300  0.5115 -0.1754  1.6216
  112SAPE  H18Y11735   3.381   1.682   4.234  2.2900  0.5094 -2.1240
  112SAPE  H18Z11736   3.501   1.575   4.317  2.8809 -2.5995 -3.4478
  113SAPE     N11737   3.793   5.242   2.314 -0.5194 -0.3725 -0.0873
  113SAPE   HN111738   3.767   5.314   2.244  0.5890 -0.1945 -0.3353
  113SAPE   HN211739   3.717   5.244   2.385 -0.5606 -0.0679 -0.1366
  113SAPE   HN311740   3.878   5.271   2.366 -1.0548  0.3030  0.4423
  113SAPE   C1211741   3.813   5.120   2.229 -1.0724  0.6029  0.0527
  113SAPE  H12A11742   3.747   5.135   2.141 -1.0760  0.1976 -0.0143
  113SAPE  H12B11743   3.778   5.028   2.281 -0.7837 -0.6884 -1.9467
  113SAPE   C1111744   3.957   5.111   2.176  0.0030  0.1603 -0.4152
  113SAPE  H11A11745   3.985   5.186   2.100  0.5419 -0.9086 -1.3005
  113SAPE  H11B11746   3.964   5.023   2.108 -1.5293  1.2146 -2.0269
  113SAPE     P11747   4.135   5.222   2.324 -0.3727 -0.3321  0.1967
  113SAPE   O1311748   4.215   5.270   2.204  0.2195 -0.1120 -0.1187
  113SAPE   O1411749   4.047   5.317   2.389  0.0521 -0.0718  0.2871
  113SAPE   O1211750   4.049   5.101   2.283 -0.3015  0.2789  0.5532
  113SAPE   O1111751   4.238   5.159   2.432 -0.0118 -0.0994 -0.4743
  113SAPE    C111752   4.222   5.059   2.523 -0.3658  0.0848  0.3641
  113SAPE    HA11753   4.128   5.000   2.510 -0.7055  1.0486 -2.2349
  113SAPE    HB11754   4.304   4.984   2.520  0.8802  1.3951  0.5401
  113SAPE    C211755   4.226   5.130   2.657 -0.2138 -0.1747 -0.0314
  113SAPE    HS11756   4.262   5.061   2.736  0.4922 -1.9078 -1.7846
  113SAPE   O2111757   4.096   5.179   2.696 -0.0167 -0.5604  0.3127
  113SAPE   C2111758   4.064   5.197   2.824  0.2290 -0.2772  0.3137
  113SAPE   O2211759   4.127   5.150   2.918  0.2366  0.3756  0.4370
  113SAPE   C2211760   3.928   5.271   2.829 -0.4786  0.3780  0.4157
  113SAPE   H2R11761   3.921   5.328   2.734 -0.1675  0.1599  0.2578
  113SAPE   H2S11762   3.846   5.197   2.826  0.5371 -0.8288  1.3784
  113SAPE    C311763   4.335   5.246   2.656 -1.3247 -0.4976  0.0290
  113SAPE    HX11764   4.304   5.327   2.587  0.0363 -0.0950 -0.1481
  113SAPE    HY11765   4.429   5.210   2.608 -1.0050  0.3973 -0.0293
  113SAPE   O3111766   4.355   5.308   2.787 -0.1609  0.0147  0.1152
  113SAPE   C3111767   4.430   5.247   2.875 -0.1461  0.0033  0.2099
  113SAPE   O3211768   4.501   5.150   2.857  0.3848  0.2452  0.0228
  113SAPE   C3211769   4.405   5.305   3.014 -0.3229  0.6954 -0.2284
  113SAPE   H2X11770   4.337   5.394   3.016  1.5010  2.2047  3.1844
  113SAPE   H2Y11771   4.504   5.338   3.051  0.1087 -1.6114  0.8274
  113SAPE   C2311772   3.902   5.358   2.951  0.5751  0.5939 -0.0785
  113SAPE   H3R11773   3.968   5.448   2.952  1.3061  0.0662  0.2756
  113SAPE   H3S11774   3.934   5.308   3.045  2.1365  2.3438  0.3878
  113SAPE   C2411775   3.758   5.396   2.968 -0.3114 -0.1865  0.1415
  113SAPE   H4R11776   3.751   5.436   3.071  1.8366  0.3744  0.1271
  113SAPE   H4S11777   3.697   5.304   2.970 -0.2760 -0.2465 -0.9164
  113SAPE   C2511778   3.714   5.509   2.872  0.5967  0.3187 -0.0521
  113SAPE   H5R11779   3.731   5.485   2.766 -0.2007  1.2295 -0.4100
  113SAPE   C2611780   3.665   5.636   2.902 -0.0626 -0.4524 -0.2107
  113SAPE   H6R11781   3.640   5.709   2.824 -0.6762  0.8130  1.1300
  113SAPE   C2711782   3.665   5.693   3.041 -0.4917 -0.2231 -0.8982
  113SAPE   H7R11783   3.653   5.803   3.037  0.0838 -0.0921  0.3825
  113SAPE   H7S11784   3.769   5.686   3.080 -0.9484 -0.9622  0.2525
  113SAPE   C2811785   3.561   5.635   3.137  0.5136  0.6167 -0.5018
  113SAPE   H8R11786   3.534   5.533   3.106  1.5110  0.1946 -0.0255
  113SAPE   C2911787   3.521   5.683   3.255  0.2244 -0.2366  0.3236
  113SAPE   H9R11788   3.440   5.634   3.310 -0.0630  0.1213  0.2171
  113SAPE  C21011789   3.564   5.810   3.318  0.6124  0.3160  0.1875
  113SAPE  H10R11790   3.489   5.843   3.394  0.7832  1.3739 -0.0836
  113SAPE  H10S11791   3.573   5.895   3.247 -0.2333  0.8305  0.6781
  113SAPE  C21111792   3.698   5.789   3.380  0.0132  0.0819  0.0655
  113SAPE  H11R11793   3.764   5.736   3.310  1.2007  0.8715  0.5709
  113SAPE  C21211794   3.738   5.820   3.504  0.1589 -0.5293  0.6267
  113SAPE  H12R11795   3.843   5.800   3.529  1.2061 -0.6288 -3.2570
  113SAPE  C21311796   3.649   5.880   3.609  0.1331 -0.3457  0.0795
  113SAPE  H13R11797   3.652   5.811   3.696  0.3227 -1.6665 -0.9264
  113SAPE  H13S11798   3.542   5.899   3.582  0.6007  2.6805  0.0476
  113SAPE  C21411799   3.711   6.014   3.640  0.0285  0.1743  0.2639
  113SAPE  H14R11800   3.728   6.080   3.553 -0.1643 -0.0525  0.0530
  113SAPE  C21511801   3.737   6.061   3.764 -0.0353 -0.0205  0.0661
  113SAPE  H15R11802   3.782   6.160   3.777 -0.8414  0.7897 -2.7925
  113SAPE  C21611803   3.727   5.981   3.894 -0.4678  0.0555 -0.7382
  113SAPE  H16R11804   3.830   5.968   3.933 -0.0534  2.7326 -0.7552
  113SAPE  H16S11805   3.690   5.877   3.880  1.0243 -0.4375 -1.1474
  113SAPE  C21711806   3.637   6.048   3.999  0.1139  0.5236 -0.1538
  113SAPE  H17R11807   3.677   6.151   4.007  1.2060  0.3773 -2.9350
  113SAPE  H17S11808   3.659   6.004   4.099  0.1403  2.7489  0.8806
  113SAPE  C21811809   3.491   6.048   3.961 -0.4595  0.1060  0.0894
  113SAPE  H18R11810   3.458   5.944   3.942 -2.7223  0.5659  1.1366
  113SAPE  H18S11811   3.467   6.100   3.866  0.3207 -0.5633 -0.4882
  113SAPE  C21911812   3.400   6.102   4.074 -0.2570  0.4887 -0.0979
  113SAPE  H19R11813   3.401   6.213   4.068  1.3855  0.4285 -3.4712
  113SAPE  H19S11814   3.443   6.071   4.171 -0.5369 -0.7886 -0.3706
  113SAPE  C22011815   3.252   6.056   4.061  0.3070 -0.3811 -0.3888
  113SAPE  H20R11816   3.219   6.073   3.956 -0.2340  1.8274  0.0906
  113SAPE  H20S11817   3.197   6.098   4.149 -0.6877  0.5723 -1.4275
  113SAPE  H20T11818   3.234   5.947   4.058 -0.0486 -0.3651  0.7168
  113SAPE   C3311819   4.364   5.203   3.126  0.0907 -0.4287  0.1480
  113SAPE   H3X11820   4.433   5.115   3.122  1.1636  0.4287 -1.1316
  113SAPE   H3Y11821   4.258   5.178   3.107  0.1006  0.8383 -1.9842
  113SAPE   C3411822   4.391   5.267   3.270  0.7804  0.8875 -0.0068
  113SAPE   H4X11823   4.325   5.355   3.288 -0.3137 -0.0037  0.4632
  113SAPE   H4Y11824   4.498   5.297   3.269  0.4626  2.0716 -0.4093
  113SAPE   C3511825   4.353   5.183   3.389  0.3927  0.2268  0.4547
  113SAPE   H5X11826   4.412   5.089   3.387 -1.5565 -1.0290 -0.6656
  113SAPE   H5Y11827   4.254   5.134   3.388  0.6647 -0.3333 -1.1082
  113SAPE   C3611828   4.370   5.257   3.529 -0.0724  0.0538 -0.0820
  113SAPE   H6X11829   4.292   5.336   3.527 -1.9765 -1.6575  1.2399
  113SAPE   H6Y11830   4.473   5.296   3.532  0.3901 -1.1565  2.5559
  113SAPE   C3711831   4.340   5.167   3.652  0.1864  0.0592  0.2211
  113SAPE   H7X11832   4.400   5.074   3.646 -0.7707 -0.5676  0.0937
  113SAPE   H7Y11833   4.238   5.124   3.638 -0.5801  1.8767 -0.1684
  113SAPE   C3811834   4.350   5.242   3.790  0.3632 -0.2978  0.8158
  113SAPE   H8X11835   4.458   5.262   3.804  0.3629 -0.6891  1.4461
  113SAPE   H8Y11836   4.281   5.330   3.791 -0.6029 -0.9943 -0.6707
  113SAPE   C3911837   4.308   5.145   3.901  0.6301  0.1539  0.0163
  113SAPE   H9X11838   4.342   5.164   4.005  0.8055  2.1194 -0.3648
  113SAPE   H9Y11839   4.356   5.047   3.880 -0.0890  0.1315 -1.6522
  113SAPE  C31011840   4.155   5.122   3.902 -0.1252  0.3107  0.2644
  113SAPE  H10X11841   4.106   5.143   3.805  0.3672  1.2244  0.2044
  113SAPE  H10Y11842   4.113   5.193   3.976  0.6503 -1.4804  2.5802
  113SAPE  C31111843   4.109   4.988   3.937 -0.0900  0.0749 -0.2267
  113SAPE  H11X11844   4.139   4.927   3.849  2.8251  2.2764 -0.9152
  113SAPE  H11Y11845   3.999   4.976   3.951  0.2570 -2.3738  1.0243
  113SAPE  C31211846   4.158   4.923   4.066  0.1529 -0.0533 -0.1158
  113SAPE  H12X11847   4.266   4.899   4.061  0.1391  0.1997 -2.9104
  113SAPE  H12Y11848   4.104   4.826   4.060 -2.2109  1.1736  0.1597
  113SAPE  C31311849   4.123   5.017   4.191 -0.4651  0.5123 -0.6299
  113SAPE  H13X11850   4.021   5.053   4.167 -1.2502 -0.9662  0.3192
  113SAPE  H13Y11851   4.202   5.096   4.193  0.1349 -0.0845  0.1630
  113SAPE  C31411852   4.142   4.939   4.320  0.2206 -0.3718 -0.6563
  113SAPE  H14X11853   4.249   4.907   4.314  0.4934  0.6535 -1.7146
  113SAPE  H14Y11854   4.080   4.847   4.324  1.0815 -0.9210  1.1359
  113SAPE  C31511855   4.114   5.015   4.453  0.3642 -0.5468  0.3535
  113SAPE  H15X11856   4.020   5.074   4.462 -0.4937 -2.1036  2.3503
  113SAPE  H15Y11857   4.200   5.084   4.472 -0.4633  0.3132  1.0697
  113SAPE  C31611858   4.105   4.916   4.575 -0.2363  0.8144 -0.4001
  113SAPE  H16X11859   4.197   4.854   4.574 -0.5890  0.2142  1.2369
  113SAPE  H16Y11860   4.016   4.865   4.532  0.2845 -0.2345 -0.2653
  113SAPE  C31711861   4.076   4.978   4.708 -0.1641  0.2065 -0.5510
  113SAPE  H17X11862   3.977   5.028   4.718 -0.7808 -0.6070 -2.1375
  113SAPE  H17Y11863   4.152   5.058   4.714 -1.0440  1.3260 -3.0727
  113SAPE  C31811864   4.104   4.887   4.823 -0.2492 -0.4001 -0.0285
  113SAPE  H18X11865   4.124   4.959   4.905  1.7260  2.5942 -2.8632
  113SAPE  H18Y11866   4.194   4.831   4.789 -0.8459  0.5317 -3.5626
  113SAPE  H18Z11867   4.024   4.816   4.852  1.4481 -3.2378 -1.7997
  114SAPE     N11868   5.561   1.990   1.983  0.0288 -0.4201 -0.0676
  114SAPE   HN111869   5.596   1.974   2.079  0.1188  1.2989  0.2313
  114SAPE   HN211870   5.605   1.916   1.924 -1.6797 -1.6134  0.0774
  114SAPE   HN311871   5.587   2.085   1.948 -1.9039  0.5196  0.8414
  114SAPE   C1211872   5.417   1.964   1.990 -1.1985 -0.3764 -0.8450
  114SAPE  H12A11873   5.365   2.026   1.914 -1.0055  2.0465  0.8722
  114SAPE  H12B11874   5.378   1.992   2.090 -0.1687 -2.1871  0.0989
  114SAPE   C1111875   5.406   1.822   1.956 -0.3160  0.2853  0.7296
  114SAPE  H11A11876   5.452   1.797   1.858 -1.9317  1.8408 -0.5054
  114SAPE  H11B11877   5.298   1.810   1.936  0.3076  0.1320 -3.5203
  114SAPE     P11878   5.388   1.586   2.062 -0.0650 -0.6390  0.5961
  114SAPE   O1311879   5.370   1.542   1.918 -0.2552 -0.4051 -0.1710
  114SAPE   O1411880   5.469   1.495   2.138 -0.4304  0.5895  0.0148
  114SAPE   O1211881   5.443   1.736   2.063  0.1688 -0.1419 -0.0998
  114SAPE   O1111882   5.242   1.601   2.130  0.0484  0.3681  0.1797
  114SAPE    C111883   5.223   1.554   2.261 -0.1257  0.7904  0.4476
  114SAPE    HA11884   5.117   1.526   2.275  0.3513 -1.9497 -0.7947
  114SAPE    HB11885   5.269   1.453   2.273  0.2226  0.6340 -1.8097
  114SAPE    C211886   5.256   1.661   2.365 -0.7033  0.3202  0.1080
  114SAPE    HS11887   5.347   1.710   2.326 -1.9530  0.4926 -2.7926
  114SAPE   O2111888   5.273   1.606   2.498 -0.1756 -0.2120 -0.4517
  114SAPE   C2111889   5.397   1.576   2.529 -0.3874  0.1423 -0.3791
  114SAPE   O2211890   5.493   1.587   2.449  0.0891  0.1838  0.2194
  114SAPE   C2211891   5.411   1.504   2.663  0.4784  0.3853  0.2768
  114SAPE   H2R11892   5.391   1.578   2.743  0.4708  0.1457  0.4956
  114SAPE   H2S11893   5.344   1.417   2.654  0.5452  0.3747 -0.1423
  114SAPE    C311894   5.131   1.759   2.358 -0.0885 -0.1832  0.0719
  114SAPE    HX11895   5.039   1.707   2.392 -1.2784  1.9489  0.2567
  114SAPE    HY11896   5.122   1.794   2.253  2.6273  0.6178  0.0204
  114SAPE   O3111897   5.144   1.856   2.466  0.0607  0.4108 -0.6547
  114SAPE   C3111898   5.209   1.965   2.430 -0.0554 -0.3324  0.0051
  114SAPE   O3211899   5.241   1.995   2.313 -0.7539  0.7645 -0.3861
  114SAPE   C3211900   5.250   2.060   2.550 -0.1902 -1.1068  0.2078
  114SAPE   H2X11901   5.210   2.159   2.517  0.3358 -1.5157 -1.8071
  114SAPE   H2Y11902   5.361   2.063   2.548 -0.2038 -0.6523 -0.4156
  114SAPE   C2311903   5.556   1.457   2.692  0.7331 -0.0704  0.3763
  114SAPE   H3R11904   5.629   1.540   2.687 -0.4553  0.9425 -1.0395
  114SAPE   H3S11905   5.589   1.393   2.608 -2.7879  0.4033 -1.5778
  114SAPE   C2411906   5.559   1.382   2.829  0.1388 -0.6585  0.0024
  114SAPE   H4R11907   5.505   1.286   2.811 -1.4785  0.3677 -0.8878
  114SAPE   H4S11908   5.491   1.446   2.890 -0.7743 -0.9799 -0.6499
  114SAPE   C2511909   5.706   1.378   2.877  0.5314  0.1820  0.1689
  114SAPE   H5R11910   5.747   1.474   2.910 -1.0946  1.8559 -2.3773
  114SAPE   C2611911   5.786   1.271   2.884  0.6841  0.4070  1.0011
  114SAPE   H6R11912   5.892   1.285   2.912  0.8785  1.5824 -0.2295
  114SAPE   C2711913   5.747   1.134   2.833  0.2271 -0.2373 -0.2504
  114SAPE   H7R11914   5.671   1.138   2.752 -0.0133 -0.0303 -0.0159
  114SAPE   H7S11915   5.692   1.067   2.903 -0.6796  1.1458  0.4123
  114SAPE   C2811916   5.863   1.059   2.766  0.6761  0.3153  1.2019
  114SAPE   H8R11917   5.884   1.103   2.667  0.3464  1.6443  1.6991
  114SAPE   C2911918   5.916   0.943   2.798 -0.1069 -0.5764 -0.3655
  114SAPE   H9R11919   6.008   0.923   2.742  0.0281 -1.3933  0.1322
  114SAPE  C21011920   5.898   0.860   2.924  0.7899 -0.2271  0.0690
  114SAPE  H10R11921   5.839   0.773   2.888  0.4523 -0.0964  0.3000
  114SAPE  H10S11922   5.838   0.922   2.995  1.6412 -2.6863  3.1347
  114SAPE  C21111923   6.022   0.815   2.994 -0.4956  0.2216  0.4134
  114SAPE  H11R11924   6.060   0.730   2.935 -0.1192  1.3080 -0.9902
  114SAPE  C21211925   6.080   0.856   3.109  0.4112 -0.3848  0.0298
  114SAPE  H12R11926   6.172   0.817   3.156  0.1843  0.8114  1.5434
  114SAPE  C21311927   6.021   0.952   3.205  0.1482  0.1283  0.0144
  114SAPE  H13R11928   5.952   0.894   3.269  0.4129  1.7698  1.8725
  114SAPE  H13S11929   5.959   1.029   3.153  1.4133  0.3311 -1.2760
  114SAPE  C21411930   6.121   1.014   3.300 -0.7523  0.3705 -0.4183
  114SAPE  H14R11931   6.229   1.001   3.283  0.0369  3.2386  1.6737
  114SAPE  C21511932   6.094   1.092   3.402 -0.2092 -0.0337  0.7431
  114SAPE  H15R11933   6.177   1.138   3.457 -1.2542  3.2329 -0.2021
  114SAPE  C21611934   5.952   1.138   3.446  0.2441  0.4210 -0.0316
  114SAPE  H16R11935   5.873   1.068   3.412 -0.7921  1.8337 -0.6300
  114SAPE  H16S11936   5.934   1.238   3.400 -1.3601 -0.6867 -2.0274
  114SAPE  C21711937   5.927   1.136   3.603 -0.3899 -0.2459  0.2090
  114SAPE  H17R11938   5.829   1.189   3.608 -0.1981  0.0108  3.0337
  114SAPE  H17S11939   6.004   1.199   3.652 -0.3338  1.0519 -1.4553
  114SAPE  C21811940   5.914   0.993   3.652  0.0545  0.0937  0.5553
  114SAPE  H18R11941   5.937   0.988   3.761  1.3423  0.2345  0.3002
  114SAPE  H18S11942   5.991   0.927   3.608 -0.2738 -1.1722  1.7954
  114SAPE  C21911943   5.776   0.927   3.629  0.1441 -0.3415  0.3563
  114SAPE  H19R11944   5.709   1.003   3.583 -0.8207 -0.6977  1.1360
  114SAPE  H19S11945   5.737   0.906   3.730  1.6653 -2.9028  0.4868
  114SAPE  C22011946   5.778   0.800   3.537 -0.0545 -0.1738  0.3464
  114SAPE  H20R11947   5.872   0.744   3.554 -0.4395 -1.1100 -0.5467
  114SAPE  H20S11948   5.784   0.836   3.432  2.3846 -0.3070  0.3911
  114SAPE  H20T11949   5.684   0.740   3.540 -0.0218 -0.2073  0.7572
  114SAPE   C3311950   5.182   2.025   2.685 -0.0349  0.1342 -0.0185
  114SAPE   H3X11951   5.213   1.922   2.714 -0.3824 -0.5019 -1.7665
  114SAPE   H3Y11952   5.072   2.019   2.673 -0.2120 -0.0633  1.4993
  114SAPE   C3411953   5.208   2.132   2.790  0.5392  0.3324  0.3807
  114SAPE   H4X11954   5.151   2.221   2.756 -1.4417 -1.0665 -0.1170
  114SAPE   H4Y11955   5.315   2.161   2.797  0.3035  1.2956  0.0578
  114SAPE   C3511956   5.154   2.094   2.936  0.0156  0.5792  0.1899
  114SAPE   H5X11957   5.220   2.010   2.965  0.5792  0.7980 -0.4337
  114SAPE   H5Y11958   5.050   2.055   2.933  1.0003 -2.2036 -0.9775
  114SAPE   C3611959   5.182   2.203   3.038 -0.0751  0.9193 -0.1669
  114SAPE   H6X11960   5.122   2.178   3.128 -2.2322 -0.9593 -2.0031
  114SAPE   H6Y11961   5.143   2.299   2.998 -0.6628 -0.0846 -2.1260
  114SAPE   C3711962   5.329   2.213   3.083  0.1359  0.1843  0.0043
  114SAPE   H7X11963   5.385   2.263   3.001  0.7825  0.3087  0.5141
  114SAPE   H7Y11964   5.378   2.118   3.111  0.7895  0.5633  0.1531
  114SAPE   C3811965   5.342   2.306   3.201 -0.2403  0.5835 -0.2075
  114SAPE   H8X11966   5.278   2.397   3.207 -2.1646 -0.5790 -1.9331
  114SAPE   H8Y11967   5.449   2.334   3.202 -0.0629  0.0701  2.4021
  114SAPE   C3911968   5.310   2.242   3.331  0.2726  0.3040 -0.6032
  114SAPE   H9X11969   5.362   2.145   3.344  2.0884  1.1734 -1.0662
  114SAPE   H9Y11970   5.202   2.217   3.325  0.1133  1.1406 -1.5773
  114SAPE  C31011971   5.337   2.337   3.443  0.3460 -0.1593 -0.1039
  114SAPE  H10X11972   5.266   2.422   3.448  0.7859  0.1492  2.4487
  114SAPE  H10Y11973   5.444   2.367   3.442  1.7961 -4.6474  0.2836
  114SAPE  C31111974   5.322   2.267   3.581  0.0522 -0.1093  0.0090
  114SAPE  H11X11975   5.362   2.164   3.580 -4.1832 -1.9810 -1.6477
  114SAPE  H11Y11976   5.214   2.250   3.601  0.4467  0.2805  2.9385
  114SAPE  C31211977   5.361   2.348   3.704 -0.5687 -0.9647 -0.2397
  114SAPE  H12X11978   5.298   2.439   3.715  1.1402  0.0441  2.2031
  114SAPE  H12Y11979   5.467   2.380   3.705 -1.3010  1.7293 -0.7250
  114SAPE  C31311980   5.348   2.268   3.835  0.0124 -0.2910 -0.6350
  114SAPE  H13X11981   5.411   2.177   3.824 -0.7656 -0.6953 -1.8673
  114SAPE  H13Y11982   5.242   2.238   3.847  0.3665 -1.3731 -0.0167
  114SAPE  C31411983   5.395   2.340   3.964 -0.1305  0.3648  0.1060
  114SAPE  H14X11984   5.339   2.434   3.981 -0.5733  0.4703 -1.7018
  114SAPE  H14Y11985   5.498   2.375   3.943  0.5018 -1.0484  0.7308
  114SAPE  C31511986   5.395   2.239   4.080 -0.7630  0.7559 -0.3061
  114SAPE  H15X11987   5.459   2.154   4.048 -0.4465  1.1929 -0.8326
  114SAPE  H15Y11988   5.297   2.193   4.103  0.0257  0.0008  1.8246
  114SAPE  C31611989   5.448   2.302   4.212 -0.1881  0.2262 -0.3652
  114SAPE  H16X11990   5.388   2.392   4.235  1.5630  1.0824  1.1474
  114SAPE  H16Y11991   5.555   2.333   4.204 -0.3098  0.3873 -1.6269
  114SAPE  C31711992   5.436   2.209   4.333  0.4994 -0.7457  0.0303
  114SAPE  H17X11993   5.484   2.252   4.423 -0.1732 -1.5670  0.8004
  114SAPE  H17Y11994   5.490   2.115   4.309  1.3735 -0.9905  2.6738
  114SAPE  C31811995   5.292   2.167   4.362  0.4510 -0.3674 -0.0872
  114SAPE  H18X11996   5.241   2.121   4.275 -0.6921 -0.6478  0.7027
  114SAPE  H18Y11997   5.235   2.254   4.403 -2.7899 -2.0003 -0.7906
  114SAPE  H18Z11998   5.288   2.092   4.443 -0.6229  1.5135  1.6867
  115SAPE     N11999   4.680   4.868   2.223 -0.4302 -0.2878  0.3175
  115SAPE   HN112000   4.714   4.819   2.138  0.3516  0.4411  0.1982
  115SAPE   HN212001   4.596   4.929   2.210  0.4380  0.5044 -2.0117
  115SAPE   HN312002   4.756   4.933   2.251  0.3188 -1.3198  0.7271
  115SAPE   C1212003   4.650   4.777   2.338  0.0239 -0.4337  0.0111
  115SAPE  H12A12004   4.556   4.724   2.310 -0.2743  0.8996 -1.6713
  115SAPE  H12B12005   4.645   4.838   2.430 -0.9389 -1.8003  0.9097
  115SAPE   C1112006   4.764   4.682   2.349  0.2907  0.4063 -0.6426
  115SAPE  H11A12007   4.743   4.604   2.425  2.1165  0.1078 -0.4155
  115SAPE  H11B12008   4.850   4.744   2.382  0.2139  0.5454 -0.7030
  115SAPE     P12009   4.741   4.491   2.157  0.1471 -0.3643  0.0699
  115SAPE   O1312010   4.612   4.462   2.224  0.2124 -0.4005 -0.1392
  115SAPE   O1412011   4.740   4.516   2.012  0.6858 -0.9432 -0.3285
  115SAPE   O1212012   4.802   4.622   2.226  0.2752 -0.2289  0.2915
  115SAPE   O1112013   4.845   4.383   2.182 -0.2231  0.4020 -0.1341
  115SAPE    C112014   4.941   4.385   2.291  0.0098 -0.3540 -0.1516
  115SAPE    HA12015   5.029   4.333   2.247  1.3385  0.0317  1.9343
  115SAPE    HB12016   4.973   4.486   2.322 -1.5293  0.1085  0.0085
  115SAPE    C212017   4.888   4.308   2.411 -0.1186  0.0763  0.2856
  115SAPE    HS12018   4.851   4.215   2.363 -0.7987  1.3612 -1.7975
  115SAPE   O2112019   4.791   4.387   2.484 -0.9696 -0.0372 -0.0454
  115SAPE   C2112020   4.675   4.324   2.504  0.6020 -0.0163  0.6108
  115SAPE   O2212021   4.643   4.217   2.453 -0.5661  0.2398 -0.0744
  115SAPE   C2212022   4.582   4.405   2.595 -0.2322 -0.4583 -0.9247
  115SAPE   H2R12023   4.589   4.512   2.565 -0.6701 -0.2348 -0.2480
  115SAPE   H2S12024   4.484   4.354   2.591 -0.6891  0.3693 -0.6038
  115SAPE    C312025   5.019   4.285   2.490  0.8575  0.5336  0.2261
  115SAPE    HX12026   5.062   4.381   2.527  4.3193 -0.0761 -1.7571
  115SAPE    HY12027   5.090   4.225   2.429 -0.4271 -0.7075 -0.0726
  115SAPE   O3112028   4.986   4.210   2.611 -0.0674 -0.0670 -0.4601
  115SAPE   C3112029   5.090   4.183   2.680  0.2627  0.4890 -0.7484
  115SAPE   O3212030   5.209   4.212   2.657 -0.0384  0.8886  0.6142
  115SAPE   C3212031   5.047   4.116   2.814 -0.0790  0.1300 -0.7825
  115SAPE   H2X12032   5.120   4.037   2.841 -0.6092 -1.1679 -2.9314
  115SAPE   H2Y12033   4.954   4.059   2.796  0.8856 -1.7083 -0.1951
  115SAPE   C2312034   4.646   4.401   2.735 -0.0194  0.2469  0.0408
  115SAPE   H3R12035   4.585   4.462   2.805 -0.7969  0.4414 -0.7852
  115SAPE   H3S12036   4.745   4.452   2.735 -0.0511  0.3521 -1.4111
  115SAPE   C2412037   4.668   4.255   2.779 -0.1512  0.6371 -0.8994
  115SAPE   H4R12038   4.718   4.262   2.878 -1.3567  2.1456 -0.3659
  115SAPE   H4S12039   4.736   4.206   2.706  0.2230  2.3000 -1.7147
  115SAPE   C2512040   4.553   4.156   2.799  0.1289  0.2885  0.0940
  115SAPE   H5R12041   4.511   4.121   2.703  1.4189  0.4271 -0.5316
  115SAPE   C2612042   4.491   4.136   2.917 -0.0989 -0.3402  0.3440
  115SAPE   H6R12043   4.399   4.077   2.921 -0.8595  0.6779 -1.2074
  115SAPE   C2712044   4.525   4.192   3.050  1.2302 -0.3867 -0.0118
  115SAPE   H7R12045   4.633   4.220   3.049  0.7343  1.7228 -0.5337
  115SAPE   H7S12046   4.519   4.111   3.125  0.8502 -1.3789 -1.0829
  115SAPE   C2812047   4.437   4.310   3.089 -0.1509  0.3888  0.5482
  115SAPE   H8R12048   4.436   4.400   3.026 -0.8122  0.4144  0.5803
  115SAPE   C2912049   4.373   4.328   3.205 -0.3181 -0.4064 -0.4613
  115SAPE   H9R12050   4.302   4.412   3.213 -1.9461 -1.7735 -0.2024
  115SAPE  C21012051   4.362   4.233   3.321 -0.1676 -0.3804 -0.1736
  115SAPE  H10R12052   4.460   4.193   3.354 -1.3151 -0.9291  2.8081
  115SAPE  H10S12053   4.301   4.148   3.285 -0.3943  0.4159 -1.8132
  115SAPE  C21112054   4.310   4.308   3.445  0.1854 -0.7300  0.1546
  115SAPE  H11R12055   4.242   4.392   3.425  1.0836 -0.3656 -1.5875
  115SAPE  C21212056   4.341   4.284   3.573 -0.5589  0.0079 -0.0373
  115SAPE  H12R12057   4.306   4.342   3.659 -1.4397  0.1050 -0.4476
  115SAPE  C21312058   4.426   4.165   3.618 -0.5746 -0.3620  0.7763
  115SAPE  H13R12059   4.434   4.086   3.541 -1.0198 -0.6032  0.9721
  115SAPE  H13S12060   4.375   4.122   3.707  0.7277 -0.4293  1.5148
  115SAPE  C21412061   4.568   4.201   3.678  0.4091 -0.3681  0.8285
  115SAPE  H14R12062   4.621   4.274   3.615  0.8967 -1.8092 -0.4663
  115SAPE  C21512063   4.635   4.155   3.785  0.0371  0.7535  0.6105
  115SAPE  H15R12064   4.730   4.210   3.800  1.0715  0.1076 -2.8068
  115SAPE  C21612065   4.604   4.050   3.891  0.4285 -0.3149 -0.1033
  115SAPE  H16R12066   4.619   3.948   3.850  2.4275  0.4837 -1.5065
  115SAPE  H16S12067   4.499   4.057   3.927  0.4052  2.0461 -0.4830
  115SAPE  C21712068   4.707   4.065   4.009 -0.2863  0.0735 -0.3154
  115SAPE  H17R12069   4.707   4.167   4.054  1.4029 -0.4995  1.0785
  115SAPE  H17S12070   4.811   4.053   3.974 -0.3756  0.5710 -0.7508
  115SAPE  C21812071   4.680   3.964   4.126  0.1959 -0.1311  0.6206
  115SAPE  H18R12072   4.654   3.863   4.087 -1.1300 -0.2326  1.7002
  115SAPE  H18S12073   4.591   4.006   4.177  0.5376  2.1452 -0.5519
  115SAPE  C21912074   4.789   3.951   4.229  0.7226 -0.2993  0.1544
  115SAPE  H19R12075   4.766   3.872   4.304  1.9577  1.6329  2.7080
  115SAPE  H19S12076   4.804   4.047   4.282 -0.8784  1.3251 -2.1701
  115SAPE  C22012077   4.925   3.926   4.170 -0.4093  0.1218  0.0228
  115SAPE  H20R12078   4.914   3.832   4.113 -2.4149 -0.8768  1.8942
  115SAPE  H20S12079   4.992   3.903   4.256  0.0361 -0.2164 -0.4070
  115SAPE  H20T12080   4.977   4.011   4.121  0.3042 -0.1926  0.2224
  115SAPE   C3312081   5.038   4.222   2.927 -0.2404  0.5564 -0.1314
  115SAPE   H3X12082   4.948   4.287   2.919  0.1216  1.4270  2.1784
  115SAPE   H3Y12083   5.131   4.283   2.923  2.0596 -2.7658 -2.0586
  115SAPE   C3412084   5.033   4.160   3.073 -0.5329  0.0801  0.5897
  115SAPE   H4X12085   5.117   4.087   3.077 -0.2309  0.3099 -0.8283
  115SAPE   H4Y12086   4.939   4.102   3.066 -1.1520  1.2878 -2.5038
  115SAPE   C3512087   5.041   4.263   3.187  0.1873  0.9019  0.0333
  115SAPE   H5X12088   4.952   4.330   3.182 -0.8359 -0.1706  2.2666
  115SAPE   H5Y12089   5.130   4.327   3.171  0.1818  0.3318 -2.8558
  115SAPE   C3612090   5.044   4.198   3.331 -0.3411 -0.8453 -0.1237
  115SAPE   H6X12091   5.059   4.277   3.408  0.4711 -0.8974 -0.2185
  115SAPE   H6Y12092   5.137   4.138   3.331  0.7188  0.6897  1.4524
  115SAPE   C3712093   4.914   4.122   3.350 -1.1072 -0.1938 -1.0657
  115SAPE   H7X12094   4.920   4.049   3.266 -0.0667  0.9975 -2.0616
  115SAPE   H7Y12095   4.832   4.193   3.324  0.8035  2.8249  0.5797
  115SAPE   C3812096   4.894   4.061   3.492 -0.6671 -0.2496 -0.0425
  115SAPE   H8X12097   4.791   4.020   3.492 -1.6363  2.0398  0.5012
  115SAPE   H8Y12098   4.905   4.145   3.565 -1.0303 -0.6492  0.4861
  115SAPE   C3912099   5.000   3.961   3.530  0.2818 -0.0143 -1.2042
  115SAPE   H9X12100   5.100   3.998   3.501  0.4544  0.5527  0.0441
  115SAPE   H9Y12101   4.980   3.869   3.471 -0.1165 -1.9574  1.7344
  115SAPE  C31012102   5.014   3.928   3.682  0.7978  0.4560  0.9780
  115SAPE  H10X12103   4.914   3.901   3.724 -0.0003 -1.0526 -1.6516
  115SAPE  H10Y12104   5.059   4.014   3.736 -0.4699  0.4749  2.0586
  115SAPE  C31112105   5.114   3.825   3.715 -0.2824  1.1505  0.7481
  115SAPE  H11X12106   5.137   3.820   3.823 -0.0322 -1.7532  0.6279
  115SAPE  H11Y12107   5.208   3.856   3.664  0.5863  2.3483  2.9199
  115SAPE  C31212108   5.070   3.678   3.675  0.3574 -0.3043  0.2653
  115SAPE  H12X12109   5.122   3.653   3.580 -0.5102  0.8359 -0.5350
  115SAPE  H12Y12110   4.962   3.683   3.650  0.0216 -2.7254  1.0220
  115SAPE  C31312111   5.106   3.580   3.784 -0.3473  0.1014 -0.2639
  115SAPE  H13X12112   5.185   3.619   3.852 -0.4602  1.2089 -0.7414
  115SAPE  H13Y12113   5.161   3.488   3.758 -1.6993 -1.0428  0.7273
  115SAPE  C31412114   4.979   3.534   3.866  0.0807  0.4035  0.2462
  115SAPE  H14X12115   4.918   3.469   3.800  0.0403 -0.6747  1.3132
  115SAPE  H14Y12116   4.933   3.634   3.883 -0.4446  0.1424  0.3543
  115SAPE  C31512117   5.015   3.478   4.008  0.1633 -0.0345  0.6061
  115SAPE  H15X12118   5.094   3.536   4.062 -0.1229 -0.1622  1.1721
  115SAPE  H15Y12119   5.056   3.375   4.001  1.2320  0.4592 -0.7849
  115SAPE  C31612120   4.896   3.484   4.106  0.7349  0.7874  0.1814
  115SAPE  H16X12121   4.821   3.412   4.066  1.2326  0.5432 -0.3321
  115SAPE  H16Y12122   4.839   3.579   4.097  0.3212  0.4859 -0.4750
  115SAPE  C31712123   4.925   3.425   4.249  0.1072  0.1247  0.0134
  115SAPE  H17X12124   4.833   3.426   4.311  0.5781 -0.6279  0.7308
  115SAPE  H17Y12125   4.991   3.495   4.304 -0.9890  1.1234  0.1000
  115SAPE  C31812126   4.985   3.285   4.247  0.3313 -0.2309 -0.2715
  115SAPE  H18X12127   4.918   3.217   4.190 -0.2175 -1.6703  1.9541
  115SAPE  H18Y12128   5.002   3.244   4.349  1.1547 -2.4624 -1.2310
  115SAPE  H18Z12129   5.081   3.288   4.191 -1.2880  0.2251 -3.2170
  116SAPE     N12130   6.375   4.752   2.108  0.2531 -0.8654 -0.1274
  116SAPE   HN112131   6.441   4.829   2.129 -0.7048 -0.9002  3.7212
  116SAPE   HN212132   6.377   4.741   2.005 -1.6939  0.7686 -0.4008
  116SAPE   HN312133   6.281   4.795   2.124  1.6886  2.6326 -0.1779
  116SAPE   C1212134   6.417   4.628   2.180  0.0224 -0.4706  0.7597
  116SAPE  H12A12135   6.509   4.659   2.234  2.9501 -0.2807 -3.7914
  116SAPE  H12B12136   6.446   4.549   2.107  0.5186 -0.8136  1.3208
  116SAPE   C1112137   6.301   4.582   2.270 -0.3010 -0.3866 -0.0391
  116SAPE  H11A12138   6.204   4.563   2.218 -0.7952 -2.9475  1.6341
  116SAPE  H11B12139   6.281   4.661   2.345  0.1300 -2.4309  2.3613
  116SAPE     P12140   6.297   4.321   2.310  0.0028 -0.0572  0.1322
  116SAPE   O1312141   6.241   4.315   2.171 -0.3067 -0.1237 -0.3888
  116SAPE   O1412142   6.405   4.223   2.344 -0.4899 -0.8828  0.4733
  116SAPE   O1212143   6.348   4.463   2.338 -1.0708 -0.9067  0.6954
  116SAPE   O1112144   6.175   4.312   2.421  0.0350  0.5954  0.5891
  116SAPE    C112145   6.138   4.411   2.517  0.1593 -0.0552  0.3090
  116SAPE    HA12146   6.140   4.509   2.466 -1.7534  0.1914  0.6241
  116SAPE    HB12147   6.036   4.386   2.552 -0.1180 -1.0373 -1.1054
  116SAPE    C212148   6.239   4.419   2.631 -0.5697 -0.2248  0.0025
  116SAPE    HS12149   6.337   4.453   2.593 -1.5141  1.5545 -0.9533
  116SAPE   O2112150   6.243   4.286   2.692 -0.5385  0.5003 -0.4054
  116SAPE   C2112151   6.367   4.231   2.709 -0.0178 -0.6420  0.1863
  116SAPE   O2212152   6.470   4.296   2.701 -0.0570  0.3390  0.4624
  116SAPE   C2212153   6.363   4.082   2.730 -0.1978 -0.6844  0.1598
  116SAPE   H2R12154   6.274   4.038   2.679 -0.6269  1.0643 -0.6486
  116SAPE   H2S12155   6.456   4.051   2.679  0.8790  2.4279  0.0535
  116SAPE    C312156   6.191   4.520   2.736  0.5164  0.4783 -0.5741
  116SAPE    HX12157   6.094   4.486   2.776  1.4872 -0.7989  0.7743
  116SAPE    HY12158   6.183   4.618   2.683  0.1697  0.0500 -1.3241
  116SAPE   O3112159   6.276   4.516   2.854 -0.4704  0.1511 -0.0390
  116SAPE   C3112160   6.387   4.588   2.853 -0.7874 -0.2122 -0.1861
  116SAPE   O3212161   6.428   4.653   2.760 -0.1264 -0.6356  0.4204
  116SAPE   C3212162   6.454   4.578   2.993 -0.0316 -0.1616 -0.1673
  116SAPE   H2X12163   6.492   4.678   3.024 -1.2022 -0.0084  0.8523
  116SAPE   H2Y12164   6.538   4.506   2.980 -0.6178 -0.5355 -2.1503
  116SAPE   C2312165   6.376   4.043   2.878  0.4960  0.0263 -0.1641
  116SAPE   H3R12166   6.278   4.059   2.928 -0.1339  0.9092 -1.6046
  116SAPE   H3S12167   6.453   4.105   2.929  2.5197 -2.8835  0.5961
  116SAPE   C2412168   6.418   3.903   2.901  0.1136  0.3491  0.2974
  116SAPE   H4R12169   6.471   3.890   2.998 -0.3882 -1.4396  0.3669
  116SAPE   H4S12170   6.496   3.873   2.828  1.6545 -1.0829  2.4096
  116SAPE   C2512171   6.297   3.815   2.885  0.1719 -0.5645 -0.9290
  116SAPE   H5R12172   6.273   3.794   2.780  0.6741 -0.2938 -1.0988
  116SAPE   C2612173   6.212   3.773   2.983 -0.5610  0.7943  0.4430
  116SAPE   H6R12174   6.149   3.689   2.950 -2.0866  1.7060  0.9397
  116SAPE   C2712175   6.240   3.796   3.127  1.0709  0.3280 -0.6956
  116SAPE   H7R12176   6.298   3.889   3.149 -0.6854  1.4300 -0.5008
  116SAPE   H7S12177   6.280   3.704   3.174  1.5458  0.9270  0.0957
  116SAPE   C2812178   6.097   3.820   3.166 -0.0638  0.6561  0.0775
  116SAPE   H8R12179   6.034   3.884   3.102 -1.6654 -0.6971  0.2263
  116SAPE   C2912180   6.041   3.789   3.287  0.1642  0.4012 -0.0175
  116SAPE   H9R12181   5.937   3.821   3.300  0.4206  0.1523  3.6470
  116SAPE  C21012182   6.109   3.718   3.398 -0.2047  0.1431 -0.0431
  116SAPE  H10R12183   6.114   3.783   3.488  1.0275  0.9247 -0.6352
  116SAPE  H10S12184   6.218   3.707   3.380  0.5542  1.2779  3.2575
  116SAPE  C21112185   6.038   3.587   3.430 -0.3696  0.7362 -0.4760
  116SAPE  H11R12186   6.042   3.518   3.345 -1.6714  2.7811 -2.2979
  116SAPE  C21212187   5.974   3.553   3.547 -0.3602 -0.1988  0.6069
  116SAPE  H12R12188   5.910   3.464   3.546 -0.6021 -0.0339 -0.8026
  116SAPE  C21312189   5.955   3.636   3.667  0.2352  0.0914 -0.5357
  116SAPE  H13R12190   5.860   3.603   3.715  0.9648 -1.5276 -0.1284
  116SAPE  H13S12191   5.929   3.738   3.633  1.3676 -0.0219 -1.8363
  116SAPE  C21412192   6.070   3.657   3.766 -0.0788  0.5194 -0.2677
  116SAPE  H14R12193   6.162   3.610   3.730 -1.0308 -1.6043 -0.0710
  116SAPE  C21512194   6.066   3.722   3.888  0.3310 -0.7315  0.6702
  116SAPE  H15R12195   6.160   3.742   3.941  0.5566 -0.1916  0.0907
  116SAPE  C21612196   5.943   3.783   3.951  0.1149 -0.0917 -0.1776
  116SAPE  H16R12197   5.855   3.764   3.886  2.3353  2.9572 -4.5554
  116SAPE  H16S12198   5.952   3.894   3.950 -1.3701  0.1005  1.8404
  116SAPE  C21712199   5.907   3.733   4.092  0.2232 -0.3314  0.0908
  116SAPE  H17R12200   5.824   3.801   4.119  1.1985  1.9713 -2.2627
  116SAPE  H17S12201   5.996   3.755   4.155  0.6390  2.3704 -1.2800
  116SAPE  C21812202   5.871   3.580   4.089  0.1340  0.8435  0.1928
  116SAPE  H18R12203   5.963   3.529   4.053  1.1496  1.5925  1.5834
  116SAPE  H18S12204   5.791   3.551   4.018 -0.3386  0.5446  0.8378
  116SAPE  C21912205   5.835   3.533   4.230 -0.1566  0.2815  0.6975
  116SAPE  H19R12206   5.740   3.580   4.265 -0.4159 -0.1938  0.6425
  116SAPE  H19S12207   5.912   3.567   4.303 -0.0266 -0.9171  1.1400
  116SAPE  C22012208   5.829   3.383   4.234 -0.0245  0.9646  0.0310
  116SAPE  H20R12209   5.929   3.345   4.207 -0.2839  0.7353 -0.6063
  116SAPE  H20S12210   5.761   3.337   4.159 -0.7129  0.3611  1.0024
  116SAPE  H20T12211   5.797   3.345   4.333 -2.1194  0.4747 -0.7835
  116SAPE   C3312212   6.354   4.531   3.103 -0.1607  0.4015 -0.0926
  116SAPE   H3X12213   6.336   4.423   3.082  1.5247  0.1101 -0.1687
  116SAPE   H3Y12214   6.253   4.574   3.089  0.4033  1.1801 -2.2828
  116SAPE   C3412215   6.393   4.553   3.243  0.0454  0.0794 -0.1766
  116SAPE   H4X12216   6.384   4.659   3.277  0.3966  0.0446  0.0286
  116SAPE   H4Y12217   6.495   4.512   3.258 -0.8121 -1.8377  0.6841
  116SAPE   C3512218   6.293   4.471   3.334 -0.3314  0.0574  0.0343
  116SAPE   H5X12219   6.306   4.364   3.308  0.1860 -0.0889  0.8571
  116SAPE   H5Y12220   6.187   4.494   3.310 -0.2659 -1.0712 -1.5458
  116SAPE   C3612221   6.322   4.478   3.487 -0.1432 -0.6941  0.1384
  116SAPE   H6X12222   6.417   4.435   3.525  0.9873  1.3415 -0.2298
  116SAPE   H6Y12223   6.244   4.416   3.536 -0.9440 -0.8339 -1.2638
  116SAPE   C3712224   6.308   4.620   3.554  0.2609 -0.4083  0.3003
  116SAPE   H7X12225   6.209   4.662   3.523 -0.6423 -1.1825  1.9986
  116SAPE   H7Y12226   6.395   4.678   3.518  0.4902 -0.4463  0.8021
  116SAPE   C3812227   6.321   4.634   3.706 -0.2989 -0.3730  0.1419
  116SAPE   H8X12228   6.245   4.566   3.750  0.8693 -1.6235  0.2973
  116SAPE   H8Y12229   6.295   4.734   3.747 -0.3420 -0.0801 -0.5765
  116SAPE   C3912230   6.460   4.592   3.764 -0.3936  0.3164  0.6463
  116SAPE   H9X12231   6.538   4.668   3.744 -0.8739  0.4247 -0.9587
  116SAPE   H9Y12232   6.498   4.508   3.702 -0.7485  1.5388 -1.3130
  116SAPE  C31012233   6.453   4.560   3.912  0.2126 -0.0422  0.0778
  116SAPE  H10X12234   6.369   4.490   3.933 -0.0814  0.9252  2.4592
  116SAPE  H10Y12235   6.421   4.654   3.960  0.4247 -0.3498  0.8429
  116SAPE  C31112236   6.575   4.503   3.985  0.4250 -0.1329 -0.3121
  116SAPE  H11X12237   6.663   4.548   3.934  0.2309  1.4152  0.6737
  116SAPE  H11Y12238   6.583   4.393   3.967 -0.3643  0.0037 -1.6296
  116SAPE  C31212239   6.564   4.536   4.133  0.1579  0.0927 -0.5401
  116SAPE  H12X12240   6.522   4.639   4.138  1.5503  0.7886 -2.3169
  116SAPE  H12Y12241   6.667   4.545   4.174  0.3405 -1.9461 -0.4826
  116SAPE  C31312242   6.474   4.442   4.206  0.2671 -0.4413  0.4693
  116SAPE  H13X12243   6.533   4.348   4.203 -1.2776 -1.4266 -0.0888
  116SAPE  H13Y12244   6.373   4.430   4.160 -0.6827  1.3275  1.9916
  116SAPE  C31412245   6.477   4.483   4.358  0.2772 -0.0191  0.3408
  116SAPE  H14X12246   6.429   4.583   4.366  1.2650  0.3759  1.7690
  116SAPE  H14Y12247   6.587   4.494   4.372  0.0178  0.8907  1.9744
  116SAPE  C31512248   6.415   4.381   4.452  0.2752 -0.2200 -0.0362
  116SAPE  H15X12249   6.398   4.425   4.553  0.0772  2.6798 -1.2560
  116SAPE  H15Y12250   6.491   4.301   4.465  1.2021  0.6798  0.1556
  116SAPE  C31612251   6.285   4.327   4.397  0.3701  0.2921 -0.8142
  116SAPE  H16X12252   6.303   4.269   4.303 -1.6481 -1.5560 -0.1375
  116SAPE  H16Y12253   6.218   4.408   4.361  1.6817  1.4342 -0.7755
  116SAPE  C31712254   6.204   4.225   4.490 -0.5461  0.2130 -0.8771
  116SAPE  H17X12255   6.190   4.280   4.586 -1.4371 -0.5528 -0.5591
  116SAPE  H17Y12256   6.266   4.135   4.508  0.8347  0.4560 -3.8319
  116SAPE  C31812257   6.063   4.181   4.438  0.2359  0.5317 -0.0298
  116SAPE  H18X12258   6.076   4.122   4.345  0.0356  0.4683 -0.0190
  116SAPE  H18Y12259   6.000   4.266   4.405 -0.0773  0.2895 -0.0624
  116SAPE  H18Z12260   6.005   4.117   4.509 -0.4724 -0.9571 -1.8589
  117SOPE     N12261   4.305   1.952   6.745  0.1742 -0.1740 -0.2153
  117SOPE   HN112262   4.225   1.936   6.810  0.1307  1.3663  0.1537
  117SOPE   HN212263   4.390   1.902   6.779 -1.2785 -1.6566  1.3991
  117SOPE   HN312264   4.319   2.054   6.729 -0.1576  0.0849  1.0737
  117SOPE   C1212265   4.276   1.888   6.618 -0.6683 -0.3573 -0.1245
  117SOPE  H12A12266   4.267   1.779   6.637 -0.3097 -0.3725 -0.0377
  117SOPE  H12B12267   4.365   1.895   6.552  0.4145  0.9455  1.4070
  117SOPE   C1112268   4.145   1.943   6.555  0.0187  0.3276  0.7276
  117SOPE  H11A12269   4.060   1.896   6.610 -2.0683  1.3019 -1.4339
  117SOPE  H11B12270   4.135   1.903   6.451 -1.9684 -1.1882  1.4267
  117SOPE     P12271   4.059   2.167   6.440  0.0346 -0.2996  0.3190
  117SOPE   O1312272   4.144   2.293   6.425  0.3293  0.4506  0.4437
  117SOPE   O1412273   3.916   2.173   6.481  0.1959 -0.0776 -0.0290
  117SOPE   O1212274   4.122   2.083   6.553 -0.0528  0.1887  0.1433
  117SOPE   O1112275   4.063   2.079   6.314 -0.4235 -0.5363  1.3044
  117SOPE    C112276   4.128   2.125   6.191 -0.0708  0.0764  0.1808
  117SOPE    HA12277   4.174   2.031   6.152  2.5326  1.0540  0.6820
  117SOPE    HB12278   4.217   2.191   6.204 -0.6399  1.5392 -2.4723
  117SOPE    C212279   4.031   2.170   6.090  0.3143  0.1388 -0.0411
  117SOPE    HS12280   3.986   2.265   6.124  0.8003  0.4474 -0.2565
  117SOPE   O2112281   3.938   2.060   6.072 -0.7065  0.0769  0.4484
  117SOPE   C2112282   3.823   2.080   6.015  0.5022 -0.0337  0.5807
  117SOPE   O2212283   3.794   2.175   5.941 -0.2845  1.0478 -0.2249
  117SOPE   C2212284   3.728   1.960   6.043 -0.2868 -0.6311  0.0466
  117SOPE   H2R12285   3.702   1.956   6.151 -0.2437 -1.1933  0.0439
  117SOPE   H2S12286   3.784   1.868   6.015  1.3891  0.2092  0.5555
  117SOPE    C312287   4.094   2.208   5.948 -0.0535  0.1619 -0.0792
  117SOPE    HX12288   4.123   2.312   5.975  0.9368 -0.5378  1.7180
  117SOPE    HY12289   4.012   2.208   5.873 -1.4900 -0.4739  1.4268
  117SOPE   O3112290   4.199   2.116   5.902  0.8152 -0.1490  0.4385
  117SOPE   C3112291   4.304   2.174   5.848 -0.8604  0.3627 -0.1658
  117SOPE   O3212292   4.325   2.295   5.840  0.2250 -0.0371  0.0186
  117SOPE   C3212293   4.404   2.065   5.809  0.0368 -0.7786  0.5452
  117SOPE   H2X12294   4.429   2.004   5.899  0.9319 -0.7165  0.3531
  117SOPE   H2Y12295   4.491   2.128   5.779  0.7484 -0.4622  3.0366
  117SOPE   C2312296   3.608   1.970   5.957 -0.2015  0.6465  0.4068
  117SOPE   H3R12297   3.619   2.011   5.854 -2.6257  0.3237 -0.0332
  117SOPE   H3S12298   3.540   2.037   6.012 -0.2995 -0.2580  1.4252
  117SOPE   C2412299   3.527   1.836   5.949  0.3227 -0.1519 -0.1343
  117SOPE   H4R12300   3.441   1.847   5.879  0.3902  0.7668 -0.0882
  117SOPE   H4S12301   3.597   1.758   5.912  1.1814  0.2696  0.5764
  117SOPE   C2512302   3.474   1.788   6.086 -0.2120  0.1503 -0.2892
  117SOPE   H5R12303   3.555   1.752   6.153  2.0824  0.2579 -2.8058
  117SOPE   H5S12304   3.408   1.858   6.141  0.5159 -0.5094  1.4686
  117SOPE   C2612305   3.384   1.664   6.071  0.0350  0.8919  0.6930
  117SOPE   H6R12306   3.300   1.683   6.001 -1.0185 -2.7449  0.7999
  117SOPE   H6S12307   3.438   1.571   6.042  1.3212  1.4185  1.3402
  117SOPE   C2712308   3.311   1.632   6.200  0.3323  0.8097  0.0066
  117SOPE   H7R12309   3.377   1.597   6.282  0.1779 -0.4453 -0.3755
  117SOPE   H7S12310   3.251   1.717   6.236  0.3806  1.2886 -1.0036
  117SOPE   C2812311   3.204   1.523   6.170 -0.1614  0.4699 -0.0926
  117SOPE   H8R12312   3.141   1.564   6.088 -0.7732 -0.1975  0.0376
  117SOPE   H8S12313   3.265   1.433   6.146  1.3426  1.5628 -0.4785
  117SOPE   C2912314   3.114   1.493   6.283 -0.0155 -0.4659  0.1003
  117SOPE   H9112315   3.160   1.468   6.380 -1.3646  0.7609  1.1220
  117SOPE  C21012316   2.980   1.515   6.285 -0.6077 -0.2274 -0.0125
  117SOPE  H10112317   2.936   1.504   6.386 -0.8450 -0.5026 -0.1433
  117SOPE  C21112318   2.898   1.571   6.170  0.6984 -0.2061  0.4546
  117SOPE  H11R12319   2.887   1.490   6.095 -1.0311  1.4830 -1.2261
  117SOPE  H11S12320   2.948   1.660   6.128  1.1627 -0.3294  0.7301
  117SOPE  C21212321   2.750   1.609   6.205 -0.3935 -0.0813 -0.0086
  117SOPE  H12R12322   2.741   1.707   6.257  0.0042  1.1231 -2.0992
  117SOPE  H12S12323   2.712   1.529   6.273  2.2946 -0.1512  1.5633
  117SOPE  C21312324   2.653   1.609   6.082 -0.5220 -0.5461 -0.1001
  117SOPE  H13R12325   2.548   1.628   6.110  0.0198 -0.3384  1.9267
  117SOPE  H13S12326   2.663   1.508   6.037 -2.2565 -0.1017 -1.6045
  117SOPE  C21412327   2.697   1.714   5.984  0.0031 -0.3300  0.1762
  117SOPE  H14R12328   2.801   1.699   5.947 -0.0605  0.7689 -0.4837
  117SOPE  H14S12329   2.683   1.812   6.036 -3.3988 -0.5626 -0.0824
  117SOPE  C21512330   2.614   1.718   5.858 -0.3225  0.5291 -0.2048
  117SOPE  H15R12331   2.638   1.810   5.802  1.6869  0.7557  0.9141
  117SOPE  H15S12332   2.509   1.714   5.895  0.2014  0.2725  1.3399
  117SOPE  C21612333   2.642   1.600   5.769 -0.2585 -0.2138 -0.4038
  117SOPE  H16R12334   2.588   1.514   5.815 -0.6871 -0.6222 -1.6203
  117SOPE  H16S12335   2.749   1.572   5.764 -0.0113  0.3155  1.3519
  117SOPE  C21712336   2.582   1.614   5.629 -0.1746 -0.5129 -0.1195
  117SOPE  H17R12337   2.613   1.523   5.573 -0.7289 -1.0691  0.4732
  117SOPE  H17S12338   2.627   1.706   5.585 -1.8506  0.7697  0.7319
  117SOPE  C21812339   2.428   1.611   5.622 -0.5986  0.1945 -0.1363
  117SOPE  H18R12340   2.390   1.715   5.622 -0.8024  0.1239  1.0889
  117SOPE  H18S12341   2.385   1.563   5.712 -0.6196  0.8187  0.1921
  117SOPE  H18T12342   2.388   1.545   5.542  0.5783 -2.6609  1.4802
  117SOPE   C3312343   4.346   1.985   5.691 -0.1092  0.1632  0.5198
  117SOPE   H3X12344   4.241   1.956   5.713  0.6382 -1.9220  1.5899
  117SOPE   H3Y12345   4.403   1.890   5.677  0.6359  0.9188 -2.1663
  117SOPE   C3412346   4.377   2.060   5.555  0.4251  0.8496  0.0156
  117SOPE   H4X12347   4.487   2.047   5.543  0.4053  1.1125 -0.4700
  117SOPE   H4Y12348   4.352   2.164   5.583  0.8537  1.0922 -0.4881
  117SOPE   C3512349   4.301   2.006   5.433  0.7277 -0.1846 -0.3448
  117SOPE   H5X12350   4.196   1.985   5.462  1.2144 -0.5804  1.2212
  117SOPE   H5Y12351   4.347   1.914   5.393  0.1648  0.3618 -2.3347
  117SOPE   C3612352   4.294   2.100   5.302  0.5477  0.3588  0.7465
  117SOPE   H6X12353   4.394   2.116   5.256  0.3700  1.3284  0.6631
  117SOPE   H6Y12354   4.256   2.201   5.330  0.0219  0.1416  0.8254
  117SOPE   C3712355   4.200   2.049   5.193  0.2086  0.2883 -0.0399
  117SOPE   H7X12356   4.097   2.041   5.232  0.5402 -1.6401  0.5387
  117SOPE   H7Y12357   4.225   1.943   5.168  0.0616  1.1202 -4.6982
  117SOPE   C3812358   4.209   2.128   5.067 -0.4228  0.3488  0.0394
  117SOPE   H8X12359   4.303   2.101   5.014  0.1122  1.0567  0.5971
  117SOPE   H8Y12360   4.225   2.237   5.080  2.6508  0.1602 -1.1771
  117SOPE   C3912361   4.097   2.104   4.963  0.3324 -0.7697 -0.6441
  117SOPE   H9X12362   3.994   2.127   4.999  0.8793  1.6873 -0.4995
  117SOPE   H9Y12363   4.099   1.995   4.940 -1.7368 -0.8837 -0.5011
  117SOPE  C31012364   4.123   2.183   4.832 -0.1139 -0.2754 -0.5722
  117SOPE  H10X12365   4.223   2.156   4.792  1.0043 -0.1316  1.9659
  117SOPE  H10Y12366   4.131   2.289   4.866  1.2525 -0.0036 -1.6221
  117SOPE  C31112367   4.001   2.181   4.739 -0.2460 -0.5855  0.2452
  117SOPE  H11X12368   3.945   2.275   4.760 -0.2421 -0.8620  1.5996
  117SOPE  H11Y12369   3.934   2.093   4.741  1.2719 -1.8718 -1.8942
  117SOPE  C31212370   4.045   2.181   4.589 -0.3429  0.4089  0.1003
  117SOPE  H12X12371   3.948   2.171   4.536  0.4459  1.3091 -1.6160
  117SOPE  H12Y12372   4.111   2.094   4.565  0.0377  1.4120 -2.9116
  117SOPE  C31312373   4.117   2.306   4.546  0.3241  0.0042 -0.0496
  117SOPE  H13X12374   4.226   2.305   4.566  0.3926 -0.5007 -0.4176
  117SOPE  H13Y12375   4.068   2.390   4.599  0.7562 -0.6756  1.4640
  117SOPE  C31412376   4.090   2.314   4.390  0.0909 -0.2865  0.3131
  117SOPE  H14X12377   3.987   2.346   4.364 -0.2759 -1.5206  0.1636
  117SOPE  H14Y12378   4.109   2.213   4.349  1.9342 -0.2239  0.9124
  117SOPE  C31512379   4.181   2.410   4.310 -0.1445  0.4190 -0.5051
  117SOPE  H15X12380   4.157   2.408   4.202  1.4330  1.6168 -0.9125
  117SOPE  H15Y12381   4.289   2.383   4.320  0.1540  1.2369 -1.4218
  117SOPE  C31612382   4.164   2.562   4.353  0.0903 -0.4883 -0.5728
  117SOPE  H16X12383   4.258   2.622   4.363 -0.9045  0.7992  1.9501
  117SOPE  H16Y12384   4.133   2.551   4.459  0.8364 -0.1378 -0.3115
  117SOPE  C31712385   4.058   2.637   4.268  0.1071  0.6050 -0.0867
  117SOPE  H17X12386   3.962   2.585   4.292 -0.3743  0.5170 -2.0576
  117SOPE  H17Y12387   4.061   2.623   4.158 -0.6857 -2.0961  0.1493
  117SOPE  C31812388   4.046   2.784   4.298  0.4902  0.2751  0.0303
  117SOPE  H18X12389   4.144   2.835   4.283  1.1462 -0.5222  1.4067
  117SOPE  H18Y12390   4.021   2.796   4.406 -0.5336 -0.7368 -0.0666
  117SOPE  H18Z12391   3.965   2.828   4.236 -1.6753  0.2069  2.5941
  118SOPE     N12392   5.004   3.379   7.013 -0.5429 -0.4624  0.8632
  118SOPE   HN112393   5.015   3.337   6.918  0.8659  0.6695  0.4953
  118SOPE   HN212394   4.928   3.323   7.056 -1.2128 -0.7918 -0.6558
  118SOPE   HN312395   4.981   3.480   7.006  1.8868  0.0755 -0.4808
  118SOPE   C1212396   5.148   3.379   7.079  0.0975  0.0373 -0.2930
  118SOPE  H12A12397   5.135   3.304   7.160 -1.7996  2.3528  1.6874
  118SOPE  H12B12398   5.160   3.477   7.130  1.2388 -1.0614  1.6556
  118SOPE   C1112399   5.268   3.368   6.985 -0.6669 -0.3340  0.9310
  118SOPE  H11A12400   5.279   3.266   6.943 -2.2866  0.5033 -1.7460
  118SOPE  H11B12401   5.349   3.394   7.056 -0.7141  1.6334  0.3147
  118SOPE     P12402   5.368   3.566   6.828 -0.6156  0.4450 -0.1904
  118SOPE   O1312403   5.436   3.625   6.946 -0.1926  0.3961 -0.3357
  118SOPE   O1412404   5.282   3.663   6.749  0.8308  0.5821 -0.1115
  118SOPE   O1212405   5.266   3.463   6.882 -0.6724 -0.4992  0.4996
  118SOPE   O1112406   5.473   3.485   6.730  0.2133 -0.0870 -0.6475
  118SOPE    C112407   5.419   3.380   6.653 -1.0268  0.1970  0.1012
  118SOPE    HA12408   5.311   3.390   6.631 -1.2791 -0.4894  0.9744
  118SOPE    HB12409   5.439   3.282   6.702 -1.0181 -0.4284 -1.1080
  118SOPE    C212410   5.486   3.361   6.511 -0.0915  0.2742  0.7410
  118SOPE    HS12411   5.595   3.378   6.529 -0.5949  2.0255  2.5438
  118SOPE   O2112412   5.436   3.457   6.411 -0.2596  0.4029  0.2427
  118SOPE   C2112413   5.492   3.577   6.403  0.3755 -0.2034 -0.5011
  118SOPE   O2212414   5.574   3.624   6.477 -0.3332  0.1430  0.2558
  118SOPE   C2212415   5.447   3.635   6.271 -0.5303  0.4450  0.4700
  118SOPE   H2R12416   5.461   3.745   6.262 -1.6347  0.5406 -0.2237
  118SOPE   H2S12417   5.338   3.617   6.269 -0.3144 -0.9306 -1.6919
  118SOPE    C312418   5.478   3.213   6.458 -0.1181  0.2445  0.6488
  118SOPE    HX12419   5.370   3.200   6.433  0.1424  0.4053 -0.6361
  118SOPE    HY12420   5.512   3.144   6.538 -1.7048 -1.3244  0.0531
  118SOPE   O3112421   5.562   3.186   6.342 -0.0489 -0.2772 -0.5462
  118SOPE   C3112422   5.497   3.196   6.221  0.1855 -0.0159 -0.6061
  118SOPE   O3212423   5.378   3.211   6.207  0.1856 -0.0765 -0.6976
  118SOPE   C3212424   5.594   3.158   6.107  0.7614  0.3680  0.0782
  118SOPE   H2X12425   5.563   3.053   6.087 -0.8643  0.1153  3.3134
  118SOPE   H2Y12426   5.696   3.176   6.146  0.2252  3.1621  0.4017
  118SOPE   C2312427   5.514   3.578   6.141  0.2905  0.1144  0.5936
  118SOPE   H3R12428   5.481   3.472   6.140  0.6695 -0.0853 -2.7655
  118SOPE   H3S12429   5.624   3.586   6.157  0.0285 -0.3688  2.8489
  118SOPE   C2412430   5.474   3.651   6.015 -0.5383 -0.5251 -0.2167
  118SOPE   H4R12431   5.366   3.644   5.990 -1.0599 -0.0202  1.7833
  118SOPE   H4S12432   5.491   3.759   6.030 -0.4646 -0.5255 -0.2966
  118SOPE   C2512433   5.546   3.600   5.894  0.1821  0.4776 -0.2391
  118SOPE   H5R12434   5.653   3.581   5.914  0.1384 -0.6009 -0.9227
  118SOPE   H5S12435   5.496   3.502   5.873 -4.5952  2.3303  1.1208
  118SOPE   C2612436   5.525   3.681   5.762 -0.1194 -0.1305  0.3640
  118SOPE   H6R12437   5.416   3.694   5.743  0.2207  1.8185 -0.5129
  118SOPE   H6S12438   5.575   3.776   5.790 -0.2966  0.4416 -1.1889
  118SOPE   C2712439   5.591   3.626   5.631 -0.0824 -0.0290 -0.2068
  118SOPE   H7R12440   5.578   3.703   5.552 -0.4360 -1.5564 -1.7002
  118SOPE   H7S12441   5.697   3.620   5.663 -0.1890 -0.3995  0.0897
  118SOPE   C2812442   5.542   3.491   5.578  0.0687  0.3309 -0.9371
  118SOPE   H8R12443   5.626   3.445   5.521  0.9964  1.9306 -0.9366
  118SOPE   H8S12444   5.510   3.431   5.666 -1.1560  1.1515 -0.7926
  118SOPE   C2912445   5.421   3.518   5.486 -0.1978  0.6039 -0.0535
  118SOPE   H9112446   5.323   3.485   5.523  0.7459 -1.2856  0.8856
  118SOPE  C21012447   5.414   3.562   5.363  0.1532 -0.4466 -0.1261
  118SOPE  H10112448   5.317   3.558   5.310  0.5919  0.4415 -1.0341
  118SOPE  C21112449   5.534   3.590   5.277  0.1552 -0.3841 -0.4862
  118SOPE  H11R12450   5.619   3.610   5.345 -0.5213 -2.4486  1.0455
  118SOPE  H11S12451   5.523   3.687   5.223 -1.1392 -0.6681 -0.7682
  118SOPE  C21212452   5.568   3.483   5.178  0.2229 -0.2822 -0.4473
  118SOPE  H12R12453   5.478   3.471   5.113 -0.1320  0.0295 -0.0211
  118SOPE  H12S12454   5.602   3.387   5.222 -0.6929 -0.7076 -0.6474
  118SOPE  C21312455   5.678   3.537   5.091  0.3374 -0.2027  0.8005
  118SOPE  H13R12456   5.770   3.553   5.151  0.2273  0.1637  0.8760
  118SOPE  H13S12457   5.649   3.632   5.040  1.3274 -0.9466 -1.2736
  118SOPE  C21412458   5.714   3.444   4.975  0.7264 -0.1141 -0.4066
  118SOPE  H14R12459   5.624   3.441   4.909 -0.4348  2.5652  0.8756
  118SOPE  H14S12460   5.747   3.342   5.002  1.9080  0.1446 -0.8147
  118SOPE  C21512461   5.830   3.510   4.894  0.1269 -0.0916  0.1972
  118SOPE  H15R12462   5.911   3.497   4.968  0.3920 -1.1303 -0.2632
  118SOPE  H15S12463   5.814   3.620   4.885 -0.3520 -0.1430  0.3525
  118SOPE  C21612464   5.862   3.450   4.753 -0.2104 -0.2587 -0.1191
  118SOPE  H16R12465   5.886   3.344   4.772 -1.0507 -0.1902  1.5263
  118SOPE  H16S12466   5.951   3.503   4.712  2.1733 -3.0840  1.0963
  118SOPE  C21712467   5.748   3.452   4.648 -0.5619 -0.4823  0.1751
  118SOPE  H17R12468   5.672   3.383   4.691  1.5163 -0.9064  3.5346
  118SOPE  H17S12469   5.795   3.410   4.556 -0.0469  2.3072 -0.9324
  118SOPE  C21812470   5.687   3.589   4.622 -0.1073  0.3228 -0.7311
  118SOPE  H18R12471   5.758   3.650   4.562  0.9457  0.6813  0.8239
  118SOPE  H18S12472   5.660   3.627   4.722  0.7990 -1.1232  0.1056
  118SOPE  H18T12473   5.598   3.576   4.557  1.2094  1.0380 -2.7959
  118SOPE   C3312474   5.587   3.259   5.990  0.5781  0.2951 -0.7362
  118SOPE   H3X12475   5.603   3.367   6.014 -1.8124  1.6559 -4.3863
  118SOPE   H3Y12476   5.483   3.258   5.952 -0.2862  1.7925  1.3732
  118SOPE   C3412477   5.677   3.233   5.870  0.1135 -0.2206 -0.0237
  118SOPE   H4X12478   5.649   3.291   5.780 -2.0600 -1.3738 -0.1576
  118SOPE   H4Y12479   5.653   3.128   5.844 -1.5926 -0.6375  2.8086
  118SOPE   C3512480   5.828   3.245   5.891  0.2209 -0.0679 -0.1611
  118SOPE   H5X12481   5.864   3.210   5.990  0.6221 -3.4427 -1.4011
  118SOPE   H5Y12482   5.858   3.350   5.871 -0.3389  0.2918  0.7990
  118SOPE   C3612483   5.917   3.164   5.788 -0.0189 -0.2780 -0.7394
  118SOPE   H6X12484   5.900   3.055   5.804  2.5632 -0.5028  1.1769
  118SOPE   H6Y12485   6.022   3.183   5.819 -1.0288  2.2921  1.4840
  118SOPE   C3712486   5.902   3.202   5.637  0.6509 -0.4780 -0.3110
  118SOPE   H7X12487   5.890   3.312   5.628  1.8966 -0.2423  0.6361
  118SOPE   H7Y12488   5.804   3.165   5.599  0.2610 -0.5484  0.7076
  118SOPE   C3812489   6.003   3.154   5.542 -0.7263  0.2560  0.0136
  118SOPE   H8X12490   6.018   3.045   5.561  3.0844  0.1877 -2.4453
  118SOPE   H8Y12491   6.095   3.211   5.567 -1.8200  1.6965  0.9052
  118SOPE   C3912492   5.964   3.189   5.401  0.5983  0.1846  0.5280
  118SOPE   H9X12493   5.929   3.295   5.401  0.2016  0.1057  3.0118
  118SOPE   H9Y12494   5.872   3.139   5.363  1.4954 -0.5648 -0.7280
  118SOPE  C31012495   6.079   3.158   5.300 -0.0160 -0.5017  0.3732
  118SOPE  H10X12496   6.173   3.208   5.331 -0.5817 -0.1396  1.5677
  118SOPE  H10Y12497   6.062   3.195   5.197 -0.6028 -2.2503 -0.1912
  118SOPE  C31112498   6.118   3.009   5.285 -0.5362 -0.0043  0.0896
  118SOPE  H11X12499   6.029   2.945   5.268 -0.6614  0.1717  0.0774
  118SOPE  H11Y12500   6.170   2.983   5.379  1.4376 -1.3014 -1.2610
  118SOPE  C31212501   6.219   2.984   5.172  0.3670 -0.4215 -0.0408
  118SOPE  H12X12502   6.296   2.907   5.192 -0.4778 -1.5764 -1.0501
  118SOPE  H12Y12503   6.280   3.076   5.164 -1.0653  0.6829  1.0823
  118SOPE  C31312504   6.145   2.950   5.050  0.1325 -0.3333  1.1299
  118SOPE  H13X12505   6.053   3.013   5.043  1.1714  1.1154 -0.4260
  118SOPE  H13Y12506   6.117   2.843   5.051 -3.2136  0.4384  1.1551
  118SOPE  C31412507   6.226   2.963   4.919 -0.6752 -0.7340  0.1268
  118SOPE  H14X12508   6.285   3.055   4.900  0.4723 -1.6945 -1.0915
  118SOPE  H14Y12509   6.155   2.957   4.834  0.4291  1.1161 -0.9915
  118SOPE  C31512510   6.343   2.860   4.896  0.0178 -0.5914 -0.4802
  118SOPE  H15X12511   6.320   2.763   4.945  0.4786  0.4055  1.8460
  118SOPE  H15Y12512   6.425   2.888   4.966 -1.4817  0.5449  0.8926
  118SOPE  C31612513   6.385   2.838   4.757 -0.1699  0.4489 -0.1907
  118SOPE  H16X12514   6.293   2.791   4.716 -0.6308 -1.6243  2.8625
  118SOPE  H16Y12515   6.459   2.756   4.746 -0.1508  0.2383  1.2921
  118SOPE  C31712516   6.439   2.957   4.683 -0.1332 -0.7954 -0.5628
  118SOPE  H17X12517   6.356   3.031   4.691 -0.4438 -1.1054 -0.8754
  118SOPE  H17Y12518   6.448   2.933   4.575  1.3549  2.3118 -1.2279
  118SOPE  C31812519   6.572   3.016   4.733 -0.1769 -1.1058 -0.2327
  118SOPE  H18X12520   6.577   3.042   4.841  0.1327  0.4045 -0.5819
  118SOPE  H18Y12521   6.609   3.096   4.665 -0.5103 -0.5527  0.2322
  118SOPE  H18Z12522   6.653   2.941   4.719  0.0230 -1.7716  3.5262
  119SOPE     N12523   6.198   4.759   7.184  0.0973 -0.6163  0.0375
  119SOPE   HN112524   6.136   4.791   7.262  0.9607 -3.2792  1.9373
  119SOPE   HN212525   6.175   4.658   7.173 -1.5192 -0.1124 -1.8740
  119SOPE   HN312526   6.299   4.772   7.204  0.1381  0.8849 -0.9665
  119SOPE   C1212527   6.153   4.834   7.059 -0.4960 -0.0151  0.8143
  119SOPE  H12A12528   6.230   4.820   6.980 -0.0025  1.6830  0.9622
  119SOPE  H12B12529   6.144   4.941   7.087 -1.5825 -0.4116  2.1175
  119SOPE   C1112530   6.010   4.788   7.012  0.0373  0.5805  0.4351
  119SOPE  H11A12531   5.935   4.777   7.094  0.6890 -0.7478  0.8838
  119SOPE  H11B12532   6.016   4.678   6.999 -0.0761  0.3783  1.8908
  119SOPE     P12533   5.852   4.968   6.901  0.4847 -0.0975  0.5566
  119SOPE   O1312534   5.867   5.055   7.020  0.2792 -0.2307 -0.1217
  119SOPE   O1412535   5.719   4.912   6.862 -0.0331  0.7384  0.4512
  119SOPE   O1212536   5.955   4.851   6.900 -0.6939 -0.3929 -0.2670
  119SOPE   O1112537   5.902   5.047   6.772 -0.4681 -0.1167 -0.6364
  119SOPE    C112538   5.988   4.995   6.668 -0.4089 -0.5886 -0.3537
  119SOPE    HA12539   5.943   4.904   6.623 -0.0098 -0.9639 -0.0083
  119SOPE    HB12540   6.087   4.965   6.708 -0.8118 -1.5760 -0.0613
  119SOPE    C212541   6.022   5.094   6.551  0.4832  0.5104  0.7107
  119SOPE    HS12542   6.066   5.180   6.606  2.4086 -0.3248  0.5310
  119SOPE   O2112543   5.892   5.130   6.490  0.1299 -0.5111  0.4664
  119SOPE   C2112544   5.908   5.244   6.423  0.1081  0.2080 -0.5114
  119SOPE   O2212545   5.986   5.332   6.456 -0.0627  0.2419  0.6292
  119SOPE   C2212546   5.801   5.252   6.315  0.0143 -0.2491  0.9485
  119SOPE   H2R12547   5.730   5.328   6.355 -0.3156 -0.1208  0.1466
  119SOPE   H2S12548   5.746   5.157   6.303  0.3537 -0.4136  0.7052
  119SOPE    C312549   6.122   5.034   6.448  0.6243 -0.8318 -0.5084
  119SOPE    HX12550   6.073   4.941   6.412 -2.4864  1.1944 -1.9635
  119SOPE    HY12551   6.213   5.005   6.506  0.6347  1.4863  0.7368
  119SOPE   O3112552   6.146   5.118   6.329  0.5352 -0.7077 -0.6516
  119SOPE   C3112553   6.262   5.189   6.322 -0.2909  0.1582 -0.0056
  119SOPE   O3212554   6.331   5.226   6.415  0.0160 -0.0940 -0.1615
  119SOPE   C3212555   6.302   5.208   6.172 -0.6051  0.1579  0.3082
  119SOPE   H2X12556   6.246   5.132   6.113 -2.0264 -1.0828  3.0505
  119SOPE   H2Y12557   6.409   5.180   6.171 -0.4187  0.7884  1.2693
  119SOPE   C2312558   5.856   5.297   6.180 -0.3815 -0.4033  0.0462
  119SOPE   H3R12559   5.927   5.227   6.131 -0.8508  0.5662 -2.1498
  119SOPE   H3S12560   5.903   5.392   6.214 -0.9100  0.0487 -0.4625
  119SOPE   C2412561   5.746   5.328   6.081  0.9448 -0.3385 -0.3029
  119SOPE   H4R12562   5.694   5.234   6.052  0.0592  0.7797 -2.5820
  119SOPE   H4S12563   5.666   5.394   6.118 -1.2901 -3.2312  0.3933
  119SOPE   C2512564   5.806   5.365   5.944  0.0647  0.1134 -0.3935
  119SOPE   H5R12565   5.865   5.457   5.966  1.2111 -0.6354 -0.2569
  119SOPE   H5S12566   5.887   5.295   5.914  0.0307  1.1472 -3.1833
  119SOPE   C2612567   5.708   5.399   5.832 -0.0908  0.1058 -0.2194
  119SOPE   H6R12568   5.639   5.315   5.808  1.0582 -1.1465  0.7027
  119SOPE   H6S12569   5.650   5.479   5.883  1.7001  0.3523  1.5711
  119SOPE   C2712570   5.771   5.464   5.707 -0.0881  0.7307  0.0633
  119SOPE   H7R12571   5.781   5.571   5.733 -0.1610  0.4257  1.4798
  119SOPE   H7S12572   5.870   5.423   5.678 -1.1748  0.0092 -2.9740
  119SOPE   C2812573   5.679   5.455   5.581  0.9094 -0.6513  0.2727
  119SOPE   H8R12574   5.658   5.351   5.547 -1.1813  0.3839 -1.8870
  119SOPE   H8S12575   5.580   5.492   5.614 -0.3540 -2.4147 -1.3115
  119SOPE   C2912576   5.723   5.536   5.458 -0.0414 -0.0444 -0.6220
  119SOPE   H9112577   5.769   5.632   5.486  0.0643 -0.5357  1.0011
  119SOPE  C21012578   5.724   5.503   5.328 -0.5353 -0.0392  0.6081
  119SOPE  H10112579   5.749   5.588   5.262 -0.9608  0.0751  0.5874
  119SOPE  C21112580   5.657   5.383   5.265  0.6244  0.5144 -0.1212
  119SOPE  H11R12581   5.567   5.396   5.201  0.6306 -3.5317 -1.2445
  119SOPE  H11S12582   5.627   5.314   5.347 -1.0523  0.2956 -0.8707
  119SOPE  C21212583   5.756   5.304   5.173 -0.9968  0.3552  0.2434
  119SOPE  H12R12584   5.719   5.204   5.138 -1.0419  0.9987 -1.6965
  119SOPE  H12S12585   5.845   5.274   5.231 -0.6578  0.6694 -0.1111
  119SOPE  C21312586   5.787   5.363   5.038  0.1396  0.3072 -0.1435
  119SOPE  H13R12587   5.784   5.472   5.055  0.5075  0.7273 -2.4281
  119SOPE  H13S12588   5.697   5.350   4.975  0.7859  1.5572 -1.3722
  119SOPE  C21412589   5.921   5.314   4.980  0.4171 -0.0068 -0.7865
  119SOPE  H14R12590   5.905   5.234   4.906 -1.0619  0.8329 -1.4183
  119SOPE  H14S12591   5.979   5.272   5.065 -1.4256 -2.5097 -0.6982
  119SOPE  C21512592   5.982   5.431   4.907  0.4135 -0.2032 -0.0306
  119SOPE  H15R12593   6.013   5.504   4.985  0.8319 -1.6942  1.2414
  119SOPE  H15S12594   5.904   5.479   4.844 -0.1734  0.2071  0.9916
  119SOPE  C21612595   6.103   5.396   4.814  0.7376 -0.0381  0.3470
  119SOPE  H16R12596   6.062   5.330   4.735  2.4649 -1.1012  0.2759
  119SOPE  H16S12597   6.163   5.326   4.877 -0.7533 -1.1865  0.5345
  119SOPE  C21712598   6.182   5.531   4.777  0.8160 -0.6697  0.9122
  119SOPE  H17R12599   6.283   5.507   4.739  1.4353 -1.4574  2.9398
  119SOPE  H17S12600   6.217   5.592   4.862  2.0351  0.6683 -0.4987
  119SOPE  C21812601   6.116   5.621   4.677 -0.4299 -0.5643  0.3964
  119SOPE  H18R12602   6.161   5.722   4.673  2.6167 -1.8450 -1.5946
  119SOPE  H18S12603   6.007   5.639   4.684 -0.2208  2.4931 -2.0567
  119SOPE  H18T12604   6.131   5.584   4.573 -1.6839 -2.3325  0.8010
  119SOPE   C3312605   6.269   5.342   6.108  0.1482 -0.1483  0.6362
  119SOPE   H3X12606   6.347   5.416   6.136 -1.3125  1.9866 -0.5830
  119SOPE   H3Y12607   6.169   5.378   6.138 -0.4424  0.1445 -1.4783
  119SOPE   C3412608   6.261   5.332   5.955  0.5853  0.7791  0.6269
  119SOPE   H4X12609   6.198   5.242   5.938  0.5506  0.3854  2.6116
  119SOPE   H4Y12610   6.364   5.323   5.914 -0.8507 -1.2873 -3.0384
  119SOPE   C3512611   6.191   5.454   5.897  0.1515  0.3341 -0.0371
  119SOPE   H5X12612   6.226   5.551   5.937 -1.9867  1.3336 -0.4402
  119SOPE   H5Y12613   6.082   5.462   5.915 -0.2012  1.8696 -2.4269
  119SOPE   C3612614   6.202   5.453   5.747  0.2826  0.2096 -0.0830
  119SOPE   H6X12615   6.110   5.408   5.703  1.1793 -0.0005 -1.8177
  119SOPE   H6Y12616   6.290   5.397   5.709 -0.0675 -1.3708  1.3087
  119SOPE   C3712617   6.208   5.592   5.684  0.1834  0.1083 -0.1923
  119SOPE   H7X12618   6.277   5.658   5.741 -0.7138 -0.2406  1.3296
  119SOPE   H7Y12619   6.105   5.631   5.670 -0.6472 -2.5197 -2.1506
  119SOPE   C3812620   6.259   5.577   5.540  0.2531 -0.0164 -0.2489
  119SOPE   H8X12621   6.208   5.494   5.486  2.4747 -0.8504 -1.2257
  119SOPE   H8Y12622   6.366   5.549   5.528  0.1806  0.0768 -1.1973
  119SOPE   C3912623   6.242   5.714   5.470 -0.3912 -0.5558  0.2427
  119SOPE   H9X12624   6.325   5.774   5.513 -0.6103  1.1780 -1.5756
  119SOPE   H9Y12625   6.146   5.767   5.486 -0.2800  0.5931 -2.3321
  119SOPE  C31012626   6.251   5.679   5.314  0.2720 -0.1557  0.6603
  119SOPE  H10X12627   6.147   5.664   5.277  0.3227  2.1302 -0.6332
  119SOPE  H10Y12628   6.317   5.593   5.295  1.0477  0.9491 -2.2446
  119SOPE  C31112629   6.302   5.806   5.237 -0.8968  0.2564 -0.1509
  119SOPE  H11X12630   6.404   5.832   5.271 -0.5615  0.6707 -1.4052
  119SOPE  H11Y12631   6.242   5.896   5.262  0.7458  2.0176 -2.1525
  119SOPE  C31212632   6.314   5.766   5.092 -0.7571  0.5506  0.5038
  119SOPE  H12X12633   6.260   5.840   5.028 -1.2431 -0.3357 -0.1256
  119SOPE  H12Y12634   6.268   5.668   5.070  0.4053  0.3172 -1.0610
  119SOPE  C31312635   6.468   5.765   5.045 -0.2073 -0.0162  0.3863
  119SOPE  H13X12636   6.523   5.690   5.106 -1.2455 -1.3124 -0.2350
  119SOPE  H13Y12637   6.512   5.863   5.075  0.9857 -0.4963  0.2771
  119SOPE  C31412638   6.491   5.734   4.899 -0.1715  0.7738 -0.6753
  119SOPE  H14X12639   6.431   5.643   4.881 -0.4443  0.7442  0.3038
  119SOPE  H14Y12640   6.598   5.709   4.884 -0.6291 -1.6660 -0.3252
  119SOPE  C31512641   6.458   5.854   4.803 -0.9381 -0.3039  0.5476
  119SOPE  H15X12642   6.512   5.943   4.842 -2.0806  0.5006  0.3435
  119SOPE  H15Y12643   6.351   5.878   4.815 -0.5947  3.9244 -2.4384
  119SOPE  C31612644   6.483   5.820   4.654 -0.3280 -0.3479  0.2783
  119SOPE  H16X12645   6.437   5.900   4.593  1.4006 -0.6811 -1.5650
  119SOPE  H16Y12646   6.427   5.728   4.628  0.6786 -1.2120  1.0917
  119SOPE  C31712647   6.631   5.802   4.608  0.5806  0.4840 -0.1345
  119SOPE  H17X12648   6.660   5.708   4.660 -0.4688  0.6643  0.8121
  119SOPE  H17Y12649   6.692   5.891   4.635  2.6999 -1.0297  0.4121
  119SOPE  C31812650   6.642   5.783   4.457  0.1918 -0.1329 -0.4958
  119SOPE  H18X12651   6.591   5.690   4.423 -3.9442  1.0842  1.7721
  119SOPE  H18Y12652   6.746   5.782   4.417 -0.0197 -3.1153 -1.2176
  119SOPE  H18Z12653   6.578   5.856   4.404  0.1653  1.3720  1.5012
  120SOPE     N12654   6.508   5.409   6.873  0.6659  0.4024 -0.4987
  120SOPE   HN112655   6.451   5.488   6.838 -1.6185 -0.8963  0.0967
  120SOPE   HN212656   6.600   5.406   6.823  0.6588  2.2942 -0.7102
  120SOPE   HN312657   6.452   5.324   6.855 -0.5583  1.4855 -2.0787
  120SOPE   C1212658   6.519   5.448   7.015 -0.1401  0.5508 -0.7506
  120SOPE  H12A12659   6.415   5.440   7.052 -0.6173  0.4692 -2.0664
  120SOPE  H12B12660   6.536   5.558   7.019 -0.5022  0.6155 -0.9573
  120SOPE   C1112661   6.632   5.380   7.089  0.2400 -0.3953 -0.2206
  120SOPE  H11A12662   6.612   5.271   7.105  1.1842 -0.6098 -0.4224
  120SOPE  H11B12663   6.636   5.415   7.194 -0.8458 -0.5104 -0.1310
  120SOPE     P12664   6.875   5.475   7.088 -0.1526 -0.4112 -0.0143
  120SOPE   O1312665   6.925   5.387   7.198  0.2688  0.1033 -0.1777
  120SOPE   O1412666   6.807   5.601   7.124 -0.6775 -0.3449  0.1231
  120SOPE   O1212667   6.758   5.388   7.014 -0.0304 -0.3883 -0.1120
  120SOPE   O1112668   6.988   5.504   6.966 -0.0201 -0.2168  0.1301
  120SOPE    C112669   6.945   5.514   6.831 -0.3382  0.0791  0.1820
  120SOPE    HA12670   6.989   5.603   6.780  1.5461 -0.8249  0.1657
  120SOPE    HB12671   6.835   5.528   6.820 -0.6208 -1.9411  0.1854
  120SOPE    C212672   6.989   5.399   6.748  0.4095 -0.0219 -0.1833
  120SOPE    HS12673   6.968   5.420   6.641  1.3079  3.3154  0.1838
  120SOPE   O2112674   6.927   5.273   6.783  0.1957 -0.1973 -0.0256
  120SOPE   C2112675   6.798   5.255   6.760 -0.1279  0.3168  1.0129
  120SOPE   O2212676   6.722   5.342   6.724 -0.6342 -0.0974  0.1372
  120SOPE   C2212677   6.765   5.106   6.773 -0.2412  0.3973 -0.4067
  120SOPE   H2R12678   6.658   5.091   6.798 -0.6051  1.1066 -1.4718
  120SOPE   H2S12679   6.842   5.067   6.843 -0.4482  0.3841 -0.1901
  120SOPE    C312680   7.141   5.386   6.766  0.1181  0.6905  0.4002
  120SOPE    HX12681   7.153   5.369   6.875 -0.2949 -1.9771  0.1105
  120SOPE    HY12682   7.203   5.474   6.742 -0.3043  0.6060 -1.1485
  120SOPE   O3112683   7.187   5.266   6.713 -0.5423 -0.8943  0.1337
  120SOPE   C3112684   7.198   5.269   6.580 -0.3169  1.0378  0.0974
  120SOPE   O3212685   7.188   5.371   6.515  0.5102 -0.1505  0.3187
  120SOPE   C3212686   7.249   5.129   6.524 -0.7300 -0.2010  0.4677
  120SOPE   H2X12687   7.188   5.042   6.558  0.2376 -0.4095  1.7467
  120SOPE   H2Y12688   7.349   5.112   6.569 -1.2023 -1.0753  1.2498
  120SOPE   C2312689   6.806   5.015   6.650 -0.4147 -0.0092 -0.5511
  120SOPE   H3R12690   6.791   4.908   6.678 -1.4947  0.4229  0.6228
  120SOPE   H3S12691   6.915   5.029   6.634 -0.3658  0.6406  0.2513
  120SOPE   C2412692   6.730   5.046   6.522 -0.3547 -0.0663 -0.1088
  120SOPE   H4R12693   6.634   4.990   6.530 -0.6101  0.4270  0.2970
  120SOPE   H4S12694   6.703   5.153   6.522  0.7058  0.2471  1.5417
  120SOPE   C2512695   6.806   5.027   6.385 -0.0870 -0.1097  0.2441
  120SOPE   H5R12696   6.885   5.104   6.372 -0.2416 -0.1637 -1.0670
  120SOPE   H5S12697   6.860   4.930   6.389 -1.9154 -1.2105 -0.8507
  120SOPE   C2612698   6.732   5.031   6.253 -0.2727  0.0516  0.1998
  120SOPE   H6R12699   6.666   4.943   6.235  0.2752 -0.2839 -0.2092
  120SOPE   H6S12700   6.666   5.120   6.252 -0.9087 -0.3736  1.8060
  120SOPE   C2712701   6.825   5.053   6.129 -0.1233  0.5324  0.3892
  120SOPE   H7R12702   6.871   5.151   6.157  2.3405 -0.4224 -0.0644
  120SOPE   H7S12703   6.898   4.970   6.133  1.2314  1.4585 -2.3270
  120SOPE   C2812704   6.735   5.049   6.004  0.3949  0.0007  0.0291
  120SOPE   H8R12705   6.700   4.945   5.985 -1.4702  1.0895 -3.4744
  120SOPE   H8S12706   6.640   5.104   6.020  0.3307  0.3247 -1.2859
  120SOPE   C2912707   6.806   5.089   5.876  0.0582  0.2636  0.1890
  120SOPE   H9112708   6.914   5.068   5.873 -0.1260 -0.7855  0.4090
  120SOPE  C21012709   6.750   5.149   5.767  1.5090  0.6885 -0.8211
  120SOPE  H10112710   6.799   5.155   5.669  1.7377 -1.7833 -0.9110
  120SOPE  C21112711   6.602   5.164   5.760  0.3026  0.5357 -0.2978
  120SOPE  H11R12712   6.549   5.190   5.854 -0.0702  2.4297 -0.9975
  120SOPE  H11S12713   6.557   5.066   5.732  1.4101  0.6188 -2.5425
  120SOPE  C21212714   6.561   5.283   5.677  0.3343  0.2586  0.3541
  120SOPE  H12R12715   6.626   5.370   5.700  1.0458 -0.1355 -0.1281
  120SOPE  H12S12716   6.461   5.322   5.707  0.1332  1.3756 -1.6079
  120SOPE  C21312717   6.559   5.267   5.523 -0.0084  0.5034  0.3423
  120SOPE  H13R12718   6.650   5.216   5.486 -0.5537 -0.3129  0.1199
  120SOPE  H13S12719   6.552   5.372   5.487 -2.8477  0.4815  0.6084
  120SOPE  C21412720   6.438   5.188   5.476  0.0633  0.1062  0.1553
  120SOPE  H14R12721   6.350   5.246   5.511  0.5008  1.0528 -0.2762
  120SOPE  H14S12722   6.449   5.085   5.516  1.0076 -0.5143 -1.6081
  120SOPE  C21512723   6.436   5.171   5.325  0.2321  0.3838 -0.2345
  120SOPE  H15R12724   6.374   5.086   5.287  1.1993  0.0294 -1.0387
  120SOPE  H15S12725   6.541   5.142   5.306 -0.0430 -0.0265 -1.1957
  120SOPE  C21612726   6.397   5.300   5.251 -0.3728 -0.4728  0.1473
  120SOPE  H16R12727   6.466   5.384   5.276 -0.0620 -0.5700 -0.3519
  120SOPE  H16S12728   6.298   5.326   5.293 -0.7832 -2.4463  0.4818
  120SOPE  C21712729   6.397   5.287   5.096  0.2686  0.1531 -0.4071
  120SOPE  H17R12730   6.310   5.220   5.079  0.6023 -0.5998  0.6856
  120SOPE  H17S12731   6.489   5.238   5.057  0.2964 -0.8573  0.8327
  120SOPE  C21812732   6.396   5.419   5.012 -0.4478  0.2822  0.1180
  120SOPE  H18R12733   6.467   5.489   5.063 -3.4349  1.4451  3.0733
  120SOPE  H18S12734   6.300   5.473   5.024 -0.3153  0.2688  1.4258
  120SOPE  H18T12735   6.421   5.401   4.906 -2.3561  1.5059 -0.5846
  120SOPE   C3312736   7.276   5.128   6.363 -0.0447 -0.8919 -0.2033
  120SOPE   H3X12737   7.338   5.041   6.333 -0.4458 -0.6671 -1.7471
  120SOPE   H3Y12738   7.336   5.218   6.339 -0.6287 -0.9482 -1.9900
  120SOPE   C3412739   7.155   5.118   6.275 -0.7813  0.2658  0.2406
  120SOPE   H4X12740   7.087   5.202   6.301 -0.1500  0.3843  1.6260
  120SOPE   H4Y12741   7.099   5.026   6.303  0.5861 -0.7644 -0.2667
  120SOPE   C3512742   7.184   5.106   6.123  0.3124  0.2302  0.7374
  120SOPE   H5X12743   7.244   5.193   6.090 -0.0727  0.5629  0.9042
  120SOPE   H5Y12744   7.084   5.120   6.077  2.0880 -0.9108 -4.0456
  120SOPE   C3612745   7.261   4.981   6.074 -0.0625 -0.1695 -0.1619
  120SOPE   H6X12746   7.213   4.884   6.097 -1.0193  0.4310  0.4611
  120SOPE   H6Y12747   7.347   4.984   6.144 -0.8205  1.2298  0.7889
  120SOPE   C3712748   7.305   5.003   5.928  0.0278  0.0081  0.2926
  120SOPE   H7X12749   7.389   4.936   5.902 -0.1981 -0.0770 -0.2269
  120SOPE   H7Y12750   7.343   5.108   5.928  4.0061 -1.2387 -1.9645
  120SOPE   C3812751   7.197   4.984   5.815  0.1723  0.3886 -0.5300
  120SOPE   H8X12752   7.122   5.060   5.846  3.1123  3.0919  0.5408
  120SOPE   H8Y12753   7.159   4.880   5.821  1.8801 -0.3925 -2.1522
  120SOPE   C3912754   7.252   5.023   5.676 -1.3922 -0.0663 -0.3404
  120SOPE   H9X12755   7.343   4.960   5.672 -1.5537 -0.2545 -1.1952
  120SOPE   H9Y12756   7.297   5.124   5.662 -0.9913 -0.1152  0.5507
  120SOPE  C31012757   7.152   4.995   5.565 -0.0740 -0.4393 -0.1111
  120SOPE  H10X12758   7.086   5.083   5.562  0.5374  0.0120 -0.6078
  120SOPE  H10Y12759   7.099   4.900   5.586 -2.7458  1.1723  0.8933
  120SOPE  C31112760   7.217   4.970   5.426  0.0714  0.0295 -0.7952
  120SOPE  H11X12761   7.280   4.878   5.429 -1.1833 -0.8204  1.2822
  120SOPE  H11Y12762   7.281   5.060   5.413  0.2919  0.2517  1.4119
  120SOPE  C31212763   7.124   4.953   5.307  0.2422 -0.5724  0.1473
  120SOPE  H12X12764   7.050   5.035   5.295 -0.1659 -1.0119 -0.4167
  120SOPE  H12Y12765   7.066   4.859   5.321 -0.2062 -0.0258  2.3065
  120SOPE  C31312766   7.184   4.954   5.164  0.6791  0.1882 -0.3318
  120SOPE  H13X12767   7.257   4.871   5.151  0.0695 -0.6019  1.1498
  120SOPE  H13Y12768   7.227   5.053   5.137  0.1717  0.0828 -1.6235
  120SOPE  C31412769   7.076   4.930   5.051  0.1778 -0.1440 -0.2213
  120SOPE  H14X12770   6.980   4.982   5.067  0.7460  0.4745  1.2761
  120SOPE  H14Y12771   7.047   4.823   5.056  0.8176 -0.2449  2.5142
  120SOPE  C31512772   7.125   4.963   4.915  0.1284  0.4065  0.4616
  120SOPE  H15X12773   7.223   4.917   4.887  0.2723  2.1050 -2.2306
  120SOPE  H15Y12774   7.144   5.072   4.906  0.5239  0.4053  1.1969
  120SOPE  C31612775   7.043   4.913   4.791 -0.0192  0.2021 -0.1176
  120SOPE  H16X12776   6.942   4.959   4.802  0.4582  1.0066  1.1676
  120SOPE  H16Y12777   7.053   4.803   4.801 -0.5362  0.0581 -1.1028
  120SOPE  C31712778   7.095   4.942   4.655  0.0480 -0.4223  0.6569
  120SOPE  H17X12779   7.038   4.879   4.584  0.7935 -0.4865  0.0925
  120SOPE  H17Y12780   7.201   4.908   4.641  0.3361 -0.0851  1.9569
  120SOPE  C31812781   7.069   5.083   4.618  0.0938 -0.4031 -0.5085
  120SOPE  H18X12782   7.125   5.151   4.685  2.0723 -1.4576 -1.0323
  120SOPE  H18Y12783   6.960   5.105   4.617  0.6553  2.9724  1.2381
  120SOPE  H18Z12784   7.099   5.103   4.513 -0.8597  2.6448 -0.2855
  121SOPE     N12785   6.597   2.955   7.172  0.3210 -0.4638  0.3404
  121SOPE   HN112786   6.685   2.907   7.199  0.0107 -1.6578 -0.6852
  121SOPE   HN212787   6.558   2.989   7.263  1.0208 -0.3349  0.5957
  121SOPE   HN312788   6.533   2.879   7.141 -0.5341 -0.3078  1.6260
  121SOPE   C1212789   6.607   3.072   7.069 -0.2761  0.8571 -0.0524
  121SOPE  H12A12790   6.644   3.032   6.972 -0.4759 -0.0333  0.2317
  121SOPE  H12B12791   6.666   3.159   7.105  0.3927  0.7933 -0.9531
  121SOPE   C1112792   6.466   3.136   7.052  0.1182  0.2661 -0.1535
  121SOPE  H11A12793   6.452   3.213   6.974 -0.2420  0.5422  0.1826
  121SOPE  H11B12794   6.441   3.194   7.143  2.7520 -0.0698  0.8896
  121SOPE     P12795   6.301   2.989   6.900 -0.0936  0.2570  0.4061
  121SOPE   O1312796   6.186   2.903   6.934  0.4094  0.4652  0.1824
  121SOPE   O1412797   6.407   2.919   6.821  0.5518  0.1517  0.1285
  121SOPE   O1212798   6.365   3.034   7.031 -0.0394  0.1094 -0.4910
  121SOPE   O1112799   6.259   3.119   6.819 -0.1176 -0.9612 -0.1626
  121SOPE    C112800   6.117   3.139   6.797 -0.5705 -0.5015  0.0610
  121SOPE    HA12801   6.110   3.249   6.780  0.0736 -0.1532  1.8073
  121SOPE    HB12802   6.052   3.117   6.884 -1.4613  0.4341 -0.3398
  121SOPE    C212803   6.066   3.072   6.667  0.5371  0.5056  0.3213
  121SOPE    HS12804   6.076   2.964   6.691  0.6094  0.6489  0.9474
  121SOPE   O2112805   6.160   3.106   6.562  0.3285 -0.1475 -0.6340
  121SOPE   C2112806   6.229   3.004   6.512 -0.0749  0.3452  0.3293
  121SOPE   O2212807   6.207   2.882   6.539  0.1964 -0.0662  0.3399
  121SOPE   C2212808   6.324   3.056   6.396 -0.2432  0.1737 -0.4533
  121SOPE   H2R12809   6.380   2.968   6.358 -0.8002 -0.1757 -0.4876
  121SOPE   H2S12810   6.400   3.130   6.428  0.5234 -0.1773 -1.4019
  121SOPE    C312811   5.922   3.104   6.623 -0.4076  0.2170 -0.2049
  121SOPE    HX12812   5.904   3.208   6.587 -0.5009  0.5388  0.7583
  121SOPE    HY12813   5.846   3.092   6.703 -0.5721 -0.3159 -0.4343
  121SOPE   O3112814   5.874   2.997   6.536 -0.1624  0.2693 -0.6216
  121SOPE   C3112815   5.871   3.029   6.410 -0.1286 -0.0904  0.4130
  121SOPE   O3212816   5.892   3.136   6.356  0.3631 -0.2340 -0.0541
  121SOPE   C3212817   5.839   2.903   6.333  0.5125  0.4317  0.2037
  121SOPE   H2X12818   5.749   2.926   6.272 -2.0915  1.1378  3.9790
  121SOPE   H2Y12819   5.804   2.829   6.407 -0.5549 -0.4005 -1.0852
  121SOPE   C2312820   6.258   3.125   6.264 -0.0564  0.5481 -0.0509
  121SOPE   H3R12821   6.223   3.227   6.291  0.5911  1.2175 -1.5893
  121SOPE   H3S12822   6.170   3.068   6.229 -0.4213  1.1041 -0.0586
  121SOPE   C2412823   6.361   3.123   6.154  0.1908  0.0750 -0.4234
  121SOPE   H4R12824   6.455   3.154   6.204  0.3375 -2.6413  1.2237
  121SOPE   H4S12825   6.402   3.024   6.123  1.2009  1.2005 -2.9307
  121SOPE   C2512826   6.326   3.222   6.044 -0.3550  0.5434  0.1914
  121SOPE   H5R12827   6.246   3.188   5.974 -1.0703  1.1038  0.7225
  121SOPE   H5S12828   6.284   3.306   6.104 -0.1907  0.1474  0.8748
  121SOPE   C2612829   6.460   3.265   5.975 -0.8443  0.0530 -0.1721
  121SOPE   H6R12830   6.520   3.329   6.044 -0.3437  0.7294 -1.2021
  121SOPE   H6S12831   6.518   3.170   5.970 -0.3814  0.2682  0.8687
  121SOPE   C2712832   6.422   3.324   5.841  0.4663 -0.1503 -0.1734
  121SOPE   H7R12833   6.414   3.234   5.777  1.6725 -2.0954  2.2722
  121SOPE   H7S12834   6.322   3.374   5.842  0.4977  0.1989 -3.5631
  121SOPE   C2812835   6.529   3.419   5.780  0.3333 -0.2018  0.2145
  121SOPE   H8R12836   6.612   3.350   5.756 -1.2863 -1.3329 -2.5815
  121SOPE   H8S12837   6.473   3.451   5.690  0.0460  0.8653  0.7579
  121SOPE   C2912838   6.557   3.530   5.880  0.6374 -0.4353  0.2050
  121SOPE   H9112839   6.569   3.511   5.988  2.0454 -0.2529  0.0990
  121SOPE  C21012840   6.584   3.657   5.852  0.0850  0.4665 -0.2641
  121SOPE  H10112841   6.605   3.732   5.929 -1.2639  1.1408 -0.5317
  121SOPE  C21112842   6.612   3.708   5.715  0.4669  0.3187 -0.2715
  121SOPE  H11R12843   6.593   3.818   5.707 -0.6862  0.0669 -1.4277
  121SOPE  H11S12844   6.532   3.664   5.653 -1.3512  0.7792  1.6085
  121SOPE  C21212845   6.750   3.674   5.652 -0.1612 -0.0334 -0.4645
  121SOPE  H12R12846   6.735   3.706   5.547 -0.1802 -1.0482 -0.7857
  121SOPE  H12S12847   6.760   3.564   5.641  1.7440  0.1330 -0.6543
  121SOPE  C21312848   6.862   3.741   5.730  0.4009  0.1100  0.2957
  121SOPE  H13R12849   6.855   3.715   5.837 -0.6808  0.9201  0.4394
  121SOPE  H13S12850   6.847   3.852   5.727 -0.4530 -0.0081 -0.4330
  121SOPE  C21412851   7.001   3.715   5.684 -0.2447  0.4430 -0.4531
  121SOPE  H14R12852   7.069   3.780   5.743 -2.0053  1.3928  0.6077
  121SOPE  H14S12853   7.015   3.736   5.576 -1.4082  0.0325 -0.6941
  121SOPE  C21512854   7.053   3.581   5.718  0.1315 -0.3504  1.0128
  121SOPE  H15R12855   7.147   3.559   5.664 -0.5356 -1.5920  0.3127
  121SOPE  H15S12856   6.970   3.518   5.679 -2.0539  1.5156  2.3717
  121SOPE  C21612857   7.076   3.539   5.861  0.5406  1.0985  0.0842
  121SOPE  H16R12858   7.063   3.428   5.861  0.3274  1.0949 -1.6345
  121SOPE  H16S12859   6.991   3.571   5.925  1.5105 -0.6314  2.3929
  121SOPE  C21712860   7.209   3.588   5.918 -0.1670 -0.2088 -0.2178
  121SOPE  H17R12861   7.209   3.699   5.921  0.0065 -0.2263  1.8282
  121SOPE  H17S12862   7.286   3.556   5.844 -1.9102 -3.2119 -0.8954
  121SOPE  C21812863   7.257   3.538   6.052 -0.1264  0.3539 -0.1847
  121SOPE  H18R12864   7.368   3.540   6.055 -0.1123  3.4575  0.6887
  121SOPE  H18S12865   7.213   3.436   6.059 -1.5024  0.7805 -1.9470
  121SOPE  H18T12866   7.210   3.592   6.137  0.4136  1.9401 -0.8512
  121SOPE   C3312867   5.964   2.864   6.254  0.0078 -0.2180 -0.1405
  121SOPE   H3X12868   6.046   2.832   6.321 -0.0777  1.6345  0.9252
  121SOPE   H3Y12869   6.007   2.948   6.194  1.3868 -0.7385  0.0933
  121SOPE   C3412870   5.945   2.750   6.154  0.1710  0.7336 -0.5077
  121SOPE   H4X12871   5.839   2.744   6.121 -0.2734  0.0250  0.9700
  121SOPE   H4Y12872   5.969   2.657   6.210 -0.0807 -1.2872 -3.5240
  121SOPE   C3512873   6.050   2.758   6.044 -0.0215  0.2822  0.6386
  121SOPE   H5X12874   6.149   2.720   6.079  1.0715  2.9286  0.6377
  121SOPE   H5Y12875   6.064   2.864   6.016 -0.0779  0.1038 -0.0801
  121SOPE   C3612876   6.012   2.688   5.914 -0.6533  0.2930 -0.1462
  121SOPE   H6X12877   5.912   2.711   5.870 -0.7517 -0.1645 -0.1637
  121SOPE   H6Y12878   6.030   2.584   5.947  0.7857  1.1634  2.0382
  121SOPE   C3712879   6.111   2.725   5.809  0.0243  0.7430 -0.2636
  121SOPE   H7X12880   6.211   2.702   5.851 -0.2429  1.1000  0.6039
  121SOPE   H7Y12881   6.097   2.835   5.798  0.7692  1.0655  1.5631
  121SOPE   C3812882   6.076   2.645   5.679  0.7170  0.3246  0.0647
  121SOPE   H8X12883   5.967   2.652   5.659  0.4261  0.5738  1.5910
  121SOPE   H8Y12884   6.097   2.539   5.704  1.2006  0.7542  1.5941
  121SOPE   C3912885   6.147   2.700   5.558 -0.1420 -0.5389 -0.0597
  121SOPE   H9X12886   6.253   2.705   5.591 -1.0549 -0.3349  3.0792
  121SOPE   H9Y12887   6.122   2.804   5.526  0.1667 -0.2306  0.6801
  121SOPE  C31012888   6.134   2.612   5.430 -0.0283  0.5288 -0.0392
  121SOPE  H10X12889   6.027   2.608   5.399 -0.4125 -0.4569  1.2910
  121SOPE  H10Y12890   6.157   2.508   5.462  1.5640  1.0590  0.6668
  121SOPE  C31112891   6.233   2.651   5.324  0.0506  0.2912  0.3523
  121SOPE  H11X12892   6.332   2.671   5.370  0.3915  0.4717 -0.4396
  121SOPE  H11Y12893   6.198   2.742   5.269 -2.0343 -1.4940 -1.4768
  121SOPE  C31212894   6.258   2.535   5.230 -0.2578 -0.2355  0.2387
  121SOPE  H12X12895   6.291   2.447   5.289 -0.8063 -0.1118  0.7426
  121SOPE  H12Y12896   6.348   2.562   5.170  0.5806  0.3440  1.7023
  121SOPE  C31312897   6.140   2.518   5.133  0.0906  0.6064 -0.0226
  121SOPE  H13X12898   6.122   2.616   5.083 -2.2623  0.9395  1.3412
  121SOPE  H13Y12899   6.046   2.490   5.185 -0.1311  0.9379 -0.2367
  121SOPE  C31412900   6.183   2.409   5.027  0.6031  0.0498  0.0216
  121SOPE  H14X12901   6.195   2.307   5.070 -0.3679  0.3138  0.9766
  121SOPE  H14Y12902   6.271   2.445   4.971 -1.0977  1.1331 -2.1240
  121SOPE  C31512903   6.073   2.411   4.914  0.6266 -0.0590  0.2859
  121SOPE  H15X12904   5.991   2.345   4.949  2.1749 -2.2242  0.0365
  121SOPE  H15Y12905   6.117   2.361   4.825 -1.2194  0.8483 -1.2055
  121SOPE  C31612906   6.024   2.547   4.857  0.2280 -0.3535 -0.0293
  121SOPE  H16X12907   6.096   2.632   4.858  0.5467 -0.6204  0.0505
  121SOPE  H16Y12908   5.946   2.575   4.931  0.1671 -1.1388  0.2104
  121SOPE  C31712909   5.969   2.535   4.713 -0.2263  0.2989  0.1554
  121SOPE  H17X12910   5.890   2.457   4.714  1.4345 -1.4711  1.0420
  121SOPE  H17Y12911   6.052   2.498   4.649 -0.3544  1.8921 -0.9921
  121SOPE  C31812912   5.941   2.674   4.648 -0.6094  0.3358  0.4221
  121SOPE  H18X12913   5.862   2.724   4.708 -0.0120 -0.4427  1.9108
  121SOPE  H18Y12914   5.891   2.660   4.549 -1.6599 -0.2588  1.0193
  121SOPE  H18Z12915   6.035   2.734   4.648 -0.7895  0.6749 -1.4853
  122SOPE     N12916   0.584   2.965   7.179  0.0050 -0.3820 -0.2734
  122SOPE   HN112917   0.531   3.040   7.228 -1.3495 -0.3748 -1.6886
  122SOPE   HN212918   0.521   2.922   7.109  1.8583 -2.4553 -0.7615
  122SOPE   HN312919   0.608   2.891   7.248  1.1909  1.1809  1.0597
  122SOPE   C1212920   0.705   3.000   7.101  0.1525 -0.1455  0.5134
  122SOPE  H12A12921   0.748   2.907   7.056 -0.6037  0.3898 -1.4292
  122SOPE  H12B12922   0.780   3.043   7.170  0.4283  1.6018 -0.8177
  122SOPE   C1112923   0.679   3.092   6.980 -0.8485  0.5012  0.7979
  122SOPE  H11A12924   0.627   3.186   7.011  1.1937  2.1295 -0.4453
  122SOPE  H11B12925   0.607   3.047   6.908 -1.9345  0.6635  1.7468
  122SOPE     P12926   0.879   3.034   6.808 -0.3542  0.0410  0.0858
  122SOPE   O1312927   0.789   2.936   6.756 -0.0889  0.5922 -0.2636
  122SOPE   O1412928   1.010   2.997   6.864 -0.1300  0.0233 -0.4458
  122SOPE   O1212929   0.808   3.126   6.917  0.2758  1.1059  0.1182
  122SOPE   O1112930   0.910   3.128   6.687 -0.2523 -0.0681  0.4592
  122SOPE    C112931   0.834   3.244   6.657 -0.1578 -0.1147 -0.2636
  122SOPE    HA12932   0.875   3.327   6.718  1.4239 -0.8779 -0.2476
  122SOPE    HB12933   0.725   3.236   6.676  0.4739 -1.8221  3.5043
  122SOPE    C212934   0.842   3.287   6.505 -0.6808 -0.6505  0.2972
  122SOPE    HS12935   0.772   3.370   6.481 -0.2591 -0.0317  1.1403
  122SOPE   O2112936   0.817   3.171   6.418 -0.3267 -0.0318  0.1790
  122SOPE   C2112937   0.688   3.149   6.405  0.0693 -0.1980 -0.5422
  122SOPE   O2212938   0.601   3.222   6.450  0.0179 -0.3261 -0.0846
  122SOPE   C2212939   0.671   3.022   6.317  0.4173 -0.2493 -0.2440
  122SOPE   H2R12940   0.568   2.982   6.329  1.1987 -1.8133  1.9126
  122SOPE   H2S12941   0.751   2.953   6.349  0.3948  0.1985  0.8221
  122SOPE    C312942   0.989   3.326   6.479 -0.9824  0.7249 -0.7128
  122SOPE    HX12943   1.061   3.267   6.540 -1.9999  1.6420  1.4731
  122SOPE    HY12944   1.002   3.426   6.525  1.7692 -0.2537  0.8668
  122SOPE   O3112945   1.020   3.337   6.340 -0.1373 -0.0912  0.9271
  122SOPE   C3112946   1.139   3.387   6.325  0.4173 -1.0074 -0.0344
  122SOPE   O3212947   1.215   3.409   6.419  1.2093 -0.0100 -0.2538
  122SOPE   C3212948   1.175   3.412   6.180  0.1013 -0.0440  0.1531
  122SOPE   H2X12949   1.105   3.493   6.150 -0.1201 -0.3522 -0.1691
  122SOPE   H2Y12950   1.155   3.318   6.125  0.5813  0.1115 -0.2980
  122SOPE   C2312951   0.703   3.045   6.168 -0.2169  0.0375 -0.2086
  122SOPE   H3R12952   0.703   2.948   6.114  2.0498  1.0153 -2.1625
  122SOPE   H3S12953   0.804   3.088   6.150 -0.4580  0.3451 -0.8378
  122SOPE   C2412954   0.601   3.125   6.098 -0.3742  0.4583 -0.1131
  122SOPE   H4R12955   0.500   3.085   6.121  0.9015 -1.3601  2.7532
  122SOPE   H4S12956   0.615   3.224   6.147  2.8012 -0.5038  1.1083
  122SOPE   C2512957   0.635   3.132   5.948  0.3493 -0.4886 -0.1334
  122SOPE   H5R12958   0.699   3.222   5.939 -0.8716  0.5903  1.2784
  122SOPE   H5S12959   0.692   3.042   5.917  1.1380  0.2172 -0.7863
  122SOPE   C2612960   0.521   3.137   5.840  0.3771  0.3804 -0.5705
  122SOPE   H6R12961   0.442   3.061   5.855  1.0924 -0.0813  1.1602
  122SOPE   H6S12962   0.481   3.237   5.870  0.4196  0.7339 -1.6634
  122SOPE   C2712963   0.574   3.157   5.692  0.8164  0.7967 -0.6511
  122SOPE   H7R12964   0.618   3.058   5.663  0.5505  0.3176  0.5158
  122SOPE   H7S12965   0.490   3.177   5.623  1.2600 -1.6848 -2.0580
  122SOPE   C2812966   0.691   3.262   5.672  0.0520  0.6544  0.3321
  122SOPE   H8R12967   0.785   3.236   5.726  0.3996 -0.2332 -0.6603
  122SOPE   H8S12968   0.728   3.259   5.568  0.9766  2.1829  0.5872
  122SOPE   C2912969   0.634   3.399   5.690  0.0072  0.4028  0.4181
  122SOPE   H9112970   0.562   3.400   5.773 -0.5240  0.9606 -0.0468
  122SOPE  C21012971   0.632   3.499   5.594 -0.3072  0.1374 -0.3685
  122SOPE  H10112972   0.570   3.588   5.612 -0.6267 -0.1219 -0.1702
  122SOPE  C21112973   0.705   3.500   5.467 -0.6295 -0.3674 -0.4751
  122SOPE  H11R12974   0.784   3.422   5.467 -0.4240 -0.1629 -0.4155
  122SOPE  H11S12975   0.751   3.599   5.443 -0.6345  0.3373  2.1437
  122SOPE  C21212976   0.609   3.460   5.362 -0.4525 -0.0000  0.0154
  122SOPE  H12R12977   0.532   3.386   5.392  0.6906 -1.4139 -0.4743
  122SOPE  H12S12978   0.671   3.413   5.284  1.5658  0.5931  1.1864
  122SOPE  C21312979   0.539   3.585   5.309 -0.6821 -0.4804  0.4318
  122SOPE  H13R12980   0.611   3.670   5.304 -1.3084  0.2004  2.0604
  122SOPE  H13S12981   0.445   3.611   5.362  0.1239  1.8740  0.8168
  122SOPE  C21412982   0.489   3.564   5.165  0.0849 -0.1026 -0.7332
  122SOPE  H14R12983   0.436   3.659   5.143 -0.0058  0.0751  0.2162
  122SOPE  H14S12984   0.413   3.483   5.162  0.4515 -0.4681 -0.2651
  122SOPE  C21512985   0.581   3.527   5.047 -0.8196  0.2137 -0.1943
  122SOPE  H15R12986   0.645   3.438   5.068  0.8145  1.6026  0.9729
  122SOPE  H15S12987   0.645   3.616   5.027 -0.4398  0.1492  0.6713
  122SOPE  C21612988   0.500   3.484   4.923  0.3824 -0.5631  0.1386
  122SOPE  H16R12989   0.436   3.570   4.893 -0.3629 -0.4795  1.8685
  122SOPE  H16S12990   0.436   3.402   4.963  0.5351  0.2351  2.1106
  122SOPE  C21712991   0.581   3.430   4.809 -0.1787 -0.4209  0.2172
  122SOPE  H17R12992   0.638   3.338   4.836  0.6086  0.0718  0.2855
  122SOPE  H17S12993   0.661   3.504   4.784 -2.2531  0.9641 -2.9273
  122SOPE  C21812994   0.500   3.409   4.680 -0.0042 -0.0870 -0.2223
  122SOPE  H18R12995   0.563   3.361   4.602  0.9596  0.7462  0.0259
  122SOPE  H18S12996   0.458   3.509   4.656 -0.0802 -0.0784 -0.0563
  122SOPE  H18T12997   0.410   3.344   4.681 -1.2474  1.5352  1.9410
  122SOPE   C3312998   1.315   3.466   6.163 -0.0530 -0.1147  0.9951
  122SOPE   H3X12999   1.382   3.391   6.209 -0.1078 -1.1357 -0.5246
  122SOPE   H3Y13000   1.335   3.561   6.218  2.1107 -0.7331  1.3717
  122SOPE   C3413001   1.348   3.477   6.010  0.3927 -0.6703 -0.2966
  122SOPE   H4X13002   1.255   3.529   5.977  1.7733  2.0534 -0.1724
  122SOPE   H4Y13003   1.358   3.378   5.961 -0.4353 -0.7042 -0.4154
  122SOPE   C3513004   1.467   3.573   5.963  0.3162 -0.2851  0.9833
  122SOPE   H5X13005   1.568   3.540   5.997  0.5053  0.0363  0.7419
  122SOPE   H5Y13006   1.455   3.679   5.997 -0.7392  1.8992 -5.0324
  122SOPE   C3613007   1.463   3.580   5.808  0.3357 -0.0076 -0.2868
  122SOPE   H6X13008   1.366   3.612   5.764  0.1806 -1.2000 -0.8649
  122SOPE   H6Y13009   1.475   3.479   5.763  0.9067 -1.1774  2.3208
  122SOPE   C3713010   1.574   3.672   5.751 -0.2774 -0.9477 -0.2391
  122SOPE   H7X13011   1.677   3.634   5.770 -0.2976 -0.0965  1.9808
  122SOPE   H7Y13012   1.559   3.767   5.807 -0.3571 -2.0168  1.6552
  122SOPE   C3813013   1.558   3.711   5.604  0.0876  0.4321  0.4636
  122SOPE   H8X13014   1.654   3.760   5.577  0.9784 -0.7771  1.3010
  122SOPE   H8Y13015   1.469   3.767   5.571 -0.0258  0.4584  0.8151
  122SOPE   C3913016   1.573   3.583   5.511 -0.3156  0.7191  0.2939
  122SOPE   H9X13017   1.484   3.519   5.531  0.0549 -0.8367 -2.4774
  122SOPE   H9Y13018   1.661   3.522   5.541  0.0353 -0.2533 -2.4025
  122SOPE  C31013019   1.575   3.618   5.366 -0.4326 -0.1248  0.4210
  122SOPE  H10X13020   1.476   3.640   5.321  0.7089 -0.5959 -2.5536
  122SOPE  H10Y13021   1.604   3.527   5.310  0.3150  0.1088  0.4128
  122SOPE  C31113022   1.680   3.727   5.320  0.5024 -0.4233  0.2875
  122SOPE  H11X13023   1.772   3.701   5.378  0.9934 -0.4177 -0.4758
  122SOPE  H11Y13024   1.636   3.820   5.360 -0.6537 -0.8968  0.1655
  122SOPE  C31213025   1.706   3.725   5.167  0.1061 -0.3778 -0.7056
  122SOPE  H12X13026   1.740   3.621   5.150 -0.3489 -0.9460  1.6253
  122SOPE  H12Y13027   1.798   3.783   5.141  0.3794 -0.0831  0.8580
  122SOPE  C31313028   1.583   3.757   5.082  0.0715 -0.0780  0.3813
  122SOPE  H13X13029   1.599   3.865   5.060  1.2221 -0.0096  1.4463
  122SOPE  H13Y13030   1.487   3.742   5.136 -0.5221 -1.4343 -0.9712
  122SOPE  C31413031   1.581   3.674   4.952 -0.1341 -0.3704 -0.1727
  122SOPE  H14X13032   1.580   3.568   4.985  1.2765 -0.7049 -1.1036
  122SOPE  H14Y13033   1.670   3.691   4.888 -0.4819  1.5561 -0.1991
  122SOPE  C31513034   1.461   3.712   4.858  0.3224  0.1934 -0.0338
  122SOPE  H15X13035   1.460   3.822   4.843 -1.9043  0.3392  0.7202
  122SOPE  H15Y13036   1.370   3.694   4.920  1.8241 -2.8420  1.4739
  122SOPE  C31613037   1.460   3.634   4.731  0.4346 -0.1422 -0.1182
  122SOPE  H16X13038   1.365   3.650   4.675  0.3412 -0.4506 -0.0524
  122SOPE  H16Y13039   1.474   3.525   4.750 -1.5261 -0.2868  0.8072
  122SOPE  C31713040   1.571   3.679   4.632 -0.2228  1.0583  0.2060
  122SOPE  H17X13041   1.676   3.685   4.670  0.1571  1.7981 -0.9282
  122SOPE  H17Y13042   1.543   3.779   4.593 -0.2752  1.0675  0.2658
  122SOPE  C31813043   1.570   3.595   4.502 -0.0674 -0.7750  0.1384
  122SOPE  H18X13044   1.472   3.622   4.457  0.7504  0.2379 -1.0946
  122SOPE  H18Y13045   1.569   3.489   4.535 -0.9010 -0.1745  2.1848
  122SOPE  H18Z13046   1.654   3.605   4.430  0.0900 -0.1897  0.3943
  123SOPE     N13047   1.051   4.622   2.179 -0.0230 -0.1105 -0.0146
  123SOPE   HN113048   1.142   4.663   2.149 -1.2210  1.3217 -1.9059
  123SOPE   HN213049   1.079   4.566   2.262  3.0940  1.3353  0.0748
  123SOPE   HN313050   1.009   4.548   2.120  1.0781 -0.1701 -0.7435
  123SOPE   C1213051   0.948   4.726   2.209  0.6911 -0.3785 -0.4682
  123SOPE  H12A13052   0.859   4.667   2.238  1.0785  0.0637  1.7979
  123SOPE  H12B13053   0.939   4.793   2.121 -1.2291 -1.7621 -1.3942
  123SOPE   C1113054   0.988   4.800   2.336  0.3063  0.9910  0.2355
  123SOPE  H11A13055   0.997   4.731   2.423 -0.0506  0.4588 -0.1454
  123SOPE  H11B13056   0.907   4.862   2.381 -0.8556 -0.6597  0.5090
  123SOPE     P13057   1.124   5.011   2.239 -0.1711  0.6148  0.1172
  123SOPE   O1313058   1.031   5.120   2.283 -0.4434  0.1594 -0.2704
  123SOPE   O1413059   1.126   4.979   2.095 -0.1792 -0.7326  0.6783
  123SOPE   O1213060   1.101   4.875   2.316 -0.3293 -0.0035  0.0029
  123SOPE   O1113061   1.269   5.059   2.279 -0.2493  0.0399  0.6649
  123SOPE    C113062   1.359   5.001   2.365 -0.5796  0.2583 -0.2732
  123SOPE    HA13063   1.463   5.006   2.327 -0.1155  0.0323  0.9320
  123SOPE    HB13064   1.342   4.891   2.374 -0.9273  0.3687  0.5075
  123SOPE    C213065   1.370   5.067   2.502 -0.2373  0.9137  0.1519
  123SOPE    HS13066   1.440   5.004   2.562 -1.3038 -2.3412 -1.7681
  123SOPE   O2113067   1.240   5.079   2.553 -0.2848  0.1546  0.0417
  123SOPE   C2113068   1.204   4.967   2.614  0.1182 -0.2670  0.2924
  123SOPE   O2213069   1.271   4.866   2.623  0.5141  0.1108 -0.2413
  123SOPE   C2213070   1.056   4.985   2.650  0.1638  0.3753 -0.3197
  123SOPE   H2R13071   1.005   4.906   2.589  1.2398 -1.2274  0.7780
  123SOPE   H2S13072   1.025   5.086   2.617  0.0821  1.1014  1.8193
  123SOPE    C313073   1.436   5.212   2.482  0.2221  0.1357 -1.2567
  123SOPE    HX13074   1.371   5.257   2.403 -0.4137  1.1425 -0.1941
  123SOPE    HY13075   1.537   5.212   2.437  0.8746  1.6255  0.1367
  123SOPE   O3113076   1.434   5.290   2.605 -0.4473 -0.4848  0.4546
  123SOPE   C3113077   1.542   5.266   2.690 -0.2433  0.6237 -0.4591
  123SOPE   O3213078   1.623   5.175   2.679  0.0044 -0.2323  0.4785
  123SOPE   C3213079   1.534   5.357   2.813  0.2686 -0.7579  0.2650
  123SOPE   H2X13080   1.567   5.460   2.789 -1.4033 -0.2781 -0.1158
  123SOPE   H2Y13081   1.600   5.303   2.884 -0.0898  0.8602  1.8943
  123SOPE   C2313082   1.032   4.974   2.803 -0.0982 -0.4289 -0.0937
  123SOPE   H3R13083   1.043   4.868   2.832 -0.7022 -0.0092  1.8520
  123SOPE   H3S13084   0.929   5.005   2.831  1.4410  1.0683  5.1529
  123SOPE   C2413085   1.117   5.070   2.889  0.0901  0.3255 -1.0569
  123SOPE   H4R13086   1.223   5.037   2.884  0.0617  0.3437 -2.3409
  123SOPE   H4S13087   1.109   5.173   2.846  1.8748  1.2642  0.6792
  123SOPE   C2513088   1.071   5.072   3.040 -0.3044 -0.3751  0.8997
  123SOPE   H5R13089   1.123   5.157   3.089 -0.6290  0.2794  0.1279
  123SOPE   H5S13090   0.964   5.102   3.047  0.0886  1.4044 -0.0757
  123SOPE   C2613091   1.096   4.944   3.122  0.4772  0.3284  0.2160
  123SOPE   H6R13092   1.056   4.859   3.062 -0.7112  0.9544  0.0882
  123SOPE   H6S13093   1.203   4.923   3.146  1.1551  2.5017 -0.6840
  123SOPE   C2713094   1.018   4.959   3.250 -0.0378  0.4741 -0.4532
  123SOPE   H7R13095   1.051   5.049   3.306 -0.6041 -0.6555  1.7739
  123SOPE   H7S13096   0.913   4.984   3.222  0.4755  2.1372 -1.0304
  123SOPE   C2813097   1.030   4.846   3.358  0.1748  0.2723 -0.3326
  123SOPE   H8R13098   1.061   4.753   3.306 -1.5508 -0.3492 -0.3219
  123SOPE   H8S13099   1.129   4.866   3.403  0.1126 -0.0485 -0.0478
  123SOPE   C2913100   0.911   4.822   3.445  0.0754 -0.7246  0.5863
  123SOPE   H9113101   0.852   4.739   3.404  2.0117 -0.8008 -2.3711
  123SOPE  C21013102   0.879   4.890   3.550 -0.1164 -0.4592 -0.5089
  123SOPE  H10113103   0.795   4.857   3.613  0.1954  0.4937  0.4381
  123SOPE  C21113104   0.956   5.004   3.606 -0.1228  0.5120  0.0598
  123SOPE  H11R13105   0.921   5.104   3.574  0.5891  0.8325  0.2567
  123SOPE  H11S13106   1.060   5.017   3.569 -0.7422  3.2481 -0.9333
  123SOPE  C21213107   0.957   5.012   3.758  0.2048  0.4204 -0.9147
  123SOPE  H12R13108   1.012   5.106   3.784  1.0172 -0.3815  0.3594
  123SOPE  H12S13109   1.008   4.923   3.799 -0.6871  0.2425 -0.1589
  123SOPE  C21313110   0.819   5.015   3.823 -0.1520  0.2612  0.0302
  123SOPE  H13R13111   0.784   4.910   3.838 -1.7170  0.4937 -1.5869
  123SOPE  H13S13112   0.742   5.070   3.765 -0.5062 -0.9852 -0.7326
  123SOPE  C21413113   0.817   5.071   3.970 -0.5868 -0.2034  0.0229
  123SOPE  H14R13114   0.718   5.053   4.017 -0.4558  1.4612  1.0208
  123SOPE  H14S13115   0.840   5.179   3.961  5.1609 -1.1150 -0.3462
  123SOPE  C21513116   0.930   5.003   4.052 -0.0635  0.0133  0.1296
  123SOPE  H15R13117   1.026   5.058   4.042 -0.2133  0.2475 -0.0355
  123SOPE  H15S13118   0.942   4.895   4.027 -1.0171  0.3954 -2.2216
  123SOPE  C21613119   0.899   5.025   4.201  0.3816  0.7914  0.3973
  123SOPE  H16R13120   0.812   4.964   4.233  1.7996 -0.7079  1.5539
  123SOPE  H16S13121   0.876   5.132   4.223 -0.5626 -0.0973  4.4938
  123SOPE  C21713122   1.006   4.985   4.303  0.1661 -0.3168 -0.3045
  123SOPE  H17R13123   0.994   5.057   4.387 -0.3162  1.8979 -2.1723
  123SOPE  H17S13124   1.094   5.029   4.252  0.7886  0.0176  1.0158
  123SOPE  C21813125   1.012   4.838   4.341 -0.2407 -0.0692 -0.6513
  123SOPE  H18R13126   1.036   4.775   4.253  0.3802 -1.8497  0.7220
  123SOPE  H18S13127   0.911   4.809   4.378 -0.0326  0.3045  0.2312
  123SOPE  H18T13128   1.093   4.818   4.415 -0.6250  1.9253  0.3824
  123SOPE   C3313129   1.389   5.366   2.871  0.3720 -0.4182 -0.2842
  123SOPE   H3X13130   1.355   5.270   2.917  0.6727 -0.9009 -1.0451
  123SOPE   H3Y13131   1.314   5.389   2.792  0.6430  0.7374 -0.2135
  123SOPE   C3413132   1.380   5.469   2.982  0.2047  0.1568 -0.0662
  123SOPE   H4X13133   1.356   5.568   2.939 -3.1927 -0.5958 -0.1912
  123SOPE   H4Y13134   1.480   5.469   3.031  0.1347 -0.4064  0.0864
  123SOPE   C3513135   1.269   5.438   3.086 -0.8800  0.2649 -0.3932
  123SOPE   H5X13136   1.268   5.327   3.083  0.8342  0.1882  0.4488
  123SOPE   H5Y13137   1.170   5.469   3.046 -0.0909  3.4116 -0.1763
  123SOPE   C3613138   1.313   5.473   3.230 -0.2431  0.1282 -0.3715
  123SOPE   H6X13139   1.306   5.581   3.255 -0.7308 -0.6237  3.4623
  123SOPE   H6Y13140   1.414   5.438   3.261 -0.3719  1.6571  2.1517
  123SOPE   C3713141   1.207   5.399   3.319  0.1055 -0.2403 -0.0673
  123SOPE   H7X13142   1.218   5.289   3.310 -0.8776 -0.2467 -1.6159
  123SOPE   H7Y13143   1.105   5.430   3.288 -0.0217 -2.0706 -1.6851
  123SOPE   C3813144   1.223   5.438   3.467  0.4911  0.1557 -0.8021
  123SOPE   H8X13145   1.222   5.548   3.482  0.3430 -0.0687  1.1715
  123SOPE   H8Y13146   1.323   5.406   3.505  0.6943  0.9631 -0.6401
  123SOPE   C3913147   1.138   5.372   3.571  0.1424  0.4176  0.2467
  123SOPE   H9X13148   1.161   5.265   3.594  0.5675  0.6530  0.9735
  123SOPE   H9Y13149   1.034   5.374   3.534  0.5371 -1.0425 -1.0640
  123SOPE  C31013150   1.148   5.454   3.700  0.9426 -0.0739 -0.2030
  123SOPE  H10X13151   1.158   5.564   3.684  1.3109 -0.1518 -0.5268
  123SOPE  H10Y13152   1.234   5.425   3.765 -0.1644  0.1473  1.4116
  123SOPE  C31113153   1.027   5.436   3.792 -0.0561 -0.2093  0.3914
  123SOPE  H11X13154   1.007   5.331   3.823  1.1638 -0.4687  0.3658
  123SOPE  H11Y13155   0.942   5.487   3.741  2.3440  1.1813 -2.5422
  123SOPE  C31213156   1.047   5.506   3.922 -0.3236  0.3580 -0.5914
  123SOPE  H12X13157   1.099   5.603   3.913  0.3998  0.4951  3.1533
  123SOPE  H12Y13158   1.134   5.456   3.970  1.2505  0.7701 -2.8772
  123SOPE  C31313159   0.923   5.494   4.006 -0.0877 -0.3233 -0.4617
  123SOPE  H13X13160   0.897   5.391   4.037 -0.0579 -0.2189 -0.0786
  123SOPE  H13Y13161   0.842   5.540   3.945  0.7408  0.8375 -0.7298
  123SOPE  C31413162   0.932   5.577   4.141  0.7673  0.1425  0.4982
  123SOPE  H14X13163   0.834   5.572   4.192  1.3766  2.7177  2.1218
  123SOPE  H14Y13164   0.943   5.685   4.120  0.0633  0.0911 -0.1388
  123SOPE  C31513165   1.032   5.523   4.245 -0.3078 -0.0453  0.2374
  123SOPE  H15X13166   1.122   5.587   4.262 -1.3270  0.9954  1.9246
  123SOPE  H15Y13167   1.066   5.420   4.221 -0.6007 -0.7124  2.4745
  123SOPE  C31613168   0.971   5.512   4.384 -0.4058 -0.3518  0.3857
  123SOPE  H16X13169   0.875   5.457   4.387 -1.0663  0.7450  0.0604
  123SOPE  H16Y13170   0.956   5.616   4.422  2.3843  0.0693  0.5422
  123SOPE  C31713171   1.062   5.436   4.483 -0.1414  0.0775  0.0164
  123SOPE  H17X13172   1.053   5.479   4.585 -2.4026  0.2596 -0.2008
  123SOPE  H17Y13173   1.168   5.448   4.452  0.2673 -0.5205  1.1363
  123SOPE  C31813174   1.039   5.283   4.487  0.2758  0.3101 -0.0728
  123SOPE  H18X13175   1.100   5.238   4.568  0.4862 -1.3038 -1.0989
  123SOPE  H18Y13176   1.046   5.244   4.384 -1.0648  1.2249 -0.5377
  123SOPE  H18Z13177   0.932   5.275   4.519  0.3010 -0.5053 -0.1709
  124SOPE     N13178   4.790   6.358   2.330 -0.2151  0.2498 -0.1300
  124SOPE   HN113179   4.712   6.418   2.295 -1.0560 -1.0604 -0.5938
  124SOPE   HN213180   4.797   6.356   2.433  1.7903  0.8025 -0.2101
  124SOPE   HN313181   4.880   6.389   2.288 -0.4314  0.2538 -0.6020
  124SOPE   C1213182   4.760   6.215   2.293  0.3524 -0.0241  0.0506
  124SOPE  H12A13183   4.842   6.163   2.347  1.5789  2.1491  0.4079
  124SOPE  H12B13184   4.779   6.204   2.184  0.3731  2.2088 -0.2299
  124SOPE   C1113185   4.616   6.175   2.333 -0.1696 -0.6088  0.1953
  124SOPE  H11A13186   4.544   6.232   2.270 -0.0616  0.6899  1.2337
  124SOPE  H11B13187   4.608   6.193   2.442  2.9278  0.9438  0.2684
  124SOPE     P13188   4.482   5.960   2.377 -0.0899  0.4519  0.0948
  124SOPE   O1313189   4.467   5.823   2.325 -0.1653 -0.3117  0.0742
  124SOPE   O1413190   4.360   6.038   2.383  0.0372  0.0030  0.3419
  124SOPE   O1213191   4.594   6.038   2.297 -0.1256 -0.7164 -0.5122
  124SOPE   O1113192   4.552   5.951   2.521  0.6838 -0.0007 -0.4211
  124SOPE    C113193   4.676   5.883   2.540 -0.4354 -0.1008  0.1955
  124SOPE    HA13194   4.749   5.917   2.464 -0.1317 -0.5487  0.2800
  124SOPE    HB13195   4.663   5.775   2.520  0.3493  0.2864 -3.0031
  124SOPE    C213196   4.750   5.905   2.675  0.5356 -0.1772  0.9011
  124SOPE    HS13197   4.843   5.845   2.682  0.3059 -0.7487 -0.6613
  124SOPE   O2113198   4.658   5.884   2.778  0.5161 -0.4239  0.1197
  124SOPE   C2113199   4.616   5.761   2.798  0.2197  0.1897 -0.0299
  124SOPE   O2213200   4.667   5.661   2.751  0.4192 -0.2717  0.3580
  124SOPE   C2213201   4.488   5.761   2.873  0.2454 -0.3269 -0.1662
  124SOPE   H2R13202   4.399   5.783   2.809  1.5747  2.6565 -1.1515
  124SOPE   H2S13203   4.495   5.849   2.941  1.3798  0.5690 -1.3950
  124SOPE    C313204   4.806   6.047   2.688 -0.3456 -0.9432 -0.0076
  124SOPE    HX13205   4.713   6.106   2.673 -1.1135 -2.0789  0.0782
  124SOPE    HY13206   4.876   6.066   2.604  0.5536  0.2930  0.9896
  124SOPE   O3113207   4.865   6.068   2.812 -0.3608  0.2442 -0.4288
  124SOPE   C3113208   4.867   6.191   2.865 -0.1873 -0.7560  0.3831
  124SOPE   O3213209   4.799   6.285   2.828 -0.4443 -0.4160 -0.3739
  124SOPE   C3213210   5.002   6.203   2.935  0.5326  0.2879 -0.6919
  124SOPE   H2X13211   5.080   6.184   2.858  0.6830  0.1046 -0.4930
  124SOPE   H2Y13212   5.008   6.121   3.009  0.8832  1.2782  0.4119
  124SOPE   C2313213   4.465   5.637   2.961 -0.1523  0.2010  0.1855
  124SOPE   H3R13214   4.556   5.604   3.015 -1.0029 -1.4027  0.6902
  124SOPE   H3S13215   4.432   5.554   2.895 -0.3158  0.9776 -0.7370
  124SOPE   C2413216   4.364   5.669   3.075  0.1509 -0.2263 -0.3432
  124SOPE   H4R13217   4.387   5.601   3.159  4.7915  1.3127 -0.0841
  124SOPE   H4S13218   4.365   5.769   3.126  1.7234  1.2951 -3.1194
  124SOPE   C2513219   4.226   5.656   3.025  0.0266  0.0719 -0.2983
  124SOPE   H5R13220   4.209   5.733   2.946  2.1732 -1.5722 -2.4815
  124SOPE   H5S13221   4.212   5.555   2.981 -2.3240 -0.3858  1.3215
  124SOPE   C2613222   4.124   5.661   3.137 -0.0803 -0.5187 -0.4033
  124SOPE   H6R13223   4.136   5.753   3.198 -0.2430 -0.4542 -0.4682
  124SOPE   H6S13224   4.029   5.672   3.080 -0.9142  0.2248  1.0516
  124SOPE   C2713225   4.118   5.537   3.227  0.1838 -0.1003  0.2299
  124SOPE   H7R13226   4.133   5.448   3.162  0.6742  1.5331 -2.0181
  124SOPE   H7S13227   4.205   5.552   3.295  2.1455 -1.5881 -1.7854
  124SOPE   C2813228   3.986   5.527   3.308  0.0189  0.5776  0.0945
  124SOPE   H8R13229   3.962   5.626   3.352 -0.9801 -0.0815  1.0816
  124SOPE   H8S13230   3.909   5.517   3.228  1.0910  1.9696 -1.1533
  124SOPE   C2913231   3.971   5.419   3.407 -0.2643  0.3542 -0.6168
  124SOPE   H9113232   3.962   5.323   3.355  1.4103  0.4168 -1.0836
  124SOPE  C21013233   3.990   5.422   3.540 -0.4245 -0.2156 -0.0085
  124SOPE  H10113234   3.968   5.330   3.596 -1.9112  0.9789  1.4863
  124SOPE  C21113235   4.023   5.543   3.625  0.0713 -0.0790 -0.3467
  124SOPE  H11R13236   4.008   5.639   3.571  0.5975  0.9275  1.2115
  124SOPE  H11S13237   4.130   5.541   3.657  0.0023 -0.6640 -0.1359
  124SOPE  C21213238   3.931   5.543   3.751  0.0546  0.3493 -0.1916
  124SOPE  H12R13239   3.921   5.446   3.802 -0.7243  0.3985 -0.2329
  124SOPE  H12S13240   3.827   5.560   3.714 -0.3536  0.1402  0.8322
  124SOPE  C21313241   3.964   5.666   3.846  0.4062  0.2181 -0.4337
  124SOPE  H13R13242   3.874   5.692   3.906 -0.8044 -0.6231 -1.8288
  124SOPE  H13S13243   3.992   5.755   3.785 -0.7311  1.6656  1.0627
  124SOPE  C21413244   4.079   5.637   3.948 -1.1860 -0.3833 -0.3644
  124SOPE  H14R13245   4.102   5.737   3.992 -0.6112 -0.5191 -0.3444
  124SOPE  H14S13246   4.168   5.602   3.891 -0.0505 -1.3491  1.8980
  124SOPE  C21513247   4.026   5.551   4.062  0.0824  0.3421 -0.4373
  124SOPE  H15R13248   4.003   5.449   4.025  1.6541 -1.4714  3.0892
  124SOPE  H15S13249   3.926   5.591   4.088 -0.0484  0.0674 -0.5227
  124SOPE  C21613250   4.114   5.545   4.190  0.0731 -0.0999 -0.5471
  124SOPE  H16R13251   4.120   5.639   4.249  1.5628 -1.6090  1.9191
  124SOPE  H16S13252   4.219   5.510   4.175 -0.6590 -2.9251  0.4127
  124SOPE  C21713253   4.040   5.449   4.295  0.0452  0.0920  0.3174
  124SOPE  H17R13254   4.037   5.346   4.255 -1.2315  0.1811  0.1484
  124SOPE  H17S13255   3.938   5.492   4.303  0.5082  1.5456 -0.9072
  124SOPE  C21813256   4.105   5.448   4.426 -0.3436 -0.0993  0.0884
  124SOPE  H18R13257   4.039   5.445   4.515  0.4126 -2.5930  0.6425
  124SOPE  H18S13258   4.159   5.542   4.449 -0.4898 -0.4755  2.2005
  124SOPE  H18T13259   4.175   5.362   4.429 -1.9557 -1.4370  2.5762
  124SOPE   C3313260   5.035   6.330   3.009 -0.2878 -1.0664  0.6222
  124SOPE   H3X13261   4.946   6.368   3.064 -0.5900 -0.2782 -0.3790
  124SOPE   H3Y13262   5.062   6.408   2.935 -0.7392 -0.4192  1.1168
  124SOPE   C3413263   5.168   6.327   3.101  0.3877  0.8251  0.2857
  124SOPE   H4X13264   5.144   6.272   3.195 -0.8043 -3.3471 -2.1846
  124SOPE   H4Y13265   5.196   6.431   3.129 -0.8129  0.8074  1.6651
  124SOPE   C3513266   5.288   6.258   3.025 -0.1442 -1.0122 -0.5075
  124SOPE   H5X13267   5.322   6.337   2.954 -0.4383 -0.0523  0.3842
  124SOPE   H5Y13268   5.250   6.169   2.970 -1.7165 -0.0701 -1.0359
  124SOPE   C3613269   5.416   6.226   3.107  0.2476 -0.3527 -0.0119
  124SOPE   H6X13270   5.446   6.314   3.167  1.4771 -0.2895 -0.6916
  124SOPE   H6Y13271   5.504   6.192   3.048  0.6914 -0.2087  0.5638
  124SOPE   C3713272   5.389   6.118   3.218 -0.5608  0.1208  0.1965
  124SOPE   H7X13273   5.314   6.049   3.173 -0.9504  1.4949 -1.3715
  124SOPE   H7Y13274   5.337   6.179   3.296  1.1187  0.6341  0.9637
  124SOPE   C3813275   5.514   6.055   3.275 -0.0736 -0.0280  0.5201
  124SOPE   H8X13276   5.605   6.117   3.256 -0.1848 -0.1631 -0.5000
  124SOPE   H8Y13277   5.528   5.956   3.226  1.1787  0.5540 -0.3394
  124SOPE   C3913278   5.492   6.014   3.422  0.2793 -0.1199 -0.8169
  124SOPE   H9X13279   5.448   6.097   3.480  1.4423  1.6170 -2.3125
  124SOPE   H9Y13280   5.593   5.989   3.462 -0.7722  0.2452  2.3820
  124SOPE  C31013281   5.408   5.889   3.443 -0.3860  0.3564 -0.6709
  124SOPE  H10X13282   5.448   5.805   3.382  2.2644  1.5394 -0.6893
  124SOPE  H10Y13283   5.304   5.891   3.402  0.0569 -2.4793 -2.1999
  124SOPE  C31113284   5.396   5.839   3.591  0.1112  0.1696 -0.1797
  124SOPE  H11X13285   5.483   5.789   3.638 -1.2324  0.3916  2.7148
  124SOPE  H11Y13286   5.313   5.765   3.590  0.6207 -0.4078 -0.2652
  124SOPE  C31213287   5.357   5.944   3.692 -0.1184 -0.1144  0.7411
  124SOPE  H12X13288   5.266   5.989   3.648 -2.2717 -2.2943  2.6675
  124SOPE  H12Y13289   5.434   6.023   3.709 -1.9671  1.7697  0.7379
  124SOPE  C31313290   5.308   5.884   3.824 -0.1220 -0.6089 -0.2935
  124SOPE  H13X13291   5.382   5.808   3.856 -1.9923 -1.4300  2.3674
  124SOPE  H13Y13292   5.223   5.832   3.776  1.5990 -1.4379 -2.6360
  124SOPE  C31413293   5.280   5.985   3.936  0.1441 -0.2141 -0.0235
  124SOPE  H14X13294   5.204   6.059   3.903  0.7219  0.4816  0.1983
  124SOPE  H14Y13295   5.373   6.039   3.962 -0.2588 -0.0942  1.2863
  124SOPE  C31513296   5.224   5.926   4.063 -0.1600  0.5710 -0.5341
  124SOPE  H15X13297   5.128   5.874   4.041 -0.7160  1.4448 -0.2591
  124SOPE  H15Y13298   5.202   6.014   4.128 -1.2675 -0.8836  1.1499
  124SOPE  C31613299   5.326   5.826   4.128 -0.0328  0.0804  0.0093
  124SOPE  H16X13300   5.413   5.889   4.159  0.0568 -0.4331  0.8376
  124SOPE  H16Y13301   5.361   5.754   4.051  0.6023  0.2435  0.1427
  124SOPE  C31713302   5.262   5.757   4.247 -0.1748  0.8361 -0.2357
  124SOPE  H17X13303   5.195   5.832   4.293 -1.1428 -1.7207  2.9320
  124SOPE  H17Y13304   5.344   5.753   4.322  0.5485  2.3927 -0.8881
  124SOPE  C31813305   5.187   5.626   4.208  0.1480  0.2201 -0.4082
  124SOPE  H18X13306   5.101   5.640   4.140  0.0623 -0.0904 -0.3654
  124SOPE  H18Y13307   5.144   5.588   4.303  0.1780 -1.2359 -0.9489
  124SOPE  H18Z13308   5.254   5.544   4.173 -0.0682 -0.1203 -0.0320
  125SOPE     N13309   4.939   1.103   2.047 -0.2778  0.3984  0.0233
  125SOPE   HN113310   5.013   1.175   2.061 -0.3202  0.3005  0.8131
  125SOPE   HN213311   4.859   1.156   2.007 -0.5853 -1.0245 -1.3429
  125SOPE   HN313312   4.921   1.083   2.147 -0.7799  2.7319  0.4634
  125SOPE   C1213313   4.980   0.994   1.948  0.0124 -0.4383 -0.3506
  125SOPE  H12A13314   4.920   1.015   1.857 -0.9430  2.0534  0.7639
  125SOPE  H12B13315   4.949   0.897   1.993 -0.9643  1.1390  2.6007
  125SOPE   C1113316   5.134   0.996   1.911 -0.5791  0.5521  0.2254
  125SOPE  H11A13317   5.160   1.074   1.836 -1.2325 -2.0729 -2.9591
  125SOPE  H11B13318   5.144   0.899   1.857  0.1795  0.8476 -0.1844
  125SOPE     P13319   5.365   0.978   2.019 -0.1540 -0.3217  0.1480
  125SOPE   O1313320   5.431   1.084   2.092 -0.4243  0.1043  0.0704
  125SOPE   O1413321   5.404   0.962   1.878  0.1177 -0.2014 -0.0565
  125SOPE   O1213322   5.214   1.002   2.030  0.1704 -0.8177 -0.0529
  125SOPE   O1113323   5.387   0.841   2.095  0.2268  0.2343 -0.5241
  125SOPE    C113324   5.268   0.755   2.129 -0.2542  0.4455  1.2905
  125SOPE    HA13325   5.304   0.650   2.138  0.7808  0.3777 -2.0364
  125SOPE    HB13326   5.193   0.757   2.047 -0.2230  0.2946  1.2578
  125SOPE    C213327   5.211   0.800   2.267 -0.7751  0.1799  0.3059
  125SOPE    HS13328   5.191   0.909   2.255 -2.1005  0.0202  0.8590
  125SOPE   O2113329   5.306   0.776   2.371 -0.5635 -0.1153  0.6754
  125SOPE   C2113330   5.297   0.854   2.473 -0.3945  0.7264  0.3722
  125SOPE   O2213331   5.234   0.957   2.473 -0.1257  0.5755 -0.1359
  125SOPE   C2213332   5.384   0.803   2.582  0.3773 -0.3756 -0.4859
  125SOPE   H2R13333   5.481   0.858   2.578  0.1759  0.1537  1.1451
  125SOPE   H2S13334   5.395   0.693   2.578  0.3966 -0.4722  1.3807
  125SOPE    C313335   5.081   0.729   2.291  0.0850 -0.2710 -0.2244
  125SOPE    HX13336   5.109   0.623   2.309  1.2557  0.4237  2.5443
  125SOPE    HY13337   5.021   0.739   2.198 -0.6454  0.4118  0.3069
  125SOPE   O3113338   5.010   0.775   2.409 -0.1799 -0.0641 -0.2361
  125SOPE   C3113339   4.943   0.893   2.393  0.5031  0.1991 -0.0853
  125SOPE   O3213340   4.925   0.943   2.281 -0.6383  0.0835 -0.4198
  125SOPE   C3213341   4.874   0.933   2.525  0.1019 -0.1374  1.2509
  125SOPE   H2X13342   4.879   1.042   2.545 -2.0604  0.0112  1.1572
  125SOPE   H2Y13343   4.931   0.890   2.610 -0.0375 -1.2017  0.8245
  125SOPE   C2313344   5.308   0.832   2.717 -0.0799  0.2519 -0.5414
  125SOPE   H3R13345   5.243   0.744   2.732  0.5358 -0.3920 -1.5730
  125SOPE   H3S13346   5.240   0.921   2.717 -1.2102 -0.5589 -2.1703
  125SOPE   C2413347   5.400   0.832   2.836 -0.3565  0.1276  0.5843
  125SOPE   H4R13348   5.484   0.763   2.811 -1.1465 -0.5445 -0.3296
  125SOPE   H4S13349   5.440   0.935   2.848  0.2251  0.1106 -0.9219
  125SOPE   C2513350   5.348   0.788   2.972  0.2108 -0.7901  0.1792
  125SOPE   H5R13351   5.261   0.848   3.005 -1.2235 -1.8463 -1.4921
  125SOPE   H5S13352   5.308   0.686   2.951  1.3809 -2.0873  3.5879
  125SOPE   C2613353   5.461   0.787   3.080  0.0962  0.7689 -0.0765
  125SOPE   H6R13354   5.522   0.694   3.070 -0.5390  0.5564 -2.7061
  125SOPE   H6S13355   5.520   0.879   3.057  0.5698  0.3772 -0.4653
  125SOPE   C2713356   5.402   0.790   3.222  0.7092 -0.8363  0.3508
  125SOPE   H7R13357   5.324   0.869   3.221  0.9032 -0.6546 -0.7322
  125SOPE   H7S13358   5.344   0.699   3.248 -0.3499  0.0600  1.2570
  125SOPE   C2813359   5.508   0.835   3.328 -0.2475  0.5198  0.8035
  125SOPE   H8R13360   5.475   0.836   3.434  1.4043  0.5616  1.3564
  125SOPE   H8S13361   5.587   0.757   3.320  0.0535  0.8669  0.3008
  125SOPE   C2913362   5.569   0.972   3.296  0.1271  0.8889 -0.3027
  125SOPE   H9113363   5.675   0.967   3.265  0.2806 -0.3042  0.3541
  125SOPE  C21013364   5.513   1.096   3.311 -0.0132 -0.4466  0.6189
  125SOPE  H10113365   5.560   1.186   3.267 -0.7386 -1.0699 -1.5245
  125SOPE  C21113366   5.377   1.123   3.365 -0.0059 -0.2396  0.3696
  125SOPE  H11R13367   5.330   1.028   3.399 -3.1423  0.7296 -0.8921
  125SOPE  H11S13368   5.309   1.161   3.286  0.8927 -0.3273 -0.4551
  125SOPE  C21213369   5.394   1.217   3.489  0.5033  0.6137 -0.0009
  125SOPE  H12R13370   5.476   1.291   3.488 -0.5988  1.9010  0.9031
  125SOPE  H12S13371   5.407   1.143   3.571  0.1230 -1.4006 -1.6481
  125SOPE  C21313372   5.265   1.294   3.515 -0.0711  0.9372  0.2187
  125SOPE  H13R13373   5.184   1.218   3.501  1.3657 -0.3623 -1.6024
  125SOPE  H13S13374   5.255   1.371   3.436 -0.5203  1.0789  0.4084
  125SOPE  C21413375   5.254   1.350   3.653 -0.1188  0.0021  1.0429
  125SOPE  H14R13376   5.171   1.424   3.660 -1.6284 -1.6384  1.3499
  125SOPE  H14S13377   5.351   1.404   3.654  0.4203 -0.7811 -1.6947
  125SOPE  C21513378   5.243   1.243   3.765  0.2937  0.3027  0.2419
  125SOPE  H15R13379   5.327   1.170   3.753  0.3085  0.5215 -1.1802
  125SOPE  H15S13380   5.149   1.184   3.754  0.4879 -0.4814  2.3318
  125SOPE  C21613381   5.249   1.295   3.910 -0.6483 -0.0853  0.1616
  125SOPE  H16R13382   5.352   1.328   3.934 -1.0195  4.0234 -2.8448
  125SOPE  H16S13383   5.230   1.207   3.975 -0.0846  0.7455  1.4833
  125SOPE  C21713384   5.146   1.403   3.946 -0.3365  0.2615  0.0758
  125SOPE  H17R13385   5.052   1.377   3.893  2.2348 -0.9265 -4.3990
  125SOPE  H17S13386   5.172   1.496   3.892 -0.9743  0.4738  0.1339
  125SOPE  C21813387   5.133   1.433   4.097  0.0980  0.5549  1.1811
  125SOPE  H18R13388   5.057   1.514   4.106 -0.8526  0.0851 -1.6203
  125SOPE  H18S13389   5.228   1.472   4.139  1.5621 -1.1316 -0.4152
  125SOPE  H18T13390   5.100   1.337   4.144  2.6394 -1.5304 -0.9787
  125SOPE   C3313391   4.729   0.885   2.536  0.1591  0.0843 -0.3403
  125SOPE   H3X13392   4.715   0.781   2.500  1.7840  0.1955 -1.4187
  125SOPE   H3Y13393   4.674   0.946   2.461  2.1894  0.3600 -1.6870
  125SOPE   C3413394   4.662   0.912   2.672 -0.4502 -0.1560 -0.7641
  125SOPE   H4X13395   4.733   0.862   2.741  0.1120 -0.8472 -1.8246
  125SOPE   H4Y13396   4.559   0.871   2.677 -0.1090 -1.2624 -2.3088
  125SOPE   C3513397   4.658   1.062   2.705  0.0964 -0.7460 -0.3710
  125SOPE   H5X13398   4.615   1.116   2.618  0.2501 -0.8266 -0.4967
  125SOPE   H5Y13399   4.757   1.101   2.736 -0.3830 -0.6114  1.0673
  125SOPE   C3613400   4.577   1.074   2.832 -0.1576  0.8449  0.4320
  125SOPE   H6X13401   4.622   1.025   2.921 -0.7975  1.1134  0.9064
  125SOPE   H6Y13402   4.490   1.005   2.821 -0.2234  0.5548  2.4755
  125SOPE   C3713403   4.532   1.213   2.869 -0.4006 -0.2866  0.1801
  125SOPE   H7X13404   4.456   1.254   2.798  0.0074 -0.2684 -0.2491
  125SOPE   H7Y13405   4.618   1.282   2.860 -0.4199  0.1714  2.7676
  125SOPE   C3813406   4.479   1.217   3.017  0.4786 -0.0552  0.3032
  125SOPE   H8X13407   4.415   1.308   3.025 -1.0611 -1.1741  1.3913
  125SOPE   H8Y13408   4.571   1.234   3.076 -0.3611  0.8098  1.4098
  125SOPE   C3913409   4.389   1.106   3.069  0.0478 -0.3954  0.5763
  125SOPE   H9X13410   4.428   1.004   3.055 -0.3455 -0.8119  2.2912
  125SOPE   H9Y13411   4.297   1.110   3.007  0.3557 -0.0341  0.1382
  125SOPE  C31013412   4.365   1.124   3.217 -0.1450 -0.7907 -0.2843
  125SOPE  H10X13413   4.298   1.051   3.267  3.9228 -2.9685  2.6013
  125SOPE  H10Y13414   4.314   1.221   3.234  1.8586  0.3689 -0.4862
  125SOPE  C31113415   4.495   1.108   3.314 -0.1113 -0.0685  0.3735
  125SOPE  H11X13416   4.561   1.190   3.281  0.8245 -0.5491  1.0028
  125SOPE  H11Y13417   4.550   1.013   3.300 -0.2709 -0.1622  0.3711
  125SOPE  C31213418   4.455   1.129   3.462  0.5131 -0.1241 -0.1256
  125SOPE  H12X13419   4.375   1.055   3.483  2.7237 -2.1228  1.9190
  125SOPE  H12Y13420   4.408   1.227   3.482 -0.8162 -0.5433 -1.1139
  125SOPE  C31313421   4.570   1.123   3.561 -0.3832 -0.0263  0.3679
  125SOPE  H13X13422   4.656   1.179   3.517 -0.0450 -2.6588 -2.7178
  125SOPE  H13Y13423   4.613   1.021   3.566  0.6029  0.3799  0.5289
  125SOPE  C31413424   4.541   1.165   3.699  0.2835  0.0671 -0.2960
  125SOPE  H14X13425   4.466   1.093   3.738  0.7438 -0.6896 -0.7875
  125SOPE  H14Y13426   4.511   1.271   3.708  0.5493 -0.0445  3.8839
  125SOPE  C31513427   4.672   1.165   3.788 -0.0924  0.9993  0.1954
  125SOPE  H15X13428   4.754   1.204   3.724  1.1757 -2.5275 -0.5523
  125SOPE  H15Y13429   4.703   1.062   3.814  1.6571  0.8924 -1.9811
  125SOPE  C31613430   4.645   1.241   3.917 -0.4210 -0.5971 -0.3822
  125SOPE  H16X13431   4.586   1.181   3.989 -0.6600 -0.2674 -0.3040
  125SOPE  H16Y13432   4.585   1.331   3.890  0.8043  0.2499 -0.3706
  125SOPE  C31713433   4.778   1.275   3.984 -0.4655  0.3052  0.3948
  125SOPE  H17X13434   4.760   1.356   4.057 -1.4739  1.0541 -0.6384
  125SOPE  H17Y13435   4.852   1.317   3.913 -0.4855  1.0004  0.7845
  125SOPE  C31813436   4.834   1.158   4.060 -0.1521  0.6389 -0.3767
  125SOPE  H18X13437   4.924   1.191   4.116 -0.7637  0.2598  0.8694
  125SOPE  H18Y13438   4.845   1.062   4.006  0.4008  0.4280  0.0997
  125SOPE  H18Z13439   4.759   1.134   4.139 -0.8223  0.9195 -0.9144
  126SOPE     N13440   0.265   5.054   1.944 -0.1480  0.3478  0.1795
  126SOPE   HN113441   0.358   5.097   1.961  0.0540 -0.4296  1.1458
  126SOPE   HN213442   0.226   5.093   1.856  1.0666 -1.6658 -1.3584
  126SOPE   HN313443   0.188   5.062   2.013  1.2093 -1.7771  2.0762
  126SOPE   C1213444   0.291   4.910   1.913  0.1138 -0.1562 -0.5974
  126SOPE  H12A13445   0.379   4.903   1.846  2.1090 -0.3065  1.9205
  126SOPE  H12B13446   0.201   4.865   1.865  1.2889 -1.1751 -1.9232
  126SOPE   C1113447   0.327   4.840   2.042 -0.5716 -0.6003  0.8625
  126SOPE  H11A13448   0.338   4.732   2.019 -0.2747 -0.1028 -1.6617
  126SOPE  H11B13449   0.239   4.839   2.109 -1.0137 -1.1473  0.2864
  126SOPE     P13450   0.593   4.856   2.081  0.1041  0.5467 -0.3020
  126SOPE   O1313451   0.678   4.973   2.081 -0.0930  0.2524 -0.2025
  126SOPE   O1413452   0.598   4.783   1.953 -0.4044  0.0282 -0.0977
  126SOPE   O1213453   0.444   4.895   2.107  0.1719  0.7252  0.5396
  126SOPE   O1113454   0.629   4.752   2.194  0.1496 -0.4939 -0.0955
  126SOPE    C113455   0.528   4.686   2.277 -0.4378  0.9072 -0.5624
  126SOPE    HA13456   0.517   4.583   2.235  1.4132 -0.0036  1.0599
  126SOPE    HB13457   0.429   4.735   2.270 -0.8353  0.0425 -1.2738
  126SOPE    C213458   0.563   4.691   2.428 -0.1589  0.4142  0.4305
  126SOPE    HS13459   0.590   4.797   2.447 -0.8701  0.7980 -0.6397
  126SOPE   O2113460   0.669   4.603   2.455 -1.0454 -0.0518 -0.2461
  126SOPE   C2113461   0.750   4.647   2.552  0.2504 -0.6113 -0.6140
  126SOPE   O2213462   0.755   4.763   2.592 -0.1973  1.0792 -0.0024
  126SOPE   C2213463   0.818   4.535   2.624  0.6752 -0.4833 -0.1323
  126SOPE   H2R13464   0.907   4.515   2.562  0.4487  0.4061 -0.7705
  126SOPE   H2S13465   0.747   4.449   2.625  1.2813 -0.9892 -0.4279
  126SOPE    C313466   0.439   4.663   2.513 -0.4126  0.3761  0.3360
  126SOPE    HX13467   0.412   4.558   2.490  2.7928 -0.5343  0.3043
  126SOPE    HY13468   0.366   4.736   2.470  0.8542  1.8520  0.5891
  126SOPE   O3113469   0.459   4.684   2.652  0.2699 -0.4732 -0.4071
  126SOPE   C3113470   0.401   4.788   2.712  0.4321 -0.3693  0.5038
  126SOPE   O3213471   0.322   4.864   2.662 -0.3415  0.8753  0.3648
  126SOPE   C3213472   0.442   4.802   2.862  0.1644 -0.0175  0.6807
  126SOPE   H2X13473   0.507   4.713   2.880 -2.3834 -1.9025  1.0389
  126SOPE   H2Y13474   0.352   4.788   2.925 -0.3855 -2.2843 -0.4974
  126SOPE   C2313475   0.882   4.565   2.768  0.6717  0.1071  0.7239
  126SOPE   H3R13476   0.953   4.646   2.745 -2.1491  2.5240 -0.0217
  126SOPE   H3S13477   0.946   4.482   2.805  0.6853  0.7751  2.2700
  126SOPE   C2413478   0.782   4.609   2.882 -0.1528  0.2821  0.3093
  126SOPE   H4R13479   0.744   4.705   2.843 -0.2805 -0.4440 -1.4505
  126SOPE   H4S13480   0.690   4.547   2.892 -0.0985  0.1127 -0.2574
  126SOPE   C2513481   0.843   4.616   3.020  0.4212  0.9351 -0.2379
  126SOPE   H5R13482   0.942   4.666   3.007  0.3770  1.3701  0.9540
  126SOPE   H5S13483   0.788   4.684   3.090 -0.0940  0.6685 -0.3825
  126SOPE   C2613484   0.868   4.478   3.079 -0.3306  0.2011  0.1202
  126SOPE   H6R13485   0.772   4.435   3.114 -0.3047  0.3274  0.3564
  126SOPE   H6S13486   0.908   4.411   3.001  3.4028  2.7562 -0.4112
  126SOPE   C2713487   0.966   4.481   3.197  0.2626  0.3894  0.4933
  126SOPE   H7R13488   1.068   4.512   3.169  0.8321 -0.6725  1.3262
  126SOPE   H7S13489   0.924   4.553   3.271 -1.6169 -0.7971  0.6566
  126SOPE   C2813490   0.977   4.354   3.282 -0.0302  0.3769 -0.6088
  126SOPE   H8R13491   0.887   4.315   3.333  1.1173  1.1799  2.2234
  126SOPE   H8S13492   1.005   4.277   3.207  1.3172  0.2744 -0.0358
  126SOPE   C2913493   1.077   4.374   3.389 -0.6482  0.0504 -0.1952
  126SOPE   H9113494   1.055   4.470   3.439 -1.2006 -0.9188  1.4872
  126SOPE  C21013495   1.184   4.301   3.412 -0.6056  0.7683  0.3556
  126SOPE  H10113496   1.248   4.328   3.497 -1.1379 -1.6694  1.6188
  126SOPE  C21113497   1.231   4.172   3.346 -0.0188  0.4954 -0.0575
  126SOPE  H11R13498   1.152   4.124   3.284  0.4756  0.0898 -0.3765
  126SOPE  H11S13499   1.254   4.092   3.420  1.2639  1.1476  0.2757
  126SOPE  C21213500   1.352   4.207   3.253 -0.3200 -0.4703 -0.1284
  126SOPE  H12R13501   1.427   4.273   3.303  0.7652 -1.6233 -0.1686
  126SOPE  H12S13502   1.311   4.262   3.166  0.4590  0.4235  0.0492
  126SOPE  C21313503   1.431   4.091   3.182  0.3361  1.3536  0.2186
  126SOPE  H13R13504   1.467   4.015   3.255 -1.0508  0.1510 -0.3130
  126SOPE  H13S13505   1.517   4.143   3.135  1.7543 -3.0493 -2.7054
  126SOPE  C21413506   1.346   4.025   3.069 -0.9452 -0.1620 -0.4283
  126SOPE  H14R13507   1.407   4.016   2.977  0.9524  0.4209  0.7161
  126SOPE  H14S13508   1.261   4.091   3.042 -0.3610  0.1112 -1.6175
  126SOPE  C21513509   1.298   3.890   3.115  0.1283  0.8575  0.0737
  126SOPE  H15R13510   1.209   3.899   3.182 -1.0017 -1.1569 -1.0593
  126SOPE  H15S13511   1.373   3.823   3.162 -0.4326  0.1515 -0.0129
  126SOPE  C21613512   1.261   3.801   2.994 -0.4060 -0.0870  0.3961
  126SOPE  H16R13513   1.359   3.763   2.957  1.0412  2.1924  1.6472
  126SOPE  H16S13514   1.208   3.858   2.914 -0.9998  0.6357  1.2811
  126SOPE  C21713515   1.183   3.670   3.029  0.0202  0.2942  0.4490
  126SOPE  H17R13516   1.103   3.706   3.097  0.7088  0.6164  1.0949
  126SOPE  H17S13517   1.246   3.607   3.096  0.1732  0.7812  0.7659
  126SOPE  C21813518   1.141   3.588   2.902 -0.0045  0.2302 -0.2603
  126SOPE  H18R13519   1.236   3.579   2.845  0.9976 -1.6775  1.6058
  126SOPE  H18S13520   1.062   3.643   2.845  0.6807 -0.6154 -2.1140
  126SOPE  H18T13521   1.104   3.488   2.932  0.2203  0.2189 -0.0149
  126SOPE   C3313522   0.501   4.939   2.907  0.2963  0.1141  0.5826
  126SOPE   H3X13523   0.426   5.020   2.890 -0.4250 -0.2584  1.8274
  126SOPE   H3Y13524   0.595   4.964   2.854 -0.8593  3.1857 -0.2413
  126SOPE   C3413525   0.543   4.936   3.055  0.0979  0.5737  0.3063
  126SOPE   H4X13526   0.612   4.851   3.065  1.3383  1.5051 -0.1074
  126SOPE   H4Y13527   0.451   4.917   3.114 -0.0662 -0.9328 -0.3994
  126SOPE   C3513528   0.603   5.067   3.106 -0.1426  0.8744  0.7608
  126SOPE   H5X13529   0.541   5.154   3.074  2.3618  2.6477  0.3375
  126SOPE   H5Y13530   0.703   5.082   3.059  0.8937 -0.8600  2.2666
  126SOPE   C3613531   0.634   5.085   3.258  0.5529 -0.8006  0.0717
  126SOPE   H6X13532   0.729   5.142   3.264  1.2819 -1.5986 -2.7216
  126SOPE   H6Y13533   0.645   4.980   3.295 -0.6532 -0.3128  1.9838
  126SOPE   C3713534   0.519   5.149   3.340  0.3985  0.8879  0.1323
  126SOPE   H7X13535   0.428   5.088   3.323  0.4350  1.1875 -1.2648
  126SOPE   H7Y13536   0.489   5.250   3.305  0.9753  1.4850  1.2872
  126SOPE   C3813537   0.552   5.146   3.483  0.5927 -0.4582  0.3765
  126SOPE   H8X13538   0.654   5.188   3.491  0.8293 -0.4881 -1.8787
  126SOPE   H8Y13539   0.546   5.039   3.513 -2.0687 -0.6373 -0.5077
  126SOPE   C3913540   0.462   5.214   3.581 -0.0889 -0.2878 -0.0960
  126SOPE   H9X13541   0.464   5.164   3.681 -0.2621 -3.1082 -1.4077
  126SOPE   H9Y13542   0.359   5.208   3.541 -0.4585  1.1493  0.5870
  126SOPE  C31013543   0.498   5.364   3.580  0.6168 -0.3189 -0.4439
  126SOPE  H10X13544   0.491   5.397   3.475 -3.4178 -0.4758 -0.3769
  126SOPE  H10Y13545   0.604   5.378   3.612 -0.3315  1.7370  2.2400
  126SOPE  C31113546   0.405   5.448   3.664 -0.4445 -0.4535  0.3094
  126SOPE  H11X13547   0.299   5.444   3.630 -0.6628  1.3676  0.7124
  126SOPE  H11Y13548   0.432   5.555   3.651  0.4987 -0.4546  2.0606
  126SOPE  C31213549   0.409   5.416   3.812  0.1818  0.6247 -0.2095
  126SOPE  H12X13550   0.370   5.313   3.831  1.1548  0.4093  0.7083
  126SOPE  H12Y13551   0.347   5.488   3.870  0.0041 -0.1012  0.5210
  126SOPE  C31313552   0.547   5.437   3.879 -0.0655  0.2207 -0.3773
  126SOPE  H13X13553   0.582   5.540   3.854 -1.0168  0.2314 -1.7713
  126SOPE  H13Y13554   0.624   5.375   3.829 -0.4658 -0.2408 -0.4274
  126SOPE  C31413555   0.547   5.409   4.032 -0.1277 -0.2631  0.2375
  126SOPE  H14X13556   0.653   5.410   4.067 -0.0462  1.1290 -0.0064
  126SOPE  H14Y13557   0.492   5.315   4.056 -2.2130  1.0323  0.7803
  126SOPE  C31513558   0.462   5.515   4.102 -1.3339  0.7227  0.1279
  126SOPE  H15X13559   0.355   5.503   4.076 -1.1298  1.7173 -1.2488
  126SOPE  H15Y13560   0.485   5.613   4.055 -0.5678  0.2064 -0.6009
  126SOPE  C31613561   0.506   5.518   4.253  0.2053 -0.0910 -1.0116
  126SOPE  H16X13562   0.617   5.514   4.263  0.1524 -0.6109 -0.5895
  126SOPE  H16Y13563   0.460   5.431   4.304 -0.8567  1.4693  0.8346
  126SOPE  C31713564   0.452   5.643   4.324  0.5048  0.4808 -0.0162
  126SOPE  H17X13565   0.343   5.627   4.334  0.4360  1.9602  2.7294
  126SOPE  H17Y13566   0.482   5.741   4.281  1.5113  1.3952  2.5878
  126SOPE  C31813567   0.496   5.660   4.468 -0.3267 -0.5590  0.7088
  126SOPE  H18X13568   0.599   5.702   4.469 -0.2716 -0.6351 -0.3856
  126SOPE  H18Y13569   0.489   5.566   4.527  0.7298 -1.5944 -0.7500
  126SOPE  H18Z13570   0.432   5.743   4.506 -0.3488  0.0393 -0.5667
  127SOPE     N13571   3.331   4.914   1.800  0.0757 -0.1142 -0.2073
  127SOPE   HN113572   3.261   4.847   1.838  0.2018  0.1393  0.4926
  127SOPE   HN213573   3.296   5.011   1.814  1.7006  0.4353  0.2976
  127SOPE   HN313574   3.345   4.892   1.700 -2.7224 -1.8219 -0.3155
  127SOPE   C1213575   3.462   4.889   1.873  0.7998  0.3574  0.3454
  127SOPE  H12A13576   3.542   4.925   1.806 -0.6671  1.0734 -1.0766
  127SOPE  H12B13577   3.461   4.778   1.884 -0.3976  0.3557  0.3932
  127SOPE   C1113578   3.452   4.953   2.012 -0.1707  0.0139 -0.1488
  127SOPE  H11A13579   3.554   4.981   2.045  1.0542 -2.3900 -1.6115
  127SOPE  H11B13580   3.406   4.898   2.097 -0.0814  0.0456 -0.0805
  127SOPE     P13581   3.432   5.224   2.048  0.0309 -0.1745 -0.5660
  127SOPE   O1313582   3.320   5.314   2.074  0.2233  0.0061  0.1767
  127SOPE   O1413583   3.540   5.262   1.950  0.7063 -0.1549  0.2177
  127SOPE   O1213584   3.375   5.080   2.003 -0.1484  0.2489 -0.1487
  127SOPE   O1113585   3.494   5.196   2.187 -0.7537  0.4694 -0.0437
  127SOPE    C113586   3.428   5.124   2.292 -0.5481  0.2290  0.5288
  127SOPE    HA13587   3.491   5.047   2.341  0.0581 -0.0221 -0.6226
  127SOPE    HB13588   3.332   5.076   2.262  0.5642 -2.8572  1.6097
  127SOPE    C213589   3.384   5.226   2.405 -0.1104 -0.5732 -0.2783
  127SOPE    HS13590   3.442   5.321   2.396 -2.0108  0.7226  0.6288
  127SOPE   O2113591   3.397   5.167   2.532 -0.0169 -0.0933 -0.5024
  127SOPE   C2113592   3.523   5.172   2.581  0.4693 -0.6796 -1.0583
  127SOPE   O2213593   3.621   5.212   2.526  0.2449 -0.5709 -0.0645
  127SOPE   C2213594   3.504   5.111   2.719 -0.3872 -0.5287 -0.4969
  127SOPE   H2R13595   3.608   5.112   2.759 -0.3193 -2.7057 -0.5064
  127SOPE   H2S13596   3.459   5.010   2.715 -0.4432 -0.6413  1.8597
  127SOPE    C313597   3.240   5.272   2.390  0.6471  0.0213  0.3047
  127SOPE    HX13598   3.169   5.186   2.381  0.4118  0.3170 -0.9705
  127SOPE    HY13599   3.212   5.321   2.294  0.9072 -0.7307 -0.1700
  127SOPE   O3113600   3.206   5.366   2.498  0.0226 -0.3533  0.8321
  127SOPE   C3113601   3.109   5.325   2.584  0.1329  0.3208  0.5596
  127SOPE   O3213602   3.058   5.214   2.582 -0.0101 -0.3853 -0.0022
  127SOPE   C3213603   3.065   5.437   2.682 -0.1895 -0.0496  0.4822
  127SOPE   H2X13604   3.018   5.521   2.627 -2.1028 -0.3726  1.5455
  127SOPE   H2Y13605   3.153   5.463   2.745 -0.0374  1.5055 -0.3271
  127SOPE   C2313606   3.417   5.200   2.809  0.2897  0.1174 -0.3715
  127SOPE   H3R13607   3.321   5.207   2.754  1.8680  1.4946 -3.1437
  127SOPE   H3S13608   3.458   5.303   2.799  1.4928 -0.2259  0.6885
  127SOPE   C2413609   3.400   5.163   2.964 -0.1829  0.0899  0.1432
  127SOPE   H4R13610   3.341   5.069   2.969 -3.7475  2.1381  0.9257
  127SOPE   H4S13611   3.497   5.146   3.014  0.5037 -1.5883 -1.6341
  127SOPE   C2513612   3.326   5.274   3.036  0.1867 -0.5881 -0.3588
  127SOPE   H5R13613   3.384   5.368   3.024 -1.1268  0.5025  1.4391
  127SOPE   H5S13614   3.223   5.293   2.998 -0.5384  0.3720  1.9021
  127SOPE   C2613615   3.316   5.234   3.185  0.2799  0.1398 -0.1542
  127SOPE   H6R13616   3.255   5.143   3.201  0.0521  0.2344 -0.4824
  127SOPE   H6S13617   3.415   5.197   3.219  0.7821 -0.3520 -2.0070
  127SOPE   C2713618   3.265   5.344   3.275 -0.1231 -0.1198  0.3660
  127SOPE   H7R13619   3.351   5.414   3.268 -1.5236  1.8495  1.9578
  127SOPE   H7S13620   3.174   5.394   3.236 -0.3242  1.2112  2.3989
  127SOPE   C2813621   3.232   5.315   3.423  0.4597  0.1253 -0.1317
  127SOPE   H8R13622   3.144   5.247   3.416  1.2938 -0.8580 -2.0520
  127SOPE   H8S13623   3.303   5.251   3.480  1.0170  1.7044  1.0096
  127SOPE   C2913624   3.193   5.437   3.499 -0.1890 -0.3840 -0.1333
  127SOPE   H9113625   3.279   5.477   3.555  0.3692 -0.2778 -1.0374
  127SOPE  C21013626   3.074   5.500   3.502 -0.3930  0.5063 -0.6494
  127SOPE  H10113627   3.054   5.588   3.564  0.9014 -0.9752  2.0047
  127SOPE  C21113628   2.946   5.456   3.428 -0.4471 -0.0746  0.7673
  127SOPE  H11R13629   2.939   5.346   3.444 -1.1449  0.1281  2.0557
  127SOPE  H11S13630   2.957   5.484   3.321  0.2590 -1.7307  0.3705
  127SOPE  C21213631   2.815   5.526   3.471  0.1383  0.4003  0.3434
  127SOPE  H12R13632   2.731   5.485   3.411  0.1162  0.9910 -0.0431
  127SOPE  H12S13633   2.821   5.636   3.454  0.7941  0.9330  3.4330
  127SOPE  C21313634   2.774   5.508   3.619  0.4129  0.4556  0.3412
  127SOPE  H13R13635   2.682   5.568   3.638 -0.4557 -0.1494 -1.6800
  127SOPE  H13S13636   2.846   5.571   3.676  1.1177  0.4922 -0.5735
  127SOPE  C21413637   2.754   5.356   3.665 -0.2826 -0.3459  0.5015
  127SOPE  H14R13638   2.719   5.347   3.770 -0.7365  0.4665  0.4317
  127SOPE  H14S13639   2.846   5.295   3.661 -1.3112 -2.0745  1.6009
  127SOPE  C21513640   2.648   5.283   3.577 -0.2280  0.0681 -0.0722
  127SOPE  H15R13641   2.688   5.273   3.474  0.4604 -2.0275  0.3574
  127SOPE  H15S13642   2.552   5.339   3.574 -0.7068 -0.7881 -1.5195
  127SOPE  C21613643   2.619   5.136   3.611  0.6286  0.1851  0.3873
  127SOPE  H16R13644   2.586   5.146   3.716  0.9117 -0.0778  0.5019
  127SOPE  H16S13645   2.711   5.074   3.610  0.5128 -0.0846 -2.3691
  127SOPE  C21713646   2.498   5.070   3.542  0.5534  0.3013 -0.4852
  127SOPE  H17R13647   2.508   4.960   3.551  0.8195  0.1751 -2.0107
  127SOPE  H17S13648   2.497   5.096   3.434  3.0086  0.7236 -0.4671
  127SOPE  C21813649   2.363   5.110   3.607 -0.0631 -0.8691  0.2299
  127SOPE  H18R13650   2.324   5.206   3.566  0.7906 -0.3261  0.6633
  127SOPE  H18S13651   2.380   5.119   3.716  1.7261  0.6240 -0.1254
  127SOPE  H18T13652   2.279   5.039   3.589 -1.0605  0.2957  0.1004
  127SOPE   C3313653   2.958   5.404   2.789  0.2531 -0.6205  0.7553
  127SOPE   H3X13654   2.986   5.326   2.863  0.8869 -0.5191  0.6333
  127SOPE   H3Y13655   2.877   5.361   2.726  0.1096  0.2213  0.3509
  127SOPE   C3413656   2.911   5.524   2.869  0.2042  0.5915  0.0003
  127SOPE   H4X13657   2.870   5.603   2.803  0.4778 -0.3863 -1.3684
  127SOPE   H4Y13658   3.005   5.562   2.916 -0.9199  0.6482  2.3720
  127SOPE   C3513659   2.801   5.490   2.976  0.1649 -0.6161 -0.0095
  127SOPE   H5X13660   2.828   5.422   3.061  2.1000  2.8436  2.3863
  127SOPE   H5Y13661   2.706   5.451   2.934 -1.1464  1.3897  0.9657
  127SOPE   C3613662   2.749   5.608   3.062  0.5843 -0.3150 -0.0337
  127SOPE   H6X13663   2.811   5.625   3.153  0.4043  0.3127 -0.0279
  127SOPE   H6Y13664   2.655   5.572   3.111  0.3171  0.7331  0.2517
  127SOPE   C3713665   2.717   5.738   2.993  0.0258 -0.1836 -0.2726
  127SOPE   H7X13666   2.650   5.722   2.906 -0.7583  1.0524  0.0736
  127SOPE   H7Y13667   2.818   5.768   2.956  0.7502 -0.9342  1.0218
  127SOPE   C3813668   2.662   5.844   3.084 -0.3985 -1.0320 -0.4890
  127SOPE   H8X13669   2.746   5.884   3.145 -1.7930  3.4199 -1.1110
  127SOPE   H8Y13670   2.581   5.794   3.140  0.8393  0.5634  3.0589
  127SOPE   C3913671   2.613   5.963   3.006 -0.3724 -0.1702 -0.4039
  127SOPE   H9X13672   2.531   5.928   2.940 -2.1695  2.3157  0.3595
  127SOPE   H9Y13673   2.689   6.010   2.941 -2.0892  3.4040 -0.0883
  127SOPE  C31013674   2.548   6.073   3.089 -0.4588  0.1541 -0.0362
  127SOPE  H10X13675   2.488   6.144   3.029  1.2571  1.3414 -0.4370
  127SOPE  H10Y13676   2.622   6.136   3.142  0.0349 -0.6633  0.2724
  127SOPE  C31113677   2.450   6.027   3.201 -0.4008  0.1261  0.6207
  127SOPE  H11X13678   2.512   5.977   3.278  0.7257  0.2337 -0.1935
  127SOPE  H11Y13679   2.366   5.974   3.152  0.6253 -1.7071  0.7869
  127SOPE  C31213680   2.402   6.153   3.282  0.2759  0.9163  0.0299
  127SOPE  H12X13681   2.363   6.220   3.203  1.3952  2.0425  0.4053
  127SOPE  H12Y13682   2.491   6.203   3.326  0.8412  0.7626 -0.9241
  127SOPE  C31313683   2.283   6.121   3.380 -0.2936  0.4993  0.4808
  127SOPE  H13X13684   2.326   6.050   3.453 -0.4426 -0.0810  0.0146
  127SOPE  H13Y13685   2.197   6.072   3.329 -0.4720  0.2972  0.9711
  127SOPE  C31413686   2.218   6.249   3.443  0.6402 -0.2130  0.4795
  127SOPE  H14X13687   2.161   6.305   3.365  2.1812 -2.6912 -2.6893
  127SOPE  H14Y13688   2.292   6.319   3.488 -1.9678  1.1447  3.0007
  127SOPE  C31513689   2.107   6.207   3.542 -0.2102 -0.3594 -0.1179
  127SOPE  H15X13690   2.160   6.150   3.622 -1.8127  0.1740  1.3961
  127SOPE  H15Y13691   2.031   6.136   3.501 -0.6817  0.1403 -0.1263
  127SOPE  C31613692   2.026   6.322   3.607  0.0475 -0.0326 -0.4706
  127SOPE  H16X13693   1.958   6.285   3.687  1.9733 -3.5012 -0.2578
  127SOPE  H16Y13694   1.965   6.378   3.532 -1.1180 -0.1855  0.3299
  127SOPE  C31713695   2.122   6.414   3.682  0.3654 -0.2261 -0.0516
  127SOPE  H17X13696   2.152   6.490   3.608  0.2528 -1.3077 -1.2360
  127SOPE  H17Y13697   2.207   6.353   3.717  2.9835  3.7807  1.2669
  127SOPE  C31813698   2.064   6.485   3.804 -0.0168  0.0984  0.1426
  127SOPE  H18X13699   2.010   6.415   3.872 -0.1636  1.0250  1.0111
  127SOPE  H18Y13700   2.002   6.573   3.778  0.0095 -0.2630 -1.2299
  127SOPE  H18Z13701   2.154   6.517   3.861  0.9231 -0.7039 -0.8613
  128SOPE     N13702   6.798   3.209   1.962 -0.4231  0.1821  0.5717
  128SOPE   HN113703   6.742   3.200   1.875  0.3950  0.6142 -0.0062
  128SOPE   HN213704   6.877   3.275   1.953  0.2223 -0.5471  0.8008
  128SOPE   HN313705   6.838   3.113   1.969 -0.5796  0.0391 -0.3267
  128SOPE   C1213706   6.723   3.245   2.081  0.7608  0.1625 -0.0996
  128SOPE  H12A13707   6.647   3.165   2.093  0.3131  0.6978  0.7439
  128SOPE  H12B13708   6.671   3.343   2.078  0.3849 -0.0655 -2.1778
  128SOPE   C1113709   6.813   3.246   2.208 -0.1352  0.2226 -0.0663
  128SOPE  H11A13710   6.854   3.146   2.234  0.8032  0.9410  1.3390
  128SOPE  H11B13711   6.759   3.276   2.300  1.6174 -0.0055  1.0899
  128SOPE     P13712   7.058   3.319   2.267 -0.1832  0.1284 -0.1584
  128SOPE   O1313713   7.152   3.422   2.225 -0.4390  0.3545 -0.2341
  128SOPE   O1413714   7.096   3.177   2.261 -0.3444  0.5682  0.2422
  128SOPE   O1213715   6.931   3.332   2.184  0.3452 -0.0747  0.1717
  128SOPE   O1113716   7.011   3.350   2.414 -0.4816  0.4035 -0.4115
  128SOPE    C113717   6.984   3.233   2.498  0.2909 -0.1192  0.1459
  128SOPE    HA13718   7.079   3.184   2.525  0.9602  1.5237  0.9466
  128SOPE    HB13719   6.915   3.166   2.443 -0.0443 -0.7945  1.3718
  128SOPE    C213720   6.895   3.270   2.622 -0.6368  0.3901 -0.4698
  128SOPE    HS13721   6.975   3.302   2.692  1.2200 -2.2284 -1.2544
  128SOPE   O2113722   6.813   3.159   2.660  0.0245  0.0661 -0.6566
  128SOPE   C2113723   6.871   3.081   2.747 -0.2525  0.2549 -0.2494
  128SOPE   O2213724   6.977   3.108   2.801 -0.2788 -0.1274 -0.9555
  128SOPE   C2213725   6.806   2.946   2.748 -0.4080 -0.4785 -1.1827
  128SOPE   H2R13726   6.893   2.877   2.739  0.6961  0.3741  1.7747
  128SOPE   H2S13727   6.741   2.927   2.660  0.5363  2.1129 -2.5779
  128SOPE    C313728   6.800   3.381   2.595  0.0924 -0.2647 -1.2121
  128SOPE    HX13729   6.743   3.362   2.501  0.2407 -0.6645 -1.2216
  128SOPE    HY13730   6.866   3.468   2.574  0.9353 -0.4518  0.4900
  128SOPE   O3113731   6.719   3.414   2.704  0.2449  0.7100  0.5204
  128SOPE   C3113732   6.767   3.494   2.802  0.5840 -0.1780 -0.2269
  128SOPE   O3213733   6.878   3.544   2.799 -1.0669 -0.3502  0.6134
  128SOPE   C3213734   6.656   3.520   2.904 -0.3506  0.9478 -0.3200
  128SOPE   H2X13735   6.591   3.431   2.894 -2.2206  1.8134  2.6200
  128SOPE   H2Y13736   6.591   3.605   2.872 -1.7674  1.2996  3.0288
  128SOPE   C2313737   6.716   2.926   2.877 -0.1521 -0.1214  0.0060
  128SOPE   H3R13738   6.645   2.845   2.849  0.9850 -0.4851 -2.0787
  128SOPE   H3S13739   6.646   3.011   2.894 -1.1177 -0.3802 -2.2417
  128SOPE   C2413740   6.807   2.874   2.994  0.2410  1.0406  0.0560
  128SOPE   H4R13741   6.864   2.785   2.960  1.5161  2.2126 -1.0045
  128SOPE   H4S13742   6.869   2.956   3.037 -0.3016  1.1897  0.5604
  128SOPE   C2513743   6.717   2.836   3.117 -0.9621 -0.3590  0.5651
  128SOPE   H5R13744   6.684   2.939   3.143 -0.0649 -0.2989  1.5232
  128SOPE   H5S13745   6.633   2.784   3.066  0.7559  0.0233 -2.9498
  128SOPE   C2613746   6.784   2.755   3.225  0.7621  0.6465 -1.0098
  128SOPE   H6R13747   6.707   2.706   3.288  1.5094 -0.9474 -1.2890
  128SOPE   H6S13748   6.849   2.670   3.193  0.7640  0.0753  0.4080
  128SOPE   C2713749   6.877   2.843   3.317 -0.2285  0.7775  0.2274
  128SOPE   H7R13750   6.950   2.894   3.251 -1.1383  2.1578  0.2322
  128SOPE   H7S13751   6.821   2.933   3.352 -0.8093  1.4487 -2.2673
  128SOPE   C2813752   6.930   2.759   3.431  0.5754 -0.1992  0.1728
  128SOPE   H8R13753   6.845   2.721   3.491  0.3594  0.1005  0.0621
  128SOPE   H8S13754   6.983   2.678   3.377 -0.5409 -0.3547 -0.7406
  128SOPE   C2913755   7.018   2.846   3.517 -0.1039 -0.1449 -0.1794
  128SOPE   H9113756   7.098   2.904   3.470  0.9345 -2.5017 -1.4825
  128SOPE  C21013757   7.005   2.871   3.652 -0.2878  0.0589  0.4878
  128SOPE  H10113758   7.082   2.930   3.706  1.7097 -3.1266  1.4073
  128SOPE  C21113759   6.905   2.797   3.736 -0.1870 -0.0353  0.3655
  128SOPE  H11R13760   6.877   2.697   3.697  1.2584 -0.1189 -0.5320
  128SOPE  H11S13761   6.812   2.857   3.745 -1.3313 -1.7337  0.3545
  128SOPE  C21213762   6.947   2.775   3.882  0.2186  0.1253  0.2960
  128SOPE  H12R13763   6.857   2.763   3.946  0.7508  1.9696  1.4726
  128SOPE  H12S13764   6.989   2.869   3.925 -1.3644  1.1162 -0.2666
  128SOPE  C21313765   7.033   2.654   3.905  0.1556  0.7667 -0.4023
  128SOPE  H13R13766   7.134   2.679   3.868  1.5573 -0.2354  2.4420
  128SOPE  H13S13767   6.998   2.563   3.851 -0.5948  1.0020 -0.3234
  128SOPE  C21413768   7.035   2.623   4.061 -0.0578 -0.1141 -0.4368
  128SOPE  H14R13769   6.931   2.604   4.094  0.4785 -1.5813  0.5211
  128SOPE  H14S13770   7.071   2.708   4.123 -1.7508  1.1521 -1.1129
  128SOPE  C21513771   7.116   2.501   4.110 -0.2600 -0.0879 -0.0017
  128SOPE  H15R13772   7.223   2.527   4.096  0.2499 -1.6023  0.8325
  128SOPE  H15S13773   7.089   2.408   4.055 -0.4487 -0.9662  1.5068
  128SOPE  C21613774   7.087   2.480   4.257  0.1523 -1.1938 -0.7045
  128SOPE  H16R13775   6.976   2.469   4.260 -0.0698  0.2868 -2.1427
  128SOPE  H16S13776   7.093   2.573   4.317  0.8938 -1.4599 -0.3528
  128SOPE  C21713777   7.150   2.358   4.322 -0.2763 -0.4338 -0.0429
  128SOPE  H17R13778   7.160   2.270   4.255 -0.5136 -0.5666  0.0945
  128SOPE  H17S13779   7.080   2.327   4.403  0.9291 -2.2938  0.3588
  128SOPE  C21813780   7.280   2.394   4.375 -0.2313 -0.2410 -0.1159
  128SOPE  H18R13781   7.277   2.474   4.452  0.6130 -0.4071  0.0934
  128SOPE  H18S13782   7.351   2.413   4.291  0.4060 -0.6290  0.3279
  128SOPE  H18T13783   7.317   2.314   4.441  1.0774  0.3752 -0.0769
  128SOPE   C3313784   6.709   3.529   3.050  0.2538  0.2493  0.1947
  128SOPE   H3X13785   6.802   3.589   3.059 -0.2312  0.8741  1.2327
  128SOPE   H3Y13786   6.748   3.431   3.086  1.5147  1.2120  1.5625
  128SOPE   C3413787   6.608   3.582   3.153  0.0023 -0.0043  0.8792
  128SOPE   H4X13788   6.504   3.545   3.149 -0.2292  0.6579 -3.0472
  128SOPE   H4Y13789   6.607   3.693   3.143  0.7544  0.1865  2.5466
  128SOPE   C3513790   6.661   3.564   3.298  0.2458  0.4796 -0.4515
  128SOPE   H5X13791   6.772   3.568   3.300  0.4700 -2.4742  2.3877
  128SOPE   H5Y13792   6.649   3.455   3.320  3.9835 -0.1719 -1.0764
  128SOPE   C3613793   6.579   3.653   3.393 -0.3666 -0.2339  0.8218
  128SOPE   H6X13794   6.479   3.669   3.346 -0.2771 -0.4883  0.5426
  128SOPE   H6Y13795   6.616   3.757   3.404 -0.5703 -0.2119  1.3305
  128SOPE   C3713796   6.561   3.587   3.529 -1.3953  0.4258  0.1495
  128SOPE   H7X13797   6.653   3.532   3.558 -2.6591 -1.4913  0.7532
  128SOPE   H7Y13798   6.495   3.498   3.522  3.6093 -3.7444 -0.0657
  128SOPE   C3813799   6.527   3.676   3.650 -0.1132  0.1543  0.9826
  128SOPE   H8X13800   6.426   3.716   3.626  0.2135  0.1437 -0.5060
  128SOPE   H8Y13801   6.601   3.755   3.673 -0.6672  1.3141 -1.0136
  128SOPE   C3913802   6.509   3.578   3.768  1.3127 -0.3287 -0.0554
  128SOPE   H9X13803   6.607   3.528   3.778 -0.3393 -6.1581 -5.8903
  128SOPE   H9Y13804   6.424   3.506   3.767  0.0047  1.1450  0.5520
  128SOPE  C31013805   6.484   3.651   3.900 -0.7535 -0.4914 -0.0972
  128SOPE  H10X13806   6.387   3.705   3.899  0.6892  2.2717 -2.0471
  128SOPE  H10Y13807   6.565   3.725   3.917 -0.5882 -0.4336 -1.1130
  128SOPE  C31113808   6.496   3.559   4.024  0.5535  0.1059 -0.2442
  128SOPE  H11X13809   6.511   3.624   4.113  0.6140  1.0935 -0.9471
  128SOPE  H11Y13810   6.575   3.481   4.022 -0.7084 -1.2080 -0.3388
  128SOPE  C31213811   6.362   3.484   4.048  0.5177  0.0912  0.3062
  128SOPE  H12X13812   6.360   3.407   3.969  2.3236  1.2326 -0.9274
  128SOPE  H12Y13813   6.277   3.556   4.049  0.1845 -0.2473 -1.2922
  128SOPE  C31313814   6.369   3.414   4.186  0.4510 -0.0645  1.3274
  128SOPE  H13X13815   6.349   3.489   4.265 -1.3522  1.0239 -0.0768
  128SOPE  H13Y13816   6.467   3.364   4.196 -1.1949 -3.7909  0.6457
  128SOPE  C31413817   6.253   3.316   4.196  0.1860  0.0423  0.1417
  128SOPE  H14X13818   6.246   3.257   4.102 -0.8761 -1.0870  0.8942
  128SOPE  H14Y13819   6.167   3.386   4.204  0.8320  0.8151  0.4523
  128SOPE  C31513820   6.266   3.209   4.306  0.0849  0.3516  0.1986
  128SOPE  H15X13821   6.291   3.258   4.402  2.2217 -1.1543  0.4915
  128SOPE  H15Y13822   6.354   3.145   4.285  1.0258  1.7124 -0.1149
  128SOPE  C31613823   6.136   3.124   4.314  0.3565 -0.3978  0.2281
  128SOPE  H16X13824   6.122   3.049   4.234  0.7344  0.1395 -0.3481
  128SOPE  H16Y13825   6.047   3.189   4.301  0.1147 -0.4079  1.6301
  128SOPE  C31713826   6.129   3.059   4.452 -0.2155  0.0081 -0.3828
  128SOPE  H17X13827   6.130   3.141   4.526  1.5533  0.5778 -1.0101
  128SOPE  H17Y13828   6.223   3.000   4.464 -0.7201 -0.4846  1.4247
  128SOPE  C31813829   6.007   2.959   4.465 -0.1292  0.9680 -0.1370
  128SOPE  H18X13830   6.009   2.873   4.395  1.1491  1.2592 -0.4647
  128SOPE  H18Y13831   5.910   3.013   4.456 -2.0856 -2.5894 -2.7468
  128SOPE  H18Z13832   6.012   2.918   4.568  1.7452 -0.0961 -0.6124
  129OSM      N13833   5.107   0.789   6.579  0.1388  0.4116 -0.2508
  129OSM    C1513834   5.161   0.733   6.703 -0.3664 -0.1254  0.0244
  129OSM   H15A13835   5.208   0.808   6.764  0.9863 -2.2320  1.7392
  129OSM   H15B13836   5.244   0.669   6.677  0.3311  0.2347  1.2850
  129OSM   H15C13837   5.094   0.672   6.762  0.1655 -0.4724  0.2795
  129OSM    C1413838   5.213   0.851   6.498 -0.1388  0.5184  0.3122
  129OSM   H14A13839   5.272   0.927   6.546  2.2892 -1.4538  0.6386
  129OSM   H14B13840   5.172   0.892   6.407  0.0608  0.6995  0.3056
  129OSM   H14C13841   5.281   0.773   6.466 -2.5227 -2.1151  1.1487
  129OSM    C1313842   5.036   0.685   6.505  0.0340  0.1684 -0.1438
  129OSM   H13A13843   5.096   0.617   6.446 -2.0738 -0.9395 -1.1470
  129OSM   H13B13844   4.961   0.728   6.439 -0.7421 -0.5572  0.2485
  129OSM   H13C13845   4.987   0.616   6.572 -0.9183  0.4203 -0.5624
  129OSM    C1213846   5.006   0.894   6.626 -0.1008 -0.0975  0.6821
  129OSM   H12A13847   5.056   0.978   6.672  0.9064 -0.6992  0.7195
  129OSM   H12B13848   4.957   0.852   6.713 -0.0985  2.2520  1.8833
  129OSM    C1113849   4.911   0.937   6.515  0.2425 -0.6860  0.3909
  129OSM   H11A13850   4.822   0.873   6.500  0.0196 -0.4630  0.7160
  129OSM   H11B13851   4.976   0.943   6.426  1.1178  0.9710  1.0893
  129OSM      P13852   4.960   1.194   6.560 -0.2611 -0.4361  0.6451
  129OSM    O1313853   4.884   1.316   6.598  0.4576 -0.1457  0.0466
  129OSM    O1413854   5.075   1.161   6.646  0.3989  0.0149 -0.4231
  129OSM    O1113855   5.029   1.209   6.411  0.0222  0.4865  0.1036
  129OSM    O1213856   4.867   1.067   6.545  0.0316 -0.0494 -0.2303
  129OSM    C1S13857   4.940   1.198   6.301  0.1234  0.4057  0.0713
  129OSM    H1S13858   4.854   1.269   6.310  0.9260  1.4433 -0.2589
  129OSM    H1T13859   4.884   1.103   6.290 -0.0580  0.6229 -0.9623
  129OSM     NF13860   4.935   1.248   6.055 -0.1158  0.4375 -0.7261
  129OSM    HNF13861   4.920   1.169   5.996 -0.0094  0.6115 -0.9881
  129OSM    C2S13862   5.022   1.220   6.173  0.4230  0.2676 -0.1638
  129OSM    H2S13863   5.087   1.309   6.185 -1.7277  2.0701 -1.4146
  129OSM    C3S13864   5.119   1.095   6.164 -0.2562  0.0048 -0.1810
  129OSM    H3S13865   5.050   1.009   6.153 -2.7656  1.8380  0.5060
  129OSM     O313866   5.200   1.072   6.281 -0.6502  0.1935 -0.2896
  129OSM    HO313867   5.154   1.107   6.358  1.5713 -0.9172  1.6593
  129OSM    C4S13868   5.211   1.105   6.046 -0.2393 -0.6108  0.7950
  129OSM    H4S13869   5.155   1.080   5.954  0.4466 -2.4096  0.8284
  129OSM    C5S13870   5.335   1.144   6.034 -1.3893 -0.5869  0.4931
  129OSM    H5S13871   5.383   1.176   6.127 -1.0557 -2.4711  1.0240
  129OSM    C6S13872   5.431   1.153   5.913  0.3717 -0.0894  0.1417
  129OSM    H6S13873   5.511   1.077   5.921  1.2231  0.9465  2.0719
  129OSM    H6T13874   5.469   1.258   5.907  1.6066 -0.5854 -1.1217
  129OSM    C7S13875   5.355   1.138   5.778  0.4991  0.0077 -0.3111
  129OSM    H7S13876   5.268   1.207   5.772  0.0859 -0.6021 -1.7421
  129OSM    H7T13877   5.314   1.036   5.760  1.7887 -0.4278 -0.8438
  129OSM    C8S13878   5.439   1.165   5.666  0.1247 -0.6507  0.5665
  129OSM    H8S13879   5.524   1.095   5.654  1.4348  1.1698 -1.4783
  129OSM    H8T13880   5.482   1.266   5.683 -1.4401  0.3940 -1.3438
  129OSM    C9S13881   5.375   1.147   5.532 -0.0205 -1.1123  0.4980
  129OSM    H9S13882   5.295   1.222   5.511  0.5047 -0.3976  0.9964
  129OSM    H9T13883   5.329   1.046   5.539  0.6423 -1.3524  1.5084
  129OSM   C10S13884   5.475   1.140   5.415 -0.2743 -0.1607  0.4977
  129OSM   H10S13885   5.550   1.060   5.435  1.3460  1.4031  1.0407
  129OSM   H10T13886   5.526   1.239   5.405 -2.6629  1.4770  3.0804
  129OSM   C11S13887   5.414   1.095   5.283 -0.1624 -0.6908  0.0525
  129OSM   H11S13888   5.336   1.167   5.250 -0.0282 -0.0793  1.0079
  129OSM   H11T13889   5.375   0.992   5.291 -0.1553 -0.6103  1.4199
  129OSM   C12S13890   5.524   1.092   5.176  0.2799 -0.7322 -0.4566
  129OSM   H12S13891   5.586   1.006   5.207  0.1505 -0.8599 -0.5533
  129OSM   H12T13892   5.594   1.178   5.163  1.3860 -1.4130  0.8309
  129OSM   C13S13893   5.472   1.063   5.035 -0.5023  0.7064 -0.7397
  129OSM   H13S13894   5.392   1.136   5.011 -0.1057  0.4441 -3.0297
  129OSM   H13T13895   5.421   0.965   5.048 -0.8386  1.0855  1.1109
  129OSM   C14S13896   5.579   1.071   4.924 -0.2813  0.2769  0.5174
  129OSM   H14S13897   5.568   0.988   4.851 -1.4390 -1.4948  2.5627
  129OSM   H14T13898   5.673   1.052   4.981 -0.3163  0.5497  0.6677
  129OSM   C15S13899   5.587   1.207   4.859 -0.2469  0.7448  0.2352
  129OSM   H15S13900   5.610   1.286   4.932  1.4063 -1.9305  2.8087
  129OSM   H15T13901   5.500   1.221   4.791  1.3680 -1.2234 -2.5060
  129OSM   C16S13902   5.713   1.216   4.763 -0.7551  0.2508  0.8611
  129OSM   H16S13903   5.687   1.166   4.667  2.0506 -0.1131  0.2125
  129OSM   H16T13904   5.801   1.158   4.798 -0.1248  1.4001  1.2529
  129OSM   C17S13905   5.740   1.357   4.720  0.1397 -0.6619  0.8737
  129OSM   H17S13906   5.819   1.360   4.642  1.6752 -1.4626  2.3382
  129OSM   H17T13907   5.779   1.410   4.810  0.9154 -0.7075  0.5758
  129OSM   C18S13908   5.623   1.438   4.660  0.1080 -0.0481 -0.1659
  129OSM   H18S13909   5.673   1.521   4.605 -1.3145  0.2051 -1.1137
  129OSM   H18T13910   5.548   1.474   4.734  0.8640  1.2256  0.0251
  129OSM   H18U13911   5.574   1.376   4.582  0.9892 -1.9246  0.6995
  129OSM    C1F13912   4.866   1.361   6.058  0.6222  0.2606 -0.6329
  129OSM     OF13913   4.903   1.458   6.124  0.2139  0.2020 -0.2163
  129OSM    C2F13914   4.733   1.363   5.994  0.1482 -0.5594  0.8178
  129OSM    H2F13915   4.657   1.403   6.065  1.1470  0.1310  1.5220
  129OSM    H2G13916   4.710   1.269   5.940 -1.3245  0.3817 -0.2964
  129OSM    C3F13917   4.734   1.471   5.876 -0.1180  0.0301  0.2897
  129OSM    H3F13918   4.806   1.442   5.796 -0.4667  0.6194 -0.2455
  129OSM    H3G13919   4.758   1.570   5.919  0.2638 -1.0877  2.8225
  129OSM    C4F13920   4.608   1.487   5.786 -0.2047 -0.5952  0.4207
  129OSM    H4F13921   4.527   1.521   5.854 -1.4849 -0.2181 -1.2075
  129OSM    H4G13922   4.575   1.385   5.757  2.3411 -1.5020  0.4722
  129OSM    C5F13923   4.625   1.586   5.665  0.0888  0.2041 -0.4770
  129OSM    H5F13924   4.708   1.545   5.605  1.2073 -0.1683  1.2629
  129OSM    H5G13925   4.668   1.684   5.696  0.0614  1.1874 -3.2499
  129OSM    C6F13926   4.501   1.595   5.577  0.4548  0.5736  0.4620
  129OSM    H6F13927   4.422   1.659   5.622  1.9982  1.5522  1.8671
  129OSM    H6G13928   4.459   1.492   5.568  1.1754  0.2182  1.0788
  129OSM    C7F13929   4.538   1.653   5.436  0.0346 -0.2496 -0.7433
  129OSM    H7F13930   4.630   1.604   5.397  1.0952  0.5157  0.6816
  129OSM    H7G13931   4.560   1.760   5.457  0.6242 -0.8614  2.2121
  129OSM    C8F13932   4.431   1.631   5.327 -0.4545  0.9006 -0.6072
  129OSM    H8F13933   4.335   1.676   5.361 -1.1291 -1.4932  0.8062
  129OSM    H8G13934   4.429   1.521   5.317  0.0195  0.4816  2.7416
  129OSM    C9F13935   4.486   1.693   5.200  0.8779 -0.7180 -0.1828
  129OSM    H9F13936   4.505   1.802   5.200  0.9761 -0.6776  2.4835
  129OSM   C10F13937   4.499   1.631   5.082 -0.7062 -0.1660  0.4389
  129OSM   H10F13938   4.529   1.684   4.991  0.7024 -1.5534  0.0464
  129OSM   C11F13939   4.483   1.489   5.053  0.6919 -0.2265  0.3109
  129OSM   H11F13940   4.386   1.492   5.000  0.9791  2.0237 -0.2115
  129OSM   H11G13941   4.465   1.423   5.141  0.1708  1.4980  1.5625
  129OSM   C12F13942   4.591   1.417   4.966  0.0006 -0.8143 -0.1415
  129OSM   H12F13943   4.568   1.313   4.997  0.2882 -0.6078  0.7821
  129OSM   H12G13944   4.691   1.432   5.011 -0.0108 -0.7957 -0.1218
  129OSM   C13F13945   4.582   1.437   4.814  0.3245 -0.3634 -0.6312
  129OSM   H13F13946   4.631   1.530   4.776  0.7647 -0.3690 -0.0865
  129OSM   H13G13947   4.475   1.442   4.785  0.6691  1.1256 -1.7730
  129OSM   C14F13948   4.650   1.324   4.739 -0.4850  0.7663 -0.9325
  129OSM   H14F13949   4.592   1.233   4.768 -1.2660  1.4102 -0.4271
  129OSM   H14G13950   4.757   1.332   4.765  0.0577  0.6361 -2.9544
  129OSM   C15F13951   4.624   1.353   4.585  0.6757 -0.4286 -0.2003
  129OSM   H15F13952   4.516   1.374   4.569  0.5504 -0.4843  0.5436
  129OSM   H15G13953   4.649   1.255   4.539  1.3596  0.1639 -1.1253
  129OSM   C16F13954   4.717   1.467   4.534  0.5941  0.8434 -0.7392
  129OSM   H16F13955   4.806   1.459   4.600  0.1687  1.4791 -0.0767
  129OSM   H16G13956   4.666   1.563   4.557 -1.6909 -0.2120 -1.0586
  129OSM   C17F13957   4.752   1.440   4.393  0.1875 -0.2533 -0.3072
  129OSM   H17F13958   4.660   1.460   4.333 -0.7498 -1.4290  0.6769
  129OSM   H17G13959   4.798   1.341   4.377  1.2020  0.0652  0.5344
  129OSM   C18F13960   4.864   1.527   4.338 -0.3651  0.0836  0.9353
  129OSM   H18F13961   4.828   1.632   4.331  0.1758  0.2281  0.2735
  129OSM   H18G13962   4.898   1.489   4.239  0.7022  1.0351  0.9265
  129OSM   H18H13963   4.953   1.528   4.404  1.5870  1.4551 -1.5725
  130OSM      N13964   6.543   4.297   7.116 -1.0341  0.2672  0.6271
  130OSM    C1513965   6.467   4.171   7.137 -0.7138 -1.0817  0.4490
  130OSM   H15A13966   6.362   4.180   7.110 -0.5741 -0.0971  0.2012
  130OSM   H15B13967   6.464   4.153   7.244  1.0950 -1.9036  0.3813
  130OSM   H15C13968   6.518   4.087   7.092  1.0727  0.3184 -0.2115
  130OSM    C1413969   6.479   4.413   7.178 -0.8185  0.5923  0.0897
  130OSM   H14A13970   6.501   4.409   7.284 -0.1345 -0.6754 -0.0786
  130OSM   H14B13971   6.372   4.411   7.167 -0.7393  1.4942 -1.0290
  130OSM   H14C13972   6.521   4.499   7.129  0.3447 -1.0336 -1.9619
  130OSM    C1313973   6.690   4.283   7.162  0.3403  0.5006  0.2708
  130OSM   H13A13974   6.695   4.250   7.265  1.1176  0.8991  0.3703
  130OSM   H13B13975   6.739   4.379   7.161  0.3359  0.5070 -1.5627
  130OSM   H13C13976   6.750   4.213   7.106  1.5651  1.1519  0.7234
  130OSM    C1213977   6.558   4.316   6.963  0.1582 -0.1190 -0.6860
  130OSM   H12A13978   6.459   4.315   6.920  0.6999 -0.1910 -1.9679
  130OSM   H12B13979   6.598   4.223   6.924 -1.3945 -1.5752  0.9822
  130OSM    C1113980   6.622   4.443   6.906 -0.0451 -0.3486  0.0482
  130OSM   H11A13981   6.662   4.415   6.806  1.3714  0.3264  0.3965
  130OSM   H11B13982   6.719   4.469   6.954  0.6413 -2.0231 -0.3445
  130OSM      P13983   6.577   4.692   6.877  0.1998 -0.1115  0.0662
  130OSM    O1313984   6.463   4.782   6.875 -0.3698 -0.7794  0.6684
  130OSM    O1413985   6.692   4.730   6.963  0.0548  0.2519  0.0194
  130OSM    O1113986   6.632   4.678   6.731 -0.4997 -0.0277 -0.0667
  130OSM    O1213987   6.527   4.549   6.903  0.3616  0.3434  0.1493
  130OSM    C1S13988   6.538   4.624   6.628  0.9903  0.0724 -0.1261
  130OSM    H1S13989   6.436   4.669   6.634  0.6897 -0.5650 -0.3972
  130OSM    H1T13990   6.514   4.516   6.632 -1.9359  0.4339 -3.2669
  130OSM     NF13991   6.487   4.623   6.392 -0.2130 -0.2790 -0.4759
  130OSM    HNF13992   6.478   4.531   6.355 -0.7663 -0.7424  0.7569
  130OSM    C2S13993   6.596   4.639   6.490  0.0181  0.0131  0.2666
  130OSM    H2S13994   6.645   4.739   6.486 -0.2738  0.2317  1.6798
  130OSM    C3S13995   6.707   4.534   6.464 -0.7142  0.1757 -0.1882
  130OSM    H3S13996   6.672   4.429   6.463 -0.9577  0.2441  0.5097
  130OSM     O313997   6.799   4.525   6.567 -0.0482 -0.1380 -0.3295
  130OSM    HO313998   6.764   4.584   6.635 -1.3281 -0.0723 -1.0020
  130OSM    C4S13999   6.778   4.559   6.331 -0.3540 -0.9915  0.0256
  130OSM    H4S14000   6.722   4.513   6.248 -2.1705  0.6016  0.2986
  130OSM    C5S14001   6.886   4.633   6.298 -1.2647 -0.2346 -0.2393
  130OSM    H5S14002   6.937   4.699   6.370 -2.1736  1.3855 -1.0440
  130OSM    C6S14003   6.928   4.650   6.154  0.4645  0.7923 -0.3421
  130OSM    H6S14004   7.001   4.574   6.121 -0.3908 -0.1239 -0.1683
  130OSM    H6T14005   6.979   4.749   6.150 -0.8606  1.5806  0.9344
  130OSM    C7S14006   6.825   4.654   6.041  0.1814 -0.4879  1.1286
  130OSM    H7S14007   6.745   4.726   6.067 -2.1654 -2.4265 -0.2360
  130OSM    H7T14008   6.776   4.554   6.037  0.6523 -0.7058  0.5565
  130OSM    C8S14009   6.873   4.688   5.905 -0.6466 -0.7096  0.1343
  130OSM    H8S14010   6.952   4.622   5.864 -1.0486  0.6100 -3.0558
  130OSM    H8T14011   6.913   4.790   5.922 -2.4578 -0.1523  1.3589
  130OSM    C9S14012   6.761   4.688   5.802  0.4968  0.1820 -0.2288
  130OSM    H9S14013   6.675   4.747   5.840 -0.9124 -0.5780 -2.0817
  130OSM    H9T14014   6.738   4.580   5.786  0.3619  0.4229 -1.8168
  130OSM   C10S14015   6.797   4.757   5.667  0.3905  0.2020 -0.7261
  130OSM   H10S14016   6.878   4.692   5.626  0.0910  0.0811 -1.1341
  130OSM   H10T14017   6.841   4.857   5.688  0.5986 -0.0148 -0.0944
  130OSM   C11S14018   6.675   4.748   5.579 -0.1925 -0.0281 -0.4742
  130OSM   H11S14019   6.586   4.811   5.599 -1.0010 -1.3220  0.1237
  130OSM   H11T14020   6.635   4.645   5.576 -0.7870  0.1528  0.7155
  130OSM   C12S14021   6.734   4.780   5.440 -0.2996 -0.1776 -0.4991
  130OSM   H12S14022   6.814   4.714   5.402  1.3831  1.2407  0.4009
  130OSM   H12T14023   6.791   4.876   5.443  2.0468 -1.4367 -1.9250
  130OSM   C13S14024   6.623   4.788   5.331 -0.3445  0.2231  0.6674
  130OSM   H13S14025   6.575   4.884   5.359 -1.8813 -0.2812 -0.1055
  130OSM   H13T14026   6.546   4.710   5.352  0.5935 -0.7766  0.4642
  130OSM   C14S14027   6.676   4.813   5.190 -0.5564 -0.1530  0.6644
  130OSM   H14S14028   6.734   4.722   5.162  1.5212  0.6706  2.0196
  130OSM   H14T14029   6.746   4.900   5.191 -0.0028 -0.5867  1.8165
  130OSM   C15S14030   6.566   4.832   5.087  0.6109 -0.1103  0.4753
  130OSM   H15S14031   6.522   4.934   5.084 -0.9700 -0.7917  0.1030
  130OSM   H15T14032   6.486   4.758   5.108 -0.7390  0.7088 -1.4918
  130OSM   C16S14033   6.621   4.798   4.949  0.4541 -0.8770  0.5374
  130OSM   H16S14034   6.684   4.707   4.962  0.1279 -1.3006 -0.6572
  130OSM   H16T14035   6.679   4.889   4.923 -2.8622  1.8156  1.8541
  130OSM   C17S14036   6.511   4.778   4.849 -0.1228  0.1350  0.1774
  130OSM   H17S14037   6.457   4.684   4.871  0.8917 -0.5373 -0.1418
  130OSM   H17T14038   6.560   4.767   4.750 -0.0615  1.5172  0.0309
  130OSM   C18S14039   6.413   4.888   4.844  0.1685 -0.2783 -0.0104
  130OSM   H18S14040   6.461   4.983   4.814  0.9368 -0.4117  0.7629
  130OSM   H18T14041   6.358   4.915   4.937  0.5131  0.9060 -0.1274
  130OSM   H18U14042   6.343   4.857   4.764 -2.2846  0.0645  1.8828
  130OSM    C1F14043   6.409   4.725   6.363 -0.4015 -0.0241 -1.1648
  130OSM     OF14044   6.417   4.834   6.422  0.2414 -0.4638  0.1601
  130OSM    C2F14045   6.306   4.712   6.251  0.2556 -0.2727 -0.0898
  130OSM    H2F14046   6.203   4.720   6.292  0.5969 -0.4093  0.8188
  130OSM    H2G14047   6.325   4.609   6.215  2.4080 -0.1020  0.4562
  130OSM    C3F14048   6.331   4.819   6.143  0.0714 -0.2820  0.0613
  130OSM    H3F14049   6.440   4.840   6.139  0.5943 -2.5016  1.3150
  130OSM    H3G14050   6.282   4.915   6.171 -1.3038 -1.5463  2.2328
  130OSM    C4F14051   6.286   4.773   5.995  0.5563  0.2781 -0.5052
  130OSM    H4F14052   6.184   4.729   5.988  0.2049  1.0540 -0.4145
  130OSM    H4G14053   6.351   4.687   5.970 -0.2389  0.4383 -3.6111
  130OSM    C5F14054   6.307   4.881   5.887  0.6518 -0.2100  0.0197
  130OSM    H5F14055   6.358   4.830   5.802  3.0415 -0.2303  1.3678
  130OSM    H5G14056   6.384   4.950   5.926  0.9216 -0.9266  0.7876
  130OSM    C6F14057   6.178   4.960   5.853  0.2959  0.6156  0.2739
  130OSM    H6F14058   6.145   5.023   5.939  0.4072 -0.2625  0.9690
  130OSM    H6G14059   6.090   4.893   5.841  1.9522 -1.2201 -2.4745
  130OSM    C7F14060   6.198   5.036   5.718  0.6973 -0.0079 -0.7078
  130OSM    H7F14061   6.225   4.955   5.647  3.2899 -1.7685  2.0275
  130OSM    H7G14062   6.288   5.099   5.731 -0.4206  1.1614  2.1982
  130OSM    C8F14063   6.072   5.122   5.678 -0.0775 -0.1121 -0.3719
  130OSM    H8F14064   6.059   5.198   5.758 -0.6934  0.7139 -1.2299
  130OSM    H8G14065   5.981   5.062   5.699 -0.5999  0.6128 -0.5204
  130OSM    C9F14066   6.083   5.183   5.542 -0.3424  0.0948  0.0424
  130OSM    H9F14067   6.147   5.272   5.547  2.7269 -1.9351 -0.4457
  130OSM   C10F14068   6.030   5.135   5.424 -0.0745 -0.4400 -1.0553
  130OSM   H10F14069   6.049   5.191   5.331 -1.1886  1.5602 -0.1163
  130OSM   C11F14070   5.946   5.011   5.404 -0.0353  0.6055  0.2337
  130OSM   H11F14071   5.836   5.025   5.393 -0.0919 -0.5524 -0.7754
  130OSM   H11G14072   5.946   4.948   5.496 -1.0073  0.8336  0.3971
  130OSM   C12F14073   6.004   4.922   5.288  0.4944  0.0622 -0.4752
  130OSM   H12F14074   5.946   4.827   5.291  0.1552  0.2797  1.6282
  130OSM   H12G14075   6.104   4.889   5.322  0.1814 -1.3978 -0.9252
  130OSM   C13F14076   6.008   4.983   5.148  0.2628  0.8375  0.1873
  130OSM   H13F14077   6.081   5.067   5.140  1.0016  0.1340 -0.6257
  130OSM   H13G14078   5.912   5.030   5.117  0.4523  2.3694  1.7655
  130OSM   C14F14079   6.038   4.868   5.057 -0.6854  0.1988 -0.4530
  130OSM   H14F14080   5.969   4.782   5.077  1.2566 -0.5714  4.3061
  130OSM   H14G14081   6.143   4.838   5.075 -0.8924  0.2231  0.9394
  130OSM   C15F14082   6.025   4.919   4.912  0.0207  0.2116  0.2126
  130OSM   H15F14083   6.072   4.847   4.843 -1.1423 -0.3249 -0.0527
  130OSM   H15G14084   6.068   5.020   4.893  1.2422 -0.7227 -2.6143
  130OSM   C16F14085   5.875   4.915   4.870 -0.0127  0.4674  0.6248
  130OSM   H16F14086   5.812   4.985   4.929 -1.0608  2.1916 -2.3136
  130OSM   H16G14087   5.833   4.816   4.896 -1.9593  1.4838  1.5293
  130OSM   C17F14088   5.848   4.947   4.724 -0.1894  0.4785  0.3711
  130OSM   H17F14089   5.910   4.877   4.663 -0.0828  0.0074  1.0071
  130OSM   H17G14090   5.894   5.043   4.693  1.8791 -1.4568 -3.1937
  130OSM   C18F14091   5.698   4.944   4.691 -0.3653  0.2497  0.2640
  130OSM   H18F14092   5.675   5.002   4.599  0.6961 -1.5378 -1.1975
  130OSM   H18G14093   5.647   5.002   4.771  1.5418  1.1102  0.9039
  130OSM   H18H14094   5.660   4.840   4.682 -1.9162  0.6551  1.4967
  131OSM      N14095   0.234   0.078   7.054  0.1251  0.9743  0.3831
  131OSM    C1514096   0.152  -0.016   7.139 -0.4964 -0.2726 -0.5612
  131OSM   H15A14097   0.048   0.015   7.138 -0.0061  1.5010 -0.1783
  131OSM   H15B14098   0.193   0.008   7.236  0.0243  1.6353 -1.1928
  131OSM   H15C14099   0.177  -0.118   7.116  1.3318  0.3407 -1.4508
  131OSM    C1414100   0.204   0.213   7.104 -0.2494  0.2455 -0.7179
  131OSM   H14A14101   0.099   0.223   7.127 -0.1731 -0.7687  0.1643
  131OSM   H14B14102   0.230   0.282   7.025 -1.8790  0.6679 -0.9158
  131OSM   H14C14103   0.250   0.229   7.201 -0.9298 -0.6755 -0.2275
  131OSM    C1314104   0.382   0.045   7.081 -0.6588  0.6729  0.0568
  131OSM   H13A14105   0.414   0.050   7.184  1.9605  3.1029 -0.7532
  131OSM   H13B14106   0.447   0.111   7.027  3.0449 -1.5097  1.4822
  131OSM   H13C14107   0.421  -0.047   7.040  0.6067  0.8610  0.7926
  131OSM    C1214108   0.205   0.071   6.908 -0.2709  0.1637  0.6182
  131OSM   H12A14109   0.104   0.096   6.881  0.5157  1.3888 -1.4435
  131OSM   H12B14110   0.222  -0.032   6.881  2.7759  1.0208 -1.3429
  131OSM    C1114111   0.282   0.145   6.802  0.0281 -0.3179  0.1079
  131OSM   H11A14112   0.257   0.099   6.704 -1.0231 -1.0815  0.7112
  131OSM   H11B14113   0.391   0.128   6.815  0.1177 -0.4535 -0.7617
  131OSM      P14114   0.243   0.388   6.691 -0.0213  0.3618 -0.4051
  131OSM    O1314115   0.120   0.458   6.717 -0.1600  0.5154  0.5085
  131OSM    O1414116   0.362   0.475   6.690 -0.0332  0.5469  0.2009
  131OSM    O1114117   0.225   0.292   6.565  0.1988 -0.0058  0.3727
  131OSM    O1214118   0.250   0.282   6.808 -0.1812  0.5991  0.7909
  131OSM    C1S14119   0.104   0.226   6.527 -0.1108  0.5939  0.3757
  131OSM    H1S14120   0.012   0.249   6.585 -1.1958  0.7338 -1.3200
  131OSM    H1T14121   0.123   0.117   6.541  1.8253  0.2483 -3.6398
  131OSM     NF14122  -0.070   0.214   6.341  0.0105  0.3751  0.2332
  131OSM    HNF14123  -0.096   0.126   6.303  0.7225  0.3158 -0.1354
  131OSM    C2S14124   0.068   0.248   6.377  0.2466 -0.8806  0.0046
  131OSM    H2S14125   0.082   0.358   6.372  1.2411 -0.8791  1.9819
  131OSM    C3S14126   0.172   0.193   6.288 -0.1143  0.1620 -0.0340
  131OSM    H3S14127   0.181   0.088   6.321 -0.4956 -0.4632 -1.7784
  131OSM     O314128   0.299   0.251   6.324  0.2520  0.1042  0.3708
  131OSM    HO314129   0.296   0.271   6.418 -1.4531  0.9792  0.1762
  131OSM    C4S14130   0.154   0.203   6.141 -0.4859 -0.5145 -0.1550
  131OSM    H4S14131   0.128   0.303   6.101 -0.5562 -0.4021  0.1663
  131OSM    C5S14132   0.162   0.106   6.045  0.6835 -0.4400 -0.0638
  131OSM    H5S14133   0.160   0.001   6.079 -1.0794 -0.3277  0.2685
  131OSM    C6S14134   0.143   0.117   5.899  0.4508 -0.2710  0.6959
  131OSM    H6S14135   0.087   0.207   5.864  0.3153 -0.0108  1.5503
  131OSM    H6T14136   0.084   0.029   5.867  0.0211 -0.3247  1.6060
  131OSM    C7S14137   0.261   0.099   5.803 -0.2329  0.1020 -0.5786
  131OSM    H7S14138   0.330   0.013   5.814  1.6236  1.4719 -1.0589
  131OSM    H7T14139   0.330   0.183   5.826  0.9305 -0.9267 -0.1874
  131OSM    C8S14140   0.229   0.102   5.654  0.1193 -0.1773 -0.1075
  131OSM    H8S14141   0.164   0.185   5.620  0.2911 -0.6948 -1.8349
  131OSM    H8T14142   0.168   0.011   5.638  0.1239 -0.2448  0.2512
  131OSM    C9S14143   0.352   0.109   5.562 -0.2926  0.4559  0.0197
  131OSM    H9S14144   0.414   0.016   5.565  0.3668  0.9262  1.6438
  131OSM    H9T14145   0.415   0.186   5.611  0.8521 -0.5054  0.1169
  131OSM   C10S14146   0.312   0.152   5.422  0.1220  0.2578 -0.3750
  131OSM   H10S14147   0.260   0.250   5.417 -0.4346 -0.0268 -0.3512
  131OSM   H10T14148   0.249   0.070   5.381 -0.3984  0.6526 -0.3819
  131OSM   C11S14149   0.432   0.155   5.327  0.3676  0.6861  0.1098
  131OSM   H11S14150   0.472   0.053   5.309 -0.2899  0.8106 -2.4728
  131OSM   H11T14151   0.511   0.214   5.377 -2.1595  1.3669  3.6708
  131OSM   C12S14152   0.386   0.217   5.190  0.6847 -0.0831 -0.4540
  131OSM   H12S14153   0.341   0.318   5.203  0.9937 -0.1096  1.0106
  131OSM   H12T14154   0.303   0.153   5.152  1.1258 -0.6273 -0.5100
  131OSM   C13S14155   0.495   0.219   5.085 -0.0635  0.6159  0.1762
  131OSM   H13S14156   0.544   0.121   5.100 -1.0282  0.1458  0.3352
  131OSM   H13T14157   0.572   0.294   5.112 -0.0446 -0.1991  2.6087
  131OSM   C14S14158   0.441   0.211   4.943  0.4208  0.4703 -0.3345
  131OSM   H14S14159   0.408   0.313   4.916 -1.6172  0.0945  0.5649
  131OSM   H14T14160   0.345   0.154   4.942  0.1804  0.7702 -3.1180
  131OSM   C15S14161   0.538   0.151   4.841  0.5865  0.1851 -0.2449
  131OSM   H15S14162   0.571   0.049   4.869  0.9572 -0.0966 -1.6448
  131OSM   H15T14163   0.628   0.216   4.831  1.8786 -1.3035  1.2403
  131OSM   C16S14164   0.464   0.140   4.705 -0.4779  0.1711  0.2460
  131OSM   H16S14165   0.442   0.240   4.660 -1.7012  0.2662  1.0043
  131OSM   H16T14166   0.368   0.085   4.716  0.1856 -0.9928  0.3735
  131OSM   C17S14167   0.550   0.064   4.607 -0.1723 -0.1728  0.2890
  131OSM   H17S14168   0.571  -0.033   4.657 -1.4515 -0.5726  0.0883
  131OSM   H17T14169   0.644   0.115   4.578 -1.1134 -0.0044 -2.8866
  131OSM   C18S14170   0.487   0.030   4.470 -0.0482 -1.1735 -0.4509
  131OSM   H18S14171   0.533  -0.053   4.412 -2.1945 -1.7043 -1.5119
  131OSM   H18T14172   0.469   0.119   4.406 -2.3504 -2.9009 -2.4007
  131OSM   H18U14173   0.386  -0.012   4.490 -0.7204 -0.9305 -2.9476
  131OSM    C1F14174  -0.172   0.274   6.393  0.1240 -0.2591 -0.7782
  131OSM     OF14175  -0.156   0.380   6.459  0.5126 -0.4380 -0.3385
  131OSM    C2F14176  -0.312   0.221   6.354  0.1710 -0.4952 -0.1658
  131OSM    H2F14177  -0.382   0.236   6.439 -0.2372  1.3716 -0.7947
  131OSM    H2G14178  -0.304   0.113   6.329  4.1899 -0.2204 -0.8055
  131OSM    C3F14179  -0.375   0.302   6.231 -0.6471  0.0769 -0.1691
  131OSM    H3F14180  -0.388   0.409   6.255 -1.5150  0.1302 -0.8306
  131OSM    H3G14181  -0.475   0.258   6.212  0.2233 -0.6123 -4.0652
  131OSM    C4F14182  -0.288   0.292   6.107  0.0082 -0.0712  0.3046
  131OSM    H4F14183  -0.305   0.192   6.063  1.3405 -0.6391  1.0517
  131OSM    H4G14184  -0.180   0.309   6.127  0.1153 -0.5222  0.1251
  131OSM    C5F14185  -0.349   0.403   6.004 -0.4767  0.2660 -0.1034
  131OSM    H5F14186  -0.331   0.508   6.038  1.6017 -0.0862  0.0292
  131OSM    H5G14187  -0.457   0.377   6.004 -0.8832  1.8489  0.0272
  131OSM    C6F14188  -0.288   0.386   5.859 -0.2113  0.4933 -0.5552
  131OSM    H6F14189  -0.179   0.378   5.877 -0.5187 -0.7021  0.9884
  131OSM    H6G14190  -0.296   0.481   5.802  0.8741  2.1861  1.9552
  131OSM    C7F14191  -0.333   0.267   5.783  0.5092  0.6505  0.3595
  131OSM    H7F14192  -0.443   0.277   5.771  0.2141 -1.7411  0.4081
  131OSM    H7G14193  -0.307   0.170   5.832 -1.2580  0.2711  0.5970
  131OSM    C8F14194  -0.266   0.254   5.643  0.3742 -0.7404 -0.5683
  131OSM    H8F14195  -0.297   0.153   5.609 -0.6366 -0.4205 -0.6349
  131OSM    H8G14196  -0.160   0.252   5.678  0.2880  1.6426 -0.0413
  131OSM    C9F14197  -0.286   0.361   5.542  0.2893  0.0034 -0.5148
  131OSM    H9F14198  -0.349   0.444   5.578  0.4675  0.1850 -0.6162
  131OSM   C10F14199  -0.239   0.351   5.413 -0.2482 -0.9198  0.0945
  131OSM   H10F14200  -0.239   0.434   5.340 -4.6154  1.0150  1.9699
  131OSM   C11F14201  -0.155   0.230   5.367 -0.2865 -0.0716 -0.2801
  131OSM   H11F14202  -0.190   0.177   5.276  2.5901 -0.1351 -1.4371
  131OSM   H11G14203  -0.151   0.149   5.443 -0.6480 -0.2356 -0.4329
  131OSM   C12F14204  -0.014   0.271   5.336  0.1108 -0.6303  0.3752
  131OSM   H12F14205   0.049   0.185   5.304  0.5146 -0.8796  1.7905
  131OSM   H12G14206   0.035   0.315   5.426  0.2466 -1.9499  0.9690
  131OSM   C13F14207  -0.010   0.366   5.213  0.0460 -0.4751  0.5712
  131OSM   H13F14208   0.095   0.383   5.180 -0.0775 -2.0977 -0.7884
  131OSM   H13G14209  -0.059   0.462   5.239 -3.6533 -1.4645 -2.0713
  131OSM   C14F14210  -0.062   0.301   5.093  0.3855 -0.1515  0.5096
  131OSM   H14F14211  -0.172   0.288   5.093  0.1307  1.5610 -1.2455
  131OSM   H14G14212  -0.019   0.200   5.075 -2.1730 -0.9538 -1.8166
  131OSM   C15F14213  -0.042   0.400   4.964  0.5826 -0.4456 -0.5917
  131OSM   H15F14214  -0.087   0.500   4.981  0.2366 -0.7771  0.5392
  131OSM   H15G14215  -0.088   0.353   4.875 -0.0137  0.9326 -1.0305
  131OSM   C16F14216   0.109   0.428   4.929  0.5492 -0.0145  0.6193
  131OSM   H16F14217   0.156   0.328   4.937  0.7166  0.1927  3.8287
  131OSM   H16G14218   0.160   0.495   5.002  0.3200  1.4491 -0.5324
  131OSM   C17F14219   0.122   0.505   4.797  0.1532 -0.2826 -0.2995
  131OSM   H17F14220   0.218   0.560   4.801 -1.3473  2.4548  0.3599
  131OSM   H17G14221   0.045   0.584   4.806  1.8119  1.3820 -0.1874
  131OSM   C18F14222   0.112   0.424   4.667  0.0584  0.9425 -0.0952
  131OSM   H18F14223   0.018   0.364   4.667  1.6877 -1.7549 -0.0904
  131OSM   H18G14224   0.204   0.370   4.637  1.1669  1.5542  1.9947
  131OSM   H18H14225   0.094   0.492   4.581  1.9635 -1.1487 -2.3094
  132OSM      N14226   4.692   2.849   6.470  0.5799  0.6210 -0.0878
  132OSM    C1514227   4.595   2.752   6.527  0.0910 -0.1912  0.4500
  132OSM   H15A14228   4.523   2.805   6.587 -0.3381  1.4452 -1.3918
  132OSM   H15B14229   4.639   2.687   6.602 -0.8310 -0.9172  0.3742
  132OSM   H15C14230   4.545   2.690   6.454  0.4121 -0.9255  0.8451
  132OSM    C1414231   4.820   2.769   6.441  0.1610  0.8369  0.2981
  132OSM   H14A14232   4.869   2.737   6.532 -0.0053 -2.8914 -0.7434
  132OSM   H14B14233   4.890   2.826   6.381  0.6115  1.9101  1.7845
  132OSM   H14C14234   4.799   2.679   6.386  2.7934 -0.9994  2.0395
  132OSM    C1314235   4.639   2.906   6.345 -0.1819  0.1488 -0.5836
  132OSM   H13A14236   4.720   2.960   6.298  0.2473  0.8419  0.8997
  132OSM   H13B14237   4.564   2.979   6.373  0.0640 -0.6270  2.5369
  132OSM   H13C14238   4.590   2.832   6.283  0.1882 -2.3930  1.9285
  132OSM    C1214239   4.730   2.962   6.561  0.3064  0.3739 -0.6581
  132OSM   H12A14240   4.644   3.027   6.571  0.3177  0.3664 -0.5066
  132OSM   H12B14241   4.803   3.018   6.505 -0.4001  1.9907 -0.0260
  132OSM    C1114242   4.783   2.935   6.702  0.3777 -0.4986 -0.2212
  132OSM   H11A14243   4.869   2.868   6.721  0.5709 -0.1445  0.1771
  132OSM   H11B14244   4.698   2.894   6.761  0.0865  1.5792  0.9200
  132OSM      P14245   4.927   3.148   6.730  0.1863 -0.0935  0.3345
  132OSM    O1314246   4.902   3.283   6.784 -0.5742  0.0593 -0.3573
  132OSM    O1414247   5.050   3.081   6.765 -0.2484  0.0899  0.3061
  132OSM    O1114248   4.923   3.164   6.572  1.0910  0.1290 -0.2598
  132OSM    O1214249   4.805   3.060   6.772  0.3830  0.5333 -0.7227
  132OSM    C1S14250   5.032   3.129   6.491  0.2091 -0.8637  0.3503
  132OSM    H1S14251   5.032   3.019   6.477  3.0188 -1.0710  1.3450
  132OSM    H1T14252   5.133   3.157   6.526  0.4177  0.5119 -1.2090
  132OSM     NF14253   5.070   3.140   6.239 -0.8683  0.7158 -0.2336
  132OSM    HNF14254   5.154   3.180   6.202 -0.1078 -0.8566 -0.2976
  132OSM    C2S14255   5.026   3.214   6.357  0.4471 -0.6308 -0.5018
  132OSM    H2S14256   4.916   3.226   6.344  0.4480 -0.5458 -0.4266
  132OSM    C3S14257   5.080   3.355   6.387  0.5165 -1.0924 -0.1480
  132OSM    H3S14258   5.191   3.358   6.396  0.4815  1.6447  0.2285
  132OSM     O314259   5.032   3.406   6.514  0.4280 -0.2600 -0.1653
  132OSM    HO314260   4.958   3.346   6.529  0.3101  0.4320  2.5077
  132OSM    C4S14261   5.048   3.447   6.270  0.1517 -0.6417 -0.8001
  132OSM    H4S14262   4.947   3.489   6.268 -0.2300 -1.4696  0.2146
  132OSM    C5S14263   5.132   3.472   6.176 -0.0126  0.3951  0.6438
  132OSM    H5S14264   5.229   3.419   6.173 -2.2108 -4.1001 -0.8119
  132OSM    C6S14265   5.105   3.565   6.060  0.0378  0.0643 -0.2716
  132OSM    H6S14266   5.182   3.548   5.981  0.2928 -1.7061  0.3049
  132OSM    H6T14267   5.117   3.670   6.093 -0.1043 -0.0641  0.2082
  132OSM    C7S14268   4.969   3.571   5.992  0.3118 -0.3377  0.5800
  132OSM    H7S14269   4.977   3.667   5.936 -1.8103 -2.0016 -2.9841
  132OSM    H7T14270   4.888   3.578   6.068  0.1644  0.6907  0.3480
  132OSM    C8S14271   4.937   3.465   5.890  0.8227  0.0702  0.1791
  132OSM    H8S14272   4.828   3.470   5.866  0.1913 -0.0181  2.7280
  132OSM    H8T14273   4.960   3.364   5.929 -0.9027 -0.6615 -0.6091
  132OSM    C9S14274   5.003   3.485   5.753 -0.0390 -0.7505  0.1591
  132OSM    H9S14275   5.113   3.478   5.771 -0.1539  0.0593  1.3090
  132OSM    H9T14276   4.990   3.589   5.715  0.6685 -0.1886  1.3694
  132OSM   C10S14277   4.951   3.374   5.659 -0.1830 -0.2005 -0.4635
  132OSM   H10S14278   4.841   3.381   5.657 -0.2101  0.4506  1.1616
  132OSM   H10T14279   4.993   3.282   5.705 -0.4027  0.4958  1.2070
  132OSM   C11S14280   5.006   3.401   5.521 -0.0430  0.2069 -0.2626
  132OSM   H11S14281   5.020   3.302   5.471 -3.5113 -1.9147  2.5270
  132OSM   H11T14282   5.105   3.452   5.524 -0.4950  1.0611  0.4700
  132OSM   C12S14283   4.924   3.498   5.429  0.0874 -0.2185  0.5890
  132OSM   H12S14284   4.925   3.595   5.482 -0.2658  0.1849 -0.1280
  132OSM   H12T14285   4.819   3.462   5.420 -0.0469  0.6694 -2.2223
  132OSM   C13S14286   4.983   3.523   5.288  0.6494  0.7289 -0.2575
  132OSM   H13S14287   5.085   3.557   5.316  0.5338  0.7051  0.1912
  132OSM   H13T14288   4.923   3.603   5.241  1.5971  2.4900  1.4379
  132OSM   C14S14289   4.975   3.396   5.196  0.6858  0.0885  0.4112
  132OSM   H14S14290   4.871   3.358   5.202 -0.2103  2.2441 -0.4957
  132OSM   H14T14291   5.044   3.318   5.235  3.5217  0.3822 -3.4700
  132OSM   C15S14292   4.998   3.423   5.048 -0.1509  0.4377 -0.2893
  132OSM   H15S14293   4.930   3.502   5.010 -0.5360 -0.1696 -0.8815
  132OSM   H15T14294   4.967   3.332   4.994  0.2150 -0.9429  1.7121
  132OSM   C16S14295   5.139   3.465   5.011 -0.3274  0.2976 -0.6411
  132OSM   H16S14296   5.199   3.386   5.061  0.0814  2.0348  1.8191
  132OSM   H16T14297   5.154   3.559   5.068  0.3030 -1.1241  1.6595
  132OSM   C17S14298   5.166   3.489   4.860  0.0866  0.4275  0.8169
  132OSM   H17S14299   5.124   3.589   4.833  0.1132  0.3839  0.6135
  132OSM   H17T14300   5.115   3.411   4.800  0.6132 -0.3072  1.3113
  132OSM   C18S14301   5.318   3.491   4.834 -0.1403 -0.0353 -0.2281
  132OSM   H18S14302   5.368   3.393   4.854  1.5916  0.4115 -1.9633
  132OSM   H18T14303   5.370   3.558   4.906 -0.1160 -2.2836  1.9803
  132OSM   H18U14304   5.345   3.522   4.731 -3.4519 -0.5383 -1.3797
  132OSM    C1F14305   5.020   3.022   6.196 -0.1634  0.0023  0.5678
  132OSM     OF14306   4.924   2.973   6.256 -0.4215  0.5149 -0.3478
  132OSM    C2F14307   5.085   2.960   6.070 -0.2883 -0.3426  0.2590
  132OSM    H2F14308   5.001   2.906   6.021 -1.0017  1.1089 -0.1813
  132OSM    H2G14309   5.157   2.878   6.092 -1.8663 -2.4181 -1.8098
  132OSM    C3F14310   5.155   3.068   5.966  0.0907  0.0232 -0.7292
  132OSM    H3F14311   5.262   3.073   5.997  0.3599  1.2529 -1.7784
  132OSM    H3G14312   5.087   3.156   5.962 -0.8463 -0.6095  0.7299
  132OSM    C4F14313   5.157   3.014   5.822  0.4158  0.2558 -0.3885
  132OSM    H4F14314   5.057   2.998   5.776  0.8804 -1.2360 -0.9397
  132OSM    H4G14315   5.200   2.912   5.818  1.0293  0.5492 -1.9081
  132OSM    C5F14316   5.223   3.109   5.723  0.7362 -0.4521 -0.2767
  132OSM    H5F14317   5.333   3.110   5.739  0.4402 -0.8632  2.0112
  132OSM    H5G14318   5.203   3.218   5.738  2.1231 -0.4977  2.3286
  132OSM    C6F14319   5.196   3.062   5.578 -0.1382  0.0176 -0.4976
  132OSM    H6F14320   5.094   3.092   5.547 -0.4003 -0.7799 -0.4109
  132OSM    H6G14321   5.203   2.953   5.562 -2.9825 -0.2975 -0.0331
  132OSM    C7F14322   5.299   3.131   5.486 -0.0244 -0.3369 -0.0336
  132OSM    H7F14323   5.402   3.091   5.498  0.1717 -0.0953 -0.8532
  132OSM    H7G14324   5.303   3.241   5.500  0.4845 -0.1222 -1.6601
  132OSM    C8F14325   5.263   3.107   5.338 -0.4692  0.1158 -0.1794
  132OSM    H8F14326   5.154   3.123   5.319 -0.2232  3.3535  0.5894
  132OSM    H8G14327   5.279   2.997   5.340  0.1113  0.1699  2.9680
  132OSM    C9F14328   5.357   3.189   5.245  0.6541  0.0337 -0.2693
  132OSM    H9F14329   5.387   3.288   5.282 -0.0906 -0.1096  0.7324
  132OSM   C10F14330   5.362   3.154   5.117  0.1404  0.0651  0.4776
  132OSM   H10F14331   5.427   3.211   5.050 -0.4584  1.9339  1.4135
  132OSM   C11F14332   5.310   3.030   5.049 -0.2402 -0.2529  1.1580
  132OSM   H11F14333   5.236   2.965   5.099 -0.3114 -2.1593 -1.2343
  132OSM   H11G14334   5.393   2.960   5.022 -0.7416 -0.5128  0.2331
  132OSM   C12F14335   5.234   3.070   4.920  0.3066  0.0153  0.1024
  132OSM   H12F14336   5.178   3.165   4.930  2.4089  1.1076  3.0560
  132OSM   H12G14337   5.164   2.987   4.897 -0.8746  0.2262  2.6070
  132OSM   C13F14338   5.333   3.089   4.804  0.4740  0.3647  0.6164
  132OSM   H13F14339   5.398   2.999   4.795  0.8692  0.8869 -3.0128
  132OSM   H13G14340   5.404   3.171   4.828  0.0875  0.8681  0.0505
  132OSM   C14F14341   5.249   3.116   4.678 -0.2594  0.6571 -0.0473
  132OSM   H14F14342   5.194   3.211   4.697 -0.4423  0.3780  0.8796
  132OSM   H14G14343   5.189   3.026   4.652 -0.5704  0.9790 -0.4508
  132OSM   C15F14344   5.333   3.170   4.554 -0.3552  0.4387  0.5641
  132OSM   H15F14345   5.386   3.264   4.580  0.9747 -0.5775  1.7147
  132OSM   H15G14346   5.269   3.187   4.464  1.1856  2.3092 -0.2519
  132OSM   C16F14347   5.454   3.072   4.508  0.0032 -0.2684 -0.6484
  132OSM   H16F14348   5.410   2.971   4.520  1.0711 -0.6796  0.0247
  132OSM   H16G14349   5.537   3.094   4.580 -2.0983  1.0517  1.5251
  132OSM   C17F14350   5.501   3.096   4.360 -0.1635 -0.3731  0.3264
  132OSM   H17F14351   5.599   3.046   4.347 -0.3245 -0.3382 -1.1163
  132OSM   H17G14352   5.515   3.204   4.338  0.6152 -0.7565 -1.1722
  132OSM   C18F14353   5.404   3.028   4.263 -0.0862 -0.5598  0.0760
  132OSM   H18F14354   5.460   2.959   4.196  2.1656  0.1045  1.1395
  132OSM   H18G14355   5.352   3.108   4.206  0.4739 -0.1406  0.1399
  132OSM   H18H14356   5.327   2.966   4.313 -1.1230  0.5667 -0.0766
  133OSM      N14357   4.008   2.804   6.381  0.0416  0.2381  0.0545
  133OSM    C1514358   3.988   2.673   6.462  0.2676 -0.2275  0.8279
  133OSM   H15A14359   3.909   2.613   6.419 -0.5073  0.0560  1.7856
  133OSM   H15B14360   3.963   2.698   6.565  0.4265  0.8769  0.6146
  133OSM   H15C14361   4.074   2.610   6.472  0.7712  0.4340  0.7666
  133OSM    C1414362   4.097   2.898   6.459  0.2901 -0.0305 -0.3985
  133OSM   H14A14363   4.054   2.908   6.558  2.8707  1.0374  0.7134
  133OSM   H14B14364   4.110   2.998   6.420 -4.5216  1.8193  1.8117
  133OSM   H14C14365   4.187   2.842   6.479  0.6584  0.0331 -1.8223
  133OSM    C1314366   4.074   2.776   6.253  0.1128 -0.8269 -0.0881
  133OSM   H13A14367   4.086   2.861   6.187  0.8341 -0.4371  0.5336
  133OSM   H13B14368   4.019   2.694   6.210 -3.1323 -0.4279  2.8629
  133OSM   H13C14369   4.172   2.738   6.275 -0.0036 -0.0890  1.9063
  133OSM    C1214370   3.875   2.856   6.356  0.5556  0.6148  0.2038
  133OSM   H12A14371   3.813   2.873   6.443  0.2276  2.7140 -0.3803
  133OSM   H12B14372   3.816   2.779   6.309  2.4533 -0.7026 -0.1795
  133OSM    C1114373   3.872   2.981   6.266 -1.4049  0.3719  0.0676
  133OSM   H11A14374   3.767   3.011   6.246 -1.0122  0.7207 -1.6221
  133OSM   H11B14375   3.923   2.959   6.170  0.4357  2.0832  0.6032
  133OSM      P14376   3.900   3.190   6.432 -0.0476 -0.2835  0.5041
  133OSM    O1314377   3.820   3.127   6.532 -0.3650 -0.8208 -0.9106
  133OSM    O1414378   4.024   3.261   6.479 -0.5361  1.0449  0.0636
  133OSM    O1114379   3.812   3.295   6.351  0.3075 -0.5482  0.3573
  133OSM    O1214380   3.951   3.092   6.319 -0.3765 -0.1700  0.5073
  133OSM    C1S14381   3.879   3.392   6.266 -0.8180  0.8686 -0.3767
  133OSM    H1S14382   3.985   3.411   6.293 -0.8982 -2.0253  2.6166
  133OSM    H1T14383   3.837   3.495   6.273 -1.5590  0.4569  3.0865
  133OSM     NF14384   3.978   3.429   6.026 -0.7631 -0.8332 -1.1298
  133OSM    HNF14385   3.949   3.493   5.956 -0.1624  0.3995 -0.2763
  133OSM    C2S14386   3.885   3.352   6.111 -0.7224 -0.4986 -0.5901
  133OSM    H2S14387   3.920   3.247   6.117  1.1029  0.1685  3.2720
  133OSM    C3S14388   3.743   3.348   6.050  0.4382 -0.4934  0.1571
  133OSM    H3S14389   3.711   3.450   6.019  1.6504 -0.8938 -2.7249
  133OSM     O314390   3.647   3.295   6.142  0.1636 -0.7918  0.0535
  133OSM    HO314391   3.698   3.310   6.222 -0.7300 -0.0799  0.5024
  133OSM    C4S14392   3.749   3.279   5.913 -0.3735 -0.1758  0.0888
  133OSM    H4S14393   3.733   3.351   5.831 -0.1373 -0.3350 -0.1000
  133OSM    C5S14394   3.736   3.148   5.886  0.2610  0.5160  0.2869
  133OSM    H5S14395   3.732   3.075   5.967  1.0651 -0.4453 -0.5226
  133OSM    C6S14396   3.713   3.090   5.746 -0.0523  0.6262 -0.3872
  133OSM    H6S14397   3.620   3.030   5.749  0.2111  0.1921 -0.7673
  133OSM    H6T14398   3.783   3.008   5.719 -1.6517 -0.7859 -0.3454
  133OSM    C7S14399   3.691   3.178   5.623 -0.1897  0.1914 -0.0183
  133OSM    H7S14400   3.785   3.234   5.604  0.0951  0.4611  1.9462
  133OSM    H7T14401   3.610   3.254   5.629  1.5978  2.1502  0.2889
  133OSM    C8S14402   3.656   3.088   5.499 -0.2296 -0.5359 -0.1047
  133OSM    H8S14403   3.562   3.032   5.520  0.1967 -0.8646  1.0160
  133OSM    H8T14404   3.746   3.025   5.487 -0.3125 -1.0168  1.5067
  133OSM    C9S14405   3.630   3.179   5.385 -0.2223 -0.2394 -0.2275
  133OSM    H9S14406   3.722   3.237   5.363 -0.7874 -0.0837 -2.3124
  133OSM    H9T14407   3.536   3.233   5.410 -1.7268 -2.4657 -0.7237
  133OSM   C10S14408   3.595   3.090   5.260  0.2128 -0.9951 -0.6357
  133OSM   H10S14409   3.521   3.016   5.299 -1.2334 -0.2457 -1.8486
  133OSM   H10T14410   3.687   3.030   5.244  0.9614 -1.5135  4.0946
  133OSM   C11S14411   3.537   3.162   5.138 -0.4641 -0.2298 -0.2729
  133OSM   H11S14412   3.439   3.198   5.177 -0.2643 -0.3606  0.3554
  133OSM   H11T14413   3.496   3.093   5.061 -0.6907  0.0898 -0.4394
  133OSM   C12S14414   3.615   3.272   5.071 -0.8341  0.6634  0.5808
  133OSM   H12S14415   3.663   3.339   5.145  0.1340 -2.5892  3.1560
  133OSM   H12T14416   3.550   3.322   4.997 -1.6046  0.9785  1.4427
  133OSM   C13S14417   3.738   3.202   5.001 -0.1393  0.1764  0.0915
  133OSM   H13S14418   3.697   3.102   4.972 -1.2946 -0.5333  3.5859
  133OSM   H13T14419   3.808   3.171   5.082 -0.8812  0.1962  0.7528
  133OSM   C14S14420   3.804   3.286   4.886  0.1574 -0.6766  0.7076
  133OSM   H14S14421   3.827   3.389   4.921 -0.7294 -0.7627  1.5820
  133OSM   H14T14422   3.735   3.302   4.800  2.3286 -1.8894 -1.3998
  133OSM   C15S14423   3.936   3.230   4.839 -0.4405  0.4421  1.1408
  133OSM   H15S14424   3.913   3.135   4.787 -0.0156  0.1245  1.5340
  133OSM   H15T14425   3.993   3.208   4.931  1.6484  2.8370  0.5416
  133OSM   C16S14426   4.021   3.321   4.754  0.0390 -1.0044 -0.0207
  133OSM   H16S14427   4.045   3.415   4.810 -3.7519  0.6900 -0.9292
  133OSM   H16T14428   3.968   3.345   4.660 -0.3796 -1.7431  0.0243
  133OSM   C17S14429   4.164   3.259   4.727  0.8927 -0.0224  0.0502
  133OSM   H17S14430   4.146   3.176   4.657 -0.8637  2.0122 -2.0896
  133OSM   H17T14431   4.217   3.230   4.820  0.3354 -0.0966  0.3520
  133OSM   C18S14432   4.261   3.361   4.653  0.3511  0.0753  0.2088
  133OSM   H18S14433   4.212   3.378   4.555 -2.8720 -0.3527  1.6228
  133OSM   H18T14434   4.363   3.319   4.643 -1.1945 -3.6511 -1.4362
  133OSM   H18U14435   4.260   3.461   4.701 -0.3450  1.6704 -2.8765
  133OSM    C1F14436   4.113   3.420   6.037 -0.0743  0.4593 -1.0290
  133OSM     OF14437   4.164   3.366   6.135  0.1259 -0.0295 -0.4377
  133OSM    C2F14438   4.187   3.479   5.924  0.4514  0.0399 -0.2564
  133OSM    H2F14439   4.239   3.569   5.965 -1.0948  0.8611 -0.0309
  133OSM    H2G14440   4.119   3.518   5.846  2.3283 -0.1164 -2.0558
  133OSM    C3F14441   4.269   3.374   5.846  0.4985  0.5960 -0.5015
  133OSM    H3F14442   4.359   3.344   5.903 -0.0888  0.0708  0.1673
  133OSM    H3G14443   4.310   3.429   5.758 -0.0541 -0.5179 -1.5022
  133OSM    C4F14444   4.192   3.243   5.791 -0.0466 -0.5003  0.0940
  133OSM    H4F14445   4.113   3.273   5.720 -0.8577  0.3135  1.2939
  133OSM    H4G14446   4.150   3.188   5.878 -0.0613 -2.0027 -0.8325
  133OSM    C5F14447   4.290   3.135   5.746 -0.0237  0.0654 -0.5507
  133OSM    H5F14448   4.332   3.089   5.838 -1.4337 -0.7792 -0.3028
  133OSM    H5G14449   4.381   3.167   5.691  0.5263 -0.3378  0.1028
  133OSM    C6F14450   4.217   3.019   5.671 -0.3078 -0.4963  0.1140
  133OSM    H6F14451   4.135   2.988   5.740 -0.5848  1.3440  0.6651
  133OSM    H6G14452   4.291   2.939   5.648  1.8681  1.8729 -1.6595
  133OSM    C7F14453   4.159   3.054   5.535  0.0550 -0.0281 -0.8851
  133OSM    H7F14454   4.228   3.066   5.448  0.7029  0.7978 -0.2729
  133OSM    H7G14455   4.107   3.152   5.542  1.2633  0.5027  1.6095
  133OSM    C8F14456   4.059   2.946   5.492  0.6761 -0.5855 -0.0533
  133OSM    H8F14457   3.983   2.957   5.573  1.5042  0.5549  0.5991
  133OSM    H8G14458   4.114   2.850   5.496  0.3719 -0.7272  1.6306
  133OSM    C9F14459   4.005   2.984   5.357 -0.0013 -0.4650 -0.4375
  133OSM    H9F14460   3.932   3.065   5.350  1.1135  0.4712 -2.0472
  133OSM   C10F14461   4.061   2.945   5.243  0.2786 -0.1383 -0.1732
  133OSM   H10F14462   4.018   2.974   5.146  1.6040  0.4931 -0.6034
  133OSM   C11F14463   4.178   2.859   5.235 -0.7867 -0.2526  0.2052
  133OSM   H11F14464   4.146   2.759   5.272 -0.9119  0.6520  2.7778
  133OSM   H11G14465   4.247   2.895   5.314 -0.9365 -1.0717  0.7239
  133OSM   C12F14466   4.243   2.850   5.099 -0.3446  0.3700  0.0252
  133OSM   H12F14467   4.176   2.787   5.036 -1.7226  0.2948  1.5001
  133OSM   H12G14468   4.344   2.806   5.108 -1.1443 -1.7984 -0.8047
  133OSM   C13F14469   4.253   2.987   5.015 -0.8808  0.0192 -0.3045
  133OSM   H13F14470   4.283   3.073   5.078 -2.9355  1.2413 -0.8948
  133OSM   H13G14471   4.152   3.008   4.973  0.0757  2.2084 -1.7035
  133OSM   C14F14472   4.351   2.980   4.905  0.2784 -1.2685  0.7297
  133OSM   H14F14473   4.450   2.955   4.950  0.5128  0.8332  1.5008
  133OSM   H14G14474   4.366   3.079   4.856 -0.3408 -2.0048 -1.0253
  133OSM   C15F14475   4.309   2.873   4.800 -0.3763  0.5072 -0.4190
  133OSM   H15F14476   4.213   2.911   4.758 -0.3869 -0.1562 -1.0041
  133OSM   H15G14477   4.296   2.780   4.859  1.3141 -0.2081 -1.1357
  133OSM   C16F14478   4.395   2.861   4.680 -0.3196  0.1713 -0.4997
  133OSM   H16F14479   4.489   2.812   4.714  0.3336  0.8014 -1.3772
  133OSM   H16G14480   4.417   2.968   4.658 -1.0429  0.0707 -1.7801
  133OSM   C17F14481   4.344   2.798   4.553  0.7612 -0.3717  1.1553
  133OSM   H17F14482   4.259   2.854   4.507  0.7676 -0.6652  0.7709
  133OSM   H17G14483   4.299   2.700   4.582 -0.8638 -0.2169 -0.6126
  133OSM   C18F14484   4.457   2.789   4.444 -0.5840 -1.0860 -0.1033
  133OSM   H18F14485   4.522   2.701   4.467  0.9680  0.3090  1.0890
  133OSM   H18G14486   4.523   2.877   4.455 -1.2538 -0.6681  0.6829
  133OSM   H18H14487   4.420   2.777   4.340  0.5877  0.5722 -0.7442
  134OSM      N14488   3.360   0.272   6.855 -0.1899  0.0638 -0.3591
  134OSM    C1514489   3.372   0.357   6.978  0.5213 -0.6860 -1.3177
  134OSM   H15A14490   3.425   0.308   7.059  1.6929  1.2722 -0.8420
  134OSM   H15B14491   3.273   0.380   7.015  1.9563 -0.2163  2.6585
  134OSM   H15C14492   3.424   0.449   6.957  0.9625 -0.9090 -1.2138
  134OSM    C1414493   3.489   0.210   6.827  0.1517 -0.0192  0.3398
  134OSM   H14A14494   3.482   0.166   6.729 -4.3647  1.2860 -0.1531
  134OSM   H14B14495   3.521   0.139   6.902 -2.6665  0.5581  2.2702
  134OSM   H14C14496   3.566   0.283   6.806  1.0098 -1.6440 -2.8372
  134OSM    C1314497   3.263   0.171   6.865 -0.1205  0.2906 -1.1756
  134OSM   H13A14498   3.277   0.091   6.794  2.2574 -0.8503  0.4437
  134OSM   H13B14499   3.161   0.204   6.852 -1.4597 -3.1849 -0.6335
  134OSM   H13C14500   3.269   0.122   6.961  0.3801  2.0936 -0.2384
  134OSM    C1214501   3.302   0.357   6.738 -0.1628  0.3747  0.0909
  134OSM   H12A14502   3.349   0.455   6.739 -2.5381  1.5814  0.7171
  134OSM   H12B14503   3.199   0.385   6.757 -0.5139  1.1982 -2.5252
  134OSM    C1114504   3.318   0.306   6.589  0.4218 -0.5251  0.1187
  134OSM   H11A14505   3.247   0.362   6.524  0.6430  1.0186  1.1340
  134OSM   H11B14506   3.288   0.200   6.577  0.7310 -0.5538 -0.4306
  134OSM      P14507   3.506   0.446   6.462  0.1730  0.1443 -0.0550
  134OSM    O1314508   3.577   0.526   6.561 -0.4642 -0.1117  0.3271
  134OSM    O1414509   3.580   0.399   6.343 -0.1553  0.0705 -0.0651
  134OSM    O1114510   3.377   0.526   6.416  0.7267 -0.5193  0.5308
  134OSM    O1214511   3.447   0.319   6.537  0.1893 -0.0305  0.0195
  134OSM    C1S14512   3.332   0.552   6.285  0.0123  0.2688 -0.3738
  134OSM    H1S14513   3.283   0.459   6.250 -2.0086  1.3052 -0.4406
  134OSM    H1T14514   3.419   0.584   6.224  0.4791  0.1881  0.2381
  134OSM     NF14515   3.136   0.657   6.167  0.7551 -0.1483  0.0107
  134OSM    HNF14516   3.168   0.715   6.093 -1.6371  2.7466  1.0605
  134OSM    C2S14517   3.219   0.667   6.292 -0.1604  1.1362  0.1160
  134OSM    H2S14518   3.159   0.650   6.384  1.6761  0.4953  1.2464
  134OSM    C3S14519   3.287   0.799   6.333  1.2069 -0.1171 -0.6741
  134OSM    H3S14520   3.370   0.814   6.260  2.6619 -2.9097  0.2635
  134OSM     O314521   3.349   0.792   6.463  0.1239  0.1626 -0.5676
  134OSM    HO314522   3.362   0.697   6.469 -2.6481 -0.2494  0.6407
  134OSM    C4S14523   3.194   0.912   6.343  0.0288  0.6864  0.3995
  134OSM    H4S14524   3.123   0.895   6.426  1.5748 -2.1913  1.2581
  134OSM    C5S14525   3.177   1.021   6.266  0.2310 -0.0851  0.2631
  134OSM    H5S14526   3.246   1.032   6.181  0.2833 -0.8818  0.1994
  134OSM    C6S14527   3.071   1.127   6.284  0.4107 -0.6009  0.0023
  134OSM    H6S14528   3.117   1.220   6.324  0.1064 -1.7252  3.2485
  134OSM    H6T14529   2.989   1.089   6.349 -0.3005  0.3583 -0.2933
  134OSM    C7S14530   2.996   1.160   6.146 -0.7941  0.2996  0.6191
  134OSM    H7S14531   3.076   1.173   6.070 -0.0623  0.3388  1.3718
  134OSM    H7T14532   2.950   1.261   6.145 -0.8574  0.3018 -1.6777
  134OSM    C8S14533   2.905   1.044   6.108 -0.0573 -0.1393 -0.6126
  134OSM    H8S14534   2.813   1.071   6.164 -0.3728 -3.6346  0.7877
  134OSM    H8T14535   2.937   0.946   6.149 -2.0323 -1.1807 -1.4044
  134OSM    C9S14536   2.880   1.031   5.961  0.2631  0.1115 -0.6220
  134OSM    H9S14537   2.807   0.949   5.940 -0.8175  0.6547  0.7711
  134OSM    H9T14538   2.969   0.995   5.905 -0.6967 -1.5989 -1.1268
  134OSM   C10S14539   2.835   1.163   5.889  0.1826  0.2159  0.0247
  134OSM   H10S14540   2.908   1.247   5.893 -1.3712  1.7679 -2.0292
  134OSM   H10T14541   2.737   1.190   5.933 -0.0561 -2.2137  1.1409
  134OSM   C11S14542   2.814   1.141   5.736 -0.0901 -0.5457 -0.0420
  134OSM   H11S14543   2.745   1.057   5.713  1.1761 -2.0536  1.3549
  134OSM   H11T14544   2.913   1.116   5.693 -0.2504 -1.4057  0.0718
  134OSM   C12S14545   2.763   1.261   5.660  0.6989  0.4562  0.6515
  134OSM   H12S14546   2.824   1.353   5.673 -0.1818  0.7822  2.8371
  134OSM   H12T14547   2.658   1.283   5.688  0.9385  3.5077 -0.5041
  134OSM   C13S14548   2.744   1.238   5.512 -0.2360 -0.8625 -0.0477
  134OSM   H13S14549   2.671   1.308   5.467  1.8450  0.1127 -2.1220
  134OSM   H13T14550   2.705   1.134   5.506  0.3248 -1.1232  0.6680
  134OSM   C14S14551   2.862   1.259   5.424 -0.4376 -0.6161  0.3821
  134OSM   H14S14552   2.946   1.198   5.463 -1.4259 -0.9208  2.1303
  134OSM   H14T14553   2.889   1.367   5.421 -2.5325 -0.0245  1.2304
  134OSM   C15S14554   2.841   1.214   5.279 -0.0463 -0.4087 -0.0464
  134OSM   H15S14555   2.944   1.225   5.238 -1.0588  0.7859 -2.4641
  134OSM   H15T14556   2.766   1.278   5.228 -1.0792  0.9992  3.0195
  134OSM   C16S14557   2.810   1.055   5.260  0.7735  0.0791 -0.0902
  134OSM   H16S14558   2.715   1.042   5.315  1.1308  0.4260  0.6259
  134OSM   H16T14559   2.892   0.996   5.307  2.0900  0.0919 -2.2590
  134OSM   C17S14560   2.797   1.022   5.108  0.6925  0.4420  0.9026
  134OSM   H17S14561   2.895   1.054   5.066 -0.1876  0.0558 -1.6674
  134OSM   H17T14562   2.725   1.080   5.047  0.5603 -0.4615  0.1794
  134OSM   C18S14563   2.781   0.880   5.073  0.2224  0.2839  0.1674
  134OSM   H18S14564   2.869   0.821   5.109  0.0334  0.6057  1.1941
  134OSM   H18T14565   2.770   0.864   4.964 -0.3755 -0.1199  0.2809
  134OSM   H18U14566   2.687   0.838   5.115  1.5744 -1.0422  2.0368
  134OSM    C1F14567   3.050   0.560   6.146  0.2899  0.7594  0.8965
  134OSM     OF14568   3.034   0.464   6.225 -0.0681 -0.0765  0.1572
  134OSM    C2F14569   2.985   0.571   6.010 -0.3782 -0.0188  0.1373
  134OSM    H2F14570   3.061   0.520   5.947  0.5196  0.1217  1.0733
  134OSM    H2G14571   2.968   0.673   5.970 -0.2571 -0.5329 -1.2767
  134OSM    C3F14572   2.860   0.490   5.989 -0.4370  0.0724  0.1419
  134OSM    H3F14573   2.792   0.536   6.064  0.4030 -0.6699  1.4245
  134OSM    H3G14574   2.865   0.385   6.027 -0.4410  0.9729  2.8248
  134OSM    C4F14575   2.806   0.490   5.841  0.2595 -0.4543 -0.7576
  134OSM    H4F14576   2.802   0.594   5.802 -0.7058 -1.4663 -3.6404
  134OSM    H4G14577   2.703   0.450   5.854  0.3581 -0.5267 -0.1650
  134OSM    C5F14578   2.884   0.416   5.731  0.2938 -0.2193 -0.7197
  134OSM    H5F14579   2.909   0.317   5.775 -0.8406 -0.0554  0.3376
  134OSM    H5G14580   2.982   0.468   5.738 -0.1947  0.5134  1.0477
  134OSM    C6F14581   2.827   0.394   5.592  0.0658  0.3953  0.2408
  134OSM    H6F14582   2.718   0.379   5.601 -0.2502  1.1428 -1.9096
  134OSM    H6G14583   2.870   0.299   5.554 -1.3597 -0.1305 -0.1145
  134OSM    C7F14584   2.854   0.506   5.497 -0.4335  0.7442 -0.5548
  134OSM    H7F14585   2.964   0.518   5.489 -0.2713 -0.3383 -0.1653
  134OSM    H7G14586   2.809   0.605   5.520 -2.1937  0.1078 -1.0363
  134OSM    C8F14587   2.805   0.466   5.351 -0.1137 -0.4886 -0.4156
  134OSM    H8F14588   2.694   0.465   5.351 -0.1372 -1.6294  1.0067
  134OSM    H8G14589   2.819   0.357   5.334  0.4421 -0.4352 -0.3239
  134OSM    C9F14590   2.864   0.546   5.239  0.4776  0.7891 -0.1183
  134OSM    H9F14591   2.925   0.632   5.269  0.3946  0.6865  0.3606
  134OSM   C10F14592   2.828   0.536   5.112 -0.1785 -0.4003  0.1829
  134OSM   H10F14593   2.882   0.595   5.036  2.9934 -0.6454  2.0296
  134OSM   C11F14594   2.717   0.446   5.055 -0.0262 -0.1457  0.8544
  134OSM   H11F14595   2.623   0.437   5.114 -1.4437 -0.0714 -1.2721
  134OSM   H11G14596   2.764   0.346   5.040 -0.5712 -0.2525 -0.2744
  134OSM   C12F14597   2.671   0.482   4.914  1.0356 -0.1229 -0.0364
  134OSM   H12F14598   2.761   0.506   4.853  1.1718 -1.1462 -0.2565
  134OSM   H12G14599   2.612   0.575   4.927  1.8919  0.7179 -1.7436
  134OSM   C13F14600   2.583   0.383   4.836  0.5748  0.8233 -0.5005
  134OSM   H13F14601   2.479   0.398   4.871  0.1944 -2.4940  0.0900
  134OSM   H13G14602   2.614   0.281   4.868  1.2564  1.8237  2.3368
  134OSM   C14F14603   2.576   0.408   4.681  0.3715 -0.0967 -0.0756
  134OSM   H14F14604   2.677   0.394   4.636  0.7101  0.4793  0.4775
  134OSM   H14G14605   2.560   0.516   4.658 -1.6753 -0.8751 -2.8153
  134OSM   C15F14606   2.475   0.324   4.606 -0.1194  0.0376  0.5098
  134OSM   H15F14607   2.471   0.347   4.497  1.2100 -2.0383 -0.0562
  134OSM   H15G14608   2.377   0.345   4.653 -2.5269 -0.7928 -3.6751
  134OSM   C16F14609   2.496   0.175   4.605 -0.0429 -0.1397 -0.9918
  134OSM   H16F14610   2.473   0.136   4.706  2.6140 -0.6250 -0.5069
  134OSM   H16G14611   2.588   0.129   4.565 -1.2118 -3.0324 -0.6181
  134OSM   C17F14612   2.374   0.113   4.533  0.2309  0.0470  0.0038
  134OSM   H17F14613   2.379   0.133   4.424  3.0056  1.0289  0.2385
  134OSM   H17G14614   2.282   0.138   4.590  0.7188  2.9468 -0.3125
  134OSM   C18F14615   2.395  -0.046   4.543  0.1029  0.6610 -0.3617
  134OSM   H18F14616   2.306  -0.092   4.494  0.6490  3.5108 -4.6173
  134OSM   H18G14617   2.405  -0.084   4.647  1.2365 -0.3673 -0.8113
  134OSM   H18H14618   2.479  -0.089   4.484 -0.5417 -0.9933 -0.1278
  135OSM      N14619   3.642   6.170   6.996 -0.0065  0.3704 -0.8760
  135OSM    C1514620   3.642   6.022   7.026  0.0714 -0.5691  0.5104
  135OSM   H15A14621   3.632   6.006   7.132  0.5522 -0.2357  0.6072
  135OSM   H15B14622   3.733   5.969   7.003  0.5957  0.2562  0.6465
  135OSM   H15C14623   3.559   5.970   6.979  0.6023 -0.0241 -1.1016
  135OSM    C1414624   3.520   6.239   7.045 -0.3972 -0.1167 -0.1173
  135OSM   H14A14625   3.499   6.325   6.983 -1.6478 -0.5801 -0.3658
  135OSM   H14B14626   3.524   6.273   7.147 -0.9054  0.1066 -0.1712
  135OSM   H14C14627   3.439   6.168   7.037 -0.8757  0.3432  0.5618
  135OSM    C1314628   3.762   6.238   7.048  1.2402  0.6850  0.0808
  135OSM   H13A14629   3.771   6.340   7.015 -0.8989  1.2339  1.0286
  135OSM   H13B14630   3.849   6.180   7.021 -0.8532 -3.2377  0.9499
  135OSM   H13C14631   3.750   6.252   7.155 -1.5058 -0.9207  0.0886
  135OSM    C1214632   3.648   6.186   6.841 -0.5319  0.0921  0.7629
  135OSM   H12A14633   3.739   6.136   6.813 -1.4679 -0.6406 -1.1509
  135OSM   H12B14634   3.660   6.289   6.812 -0.2865 -0.3536 -0.7755
  135OSM    C1114635   3.534   6.131   6.754  0.6449 -0.0294 -0.5006
  135OSM   H11A14636   3.563   6.122   6.647  1.1977 -0.0389 -0.3501
  135OSM   H11B14637   3.458   6.212   6.761  0.3862 -0.3913  1.4314
  135OSM      P14638   3.324   5.997   6.830  0.2423  0.1506  0.2791
  135OSM    O1314639   3.286   5.860   6.860 -0.3376  0.1045  0.2055
  135OSM    O1414640   3.290   6.090   6.939  0.0746 -0.3164  0.4608
  135OSM    O1114641   3.257   6.043   6.694 -0.4046 -0.5775 -0.3809
  135OSM    O1214642   3.481   6.007   6.802  0.8186 -0.0124  0.7575
  135OSM    C1S14643   3.291   5.965   6.582  0.2810 -0.1747  0.7917
  135OSM    H1S14644   3.255   5.862   6.603  1.1416 -0.4449  0.9963
  135OSM    H1T14645   3.401   5.971   6.562  0.3528 -2.1435  0.3646
  135OSM     NF14646   3.246   5.905   6.342  0.1552  0.0633 -0.2458
  135OSM    HNF14647   3.322   5.919   6.279 -0.6084  1.7343 -0.8694
  135OSM    C2S14648   3.225   6.012   6.449  0.2507  0.1584  0.0146
  135OSM    H2S14649   3.117   6.003   6.469 -0.0404  0.4236 -1.3386
  135OSM    C3S14650   3.267   6.153   6.424 -0.2258  0.2016  0.1888
  135OSM    H3S14651   3.375   6.147   6.397  0.2077  3.1358  0.9949
  135OSM     O314652   3.280   6.240   6.534 -0.5905 -0.0288 -0.3491
  135OSM    HO314653   3.276   6.191   6.616  0.0305  0.6121  0.0746
  135OSM    C4S14654   3.206   6.209   6.298  0.9189  0.0919  0.2089
  135OSM    H4S14655   3.263   6.209   6.204 -2.0665  0.6411 -1.7409
  135OSM    C5S14656   3.083   6.271   6.291  0.8508 -0.2343  0.3966
  135OSM    H5S14657   3.029   6.282   6.387  0.8812 -2.0788  0.6559
  135OSM    C6S14658   3.016   6.336   6.171 -0.2981  0.2298 -0.2760
  135OSM    H6S14659   2.981   6.435   6.207  0.7688  0.8420 -0.8945
  135OSM    H6T14660   2.916   6.291   6.153  0.0886 -0.6535 -0.2833
  135OSM    C7S14661   3.082   6.377   6.038  0.0565 -0.2709 -0.7792
  135OSM    H7S14662   3.091   6.279   5.986 -4.0463 -1.6971  0.8054
  135OSM    H7T14663   3.177   6.418   6.080 -1.7309  0.3754  3.0345
  135OSM    C8S14664   3.018   6.485   5.948 -0.4321  0.7134 -0.4732
  135OSM    H8S14665   3.041   6.585   5.989  3.3186 -0.4936  0.8154
  135OSM    H8T14666   2.910   6.465   5.959 -0.4869  0.7394 -0.9554
  135OSM    C9S14667   3.055   6.478   5.801 -0.6909 -0.2241 -0.1068
  135OSM    H9S14668   2.997   6.556   5.747 -0.7933  1.8720  2.8242
  135OSM    H9T14669   3.032   6.376   5.764  0.0421  0.4392 -2.5951
  135OSM   C10S14670   3.202   6.525   5.768  0.2660 -0.5272  1.0232
  135OSM   H10S14671   3.276   6.450   5.804 -1.8128 -4.1393 -1.4863
  135OSM   H10T14672   3.217   6.622   5.819 -1.9587  0.2490  0.3242
  135OSM   C11S14673   3.247   6.534   5.618 -0.4891  0.1273  0.1019
  135OSM   H11S14674   3.349   6.579   5.610  0.0366 -1.3097 -2.0150
  135OSM   H11T14675   3.167   6.578   5.554 -1.4937 -0.1726  1.1259
  135OSM   C12S14676   3.250   6.393   5.551 -0.7193 -1.2185 -1.2789
  135OSM   H12S14677   3.148   6.350   5.562 -0.8849 -1.3300 -2.9154
  135OSM   H12T14678   3.314   6.339   5.624 -0.6966 -0.2583 -0.5671
  135OSM   C13S14679   3.304   6.379   5.414 -0.2497  0.2408 -0.0074
  135OSM   H13S14680   3.261   6.289   5.367  1.4016 -0.6647  0.1490
  135OSM   H13T14681   3.410   6.347   5.413 -0.6927 -1.5150  2.1500
  135OSM   C14S14682   3.300   6.506   5.330  0.2085 -0.0636 -0.2121
  135OSM   H14S14683   3.375   6.574   5.375 -0.5641 -1.6602  3.9068
  135OSM   H14T14684   3.205   6.563   5.334  0.3191  0.5025 -3.3582
  135OSM   C15S14685   3.337   6.462   5.191 -0.3882 -0.4856  0.1004
  135OSM   H15S14686   3.261   6.388   5.158 -0.9381  0.2287 -0.2624
  135OSM   H15T14687   3.437   6.417   5.180 -0.2121 -0.3851  1.1889
  135OSM   C16S14688   3.335   6.578   5.090  0.9088  0.0112 -0.3435
  135OSM   H16S14689   3.426   6.630   5.126 -1.0119  2.4417  1.3667
  135OSM   H16T14690   3.251   6.648   5.110  1.9820  1.1667  0.2600
  135OSM   C17S14691   3.354   6.535   4.938 -0.0350 -0.3963 -0.7497
  135OSM   H17S14692   3.258   6.489   4.907  0.2407 -1.8913  0.4818
  135OSM   H17T14693   3.436   6.462   4.927  0.5527 -0.0370  0.9332
  135OSM   C18S14694   3.387   6.654   4.837  0.1241  0.2298 -0.4089
  135OSM   H18S14695   3.346   6.751   4.874 -1.6323 -0.3878 -0.6405
  135OSM   H18T14696   3.346   6.629   4.737  1.2015 -1.9305 -0.3619
  135OSM   H18U14697   3.495   6.654   4.810 -0.3416 -3.0746 -2.9777
  135OSM    C1F14698   3.174   5.786   6.335 -0.6337 -0.4696  0.2438
  135OSM     OF14699   3.094   5.744   6.418 -0.9225 -0.0868  0.0885
  135OSM    C2F14700   3.236   5.690   6.229 -0.4182  0.2277 -0.2823
  135OSM    H2F14701   3.232   5.590   6.277  0.4136  0.5352  0.4519
  135OSM    H2G14702   3.343   5.719   6.222 -0.7806  2.0089  1.0265
  135OSM    C3F14703   3.178   5.699   6.088  0.3672  0.4854  0.4016
  135OSM    H3F14704   3.074   5.669   6.113 -0.1519  0.6848 -1.3762
  135OSM    H3G14705   3.230   5.622   6.027 -0.5963 -0.0010  0.1742
  135OSM    C4F14706   3.202   5.835   6.028 -0.5111  0.8614 -0.2828
  135OSM    H4F14707   3.127   5.902   6.075 -0.7385  0.7629 -0.5044
  135OSM    H4G14708   3.307   5.864   6.046  0.0584 -0.7951 -0.7445
  135OSM    C5F14709   3.172   5.838   5.881 -0.0487  0.2725 -0.3591
  135OSM    H5F14710   3.070   5.796   5.871  0.2089 -0.0546 -1.8415
  135OSM    H5G14711   3.241   5.777   5.819 -0.5623 -0.2100 -0.4630
  135OSM    C6F14712   3.199   5.971   5.823 -0.3158  0.0344  0.5258
  135OSM    H6F14713   3.307   5.988   5.800 -0.6116  0.8036 -0.4075
  135OSM    H6G14714   3.162   6.054   5.887  0.1483 -0.9190  2.0761
  135OSM    C7F14715   3.135   5.986   5.679  0.5210  0.6261  0.0838
  135OSM    H7F14716   3.131   6.095   5.655 -0.1128  0.5712 -0.0896
  135OSM    H7G14717   3.032   5.943   5.680  1.4347 -1.8801  3.6491
  135OSM    C8F14718   3.212   5.919   5.564 -0.4530 -0.1251 -0.0773
  135OSM    H8F14719   3.225   5.809   5.568 -2.5651 -0.4449 -0.9179
  135OSM    H8G14720   3.313   5.965   5.554 -1.1872  1.5594 -0.1280
  135OSM    C9F14721   3.128   5.946   5.436  0.5649 -1.4244  0.0094
  135OSM    H9F14722   3.021   5.919   5.440  0.6500 -1.6883  0.5992
  135OSM   C10F14723   3.171   5.993   5.316 -0.6803  0.1143  0.0800
  135OSM   H10F14724   3.099   6.000   5.232  0.5218 -1.2155 -1.1372
  135OSM   C11F14725   3.314   6.033   5.270  0.5111  0.5927  0.2059
  135OSM   H11F14726   3.379   6.050   5.358 -0.2571 -0.3655  0.9960
  135OSM   H11G14727   3.310   6.125   5.209 -1.4343  1.4468  1.5114
  135OSM   C12F14728   3.375   5.921   5.180 -0.1337  0.2589  0.0515
  135OSM   H12F14729   3.313   5.886   5.095 -0.3170  2.4178 -0.7803
  135OSM   H12G14730   3.409   5.835   5.241  0.6463  0.8934  0.5240
  135OSM   C13F14731   3.504   5.971   5.119  0.2702 -0.3968  0.7348
  135OSM   H13F14732   3.566   5.887   5.080  1.0068  1.1247 -1.5414
  135OSM   H13G14733   3.564   6.023   5.197 -1.4140 -0.0590  1.8795
  135OSM   C14F14734   3.498   6.081   5.008 -0.1726  0.3209  0.9692
  135OSM   H14F14735   3.600   6.085   4.964 -0.3105  0.9030  0.6954
  135OSM   H14G14736   3.467   6.182   5.043  2.4590  1.5316  0.0494
  135OSM   C15F14737   3.398   6.040   4.898  0.4878 -0.6748  0.1768
  135OSM   H15F14738   3.294   6.035   4.936  0.1232 -0.5353 -0.7754
  135OSM   H15G14739   3.413   5.934   4.867 -3.2049 -0.7545 -2.0106
  135OSM   C16F14740   3.410   6.126   4.770  0.0084 -0.7489 -0.1200
  135OSM   H16F14741   3.502   6.102   4.713  1.8810  1.9193  1.5375
  135OSM   H16G14742   3.418   6.232   4.803  0.0044  0.0255 -2.4678
  135OSM   C17F14743   3.287   6.117   4.673  0.2091  0.6313 -0.2015
  135OSM   H17F14744   3.189   6.138   4.722 -0.2759  0.8571 -1.2449
  135OSM   H17G14745   3.278   6.008   4.655 -0.0301  0.3475  1.4528
  135OSM   C18F14746   3.303   6.201   4.546 -0.4196 -0.3878 -0.6900
  135OSM   H18F14747   3.285   6.306   4.578 -0.0787 -0.3895 -0.4823
  135OSM   H18G14748   3.236   6.166   4.465 -2.6598  1.4601  0.2758
  135OSM   H18H14749   3.406   6.191   4.506 -0.5606 -1.5723 -0.7934
  136OSM      N14750   0.017   1.570   6.937 -0.8969  0.2382 -0.6226
  136OSM    C1514751   0.035   1.702   7.003  0.9122 -0.2387 -0.3550
  136OSM   H15A14752  -0.048   1.729   7.065  0.0944 -2.3971 -0.4163
  136OSM   H15B14753   0.057   1.781   6.933 -0.6828 -0.2620 -0.9248
  136OSM   H15C14754   0.119   1.693   7.070  0.0424 -3.8114  0.4842
  136OSM    C1414755   0.146   1.536   6.863  0.4735  0.8271 -0.0499
  136OSM   H14A14756   0.116   1.465   6.788 -0.0407  0.6569  0.3163
  136OSM   H14B14757   0.214   1.499   6.939  1.1238 -0.9069 -1.4105
  136OSM   H14C14758   0.191   1.620   6.812 -1.7416  1.6529 -0.7464
  136OSM    C1314759  -0.013   1.468   7.034 -0.6550 -0.2950 -0.4657
  136OSM   H13A14760  -0.099   1.482   7.099 -0.7687  3.2757 -1.2091
  136OSM   H13B14761   0.062   1.459   7.111  0.2089  0.5965 -1.1895
  136OSM   H13C14762  -0.031   1.369   6.996 -3.0143 -0.2131  0.2545
  136OSM    C1214763  -0.093   1.582   6.836  0.2402  0.4951  0.8887
  136OSM   H12A14764  -0.098   1.681   6.791  0.2629  1.1151  2.1963
  136OSM   H12B14765  -0.176   1.576   6.904 -0.3697 -2.5761  0.0330
  136OSM    C1114766  -0.111   1.472   6.726 -0.9077  0.7783 -0.2907
  136OSM   H11A14767  -0.025   1.468   6.655 -1.4986  0.1466 -0.9794
  136OSM   H11B14768  -0.197   1.500   6.662 -0.1871  0.2037 -1.5458
  136OSM      P14769  -0.253   1.267   6.804 -0.4668  0.1194  0.3283
  136OSM    O1314770  -0.224   1.134   6.863 -0.2281  0.0601  0.0278
  136OSM    O1414771  -0.337   1.359   6.880 -1.0733  0.4456  0.0406
  136OSM    O1114772  -0.318   1.256   6.656  0.2083  0.7622 -0.2900
  136OSM    O1214773  -0.119   1.340   6.774  0.2531  0.5787  0.0464
  136OSM    C1S14774  -0.260   1.151   6.571 -0.7841 -0.4055  0.0980
  136OSM    H1S14775  -0.284   1.053   6.617  1.2685 -0.8491  0.3222
  136OSM    H1T14776  -0.151   1.163   6.552 -0.5068 -1.2320  1.0795
  136OSM     NF14777  -0.246   1.056   6.346  0.1483  0.6774 -0.2490
  136OSM    HNF14778  -0.187   1.103   6.282  0.8125 -0.7452 -0.7360
  136OSM    C2S14779  -0.324   1.144   6.431  0.4002  1.0048  0.5144
  136OSM    H2S14780  -0.427   1.102   6.440  1.0150 -0.3831  1.4931
  136OSM    C3S14781  -0.327   1.285   6.363 -0.0774  0.4212 -0.2191
  136OSM    H3S14782  -0.222   1.313   6.342  0.2802 -0.4796  0.3297
  136OSM     O314783  -0.383   1.398   6.441 -0.0902  0.6434  0.2219
  136OSM    HO314784  -0.376   1.352   6.525  1.1473 -0.7531 -0.6040
  136OSM    C4S14785  -0.390   1.274   6.229 -0.3384  0.2236 -0.5734
  136OSM    H4S14786  -0.319   1.246   6.150 -0.4479 -1.8618  0.0201
  136OSM    C5S14787  -0.521   1.294   6.205  0.3901 -0.0215  0.4360
  136OSM    H5S14788  -0.586   1.337   6.283 -0.2719 -0.4616  0.1366
  136OSM    C6S14789  -0.592   1.287   6.071 -0.3917  0.0113  0.4233
  136OSM    H6S14790  -0.617   1.391   6.041 -1.8700 -0.3940  0.2006
  136OSM    H6T14791  -0.689   1.233   6.073  0.4065 -1.4925  0.1747
  136OSM    C7S14792  -0.513   1.212   5.959 -0.2683  0.2003 -0.4031
  136OSM    H7S14793  -0.502   1.104   5.982  0.5132  0.1585 -0.9430
  136OSM    H7T14794  -0.415   1.264   5.947 -1.6493  2.6892 -1.7212
  136OSM    C8S14795  -0.582   1.227   5.829  0.4335 -0.3536 -0.8704
  136OSM    H8S14796  -0.641   1.321   5.827 -2.1012 -1.8478 -1.4551
  136OSM    H8T14797  -0.656   1.144   5.825  0.7391 -0.6742 -0.1664
  136OSM    C9S14798  -0.482   1.202   5.708 -0.1586 -0.2104 -0.0849
  136OSM    H9S14799  -0.461   1.093   5.694  1.0991 -0.0743  0.5458
  136OSM    H9T14800  -0.388   1.256   5.731 -1.3183  1.2453  1.4594
  136OSM   C10S14801  -0.534   1.257   5.579 -0.1806  0.7306  1.0549
  136OSM   H10S14802  -0.559   1.365   5.591 -0.3392  1.2061 -2.4985
  136OSM   H10T14803  -0.620   1.198   5.540  0.6985 -0.5153  0.9692
  136OSM   C11S14804  -0.422   1.250   5.463  0.1034  0.5109  0.5686
  136OSM   H11S14805  -0.356   1.164   5.488  0.6456  0.9893  0.8029
  136OSM   H11T14806  -0.361   1.341   5.480  2.2760 -0.7144 -0.1532
  136OSM   C12S14807  -0.476   1.250   5.323 -0.5099 -0.0012 -0.0417
  136OSM   H12S14808  -0.535   1.343   5.310 -0.8203 -0.2486 -0.4155
  136OSM   H12T14809  -0.541   1.163   5.300 -1.1955 -0.0391  1.8492
  136OSM   C13S14810  -0.366   1.237   5.220 -0.2566 -0.5694  0.1162
  136OSM   H13S14811  -0.303   1.146   5.229  3.0745  1.6679  1.0518
  136OSM   H13T14812  -0.280   1.306   5.230 -0.6468 -0.1150  0.3992
  136OSM   C14S14813  -0.430   1.242   5.082 -0.1743  0.3633  0.6589
  136OSM   H14S14814  -0.513   1.169   5.077  1.0621 -1.1780  1.5970
  136OSM   H14T14815  -0.356   1.204   5.008 -0.1152 -1.5387  1.6288
  136OSM   C15S14816  -0.472   1.381   5.028 -1.3127 -0.7549 -0.5622
  136OSM   H15S14817  -0.396   1.455   5.060  0.7388 -2.3220 -1.5887
  136OSM   H15T14818  -0.564   1.402   5.087  1.0368 -0.9650  3.5550
  136OSM   C16S14819  -0.509   1.391   4.887 -0.0097 -0.0411  0.4217
  136OSM   H16S14820  -0.414   1.382   4.831 -0.2090 -1.0334  0.2115
  136OSM   H16T14821  -0.553   1.492   4.872  0.5436  0.1894  0.3575
  136OSM   C17S14822  -0.602   1.294   4.829 -0.6940  0.4040 -0.1994
  136OSM   H17S14823  -0.704   1.312   4.871 -1.2682  0.4781 -1.5760
  136OSM   H17T14824  -0.570   1.193   4.862 -0.7162  1.2114  2.5337
  136OSM   C18S14825  -0.626   1.301   4.680  0.1725  0.0330  0.0225
  136OSM   H18S14826  -0.685   1.215   4.641  0.8026 -0.5189  0.2763
  136OSM   H18T14827  -0.539   1.310   4.611  1.2657 -0.8944  1.2399
  136OSM   H18U14828  -0.682   1.395   4.660 -1.8139 -1.0166  0.3036
  136OSM    C1F14829  -0.244   0.921   6.360 -0.4472  0.1465 -0.0560
  136OSM     OF14830  -0.329   0.871   6.436  0.2095 -0.6544  0.3159
  136OSM    C2F14831  -0.133   0.847   6.296  0.0369  0.3432 -0.0801
  136OSM    H2F14832  -0.053   0.853   6.374 -0.5091 -0.4395  0.5552
  136OSM    H2G14833  -0.100   0.910   6.210  0.3061 -0.3371 -0.4837
  136OSM    C3F14834  -0.167   0.702   6.268  0.0704 -0.3434 -0.1232
  136OSM    H3F14835  -0.256   0.695   6.203 -0.5296  0.0903  0.6344
  136OSM    H3G14836  -0.192   0.663   6.369 -1.2960  1.4578  0.2790
  136OSM    C4F14837  -0.049   0.640   6.193  0.1046 -0.2737  0.4846
  136OSM    H4F14838  -0.061   0.531   6.177 -0.6016 -0.6341  3.0178
  136OSM    H4G14839   0.023   0.647   6.277 -1.2840  0.3253  1.6491
  136OSM    C5F14840  -0.006   0.717   6.064  0.1840  0.1032 -0.1307
  136OSM    H5F14841  -0.075   0.796   6.028 -0.8460 -0.6175  0.2208
  136OSM    H5G14842  -0.007   0.640   5.983 -3.0653 -0.2632  0.1443
  136OSM    C6F14843   0.131   0.774   6.067 -0.1848 -0.4314 -0.0298
  136OSM    H6F14844   0.143   0.823   6.166 -0.3341  0.6587 -0.5406
  136OSM    H6G14845   0.139   0.848   5.985 -1.2717  3.0720  2.7675
  136OSM    C7F14846   0.239   0.666   6.047  0.2044  0.0595  0.0877
  136OSM    H7F14847   0.237   0.600   6.136  1.4027 -0.4502 -0.2386
  136OSM    H7G14848   0.340   0.712   6.053 -0.3963  1.7398 -1.7900
  136OSM    C8F14849   0.250   0.592   5.909  0.3574 -0.0029 -0.5396
  136OSM    H8F14850   0.153   0.541   5.892 -1.6109  2.5170  2.1365
  136OSM    H8G14851   0.316   0.504   5.900  0.5309  0.2470 -1.9621
  136OSM    C9F14852   0.280   0.697   5.799 -0.5128  1.0276  0.0585
  136OSM    H9F14853   0.380   0.740   5.816 -0.3369  1.1263 -1.1098
  136OSM   C10F14854   0.203   0.739   5.692  0.2808  0.7112  0.6257
  136OSM   H10F14855   0.237   0.816   5.621 -2.4722  1.4134 -0.0573
  136OSM   C11F14856   0.071   0.670   5.648 -0.4226 -1.1655  0.0954
  136OSM   H11F14857  -0.009   0.721   5.591 -0.5087 -1.0262  0.3415
  136OSM   H11G14858   0.010   0.636   5.734  0.5777 -0.2522  1.2074
  136OSM   C12F14859   0.108   0.545   5.559 -0.6362 -0.5885 -0.7071
  136OSM   H12F14860   0.013   0.502   5.520 -0.0861 -2.2805 -0.2514
  136OSM   H12G14861   0.159   0.468   5.620 -1.9080 -0.7627  0.1882
  136OSM   C13F14862   0.189   0.599   5.436 -0.0561 -0.0372  0.3957
  136OSM   H13F14863   0.207   0.499   5.390  1.1239  0.1169  0.4811
  136OSM   H13G14864   0.290   0.637   5.462 -0.2778  1.6062 -0.9505
  136OSM   C14F14865   0.113   0.707   5.351  0.1859  0.2301 -0.5639
  136OSM   H14F14866   0.083   0.802   5.401  1.5212  1.2965 -1.7023
  136OSM   H14G14867   0.023   0.648   5.325  1.1236 -1.3352 -0.3793
  136OSM   C15F14868   0.184   0.737   5.216  0.7223  0.1263 -0.1730
  136OSM   H15F14869   0.202   0.636   5.173  1.7403  0.8373 -1.4651
  136OSM   H15G14870   0.278   0.794   5.236  0.5642 -0.4899  2.8734
  136OSM   C16F14871   0.086   0.816   5.120 -0.3397  0.0272  0.2500
  136OSM   H16F14872   0.055   0.908   5.174  1.2453  0.1476  1.0145
  136OSM   H16G14873  -0.005   0.758   5.094 -0.7576 -0.7675  3.1513
  136OSM   C17F14874   0.143   0.851   4.983  0.5161  0.1898 -0.4632
  136OSM   H17F14875   0.077   0.917   4.922  2.5836 -0.0089 -3.0812
  136OSM   H17G14876   0.140   0.755   4.927 -1.6386 -0.7411  1.0680
  136OSM   C18F14877   0.280   0.922   4.971  0.6266  0.3092 -0.4441
  136OSM   H18F14878   0.351   0.874   5.041 -0.0067 -0.6992 -0.4663
  136OSM   H18G14879   0.277   1.027   5.009  0.2513  0.4437 -0.8359
  136OSM   H18H14880   0.322   0.914   4.869  0.2549 -0.8772 -0.5219
  137OSM      N14881   1.881   6.514   6.909  0.0008  0.3528 -0.2157
  137OSM    C1514882   1.949   6.623   6.987  0.0940  0.4298  0.5946
  137OSM   H15A14883   1.991   6.689   6.912  0.1093 -0.1874  0.0548
  137OSM   H15B14884   2.031   6.590   7.049  1.7935 -0.2922 -1.8754
  137OSM   H15C14885   1.878   6.680   7.044  0.3671  0.0115  1.3695
  137OSM    C1414886   1.825   6.417   7.007  0.0881  0.1224  0.3613
  137OSM   H14A14887   1.741   6.446   7.067  1.2171 -0.7742  2.4682
  137OSM   H14B14888   1.902   6.390   7.077  1.2696  0.6770 -0.6836
  137OSM   H14C14889   1.797   6.334   6.944  1.6755 -1.2326  1.3628
  137OSM    C1314890   1.776   6.587   6.835  0.6305  0.5081 -0.1049
  137OSM   H13A14891   1.720   6.650   6.902  0.3719  1.4369 -1.1684
  137OSM   H13B14892   1.701   6.518   6.797  0.6401  0.4094  0.0541
  137OSM   H13C14893   1.816   6.649   6.756  0.7582  0.0207 -0.4281
  137OSM    C1214894   1.974   6.455   6.808  0.6091 -0.6464 -0.9568
  137OSM   H12A14895   2.006   6.542   6.753 -2.5036 -0.0524 -2.0248
  137OSM   H12B14896   1.921   6.390   6.739 -1.1051 -0.0545 -0.2403
  137OSM    C1114897   2.095   6.362   6.856 -0.6583 -0.3639 -0.7236
  137OSM   H11A14898   2.158   6.426   6.922  3.0740 -1.8462 -2.5001
  137OSM   H11B14899   2.159   6.337   6.769 -0.2785  1.3702 -0.9694
  137OSM      P14900   1.982   6.116   6.873  0.4111  0.1988  0.1473
  137OSM    O1314901   1.998   6.002   6.966 -0.0543  0.2065  0.1926
  137OSM    O1414902   1.843   6.149   6.838 -0.2370  0.0458 -0.7212
  137OSM    O1114903   2.059   6.078   6.742  0.3140 -0.1310  0.0540
  137OSM    O1214904   2.062   6.244   6.933 -0.1553 -0.1335  0.0679
  137OSM    C1S14905   2.031   5.972   6.651  0.3183  0.4593 -0.1867
  137OSM    H1S14906   1.984   5.886   6.703 -2.1807  1.5287 -0.5284
  137OSM    H1T14907   2.121   5.930   6.602  0.1712  0.3003 -0.3200
  137OSM     NF14908   1.946   5.903   6.431  0.1488  0.5106 -0.0626
  137OSM    HNF14909   2.020   5.890   6.366  1.5613  1.5777  1.2921
  137OSM    C2S14910   1.965   6.014   6.521  0.3063 -0.5945  0.3767
  137OSM    H2S14911   1.863   6.052   6.547  1.2614  1.8422  0.8828
  137OSM    C3S14912   2.023   6.144   6.447  0.2946  0.5531  0.4353
  137OSM    H3S14913   2.127   6.125   6.412 -0.4627  0.0750 -1.6466
  137OSM     O314914   2.018   6.264   6.535 -0.4202 -0.3660  0.1771
  137OSM    HO314915   2.026   6.238   6.627  0.1590  0.7964  0.4868
  137OSM    C4S14916   1.951   6.186   6.321  0.1312 -0.0506 -0.0790
  137OSM    H4S14917   1.843   6.205   6.333 -0.1818  0.1254 -2.7003
  137OSM    C5S14918   2.011   6.189   6.200  0.8489  0.5616 -0.6990
  137OSM    H5S14919   2.118   6.164   6.192  0.4952 -0.5318 -2.6451
  137OSM    C6S14920   1.947   6.256   6.082  0.1003  0.2181  0.5251
  137OSM    H6S14921   1.987   6.358   6.060 -0.9045  0.5028 -0.0580
  137OSM    H6T14922   1.836   6.262   6.093  0.2695  0.2385  2.8043
  137OSM    C7S14923   1.968   6.162   5.960 -0.2783 -0.2085  0.4278
  137OSM    H7S14924   1.940   6.055   5.970  2.4948 -0.9980  0.7878
  137OSM    H7T14925   2.076   6.170   5.935 -0.0822 -0.2217  1.2502
  137OSM    C8S14926   1.904   6.210   5.829  0.9683 -0.8512  0.7068
  137OSM    H8S14927   1.926   6.313   5.795  0.4900 -0.7847  0.5834
  137OSM    H8T14928   1.793   6.207   5.831  0.9230 -2.3356 -1.4666
  137OSM    C9S14929   1.950   6.128   5.714 -0.8500 -0.0674 -0.1391
  137OSM    H9S14930   1.919   6.023   5.730 -1.5294 -0.0644 -1.3324
  137OSM    H9T14931   2.061   6.132   5.707 -0.8036 -0.1456  0.5105
  137OSM   C10S14932   1.898   6.182   5.586  0.5193 -0.2492  0.6038
  137OSM   H10S14933   1.935   6.286   5.573  0.2194 -0.4796 -3.0166
  137OSM   H10T14934   1.787   6.183   5.587  0.5114  0.1133  2.1335
  137OSM   C11S14935   1.951   6.124   5.449  0.0049  0.1452 -0.0594
  137OSM   H11S14936   1.912   6.021   5.434  0.9162 -0.1677 -0.3988
  137OSM   H11T14937   2.062   6.119   5.443 -0.0302 -0.4880 -0.2224
  137OSM   C12S14938   1.909   6.215   5.331  0.3808 -0.1451 -0.0913
  137OSM   H12S14939   1.945   6.317   5.359  0.2394 -0.3806  1.0035
  137OSM   H12T14940   1.798   6.218   5.335  0.4008  0.0279  2.6250
  137OSM   C13S14941   1.950   6.171   5.192  0.3318  0.1802 -0.1892
  137OSM   H13S14942   2.061   6.181   5.195  0.3088  0.5410 -0.6338
  137OSM   H13T14943   1.899   6.241   5.123 -1.3894 -1.0879 -0.2750
  137OSM   C14S14944   1.901   6.030   5.150  0.0534  0.0946 -0.2278
  137OSM   H14S14945   1.793   6.022   5.171  0.3143  0.1312  1.2565
  137OSM   H14T14946   1.952   5.952   5.211  1.5381  1.7534  0.7714
  137OSM   C15S14947   1.947   6.004   5.004 -0.8830  0.1172 -0.1227
  137OSM   H15S14948   2.058   6.013   4.999 -0.8525 -0.4519 -0.5286
  137OSM   H15T14949   1.898   6.081   4.940  0.3622  0.6037 -0.5213
  137OSM   C16S14950   1.912   5.872   4.942  0.5494  0.0149 -0.3233
  137OSM   H16S14951   2.003   5.810   4.955  0.3705  0.0603  1.2472
  137OSM   H16T14952   1.891   5.876   4.833  0.4586 -0.9885 -0.3544
  137OSM   C17S14953   1.802   5.786   5.019 -0.4797  0.0459  0.0119
  137OSM   H17S14954   1.705   5.839   5.016 -0.3749  0.3795  1.4672
  137OSM   H17T14955   1.842   5.782   5.123  0.1989 -0.2569 -0.2512
  137OSM   C18S14956   1.802   5.646   4.962  0.4453 -0.5369  1.1280
  137OSM   H18S14957   1.901   5.598   4.949 -0.6873 -2.4318 -1.1677
  137OSM   H18T14958   1.758   5.659   4.861  2.2728 -0.9599  0.2542
  137OSM   H18U14959   1.749   5.561   5.010  0.0207 -1.4269 -0.8544
  137OSM    C1F14960   1.845   5.823   6.447  0.3957  0.9108  0.2308
  137OSM     OF14961   1.775   5.829   6.552  0.2955  0.4501 -0.5855
  137OSM    C2F14962   1.815   5.724   6.340 -0.5425 -0.1425  0.2022
  137OSM    H2F14963   1.720   5.674   6.368 -0.0560  0.0968  2.5067
  137OSM    H2G14964   1.899   5.653   6.323  0.4409  1.1731 -0.6042
  137OSM    C3F14965   1.799   5.798   6.209 -1.0667  0.3490 -0.0254
  137OSM    H3F14966   1.888   5.861   6.189 -1.3422 -0.1965 -3.6324
  137OSM    H3G14967   1.713   5.867   6.197 -0.2710  1.2603 -0.6542
  137OSM    C4F14968   1.789   5.688   6.093  1.0230 -0.4823  0.3197
  137OSM    H4F14969   1.712   5.614   6.124 -1.2001  0.9779 -1.4288
  137OSM    H4G14970   1.894   5.650   6.098  2.6138  3.6036  3.2192
  137OSM    C5F14971   1.767   5.744   5.952  1.0875  0.6675 -0.0655
  137OSM    H5F14972   1.860   5.798   5.925 -0.3667  2.6727 -1.2562
  137OSM    H5G14973   1.682   5.815   5.946  0.4072 -0.1911 -1.0360
  137OSM    C6F14974   1.734   5.637   5.847  0.3261 -0.4996 -0.0885
  137OSM    H6F14975   1.639   5.586   5.872  0.7611 -1.4343 -0.2610
  137OSM    H6G14976   1.816   5.562   5.851 -0.9077 -1.8123  2.2822
  137OSM    C7F14977   1.733   5.701   5.700 -0.0567 -0.9076  0.0145
  137OSM    H7F14978   1.836   5.743   5.689  0.3482 -1.5179  1.2260
  137OSM    H7G14979   1.667   5.790   5.700 -0.6386 -1.3377  0.4405
  137OSM    C8F14980   1.699   5.599   5.603  0.6822 -0.4795 -0.2700
  137OSM    H8F14981   1.594   5.575   5.629  0.1796 -0.6405 -2.2449
  137OSM    H8G14982   1.748   5.502   5.627 -0.5280 -0.5397  2.2821
  137OSM    C9F14983   1.717   5.643   5.462  0.3289 -0.4974 -0.5580
  137OSM    H9F14984   1.807   5.701   5.434  0.5497  1.0348  2.8795
  137OSM   C10F14985   1.641   5.603   5.360  0.9988  0.6780  0.7033
  137OSM   H10F14986   1.671   5.656   5.268  1.1913  1.2726  1.1071
  137OSM   C11F14987   1.511   5.519   5.360 -0.1305  0.4803  0.4016
  137OSM   H11F14988   1.440   5.573   5.426  0.8708  3.2472 -0.6809
  137OSM   H11G14989   1.537   5.421   5.406  2.0601  1.1527  0.6966
  137OSM   C12F14990   1.451   5.512   5.222 -0.1554  0.0646 -0.1887
  137OSM   H12F14991   1.365   5.443   5.232  0.3848 -0.5363  0.4131
  137OSM   H12G14992   1.515   5.461   5.146  0.0147  2.6874 -1.9491
  137OSM   C13F14993   1.401   5.650   5.162  0.0840  0.6389 -1.0431
  137OSM   H13F14994   1.488   5.720   5.169  0.0317  0.6068  0.1827
  137OSM   H13G14995   1.311   5.682   5.218 -0.3335 -2.2406  0.0790
  137OSM   C14F14996   1.374   5.637   5.016  0.5814 -0.8343 -0.8001
  137OSM   H14F14997   1.311   5.545   5.007 -0.5044  0.0046 -2.1635
  137OSM   H14G14998   1.469   5.613   4.963  0.3812 -2.3560 -0.5332
  137OSM   C15F14999   1.303   5.756   4.952  0.0491 -0.5295 -0.2550
  137OSM   H15F15000   1.362   5.848   4.934 -1.8827  1.0769  1.0774
  137OSM   H15G15001   1.226   5.786   5.026  1.9714 -0.1825  1.7061
  137OSM   C16F15002   1.230   5.719   4.819  0.1037 -0.6778 -0.6053
  137OSM   H16F15003   1.162   5.634   4.841 -0.8088 -0.1157 -1.1805
  137OSM   H16G15004   1.308   5.680   4.750 -0.2172  1.7193 -2.4591
  137OSM   C17F15005   1.144   5.830   4.764  0.0965 -0.4352 -0.4357
  137OSM   H17F15006   1.210   5.915   4.738 -0.9658 -0.0552 -1.9732
  137OSM   H17G15007   1.079   5.873   4.843  2.7208  1.6003  0.7878
  137OSM   C18F15008   1.063   5.782   4.641 -0.5059  0.4522  0.0652
  137OSM   H18F15009   0.989   5.859   4.612 -0.5390  0.8213  1.0979
  137OSM   H18G15010   1.010   5.691   4.676 -1.4188 -0.1301 -2.5524
  137OSM   H18H15011   1.130   5.753   4.557 -0.5840 -2.3923  0.8714
  138OSM      N15012   6.476   6.502   6.794  0.7228  0.0275  0.9503
  138OSM    C1515013   6.494   6.452   6.937  0.3818  0.1009 -0.1138
  138OSM   H15A15014   6.542   6.528   6.996  1.7503 -0.3067 -0.6484
  138OSM   H15B15015   6.558   6.365   6.935 -1.6504 -1.5242  1.1910
  138OSM   H15C15016   6.399   6.416   6.974  0.2008 -0.3655 -0.9812
  138OSM    C1415017   6.597   6.478   6.712  0.2092  0.0169 -0.0531
  138OSM   H14A15018   6.613   6.372   6.701  1.2610  0.0239  1.1169
  138OSM   H14B15019   6.692   6.518   6.746  0.7799  1.6556 -3.2314
  138OSM   H14C15020   6.575   6.503   6.610  0.6902 -0.7476 -0.3515
  138OSM    C1315021   6.368   6.425   6.723  0.0553 -0.1160 -0.0720
  138OSM   H13A15022   6.410   6.326   6.715 -0.4837 -0.2331 -1.8692
  138OSM   H13B15023   6.378   6.446   6.617  2.2873 -0.0548  0.0926
  138OSM   H13C15024   6.275   6.440   6.775 -0.0980 -3.1397  0.6988
  138OSM    C1215025   6.443   6.652   6.806  0.0151 -1.0137 -0.2076
  138OSM   H12A15026   6.349   6.673   6.853 -0.9308 -1.1157 -1.9705
  138OSM   H12B15027   6.436   6.693   6.706  1.5189  1.1813  0.5091
  138OSM    C1115028   6.545   6.742   6.890 -0.6195 -0.5206  0.2532
  138OSM   H11A15029   6.576   6.705   6.990  0.5283  0.1393  0.1474
  138OSM   H11B15030   6.497   6.840   6.910 -0.8195 -0.4397 -0.5814
  138OSM      P15031   6.694   6.895   6.748  0.0217  0.1234 -0.1501
  138OSM    O1315032   6.565   6.952   6.702 -0.4001 -0.2624  0.2455
  138OSM    O1415033   6.763   6.980   6.845  0.4070 -0.5446 -0.1309
  138OSM    O1115034   6.782   6.855   6.624  0.0885  0.4952 -0.2683
  138OSM    O1215035   6.665   6.755   6.813 -1.1173  0.2001 -0.8273
  138OSM    C1S15036   6.719   6.792   6.520 -0.2815  0.3811  0.0656
  138OSM    H1S15037   6.672   6.863   6.448 -0.9047 -2.5277 -2.6195
  138OSM    H1T15038   6.649   6.715   6.559  0.2102  0.5283  1.2883
  138OSM     NF15039   6.745   6.663   6.317  0.7214 -0.1136 -0.1686
  138OSM    HNF15040   6.709   6.571   6.329  0.0864 -0.2249 -2.4146
  138OSM    C2S15041   6.819   6.712   6.427 -0.2418 -0.0417 -0.2709
  138OSM    H2S15042   6.904   6.775   6.394  2.1788 -2.5461  0.7508
  138OSM    C3S15043   6.893   6.599   6.509 -0.6725  0.4419  0.1770
  138OSM    H3S15044   6.815   6.531   6.549  0.7041 -1.0936  0.3654
  138OSM     O315045   6.969   6.660   6.617 -0.2753 -0.1874 -0.0008
  138OSM    HO315046   6.920   6.737   6.646  0.8557 -0.3573  2.6624
  138OSM    C4S15047   6.984   6.521   6.422 -0.9579 -0.1910 -0.3014
  138OSM    H4S15048   7.068   6.578   6.378 -1.1940 -0.1992 -0.7672
  138OSM    C5S15049   6.967   6.388   6.399 -0.2936  0.2148 -0.1187
  138OSM    H5S15050   6.873   6.344   6.435  0.4674 -0.1868  1.4440
  138OSM    C6S15051   7.052   6.299   6.309  0.1896  0.0239 -1.2169
  138OSM    H6S15052   7.006   6.202   6.281  1.4437 -0.5245 -1.4312
  138OSM    H6T15053   7.143   6.273   6.367  0.5237  0.6261 -1.4603
  138OSM    C7S15054   7.089   6.370   6.172 -0.8080 -0.6975 -0.3151
  138OSM    H7S15055   7.188   6.336   6.134 -0.4164  0.4575 -0.3716
  138OSM    H7T15056   7.113   6.475   6.201  0.5603 -1.2126  0.5536
  138OSM    C8S15057   6.985   6.359   6.065 -0.5499  0.5552  0.1794
  138OSM    H8S15058   6.887   6.388   6.110 -0.5584  2.0392 -0.7129
  138OSM    H8T15059   6.974   6.252   6.039  1.7952  0.5711 -1.1109
  138OSM    C9S15060   7.008   6.439   5.933 -0.3319  0.0031  0.4907
  138OSM    H9S15061   7.106   6.398   5.899 -0.9359  0.0089 -1.3586
  138OSM    H9T15062   7.014   6.544   5.969  0.3024 -0.5563  2.1343
  138OSM   C10S15063   6.918   6.418   5.816  0.7096  0.4101 -0.4963
  138OSM   H10S15064   6.817   6.434   5.858  0.1715 -2.9360 -0.2309
  138OSM   H10T15065   6.909   6.314   5.777 -2.5776  0.0500  0.9016
  138OSM   C11S15066   6.936   6.518   5.701 -0.0573  0.6797 -0.1969
  138OSM   H11S15067   6.914   6.617   5.747  2.1799  0.8164  0.6777
  138OSM   H11T15068   6.857   6.488   5.629  0.4950 -2.2239  0.3167
  138OSM   C12S15069   7.072   6.501   5.629  0.2031 -0.4440  0.1135
  138OSM   H12S15070   7.072   6.403   5.577  0.0802 -0.7197  0.6269
  138OSM   H12T15071   7.160   6.514   5.696  0.2935  1.3460 -0.2947
  138OSM   C13S15072   7.090   6.601   5.511  0.6974  0.2986  0.1119
  138OSM   H13S15073   7.097   6.704   5.552 -4.2476  1.2548 -0.8858
  138OSM   H13T15074   7.001   6.601   5.446  0.8122 -0.7644 -0.0602
  138OSM   C14S15075   7.210   6.574   5.413 -0.2744 -0.1146  0.1648
  138OSM   H14S15076   7.211   6.464   5.396 -1.6933  0.0222 -1.0265
  138OSM   H14T15077   7.313   6.610   5.433 -0.1457  0.0030 -0.6624
  138OSM   C15S15078   7.173   6.622   5.269  0.1738 -0.6740 -1.0312
  138OSM   H15S15079   7.171   6.733   5.265 -0.5516 -0.5682  1.0783
  138OSM   H15T15080   7.067   6.592   5.255  0.4967 -1.7815 -1.2079
  138OSM   C16S15081   7.278   6.584   5.178 -0.3184  0.2379 -0.5069
  138OSM   H16S15082   7.320   6.483   5.200  0.5972  0.9962  1.4651
  138OSM   H16T15083   7.365   6.649   5.199 -0.7687  0.7979 -0.3660
  138OSM   C17S15084   7.229   6.583   5.033  0.2421  1.0081 -0.0038
  138OSM   H17S15085   7.150   6.505   5.022 -0.1573  1.4990 -0.7607
  138OSM   H17T15086   7.323   6.569   4.976  0.6331  3.4648 -0.0603
  138OSM   C18S15087   7.158   6.707   4.999  0.0780 -0.8240  0.9102
  138OSM   H18S15088   7.075   6.725   5.070 -1.3363  1.4413 -1.1446
  138OSM   H18T15089   7.107   6.705   4.900 -0.1832  0.5266  0.9876
  138OSM   H18U15090   7.218   6.800   4.989 -0.4450 -0.3783  1.7233
  138OSM    C1F15091   6.701   6.734   6.209 -0.4082 -0.3228 -0.1344
  138OSM     OF15092   6.732   6.853   6.188  0.2895 -0.5182  0.1830
  138OSM    C2F15093   6.592   6.668   6.136 -0.7580  0.7659  0.2453
  138OSM    H2F15094   6.498   6.725   6.155 -0.2521  1.1708  1.7010
  138OSM    H2G15095   6.572   6.566   6.174 -0.3030  1.4991  2.6431
  138OSM    C3F15096   6.605   6.660   5.986  0.8170  0.0709  0.2697
  138OSM    H3F15097   6.508   6.617   5.953 -0.3939  1.2643  2.1204
  138OSM    H3G15098   6.682   6.581   5.966  0.7767 -0.0027  0.4039
  138OSM    C4F15099   6.609   6.784   5.898  0.1346 -0.3435 -0.1326
  138OSM    H4F15100   6.712   6.825   5.909  0.1331 -0.1371 -0.8364
  138OSM    H4G15101   6.535   6.865   5.918 -0.4128 -0.8186 -0.2210
  138OSM    C5F15102   6.602   6.732   5.751  0.6960 -0.3075 -0.1004
  138OSM    H5F15103   6.631   6.625   5.744  1.8517 -0.0578  0.5926
  138OSM    H5G15104   6.671   6.802   5.698  0.4013  0.6770  0.8003
  138OSM    C6F15105   6.462   6.734   5.695  0.3222 -0.4231 -0.0419
  138OSM    H6F15106   6.405   6.811   5.752 -2.5770 -2.1805 -0.3202
  138OSM    H6G15107   6.419   6.633   5.715  0.4812 -0.7109 -1.0914
  138OSM    C7F15108   6.463   6.766   5.544 -0.0289  0.2494  0.0764
  138OSM    H7F15109   6.535   6.842   5.507 -1.4310  1.7436  0.2686
  138OSM    H7G15110   6.362   6.810   5.528 -0.0555 -0.1332 -0.8472
  138OSM    C8F15111   6.443   6.636   5.449 -0.7484  0.0405 -0.2660
  138OSM    H8F15112   6.381   6.660   5.360  0.0911 -1.5122 -1.3036
  138OSM    H8G15113   6.376   6.577   5.515 -0.4678  0.0049 -0.0091
  138OSM    C9F15114   6.581   6.568   5.417  1.1059 -0.2910 -1.1820
  138OSM    H9F15115   6.629   6.528   5.507 -1.5221  1.6172  1.2366
  138OSM   C10F15116   6.632   6.555   5.298 -0.3984 -0.0910  0.1933
  138OSM   H10F15117   6.727   6.501   5.288 -0.2348  0.4431 -1.3723
  138OSM   C11F15118   6.590   6.618   5.169 -0.2760  0.5796  0.4504
  138OSM   H11F15119   6.492   6.669   5.180 -1.3272 -1.1658 -0.3909
  138OSM   H11G15120   6.576   6.531   5.102 -1.0804 -2.4428  4.2083
  138OSM   C12F15121   6.704   6.691   5.092 -0.0330  0.1541  0.7221
  138OSM   H12F15122   6.794   6.627   5.077  0.1571  0.7140 -0.5972
  138OSM   H12G15123   6.747   6.774   5.152  2.7018 -0.5962 -0.0624
  138OSM   C13F15124   6.652   6.745   4.957  0.0086  0.0954  0.1315
  138OSM   H13F15125   6.746   6.793   4.922  0.6902 -1.5060 -0.3557
  138OSM   H13G15126   6.570   6.818   4.969 -0.0980 -0.1558  1.0003
  138OSM   C14F15127   6.615   6.645   4.844  0.1036 -0.0883  0.3993
  138OSM   H14F15128   6.642   6.541   4.874  2.8823 -0.0317 -1.5273
  138OSM   H14G15129   6.676   6.666   4.754 -0.8378 -2.6758 -0.9419
  138OSM   C15F15130   6.472   6.635   4.814  0.5270 -0.8562 -0.4177
  138OSM   H15F15131   6.433   6.732   4.777 -0.1028 -1.5880 -1.7207
  138OSM   H15G15132   6.404   6.614   4.900 -0.6447 -0.6628 -1.2679
  138OSM   C16F15133   6.435   6.533   4.695 -0.7975 -0.4600 -0.0215
  138OSM   H16F15134   6.511   6.538   4.614 -1.2868 -0.4827 -0.4872
  138OSM   H16G15135   6.336   6.563   4.654 -1.6937 -3.2704 -0.0893
  138OSM   C17F15136   6.419   6.387   4.734  0.1877 -0.7631 -0.3345
  138OSM   H17F15137   6.329   6.373   4.797  0.6964  1.2178  0.9425
  138OSM   H17G15138   6.505   6.360   4.799  1.9981  0.0192 -2.2681
  138OSM   C18F15139   6.417   6.297   4.618  0.0292 -0.1868  0.0820
  138OSM   H18F15140   6.469   6.331   4.526 -1.0823 -0.7924 -0.7974
  138OSM   H18G15141   6.310   6.310   4.589 -0.9500  1.2125  3.7261
  138OSM   H18H15142   6.429   6.192   4.651 -0.5351 -0.3435 -0.1945
  139OSM      N15143   1.043   2.576   6.637  0.4120  0.2493 -0.0227
  139OSM    C1515144   0.963   2.687   6.577 -0.4059  0.2604 -0.1571
  139OSM   H15A15145   0.959   2.771   6.644  2.2268 -0.0611  0.4926
  139OSM   H15B15146   0.860   2.657   6.563  0.0812 -2.7218  1.8598
  139OSM   H15C15147   0.997   2.716   6.478 -2.8030 -0.2373 -1.1912
  139OSM    C1415148   1.170   2.646   6.678 -0.4631  0.2629  0.2773
  139OSM   H14A15149   1.152   2.717   6.758 -0.9985 -0.0851  0.4736
  139OSM   H14B15150   1.229   2.691   6.600  0.1891 -1.3266 -0.1973
  139OSM   H14C15151   1.238   2.578   6.728 -0.9710  0.8641  1.8716
  139OSM    C1315152   0.968   2.527   6.752  0.0896  0.2646 -0.1250
  139OSM   H13A15153   0.867   2.495   6.730 -0.2707  1.4296 -0.1908
  139OSM   H13B15154   0.967   2.604   6.827  2.3877  1.2402 -1.0107
  139OSM   H13C15155   1.014   2.448   6.810  0.8151  1.6727  1.2810
  139OSM    C1215156   1.058   2.458   6.550  0.8067  0.5255  0.0546
  139OSM   H12A15157   1.092   2.368   6.599 -0.6978  0.2242  0.6057
  139OSM   H12B15158   1.131   2.485   6.475  0.7707  0.7980  0.1172
  139OSM    C1115159   0.928   2.410   6.481 -1.1001  0.5330  0.1328
  139OSM   H11A15160   0.892   2.486   6.409 -1.1359 -2.5396 -3.4254
  139OSM   H11B15161   0.847   2.404   6.557 -1.1311 -0.6055  0.0376
  139OSM      P15162   0.945   2.155   6.489  0.3419  0.4940  0.1098
  139OSM    O1315163   1.058   2.154   6.580 -0.2815 -0.5163 -0.4543
  139OSM    O1415164   0.813   2.143   6.547  0.4917  0.1076 -0.5514
  139OSM    O1115165   0.964   2.053   6.380  0.2363 -0.6685 -0.0667
  139OSM    O1215166   0.948   2.288   6.408  0.1770 -0.2087  0.0075
  139OSM    C1S15167   0.858   2.020   6.289  0.2482 -0.3367  0.2824
  139OSM    H1S15168   0.758   2.024   6.337 -0.9557 -1.4230 -1.9712
  139OSM    H1T15169   0.873   1.916   6.252  1.2703  0.4309 -1.5900
  139OSM     NF15170   0.754   2.061   6.066  0.2494 -1.1176  0.2386
  139OSM    HNF15171   0.768   2.009   5.982  1.5104  2.9603 -2.3993
  139OSM    C2S15172   0.860   2.108   6.156 -0.8832 -0.2240  0.0887
  139OSM    H2S15173   0.830   2.211   6.187 -1.0528 -0.6200  1.2623
  139OSM    C3S15174   1.000   2.128   6.096 -0.1557  0.2817 -0.2468
  139OSM    H3S15175   1.031   2.021   6.092  2.4370  0.9276  1.0032
  139OSM     O315176   1.090   2.211   6.169 -0.1256  0.0116 -0.0822
  139OSM    HO315177   1.053   2.243   6.251 -1.5296  0.2557 -0.7942
  139OSM    C4S15178   0.991   2.186   5.958 -0.2492 -0.0017 -0.5733
  139OSM    H4S15179   0.934   2.281   5.960 -0.1421  0.0994 -1.8083
  139OSM    C5S15180   1.029   2.142   5.838  0.5353  0.6030  0.5084
  139OSM    H5S15181   1.086   2.048   5.828  1.0093  1.0202 -0.7700
  139OSM    C6S15182   0.996   2.211   5.713 -0.1780  0.2178 -0.1206
  139OSM    H6S15183   0.891   2.197   5.680 -0.4959 -1.2218  1.3487
  139OSM    H6T15184   1.060   2.165   5.635 -0.0645  1.8987 -1.0840
  139OSM    C7S15185   1.033   2.364   5.705 -0.2138  0.1174  0.0385
  139OSM    H7S15186   1.140   2.376   5.733 -0.4056 -1.5801  1.7447
  139OSM    H7T15187   0.968   2.416   5.779 -3.1839 -1.5432 -1.2160
  139OSM    C8S15188   0.990   2.424   5.575 -0.3498  0.6857 -0.7064
  139OSM    H8S15189   0.888   2.391   5.544  0.7870 -4.0113 -0.2330
  139OSM    H8T15190   1.054   2.367   5.504 -0.1021 -0.2011  0.2114
  139OSM    C9S15191   1.005   2.575   5.566  0.1598 -0.3493 -0.4758
  139OSM    H9S15192   1.112   2.592   5.543  0.5153 -0.4966  1.0000
  139OSM    H9T15193   0.989   2.617   5.668  1.2465 -0.0501 -0.4215
  139OSM   C10S15194   0.906   2.639   5.467  0.4618  0.1090 -0.4446
  139OSM   H10S15195   0.805   2.628   5.510 -0.3633  1.3442 -1.9447
  139OSM   H10T15196   0.911   2.588   5.368 -1.0128  0.8308 -0.9156
  139OSM   C11S15197   0.941   2.790   5.459  0.6079  0.1967 -0.2282
  139OSM   H11S15198   1.037   2.791   5.403  1.8142 -1.9992  1.5980
  139OSM   H11T15199   0.950   2.837   5.559 -3.9981 -1.4182  1.2229
  139OSM   C12S15200   0.819   2.873   5.403 -1.4869  0.4681 -0.1632
  139OSM   H12S15201   0.729   2.863   5.467 -1.1282  3.3110  0.9257
  139OSM   H12T15202   0.796   2.827   5.304  0.3108 -0.4323 -0.1943
  139OSM   C13S15203   0.848   3.025   5.384  0.3241  0.1879 -1.1530
  139OSM   H13S15204   0.946   3.033   5.334  2.0702  0.4154  2.0061
  139OSM   H13T15205   0.875   3.074   5.481  1.3736 -0.0089 -1.3392
  139OSM   C14S15206   0.723   3.084   5.316  0.1085 -0.1020 -0.2647
  139OSM   H14S15207   0.736   3.193   5.299  0.1046 -0.5251 -3.7503
  139OSM   H14T15208   0.637   3.063   5.383  0.8924 -1.8425  0.2611
  139OSM   C15S15209   0.699   3.027   5.176 -0.1492  0.0451  0.1909
  139OSM   H15S15210   0.633   2.938   5.185 -1.5432  1.0854  0.5222
  139OSM   H15T15211   0.789   2.999   5.116 -0.1615  0.3839  0.0133
  139OSM   C16S15212   0.634   3.120   5.065 -0.6333  0.2802 -0.3365
  139OSM   H16S15213   0.698   3.196   5.016 -0.4677  0.4372  0.1118
  139OSM   H16T15214   0.540   3.168   5.101 -1.4640 -2.3393  1.3394
  139OSM   C17S15215   0.579   3.034   4.952  0.6630 -0.3046  0.0876
  139OSM   H17S15216   0.506   3.089   4.889 -0.2680 -1.3729  0.2103
  139OSM   H17T15217   0.513   2.950   4.984 -1.1090  0.9820 -0.0581
  139OSM   C18S15218   0.680   2.987   4.850  0.0537 -0.6758 -0.1360
  139OSM   H18S15219   0.610   2.937   4.780  0.2319 -1.2394  0.0822
  139OSM   H18T15220   0.761   2.919   4.882  1.4159  0.7227 -0.4548
  139OSM   H18U15221   0.724   3.068   4.787  1.0020 -2.1041 -1.3643
  139OSM    C1F15222   0.627   2.096   6.094  0.4521  0.2159  0.1019
  139OSM     OF15223   0.597   2.146   6.202  0.6172 -0.3721 -0.4197
  139OSM    C2F15224   0.516   2.041   6.007  0.9169  0.1458  0.1139
  139OSM    H2F15225   0.448   1.983   6.073  0.1431  1.5729  0.6250
  139OSM    H2G15226   0.552   1.958   5.942 -0.3233 -1.0348  0.8841
  139OSM    C3F15227   0.423   2.134   5.934  0.4374  0.0451  0.2550
  139OSM    H3F15228   0.367   2.200   6.003 -1.9772 -2.8383  1.2860
  139OSM    H3G15229   0.344   2.077   5.879 -0.6108  1.9766 -0.3090
  139OSM    C4F15230   0.489   2.233   5.835 -0.2111 -0.8929 -0.0317
  139OSM    H4F15231   0.573   2.292   5.879 -0.4871 -0.1891 -0.4375
  139OSM    H4G15232   0.417   2.315   5.817  1.3368  0.7972  1.1858
  139OSM    C5F15233   0.547   2.162   5.713  0.3965  0.0382 -0.6281
  139OSM    H5F15234   0.474   2.086   5.678  1.2678  0.1875 -3.0127
  139OSM    H5G15235   0.637   2.107   5.749 -1.9798 -2.7347  1.5983
  139OSM    C6F15236   0.589   2.263   5.605  0.7904  0.4753  0.5342
  139OSM    H6F15237   0.672   2.328   5.641  1.7929  0.4701 -1.6114
  139OSM    H6G15238   0.492   2.315   5.587 -0.1815 -1.2083  0.7115
  139OSM    C7F15239   0.637   2.206   5.473 -0.1215 -0.2549 -0.4440
  139OSM    H7F15240   0.582   2.118   5.434 -1.8912 -0.0172  1.3709
  139OSM    H7G15241   0.738   2.166   5.497 -0.7661 -2.2599 -0.8971
  139OSM    C8F15242   0.657   2.324   5.370 -0.5039  0.0979 -0.5717
  139OSM    H8F15243   0.722   2.286   5.288  0.7608  0.4154  0.2552
  139OSM    H8G15244   0.710   2.408   5.419 -1.5606 -1.1603  3.0788
  139OSM    C9F15245   0.526   2.368   5.318 -0.5028 -0.6909 -0.8736
  139OSM    H9F15246   0.441   2.331   5.377  0.5907  1.4745  2.3020
  139OSM   C10F15247   0.495   2.458   5.222 -0.2702  0.1599 -0.2692
  139OSM   H10F15248   0.387   2.463   5.198 -0.2149 -0.1153 -0.5943
  139OSM   C11F15249   0.593   2.524   5.128 -0.0014  0.6272 -0.2581
  139OSM   H11F15250   0.693   2.475   5.128 -0.1009  0.2114  2.8110
  139OSM   H11G15251   0.613   2.626   5.165  1.3279  0.8971 -1.6115
  139OSM   C12F15252   0.547   2.523   4.978  0.0566 -0.0569  0.0866
  139OSM   H12F15253   0.524   2.420   4.942 -1.3944  0.5869 -0.9624
  139OSM   H12G15254   0.619   2.573   4.910  0.3699 -1.4928 -0.6724
  139OSM   C13F15255   0.402   2.578   4.958 -0.6158  0.1473  0.5043
  139OSM   H13F15256   0.413   2.688   4.969 -0.3127 -0.1183  4.2407
  139OSM   H13G15257   0.336   2.531   5.034 -0.3169 -0.5713  0.3304
  139OSM   C14F15258   0.346   2.557   4.813  0.9004 -0.3060 -0.4696
  139OSM   H14F15259   0.329   2.448   4.801 -0.4878 -0.2135  0.4343
  139OSM   H14G15260   0.417   2.589   4.734  0.4322  0.8656 -0.4267
  139OSM   C15F15261   0.213   2.631   4.795  0.5244 -0.5616 -0.1053
  139OSM   H15F15262   0.226   2.741   4.806  1.6707 -0.6244 -0.6535
  139OSM   H15G15263   0.133   2.594   4.862  1.0774  3.5069  3.1528
  139OSM   C16F15264   0.159   2.597   4.655  0.4558  0.9189  1.0289
  139OSM   H16F15265   0.152   2.487   4.644 -1.5356  1.1544 -0.9086
  139OSM   H16G15266   0.222   2.641   4.575  2.1573 -1.5762  0.9059
  139OSM   C17F15267   0.012   2.642   4.630 -0.4475  0.4592 -0.0491
  139OSM   H17F15268   0.015   2.750   4.654 -0.1469  0.5942 -0.6623
  139OSM   H17G15269  -0.069   2.599   4.692 -0.9927  2.7537  0.9461
  139OSM   C18F15270  -0.035   2.612   4.490 -0.2877 -0.3673 -0.1886
  139OSM   H18F15271  -0.058   2.507   4.460  1.1007 -0.3329 -1.4815
  139OSM   H18G15272   0.039   2.644   4.414  0.5902  0.7553  1.1058
  139OSM   H18H15273  -0.119   2.674   4.451 -0.3655  1.6069  2.7979
  140OSM      N15274   1.726   0.320   7.315 -0.4170  0.2140 -0.5725
  140OSM    C1515275   1.823   0.204   7.329  0.0752 -0.8913  0.1831
  140OSM   H15A15276   1.853   0.166   7.232  0.4896  2.1084 -0.9632
  140OSM   H15B15277   1.776   0.115   7.368  0.7199 -1.3211 -0.0010
  140OSM   H15C15278   1.907   0.227   7.393  0.0220 -0.4017  0.0847
  140OSM    C1415279   1.665   0.366   7.450 -0.0457 -0.0798  0.6111
  140OSM   H14A15280   1.739   0.406   7.518  0.3388  0.9131 -0.3686
  140OSM   H14B15281   1.606   0.287   7.495 -0.1699 -1.4625 -1.8058
  140OSM   H14C15282   1.592   0.438   7.417  1.0926 -0.6099 -3.7347
  140OSM    C1315283   1.799   0.442   7.272  0.4937 -0.1954  0.7903
  140OSM   H13A15284   1.876   0.474   7.340  2.0303  0.5197 -1.1918
  140OSM   H13B15285   1.737   0.530   7.274 -0.3622 -0.7278 -0.5339
  140OSM   H13C15286   1.829   0.418   7.171 -3.1302 -0.3294 -0.4023
  140OSM    C1215287   1.609   0.278   7.224  0.3331  0.1791  0.5161
  140OSM   H12A15288   1.548   0.367   7.233  0.6951  0.2895  2.2425
  140OSM   H12B15289   1.547   0.199   7.263  0.2035 -0.8443 -1.6594
  140OSM    C1115290   1.631   0.239   7.079  0.0001 -0.6593 -0.4993
  140OSM   H11A15291   1.708   0.308   7.040  1.3522 -1.6249  0.3727
  140OSM   H11B15292   1.535   0.240   7.023  0.7225 -0.6608 -1.7703
  140OSM      P15293   1.636  -0.015   7.070 -0.2047  0.3065  0.1133
  140OSM    O1315294   1.715  -0.125   7.124  0.1971  0.6137 -0.0636
  140OSM    O1415295   1.499  -0.011   7.119  0.4090 -0.5970 -0.2109
  140OSM    O1115296   1.623  -0.042   6.911  0.3966 -0.2196  0.4568
  140OSM    O1215297   1.711   0.122   7.085 -0.0284  0.6259  0.8887
  140OSM    C1S15298   1.697   0.050   6.820  0.1300 -0.8167  0.2252
  140OSM    H1S15299   1.805   0.051   6.845  0.1543 -0.7911  0.1207
  140OSM    H1T15300   1.670   0.156   6.838 -2.0676 -1.2522 -0.1713
  140OSM     NF15301   1.786   0.103   6.597  0.2538  0.4560 -0.4530
  140OSM    HNF15302   1.745   0.177   6.545 -2.3193  0.5580  1.5068
  140OSM    C2S15303   1.686   0.017   6.668  0.5306 -0.2887  0.1321
  140OSM    H2S15304   1.715  -0.090   6.667 -0.2210 -0.5190 -2.2540
  140OSM    C3S15305   1.543   0.029   6.614 -0.0664 -0.1599 -0.0072
  140OSM    H3S15306   1.520   0.136   6.593  0.0733  0.0775  0.9895
  140OSM     O315307   1.442  -0.010   6.707  0.2076  0.7882  0.0164
  140OSM    HO315308   1.497  -0.029   6.784  0.1953 -1.8158 -0.5253
  140OSM    C4S15309   1.528  -0.051   6.484 -0.2309 -0.5965 -0.5680
  140OSM    H4S15310   1.562  -0.155   6.480  2.8104  0.3343 -1.7198
  140OSM    C5S15311   1.460  -0.005   6.379 -0.1703  0.0785  0.2834
  140OSM    H5S15312   1.402   0.088   6.388 -0.0960  0.1818 -0.2992
  140OSM    C6S15313   1.453  -0.078   6.248 -0.7120 -0.1120 -0.2609
  140OSM    H6S15314   1.474  -0.011   6.162  1.0388  0.0891  0.2920
  140OSM    H6T15315   1.348  -0.109   6.225 -0.6737 -0.0837 -0.4754
  140OSM    C7S15316   1.540  -0.198   6.218 -0.0342 -0.2450  0.0959
  140OSM    H7S15317   1.496  -0.281   6.276 -0.9046  0.1023 -0.0601
  140OSM    H7T15318   1.650  -0.188   6.236  0.1528 -0.3456 -0.9151
  140OSM    C8S15319   1.530  -0.250   6.069 -0.0296 -1.0709 -0.2829
  140OSM    H8S15320   1.581  -0.174   6.007  2.4347 -2.0594  0.4254
  140OSM    H8T15321   1.422  -0.264   6.046  0.0369 -0.5194 -0.9294
  140OSM    C9S15322   1.597  -0.386   6.043 -0.9599 -0.4001  0.3865
  140OSM    H9S15323   1.552  -0.467   6.106 -0.6595 -0.3438  0.6768
  140OSM    H9T15324   1.703  -0.381   6.074 -1.3248  0.3580  1.6331
  140OSM   C10S15325   1.595  -0.428   5.901 -0.6068 -0.1699  0.0880
  140OSM   H10S15326   1.487  -0.432   5.879 -0.4880 -0.2236 -0.5004
  140OSM   H10T15327   1.623  -0.535   5.894 -0.7479 -0.2298  0.4294
  140OSM   C11S15328   1.669  -0.344   5.801 -0.5085  0.4386 -0.1573
  140OSM   H11S15329   1.778  -0.342   5.827 -0.7304  0.1963  0.8353
  140OSM   H11T15330   1.624  -0.242   5.803 -0.1213  0.6654 -1.8560
  140OSM   C12S15331   1.659  -0.389   5.656 -0.3130 -0.2613  0.5188
  140OSM   H12S15332   1.550  -0.371   5.644  0.0486  1.4654 -0.5947
  140OSM   H12T15333   1.677  -0.498   5.644  0.7424 -0.1035  0.6238
  140OSM   C13S15334   1.743  -0.308   5.556  0.1062  0.6402  0.3052
  140OSM   H13S15335   1.853  -0.321   5.564  0.3297  0.6473 -2.1743
  140OSM   H13T15336   1.709  -0.203   5.571 -3.2287 -0.2741 -0.1582
  140OSM   C14S15337   1.708  -0.335   5.410  1.4031  0.0892  0.4472
  140OSM   H14S15338   1.597  -0.333   5.399  1.2160 -0.7561  1.9086
  140OSM   H14T15339   1.741  -0.439   5.391 -1.2186 -0.8922  0.8038
  140OSM   C15S15340   1.765  -0.228   5.319  0.0562  0.2423 -0.5860
  140OSM   H15S15341   1.874  -0.222   5.338 -0.2554  2.6341  0.8812
  140OSM   H15T15342   1.723  -0.127   5.342  3.3763  1.9176 -1.3265
  140OSM   C16S15343   1.746  -0.256   5.168 -0.2944  0.5609 -0.6971
  140OSM   H16S15344   1.641  -0.282   5.141  0.2909  0.0129 -2.5763
  140OSM   H16T15345   1.810  -0.340   5.135 -2.1007 -0.3511 -2.0561
  140OSM   C17S15346   1.787  -0.136   5.089  0.4045 -0.3367 -0.4972
  140OSM   H17S15347   1.898  -0.132   5.094  0.3743 -0.0936  0.0061
  140OSM   H17T15348   1.747  -0.046   5.141  1.4390  0.9476 -1.8277
  140OSM   C18S15349   1.743  -0.132   4.949 -0.3562  0.4045  0.1916
  140OSM   H18S15350   1.798  -0.214   4.899 -0.7595  0.0016  0.4038
  140OSM   H18T15351   1.780  -0.037   4.903  0.5457 -0.2748 -0.5082
  140OSM   H18U15352   1.633  -0.144   4.938 -0.3769 -0.6152  1.3883
  140OSM    C1F15353   1.920   0.091   6.619  0.6281 -0.3939  0.3410
  140OSM     OF15354   1.968  -0.006   6.677  0.3705 -0.2489  0.4253
  140OSM    C2F15355   2.012   0.198   6.559  0.1798  1.1049 -0.5552
  140OSM    H2F15356   2.034   0.257   6.651  2.0520  1.3543 -1.1249
  140OSM    H2G15357   1.957   0.271   6.496 -0.4331  2.4304  1.4090
  140OSM    C3F15358   2.128   0.142   6.493  0.8821 -0.8703  0.1901
  140OSM    H3F15359   2.193   0.092   6.569  0.7097  0.8098  1.5080
  140OSM    H3G15360   2.192   0.227   6.463 -0.1339  0.3401  1.3499
  140OSM    C4F15361   2.085   0.052   6.376 -0.3451 -0.1985  0.1636
  140OSM    H4F15362   2.030  -0.039   6.408 -0.5055 -0.5202 -0.9817
  140OSM    H4G15363   2.176   0.014   6.324  0.2650  0.8147  0.4607
  140OSM    C5F15364   2.004   0.119   6.266 -0.3863 -0.2948 -0.1958
  140OSM    H5F15365   2.069   0.200   6.226 -1.2745  0.3178 -0.4117
  140OSM    H5G15366   1.906   0.151   6.308 -0.0141 -0.1694  0.5856
  140OSM    C6F15367   1.975   0.015   6.158 -0.6268 -0.3304 -0.3477
  140OSM    H6F15368   1.927  -0.076   6.202 -0.0190 -1.1615 -1.3491
  140OSM    H6G15369   2.066  -0.018   6.103  0.2628 -0.4528  1.1325
  140OSM    C7F15370   1.880   0.067   6.058  0.0531  0.4743  0.6944
  140OSM    H7F15371   1.915   0.170   6.035 -3.9492  1.7612 -0.5378
  140OSM    H7G15372   1.775   0.083   6.092 -1.0159 -0.2039 -1.9913
  140OSM    C8F15373   1.871  -0.009   5.921  0.3266 -0.5372 -0.8332
  140OSM    H8F15374   1.840  -0.111   5.950  0.8001 -0.1800  1.0446
  140OSM    H8G15375   1.976  -0.030   5.888  1.1126 -1.1315  1.8410
  140OSM    C9F15376   1.773   0.024   5.816 -0.8813 -0.0239 -0.1777
  140OSM    H9F15377   1.671  -0.011   5.835 -0.3000 -1.5865  0.2276
  140OSM   C10F15378   1.809   0.071   5.699  0.2389 -0.2771 -0.1774
  140OSM   H10F15379   1.724   0.081   5.629 -2.1612 -2.1400  2.2291
  140OSM   C11F15380   1.948   0.122   5.661  0.4365  1.0008 -0.2982
  140OSM   H11F15381   2.019   0.037   5.659 -0.2554 -0.1979  5.8281
  140OSM   H11G15382   1.981   0.193   5.739  2.1289  0.5356 -0.5478
  140OSM   C12F15383   1.947   0.198   5.529 -0.1284  0.4226  0.3388
  140OSM   H12F15384   2.052   0.226   5.505 -0.0787 -1.1878 -1.6553
  140OSM   H12G15385   1.886   0.289   5.545 -1.0159 -0.1528  0.3511
  140OSM   C13F15386   1.889   0.131   5.406  0.4046 -0.1226 -0.0580
  140OSM   H13F15387   1.785   0.098   5.423  0.0939 -0.0442 -1.6218
  140OSM   H13G15388   1.964   0.050   5.395  0.6012  0.2745 -1.9488
  140OSM   C14F15389   1.905   0.203   5.266 -0.7903 -0.3479  0.5778
  140OSM   H14F15390   1.892   0.130   5.183 -1.8068  0.2504  0.1872
  140OSM   H14G15391   2.006   0.247   5.263 -0.6963 -0.4503  1.7775
  140OSM   C15F15392   1.807   0.325   5.236 -0.2924 -0.2518 -0.7087
  140OSM   H15F15393   1.846   0.374   5.144  0.2993 -0.8657 -0.7949
  140OSM   H15G15394   1.794   0.395   5.320 -2.1943 -0.8924 -0.4093
  140OSM   C16F15395   1.661   0.273   5.220  0.4820 -0.4851 -0.1910
  140OSM   H16F15396   1.624   0.226   5.313  1.3420 -0.0544  0.3870
  140OSM   H16G15397   1.657   0.206   5.131 -1.3916  0.9571 -1.2668
  140OSM   C17F15398   1.562   0.391   5.185 -0.3896 -0.0060  0.0693
  140OSM   H17F15399   1.562   0.461   5.271  0.6524  0.4133 -0.2574
  140OSM   H17G15400   1.466   0.337   5.172 -0.0415 -0.4770 -0.6195
  140OSM   C18F15401   1.589   0.464   5.049  0.0118 -0.4517  0.1275
  140OSM   H18F15402   1.691   0.506   5.059  0.0797 -0.3518 -0.8929
  140OSM   H18G15403   1.522   0.548   5.023 -1.2699 -1.9768 -1.7487
  140OSM   H18H15404   1.598   0.395   4.962 -0.3547 -2.0378  1.3018
  141OSM      N15405   1.245   0.487   6.881  0.0353  0.1048  0.3061
  141OSM    C1515406   1.290   0.443   7.018  0.3691 -0.0039  0.1665
  141OSM   H15A15407   1.283   0.335   7.016 -1.4504  0.0908 -0.5676
  141OSM   H15B15408   1.218   0.487   7.085 -0.3489  0.5855 -0.9586
  141OSM   H15C15409   1.391   0.480   7.028 -0.6729  3.3929 -0.4299
  141OSM    C1415410   1.120   0.404   6.854 -0.3432 -0.6715 -0.0693
  141OSM   H14A15411   1.143   0.304   6.822  0.6371 -0.5496  0.2321
  141OSM   H14B15412   1.056   0.444   6.777 -2.3647 -2.3079  0.6589
  141OSM   H14C15413   1.061   0.388   6.943 -2.6302  0.5316 -1.2703
  141OSM    C1315414   1.204   0.630   6.893  0.2543 -0.2646 -0.7886
  141OSM   H13A15415   1.165   0.673   6.802 -1.2144  1.7212  0.6970
  141OSM   H13B15416   1.292   0.679   6.931  0.3593 -0.5038 -0.7191
  141OSM   H13C15417   1.122   0.629   6.963  1.2282 -2.6060  0.4518
  141OSM    C1215418   1.348   0.469   6.775 -0.6217 -0.4542  0.3377
  141OSM   H12A15419   1.298   0.476   6.679 -0.9771  1.0887  0.6067
  141OSM   H12B15420   1.392   0.370   6.782  1.8618  0.4743 -0.9133
  141OSM    C1115421   1.468   0.564   6.763 -0.7566  0.0951 -0.2076
  141OSM   H11A15422   1.415   0.661   6.758 -2.6659 -0.7558  1.7792
  141OSM   H11B15423   1.523   0.536   6.670 -0.7398  2.5594 -1.0051
  141OSM      P15424   1.594   0.654   6.978 -0.2656  0.0357  0.1979
  141OSM    O1315425   1.480   0.696   7.059  0.6171 -0.4114 -0.2947
  141OSM    O1415426   1.716   0.604   7.050 -0.4858  0.3829 -0.7784
  141OSM    O1115427   1.630   0.780   6.886  0.2653  0.3684 -0.0753
  141OSM    O1215428   1.547   0.538   6.885 -0.0636 -0.0073  0.3254
  141OSM    C1S15429   1.745   0.773   6.796  0.2706 -0.2296  0.2675
  141OSM    H1S15430   1.807   0.684   6.819 -0.7433 -2.0563 -3.4052
  141OSM    H1T15431   1.808   0.860   6.824  1.3128 -0.7130 -0.5245
  141OSM     NF15432   1.850   0.774   6.573  0.1943  0.3946  0.2286
  141OSM    HNF15433   1.874   0.849   6.512 -1.3872  0.6666 -0.0876
  141OSM    C2S15434   1.719   0.777   6.639 -0.1676 -0.0321 -0.4828
  141OSM    H2S15435   1.659   0.686   6.615 -1.2343  0.6915 -0.6083
  141OSM    C3S15436   1.634   0.901   6.605 -0.5472 -0.3186 -0.3382
  141OSM    H3S15437   1.694   0.990   6.635 -1.5288  0.2546 -0.0311
  141OSM     O315438   1.523   0.916   6.690 -0.3599  0.3542 -0.3873
  141OSM    HO315439   1.551   0.854   6.757  2.4458  2.8078  0.8988
  141OSM    C4S15440   1.606   0.916   6.457 -0.8596  0.3495 -0.8783
  141OSM    H4S15441   1.677   0.989   6.416  0.3738  1.2882  2.5850
  141OSM    C5S15442   1.505   0.867   6.389  0.5397 -0.1131  0.0200
  141OSM    H5S15443   1.431   0.817   6.454  1.7563 -0.2712  1.3262
  141OSM    C6S15444   1.461   0.905   6.248 -0.6364  0.6278 -0.3434
  141OSM    H6S15445   1.358   0.945   6.249 -1.1580 -0.6347  0.9537
  141OSM    H6T15446   1.467   0.808   6.193  4.9969  0.4116  0.0688
  141OSM    C7S15447   1.565   0.999   6.171  0.1247 -0.3471 -0.3095
  141OSM    H7S15448   1.668   0.955   6.170  0.7247  0.9041  1.4579
  141OSM    H7T15449   1.573   1.092   6.230 -0.0739 -0.3197 -0.3265
  141OSM    C8S15450   1.530   1.030   6.028  0.2533 -0.0492 -0.3135
  141OSM    H8S15451   1.480   1.128   6.016  0.8784  0.1622 -1.2767
  141OSM    H8T15452   1.458   0.949   6.005  0.5504 -1.3821  2.8913
  141OSM    C9S15453   1.651   1.040   5.935 -0.6428 -0.4402  0.3552
  141OSM    H9S15454   1.697   0.940   5.923 -0.2431 -0.2225  0.0734
  141OSM    H9T15455   1.729   1.111   5.970 -0.6191  0.3954 -1.3176
  141OSM   C10S15456   1.620   1.089   5.796  0.0355  0.0788  0.3861
  141OSM   H10S15457   1.595   1.196   5.807  1.6875  0.3043  2.9419
  141OSM   H10T15458   1.523   1.039   5.775  0.9974 -1.6111 -0.1969
  141OSM   C11S15459   1.738   1.078   5.699  0.4160  0.3195  0.2090
  141OSM   H11S15460   1.757   0.973   5.670 -2.3280 -0.8603  2.2632
  141OSM   H11T15461   1.826   1.117   5.755  0.6530 -0.5619  0.4590
  141OSM   C12S15462   1.719   1.157   5.564 -0.5029 -0.1175 -0.2954
  141OSM   H12S15463   1.671   1.251   5.597  0.5084  0.4186 -0.3023
  141OSM   H12T15464   1.665   1.092   5.492 -2.1542  0.3738  0.4609
  141OSM   C13S15465   1.857   1.193   5.512 -0.2801  0.4254  0.3530
  141OSM   H13S15466   1.894   1.104   5.456 -0.7371  0.1251  0.5206
  141OSM   H13T15467   1.922   1.230   5.594  1.2946 -0.6990 -0.3320
  141OSM   C14S15468   1.841   1.319   5.421 -0.2327  0.5239 -0.6849
  141OSM   H14S15469   1.787   1.398   5.478 -0.4493  0.0933 -0.2842
  141OSM   H14T15470   1.782   1.294   5.330  1.9024 -0.3392 -1.9087
  141OSM   C15S15471   1.973   1.381   5.377 -0.1608  0.3661  0.0953
  141OSM   H15S15472   2.027   1.309   5.311 -0.1128  0.0115  0.5180
  141OSM   H15T15473   2.034   1.400   5.468  1.2077  0.5781 -0.8397
  141OSM   C16S15474   1.963   1.515   5.300 -0.0771  0.3015 -0.1657
  141OSM   H16S15475   1.900   1.589   5.354 -0.9402  1.3031 -2.3831
  141OSM   H16T15476   1.914   1.501   5.201 -1.0783 -1.7543  0.5790
  141OSM   C17S15477   2.090   1.586   5.246  0.6736 -0.1057  0.4198
  141OSM   H17S15478   2.065   1.681   5.195  2.8506 -0.8116 -2.1603
  141OSM   H17T15479   2.126   1.525   5.160  1.1316  2.2115 -1.1250
  141OSM   C18S15480   2.207   1.611   5.343  0.2433 -0.3179 -0.2106
  141OSM   H18S15481   2.245   1.514   5.381  2.1488  0.6131  0.3751
  141OSM   H18T15482   2.172   1.680   5.423  0.3577  2.6201 -2.5093
  141OSM   H18U15483   2.289   1.660   5.287  0.5419  0.0109  0.5018
  141OSM    C1F15484   1.919   0.667   6.565  0.2418  0.0747  0.4027
  141OSM     OF15485   1.870   0.557   6.596  0.2742  0.1380  0.0959
  141OSM    C2F15486   2.059   0.688   6.517 -0.8087  0.3073 -0.4104
  141OSM    H2F15487   2.129   0.683   6.604  0.0259  1.0184 -1.0249
  141OSM    H2G15488   2.073   0.789   6.474 -1.7188  1.7681  2.4702
  141OSM    C3F15489   2.092   0.588   6.415 -0.9264 -0.2915  0.8821
  141OSM    H3F15490   2.009   0.583   6.341 -0.5983 -0.3608  0.5165
  141OSM    H3G15491   2.086   0.494   6.475  0.6229  0.6573  2.6461
  141OSM    C4F15492   2.230   0.598   6.357  0.1389 -0.5026 -0.0097
  141OSM    H4F15493   2.293   0.592   6.448  1.0044 -1.8471 -0.6732
  141OSM    H4G15494   2.249   0.697   6.311  2.1421 -1.4391 -1.3433
  141OSM    C5F15495   2.262   0.486   6.260  0.4883 -0.0856  0.0819
  141OSM    H5F15496   2.263   0.389   6.315  1.4482 -0.6853 -0.9559
  141OSM    H5G15497   2.363   0.496   6.214  0.6167 -2.6441 -0.3698
  141OSM    C6F15498   2.174   0.466   6.132  0.5415  0.3278  0.6051
  141OSM    H6F15499   2.171   0.562   6.076 -0.4130  1.1383  1.9974
  141OSM    H6G15500   2.071   0.441   6.164 -0.1451  2.8691  0.5944
  141OSM    C7F15501   2.236   0.357   6.045 -0.3743 -0.8799 -0.0080
  141OSM    H7F15502   2.199   0.258   6.078  0.2664 -1.9436 -2.2878
  141OSM    H7G15503   2.345   0.358   6.069 -0.4777 -1.0984  0.4759
  141OSM    C8F15504   2.210   0.363   5.895 -0.1813  0.7128 -0.5786
  141OSM    H8F15505   2.263   0.455   5.863  0.0299  1.0032  0.5333
  141OSM    H8G15506   2.102   0.389   5.887 -0.8389 -1.5419  0.1181
  141OSM    C9F15507   2.235   0.230   5.825  0.1962  0.7375  0.1240
  141OSM    H9F15508   2.181   0.144   5.868  1.5294  0.2759  0.9405
  141OSM   C10F15509   2.316   0.216   5.719 -0.6768  0.2604  0.6559
  141OSM   H10F15510   2.342   0.113   5.690  0.7488  0.3473  1.5047
  141OSM   C11F15511   2.399   0.322   5.645  0.4341  0.1879  0.0573
  141OSM   H11F15512   2.496   0.336   5.698 -0.9190 -2.0906  3.5177
  141OSM   H11G15513   2.342   0.417   5.640 -0.7669 -0.5566 -1.1271
  141OSM   C12F15514   2.423   0.274   5.501  0.2154  0.0107 -0.0961
  141OSM   H12F15515   2.496   0.191   5.499  0.2127 -0.0532  1.4751
  141OSM   H12G15516   2.477   0.357   5.451 -0.6791  2.3263  2.5388
  141OSM   C13F15517   2.300   0.234   5.417  0.0575 -0.4479  0.2440
  141OSM   H13F15518   2.235   0.324   5.408 -1.7804 -1.6115  1.3271
  141OSM   H13G15519   2.239   0.151   5.457  1.1824 -1.9638 -1.0695
  141OSM   C14F15520   2.323   0.199   5.269  0.2496 -1.2651  0.3946
  141OSM   H14F15521   2.355   0.287   5.209  1.6555 -2.5632 -0.8113
  141OSM   H14G15522   2.223   0.177   5.227  0.6071 -1.0358 -0.5965
  141OSM   C15F15523   2.426   0.092   5.241 -0.1188  0.4198 -0.2304
  141OSM   H15F15524   2.391   0.002   5.296 -0.9047  0.3204 -0.8730
  141OSM   H15G15525   2.518   0.131   5.290 -0.7562 -0.1308  1.4637
  141OSM   C16F15526   2.455   0.079   5.095 -0.0686 -0.0838 -0.4650
  141OSM   H16F15527   2.457   0.181   5.052 -0.8803 -0.2317 -0.8726
  141OSM   H16G15528   2.362   0.035   5.053  0.0241 -0.2636 -0.4820
  141OSM   C17F15529   2.580  -0.009   5.067  0.1134  0.1148 -0.5580
  141OSM   H17F15530   2.660   0.036   5.129 -2.4419  4.5327 -0.0203
  141OSM   H17G15531   2.599   0.018   4.961  2.0110  2.1267  0.2074
  141OSM   C18F15532   2.563  -0.166   5.071  0.1481 -0.1622 -0.4709
  141OSM   H18F15533   2.523  -0.192   5.171 -0.5964  5.2687  0.9856
  141OSM   H18G15534   2.656  -0.222   5.046  1.2055  0.6753  1.3107
  141OSM   H18H15535   2.490  -0.201   4.996 -0.2626  1.7834 -1.0282
  142OSM      N15536   1.657   4.519   6.583  0.6905  0.4595 -0.2471
  142OSM    C1515537   1.734   4.399   6.629  0.1807 -0.1187 -0.2721
  142OSM   H15A15538   1.736   4.406   6.737  0.6731  2.9473 -0.4076
  142OSM   H15B15539   1.838   4.396   6.600  0.6159  2.5863  0.7190
  142OSM   H15C15540   1.694   4.307   6.589 -0.7052  0.1087  0.0481
  142OSM    C1415541   1.687   4.645   6.663  0.9517 -0.2866 -0.7098
  142OSM   H14A15542   1.669   4.636   6.769  0.3046  0.9860 -0.6977
  142OSM   H14B15543   1.629   4.726   6.622  1.1319  0.0918 -0.2224
  142OSM   H14C15544   1.791   4.673   6.650  1.0615 -0.8741 -1.1875
  142OSM    C1315545   1.694   4.536   6.437  0.5929  0.3178 -0.4292
  142OSM   H13A15546   1.659   4.629   6.395 -0.5444  0.0144 -0.2082
  142OSM   H13B15547   1.655   4.451   6.382  1.3557 -1.3582  1.4662
  142OSM   H13C15548   1.802   4.535   6.431  0.5681 -0.6705 -0.9392
  142OSM    C1215549   1.508   4.482   6.603  0.1659 -0.0656 -0.3979
  142OSM   H12A15550   1.493   4.472   6.710  0.5588  0.3803 -0.2928
  142OSM   H12B15551   1.494   4.381   6.567 -0.0175  0.2887 -1.3575
  142OSM    C1115552   1.406   4.574   6.546  0.5430 -0.0227 -0.3069
  142OSM   H11A15553   1.307   4.525   6.557  0.7870 -0.0768  2.0946
  142OSM   H11B15554   1.422   4.593   6.437  2.0051  0.8703  0.0342
  142OSM      P15555   1.333   4.734   6.740 -0.0371 -0.0701  0.2971
  142OSM    O1315556   1.324   4.606   6.813 -0.1242  0.2593 -0.4862
  142OSM    O1415557   1.382   4.857   6.808 -0.0498  0.9434 -0.4041
  142OSM    O1115558   1.194   4.773   6.687  0.0430 -0.3492 -0.0483
  142OSM    O1215559   1.416   4.705   6.605 -0.0522 -1.1130 -0.0848
  142OSM    C1S15560   1.179   4.858   6.574 -0.5154 -0.5201  0.0130
  142OSM    H1S15561   1.262   4.931   6.566 -1.1645  0.0289 -2.4536
  142OSM    H1T15562   1.089   4.924   6.578 -0.0659  0.0886  0.3311
  142OSM     NF15563   1.156   4.881   6.328 -1.1899 -0.5116 -0.0207
  142OSM    HNF15564   1.066   4.886   6.285 -1.0259  0.1422 -0.2982
  142OSM    C2S15565   1.169   4.785   6.438  0.0878 -0.5699 -0.2791
  142OSM    H2S15566   1.261   4.729   6.409  0.1676 -1.9660  2.3589
  142OSM    C3S15567   1.043   4.696   6.442 -0.2471 -0.1920  0.0293
  142OSM    H3S15568   0.951   4.759   6.445  0.7892  1.3649  2.3806
  142OSM     O315569   1.036   4.616   6.559  0.6195 -0.8103 -0.0865
  142OSM    HO315570   1.110   4.638   6.616 -0.3352 -0.4600  1.0838
  142OSM    C4S15571   1.031   4.604   6.321  0.1348 -0.7141 -0.7902
  142OSM    H4S15572   0.958   4.640   6.247 -1.7188 -0.4685  1.0658
  142OSM    C5S15573   1.086   4.481   6.302 -0.2936  0.0442 -0.7299
  142OSM    H5S15574   1.147   4.438   6.383 -1.3203  0.1956  0.1389
  142OSM    C6S15575   1.078   4.387   6.178  0.3125  0.1201 -0.1083
  142OSM    H6S15576   1.043   4.290   6.220  2.2748 -0.1340  1.0507
  142OSM    H6T15577   1.180   4.364   6.141  0.3383 -0.7064  0.4551
  142OSM    C7S15578   0.987   4.436   6.069 -0.4387  0.1755 -0.1643
  142OSM    H7S15579   1.018   4.529   6.016  0.2900  0.5485  0.8909
  142OSM    H7T15580   0.893   4.470   6.117  0.0467  2.1439 -0.4853
  142OSM    C8S15581   0.973   4.326   5.962  0.2851  0.9300 -0.4115
  142OSM    H8S15582   0.948   4.234   6.019  2.8263 -1.1003 -2.3549
  142OSM    H8T15583   1.066   4.295   5.908 -0.0497 -0.4725 -0.2208
  142OSM    C9S15584   0.857   4.331   5.870  1.1701 -0.7188  0.6090
  142OSM    H9S15585   0.801   4.427   5.880  1.6080 -0.2462 -1.1036
  142OSM    H9T15586   0.782   4.251   5.889  0.2891 -0.4295 -1.3677
  142OSM   C10S15587   0.904   4.330   5.728  0.0868 -0.8159 -0.2697
  142OSM   H10S15588   0.939   4.230   5.695  0.6504 -0.0711 -2.0740
  142OSM   H10T15589   0.985   4.405   5.719 -0.1668 -0.3831  0.9036
  142OSM   C11S15590   0.788   4.359   5.627 -0.6602 -1.0274 -0.5581
  142OSM   H11S15591   0.734   4.449   5.661 -0.2185 -2.1302  3.5267
  142OSM   H11T15592   0.708   4.284   5.645 -1.5200 -0.2189 -0.9248
  142OSM   C12S15593   0.823   4.360   5.480  0.3549 -0.1943  0.6290
  142OSM   H12S15594   0.868   4.457   5.451  1.9435 -0.4312  2.1421
  142OSM   H12T15595   0.739   4.342   5.409  1.7844  0.9164 -1.4388
  142OSM   C13S15596   0.933   4.248   5.447  0.0579  0.3246 -0.2408
  142OSM   H13S15597   0.905   4.141   5.451 -1.2189  0.5704 -1.8198
  142OSM   H13T15598   1.024   4.271   5.507  1.0513  1.3676 -2.0517
  142OSM   C14S15599   0.983   4.261   5.306 -0.8929 -0.2852  0.1204
  142OSM   H14S15600   1.061   4.184   5.284 -2.5325 -2.2229  0.7835
  142OSM   H14T15601   1.038   4.356   5.290 -0.0946 -0.7952 -0.2277
  142OSM   C15S15602   0.877   4.240   5.196  0.1963  0.0529 -0.5488
  142OSM   H15S15603   0.794   4.181   5.241 -0.3376  0.6500 -0.7323
  142OSM   H15T15604   0.915   4.175   5.114  0.3673 -0.2297 -0.2446
  142OSM   C16S15605   0.825   4.366   5.138 -0.3950  0.3133  0.8295
  142OSM   H16S15606   0.912   4.402   5.078 -0.8110 -1.0552 -0.6883
  142OSM   H16T15607   0.816   4.453   5.206  0.1357 -0.6854  2.2283
  142OSM   C17S15608   0.701   4.366   5.048  0.5728  0.0476 -0.1671
  142OSM   H17S15609   0.721   4.282   4.978 -0.2845 -0.8805  0.6655
  142OSM   H17T15610   0.699   4.463   4.994  0.4487  0.3063  0.3006
  142OSM   C18S15611   0.570   4.350   5.129 -0.2668 -0.6007  0.8626
  142OSM   H18S15612   0.482   4.361   5.062  0.3807  0.1534  0.1203
  142OSM   H18T15613   0.559   4.440   5.194 -2.7511  0.4294 -0.8592
  142OSM   H18U15614   0.574   4.250   5.178 -0.1980 -1.3252 -0.5862
  142OSM    C1F15615   1.262   4.955   6.288 -0.2515  0.8421 -0.5927
  142OSM     OF15616   1.365   4.965   6.360 -0.3595  0.4143  0.1465
  142OSM    C2F15617   1.249   5.026   6.163 -0.6111  0.4915 -0.2045
  142OSM    H2F15618   1.164   5.098   6.167 -1.3027 -0.2607 -0.9783
  142OSM    H2G15619   1.234   4.958   6.077 -2.2363 -2.3443  2.1486
  142OSM    C3F15620   1.368   5.120   6.134  0.5516 -0.1274 -0.0282
  142OSM    H3F15621   1.464   5.064   6.135  0.9719  0.5810 -0.3100
  142OSM    H3G15622   1.382   5.200   6.210  0.9511  0.5494 -0.8080
  142OSM    C4F15623   1.345   5.192   6.000 -0.5988 -0.3862 -0.2232
  142OSM    H4F15624   1.259   5.262   6.010  0.3330  0.7575 -0.0059
  142OSM    H4G15625   1.305   5.121   5.924 -2.2695  0.4330 -0.1482
  142OSM    C5F15626   1.469   5.263   5.946 -0.0217  0.2422 -0.1754
  142OSM    H5F15627   1.532   5.180   5.907 -1.1520 -0.3852 -0.7074
  142OSM    H5G15628   1.528   5.301   6.033  0.8718  0.4598 -0.8605
  142OSM    C6F15629   1.444   5.369   5.838 -0.1198 -0.3791  0.1215
  142OSM    H6F15630   1.548   5.404   5.819 -0.3638  1.2840  1.5600
  142OSM    H6G15631   1.385   5.452   5.882 -1.7638 -1.2728 -0.3173
  142OSM    C7F15632   1.373   5.316   5.713 -0.2283  0.0219  0.2867
  142OSM    H7F15633   1.365   5.408   5.651  0.0711 -1.6876 -2.4644
  142OSM    H7G15634   1.272   5.271   5.723 -0.4238 -0.1433 -1.9962
  142OSM    C8F15635   1.461   5.213   5.623  0.2916  0.0074 -0.2579
  142OSM    H8F15636   1.568   5.242   5.627  0.6797 -1.1984 -1.1249
  142OSM    H8G15637   1.432   5.236   5.518 -0.1444  1.1380  0.0989
  142OSM    C9F15638   1.451   5.064   5.650 -0.1271 -0.2227 -0.0169
  142OSM    H9F15639   1.493   5.027   5.745 -0.1288 -0.2507 -0.0270
  142OSM   C10F15640   1.399   4.974   5.568 -0.0630 -0.3494 -0.0389
  142OSM   H10F15641   1.409   4.869   5.598  0.1829  0.0928  1.5142
  142OSM   C11F15642   1.344   5.000   5.429  0.7927 -0.0033  0.5864
  142OSM   H11F15643   1.281   5.091   5.419 -0.1305 -0.7925 -1.3544
  142OSM   H11G15644   1.271   4.923   5.398 -0.7077  1.5909 -0.0477
  142OSM   C12F15645   1.455   4.994   5.319 -0.1230  0.1369  0.0543
  142OSM   H12F15646   1.492   4.891   5.300  2.7854  1.2939 -1.1117
  142OSM   H12G15647   1.540   5.061   5.344 -0.2486  0.4208 -0.2793
  142OSM   C13F15648   1.397   5.047   5.186 -0.4867 -0.5273  0.5045
  142OSM   H13F15649   1.362   5.151   5.201  2.8140  0.3536  3.8922
  142OSM   H13G15650   1.309   4.991   5.148  0.1011 -0.7412 -0.5919
  142OSM   C14F15651   1.498   5.036   5.064 -0.5947 -0.2630 -0.1811
  142OSM   H14F15652   1.548   4.943   5.098  0.2664 -0.2214 -1.2532
  142OSM   H14G15653   1.570   5.121   5.064 -1.6301  0.6298 -0.3192
  142OSM   C15F15654   1.429   5.011   4.933  0.2284  0.4953 -0.0765
  142OSM   H15F15655   1.333   4.962   4.955  0.2230  1.6460  2.8861
  142OSM   H15G15656   1.497   4.941   4.880  1.2356  0.4548  1.2061
  142OSM   C16F15657   1.401   5.136   4.851  0.6652 -0.8897  0.0140
  142OSM   H16F15658   1.388   5.112   4.743 -0.8619  1.4817 -0.4273
  142OSM   H16G15659   1.490   5.203   4.859  1.4813 -1.8676 -0.6300
  142OSM   C17F15660   1.277   5.218   4.878 -0.1282  0.8193 -0.2437
  142OSM   H17F15661   1.247   5.230   4.984  2.0249  2.0084  0.2792
  142OSM   H17G15662   1.195   5.158   4.834  1.4810 -1.3807 -0.3800
  142OSM   C18F15663   1.279   5.349   4.801  0.3997 -0.2324  0.0723
  142OSM   H18F15664   1.183   5.405   4.801  1.2673  1.3521 -1.0734
  142OSM   H18G15665   1.292   5.320   4.695  0.7601 -1.7882  0.5286
  142OSM   H18H15666   1.369   5.411   4.821  0.2213 -0.4405  1.6555
  143OSM      N15667   3.514   4.292   6.409 -0.1156  0.2261  0.2935
  143OSM    C1515668   3.585   4.403   6.485 -0.8485  0.2727  0.9654
  143OSM   H15A15669   3.692   4.396   6.471 -0.3341  1.8434  3.3891
  143OSM   H15B15670   3.563   4.408   6.591  0.9922  3.7212  1.3213
  143OSM   H15C15671   3.563   4.500   6.442 -0.2807 -0.3256 -0.7469
  143OSM    C1415672   3.561   4.282   6.264 -0.3251 -0.3791 -0.7673
  143OSM   H14A15673   3.543   4.378   6.218 -0.6444  0.0602  0.2621
  143OSM   H14B15674   3.499   4.214   6.207 -0.4388  1.1855 -2.5984
  143OSM   H14C15675   3.665   4.255   6.261 -0.5475 -1.3829  0.0476
  143OSM    C1315676   3.531   4.165   6.483  0.0696 -0.5131  0.3547
  143OSM   H13A15677   3.506   4.167   6.588  0.7298  1.3122  0.5151
  143OSM   H13B15678   3.632   4.126   6.494  0.4173  0.9254  2.9628
  143OSM   H13C15679   3.469   4.090   6.437 -1.1257 -0.0801  1.2004
  143OSM    C1215680   3.363   4.328   6.406 -0.1055 -0.2937  0.7260
  143OSM   H12A15681   3.359   4.422   6.352 -0.3579 -1.3412 -1.1420
  143OSM   H12B15682   3.328   4.353   6.505 -0.5177  1.8902  0.0899
  143OSM    C1115683   3.265   4.235   6.328 -0.2571  0.4505 -0.6853
  143OSM   H11A15684   3.307   4.236   6.225  0.9314  2.7797 -0.2665
  143OSM   H11B15685   3.170   4.293   6.325 -0.8891 -0.4465  1.1310
  143OSM      P15686   3.126   4.048   6.453  0.1145  0.0649 -0.5106
  143OSM    O1315687   3.148   3.906   6.484  0.4368 -0.4995  0.7098
  143OSM    O1415688   3.099   4.137   6.565  0.1217 -0.2324 -0.7272
  143OSM    O1115689   3.014   4.039   6.345  0.3288 -0.2849 -0.6719
  143OSM    O1215690   3.249   4.101   6.373 -0.4027  0.2011 -0.2051
  143OSM    C1S15691   3.019   3.969   6.229  0.1802  0.1820  0.2566
  143OSM    H1S15692   3.009   3.864   6.262  1.9125  0.5137  2.0332
  143OSM    H1T15693   3.118   3.982   6.179  0.5706 -0.4890  0.8329
  143OSM     NF15694   2.925   3.931   6.004  0.3389  0.6024 -0.2774
  143OSM    HNF15695   2.976   3.950   5.921 -0.6369 -1.6802 -1.4764
  143OSM    C2S15696   2.910   4.017   6.122 -0.3203 -0.7854 -0.6517
  143OSM    H2S15697   2.812   4.006   6.173  0.9745 -0.8630  2.0182
  143OSM    C3S15698   2.938   4.166   6.079  0.3472 -0.7447  1.1826
  143OSM    H3S15699   3.038   4.170   6.031 -0.2311  1.1405  0.0403
  143OSM     O315700   2.969   4.265   6.175 -0.3060 -0.3964 -0.3897
  143OSM    HO315701   2.996   4.219   6.255  0.6255  1.1347  0.2197
  143OSM    C4S15702   2.846   4.224   5.979 -0.2624 -0.3096  0.3876
  143OSM    H4S15703   2.883   4.221   5.876 -1.2458 -0.1981  0.0143
  143OSM    C5S15704   2.736   4.294   5.996  0.0684  0.0136 -0.6765
  143OSM    H5S15705   2.691   4.310   6.095 -0.3900  1.7620 -1.1446
  143OSM    C6S15706   2.649   4.371   5.894 -0.1571 -0.2833 -0.7331
  143OSM    H6S15707   2.685   4.476   5.890 -0.5538 -0.0902  0.4015
  143OSM    H6T15708   2.541   4.369   5.917 -0.0108  1.5904  0.3101
  143OSM    C7S15709   2.662   4.336   5.751  0.0208  0.5766  0.2626
  143OSM    H7S15710   2.640   4.229   5.727  2.1813  0.2726 -0.5446
  143OSM    H7T15711   2.767   4.339   5.715 -0.2110  0.3821 -0.4540
  143OSM    C8S15712   2.591   4.428   5.641 -1.0966  0.2363  0.2325
  143OSM    H8S15713   2.633   4.531   5.635 -0.8194  0.2510  1.8747
  143OSM    H8T15714   2.483   4.439   5.663 -1.1452 -0.6255  0.4547
  143OSM    C9S15715   2.594   4.361   5.500  0.5204  0.0071 -0.3730
  143OSM    H9S15716   2.534   4.270   5.521  1.4497 -0.7728 -1.0286
  143OSM    H9T15717   2.702   4.337   5.493  0.5804 -1.5007  3.5352
  143OSM   C10S15718   2.533   4.442   5.392  0.1826 -0.1987 -0.0386
  143OSM   H10S15719   2.592   4.536   5.387  1.7436 -1.1728 -0.6402
  143OSM   H10T15720   2.430   4.473   5.420  0.5482 -0.1817  1.3945
  143OSM   C11S15721   2.542   4.374   5.259 -0.0541  1.1360 -0.6123
  143OSM   H11S15722   2.462   4.297   5.261 -1.6832  2.6453 -2.8769
  143OSM   H11T15723   2.640   4.322   5.262  0.4259  2.0076 -0.8837
  143OSM   C12S15724   2.518   4.456   5.129  0.1871 -0.2653 -0.1783
  143OSM   H12S15725   2.585   4.544   5.135  0.5006 -0.5049 -0.0848
  143OSM   H12T15726   2.413   4.489   5.124  0.5670  1.0098 -0.0436
  143OSM   C13S15727   2.565   4.385   5.005  0.0847  0.0740 -0.1517
  143OSM   H13S15728   2.508   4.296   4.971  0.3583 -1.3530  2.7692
  143OSM   H13T15729   2.664   4.336   5.019  0.5093  0.7909 -0.5903
  143OSM   C14S15730   2.569   4.486   4.893 -0.3054 -0.8815  0.1453
  143OSM   H14S15731   2.634   4.575   4.907  0.2557 -1.1243 -0.7926
  143OSM   H14T15732   2.469   4.533   4.878  1.0455  1.9173 -0.8959
  143OSM   C15S15733   2.608   4.436   4.756  0.5123  0.1209 -0.0503
  143OSM   H15S15734   2.529   4.365   4.725  1.1122 -0.2142 -0.8408
  143OSM   H15T15735   2.710   4.392   4.752  0.5276  0.1983 -0.4628
  143OSM   C16S15736   2.612   4.549   4.653 -0.4732  0.3472  0.1797
  143OSM   H16S15737   2.686   4.628   4.679 -0.4121  1.2245 -2.3498
  143OSM   H16T15738   2.514   4.601   4.653 -0.1694  0.9393 -0.3307
  143OSM   C17S15739   2.649   4.508   4.503 -0.4986  0.1421 -0.5347
  143OSM   H17S15740   2.612   4.594   4.443  0.7945 -0.4624 -2.2794
  143OSM   H17T15741   2.585   4.422   4.473  1.4830 -1.1114 -1.3711
  143OSM   C18S15742   2.800   4.476   4.488  0.4764  0.3591  0.5202
  143OSM   H18S15743   2.814   4.382   4.544 -4.0957 -0.1461  1.1700
  143OSM   H18T15744   2.860   4.556   4.537  0.3806  0.4460  0.4981
  143OSM   H18U15745   2.820   4.461   4.380  0.0360 -1.6951  0.6881
  143OSM    C1F15746   2.880   3.803   6.007  0.5373 -0.0853 -0.7283
  143OSM     OF15747   2.832   3.756   6.108 -0.0093 -0.5544 -0.6608
  143OSM    C2F15748   2.914   3.717   5.890 -0.2543  0.4449  0.0896
  143OSM    H2F15749   3.015   3.670   5.898  0.4472  1.7215 -0.8073
  143OSM    H2G15750   2.922   3.776   5.796 -5.0087  1.4512  0.0699
  143OSM    C3F15751   2.822   3.590   5.866 -0.1071 -0.0138  0.3355
  143OSM    H3F15752   2.718   3.627   5.855  0.1159  0.5062 -0.0935
  143OSM    H3G15753   2.812   3.522   5.953  0.6891  0.0066  0.4547
  143OSM    C4F15754   2.865   3.501   5.746  0.6073  0.0677  0.1377
  143OSM    H4F15755   2.788   3.421   5.738  2.5254 -1.8719  0.3476
  143OSM    H4G15756   2.957   3.450   5.781 -0.7364 -0.9229  2.3995
  143OSM    C5F15757   2.885   3.573   5.607 -0.1890 -0.3133  0.1221
  143OSM    H5F15758   2.974   3.640   5.611 -0.3483  0.0144 -1.2347
  143OSM    H5G15759   2.796   3.636   5.587  0.7782  0.6159 -1.4972
  143OSM    C6F15760   2.883   3.481   5.486 -1.1590 -0.1811 -0.0605
  143OSM    H6F15761   2.957   3.399   5.497 -0.1679  0.5919 -0.7545
  143OSM    H6G15762   2.913   3.542   5.398 -0.5245 -0.0873  0.2117
  143OSM    C7F15763   2.748   3.421   5.450 -0.1735 -0.3142 -0.4806
  143OSM    H7F15764   2.675   3.504   5.440  1.6380  1.9288  2.8540
  143OSM    H7G15765   2.714   3.346   5.524  0.3698  0.9953  1.1917
  143OSM    C8F15766   2.761   3.346   5.313  0.0567 -0.2182  0.6607
  143OSM    H8F15767   2.815   3.250   5.300 -2.3278 -1.3781 -1.4451
  143OSM    H8G15768   2.817   3.412   5.243 -0.8527 -0.7263 -0.5738
  143OSM    C9F15769   2.626   3.324   5.249 -0.3293  0.9103  0.9624
  143OSM    H9F15770   2.558   3.275   5.320  1.7697 -1.3798  1.5286
  143OSM   C10F15771   2.590   3.358   5.126 -0.4005 -0.8097 -0.4999
  143OSM   H10F15772   2.486   3.339   5.096  0.4714 -1.8297 -3.1621
  143OSM   C11F15773   2.660   3.446   5.025 -0.4988 -0.7140  0.1956
  143OSM   H11F15774   2.715   3.525   5.081 -0.9666  0.8968 -1.5014
  143OSM   H11G15775   2.580   3.500   4.970  0.7647  1.6648  0.5256
  143OSM   C12F15776   2.750   3.374   4.919  0.6140 -0.5460 -0.2317
  143OSM   H12F15777   2.689   3.304   4.858  0.7141 -1.0591  0.2436
  143OSM   H12G15778   2.830   3.326   4.980  4.0252  2.5442 -1.8672
  143OSM   C13F15779   2.824   3.476   4.833 -0.1731 -0.3899  0.3931
  143OSM   H13F15780   2.882   3.544   4.898 -1.2599  0.0313  0.9488
  143OSM   H13G15781   2.756   3.546   4.780  1.0571 -0.8082 -1.8481
  143OSM   C14F15782   2.898   3.394   4.723 -0.0740 -0.1716 -0.3309
  143OSM   H14F15783   2.826   3.338   4.659 -1.2582 -0.9897  1.6323
  143OSM   H14G15784   2.963   3.324   4.779 -0.7896 -1.5824 -1.1972
  143OSM   C15F15785   2.985   3.491   4.637  0.2662 -0.1909  0.2606
  143OSM   H15F15786   3.039   3.429   4.563 -0.7554 -0.1085 -0.5662
  143OSM   H15G15787   3.062   3.542   4.699  1.1767 -0.8082 -0.3474
  143OSM   C16F15788   2.891   3.590   4.563 -0.2538 -0.5781  0.5450
  143OSM   H16F15789   2.951   3.650   4.491 -0.7140 -0.5098  0.2068
  143OSM   H16G15790   2.851   3.668   4.631  1.6563  1.3351 -0.3968
  143OSM   C17F15791   2.791   3.529   4.462 -0.0545 -0.6152 -0.3277
  143OSM   H17F15792   2.701   3.488   4.512 -3.1332  2.0961 -3.1574
  143OSM   H17G15793   2.834   3.434   4.422 -1.2056 -1.9046  1.3457
  143OSM   C18F15794   2.739   3.632   4.356  0.5760  0.0581 -0.0202
  143OSM   H18F15795   2.822   3.686   4.306  0.2661  0.5266 -0.0337
  143OSM   H18G15796   2.669   3.701   4.407  0.4442 -0.6651  0.8035
  143OSM   H18H15797   2.688   3.576   4.274  1.3868 -1.6248  0.5914
  144OSM      N15798   1.822   2.852   6.506  0.5641  1.0089 -0.8411
  144OSM    C1515799   1.809   2.861   6.652  0.1023 -0.9491 -0.9763
  144OSM   H15A15800   1.707   2.890   6.672 -0.6982 -1.2230 -4.0809
  144OSM   H15B15801   1.873   2.935   6.698 -3.1462  1.0873  0.6164
  144OSM   H15C15802   1.833   2.760   6.683  1.4798 -0.3061  0.1652
  144OSM    C1415803   1.813   2.991   6.451  0.4378  0.4213 -0.1162
  144OSM   H14A15804   1.893   3.057   6.482  2.3403 -1.7878 -0.1275
  144OSM   H14B15805   1.727   3.037   6.499 -1.4273 -1.9857 -0.9535
  144OSM   H14C15806   1.811   2.989   6.343  2.1820 -1.3487 -0.1638
  144OSM    C1315807   1.954   2.809   6.466  0.5057  0.8582 -0.1068
  144OSM   H13A15808   1.975   2.713   6.511  1.5088  0.8751 -0.5029
  144OSM   H13B15809   2.036   2.873   6.498 -0.3906  2.0157 -0.0437
  144OSM   H13C15810   1.961   2.798   6.359  1.4662 -1.6485  0.1575
  144OSM    C1215811   1.707   2.776   6.441  0.6356  0.0991 -0.0389
  144OSM   H12A15812   1.700   2.782   6.333 -0.0823  0.9142  0.0433
  144OSM   H12B15813   1.616   2.827   6.469 -0.4350 -1.8389  0.1830
  144OSM    C1115814   1.693   2.622   6.482  0.2237 -0.2528 -0.1772
  144OSM   H11A15815   1.799   2.589   6.485  0.1273 -0.6047 -0.5779
  144OSM   H11B15816   1.657   2.559   6.399 -1.3101 -0.4909  0.6459
  144OSM      P15817   1.597   2.453   6.651  0.8025  0.1504 -0.2460
  144OSM    O1315818   1.721   2.400   6.709 -0.2396  0.4283 -0.7178
  144OSM    O1415819   1.476   2.454   6.735  0.1154 -0.7480 -0.4273
  144OSM    O1115820   1.571   2.371   6.522  0.5462 -0.1055  0.1434
  144OSM    O1215821   1.623   2.601   6.602  0.2902  0.2384 -0.5266
  144OSM    C1S15822   1.461   2.396   6.437 -0.4099 -1.0303  0.4880
  144OSM    H1S15823   1.473   2.500   6.398 -1.3411 -0.7396  0.9435
  144OSM    H1T15824   1.363   2.406   6.490  0.3722  1.6989  1.6277
  144OSM     NF15825   1.350   2.348   6.223  0.7431  0.6007  0.5712
  144OSM    HNF15826   1.263   2.303   6.204  0.0087  0.5330  3.5225
  144OSM    C2S15827   1.447   2.300   6.312  0.1390  0.2709 -0.0886
  144OSM    H2S15828   1.544   2.305   6.259  0.6185  3.5275  0.9418
  144OSM    C3S15829   1.428   2.155   6.364 -0.2212 -0.1006 -0.9974
  144OSM    H3S15830   1.335   2.150   6.424 -0.5293  1.7016 -1.2659
  144OSM     O315831   1.530   2.103   6.452  0.5981  0.1553  0.2168
  144OSM    HO315832   1.588   2.176   6.478 -0.4909  0.4057  2.1213
  144OSM    C4S15833   1.413   2.061   6.251 -0.0548 -0.2115  0.2402
  144OSM    H4S15834   1.314   2.012   6.244  1.2641 -2.9344 -0.8651
  144OSM    C5S15835   1.500   2.023   6.152  0.2573 -0.2858 -0.2895
  144OSM    H5S15836   1.604   2.050   6.171  0.3305 -0.9515  0.3353
  144OSM    C6S15837   1.478   1.935   6.036 -0.5297  0.7189  0.6103
  144OSM    H6S15838   1.396   1.861   6.048  0.6178 -0.8870 -0.7996
  144OSM    H6T15839   1.571   1.876   6.020 -2.7335 -2.5254 -1.5191
  144OSM    C7S15840   1.448   2.005   5.901  0.6243  0.1665 -1.0741
  144OSM    H7S15841   1.527   2.077   5.869 -1.2797  1.7459 -2.4529
  144OSM    H7T15842   1.356   2.064   5.919  0.6353  0.6599 -2.5082
  144OSM    C8S15843   1.417   1.907   5.781 -0.5943 -0.3335  0.0485
  144OSM    H8S15844   1.358   1.827   5.831 -0.8057 -0.0218  0.3012
  144OSM    H8T15845   1.510   1.865   5.736  0.4288 -1.1923  2.7501
  144OSM    C9S15846   1.343   1.979   5.666 -0.3514  0.0709  0.1994
  144OSM    H9S15847   1.252   2.036   5.693 -1.1321 -1.2961  0.5643
  144OSM    H9T15848   1.305   1.900   5.597  0.2568  0.2781 -0.3921
  144OSM   C10S15849   1.434   2.071   5.580 -0.1745 -0.1497  0.3493
  144OSM   H10S15850   1.500   2.008   5.517  0.4269 -0.4846  1.2916
  144OSM   H10T15851   1.502   2.123   5.651  1.6154 -2.0237  0.0752
  144OSM   C11S15852   1.353   2.162   5.494  0.4431 -0.1306  0.6742
  144OSM   H11S15853   1.298   2.240   5.549  0.2190  0.0468  0.2043
  144OSM   H11T15854   1.272   2.100   5.451 -0.3205  0.9155  0.5847
  144OSM   C12S15855   1.424   2.234   5.383 -0.1690  0.1507 -0.6117
  144OSM   H12S15856   1.457   2.168   5.300  1.7001  1.1183 -0.6849
  144OSM   H12T15857   1.516   2.289   5.414 -0.1732  0.3740 -0.9828
  144OSM   C13S15858   1.343   2.341   5.315  0.2821  0.0613 -0.1765
  144OSM   H13S15859   1.272   2.395   5.380 -1.0517 -1.1341 -0.5911
  144OSM   H13T15860   1.270   2.286   5.252 -0.8699 -0.4652  1.5543
  144OSM   C14S15861   1.430   2.437   5.230  0.0992  0.0006  0.8564
  144OSM   H14S15862   1.503   2.501   5.283  0.4221  0.0105  0.4059
  144OSM   H14T15863   1.353   2.510   5.199 -0.4116 -0.7410  0.3483
  144OSM   C15S15864   1.509   2.385   5.110  0.0171  0.1996  0.8373
  144OSM   H15S15865   1.446   2.313   5.052  0.9218 -0.7003  0.9416
  144OSM   H15T15866   1.594   2.316   5.132 -0.1954 -1.1285 -2.0423
  144OSM   C16S15867   1.562   2.490   5.014 -0.7297 -0.0430  0.3281
  144OSM   H16S15868   1.631   2.559   5.068 -1.9902  1.3182  0.2456
  144OSM   H16T15869   1.476   2.552   4.983 -0.4016 -0.1129 -0.7786
  144OSM   C17S15870   1.634   2.437   4.884  0.5100 -0.0521 -0.3490
  144OSM   H17S15871   1.564   2.405   4.803  0.5581  1.1596 -0.8975
  144OSM   H17T15872   1.696   2.347   4.906 -1.8317 -1.7504 -0.2346
  144OSM   C18S15873   1.728   2.533   4.807 -0.0283  0.4870  0.1481
  144OSM   H18S15874   1.776   2.470   4.729  0.8827 -0.2070  1.2238
  144OSM   H18T15875   1.817   2.558   4.869  0.9390 -1.3753 -0.4157
  144OSM   H18U15876   1.676   2.623   4.768 -0.5882  1.1277  2.1948
  144OSM    C1F15877   1.362   2.465   6.163  0.4391 -0.6981  0.2981
  144OSM     OF15878   1.470   2.520   6.164  0.0010 -0.3618  0.5496
  144OSM    C2F15879   1.237   2.523   6.101 -0.7468 -0.5541  1.0235
  144OSM    H2F15880   1.163   2.525   6.183 -1.1224 -2.8355  0.7911
  144OSM    H2G15881   1.207   2.459   6.016 -1.8303 -1.3954  2.0141
  144OSM    C3F15882   1.259   2.667   6.043  0.4579 -0.3066  0.2123
  144OSM    H3F15883   1.335   2.680   5.963  1.2266 -1.0984  0.7963
  144OSM    H3G15884   1.297   2.730   6.127 -0.4418 -0.0644  0.4522
  144OSM    C4F15885   1.134   2.708   5.964  0.0942 -0.2775  0.2990
  144OSM    H4F15886   1.052   2.728   6.036 -0.1402  0.7712 -0.2521
  144OSM    H4G15887   1.106   2.621   5.901  0.0296 -0.7649  0.9831
  144OSM    C5F15888   1.144   2.830   5.876  0.0779  0.2393 -0.1042
  144OSM    H5F15889   1.087   2.801   5.785 -1.4283 -1.0631  1.1847
  144OSM    H5G15890   1.251   2.853   5.857 -0.0264  2.9969  1.9558
  144OSM    C6F15891   1.065   2.949   5.930 -0.0583  0.2469  0.0019
  144OSM    H6F15892   1.116   2.983   6.022 -2.5757  0.7412  1.3113
  144OSM    H6G15893   0.967   2.915   5.972 -0.1771  1.4701  0.7886
  144OSM    C7F15894   1.023   3.074   5.842 -0.1502  0.1152 -0.6201
  144OSM    H7F15895   0.944   3.132   5.894 -0.9569 -0.4879 -1.1425
  144OSM    H7G15896   0.988   3.023   5.749 -0.5884 -0.2272 -0.2721
  144OSM    C8F15897   1.144   3.151   5.796  0.1352  0.1553  0.3706
  144OSM    H8F15898   1.193   3.090   5.717  0.9863 -0.3975  1.2951
  144OSM    H8G15899   1.220   3.176   5.873 -0.4493  2.3252  0.3051
  144OSM    C9F15900   1.096   3.283   5.753 -0.4657 -0.3362  0.3945
  144OSM    H9F15901   1.041   3.336   5.832  0.9254  0.0424  1.1405
  144OSM   C10F15902   1.097   3.329   5.626  0.7628  0.0777 -0.1038
  144OSM   H10F15903   1.059   3.429   5.602  1.6511 -0.0669 -2.3197
  144OSM   C11F15904   1.165   3.261   5.507 -0.3391 -0.2326  0.5975
  144OSM   H11F15905   1.132   3.157   5.486  1.8446 -0.5710 -1.6420
  144OSM   H11G15906   1.271   3.242   5.535 -0.4108 -0.0494  1.0025
  144OSM   C12F15907   1.159   3.338   5.379 -0.4028  0.3095  0.2511
  144OSM   H12F15908   1.205   3.284   5.294 -1.0111 -0.6756  0.5382
  144OSM   H12G15909   1.199   3.442   5.384 -0.6690  0.4220  0.0450
  144OSM   C13F15910   1.017   3.343   5.315  0.1182 -0.1465 -0.4490
  144OSM   H13F15911   0.964   3.429   5.360  0.2160  1.0718 -2.5450
  144OSM   H13G15912   0.955   3.258   5.352  0.2586  0.4355  1.2188
  144OSM   C14F15913   1.017   3.354   5.161  0.3964  0.2091  0.5883
  144OSM   H14F15914   1.082   3.439   5.131 -2.2570  2.0199 -0.4535
  144OSM   H14G15915   0.911   3.385   5.145  0.2027  1.1821  3.2520
  144OSM   C15F15916   1.060   3.230   5.088  0.5515 -0.6508 -0.5106
  144OSM   H15F15917   0.974   3.161   5.100 -1.8830  2.5608  2.8490
  144OSM   H15G15918   1.147   3.189   5.143 -0.8377 -0.2080  2.2035
  144OSM   C16F15919   1.094   3.267   4.945 -0.2726  0.0554  0.0690
  144OSM   H16F15920   1.158   3.185   4.908  1.4398  2.1488 -1.9201
  144OSM   H16G15921   1.168   3.349   4.933 -2.3659  1.9419 -0.7137
  144OSM   C17F15922   0.969   3.287   4.860 -0.4405 -0.0007 -0.0202
  144OSM   H17F15923   0.926   3.383   4.896 -2.7288 -1.3956  1.2152
  144OSM   H17G15924   0.892   3.207   4.867  0.2241 -0.8315 -1.7468
  144OSM   C18F15925   0.998   3.323   4.708 -0.6982  0.0653  0.1803
  144OSM   H18F15926   1.080   3.398   4.700  0.3848 -0.8945  1.8045
  144OSM   H18G15927   0.902   3.361   4.666  0.1472  1.8619 -0.2202
  144OSM   H18H15928   1.029   3.232   4.652 -0.0155  0.5578 -0.2599
  145OSM      N15929   3.017   5.022   6.599 -0.0023 -1.1370  0.3786
  145OSM    C1515930   2.958   5.037   6.744  0.7582  0.3174 -0.4789
  145OSM   H15A15931   3.014   5.107   6.804  1.2383 -2.9955  3.2662
  145OSM   H15B15932   2.952   4.943   6.796  2.2126  0.6431  0.3120
  145OSM   H15C15933   2.853   5.065   6.744  1.0031  1.3021  0.0679
  145OSM    C1415934   2.941   4.914   6.529  0.1966 -0.1952 -1.0631
  145OSM   H14A15935   2.973   4.904   6.427  0.6304  0.3208 -0.9849
  145OSM   H14B15936   2.836   4.936   6.530 -0.1732 -1.8581 -0.3415
  145OSM   H14C15937   2.949   4.820   6.581  1.1560 -0.4642 -1.6673
  145OSM    C1315938   3.002   5.156   6.528 -0.0727  0.6894  0.4395
  145OSM   H13A15939   3.036   5.139   6.427 -2.9483  0.5252 -0.5730
  145OSM   H13B15940   3.058   5.239   6.570  1.2732 -0.8217  1.7731
  145OSM   H13C15941   2.897   5.177   6.520 -0.4549 -1.0505  0.4527
  145OSM    C1215942   3.168   4.991   6.602  0.3595 -0.0891  0.3500
  145OSM   H12A15943   3.228   5.077   6.625  0.2035  0.4368 -1.1150
  145OSM   H12B15944   3.202   4.953   6.507  0.5347 -0.7997  0.6932
  145OSM    C1115945   3.210   4.877   6.701 -0.0624 -0.3427 -0.0132
  145OSM   H11A15946   3.180   4.904   6.805 -1.8150 -2.0887 -0.0084
  145OSM   H11B15947   3.320   4.872   6.715 -0.1842  0.7657  1.6268
  145OSM      P15948   3.245   4.639   6.612 -0.0869  0.0978  0.2123
  145OSM    O1315949   3.382   4.649   6.662  0.2315  0.3483  0.1952
  145OSM    O1415950   3.194   4.498   6.639 -0.3940  0.7353  0.8237
  145OSM    O1115951   3.248   4.678   6.456  0.0503 -0.0496 -0.4661
  145OSM    O1215952   3.156   4.751   6.677  0.2397 -0.0411 -0.3559
  145OSM    C1S15953   3.138   4.624   6.372 -0.0530 -0.6470  0.3606
  145OSM    H1S15954   3.042   4.678   6.384  0.9045  0.8605  1.5497
  145OSM    H1T15955   3.134   4.513   6.364  0.3491 -0.6839  0.6582
  145OSM     NF15956   3.044   4.655   6.132  0.7228  0.0236 -0.1321
  145OSM    HNF15957   3.053   4.590   6.057 -0.5977 -2.9641  2.1193
  145OSM    C2S15958   3.167   4.664   6.218 -0.2913 -0.6094  0.4079
  145OSM    H2S15959   3.197   4.770   6.223  0.2079 -0.7112 -0.3084
  145OSM    C3S15960   3.297   4.598   6.161  0.0982 -0.0032 -0.3677
  145OSM    H3S15961   3.277   4.488   6.155  0.9388 -0.2161  0.5224
  145OSM     O315962   3.414   4.607   6.243 -0.1291  0.4488 -0.2582
  145OSM    HO315963   3.382   4.660   6.317 -1.7871 -1.2578  0.3411
  145OSM    C4S15964   3.335   4.644   6.017 -0.9114  0.4683 -0.1925
  145OSM    H4S15965   3.315   4.578   5.931  1.3916 -0.7292  0.1314
  145OSM    C5S15966   3.394   4.761   5.976  0.2047  0.0608  0.0973
  145OSM    H5S15967   3.425   4.839   6.047  1.5001  0.6718 -1.0788
  145OSM    C6S15968   3.421   4.811   5.838  0.8075 -0.3747  0.2890
  145OSM    H6S15969   3.402   4.918   5.817  3.0741 -0.0164 -0.1915
  145OSM    H6T15970   3.364   4.754   5.761  2.3273 -0.0908 -1.1018
  145OSM    C7S15971   3.580   4.796   5.810  0.0113  0.7507  0.1168
  145OSM    H7S15972   3.615   4.696   5.843  1.9348  0.0373 -3.4815
  145OSM    H7T15973   3.626   4.866   5.883  0.7401 -0.4605  0.8541
  145OSM    C8S15974   3.634   4.821   5.674 -0.5586  0.0593  0.1640
  145OSM    H8S15975   3.740   4.787   5.669 -0.6529 -0.0443 -2.4351
  145OSM    H8T15976   3.627   4.930   5.655  1.2812  0.9196  3.6199
  145OSM    C9S15977   3.571   4.744   5.552 -0.0664 -0.3714 -0.0230
  145OSM    H9S15978   3.479   4.801   5.526  0.2145  0.3877  0.6051
  145OSM    H9T15979   3.554   4.640   5.588  0.3895 -0.4054  0.1021
  145OSM   C10S15980   3.665   4.763   5.434 -1.0980 -0.0044 -0.2672
  145OSM   H10S15981   3.769   4.733   5.461 -1.8545 -3.9498 -1.0722
  145OSM   H10T15982   3.661   4.869   5.400 -1.7173 -0.0552 -0.3670
  145OSM   C11S15983   3.619   4.698   5.305  0.1860  0.1471 -0.2644
  145OSM   H11S15984   3.512   4.715   5.283  0.2056 -2.8203 -3.4557
  145OSM   H11T15985   3.635   4.591   5.329  1.9180  0.2137 -0.9292
  145OSM   C12S15986   3.696   4.732   5.173 -0.1562  0.1980  0.2522
  145OSM   H12S15987   3.801   4.695   5.184  0.3730  1.3401 -0.7402
  145OSM   H12T15988   3.716   4.841   5.166  1.0919  0.0465  1.0394
  145OSM   C13S15989   3.625   4.689   5.041  0.9716  0.3031  0.1135
  145OSM   H13S15990   3.521   4.728   5.037  1.1553  0.7215 -1.2066
  145OSM   H13T15991   3.629   4.578   5.037  0.1321  0.2320  0.9223
  145OSM   C14S15992   3.697   4.762   4.922 -1.0897 -0.0346  0.1472
  145OSM   H14S15993   3.797   4.717   4.904 -0.1980  2.5899 -2.1049
  145OSM   H14T15994   3.705   4.868   4.954 -0.8639 -0.0628  0.1867
  145OSM   C15S15995   3.631   4.762   4.780 -0.1243  0.2725  0.1682
  145OSM   H15S15996   3.556   4.844   4.771 -0.4038 -0.1402 -1.6545
  145OSM   H15T15997   3.571   4.668   4.783  1.9324 -1.0835  0.3215
  145OSM   C16S15998   3.737   4.750   4.676  0.0242  0.1880  0.1503
  145OSM   H16S15999   3.809   4.667   4.683  0.0865  0.3050  1.0028
  145OSM   H16T16000   3.796   4.844   4.679  0.8052 -0.3024  0.1916
  145OSM   C17S16001   3.686   4.738   4.537 -0.0115 -0.4766  0.2468
  145OSM   H17S16002   3.769   4.713   4.467  0.8855  0.2775  1.0250
  145OSM   H17T16003   3.644   4.836   4.504  0.1934  0.6202  3.0137
  145OSM   C18S16004   3.585   4.622   4.522  0.4848 -0.0990  0.2864
  145OSM   H18S16005   3.557   4.586   4.421 -2.4525  1.1176  0.5578
  145OSM   H18T16006   3.497   4.622   4.591  1.4562 -1.9665  1.6232
  145OSM   H18U16007   3.629   4.529   4.564 -1.6218 -0.8352  0.9967
  145OSM    C1F16008   2.935   4.734   6.151 -0.3965 -0.4789  0.2179
  145OSM     OF16009   2.944   4.832   6.226 -0.2937  0.1221 -0.2395
  145OSM    C2F16010   2.812   4.699   6.073  0.5318 -0.4915 -0.4005
  145OSM    H2F16011   2.730   4.657   6.135  0.2271  0.6165 -0.0252
  145OSM    H2G16012   2.847   4.626   5.997  1.3848  1.0027 -1.5083
  145OSM    C3F16013   2.767   4.815   5.992  0.1021 -0.4069 -0.5703
  145OSM    H3F16014   2.707   4.886   6.054  1.4394 -0.0886  0.4076
  145OSM    H3G16015   2.694   4.787   5.913  0.2280  2.8228 -1.9870
  145OSM    C4F16016   2.868   4.877   5.909 -0.3440  0.5004  0.0100
  145OSM    H4F16017   2.936   4.794   5.881 -0.0472 -0.7109  3.7782
  145OSM    H4G16018   2.920   4.963   5.957 -1.5787  1.4207 -0.2324
  145OSM    C5F16019   2.805   4.936   5.778 -0.4492 -0.5430  0.3669
  145OSM    H5F16020   2.750   5.026   5.812  2.1466  0.7207  1.4828
  145OSM    H5G16021   2.740   4.857   5.734  0.2551 -1.2445  0.5562
  145OSM    C6F16022   2.913   4.969   5.663  0.4908 -0.3387 -1.2639
  145OSM    H6F16023   2.963   4.876   5.629  1.0159 -0.4116 -0.3374
  145OSM    H6G16024   2.986   5.027   5.723  0.9451 -0.5077 -1.6470
  145OSM    C7F16025   2.838   5.039   5.556 -0.6083  0.4039 -0.5124
  145OSM    H7F16026   2.781   5.118   5.610  0.9371  2.0441 -1.1561
  145OSM    H7G16027   2.758   4.966   5.530 -0.6064 -0.0074  0.5853
  145OSM    C8F16028   2.915   5.085   5.435 -0.1195  0.4182  0.3061
  145OSM    H8F16029   2.964   4.995   5.393 -2.5781 -0.1690 -1.5402
  145OSM    H8G16030   2.990   5.159   5.468 -1.5469  0.9644  2.5632
  145OSM    C9F16031   2.816   5.152   5.338  0.5373  0.2400  0.5355
  145OSM    H9F16032   2.768   5.246   5.368 -1.9050 -1.0480  0.8223
  145OSM   C10F16033   2.803   5.115   5.215  0.2850  0.8718  0.2789
  145OSM   H10F16034   2.729   5.164   5.150  0.4404  0.0319 -0.5481
  145OSM   C11F16035   2.847   4.989   5.155 -0.2413  0.0174  0.2869
  145OSM   H11F16036   2.897   4.921   5.228 -0.3213 -0.4389 -0.0826
  145OSM   H11G16037   2.926   5.024   5.086 -0.8997 -2.0585 -1.6271
  145OSM   C12F16038   2.738   4.909   5.097 -0.1861 -0.3062  0.3408
  145OSM   H12F16039   2.665   4.879   5.175  1.3094  0.0631  1.9717
  145OSM   H12G16040   2.766   4.809   5.058 -1.1849  0.2901 -2.0242
  145OSM   C13F16041   2.694   4.966   4.965 -0.4094  0.1718 -0.5790
  145OSM   H13F16042   2.791   4.995   4.920 -0.0861 -0.9415 -0.6281
  145OSM   H13G16043   2.641   5.062   4.985 -0.3573 -0.1441  1.2838
  145OSM   C14F16044   2.612   4.873   4.871  0.0570 -0.1964  0.0448
  145OSM   H14F16045   2.520   4.826   4.911 -0.7532  1.6755  0.5073
  145OSM   H14G16046   2.679   4.787   4.851  0.9910  0.9029 -1.8724
  145OSM   C15F16047   2.584   4.940   4.732  0.1606 -0.3957  0.8894
  145OSM   H15F16048   2.583   4.870   4.646 -0.9746 -1.8902  2.0584
  145OSM   H15G16049   2.658   5.022   4.725 -0.2518  0.0317  1.4018
  145OSM   C16F16050   2.451   5.012   4.734  0.4123  0.4905  0.2241
  145OSM   H16F16051   2.423   5.063   4.829 -1.9600  0.0822 -0.1999
  145OSM   H16G16052   2.380   4.929   4.719  0.8879  0.4758 -2.2569
  145OSM   C17F16053   2.429   5.110   4.618  0.0305  0.8075 -0.1959
  145OSM   H17F16054   2.515   5.180   4.607  2.3628 -2.1406 -2.4466
  145OSM   H17G16055   2.341   5.173   4.641 -1.5868 -1.0762 -0.9587
  145OSM   C18F16056   2.391   5.039   4.485  0.3880 -0.5433  0.5433
  145OSM   H18F16057   2.295   4.986   4.502  1.1379 -2.1689 -0.1769
  145OSM   H18G16058   2.458   4.954   4.460  0.1082 -0.7296  0.4242
  145OSM   H18H16059   2.380   5.108   4.399  2.0126  0.0316  0.7573
  146OSM      N16060   1.329   5.561   6.851 -0.4948  0.4087 -0.4418
  146OSM    C1516061   1.242   5.575   6.725  0.2929  0.0222  0.1545
  146OSM   H15A16062   1.209   5.479   6.688 -2.2248  0.6750  0.5368
  146OSM   H15B16063   1.297   5.628   6.649  0.3962 -1.5371 -0.9152
  146OSM   H15C16064   1.153   5.633   6.744  1.2582  0.7984  2.7415
  146OSM    C1416065   1.442   5.455   6.834  0.4485 -0.6523 -0.7557
  146OSM   H14A16066   1.506   5.495   6.757 -1.2735 -0.7259 -2.3010
  146OSM   H14B16067   1.405   5.364   6.789  0.4585 -0.6532 -0.7621
  146OSM   H14C16068   1.496   5.430   6.924  1.8948 -1.0988 -1.7068
  146OSM    C1316069   1.395   5.687   6.870 -0.5796 -0.1322  0.5724
  146OSM   H13A16070   1.460   5.687   6.956 -0.0229 -0.0569  0.1644
  146OSM   H13B16071   1.326   5.766   6.896  0.5195  1.0837 -0.0607
  146OSM   H13C16072   1.451   5.712   6.780 -0.0642  0.1140  0.9565
  146OSM    C1216073   1.248   5.519   6.975  0.4849 -0.1957 -0.1327
  146OSM   H12A16074   1.321   5.507   7.054  0.1339  0.0294  0.2294
  146OSM   H12B16075   1.208   5.419   6.965 -0.2032 -0.0872  1.3369
  146OSM    C1116076   1.134   5.609   7.019 -0.0261 -0.6940 -0.0801
  146OSM   H11A16077   1.176   5.711   7.019 -2.9592  0.6605  1.5739
  146OSM   H11B16078   1.105   5.584   7.123  0.5822 -1.0546  0.0016
  146OSM      P16079   0.915   5.504   6.923 -0.6875 -0.3147  0.1245
  146OSM    O1316080   0.972   5.370   6.951 -0.7543  0.0906 -0.7802
  146OSM    O1416081   0.804   5.547   7.009  0.0991 -0.2850  0.6675
  146OSM    O1116082   0.875   5.509   6.776 -0.5663 -0.0966 -0.8211
  146OSM    O1216083   1.022   5.609   6.932 -0.8171  0.1755 -0.2588
  146OSM    C1S16084   0.872   5.625   6.687  0.3313 -0.4554  0.7776
  146OSM    H1S16085   0.968   5.681   6.686 -0.7385  1.4609  1.2428
  146OSM    H1T16086   0.790   5.695   6.714  1.0030  1.3223 -1.4900
  146OSM     NF16087   0.812   5.711   6.467  0.1815  0.6695  0.0845
  146OSM    HNF16088   0.717   5.726   6.439 -0.4114 -2.5852 -0.0024
  146OSM    C2S16089   0.834   5.585   6.544 -0.7129 -0.2599  0.3028
  146OSM    H2S16090   0.929   5.537   6.514 -0.4298 -0.3424  1.3115
  146OSM    C3S16091   0.724   5.479   6.535 -0.5515  0.7607 -0.3012
  146OSM    H3S16092   0.623   5.506   6.574 -1.8408 -1.8520 -1.5807
  146OSM     O316093   0.759   5.358   6.603  0.0867 -0.2847 -0.1940
  146OSM    HO316094   0.820   5.380   6.673  0.3491 -2.1277  0.2109
  146OSM    C4S16095   0.718   5.443   6.389  0.2620  0.2256 -0.2202
  146OSM    H4S16096   0.802   5.386   6.345 -0.7914  0.0689 -2.1101
  146OSM    C5S16097   0.609   5.469   6.313  0.2735  0.0825  0.4596
  146OSM    H5S16098   0.527   5.516   6.369 -0.2476 -1.2438  0.8367
  146OSM    C6S16099   0.586   5.444   6.172 -0.2830 -0.1074  0.8730
  146OSM    H6S16100   0.485   5.409   6.142  0.4865  0.3286 -2.8030
  146OSM    H6T16101   0.647   5.358   6.136  0.7302  1.9129 -2.8809
  146OSM    C7S16102   0.642   5.560   6.082 -0.5297 -1.2098 -0.2338
  146OSM    H7S16103   0.752   5.576   6.092 -0.7592  0.3330  0.0851
  146OSM    H7T16104   0.594   5.652   6.123  0.2827  0.4795 -2.7824
  146OSM    C8S16105   0.612   5.539   5.933 -0.2904  0.5094  0.2154
  146OSM    H8S16106   0.507   5.506   5.926  0.0767 -0.4711 -1.0714
  146OSM    H8T16107   0.668   5.458   5.880 -2.2937 -1.3393  0.7641
  146OSM    C9S16108   0.635   5.654   5.836  0.3881 -0.0932  0.8637
  146OSM    H9S16109   0.734   5.693   5.868  1.4550 -1.5796 -0.4678
  146OSM    H9T16110   0.555   5.730   5.843 -0.1701 -0.7951  3.0839
  146OSM   C10S16111   0.658   5.610   5.692 -1.0206 -0.0343 -0.0541
  146OSM   H10S16112   0.728   5.524   5.681  0.0219  0.9801 -1.7817
  146OSM   H10T16113   0.695   5.700   5.640  0.9171 -0.1638  1.0435
  146OSM   C11S16114   0.533   5.572   5.606  0.2142 -0.3533 -0.6495
  146OSM   H11S16115   0.447   5.636   5.633 -0.1811 -1.5012  1.0211
  146OSM   H11T16116   0.504   5.467   5.630  0.9538 -0.7142 -1.3005
  146OSM   C12S16117   0.552   5.578   5.450  0.4583 -0.2078 -0.9271
  146OSM   H12S16118   0.614   5.491   5.419  0.9338 -0.8354  1.5439
  146OSM   H12T16119   0.599   5.674   5.419 -1.5575  0.8089 -1.0127
  146OSM   C13S16120   0.422   5.577   5.373  0.4035  0.6237 -0.8151
  146OSM   H13S16121   0.342   5.635   5.425 -0.9823 -0.9775 -1.0579
  146OSM   H13T16122   0.388   5.472   5.374  1.2324  0.3485 -0.9280
  146OSM   C14S16123   0.436   5.624   5.228 -0.8039  0.1513 -0.5944
  146OSM   H14S16124   0.534   5.580   5.198 -1.0294 -1.5402  0.9159
  146OSM   H14T16125   0.446   5.734   5.234  1.2662  0.2636 -3.7835
  146OSM   C15S16126   0.320   5.570   5.149 -0.0633  0.1855  0.2867
  146OSM   H15S16127   0.225   5.593   5.202 -1.2958  0.6276 -1.9758
  146OSM   H15T16128   0.332   5.460   5.155  2.5225  0.4367  1.0134
  146OSM   C16S16129   0.316   5.603   4.999 -0.5712  0.3280 -0.7673
  146OSM   H16S16130   0.423   5.616   4.973 -0.5361 -0.6016 -1.1349
  146OSM   H16T16131   0.256   5.690   4.967 -0.5909 -0.0646 -1.8241
  146OSM   C17S16132   0.271   5.480   4.926  0.1363 -0.5390 -0.0295
  146OSM   H17S16133   0.177   5.443   4.971  1.8753 -1.5861  3.0297
  146OSM   H17T16134   0.347   5.400   4.942  0.5055  0.1158  1.7033
  146OSM   C18S16135   0.266   5.510   4.772  0.1365  0.0950 -0.3651
  146OSM   H18S16136   0.255   5.420   4.707  1.1130  1.0639 -1.9439
  146OSM   H18T16137   0.361   5.561   4.744 -0.0627  0.2712 -0.7287
  146OSM   H18U16138   0.177   5.568   4.741  1.2229  1.5026 -0.9601
  146OSM    C1F16139   0.911   5.789   6.419  0.6771  1.0949 -0.3472
  146OSM     OF16140   1.026   5.784   6.463 -0.0631  0.6502 -0.7976
  146OSM    C2F16141   0.878   5.897   6.316  0.7424  0.5289  0.1373
  146OSM    H2F16142   0.927   5.989   6.353 -1.5282  0.7810  2.7930
  146OSM    H2G16143   0.770   5.915   6.301  0.5550  0.6998  1.5456
  146OSM    C3F16144   0.943   5.846   6.183 -0.2065 -0.3708 -0.0811
  146OSM    H3F16145   0.898   5.755   6.139  0.0883 -0.0739 -1.0419
  146OSM    H3G16146   1.053   5.831   6.187 -0.0709 -0.4992 -2.5171
  146OSM    C4F16147   0.913   5.954   6.081 -0.5949 -0.2021  0.5558
  146OSM    H4F16148   0.980   6.042   6.098  0.2953 -1.0366  1.4696
  146OSM    H4G16149   0.808   5.991   6.086 -0.1870  0.9304  1.3322
  146OSM    C5F16150   0.934   5.909   5.936 -0.0880  0.2302  0.9737
  146OSM    H5F16151   0.870   5.820   5.923  0.8354 -0.4179  0.7318
  146OSM    H5G16152   1.037   5.866   5.931 -0.4879 -0.6190 -0.8294
  146OSM    C6F16153   0.909   6.013   5.825 -0.9921 -0.0764 -0.4641
  146OSM    H6F16154   1.006   6.060   5.799 -0.4643 -0.2475  1.1201
  146OSM    H6G16155   0.832   6.087   5.858 -0.3747 -0.0483  0.9884
  146OSM    C7F16156   0.868   5.949   5.695 -0.7773 -0.0740 -0.2212
  146OSM    H7F16157   0.779   5.891   5.726 -0.3342  0.2716  1.8909
  146OSM    H7G16158   0.942   5.871   5.667 -0.4318 -0.3786  1.3981
  146OSM    C8F16159   0.841   6.056   5.582  0.7106 -0.1647  0.3292
  146OSM    H8F16160   0.939   6.107   5.568 -0.2908  1.7954  0.1712
  146OSM    H8G16161   0.770   6.127   5.629  1.0567  1.2993 -1.2476
  146OSM    C9F16162   0.787   5.990   5.461  0.5460 -0.1560  0.4328
  146OSM    H9F16163   0.678   5.977   5.461  0.7295 -1.8886 -0.4325
  146OSM   C10F16164   0.861   5.937   5.358  0.0711  0.7393  0.4452
  146OSM   H10F16165   0.808   5.897   5.271 -0.3802  0.2224  0.9576
  146OSM   C11F16166   1.008   5.944   5.350  0.3579 -0.6483  0.4556
  146OSM   H11F16167   1.045   5.851   5.397  0.4585 -1.3865 -1.0134
  146OSM   H11G16168   1.059   6.034   5.391  1.0856 -0.3622 -0.9872
  146OSM   C12F16169   1.060   5.959   5.203  0.1263  0.2307 -0.2566
  146OSM   H12F16170   1.008   5.886   5.137  1.3031 -1.1222  0.2731
  146OSM   H12G16171   1.168   5.931   5.207  0.1362  0.4252  0.9990
  146OSM   C13F16172   1.037   6.098   5.144 -0.4652  0.3488 -0.3154
  146OSM   H13F16173   1.101   6.174   5.194 -0.5366  0.1738  0.0393
  146OSM   H13G16174   0.931   6.121   5.166 -0.9590 -1.0344 -1.1230
  146OSM   C14F16175   1.072   6.106   4.997 -0.1696  0.1336  1.2108
  146OSM   H14F16176   1.171   6.057   4.987  0.2344  0.9769  0.9916
  146OSM   H14G16177   0.986   6.060   4.944 -0.1150  0.4766  0.8201
  146OSM   C15F16178   1.080   6.255   4.947 -0.3152 -0.3639  0.1821
  146OSM   H15F16179   1.175   6.301   4.979 -0.1319 -0.1375 -0.6606
  146OSM   H15G16180   1.003   6.326   4.984  0.2283  0.4159 -0.1652
  146OSM   C16F16181   1.102   6.255   4.796  0.5427 -0.8171 -0.1722
  146OSM   H16F16182   1.010   6.207   4.757 -0.5969 -1.1391  2.6776
  146OSM   H16G16183   1.181   6.181   4.768  1.4968  0.3851 -0.7472
  146OSM   C17F16184   1.121   6.395   4.738 -0.5736  0.2078 -0.4411
  146OSM   H17F16185   1.210   6.446   4.779 -1.4991  0.8054  0.8820
  146OSM   H17G16186   1.033   6.459   4.762 -1.0051 -0.3204 -0.5775
  146OSM   C18F16187   1.135   6.394   4.583 -0.5076  0.7235  0.0760
  146OSM   H18F16188   1.226   6.342   4.548 -0.9462  1.2063 -1.9138
  146OSM   H18G16189   1.132   6.493   4.533 -1.7517  0.0783 -1.1886
  146OSM   H18H16190   1.041   6.346   4.547 -0.7155  1.7912 -0.8733
  147OSM      N16191   1.349   6.449   2.407  0.3962 -0.2199  0.0624
  147OSM    C1516192   1.361   6.534   2.284 -0.0740 -0.1480 -0.1131
  147OSM   H15A16193   1.262   6.568   2.259  0.7928  1.5061 -1.4556
  147OSM   H15B16194   1.411   6.489   2.199  0.0182  0.8384 -0.5949
  147OSM   H15C16195   1.420   6.621   2.312  0.7478 -0.8142  0.2936
  147OSM    C1416196   1.313   6.519   2.537 -0.2710 -0.0367 -0.2083
  147OSM   H14A16197   1.212   6.558   2.541  0.5014  2.0884  0.6416
  147OSM   H14B16198   1.382   6.601   2.548 -0.7127  0.2087  0.9499
  147OSM   H14C16199   1.323   6.452   2.621  1.0006 -1.1259 -1.1819
  147OSM    C1316200   1.238   6.348   2.381  0.0725 -0.2276  0.5921
  147OSM   H13A16201   1.255   6.278   2.301  0.1934  0.7393 -0.2391
  147OSM   H13B16202   1.140   6.388   2.361 -0.0950 -1.1340 -0.4715
  147OSM   H13C16203   1.226   6.285   2.469 -1.1424 -0.2418  0.4256
  147OSM    C1216204   1.484   6.380   2.437 -0.0746  0.2594 -0.1375
  147OSM   H12A16205   1.508   6.328   2.346 -3.6000  1.5975 -2.0390
  147OSM   H12B16206   1.465   6.309   2.516  0.7089  0.2184  0.0265
  147OSM    C1116207   1.602   6.467   2.494  0.0395  0.6204 -0.0279
  147OSM   H11A16208   1.678   6.393   2.526 -0.0355 -0.3943 -2.0910
  147OSM   H11B16209   1.580   6.533   2.581 -1.4351  0.6443 -0.3773
  147OSM      P16210   1.781   6.529   2.311 -0.0341 -0.3949  0.0717
  147OSM    O1316211   1.776   6.388   2.270 -0.1153  0.0496 -0.2435
  147OSM    O1416212   1.794   6.631   2.204 -0.4982  0.1035  0.2788
  147OSM    O1116213   1.899   6.542   2.413  0.5043  0.1391  0.4615
  147OSM    O1216214   1.640   6.554   2.389 -0.7083  0.2590 -0.0982
  147OSM    C1S16215   1.894   6.636   2.528 -0.1311 -0.4919 -0.1260
  147OSM    H1S16216   1.791   6.666   2.559 -0.3817 -1.3970 -0.0371
  147OSM    H1T16217   1.946   6.728   2.497 -1.9826  1.3211  1.8151
  147OSM     NF16218   1.925   6.668   2.770 -0.6194  0.2379  0.2504
  147OSM    HNF16219   1.989   6.726   2.820 -0.3018 -1.5249  2.0436
  147OSM    C2S16220   1.969   6.586   2.652 -0.6533 -0.1433  0.1602
  147OSM    H2S16221   1.934   6.482   2.671  0.0645 -0.3751  0.2198
  147OSM    C3S16222   2.118   6.569   2.627  0.2058 -0.8893 -0.6861
  147OSM    H3S16223   2.157   6.673   2.615  0.2438 -0.6514  1.1251
  147OSM     O316224   2.161   6.513   2.504  0.1479 -0.1532 -0.4985
  147OSM    HO316225   2.085   6.492   2.450  0.2904 -0.8488 -0.4295
  147OSM    C4S16226   2.184   6.504   2.754  0.2174  0.3116 -0.2178
  147OSM    H4S16227   2.201   6.574   2.837 -0.5217 -0.6394  0.7599
  147OSM    C5S16228   2.219   6.374   2.763  0.0797  0.5688  0.1864
  147OSM    H5S16229   2.208   6.305   2.678 -0.0462  0.5311  0.2329
  147OSM    C6S16230   2.284   6.322   2.886  0.3348 -0.0253 -0.0505
  147OSM    H6S16231   2.366   6.251   2.859  1.2163  1.4479 -1.3903
  147OSM    H6T16232   2.203   6.279   2.949  0.6845  0.7615  0.9651
  147OSM    C7S16233   2.362   6.421   2.985  0.2718  0.1743 -0.5746
  147OSM    H7S16234   2.408   6.500   2.922 -1.3744  0.4410 -1.4909
  147OSM    H7T16235   2.444   6.363   3.032 -0.1138 -0.6978 -0.9679
  147OSM    C8S16236   2.276   6.498   3.083  0.6798 -0.0359 -0.4206
  147OSM    H8S16237   2.255   6.435   3.172 -0.7126  0.7236 -0.1818
  147OSM    H8T16238   2.175   6.524   3.044  0.6506  2.6669  1.1875
  147OSM    C9S16239   2.334   6.625   3.130 -0.0998 -0.0199 -0.5076
  147OSM    H9S16240   2.335   6.697   3.045  4.3552 -0.1349 -0.7630
  147OSM    H9T16241   2.438   6.606   3.163 -0.7175 -2.5780  0.1268
  147OSM   C10S16242   2.251   6.681   3.251 -0.5003 -0.2068  0.4004
  147OSM   H10S16243   2.229   6.591   3.312 -1.2556 -0.6779 -0.5417
  147OSM   H10T16244   2.148   6.699   3.212 -0.8195 -0.4475  1.1224
  147OSM   C11S16245   2.301   6.793   3.334 -0.5745 -0.2111 -0.3669
  147OSM   H11S16246   2.317   6.886   3.276  0.6395  0.1990  0.5957
  147OSM   H11T16247   2.400   6.767   3.378 -0.4034  2.0353  0.7051
  147OSM   C12S16248   2.199   6.818   3.453 -0.1421  0.3184  0.0286
  147OSM   H12S16249   2.201   6.727   3.517  0.7983  1.1730  1.2718
  147OSM   H12T16250   2.098   6.835   3.410  0.0798  1.0543 -0.2141
  147OSM   C13S16251   2.238   6.942   3.531  0.2604  0.0641 -0.5788
  147OSM   H13S16252   2.224   7.019   3.452 -0.4367 -0.4710 -0.9962
  147OSM   H13T16253   2.346   6.941   3.554 -0.1345  0.0431  1.4362
  147OSM   C14S16254   2.177   6.955   3.667 -0.7707  0.1299 -0.8128
  147OSM   H14S16255   2.180   6.853   3.711  0.6536  0.4716 -0.0403
  147OSM   H14T16256   2.073   6.994   3.655 -0.6078  0.5742 -0.8163
  147OSM   C15S16257   2.273   7.036   3.763 -0.4153 -0.6176 -0.8341
  147OSM   H15S16258   2.269   7.144   3.737  3.6362 -0.3920 -1.1496
  147OSM   H15T16259   2.376   6.996   3.752 -1.4111 -3.2587 -1.4062
  147OSM   C16S16260   2.225   7.024   3.906 -0.1326 -0.1458  0.2200
  147OSM   H16S16261   2.124   7.071   3.918 -0.6982 -1.1511 -0.4592
  147OSM   H16T16262   2.289   7.092   3.966 -1.6067  0.9346  0.6308
  147OSM   C17S16263   2.228   6.887   3.969  0.0306  0.0901  0.8869
  147OSM   H17S16264   2.327   6.840   3.952 -0.3798 -1.0373  1.4630
  147OSM   H17T16265   2.151   6.830   3.914 -1.3356  1.6861  1.0725
  147OSM   C18S16266   2.205   6.881   4.124  0.4585  0.2107  0.4100
  147OSM   H18S16267   2.291   6.931   4.173  0.7197  2.1517 -1.8748
  147OSM   H18T16268   2.193   6.778   4.164 -0.8647  0.1126 -0.1653
  147OSM   H18U16269   2.116   6.941   4.151  1.6121  2.5821 -0.7802
  147OSM    C1F16270   1.809   6.656   2.826  0.2477 -0.5817 -0.4697
  147OSM     OF16271   1.732   6.568   2.795  0.5617  0.2035 -0.4764
  147OSM    C2F16272   1.784   6.748   2.947  0.1428 -0.1701  0.5254
  147OSM    H2F16273   1.676   6.775   2.951  0.8938  3.0748  2.4221
  147OSM    H2G16274   1.839   6.842   2.930  0.5074 -0.6259 -0.9217
  147OSM    C3F16275   1.826   6.675   3.082 -0.0872 -0.5841 -0.0046
  147OSM    H3F16276   1.934   6.651   3.077 -0.0936 -0.3825 -4.0387
  147OSM    H3G16277   1.777   6.576   3.088 -1.4721 -0.0105 -1.1544
  147OSM    C4F16278   1.774   6.755   3.207 -0.3824  0.3869 -0.1039
  147OSM    H4F16279   1.664   6.771   3.199 -0.4856 -0.3748 -0.3434
  147OSM    H4G16280   1.826   6.852   3.195  0.4568 -0.3003 -2.5999
  147OSM    C5F16281   1.820   6.683   3.332  0.1268 -0.3688 -0.9624
  147OSM    H5F16282   1.929   6.683   3.350  0.1574 -0.3755 -1.1462
  147OSM    H5G16283   1.805   6.573   3.333  0.2469 -0.3814 -0.0307
  147OSM    C6F16284   1.762   6.733   3.469  0.4202 -0.0243 -0.2827
  147OSM    H6F16285   1.654   6.705   3.472  0.1665  0.9093 -0.4981
  147OSM    H6G16286   1.779   6.840   3.489  1.9496 -0.3829  0.4323
  147OSM    C7F16287   1.829   6.658   3.592 -0.9979 -0.5689  0.0282
  147OSM    H7F16288   1.933   6.698   3.591 -1.4573  0.6963 -1.7586
  147OSM    H7G16289   1.824   6.548   3.580 -0.3386 -0.4009 -2.4819
  147OSM    C8F16290   1.756   6.703   3.728 -0.5314  0.1629  0.4916
  147OSM    H8F16291   1.773   6.618   3.798 -0.3401 -0.9725 -0.8648
  147OSM    H8G16292   1.648   6.691   3.704 -0.9105  0.4572  1.9774
  147OSM    C9F16293   1.801   6.841   3.773  0.2003 -0.8418  0.4511
  147OSM    H9F16294   1.818   6.920   3.699  2.1915 -2.8412 -1.3621
  147OSM   C10F16295   1.835   6.870   3.899 -0.4414  0.9260  0.3563
  147OSM   H10F16296   1.874   6.970   3.925  1.2377  0.2385  0.5588
  147OSM   C11F16297   1.835   6.765   4.014 -0.4117  0.3456 -0.2876
  147OSM   H11F16298   1.910   6.789   4.092 -1.7505  0.0875  1.1297
  147OSM   H11G16299   1.871   6.666   3.977  1.7881  1.3674 -1.0688
  147OSM   C12F16300   1.698   6.746   4.084  0.0362 -0.1521  0.2260
  147OSM   H12F16301   1.695   6.645   4.130 -0.4974 -0.0130  0.4925
  147OSM   H12G16302   1.617   6.736   4.009 -0.5052 -1.6559  0.9799
  147OSM   C13F16303   1.668   6.844   4.200  0.0561 -0.0864  0.1612
  147OSM   H13F16304   1.653   6.941   4.148 -4.2807 -1.8635 -2.4764
  147OSM   H13G16305   1.752   6.855   4.271 -1.4573 -0.0038  2.0142
  147OSM   C14F16306   1.537   6.815   4.278 -0.2932 -0.5492 -0.5956
  147OSM   H14F16307   1.518   6.707   4.294  0.7804 -0.3363  3.0128
  147OSM   H14G16308   1.451   6.857   4.221 -0.9436 -1.0833 -0.0336
  147OSM   C15F16309   1.528   6.881   4.424  0.8219 -0.3546 -0.1140
  147OSM   H15F16310   1.534   6.992   4.421 -0.4340 -0.2583  0.3208
  147OSM   H15G16311   1.616   6.850   4.485  0.9364  0.7432  0.3085
  147OSM   C16F16312   1.396   6.848   4.500  0.2018  0.0399 -0.8212
  147OSM   H16F16313   1.309   6.839   4.431  0.8313 -2.3383 -1.3852
  147OSM   H16G16314   1.389   6.929   4.575  1.9454  0.5456 -1.1710
  147OSM   C17F16315   1.433   6.730   4.599  1.0807  0.4718  0.1878
  147OSM   H17F16316   1.530   6.745   4.650  0.6836  3.0751  0.3092
  147OSM   H17G16317   1.450   6.641   4.536 -0.8961  1.4398 -1.8572
  147OSM   C18F16318   1.325   6.698   4.700  0.0154  0.5585  0.1860
  147OSM   H18F16319   1.350   6.605   4.755 -0.2783  0.7144  0.5927
  147OSM   H18G16320   1.222   6.705   4.659 -0.1942 -1.8140  0.1709
  147OSM   H18H16321   1.344   6.771   4.781  1.9767 -0.7975  1.0267
  148OSM      N16322   1.054   0.005   2.033 -0.0493 -0.7490  0.1243
  148OSM    C1516323   1.132  -0.002   1.907 -0.5345  0.3472  0.1194
  148OSM   H15A16324   1.216  -0.065   1.932  0.0624  0.7369 -0.8280
  148OSM   H15B16325   1.173   0.093   1.876  0.5231 -0.0169  0.3656
  148OSM   H15C16326   1.081  -0.042   1.821  2.4925 -1.1274 -1.1234
  148OSM    C1416327   0.953   0.113   2.028  1.1550 -0.0316 -0.3099
  148OSM   H14A16328   1.008   0.203   2.008  1.1820 -0.1183 -0.6292
  148OSM   H14B16329   0.894   0.135   2.115 -0.1236  2.1455 -1.6415
  148OSM   H14C16330   0.893   0.119   1.938 -0.0549  0.7811  0.5329
  148OSM    C1316331   0.984  -0.127   2.053  0.6032  0.3774  0.3531
  148OSM   H13A16332   0.909  -0.145   1.977 -0.6275 -0.3597  1.6942
  148OSM   H13B16333   0.930  -0.129   2.146  0.1339  0.7347  0.0946
  148OSM   H13C16334   1.051  -0.210   2.069 -0.3238 -0.1448  1.7145
  148OSM    C1216335   1.145   0.030   2.148  0.7871  0.0052 -0.4907
  148OSM   H12A16336   1.190   0.127   2.133  2.0204 -0.4653  0.0030
  148OSM   H12B16337   1.235  -0.028   2.145  2.2190  1.7547  2.6163
  148OSM    C1116338   1.088   0.013   2.294 -0.0657  0.4770 -0.8493
  148OSM   H11A16339   1.003   0.082   2.312  0.2911  0.9026 -0.7648
  148OSM   H11B16340   1.172   0.046   2.360 -0.1684  1.9325 -1.3986
  148OSM      P16341   0.960  -0.180   2.419  0.0037 -0.0745 -0.1840
  148OSM    O1316342   0.862  -0.249   2.342 -0.7870  0.4977  0.4211
  148OSM    O1416343   1.035  -0.256   2.525 -0.2230  0.0746  0.0027
  148OSM    O1116344   0.886  -0.056   2.481 -0.4711  0.4636 -0.5923
  148OSM    O1216345   1.059  -0.121   2.320  0.0046 -0.0570 -0.0577
  148OSM    C1S16346   0.781  -0.069   2.575  0.3022  0.5392 -0.4632
  148OSM    H1S16347   0.814  -0.122   2.667 -0.1503  0.7226 -0.1907
  148OSM    H1T16348   0.703  -0.130   2.524  0.9176  0.0932 -0.8901
  148OSM     NF16349   0.663   0.067   2.753 -0.4746  0.7069 -0.5008
  148OSM    HNF16350   0.568   0.098   2.752 -0.8394 -0.3263  0.0825
  148OSM    C2S16351   0.731   0.072   2.624 -0.7078  0.5696  0.1752
  148OSM    H2S16352   0.821   0.136   2.630 -0.6982  0.6880 -1.0429
  148OSM    C3S16353   0.645   0.147   2.526  0.1869 -0.0267  0.0280
  148OSM    H3S16354   0.547   0.098   2.506  0.0689  0.3784 -0.3978
  148OSM     O316355   0.706   0.138   2.400  0.3686 -0.1352 -0.0463
  148OSM    HO316356   0.776   0.073   2.409  0.0620 -0.4282  0.2567
  148OSM    C4S16357   0.614   0.292   2.566 -0.2885  0.5328 -0.3723
  148OSM    H4S16358   0.706   0.353   2.561  0.7655 -0.9909 -0.3288
  148OSM    C5S16359   0.496   0.344   2.581 -0.4789 -0.5751  0.5834
  148OSM    H5S16360   0.407   0.282   2.562 -0.6180  0.1188 -1.1774
  148OSM    C6S16361   0.484   0.495   2.600  0.0750  0.5139  0.6982
  148OSM    H6S16362   0.467   0.536   2.498 -1.8788  1.6369  1.4035
  148OSM    H6T16363   0.575   0.548   2.633  0.2918 -0.5812  1.9436
  148OSM    C7S16364   0.370   0.532   2.689 -0.7563  0.5328 -0.1318
  148OSM    H7S16365   0.383   0.495   2.793  1.7766  0.4072 -0.4498
  148OSM    H7T16366   0.285   0.482   2.637  0.5073  1.0532 -2.8680
  148OSM    C8S16367   0.344   0.684   2.697  0.4448  0.2902 -0.5075
  148OSM    H8S16368   0.257   0.697   2.764  1.1604  0.6657  0.3761
  148OSM    H8T16369   0.315   0.717   2.595  1.9315  1.3576 -0.6189
  148OSM    C9S16370   0.456   0.775   2.747 -0.2090  1.0068  0.7377
  148OSM    H9S16371   0.539   0.760   2.675 -0.5704 -0.5461  0.6140
  148OSM    H9T16372   0.488   0.723   2.840  0.2449 -1.4539 -0.7001
  148OSM   C10S16373   0.418   0.912   2.784 -0.1579 -0.6804  1.1047
  148OSM   H10S16374   0.332   0.914   2.855 -1.1808 -0.8446 -0.1036
  148OSM   H10T16375   0.384   0.957   2.689 -0.6499 -0.4850  1.3671
  148OSM   C11S16376   0.536   0.990   2.844 -0.0710 -0.6157  0.0691
  148OSM   H11S16377   0.611   0.985   2.762  0.9916  3.2600  0.5977
  148OSM   H11T16378   0.584   0.935   2.929  0.7184  0.6960  0.5034
  148OSM   C12S16379   0.490   1.133   2.886  0.0291  0.1822 -0.3155
  148OSM   H12S16380   0.385   1.146   2.921 -0.9799  2.7762 -3.7414
  148OSM   H12T16381   0.499   1.196   2.795  0.3602  0.0965 -0.3423
  148OSM   C13S16382   0.583   1.190   2.994 -0.4210 -0.5763 -0.3443
  148OSM   H13S16383   0.573   1.300   2.980  1.8630 -0.1493  0.9201
  148OSM   H13T16384   0.687   1.157   2.972 -0.2035  0.0360 -0.2567
  148OSM   C14S16385   0.529   1.153   3.133  0.3408  0.2056 -0.4591
  148OSM   H14S16386   0.520   1.043   3.144  0.8377  0.1146 -0.8888
  148OSM   H14T16387   0.427   1.196   3.137  0.1899 -0.1394 -0.5493
  148OSM   C15S16388   0.615   1.205   3.256 -0.0256  0.2644  0.4316
  148OSM   H15S16389   0.643   1.311   3.238  0.1389  0.0441 -0.7453
  148OSM   H15T16390   0.704   1.138   3.261 -0.7698 -0.8739 -0.7929
  148OSM   C16S16391   0.527   1.201   3.385  0.9413 -0.0684  0.4577
  148OSM   H16S16392   0.502   1.098   3.417  0.9489 -0.1459  0.2123
  148OSM   H16T16393   0.433   1.250   3.352  0.5805 -0.1131  1.3913
  148OSM   C17S16394   0.585   1.261   3.511  0.4177  0.0342 -0.7500
  148OSM   H17S16395   0.693   1.235   3.519 -0.0224 -1.7895 -0.3001
  148OSM   H17T16396   0.530   1.219   3.598  1.1784  3.1560  1.4203
  148OSM   C18S16397   0.575   1.405   3.529  0.3470  0.4512  0.6146
  148OSM   H18S16398   0.635   1.452   3.448 -1.0155 -2.9500 -2.6952
  148OSM   H18T16399   0.629   1.436   3.621  1.1838 -0.5575  0.4836
  148OSM   H18U16400   0.471   1.444   3.524  0.6407  1.2547 -3.7857
  148OSM    C1F16401   0.715   0.014   2.865  0.0865  0.0440  0.1002
  148OSM     OF16402   0.841   0.004   2.881  0.9626  0.3203 -0.1343
  148OSM    C2F16403   0.619  -0.035   2.969 -0.6239  0.5689 -0.5585
  148OSM    H2F16404   0.587  -0.138   2.940 -0.9677  0.5442 -0.0952
  148OSM    H2G16405   0.528   0.027   2.967 -1.0706 -0.0779 -2.1142
  148OSM    C3F16406   0.687  -0.015   3.105 -0.0995  0.4622  0.2965
  148OSM    H3F16407   0.704   0.095   3.111 -2.1485  0.8022  0.6991
  148OSM    H3G16408   0.788  -0.060   3.111  0.3012  1.1574 -0.9491
  148OSM    C4F16409   0.603  -0.074   3.220 -0.1478  0.0545 -0.3973
  148OSM    H4F16410   0.591  -0.182   3.195  0.5128 -0.0982 -0.0514
  148OSM    H4G16411   0.502  -0.027   3.226  1.6303  4.0211  1.9824
  148OSM    C5F16412   0.669  -0.028   3.358 -0.8696  0.1484  0.7988
  148OSM    H5F16413   0.670   0.083   3.366 -1.7550  0.2041  0.2397
  148OSM    H5G16414   0.771  -0.071   3.347 -0.6449  1.4133 -4.5805
  148OSM    C6F16415   0.578  -0.064   3.476  0.9015  0.0591 -0.2057
  148OSM    H6F16416   0.564  -0.174   3.482 -0.2656  0.2593  1.0812
  148OSM    H6G16417   0.475  -0.026   3.463  0.0401 -1.6978  1.1192
  148OSM    C7F16418   0.637  -0.006   3.601 -0.2110  0.0386  0.4198
  148OSM    H7F16419   0.628   0.103   3.617 -0.1406  0.1876 -0.5329
  148OSM    H7G16420   0.746  -0.031   3.606 -0.0108  0.8291  0.0825
  148OSM    C8F16421   0.581  -0.082   3.727 -0.5648 -0.9345 -0.0071
  148OSM    H8F16422   0.652  -0.075   3.812 -0.0903 -1.4650 -0.3507
  148OSM    H8G16423   0.582  -0.189   3.699 -0.6315 -0.7581 -0.6955
  148OSM    C9F16424   0.447  -0.020   3.756  0.1979 -0.1782 -0.2277
  148OSM    H9F16425   0.383   0.022   3.678 -0.4646  1.4107  1.1083
  148OSM   C10F16426   0.399  -0.026   3.885 -0.0879  0.6254  0.8420
  148OSM   H10F16427   0.308   0.027   3.916  1.4145  2.4964  2.2915
  148OSM   C11F16428   0.452  -0.101   4.011  0.1256 -0.5019  0.1878
  148OSM   H11F16429   0.544  -0.161   3.992  1.2154  0.4953  2.0295
  148OSM   H11G16430   0.378  -0.170   4.058 -0.7104  1.2699  1.5834
  148OSM   C12F16431   0.499   0.009   4.115  0.1030  1.2076  0.8297
  148OSM   H12F16432   0.554  -0.039   4.199  0.4962  0.8937  0.4004
  148OSM   H12G16433   0.412   0.067   4.152  0.4625  2.1384  0.2581
  148OSM   C13F16434   0.592   0.113   4.047 -0.4132  0.4476 -0.5471
  148OSM   H13F16435   0.538   0.157   3.961  0.9273 -0.5890 -1.9774
  148OSM   H13G16436   0.676   0.053   4.007 -0.9513  0.2908 -1.4818
  148OSM   C14F16437   0.627   0.230   4.147  1.0497  0.3149  0.4088
  148OSM   H14F16438   0.673   0.177   4.232 -1.4585  1.0163  2.3130
  148OSM   H14G16439   0.530   0.277   4.173  1.4734  0.6605  1.3870
  148OSM   C15F16440   0.710   0.343   4.078  0.6193 -0.2991  0.2678
  148OSM   H15F16441   0.656   0.355   3.982 -1.8316 -2.3656  1.2868
  148OSM   H15G16442   0.817   0.323   4.056  0.7450  0.5369  0.0662
  148OSM   C16F16443   0.717   0.472   4.162 -0.7723 -0.2713  0.3374
  148OSM   H16F16444   0.824   0.477   4.191 -0.2520 -0.2618 -1.4475
  148OSM   H16G16445   0.647   0.446   4.244 -0.1084  0.3925  1.1360
  148OSM   C17F16446   0.680   0.604   4.089  0.5121 -0.4287  0.0450
  148OSM   H17F16447   0.572   0.598   4.063  1.0405 -1.3604 -2.1092
  148OSM   H17G16448   0.729   0.608   3.990 -1.1318 -0.2763 -0.7956
  148OSM   C18F16449   0.707   0.732   4.164  0.0548 -0.0915  0.0967
  148OSM   H18F16450   0.692   0.817   4.094  0.8824 -0.3447 -0.3975
  148OSM   H18G16451   0.812   0.738   4.200  0.3308  2.1632 -0.9246
  148OSM   H18H16452   0.637   0.735   4.251 -0.9590  1.5414 -0.7333
  149OSM      N16453   2.695   5.534   2.055  0.7866  0.0348  0.1257
  149OSM    C1516454   2.700   5.388   2.043  0.2911  0.0519 -0.5810
  149OSM   H15A16455   2.637   5.345   2.119 -0.0753  0.8094 -0.4402
  149OSM   H15B16456   2.800   5.350   2.056  0.2071  0.2020  0.6830
  149OSM   H15C16457   2.662   5.353   1.948 -2.5895  3.9626 -1.1229
  149OSM    C1416458   2.813   5.567   2.132 -0.4625  0.0754 -0.3104
  149OSM   H14A16459   2.808   5.521   2.229  2.3116  0.0508 -0.0977
  149OSM   H14B16460   2.817   5.674   2.150  0.2519 -0.2552  1.6929
  149OSM   H14C16461   2.903   5.537   2.081 -0.4423  0.5054 -0.5334
  149OSM    C1316462   2.706   5.590   1.913  0.1458 -0.2972 -0.4506
  149OSM   H13A16463   2.627   5.568   1.843  0.1048  0.0159 -0.5042
  149OSM   H13B16464   2.791   5.552   1.858 -0.7550  0.6808 -2.6490
  149OSM   H13C16465   2.714   5.698   1.910 -3.6322  0.1719  1.0268
  149OSM    C1216466   2.567   5.592   2.111  0.3107 -0.8750 -0.3325
  149OSM   H12A16467   2.487   5.577   2.040  0.0536  1.7285 -0.6976
  149OSM   H12B16468   2.579   5.699   2.101 -0.7878 -0.9491 -3.7573
  149OSM    C1116469   2.527   5.560   2.253 -0.1511 -0.2247 -0.1143
  149OSM   H11A16470   2.431   5.614   2.270  0.7752  0.8452  2.1095
  149OSM   H11B16471   2.603   5.598   2.324 -1.0925  1.1983  0.1860
  149OSM      P16472   2.378   5.348   2.247  0.1397 -0.6158 -0.4471
  149OSM    O1316473   2.290   5.422   2.157  0.5232  0.4088 -0.2609
  149OSM    O1416474   2.421   5.209   2.208 -0.1662  0.6787 -0.5410
  149OSM    O1116475   2.312   5.344   2.386 -0.1448 -0.2243 -0.4051
  149OSM    O1216476   2.506   5.424   2.275 -0.1131 -0.6103  0.3930
  149OSM    C1S16477   2.275   5.235   2.464 -0.9304 -0.0086 -0.0201
  149OSM    H1S16478   2.329   5.143   2.433 -2.3997  0.2093 -3.7055
  149OSM    H1T16479   2.167   5.212   2.450 -1.3897  1.7024  0.3873
  149OSM     NF16480   2.248   5.141   2.695 -0.1653 -0.0276  0.0019
  149OSM    HNF16481   2.161   5.150   2.742 -0.9082 -0.1462 -1.3154
  149OSM    C2S16482   2.288   5.261   2.619  0.4764  0.8906 -0.5020
  149OSM    H2S16483   2.395   5.272   2.649  0.8846  1.6104 -2.1127
  149OSM    C3S16484   2.201   5.390   2.666 -0.2947 -0.6201  0.8745
  149OSM    H3S16485   2.100   5.379   2.622  0.3837 -0.5766 -0.7520
  149OSM     O316486   2.256   5.509   2.607 -0.7767 -0.1158 -0.4790
  149OSM    HO316487   2.298   5.478   2.526  1.4465  0.5411  0.3639
  149OSM    C4S16488   2.203   5.395   2.816  0.5040  0.2368  0.5125
  149OSM    H4S16489   2.115   5.341   2.853 -0.3850  0.6393 -0.9189
  149OSM    C5S16490   2.294   5.447   2.896  0.2827 -0.1435  0.3270
  149OSM    H5S16491   2.371   5.505   2.843  0.6162 -0.9863 -0.1327
  149OSM    C6S16492   2.304   5.431   3.045  0.3814  0.2255  0.6511
  149OSM    H6S16493   2.395   5.369   3.058  0.1731 -0.8799 -2.3965
  149OSM    H6T16494   2.217   5.379   3.091 -0.9184  1.6130 -0.1589
  149OSM    C7S16495   2.343   5.561   3.120  0.8153  0.4193  0.2397
  149OSM    H7S16496   2.270   5.635   3.080  0.0428 -0.1760  0.5280
  149OSM    H7T16497   2.443   5.595   3.086 -0.1862  1.1152 -2.2169
  149OSM    C8S16498   2.335   5.545   3.275 -0.4816 -1.0865  1.1566
  149OSM    H8S16499   2.424   5.486   3.308 -0.4030 -1.5179  0.2169
  149OSM    H8T16500   2.238   5.494   3.296 -0.2594 -1.9853  0.1081
  149OSM    C9S16501   2.340   5.684   3.345 -0.2876  0.9633  0.5058
  149OSM    H9S16502   2.270   5.746   3.285 -0.0545  1.2062  0.4825
  149OSM    H9T16503   2.443   5.725   3.332 -0.1277  0.5405  0.4349
  149OSM   C10S16504   2.298   5.681   3.490 -0.5740  0.7996 -0.0119
  149OSM   H10S16505   2.189   5.660   3.490 -0.2795 -0.8761 -1.3030
  149OSM   H10T16506   2.318   5.780   3.536  0.0133 -0.4176  2.5353
  149OSM   C11S16507   2.377   5.584   3.579  0.2067  0.6183 -0.1517
  149OSM   H11S16508   2.487   5.598   3.575  0.9502 -2.8102  2.8529
  149OSM   H11T16509   2.337   5.488   3.540 -1.3875  0.6507  1.2920
  149OSM   C12S16510   2.334   5.579   3.724 -0.2054  0.6984 -0.2221
  149OSM   H12S16511   2.231   5.537   3.727  0.5095 -1.1151  0.1810
  149OSM   H12T16512   2.337   5.682   3.765 -1.4729  0.8433 -0.4392
  149OSM   C13S16513   2.424   5.482   3.805  0.0877  0.0423 -0.5257
  149OSM   H13S16514   2.529   5.478   3.768 -0.0766 -2.1214 -0.8967
  149OSM   H13T16515   2.393   5.378   3.779  2.2004 -0.1530 -2.5446
  149OSM   C14S16516   2.438   5.507   3.955 -0.0631 -0.6533  0.1797
  149OSM   H14S16517   2.338   5.509   4.004  0.2380 -0.8888  0.8254
  149OSM   H14T16518   2.492   5.602   3.978  0.0972 -0.3499 -1.3581
  149OSM   C15S16519   2.510   5.396   4.039 -0.4287 -0.6217  0.2568
  149OSM   H15S16520   2.494   5.432   4.143  0.7209 -0.0006  0.2406
  149OSM   H15T16521   2.618   5.408   4.013 -0.9016 -0.6857 -1.9329
  149OSM   C16S16522   2.452   5.252   4.027  0.4762  0.1972 -0.2664
  149OSM   H16S16523   2.475   5.224   3.922 -1.7271 -0.8147 -0.5446
  149OSM   H16T16524   2.344   5.248   4.052 -0.2387  0.9684 -2.9442
  149OSM   C17S16525   2.531   5.149   4.105 -0.7392  0.8247 -0.1986
  149OSM   H17S16526   2.540   5.174   4.213 -0.9566 -0.5732  0.1665
  149OSM   H17T16527   2.637   5.141   4.070 -1.9387 -0.7717 -3.9002
  149OSM   C18S16528   2.474   5.004   4.095  0.3307  0.4027 -0.7489
  149OSM   H18S16529   2.521   4.936   4.169 -3.4605 -2.7746 -0.9236
  149OSM   H18T16530   2.484   4.950   3.998 -0.3801  1.2730 -1.3181
  149OSM   H18U16531   2.369   5.011   4.130  1.2683  3.9329  1.9233
  149OSM    C1F16532   2.323   5.028   2.699  0.1815  0.3106 -0.4513
  149OSM     OF16533   2.420   5.007   2.627 -0.1704  0.3030 -0.0297
  149OSM    C2F16534   2.281   4.911   2.772  0.5249 -0.5271  0.0720
  149OSM    H2F16535   2.371   4.851   2.797  0.2339 -0.8483  0.3578
  149OSM    H2G16536   2.218   4.845   2.709  0.0072  0.3916 -0.3989
  149OSM    C3F16537   2.207   4.936   2.904  0.0505  0.4007 -0.1354
  149OSM    H3F16538   2.173   4.837   2.939  1.7213 -0.3846 -0.6254
  149OSM    H3G16539   2.116   4.999   2.891  0.2017  0.7545  0.4923
  149OSM    C4F16540   2.289   5.005   3.015  0.3789  0.8545  0.0791
  149OSM    H4F16541   2.346   5.088   2.969  1.7277  1.2527  2.2958
  149OSM    H4G16542   2.373   4.935   3.035  0.4768  0.6283 -1.0680
  149OSM    C5F16543   2.214   5.058   3.139  0.8235  0.1796  0.1015
  149OSM    H5F16544   2.136   5.127   3.101 -0.3900 -1.4041 -0.3829
  149OSM    H5G16545   2.275   5.124   3.204  0.5284  0.5922 -0.0376
  149OSM    C6F16546   2.153   4.944   3.226  0.9868  0.1125  0.9246
  149OSM    H6F16547   2.236   4.878   3.258  1.8259 -0.1774 -1.6470
  149OSM    H6G16548   2.090   4.891   3.151 -1.0008  0.7084  2.0756
  149OSM    C7F16549   2.060   4.999   3.338  0.0973  0.2522 -0.3182
  149OSM    H7F16550   2.000   5.081   3.293  1.9134  1.5414 -0.5328
  149OSM    H7G16551   2.112   5.043   3.426  0.9157  1.2472 -1.2719
  149OSM    C8F16552   1.959   4.888   3.395  0.4085 -0.4863  0.1541
  149OSM    H8F16553   2.024   4.818   3.451  1.2558  1.2625  1.4522
  149OSM    H8G16554   1.913   4.841   3.306 -0.3606  0.9611 -0.2408
  149OSM    C9F16555   1.840   4.943   3.473 -0.5109 -0.7763  0.1858
  149OSM    H9F16556   1.764   4.987   3.406 -0.3250  1.0110  1.0849
  149OSM   C10F16557   1.826   4.929   3.606  0.2369 -0.1513 -0.3691
  149OSM   H10F16558   1.737   4.964   3.661  0.9885 -0.4206  1.0850
  149OSM   C11F16559   1.942   4.881   3.697  0.4172 -0.0357 -0.6152
  149OSM   H11F16560   2.041   4.891   3.648  0.5728 -0.9041 -0.5007
  149OSM   H11G16561   1.932   4.776   3.732  0.1778  0.2636  0.2227
  149OSM   C12F16562   1.943   4.967   3.820 -0.2610  0.0322 -0.8532
  149OSM   H12F16563   2.011   4.921   3.894 -3.2238 -1.5301  1.0841
  149OSM   H12G16564   1.846   4.983   3.872  0.3021 -0.4340  0.3794
  149OSM   C13F16565   2.001   5.106   3.782  0.3963 -0.0040  0.1780
  149OSM   H13F16566   1.908   5.163   3.760  0.8020  0.7405  0.3587
  149OSM   H13G16567   2.073   5.111   3.697  0.5539  0.4085  0.3348
  149OSM   C14F16568   2.062   5.177   3.903  0.1233  0.6175 -0.7908
  149OSM   H14F16569   2.105   5.275   3.874 -1.3968  1.4785 -0.3004
  149OSM   H14G16570   2.145   5.124   3.953 -1.4487 -0.1878  1.1297
  149OSM   C15F16571   1.948   5.199   4.011 -0.3188  0.0727  0.3150
  149OSM   H15F16572   1.893   5.111   4.052 -2.0997  1.3691  0.8199
  149OSM   H15G16573   1.870   5.263   3.967 -0.5678  1.0605  2.1211
  149OSM   C16F16574   2.013   5.289   4.125  0.5888  0.1981  0.3627
  149OSM   H16F16575   2.049   5.386   4.086 -2.1383  0.5748 -1.3968
  149OSM   H16G16576   2.096   5.223   4.160  0.8112  0.0036 -0.5111
  149OSM   C17F16577   1.922   5.324   4.244  0.6133  0.7416 -0.0094
  149OSM   H17F16578   1.987   5.366   4.324  1.2933  0.1910 -0.2694
  149OSM   H17G16579   1.879   5.228   4.278 -1.3427  0.1674 -3.5720
  149OSM   C18F16580   1.809   5.433   4.225 -0.4150  0.5724 -0.1436
  149OSM   H18F16581   1.857   5.529   4.195  1.1544 -0.0638  0.2525
  149OSM   H18G16582   1.742   5.454   4.312  0.0883 -0.5190  0.5276
  149OSM   H18H16583   1.740   5.396   4.146 -1.3761 -1.2312  1.4578
  150OSM      N16584   5.747   0.245   2.038  0.1757  0.2178 -0.8219
  150OSM    C1516585   5.621   0.168   2.059  0.0300 -0.0204 -0.5435
  150OSM   H15A16586   5.637   0.076   2.113  0.6049 -1.2209 -2.6667
  150OSM   H15B16587   5.564   0.148   1.970 -0.7998 -0.1585  0.0105
  150OSM   H15C16588   5.555   0.229   2.120  2.7387  1.9564  0.6505
  150OSM    C1416589   5.842   0.172   1.952 -0.0790  0.1329  0.4763
  150OSM   H14A16590   5.793   0.113   1.876  0.2670 -2.8035  2.3511
  150OSM   H14B16591   5.882   0.090   2.010  0.0298 -1.0551 -1.2247
  150OSM   H14C16592   5.919   0.234   1.908  0.5857 -0.7906  0.3011
  150OSM    C1316593   5.719   0.374   1.968 -0.1348 -0.2935 -0.6051
  150OSM   H13A16594   5.799   0.445   1.987  1.7364 -2.5447  0.4971
  150OSM   H13B16595   5.622   0.417   1.986  0.2855  0.5140 -0.2047
  150OSM   H13C16596   5.726   0.371   1.861  1.3112  1.1884 -0.6054
  150OSM    C1216597   5.821   0.276   2.170  0.1408 -0.6089  0.0036
  150OSM   H12A16598   5.764   0.357   2.213 -0.0704 -0.4288 -0.5990
  150OSM   H12B16599   5.916   0.323   2.149 -0.0946  1.7728  3.3805
  150OSM    C1116600   5.846   0.167   2.278  0.5768  0.8017  0.0913
  150OSM   H11A16601   5.750   0.121   2.310 -0.2116  1.5060 -1.1804
  150OSM   H11B16602   5.887   0.220   2.367  2.1836  0.1158 -0.1970
  150OSM      P16603   6.086   0.081   2.240 -0.1816 -0.0295 -0.3232
  150OSM    O1316604   6.147  -0.040   2.181 -0.6215  0.2659  0.3107
  150OSM    O1416605   6.128   0.213   2.184 -0.7302  0.0020 -0.4485
  150OSM    O1116606   6.112   0.083   2.392  0.2983 -0.0080 -0.5898
  150OSM    O1216607   5.936   0.065   2.228  0.1813 -0.9526  0.2911
  150OSM    C1S16608   6.078  -0.022   2.482 -0.2093 -0.4224 -0.4823
  150OSM    H1S16609   6.111  -0.124   2.456 -1.1523 -0.7609 -0.4103
  150OSM    H1T16610   5.967  -0.024   2.489 -0.1060 -2.1491  2.8234
  150OSM     NF16611   6.102  -0.124   2.713 -0.3294 -0.3260  0.4440
  150OSM    HNF16612   6.026  -0.118   2.777 -0.0314  1.3635  0.6889
  150OSM    C2S16613   6.122  -0.004   2.631 -0.0537 -0.6678 -0.4614
  150OSM    H2S16614   6.230   0.017   2.637 -0.4302  1.2235  0.2358
  150OSM    C3S16615   6.057   0.129   2.683  0.8524  0.4270  0.5243
  150OSM    H3S16616   5.950   0.110   2.663  0.9305 -0.2500  0.7073
  150OSM     O316617   6.069   0.245   2.601 -0.2372 -0.2911  0.2690
  150OSM    HO316618   6.137   0.217   2.539 -0.3016 -1.2243  0.5958
  150OSM    C4S16619   6.077   0.163   2.826 -0.0437  0.4779  0.7511
  150OSM    H4S16620   6.009   0.113   2.896  0.7777 -1.6493  0.1091
  150OSM    C5S16621   6.186   0.226   2.880  0.4043  0.0558  0.6683
  150OSM    H5S16622   6.266   0.261   2.813  0.6128 -0.7613  0.4731
  150OSM    C6S16623   6.203   0.259   3.023 -0.5889 -0.3299  0.8692
  150OSM    H6S16624   6.293   0.321   3.042 -1.6694  1.0082  1.8781
  150OSM    H6T16625   6.209   0.161   3.075  1.6160 -1.3672 -1.1446
  150OSM    C7S16626   6.082   0.338   3.079 -0.1379 -0.9870  0.3086
  150OSM    H7S16627   5.996   0.269   3.091 -0.2730 -1.1553 -1.4242
  150OSM    H7T16628   6.049   0.423   3.015 -0.2912  0.9375  2.7833
  150OSM    C8S16629   6.117   0.391   3.218 -0.4621  0.4025  0.7432
  150OSM    H8S16630   6.195   0.470   3.227 -0.4581  0.3031  1.6777
  150OSM    H8T16631   6.151   0.306   3.281 -0.2195  0.5114  0.7599
  150OSM    C9S16632   5.998   0.466   3.286  0.0646  0.0211  0.5016
  150OSM    H9S16633   5.906   0.403   3.289 -1.3199  1.7225 -2.3006
  150OSM    H9T16634   5.980   0.562   3.234  0.1141  0.4319  1.2385
  150OSM   C10S16635   6.034   0.506   3.432 -0.1431 -0.1276  0.1933
  150OSM   H10S16636   6.076   0.415   3.480 -1.9273 -1.1247 -0.0389
  150OSM   H10T16637   5.939   0.542   3.477 -1.9169 -3.6859 -0.3608
  150OSM   C11S16638   6.137   0.621   3.443  0.2222  0.1658 -0.4136
  150OSM   H11S16639   6.092   0.720   3.421  0.3972 -0.1467 -2.3869
  150OSM   H11T16640   6.225   0.599   3.379  0.3945  1.3051 -0.5840
  150OSM   C12S16641   6.189   0.603   3.592 -0.1245  0.8677 -0.7055
  150OSM   H12S16642   6.248   0.695   3.609 -1.1444  1.3805  0.1948
  150OSM   H12T16643   6.248   0.509   3.598  0.3648  1.1263 -1.3545
  150OSM   C13S16644   6.084   0.606   3.708  0.4153  0.1527 -0.1907
  150OSM   H13S16645   6.014   0.520   3.708  1.2208 -0.5065 -0.0509
  150OSM   H13T16646   6.021   0.696   3.689  2.2881  1.3652 -0.8961
  150OSM   C14S16647   6.145   0.629   3.845  0.3919  0.4676 -0.3654
  150OSM   H14S16648   6.241   0.685   3.842  0.9689 -0.4697  0.2034
  150OSM   H14T16649   6.165   0.529   3.889 -2.2318  1.4270  3.5924
  150OSM   C15S16650   6.033   0.677   3.943 -0.5958  0.2672  0.5724
  150OSM   H15S16651   5.938   0.628   3.911 -0.4611 -0.5030  1.3147
  150OSM   H15T16652   6.025   0.784   3.916  1.0856  0.4331  0.5902
  150OSM   C16S16653   6.060   0.650   4.089  0.5061  0.6656 -0.4303
  150OSM   H16S16654   6.168   0.653   4.115 -0.2322  1.4405  3.0847
  150OSM   H16T16655   6.038   0.542   4.100  1.9302  0.3779 -0.2197
  150OSM   C17S16656   5.961   0.724   4.186  0.1335  0.1517  0.2063
  150OSM   H17S16657   5.868   0.725   4.125 -0.4170 -1.4926  0.9448
  150OSM   H17T16658   6.005   0.823   4.207  1.4349 -0.3776  0.1217
  150OSM   C18S16659   5.932   0.645   4.315 -0.6046  1.0419  0.1600
  150OSM   H18S16660   5.890   0.545   4.289  0.9085  0.0509  1.3101
  150OSM   H18T16661   5.871   0.704   4.386  0.6875 -0.1284  2.3172
  150OSM   H18U16662   6.026   0.620   4.368  0.0171  0.5148 -1.1465
  150OSM    C1F16663   6.173  -0.233   2.706  0.3123 -0.0962  0.3518
  150OSM     OF16664   6.279  -0.244   2.646  0.4921  0.1080 -0.1170
  150OSM    C2F16665   6.117  -0.349   2.782  0.3002  0.1193 -0.0694
  150OSM    H2F16666   6.122  -0.438   2.716  1.4276  0.6460 -0.7157
  150OSM    H2G16667   6.009  -0.330   2.801  0.5053 -0.1503  1.4775
  150OSM    C3F16668   6.186  -0.371   2.915  0.0633  0.5088 -0.2405
  150OSM    H3F16669   6.297  -0.375   2.906  0.4569 -2.5616  3.6254
  150OSM    H3G16670   6.169  -0.476   2.945  2.0482  0.8439  2.4555
  150OSM    C4F16671   6.138  -0.269   3.013  0.6144 -0.6525 -0.8533
  150OSM    H4F16672   6.030  -0.245   3.003  1.1225  1.7014 -1.3701
  150OSM    H4G16673   6.186  -0.173   2.986  1.7338 -1.0980 -0.5103
  150OSM    C5F16674   6.169  -0.306   3.166  0.3332  0.2313  0.4537
  150OSM    H5F16675   6.271  -0.346   3.183  1.7130  2.7450 -1.3601
  150OSM    H5G16676   6.099  -0.376   3.217 -1.3784  0.6428 -1.1852
  150OSM    C6F16677   6.154  -0.177   3.242 -0.2290  0.2001 -0.1162
  150OSM    H6F16678   6.226  -0.102   3.205 -1.6583  1.6622 -0.0597
  150OSM    H6G16679   6.193  -0.186   3.346  0.3139  2.3471 -0.0857
  150OSM    C7F16680   6.012  -0.121   3.247 -0.0243 -0.0248 -0.0906
  150OSM    H7F16681   5.935  -0.199   3.226  0.3878 -0.2888 -0.6839
  150OSM    H7G16682   6.009  -0.049   3.162 -1.0182  0.4569  0.3372
  150OSM    C8F16683   5.990  -0.046   3.376  0.5075 -0.0748  0.0537
  150OSM    H8F16684   6.085  -0.009   3.421  0.4915 -1.5551  1.4004
  150OSM    H8G16685   5.965  -0.128   3.447 -2.8355  0.1610 -0.6964
  150OSM    C9F16686   5.874   0.050   3.361 -0.8012 -0.5274 -0.2924
  150OSM    H9F16687   5.895   0.137   3.296 -0.6116 -0.8648 -0.6881
  150OSM   C10F16688   5.743   0.035   3.394 -0.8819  0.2782 -0.5523
  150OSM   H10F16689   5.672   0.110   3.358  0.0878  1.0257 -0.9491
  150OSM   C11F16690   5.679  -0.079   3.471  0.0674  0.5102 -0.0364
  150OSM   H11F16691   5.750  -0.164   3.467 -2.2610 -1.5968  0.8002
  150OSM   H11G16692   5.581  -0.116   3.434  0.2266  0.3479 -0.2955
  150OSM   C12F16693   5.662  -0.070   3.625  0.7373  0.1068 -0.2886
  150OSM   H12F16694   5.607   0.024   3.647  2.5830  1.3643 -0.8126
  150OSM   H12G16695   5.760  -0.053   3.674  0.8714 -2.3610  0.4185
  150OSM   C13F16696   5.603  -0.199   3.685  0.8706  0.0253  0.4403
  150OSM   H13F16697   5.665  -0.290   3.672 -0.1235 -0.6474  0.3326
  150OSM   H13G16698   5.508  -0.209   3.628 -0.4333  2.1276  2.0816
  150OSM   C14F16699   5.562  -0.193   3.829 -0.2481 -0.0418  0.7518
  150OSM   H14F16700   5.525  -0.293   3.861 -0.8757  0.2609  0.9856
  150OSM   H14G16701   5.498  -0.106   3.852  1.7604  1.6936  0.0989
  150OSM   C15F16702   5.684  -0.183   3.929  0.6428  0.5227  0.0376
  150OSM   H15F16703   5.753  -0.101   3.901 -0.6927  1.1324 -1.6709
  150OSM   H15G16704   5.733  -0.278   3.901 -1.0793 -0.1711 -0.7827
  150OSM   C16F16705   5.641  -0.172   4.076  0.2821  0.1437  0.0655
  150OSM   H16F16706   5.551  -0.237   4.077  1.6754 -1.8904  0.3085
  150OSM   H16G16707   5.629  -0.065   4.103  2.6886  0.0765  1.7616
  150OSM   C17F16708   5.733  -0.237   4.183  0.1300 -0.1106 -0.2601
  150OSM   H17F16709   5.834  -0.191   4.174 -0.4036  0.8177 -1.8363
  150OSM   H17G16710   5.748  -0.346   4.168 -2.7647 -0.6932  0.5118
  150OSM   C18F16711   5.683  -0.215   4.322 -0.5707  0.2492 -0.3364
  150OSM   H18F16712   5.760  -0.166   4.386 -1.4090 -1.1444  1.8918
  150OSM   H18G16713   5.671  -0.310   4.378 -1.6605  1.1396  1.0050
  150OSM   H18H16714   5.584  -0.169   4.338 -0.6658 -0.7459  2.6755
  151OSM      N16715   6.236   6.375   2.181 -0.6622 -0.0414 -0.2214
  151OSM    C1516716   6.339   6.422   2.080 -0.3639  0.1272 -0.5189
  151OSM   H15A16717   6.356   6.344   2.007 -0.4421  0.4387 -0.8773
  151OSM   H15B16718   6.432   6.451   2.126 -0.0705  0.2098 -1.1543
  151OSM   H15C16719   6.296   6.506   2.028 -1.1186 -1.2105 -2.1455
  151OSM    C1416720   6.120   6.327   2.104  0.0195 -0.4263  0.2651
  151OSM   H14A16721   6.146   6.250   2.033  1.7065  0.8258 -0.5476
  151OSM   H14B16722   6.064   6.397   2.043 -1.0956 -2.1580 -0.7931
  151OSM   H14C16723   6.040   6.303   2.173  0.0629 -1.0995  0.0933
  151OSM    C1316724   6.304   6.263   2.248  0.3559  0.4797  0.9452
  151OSM   H13A16725   6.302   6.176   2.184 -1.0446 -0.0487  1.6728
  151OSM   H13B16726   6.248   6.231   2.334 -0.8063 -2.7131 -0.8114
  151OSM   H13C16727   6.410   6.278   2.258  0.5387 -0.3552  0.3725
  151OSM    C1216728   6.186   6.487   2.274  0.0385  0.0369 -0.0978
  151OSM   H12A16729   6.113   6.548   2.223  0.9345  0.1586 -1.2616
  151OSM   H12B16730   6.268   6.553   2.298 -0.5403  0.3299  1.1843
  151OSM    C1116731   6.111   6.448   2.405 -0.6633 -0.2472  0.4670
  151OSM   H11A16732   6.108   6.540   2.467  0.2573  0.0573  0.0714
  151OSM   H11B16733   6.174   6.383   2.469 -1.4325  0.1956  1.7043
  151OSM      P16734   5.856   6.471   2.324  0.2414  0.5070 -0.3455
  151OSM    O1316735   5.887   6.513   2.186 -0.6699  0.2973  0.5525
  151OSM    O1416736   5.746   6.370   2.320 -0.4156  0.3070 -0.6127
  151OSM    O1116737   5.828   6.595   2.418  0.7583 -0.2839  0.8816
  151OSM    O1216738   5.978   6.389   2.378 -0.0877  0.1447  0.1635
  151OSM    C1S16739   5.764   6.577   2.543  0.6157 -0.4053 -0.5878
  151OSM    H1S16740   5.839   6.557   2.622  0.0177  0.9233  0.3694
  151OSM    H1T16741   5.684   6.500   2.544 -1.1596  1.3481 -0.7845
  151OSM     NF16742   5.644   6.699   2.726  0.6383 -0.2068  0.0386
  151OSM    HNF16743   5.552   6.666   2.744  1.1151 -1.2119  0.7123
  151OSM    C2S16744   5.687   6.708   2.587  0.0562  0.4882  0.2500
  151OSM    H2S16745   5.764   6.787   2.574  0.3770  0.2469  0.6376
  151OSM    C3S16746   5.561   6.738   2.492  0.3218 -0.3787  0.5338
  151OSM    H3S16747   5.491   6.655   2.517 -1.4387  0.4913 -1.2023
  151OSM     O316748   5.589   6.740   2.353 -0.2386 -0.1065 -0.1921
  151OSM    HO316749   5.684   6.725   2.352 -0.0202  1.1190 -1.0790
  151OSM    C4S16750   5.499   6.870   2.532 -0.7994 -0.0504  0.2326
  151OSM    H4S16751   5.559   6.962   2.517 -1.6766  0.9640  2.5716
  151OSM    C5S16752   5.374   6.884   2.583  1.0142  0.1134 -0.2383
  151OSM    H5S16753   5.316   6.791   2.592  0.9464  0.3606  2.5572
  151OSM    C6S16754   5.304   7.007   2.624  0.3976 -0.1559  0.4926
  151OSM    H6S16755   5.195   6.993   2.604  0.5204  1.5950 -1.7828
  151OSM    H6T16756   5.329   7.094   2.560  0.0704 -1.2497 -1.2049
  151OSM    C7S16757   5.325   7.045   2.770 -0.5025 -0.2400  0.4276
  151OSM    H7S16758   5.291   7.146   2.800  2.0818  0.5998  0.8270
  151OSM    H7T16759   5.435   7.053   2.785 -0.5187 -0.0246  0.4301
  151OSM    C8S16760   5.281   6.944   2.865  0.1421 -0.3309 -0.4196
  151OSM    H8S16761   5.349   6.856   2.864 -0.8976 -1.1530 -0.1467
  151OSM    H8T16762   5.186   6.904   2.825  1.3182  0.3561 -4.3114
  151OSM    C9S16763   5.251   7.000   3.007  0.4498  0.4414  0.3752
  151OSM    H9S16764   5.158   7.058   2.997  1.0545  1.0791 -2.9960
  151OSM    H9T16765   5.328   7.072   3.041  0.3170  0.5480  0.4469
  151OSM   C10S16766   5.236   6.891   3.113 -0.1702 -0.4165  0.2757
  151OSM   H10S16767   5.330   6.836   3.134  0.3639  1.2976  2.9653
  151OSM   H10T16768   5.158   6.819   3.081 -2.1458  1.5139  0.4880
  151OSM   C11S16769   5.211   6.949   3.250  0.1424  0.0438  0.2120
  151OSM   H11S16770   5.126   7.020   3.260 -0.5371 -0.8018  0.5469
  151OSM   H11T16771   5.308   6.999   3.267 -0.1124  0.5686  0.1540
  151OSM   C12S16772   5.186   6.831   3.343 -0.1777 -0.3812 -0.3590
  151OSM   H12S16773   5.269   6.758   3.338  0.2475 -0.2193  2.6055
  151OSM   H12T16774   5.094   6.784   3.304 -1.5139 -0.0052  2.1302
  151OSM   C13S16775   5.158   6.855   3.489 -0.1448  0.3169  0.3991
  151OSM   H13S16776   5.131   6.759   3.539 -0.1232 -0.5384 -1.1628
  151OSM   H13T16777   5.072   6.923   3.503  0.1151  0.5627  0.7893
  151OSM   C14S16778   5.280   6.893   3.570  0.8825 -1.0835 -0.1033
  151OSM   H14S16779   5.298   7.002   3.560  3.2894 -0.9436  3.7436
  151OSM   H14T16780   5.368   6.836   3.535  1.2235  0.3575 -1.7599
  151OSM   C15S16781   5.258   6.879   3.724 -0.2938 -0.5174  0.2324
  151OSM   H15S16782   5.291   6.778   3.758 -1.3142 -0.0472  2.8251
  151OSM   H15T16783   5.148   6.890   3.739 -0.7420 -1.7180 -1.7463
  151OSM   C16S16784   5.321   6.984   3.807 -0.0286 -0.0920 -0.2500
  151OSM   H16S16785   5.276   7.084   3.788 -0.2449 -0.2516 -0.5923
  151OSM   H16T16786   5.424   6.993   3.768 -0.3038 -2.8839 -1.8694
  151OSM   C17S16787   5.305   6.946   3.954 -0.2209 -0.0775  0.3863
  151OSM   H17S16788   5.316   6.836   3.966 -2.2999 -0.4838 -0.9922
  151OSM   H17T16789   5.207   6.984   3.989 -1.4261 -0.9756 -1.7979
  151OSM   C18S16790   5.410   7.008   4.047  0.0039  0.3293  0.2697
  151OSM   H18S16791   5.396   6.967   4.149 -0.3279 -1.1204 -0.3304
  151OSM   H18T16792   5.394   7.117   4.063  2.2770  0.8209 -0.4326
  151OSM   H18U16793   5.518   6.991   4.028 -0.2462 -0.4045 -0.5570
  151OSM    C1F16794   5.722   6.723   2.831 -0.3283 -0.0821 -0.0928
  151OSM     OF16795   5.835   6.752   2.822 -0.0886  0.7980  0.4115
  151OSM    C2F16796   5.655   6.726   2.969  0.5143 -0.8435  0.3396
  151OSM    H2F16797   5.548   6.756   2.960  0.3419 -0.8360  2.0714
  151OSM    H2G16798   5.705   6.798   3.037  1.8637 -1.0840 -0.3591
  151OSM    C3F16799   5.673   6.585   3.039 -0.1015 -0.2418 -0.3516
  151OSM    H3F16800   5.780   6.556   3.037 -0.3848 -1.4827 -3.2579
  151OSM    H3G16801   5.608   6.516   2.981  1.0942 -0.5296 -1.4031
  151OSM    C4F16802   5.641   6.584   3.187  0.0319 -0.2322  0.3031
  151OSM    H4F16803   5.531   6.598   3.190  0.2532  3.3756 -2.5549
  151OSM    H4G16804   5.687   6.668   3.244  0.5201  0.8510 -1.6205
  151OSM    C5F16805   5.663   6.442   3.249 -0.0510 -0.1266 -0.4123
  151OSM    H5F16806   5.640   6.358   3.180 -1.3582  0.6584 -0.9592
  151OSM    H5G16807   5.593   6.433   3.334 -0.4638  1.5951 -0.5445
  151OSM    C6F16808   5.802   6.429   3.310 -0.1659 -0.2005  0.4219
  151OSM    H6F16809   5.822   6.521   3.368  1.7488 -0.5038  0.3223
  151OSM    H6G16810   5.881   6.415   3.233  1.8363  0.3391  2.2479
  151OSM    C7F16811   5.818   6.304   3.407  0.2942 -0.8264  0.3012
  151OSM    H7F16812   5.778   6.215   3.354  0.1559  0.1863 -1.3457
  151OSM    H7G16813   5.747   6.325   3.490  0.6628  0.8260  0.2297
  151OSM    C8F16814   5.964   6.280   3.455  0.4918  0.5094  0.6280
  151OSM    H8F16815   6.031   6.260   3.369  1.6153  0.7394  1.4349
  151OSM    H8G16816   5.971   6.190   3.519  3.2303  0.8117  0.8603
  151OSM    C9F16817   6.032   6.405   3.520  0.2719  0.0625  0.5662
  151OSM    H9F16818   6.066   6.496   3.467 -3.1875  2.0701  1.4861
  151OSM   C10F16819   6.056   6.429   3.648  0.2480  0.3850  0.5101
  151OSM   H10F16820   6.090   6.529   3.678  3.2028  0.5175 -2.6982
  151OSM   C11F16821   6.020   6.346   3.770 -0.1740  0.0536 -0.3669
  151OSM   H11F16822   6.050   6.239   3.761  2.1434  0.6182 -0.1151
  151OSM   H11G16823   5.910   6.335   3.775 -0.3616  0.5666 -2.4554
  151OSM   C12F16824   6.064   6.391   3.909 -0.2675  0.5733 -0.3333
  151OSM   H12F16825   6.063   6.501   3.928  0.4078  0.1769  2.4679
  151OSM   H12G16826   6.169   6.356   3.907 -0.5620 -0.3094 -0.6806
  151OSM   C13F16827   5.987   6.333   4.027 -0.2638  1.1140 -0.2660
  151OSM   H13F16828   6.021   6.229   4.044 -0.4351  0.1867 -4.3855
  151OSM   H13G16829   5.878   6.343   4.010  0.1820  1.8897 -3.3659
  151OSM   C14F16830   6.035   6.412   4.152 -0.2230  0.1934  0.0760
  151OSM   H14F16831   6.001   6.518   4.153  2.0042  1.0268  2.7191
  151OSM   H14G16832   6.146   6.419   4.151 -0.2527  1.4503 -2.6923
  151OSM   C15F16833   5.984   6.343   4.280  0.0306 -0.1429  0.3083
  151OSM   H15F16834   6.023   6.240   4.292 -1.1792 -0.4575  1.8343
  151OSM   H15G16835   5.873   6.332   4.276  0.1586 -1.3494 -0.7978
  151OSM   C16F16836   6.034   6.413   4.410  0.2692 -0.3143  0.1279
  151OSM   H16F16837   5.980   6.510   4.419  0.3477 -0.3923  1.7336
  151OSM   H16G16838   6.142   6.437   4.408  1.0261 -2.9655  2.3169
  151OSM   C17F16839   6.002   6.345   4.543  0.3660  0.0671  0.0559
  151OSM   H17F16840   6.058   6.249   4.551 -0.5193 -0.4231  0.4665
  151OSM   H17G16841   5.895   6.317   4.552  0.3230  0.9886  3.4727
  151OSM   C18F16842   6.033   6.430   4.671 -0.0648 -0.8991 -0.4088
  151OSM   H18F16843   5.979   6.526   4.684 -0.4753 -1.4508  3.1628
  151OSM   H18G16844   6.140   6.455   4.658  0.4380 -2.2659  0.8592
  151OSM   H18H16845   6.023   6.380   4.770 -0.7720  0.6350  0.3298
  152OSM      N16846   1.617   0.357   2.575 -0.5801  0.1250  0.2632
  152OSM    C1516847   1.483   0.340   2.517 -0.7244 -0.3203  0.8056
  152OSM   H15A16848   1.442   0.438   2.537 -0.0622  0.1992 -0.3095
  152OSM   H15B16849   1.416   0.268   2.561 -1.3419  0.5684  1.3532
  152OSM   H15C16850   1.497   0.315   2.413 -3.1387  0.0026  0.3335
  152OSM    C1416851   1.689   0.223   2.588 -0.0259 -0.4955  0.6706
  152OSM   H14A16852   1.781   0.241   2.641 -1.3655 -0.5878  3.1692
  152OSM   H14B16853   1.716   0.183   2.492  0.0180 -0.1782  0.5478
  152OSM   H14C16854   1.628   0.153   2.643 -1.4520  0.2285  0.0707
  152OSM    C1316855   1.701   0.451   2.491  0.0555  0.2708  0.7957
  152OSM   H13A16856   1.689   0.558   2.498 -0.2321  0.1938  1.4899
  152OSM   H13B16857   1.697   0.419   2.387 -3.0848  0.2760  0.8086
  152OSM   H13C16858   1.804   0.437   2.518  0.4386 -1.3128 -1.2047
  152OSM    C1216859   1.602   0.413   2.716  0.6223 -0.2716  0.6795
  152OSM   H12A16860   1.694   0.394   2.771  2.3972  1.7000 -1.3804
  152OSM   H12B16861   1.536   0.344   2.767 -1.9843  1.6351  0.0883
  152OSM    C1116862   1.546   0.555   2.745 -0.4144 -0.2581 -0.1974
  152OSM   H11A16863   1.510   0.574   2.848 -1.2076  0.2854 -0.5633
  152OSM   H11B16864   1.456   0.576   2.684 -2.2817  1.2225  2.8237
  152OSM      P16865   1.770   0.688   2.806  0.2650  0.1855  0.1867
  152OSM    O1316866   1.842   0.560   2.832  0.4655 -0.4515 -0.6706
  152OSM    O1416867   1.847   0.795   2.736 -0.0445  0.0409 -0.4989
  152OSM    O1116868   1.721   0.742   2.942  0.2640 -0.3441 -0.4106
  152OSM    O1216869   1.643   0.652   2.713  0.4882  0.4181  0.5610
  152OSM    C1S16870   1.625   0.853   2.935  0.4111  0.4140  0.5154
  152OSM    H1S16871   1.525   0.835   2.889 -0.4332 -0.3657  2.5001
  152OSM    H1T16872   1.674   0.943   2.892  2.0414 -1.8061 -2.6376
  152OSM     NF16873   1.467   0.994   3.064  0.3711  0.2412 -0.3928
  152OSM    HNF16874   1.477   1.091   3.085 -1.2111 -0.0012  1.7593
  152OSM    C2S16875   1.580   0.900   3.079 -0.3025  0.2710  0.5212
  152OSM    H2S16876   1.543   0.818   3.145  0.2617  0.9214  1.6744
  152OSM    C3S16877   1.705   0.957   3.145 -0.1347  0.1641 -0.0293
  152OSM    H3S16878   1.739   1.040   3.080  0.1745 -1.3917 -1.9470
  152OSM     O316879   1.827   0.881   3.140 -0.3960 -0.1963  0.1897
  152OSM    HO316880   1.819   0.805   3.083 -0.2122 -1.0348  1.2471
  152OSM    C4S16881   1.671   1.023   3.279 -0.1979  0.5137  0.1581
  152OSM    H4S16882   1.668   1.132   3.281  0.3478  0.5183  1.5239
  152OSM    C5S16883   1.652   0.964   3.400  0.2446 -0.8979  0.0362
  152OSM    H5S16884   1.655   0.855   3.414 -1.3174 -1.0638 -0.7403
  152OSM    C6S16885   1.623   1.043   3.520  0.0914  0.1065 -0.3874
  152OSM    H6S16886   1.516   1.031   3.549  0.4746 -3.2764 -0.0559
  152OSM    H6T16887   1.652   1.147   3.492 -0.1412 -0.5637 -3.4729
  152OSM    C7S16888   1.731   1.005   3.630 -0.0558  0.1440 -0.3045
  152OSM    H7S16889   1.833   1.009   3.584  0.5972  0.5714  1.1347
  152OSM    H7T16890   1.697   0.904   3.661 -2.9615  1.4991  1.3334
  152OSM    C8S16891   1.740   1.094   3.757 -0.4118 -0.0606  0.5874
  152OSM    H8S16892   1.739   1.203   3.734 -0.6436 -0.2682 -0.3982
  152OSM    H8T16893   1.847   1.083   3.787 -0.0396  0.5003 -0.4799
  152OSM    C9S16894   1.634   1.054   3.862 -0.1080 -0.7291  0.3169
  152OSM    H9S16895   1.632   0.945   3.883  1.7332 -1.0764 -1.1312
  152OSM    H9T16896   1.531   1.091   3.839 -0.0057 -0.3717  0.4275
  152OSM   C10S16897   1.681   1.116   3.996  0.6338 -0.0841 -0.0530
  152OSM   H10S16898   1.644   1.220   4.011 -1.1396 -0.8349  1.0352
  152OSM   H10T16899   1.792   1.111   4.002  0.5062 -1.5413  1.9669
  152OSM   C11S16900   1.629   1.033   4.118  0.3424 -0.0897  0.0771
  152OSM   H11S16901   1.652   0.925   4.101  1.3072  0.0753  0.2520
  152OSM   H11T16902   1.519   1.038   4.106  0.3965  1.5966  0.0613
  152OSM   C12S16903   1.669   1.081   4.250 -0.0954 -0.0231 -0.8736
  152OSM   H12S16904   1.620   1.032   4.337  0.2729  0.1407 -0.5728
  152OSM   H12T16905   1.657   1.191   4.250  2.5682  0.3498 -1.8269
  152OSM   C13S16906   1.816   1.055   4.282  0.2004 -0.3897  0.7442
  152OSM   H13S16907   1.873   1.120   4.212 -0.6435 -0.3468  0.0885
  152OSM   H13T16908   1.845   0.948   4.270  0.7914 -0.0870 -0.7987
  152OSM   C14S16909   1.847   1.105   4.429  0.3374 -0.1247 -0.0182
  152OSM   H14S16910   1.795   1.042   4.504  1.8320 -0.8603  0.4331
  152OSM   H14T16911   1.824   1.214   4.429 -2.0600 -0.5534 -1.3933
  152OSM   C15S16912   1.999   1.087   4.460  0.2588 -0.0100  0.3696
  152OSM   H15S16913   2.055   1.132   4.376  3.4114 -1.6900  1.4257
  152OSM   H15T16914   2.024   0.979   4.463  1.5576  0.2898  1.1665
  152OSM   C16S16915   2.038   1.150   4.601 -0.2471 -0.2774  0.7116
  152OSM   H16S16916   1.983   1.246   4.598  0.2846  0.0147 -1.2399
  152OSM   H16T16917   2.147   1.170   4.609 -0.4944  1.2812  0.4890
  152OSM   C17S16918   2.000   1.064   4.715  0.2089  0.2615  0.4345
  152OSM   H17S16919   2.050   0.964   4.712  0.1595  0.2443  0.1894
  152OSM   H17T16920   1.892   1.039   4.715 -0.3523  2.4611  0.5365
  152OSM   C18S16921   2.048   1.123   4.850  0.0298  0.1514 -0.5595
  152OSM   H18S16922   2.066   1.045   4.926 -1.8121 -1.3164 -1.5276
  152OSM   H18T16923   1.984   1.204   4.892 -0.2529 -0.1307 -0.4403
  152OSM   H18U16924   2.145   1.171   4.824 -0.1879  1.1711  0.4312
  152OSM    C1F16925   1.341   0.956   3.054 -0.0204 -1.0871 -0.3759
  152OSM     OF16926   1.301   0.845   3.073 -0.4808  0.3085 -0.1276
  152OSM    C2F16927   1.235   1.059   3.022  0.0114  0.1413  0.1879
  152OSM    H2F16928   1.222   1.043   2.913  1.9565  1.6246 -0.3254
  152OSM    H2G16929   1.265   1.161   3.053  0.3350 -0.7561  3.1467
  152OSM    C3F16930   1.099   1.027   3.077 -0.0517  0.2364 -0.0920
  152OSM    H3F16931   1.056   0.927   3.055  0.3517  0.0014  0.1788
  152OSM    H3G16932   1.017   1.091   3.039  0.4988  0.0044 -1.7896
  152OSM    C4F16933   1.106   1.039   3.232 -0.1652  0.1848  0.0619
  152OSM    H4F16934   1.134   1.142   3.264 -2.3042  0.0032  2.9223
  152OSM    H4G16935   1.187   0.974   3.272  0.7494  1.0978 -0.2626
  152OSM    C5F16936   0.968   1.015   3.308  0.2631  0.1276 -0.1814
  152OSM    H5F16937   0.944   0.908   3.297 -0.1200 -0.4151  4.1894
  152OSM    H5G16938   0.887   1.071   3.257 -0.3227  0.8927  1.5137
  152OSM    C6F16939   0.954   1.055   3.464 -0.3678  0.3300  0.0757
  152OSM    H6F16940   0.991   0.968   3.522  1.7277 -0.8192 -2.7638
  152OSM    H6G16941   0.845   1.042   3.482 -0.1957 -0.5736  0.5507
  152OSM    C7F16942   1.012   1.192   3.491  0.0105  0.1511  0.0536
  152OSM    H7F16943   0.953   1.269   3.438 -3.4155 -1.1489  1.7033
  152OSM    H7G16944   1.117   1.187   3.454 -0.8369  1.0847 -2.7405
  152OSM    C8F16945   0.990   1.222   3.641 -0.3397 -0.1872 -0.5006
  152OSM    H8F16946   0.881   1.227   3.661 -0.1389  0.4405  0.5438
  152OSM    H8G16947   1.015   1.327   3.667 -1.6822 -0.4826  2.3489
  152OSM    C9F16948   1.038   1.127   3.752 -0.3541 -0.5716 -0.2946
  152OSM    H9F16949   1.145   1.140   3.774 -0.5830  2.5813 -0.6008
  152OSM   C10F16950   0.953   1.041   3.817 -0.4428 -0.1525  0.2183
  152OSM   H10F16951   0.977   1.004   3.918  0.5966 -0.0662  0.0118
  152OSM   C11F16952   0.807   1.009   3.790 -0.0770  0.4903  0.5981
  152OSM   H11F16953   0.804   0.898   3.793 -2.5381  0.4583 -0.2355
  152OSM   H11G16954   0.779   1.019   3.683 -0.2419  0.0203  0.5971
  152OSM   C12F16955   0.713   1.085   3.877  0.0010 -0.2806 -0.2379
  152OSM   H12F16956   0.725   1.194   3.864  3.4080 -0.7347 -2.1174
  152OSM   H12G16957   0.746   1.083   3.983  0.6394  1.4535 -0.3726
  152OSM   C13F16958   0.568   1.037   3.881 -0.2214  0.0906  0.2958
  152OSM   H13F16959   0.557   0.927   3.898  0.5922 -0.2799 -1.4025
  152OSM   H13G16960   0.520   1.050   3.782  0.4450 -0.1765 -0.0626
  152OSM   C14F16961   0.501   1.120   3.989  0.1142  0.6986  0.0838
  152OSM   H14F16962   0.496   1.221   3.943  0.1583  1.6574  2.0776
  152OSM   H14G16963   0.561   1.124   4.082 -0.8655 -0.9269  0.8279
  152OSM   C15F16964   0.355   1.076   4.016  0.4055  0.0599  0.1100
  152OSM   H15F16965   0.306   1.063   3.917 -1.6381 -1.1581  1.2245
  152OSM   H15G16966   0.323   1.164   4.075  1.2426  0.2772  0.2586
  152OSM   C16F16967   0.355   0.937   4.098 -0.1286  0.0587 -0.1004
  152OSM   H16F16968   0.415   0.954   4.190 -0.0359  0.0393 -0.1572
  152OSM   H16G16969   0.411   0.858   4.043  0.0927  1.3844 -1.8820
  152OSM   C17F16970   0.220   0.895   4.143 -0.8043  0.0754  0.4515
  152OSM   H17F16971   0.219   0.786   4.168  2.9591 -0.2596 -0.2758
  152OSM   H17G16972   0.147   0.918   4.062 -0.0214  1.2668  0.0612
  152OSM   C18F16973   0.163   0.964   4.268  0.0053  0.3654 -0.4180
  152OSM   H18F16974   0.241   0.959   4.347 -0.5673 -2.3554  0.0533
  152OSM   H18G16975   0.075   0.909   4.305 -0.3888  1.4849  0.3669
  152OSM   H18H16976   0.137   1.071   4.249  1.7569  0.4656 -2.8607
  153OSM      N16977   6.276   2.237   1.995  0.0869  0.0546  0.4402
  153OSM    C1516978   6.424   2.219   1.983  0.6888  0.3779 -0.2617
  153OSM   H15A16979   6.441   2.117   2.014 -0.2405  0.4503  0.5495
  153OSM   H15B16980   6.468   2.284   2.057  0.6957 -0.4245  0.4425
  153OSM   H15C16981   6.470   2.233   1.886 -1.5594  1.3339 -1.2749
  153OSM    C1416982   6.233   2.268   2.132 -0.1362 -0.4566  0.1443
  153OSM   H14A16983   6.253   2.371   2.156 -0.6642 -0.0537 -1.1253
  153OSM   H14B16984   6.270   2.199   2.207 -2.4066 -0.7332  1.0723
  153OSM   H14C16985   6.129   2.240   2.141  0.2610 -2.5503 -1.0582
  153OSM    C1316986   6.239   2.361   1.906  0.2270 -0.4696 -0.5191
  153OSM   H13A16987   6.290   2.355   1.812 -0.4009 -2.0063 -0.7913
  153OSM   H13B16988   6.266   2.449   1.963  1.3241 -0.6276 -0.7744
  153OSM   H13C16989   6.135   2.378   1.879  0.0855  1.9318  1.1410
  153OSM    C1216990   6.205   2.123   1.931  0.9702 -0.4813 -0.3441
  153OSM   H12A16991   6.256   2.103   1.837  0.5531  1.0213 -0.9145
  153OSM   H12B16992   6.106   2.161   1.910  1.9190  1.0213 -2.4114
  153OSM    C1116993   6.202   1.993   2.012  0.6843  0.5907  0.5247
  153OSM   H11A16994   6.306   1.959   2.032  0.5226 -0.0420  0.3130
  153OSM   H11B16995   6.146   1.914   1.957 -0.2339  0.7380  1.2113
  153OSM      P16996   5.984   2.024   2.159 -0.3525  0.3367  0.0328
  153OSM    O1316997   5.957   2.167   2.187  0.2925 -0.0666 -0.3836
  153OSM    O1416998   5.911   1.959   2.053 -0.5731 -0.1397  0.8648
  153OSM    O1116999   5.950   1.937   2.287  0.0405 -0.2331  0.0108
  153OSM    O1217000   6.144   1.999   2.144 -0.1824  0.0709 -0.4911
  153OSM    C1S17001   6.027   1.932   2.403  0.1194 -0.2573  0.8883
  153OSM    H1S17002   6.104   2.011   2.389 -0.9400  0.7426  0.4847
  153OSM    H1T17003   6.083   1.837   2.407 -0.0450 -0.3751  0.4894
  153OSM     NF17004   6.036   1.948   2.643  0.3474  0.6175  0.6156
  153OSM    HNF17005   6.022   1.873   2.708 -0.7548  1.6543  1.6262
  153OSM    C2S17006   5.940   1.943   2.527 -0.2569  0.9456  0.7523
  153OSM    H2S17007   5.894   2.042   2.509  1.3063  1.6389  0.4140
  153OSM    C3S17008   5.830   1.829   2.528  0.3033  0.2622 -0.5579
  153OSM    H3S17009   5.887   1.739   2.558 -2.7350 -0.7993  2.6961
  153OSM     O317010   5.768   1.787   2.407 -0.3788 -0.6703  0.4145
  153OSM    HO317011   5.810   1.825   2.329 -1.5494 -0.4070 -0.1007
  153OSM    C4S17012   5.734   1.838   2.644 -0.5259  0.1456  1.2369
  153OSM    H4S17013   5.764   1.760   2.716  0.9785 -1.8912 -1.4027
  153OSM    C5S17014   5.617   1.905   2.639  0.5817  0.1383 -0.4342
  153OSM    H5S17015   5.585   1.945   2.542  1.3489  1.5504 -0.1387
  153OSM    C6S17016   5.515   1.891   2.753 -0.5079 -0.2557  0.4946
  153OSM    H6S17017   5.428   1.833   2.716  0.1066 -0.4857 -0.6474
  153OSM    H6T17018   5.467   1.986   2.782 -2.3657 -1.2045  0.6486
  153OSM    C7S17019   5.560   1.824   2.887 -0.7619  0.0504 -0.0319
  153OSM    H7S17020   5.649   1.862   2.941  0.7930 -0.9454 -1.7701
  153OSM    H7T17021   5.598   1.722   2.865 -0.9663  0.1889 -1.0976
  153OSM    C8S17022   5.441   1.819   2.983 -0.1472 -0.3709  0.2341
  153OSM    H8S17023   5.351   1.786   2.927 -1.0103  1.3083  0.5660
  153OSM    H8T17024   5.424   1.919   3.028 -0.1170 -0.2300 -0.0672
  153OSM    C9S17025   5.449   1.717   3.092  0.5767  0.0607  0.3489
  153OSM    H9S17026   5.523   1.740   3.172 -1.7574  2.3086  2.0075
  153OSM    H9T17027   5.491   1.621   3.055 -0.5948 -0.0048 -0.8910
  153OSM   C10S17028   5.317   1.693   3.166  0.4605 -0.0576  0.2003
  153OSM   H10S17029   5.257   1.623   3.103  2.4973 -1.1708 -0.6262
  153OSM   H10T17030   5.261   1.789   3.168  2.2334  1.0246  1.0563
  153OSM   C11S17031   5.333   1.646   3.313 -0.1966  0.7949  0.0309
  153OSM   H11S17032   5.403   1.561   3.307 -0.7211  0.3143  0.6761
  153OSM   H11T17033   5.240   1.597   3.347 -0.3105  1.4624  0.6907
  153OSM   C12S17034   5.364   1.761   3.404  0.0740 -0.2252 -0.2289
  153OSM   H12S17035   5.292   1.845   3.392 -0.3842 -0.5704  0.0647
  153OSM   H12T17036   5.457   1.809   3.367  2.4874 -2.6764  2.1468
  153OSM   C13S17037   5.374   1.719   3.553  0.0361  0.2648  0.0699
  153OSM   H13S17038   5.451   1.642   3.574  2.7255  3.0903  1.3164
  153OSM   H13T17039   5.276   1.673   3.577 -1.8883  1.2664 -4.8194
  153OSM   C14S17040   5.396   1.834   3.656 -0.3077 -0.1615 -0.0400
  153OSM   H14S17041   5.320   1.915   3.653  0.5190  0.6263 -0.0083
  153OSM   H14T17042   5.483   1.895   3.622  0.4032  0.0629  2.0197
  153OSM   C15S17043   5.411   1.767   3.790  0.1557 -0.0148  1.1683
  153OSM   H15S17044   5.401   1.657   3.784  1.7679 -0.1914  1.1515
  153OSM   H15T17045   5.325   1.806   3.847 -1.9598 -1.0142 -1.1568
  153OSM   C16S17046   5.532   1.814   3.862 -0.1226  0.3744  0.7985
  153OSM   H16S17047   5.521   1.925   3.868  0.0584  0.5113 -0.9086
  153OSM   H16T17048   5.627   1.791   3.810 -0.5365 -1.2026  0.6817
  153OSM   C17S17049   5.537   1.770   4.010  0.0456  0.2106 -0.0943
  153OSM   H17S17050   5.640   1.748   4.042 -0.1471 -0.5806 -0.0103
  153OSM   H17T17051   5.483   1.674   4.019 -1.4384  1.0672  0.5788
  153OSM   C18S17052   5.475   1.865   4.109  0.2456  0.0713  1.4358
  153OSM   H18S17053   5.368   1.878   4.082  0.6272  0.3671 -0.0117
  153OSM   H18T17054   5.531   1.961   4.104 -0.7982  0.7304  1.9674
  153OSM   H18U17055   5.497   1.826   4.211  2.9707 -0.9183  0.5613
  153OSM    C1F17056   6.112   2.057   2.670  0.1450  0.0251 -0.2874
  153OSM     OF17057   6.105   2.165   2.606  0.6668  0.1482 -0.1482
  153OSM    C2F17058   6.203   2.043   2.789  0.1623  0.2707  0.1063
  153OSM    H2F17059   6.297   1.990   2.763  0.6174 -0.6155  3.0887
  153OSM    H2G17060   6.144   1.988   2.865 -2.2563 -0.2740 -2.0308
  153OSM    C3F17061   6.233   2.180   2.863  0.9358 -0.4833  0.4010
  153OSM    H3F17062   6.135   2.233   2.867  0.1586 -1.9545  1.3827
  153OSM    H3G17063   6.293   2.242   2.793 -0.2422  1.1303  0.7405
  153OSM    C4F17064   6.314   2.187   2.997  0.1896 -0.1515 -0.2027
  153OSM    H4F17065   6.301   2.292   3.032  0.4237 -0.5795  1.2386
  153OSM    H4G17066   6.422   2.176   2.973  0.6465  0.9881  1.1320
  153OSM    C5F17067   6.280   2.085   3.110 -0.4354 -0.1604  0.3853
  153OSM    H5F17068   6.313   1.989   3.064 -0.6197  0.1419 -0.3901
  153OSM    H5G17069   6.169   2.088   3.108 -0.5015  1.5884  2.9947
  153OSM    C6F17070   6.336   2.117   3.242  0.2335  0.6481 -0.4803
  153OSM    H6F17071   6.287   2.208   3.283 -1.7471 -0.7879  0.5017
  153OSM    H6G17072   6.446   2.133   3.233  0.3379  0.1608 -0.1335
  153OSM    C7F17073   6.315   2.006   3.349  0.1674 -0.3985  0.3444
  153OSM    H7F17074   6.370   1.917   3.312  0.2125 -0.7774  1.3132
  153OSM    H7G17075   6.210   1.972   3.360 -0.3651  1.2583  0.6710
  153OSM    C8F17076   6.369   2.049   3.485 -0.1221 -0.4813 -0.0983
  153OSM    H8F17077   6.479   2.062   3.476 -0.5873  4.3812 -1.8871
  153OSM    H8G17078   6.360   1.961   3.553 -0.0984 -0.3997  0.0112
  153OSM    C9F17079   6.312   2.180   3.547  0.6301 -0.3845  0.0909
  153OSM    H9F17080   6.306   2.264   3.477 -1.5907  0.4102  1.1168
  153OSM   C10F17081   6.278   2.210   3.675  0.4620  0.6655  0.2306
  153OSM   H10F17082   6.239   2.309   3.701  1.1314  0.4772  2.0906
  153OSM   C11F17083   6.268   2.107   3.790  0.0538 -0.2627  0.8045
  153OSM   H11F17084   6.336   2.023   3.763  0.7239  0.1282  1.2566
  153OSM   H11G17085   6.164   2.069   3.800 -0.3362  0.6360  0.2809
  153OSM   C12F17086   6.313   2.154   3.927  0.6099  0.3327  0.0463
  153OSM   H12F17087   6.274   2.257   3.946  0.4590  0.6960 -1.9561
  153OSM   H12G17088   6.423   2.168   3.927  0.8387 -0.8115  3.2474
  153OSM   C13F17089   6.268   2.054   4.033 -0.3677 -0.0711  0.0872
  153OSM   H13F17090   6.323   1.963   3.999 -0.8642 -0.2623 -0.2082
  153OSM   H13G17091   6.158   2.050   4.022 -0.2608 -0.2915 -1.1116
  153OSM   C14F17092   6.309   2.099   4.177  0.5245 -0.4151 -0.3709
  153OSM   H14F17093   6.262   2.197   4.199  0.4095 -0.1231 -1.8400
  153OSM   H14G17094   6.417   2.119   4.192  0.4040 -0.0313  0.0036
  153OSM   C15F17095   6.263   2.001   4.284 -0.3100 -0.1017 -0.2873
  153OSM   H15F17096   6.296   1.903   4.243 -0.3379  1.9944 -6.4809
  153OSM   H15G17097   6.152   1.997   4.278 -0.3895  0.8899  0.4102
  153OSM   C16F17098   6.311   2.028   4.427 -0.3498  0.1084 -0.0717
  153OSM   H16F17099   6.420   2.013   4.441 -0.2922  0.6983  0.1407
  153OSM   H16G17100   6.261   1.954   4.492  0.6432 -1.6734 -1.2719
  153OSM   C17F17101   6.266   2.162   4.487  0.2558  0.1619 -0.7612
  153OSM   H17F17102   6.155   2.159   4.492  0.2569  1.5175  1.1516
  153OSM   H17G17103   6.289   2.254   4.428  1.9659  0.6960  0.6783
  153OSM   C18F17104   6.334   2.189   4.622  0.3292 -0.1887 -0.4201
  153OSM   H18F17105   6.304   2.290   4.656  1.0306  0.2279 -1.0049
  153OSM   H18G17106   6.444   2.193   4.607  0.1964 -1.7913 -2.1512
  153OSM   H18H17107   6.293   2.117   4.696 -2.3272 -1.1044 -2.5901
  154OSM      N17108   5.458   6.448   2.073  0.0791  0.1470  0.1830
  154OSM    C1517109   5.580   6.496   2.001  0.2886  0.5423  0.1655
  154OSM   H15A17110   5.616   6.594   2.030 -3.5847  2.7602 -1.6845
  154OSM   H15B17111   5.566   6.501   1.894 -2.5377 -1.7690  0.3083
  154OSM   H15C17112   5.661   6.428   2.020 -0.1184  0.5483  2.1931
  154OSM    C1417113   5.331   6.494   2.000  0.1916 -0.0659 -0.2619
  154OSM   H14A17114   5.311   6.591   2.042  0.6667 -0.6011  1.2763
  154OSM   H14B17115   5.253   6.423   2.022 -0.5780  0.7967 -0.1634
  154OSM   H14C17116   5.343   6.508   1.894  0.2129  1.5759 -0.0585
  154OSM    C1317117   5.452   6.300   2.077 -0.2795 -0.5786 -0.1800
  154OSM   H13A17118   5.378   6.270   2.150 -0.5367  2.6619  1.0560
  154OSM   H13B17119   5.548   6.269   2.115  0.9198  2.6486 -0.2744
  154OSM   H13C17120   5.429   6.243   1.988  0.8273 -0.8422 -0.3080
  154OSM    C1217121   5.471   6.492   2.219 -0.3444 -0.3251  0.3489
  154OSM   H12A17122   5.519   6.588   2.229 -0.4015 -0.3184  0.5590
  154OSM   H12B17123   5.539   6.423   2.266 -1.5380 -0.8499  1.3585
  154OSM    C1117124   5.341   6.494   2.307 -0.2838  0.1778  0.6586
  154OSM   H11A17125   5.284   6.586   2.285 -1.3444 -0.8669 -1.3014
  154OSM   H11B17126   5.374   6.504   2.412 -0.5131  2.1377  0.5800
  154OSM      P17127   5.136   6.340   2.351  0.1957  0.0446  0.0732
  154OSM    O1317128   5.075   6.462   2.405 -0.0551  0.3608  0.3735
  154OSM    O1417129   5.059   6.272   2.250 -0.2384  0.7262 -0.4556
  154OSM    O1117130   5.182   6.247   2.477  0.7017  0.1501 -0.5167
  154OSM    O1217131   5.262   6.388   2.284  0.7258 -0.0333  0.2307
  154OSM    C1S17132   5.317   6.202   2.480  0.7085 -0.4101 -0.0268
  154OSM    H1S17133   5.393   6.278   2.456 -0.2469 -0.4218 -3.6404
  154OSM    H1T17134   5.329   6.135   2.392  0.8604  0.7522 -0.9087
  154OSM     NF17135   5.483   6.113   2.625 -0.5020 -0.1244 -0.2059
  154OSM    HNF17136   5.528   6.037   2.580 -1.2560 -0.0340 -1.1446
  154OSM    C2S17137   5.340   6.113   2.609  0.2328  0.6711  0.6995
  154OSM    H2S17138   5.298   6.171   2.693  2.1006  0.3858  1.8855
  154OSM    C3S17139   5.269   5.970   2.604  0.2242  0.0400 -0.0321
  154OSM    H3S17140   5.315   5.902   2.530 -1.3570 -1.4199  0.2545
  154OSM     O317141   5.134   5.984   2.559 -0.4650  0.1310  0.9131
  154OSM    HO317142   5.128   6.078   2.540 -4.6078 -0.1472 -0.3120
  154OSM    C4S17143   5.277   5.884   2.733  0.0640 -0.0660  0.3255
  154OSM    H4S17144   5.347   5.800   2.743 -1.9587 -1.8417  0.2112
  154OSM    C5S17145   5.196   5.891   2.839 -0.2950  0.1180 -0.4546
  154OSM    H5S17146   5.117   5.966   2.848 -1.5834 -1.2128 -0.1716
  154OSM    C6S17147   5.216   5.822   2.975  0.0035 -0.6054 -0.2228
  154OSM    H6S17148   5.123   5.784   3.022  0.8388  0.1781  2.1692
  154OSM    H6T17149   5.251   5.904   3.041  0.9652 -0.8906 -0.3626
  154OSM    C7S17150   5.326   5.713   2.973  0.0485 -0.6280 -0.2440
  154OSM    H7S17151   5.421   5.754   2.934  0.5650 -1.9714 -0.4465
  154OSM    H7T17152   5.296   5.639   2.895 -0.6748  0.1242 -0.7008
  154OSM    C8S17153   5.355   5.659   3.110 -0.1418 -0.2771 -0.1129
  154OSM    H8S17154   5.389   5.741   3.177 -1.2579  0.6232 -0.6278
  154OSM    H8T17155   5.440   5.587   3.108  0.6016  0.5553 -2.4790
  154OSM    C9S17156   5.231   5.600   3.174 -0.0520  0.6977  0.4919
  154OSM    H9S17157   5.188   5.522   3.107 -0.6049  1.3906  0.0320
  154OSM    H9T17158   5.148   5.673   3.183  0.6118  1.7833 -1.5247
  154OSM   C10S17159   5.257   5.545   3.314  0.1290  0.1299  0.1993
  154OSM   H10S17160   5.320   5.620   3.368  0.1881  1.7403 -1.9511
  154OSM   H10T17161   5.311   5.448   3.315  0.4472  0.2331 -1.8423
  154OSM   C11S17162   5.134   5.532   3.405 -0.0488  0.1727 -0.1590
  154OSM   H11S17163   5.058   5.469   3.356 -2.8902  2.7714  0.5525
  154OSM   H11T17164   5.096   5.634   3.426  1.2069  0.1709  2.6431
  154OSM   C12S17165   5.171   5.464   3.541  0.1761 -0.4675 -0.6218
  154OSM   H12S17166   5.228   5.540   3.599 -0.3767 -1.1738  0.9315
  154OSM   H12T17167   5.220   5.366   3.520  1.4111  0.5989 -3.0768
  154OSM   C13S17168   5.059   5.427   3.643 -0.1929  0.1243 -0.8283
  154OSM   H13S17169   5.000   5.341   3.605  0.9073 -1.0361  0.0244
  154OSM   H13T17170   4.993   5.517   3.655  1.4761  1.3083 -0.1425
  154OSM   C14S17171   5.100   5.387   3.789 -0.3310 -0.3533 -0.6538
  154OSM   H14S17172   5.158   5.461   3.848  1.4609 -0.5053 -2.1593
  154OSM   H14T17173   5.165   5.299   3.772  2.0480  1.0721  0.4955
  154OSM   C15S17174   4.994   5.323   3.878 -0.4259  0.0901 -0.2482
  154OSM   H15S17175   4.940   5.241   3.827 -0.1801  0.8705 -1.8208
  154OSM   H15T17176   4.917   5.400   3.901 -0.3051 -0.3397  1.8362
  154OSM   C16S17177   5.068   5.283   4.010 -0.2625  0.4436  0.4755
  154OSM   H16S17178   5.116   5.355   4.079  0.5105 -0.4916  0.9513
  154OSM   H16T17179   5.147   5.210   3.980 -0.2961  1.6961 -3.0703
  154OSM   C17S17180   4.962   5.230   4.106  0.2182  0.0193  0.7976
  154OSM   H17S17181   4.910   5.135   4.080 -0.9679 -0.3001  3.9229
  154OSM   H17T17182   4.883   5.309   4.105  1.1268  1.0266 -1.9297
  154OSM   C18S17183   5.006   5.199   4.251 -0.0903  0.0999  0.0088
  154OSM   H18S17184   5.044   5.285   4.309 -2.7322  0.9121  0.6348
  154OSM   H18T17185   5.091   5.127   4.248  0.4179  0.7135 -2.0252
  154OSM   H18U17186   4.918   5.152   4.300 -0.2994 -2.1896 -2.3475
  154OSM    C1F17187   5.558   6.214   2.667  0.2153 -0.1558 -0.0670
  154OSM     OF17188   5.517   6.327   2.662  0.3240  0.5979 -0.7150
  154OSM    C2F17189   5.697   6.174   2.717  0.1499 -0.0678 -0.1488
  154OSM    H2F17190   5.758   6.181   2.625 -0.3449  0.2475 -0.4605
  154OSM    H2G17191   5.705   6.066   2.739 -0.4878 -0.6294 -2.3818
  154OSM    C3F17192   5.745   6.261   2.834 -0.2253  0.0506 -0.2825
  154OSM    H3F17193   5.670   6.239   2.914  0.9670  0.8342  1.0867
  154OSM    H3G17194   5.758   6.370   2.819 -0.7205  0.5023  2.1506
  154OSM    C4F17195   5.880   6.194   2.886  0.4285  0.1539 -0.1626
  154OSM    H4F17196   5.963   6.220   2.817 -0.7442 -0.6171 -1.9477
  154OSM    H4G17197   5.862   6.084   2.891 -0.4306  0.3259  0.7631
  154OSM    C5F17198   5.920   6.251   3.026  0.0343 -0.1551  0.9005
  154OSM    H5F17199   5.837   6.237   3.098 -0.9563  2.1674  0.3043
  154OSM    H5G17200   5.937   6.360   3.014 -0.9468 -0.2392 -1.8245
  154OSM    C6F17201   6.046   6.178   3.083 -0.5591  0.2693  0.4865
  154OSM    H6F17202   6.092   6.240   3.163  0.8386  0.0719 -0.1351
  154OSM    H6G17203   6.123   6.171   3.004  0.0106 -0.9789  1.1211
  154OSM    C7F17204   6.011   6.041   3.138 -0.1517  0.2826  0.5485
  154OSM    H7F17205   5.969   5.974   3.060  0.0736  0.6128  0.1403
  154OSM    H7G17206   5.932   6.051   3.216  0.9298  0.6310  1.6372
  154OSM    C8F17207   6.130   5.981   3.214  0.3911  0.3208  0.2704
  154OSM    H8F17208   6.149   6.040   3.306  0.3095  0.8858 -0.0664
  154OSM    H8G17209   6.223   5.984   3.153 -0.1625 -0.2156 -0.6217
  154OSM    C9F17210   6.095   5.834   3.249  0.2984  0.1636  0.0323
  154OSM    H9F17211   6.106   5.762   3.166  1.8181  1.8141 -1.2923
  154OSM   C10F17212   6.043   5.796   3.367  0.5103 -0.2991  0.1039
  154OSM   H10F17213   6.033   5.688   3.388  1.9452 -0.1801  1.5542
  154OSM   C11F17214   6.022   5.880   3.488  0.2602 -0.6714 -0.0858
  154OSM   H11F17215   6.030   5.986   3.456  3.1666 -1.2122 -1.4709
  154OSM   H11G17216   6.099   5.866   3.567  0.1697 -0.0821  0.1160
  154OSM   C12F17217   5.888   5.843   3.552 -0.2010  0.3628 -0.1169
  154OSM   H12F17218   5.889   5.734   3.577  0.0790  0.3543 -0.1591
  154OSM   H12G17219   5.803   5.864   3.484 -0.2665  0.1159 -0.1142
  154OSM   C13F17220   5.864   5.919   3.686  0.1751 -0.0503 -0.0603
  154OSM   H13F17221   5.859   6.030   3.674 -0.1115  0.1645  1.7940
  154OSM   H13G17222   5.945   5.906   3.761 -0.3253  0.1872  0.5327
  154OSM   C14F17223   5.726   5.886   3.743  0.0558 -0.3344  0.5323
  154OSM   H14F17224   5.733   5.775   3.746  2.8748 -0.2875 -0.8478
  154OSM   H14G17225   5.654   5.915   3.663  1.7248  0.2862 -0.8044
  154OSM   C15F17226   5.704   5.950   3.873 -0.6118 -0.7103  0.2204
  154OSM   H15F17227   5.789   5.914   3.935 -1.6859 -1.7725  1.1173
  154OSM   H15G17228   5.614   5.905   3.921 -0.8241  0.2192  0.7261
  154OSM   C16F17229   5.691   6.099   3.872 -0.1129  0.3118 -0.4420
  154OSM   H16F17230   5.599   6.130   3.817 -0.6587  0.8541  0.7460
  154OSM   H16G17231   5.784   6.149   3.835  2.3004 -2.0611  1.9102
  154OSM   C17F17232   5.656   6.157   4.009  0.5856  0.1065  0.1920
  154OSM   H17F17233   5.746   6.146   4.073 -0.4457 -0.4636  1.5919
  154OSM   H17G17234   5.575   6.094   4.052  1.1695  0.6686  2.1990
  154OSM   C18F17235   5.612   6.301   3.999  0.2429  0.5182 -0.4444
  154OSM   H18F17236   5.506   6.311   3.967  0.3764 -0.9085 -1.4239
  154OSM   H18G17237   5.670   6.367   3.932  1.3179 -0.7735 -0.8125
  154OSM   H18H17238   5.616   6.337   4.104  0.7129  0.1167 -0.3212
  155OSM      N17239   1.133   2.798   1.952  0.1082  0.2425 -0.0084
  155OSM    C1517240   1.131   2.878   1.825  0.8424  0.0931 -0.8106
  155OSM   H15A17241   1.086   2.967   1.866 -0.7631 -0.8087 -0.5273
  155OSM   H15B17242   1.074   2.843   1.741  2.3747 -1.9087 -1.1029
  155OSM   H15C17243   1.232   2.900   1.791  0.6459  1.1853 -0.7260
  155OSM    C1417244   0.989   2.761   1.990  0.5308  0.3759 -0.2801
  155OSM   H14A17245   0.991   2.683   2.065  0.9335  3.2509  2.9574
  155OSM   H14B17246   0.938   2.727   1.901 -0.9605 -2.8748  1.6239
  155OSM   H14C17247   0.937   2.848   2.027  1.5110  1.3728 -1.1689
  155OSM    C1317248   1.209   2.670   1.924  0.0076 -0.1280 -0.5693
  155OSM   H13A17249   1.312   2.687   1.898  0.9272 -1.0516  2.1713
  155OSM   H13B17250   1.166   2.626   1.835 -1.4976  2.7013 -1.3442
  155OSM   H13C17251   1.212   2.601   2.007  0.2248 -1.9475 -2.0131
  155OSM    C1217252   1.205   2.875   2.063 -0.7203 -0.1588  0.0515
  155OSM   H12A17253   1.309   2.884   2.033 -0.2643  0.2582  1.6735
  155OSM   H12B17254   1.209   2.818   2.155 -0.2107 -1.3988 -0.7075
  155OSM    C1117255   1.158   3.024   2.077 -0.1095  0.0512  0.1768
  155OSM   H11A17256   1.179   3.073   1.979 -2.1342 -0.9377 -0.8230
  155OSM   H11B17257   1.210   3.074   2.161  2.5059  2.8306 -2.8173
  155OSM      P17258   0.909   3.146   2.099  0.5122 -0.2440  0.1577
  155OSM    O1317259   0.891   3.195   1.958  0.3973  0.7047 -0.1926
  155OSM    O1417260   0.779   3.101   2.150 -0.2103 -0.4963 -0.1026
  155OSM    O1117261   0.989   3.253   2.189  0.7349 -0.1830  0.0755
  155OSM    O1217262   1.015   3.027   2.106  0.5513  0.2337 -0.0157
  155OSM    C1S17263   0.944   3.333   2.296  0.1956 -0.0780 -0.4104
  155OSM    H1S17264   0.835   3.318   2.311 -0.5891  4.6905  0.2160
  155OSM    H1T17265   0.948   3.441   2.272  0.7401  0.1935  0.8708
  155OSM     NF17266   0.954   3.386   2.541  0.3481 -0.0372  0.1276
  155OSM    HNF17267   0.989   3.476   2.565  0.4974 -0.5714  2.0705
  155OSM    C2S17268   1.024   3.317   2.433 -0.5191  0.1557 -1.0024
  155OSM    H2S17269   1.015   3.212   2.466 -2.2807 -0.0294 -1.9351
  155OSM    C3S17270   1.173   3.364   2.419  0.3508  0.0490  0.1357
  155OSM    H3S17271   1.169   3.474   2.404 -0.1679  0.0016 -0.1229
  155OSM     O317272   1.235   3.307   2.307 -0.4134 -0.2121 -0.3846
  155OSM    HO317273   1.174   3.244   2.269 -0.5140 -0.2405 -0.1737
  155OSM    C4S17274   1.254   3.326   2.539 -0.4817 -0.1228  0.4944
  155OSM    H4S17275   1.213   3.375   2.628 -1.7016  0.1942 -0.2130
  155OSM    C5S17276   1.360   3.243   2.557 -0.3101 -0.0746  0.8905
  155OSM    H5S17277   1.397   3.189   2.469 -3.4955  2.0695 -2.0345
  155OSM    C6S17278   1.432   3.214   2.682  0.6235  0.3541 -0.6076
  155OSM    H6S17279   1.541   3.231   2.671  0.3771  2.0516 -0.6268
  155OSM    H6T17280   1.425   3.105   2.704  3.9515 -0.5190 -2.9920
  155OSM    C7S17281   1.376   3.293   2.810 -0.2389  0.8769 -0.2143
  155OSM    H7S17282   1.265   3.298   2.819 -0.2822 -1.6744  2.5618
  155OSM    H7T17283   1.415   3.396   2.825 -1.7776  1.5074 -0.4138
  155OSM    C8S17284   1.392   3.200   2.935 -0.3417  0.5211  0.2354
  155OSM    H8S17285   1.497   3.188   2.967 -0.1259 -0.4847 -0.8168
  155OSM    H8T17286   1.365   3.096   2.907 -0.4920 -0.1626  2.6277
  155OSM    C9S17287   1.309   3.253   3.058 -0.3986  0.3795 -0.0234
  155OSM    H9S17288   1.199   3.238   3.046 -0.6626 -0.0605  2.4751
  155OSM    H9T17289   1.340   3.358   3.078  0.5403 -0.1121  1.1779
  155OSM   C10S17290   1.346   3.174   3.181 -0.3275  0.5958 -0.5829
  155OSM   H10S17291   1.452   3.197   3.203 -0.0463 -2.1867  1.4198
  155OSM   H10T17292   1.336   3.066   3.157  0.1091  0.5443 -0.5424
  155OSM   C11S17293   1.278   3.208   3.314 -0.0919 -0.2009 -1.0205
  155OSM   H11S17294   1.340   3.136   3.373 -1.3820 -2.1289 -1.9013
  155OSM   H11T17295   1.175   3.166   3.318 -0.4803  0.8229  1.7817
  155OSM   C12S17296   1.290   3.349   3.362  0.1980  0.1287 -0.1029
  155OSM   H12S17297   1.271   3.423   3.282 -3.7955 -1.1734 -0.5655
  155OSM   H12T17298   1.389   3.365   3.409 -1.0317  1.1169  2.3784
  155OSM   C13S17299   1.198   3.373   3.484 -0.2622  0.5330  0.1628
  155OSM   H13S17300   1.228   3.302   3.563  1.3264  0.1009 -0.7842
  155OSM   H13T17301   1.093   3.359   3.451 -0.6152  3.5811 -0.3204
  155OSM   C14S17302   1.212   3.524   3.534 -0.5265 -0.3593 -0.3903
  155OSM   H14S17303   1.304   3.545   3.593  0.1874  2.2587 -2.2780
  155OSM   H14T17304   1.125   3.549   3.599  0.3770 -0.1678  0.7796
  155OSM   C15S17305   1.214   3.632   3.422  0.1229 -0.0890  0.0820
  155OSM   H15S17306   1.123   3.622   3.360  0.7143 -1.6414 -0.5819
  155OSM   H15T17307   1.296   3.620   3.348  0.1143 -0.9057  0.1885
  155OSM   C16S17308   1.232   3.777   3.477 -0.1552  0.1104  0.0262
  155OSM   H16S17309   1.143   3.801   3.538  0.5365 -2.3132  2.1358
  155OSM   H16T17310   1.251   3.837   3.385 -0.4836 -0.4155 -0.3854
  155OSM   C17S17311   1.352   3.788   3.576 -0.4467  0.0922  0.1219
  155OSM   H17S17312   1.440   3.735   3.536 -0.2696  0.2402  0.3140
  155OSM   H17T17313   1.317   3.748   3.673 -0.6067  0.2606  0.1368
  155OSM   C18S17314   1.402   3.933   3.598 -0.2515 -0.2311 -0.4458
  155OSM   H18S17315   1.474   3.922   3.681  0.7378  1.9899 -0.9297
  155OSM   H18T17316   1.316   4.001   3.620  0.3190  0.8550 -1.4245
  155OSM   H18U17317   1.437   3.969   3.499  1.1140 -0.3735 -0.0268
  155OSM    C1F17318   0.831   3.346   2.579  0.3015 -0.4083  0.6420
  155OSM     OF17319   0.782   3.241   2.542  0.0266 -1.2384  0.1099
  155OSM    C2F17320   0.754   3.435   2.671  0.0498 -0.4140 -0.0567
  155OSM    H2F17321   0.656   3.386   2.687 -0.4998 -0.5936 -3.2496
  155OSM    H2G17322   0.739   3.531   2.616 -0.1999  0.0435  0.8005
  155OSM    C3F17323   0.831   3.445   2.803 -0.0179  0.4717 -0.0237
  155OSM    H3F17324   0.920   3.506   2.777 -1.8626  2.1141 -3.1245
  155OSM    H3G17325   0.860   3.346   2.844 -3.4014  0.3201  2.4318
  155OSM    C4F17326   0.752   3.490   2.923 -0.0279 -0.0186 -0.1103
  155OSM    H4F17327   0.685   3.405   2.949  2.3615 -2.1286 -0.4408
  155OSM    H4G17328   0.680   3.568   2.889 -0.7092 -1.4896 -2.2810
  155OSM    C5F17329   0.828   3.538   3.042  0.9798 -0.3332  0.2852
  155OSM    H5F17330   0.900   3.610   2.998 -1.8332  0.7233 -3.0760
  155OSM    H5G17331   0.872   3.454   3.100 -0.9876  0.6984  3.5264
  155OSM    C6F17332   0.733   3.595   3.148 -0.8595 -0.2830  0.2881
  155OSM    H6F17333   0.685   3.689   3.114 -0.4358 -0.1353  0.0900
  155OSM    H6G17334   0.788   3.627   3.239  1.8967 -1.4863 -0.8131
  155OSM    C7F17335   0.625   3.493   3.189  0.3645 -0.1858 -0.2921
  155OSM    H7F17336   0.660   3.388   3.177 -0.2643 -0.6243  1.4156
  155OSM    H7G17337   0.529   3.501   3.135  0.5954 -3.2629 -1.3372
  155OSM    C8F17338   0.596   3.524   3.342 -0.3741 -0.1949  0.4559
  155OSM    H8F17339   0.695   3.539   3.392 -1.1849 -2.4162  2.9978
  155OSM    H8G17340   0.547   3.431   3.378  0.2839 -1.0353 -0.7351
  155OSM    C9F17341   0.510   3.644   3.363  0.2036 -0.2758  0.2928
  155OSM    H9F17342   0.465   3.685   3.271  0.9856 -0.8295 -0.3407
  155OSM   C10F17343   0.472   3.687   3.487 -0.0658 -0.2879  0.1764
  155OSM   H10F17344   0.411   3.776   3.508  1.7829  1.1428 -0.2595
  155OSM   C11F17345   0.538   3.638   3.607 -0.0132 -0.4677 -0.0056
  155OSM   H11F17346   0.647   3.659   3.608  0.2274 -1.5323 -1.3483
  155OSM   H11G17347   0.522   3.529   3.620  0.9019 -0.5780  0.3181
  155OSM   C12F17348   0.487   3.709   3.731  1.0192  0.0773 -0.5815
  155OSM   H12F17349   0.378   3.694   3.740  1.2689 -0.6516  2.0016
  155OSM   H12G17350   0.492   3.818   3.709 -0.6256  0.7231  1.8771
  155OSM   C13F17351   0.555   3.677   3.860  0.2183 -0.0494  0.6946
  155OSM   H13F17352   0.665   3.691   3.862  0.4371 -1.4371 -0.3749
  155OSM   H13G17353   0.540   3.570   3.885  0.9840 -0.7976 -1.6935
  155OSM   C14F17354   0.500   3.749   3.991 -0.2323 -0.4720  0.1583
  155OSM   H14F17355   0.391   3.724   3.990 -1.0817  2.7409  0.5159
  155OSM   H14G17356   0.503   3.860   3.980 -0.4236 -0.4191  0.6209
  155OSM   C15F17357   0.573   3.706   4.120  0.1992 -0.2406  0.1711
  155OSM   H15F17358   0.680   3.685   4.097  0.7877  2.6148 -0.0671
  155OSM   H15G17359   0.542   3.605   4.152  2.3447 -1.1448 -0.3957
  155OSM   C16F17360   0.560   3.810   4.238 -0.2142  0.4386  0.0125
  155OSM   H16F17361   0.466   3.791   4.294 -1.2085  1.2115 -1.3341
  155OSM   H16G17362   0.559   3.905   4.181 -1.7632  0.0542 -0.6615
  155OSM   C17F17363   0.670   3.799   4.341 -0.1451  0.1264  0.2892
  155OSM   H17F17364   0.683   3.903   4.378 -2.0506  0.3497  0.4169
  155OSM   H17G17365   0.767   3.776   4.292 -1.2321  1.1555 -2.5661
  155OSM   C18F17366   0.651   3.693   4.454  0.1521  0.9196 -0.2417
  155OSM   H18F17367   0.577   3.712   4.535  0.5130 -0.5611  0.4654
  155OSM   H18G17368   0.745   3.673   4.510 -0.1156  1.1922  0.3104
  155OSM   H18H17369   0.616   3.599   4.407 -0.1623  0.8230  0.1884
  156OSM      N17370   1.797   1.708   2.581  0.8992  0.2183  0.2371
  156OSM    C1517371   1.685   1.622   2.618  0.7490 -0.0112 -0.4236
  156OSM   H15A17372   1.598   1.677   2.653  0.1486 -1.0279 -0.2768
  156OSM   H15B17373   1.726   1.563   2.699  2.0734  0.3171 -0.8354
  156OSM   H15C17374   1.652   1.551   2.543 -1.1195  0.9008 -0.5222
  156OSM    C1417375   1.916   1.628   2.555  0.2589  0.8426  0.3854
  156OSM   H14A17376   1.959   1.588   2.645  1.8473 -1.0408 -1.0901
  156OSM   H14B17377   1.990   1.692   2.508 -0.9462  0.0463 -2.8818
  156OSM   H14C17378   1.894   1.541   2.495 -0.3054  0.4637  1.1292
  156OSM    C1317379   1.747   1.769   2.453 -0.3737 -0.0613 -0.3958
  156OSM   H13A17380   1.643   1.798   2.464 -0.7833 -1.7719  0.6048
  156OSM   H13B17381   1.758   1.693   2.378  0.9470 -1.2090  0.9039
  156OSM   H13C17382   1.804   1.857   2.426 -0.1220 -0.5951 -1.6729
  156OSM    C1217383   1.827   1.826   2.676 -0.0940  0.1217  0.2237
  156OSM   H12A17384   1.857   1.790   2.773  4.6667  0.3689 -0.9030
  156OSM   H12B17385   1.743   1.890   2.694 -0.3595 -0.6627  1.9737
  156OSM    C1117386   1.956   1.896   2.638  1.1247 -0.6676  0.1983
  156OSM   H11A17387   2.040   1.828   2.661  2.0419  0.3391 -0.0838
  156OSM   H11B17388   1.969   1.992   2.694 -0.0725 -0.3309 -0.0675
  156OSM      P17389   2.088   1.945   2.422 -0.4205  0.3305  0.3297
  156OSM    O1317390   2.126   1.799   2.394  0.0208 -0.3351 -0.2307
  156OSM    O1417391   2.090   2.035   2.306  0.2473 -0.4715  0.2726
  156OSM    O1117392   2.188   1.994   2.530 -0.1418 -0.2921 -0.0227
  156OSM    O1217393   1.957   1.942   2.501 -0.2937 -0.1288  0.3315
  156OSM    C1S17394   2.200   2.130   2.567  0.1549  0.9115  0.8399
  156OSM    H1S17395   2.109   2.191   2.548 -0.6924 -0.1807  1.2739
  156OSM    H1T17396   2.285   2.172   2.509 -1.9196  0.8314 -2.4821
  156OSM     NF17397   2.222   2.273   2.763 -0.7415 -0.0934 -0.0422
  156OSM    HNF17398   2.307   2.325   2.770 -2.7742  3.3347  1.6034
  156OSM    C2S17399   2.222   2.138   2.717  0.5841  0.4653 -0.0614
  156OSM    H2S17400   2.141   2.079   2.766 -0.3802  1.8703  0.0776
  156OSM    C3S17401   2.359   2.064   2.742 -0.0101  0.4297  0.1347
  156OSM    H3S17402   2.431   2.116   2.675  1.2095  0.6612  1.5689
  156OSM     O317403   2.351   1.930   2.706  0.6620  0.6719  0.2181
  156OSM    HO317404   2.280   1.934   2.641 -0.1116 -1.8295  0.8118
  156OSM    C4S17405   2.410   2.077   2.883 -0.0710 -0.1776 -0.2136
  156OSM    H4S17406   2.336   2.045   2.958  1.5954 -0.7259  1.2712
  156OSM    C5S17407   2.535   2.124   2.915  0.8208 -0.1401  0.3027
  156OSM    H5S17408   2.590   2.151   2.824  1.6333 -0.1862  0.7770
  156OSM    C6S17409   2.591   2.149   3.053  0.0223  0.2862  0.2626
  156OSM    H6S17410   2.614   2.258   3.060 -2.6163  0.7939  3.1834
  156OSM    H6T17411   2.685   2.094   3.073  1.5693  1.9930 -1.7809
  156OSM    C7S17412   2.498   2.133   3.182 -0.2204 -0.4419 -0.6487
  156OSM    H7S17413   2.438   2.039   3.190 -3.7487  1.7494  1.1270
  156OSM    H7T17414   2.421   2.213   3.175  0.1885 -0.0526 -0.7233
  156OSM    C8S17415   2.580   2.146   3.304 -0.3799 -0.5338 -0.7165
  156OSM    H8S17416   2.642   2.238   3.310 -2.6956  1.2289 -2.0423
  156OSM    H8T17417   2.654   2.064   3.319 -1.0738 -0.9663  0.5328
  156OSM    C9S17418   2.505   2.151   3.435 -0.0532  0.0674  0.0539
  156OSM    H9S17419   2.434   2.066   3.436 -1.1167  0.7343 -3.3300
  156OSM    H9T17420   2.444   2.244   3.431 -1.0965 -0.6128 -0.2831
  156OSM   C10S17421   2.592   2.158   3.561 -0.1905  0.5543  0.3608
  156OSM   H10S17422   2.658   2.247   3.568  0.2389  0.3835 -1.1839
  156OSM   H10T17423   2.654   2.066   3.572  0.4998  0.9093 -0.4769
  156OSM   C11S17424   2.503   2.152   3.686 -0.3653  0.8600 -0.1882
  156OSM   H11S17425   2.425   2.076   3.663 -1.6951  2.2068 -0.3225
  156OSM   H11T17426   2.447   2.244   3.713 -1.5533 -0.7086  3.1974
  156OSM   C12S17427   2.581   2.096   3.807  0.8937 -0.6016  0.4294
  156OSM   H12S17428   2.677   2.148   3.827 -0.7013  2.2663  1.2063
  156OSM   H12T17429   2.618   1.993   3.789  1.6630 -0.5342  1.5590
  156OSM   C13S17430   2.501   2.110   3.935  0.0030  0.5498 -0.1667
  156OSM   H13S17431   2.406   2.055   3.951  0.7903 -0.6444  0.5389
  156OSM   H13T17432   2.465   2.215   3.926 -0.6474  0.3376 -0.0401
  156OSM   C14S17433   2.589   2.081   4.064  0.3891  1.0583 -0.2376
  156OSM   H14S17434   2.662   2.164   4.068  0.4665  0.9480  1.2095
  156OSM   H14T17435   2.647   1.987   4.053  0.5205  1.2132 -0.8931
  156OSM   C15S17436   2.499   2.083   4.188 -0.1684  0.3207  0.1945
  156OSM   H15S17437   2.412   2.014   4.178  1.0772 -1.3759  0.6198
  156OSM   H15T17438   2.463   2.188   4.198  1.4221  1.1895 -2.2055
  156OSM   C16S17439   2.576   2.033   4.312 -0.4455  0.2381 -0.2158
  156OSM   H16S17440   2.609   1.928   4.303  2.9316  0.9400  1.9690
  156OSM   H16T17441   2.514   2.043   4.404  2.3204  1.0149  1.7217
  156OSM   C17S17442   2.706   2.110   4.344 -0.4910 -0.4906  0.2546
  156OSM   H17S17443   2.686   2.217   4.368  0.1314 -0.6050  1.3326
  156OSM   H17T17444   2.764   2.104   4.250 -0.8436 -1.4320  0.0859
  156OSM   C18S17445   2.787   2.058   4.464 -0.1183 -0.3704 -0.0103
  156OSM   H18S17446   2.745   2.097   4.559 -0.0924 -1.0142  0.2710
  156OSM   H18T17447   2.892   2.092   4.454 -1.1142  3.2127  0.4064
  156OSM   H18U17448   2.784   1.947   4.461 -0.9815 -0.3408 -0.6046
  156OSM    C1F17449   2.110   2.340   2.795 -0.8955  1.0508  0.0941
  156OSM     OF17450   1.997   2.314   2.753 -0.5332 -0.2761 -0.8652
  156OSM    C2F17451   2.139   2.458   2.888 -0.0438 -0.5490 -0.5305
  156OSM    H2F17452   2.191   2.528   2.819 -0.7457 -0.8031 -1.3392
  156OSM    H2G17453   2.212   2.420   2.962  0.3210  2.4916  0.8340
  156OSM    C3F17454   2.016   2.509   2.964  0.6375  0.0973 -0.1087
  156OSM    H3F17455   1.972   2.426   3.024  0.6542  1.5042  1.9568
  156OSM    H3G17456   1.934   2.531   2.892  2.4177 -1.1144 -2.6573
  156OSM    C4F17457   2.050   2.632   3.047  1.8576  0.1486 -0.7834
  156OSM    H4F17458   2.118   2.699   2.991  0.8437  2.5794  0.7210
  156OSM    H4G17459   2.100   2.597   3.139 -2.2240  2.3990  2.6349
  156OSM    C5F17460   1.922   2.708   3.081  0.3203  0.0125 -0.6182
  156OSM    H5F17461   1.845   2.637   3.118 -1.1354  1.3036 -1.0424
  156OSM    H5G17462   1.884   2.755   2.987 -0.6905 -2.5474 -1.5986
  156OSM    C6F17463   1.937   2.815   3.186 -0.5608 -0.1886 -0.8278
  156OSM    H6F17464   1.852   2.885   3.200 -1.1300 -1.0832  0.4007
  156OSM    H6G17465   2.023   2.880   3.157 -0.5141 -0.3349 -1.0184
  156OSM    C7F17466   1.973   2.765   3.329  0.0821 -0.2425 -0.1424
  156OSM    H7F17467   2.079   2.733   3.325  0.4391  0.4386  2.2506
  156OSM    H7G17468   1.909   2.677   3.355 -0.6549  0.4897  0.5745
  156OSM    C8F17469   1.960   2.862   3.448  0.1754  0.7576  0.3809
  156OSM    H8F17470   1.855   2.897   3.444  0.6904  2.4427  0.7503
  156OSM    H8G17471   2.026   2.950   3.430  0.9450  0.3665  1.2204
  156OSM    C9F17472   1.992   2.793   3.578 -0.0669 -0.5610  0.3357
  156OSM    H9F17473   2.060   2.708   3.562 -2.3254 -2.1854 -1.3586
  156OSM   C10F17474   1.948   2.817   3.698  0.1904 -0.5220 -0.3507
  156OSM   H10F17475   1.976   2.757   3.785 -1.6205 -0.6673  0.1814
  156OSM   C11F17476   1.851   2.927   3.732 -0.9155  0.2140 -0.5210
  156OSM   H11F17477   1.821   2.997   3.651  1.5953 -0.2577 -1.9521
  156OSM   H11G17478   1.891   2.992   3.813 -0.3705 -1.0770  0.2804
  156OSM   C12F17479   1.716   2.879   3.771 -0.2194  0.1152  0.9889
  156OSM   H12F17480   1.665   2.827   3.687 -1.1982 -0.4022  1.8767
  156OSM   H12G17481   1.651   2.962   3.807  1.4984  0.8022  2.6779
  156OSM   C13F17482   1.719   2.792   3.902  0.2475 -0.2341  0.6806
  156OSM   H13F17483   1.790   2.859   3.955  0.2736  0.4220 -0.1707
  156OSM   H13G17484   1.744   2.685   3.887 -2.1394 -0.7273 -0.3087
  156OSM   C14F17485   1.582   2.796   3.974 -0.6213  0.1381 -0.4193
  156OSM   H14F17486   1.498   2.742   3.925 -0.5430 -1.9045  1.5017
  156OSM   H14G17487   1.550   2.902   3.988 -1.3567  0.1606 -2.1124
  156OSM   C15F17488   1.598   2.745   4.123  0.3105  0.2835  0.1768
  156OSM   H15F17489   1.644   2.644   4.111  0.6744  0.5305 -0.5670
  156OSM   H15G17490   1.497   2.744   4.170  0.7520  1.6998  1.2032
  156OSM   C16F17491   1.685   2.832   4.213 -0.2824  0.3285 -0.0564
  156OSM   H16F17492   1.646   2.936   4.224 -1.6835 -0.1921  0.0284
  156OSM   H16G17493   1.781   2.825   4.156  1.5646 -0.9294  2.9744
  156OSM   C17F17494   1.693   2.782   4.355  0.1867  0.1006 -0.4403
  156OSM   H17F17495   1.589   2.774   4.394 -0.0292  0.5027 -0.9283
  156OSM   H17G17496   1.746   2.850   4.425 -1.8938  1.1818  0.1746
  156OSM   C18F17497   1.759   2.641   4.362 -0.3449 -0.0655 -0.2909
  156OSM   H18F17498   1.768   2.603   4.466  0.8219  3.1160  0.9226
  156OSM   H18G17499   1.866   2.658   4.339 -0.4683  0.5281 -0.4372
  156OSM   H18H17500   1.725   2.560   4.294 -2.0093  2.0442 -2.1165
  157OSM      N17501   2.953   2.460   2.026  0.9273 -0.3341 -0.1734
  157OSM    C1517502   3.057   2.548   1.955 -0.7257 -0.2910  0.9654
  157OSM   H15A17503   3.114   2.471   1.905 -2.9021 -1.9069  0.7938
  157OSM   H15B17504   3.115   2.606   2.025  1.2106  1.5829 -1.9737
  157OSM   H15C17505   3.011   2.610   1.880 -0.3132 -2.0969 -0.8845
  157OSM    C1417506   2.871   2.386   1.929 -1.0202  0.3131  0.1293
  157OSM   H14A17507   2.930   2.300   1.898  2.4961  2.3633  0.5809
  157OSM   H14B17508   2.851   2.447   1.842 -0.3780  0.9493  0.4181
  157OSM   H14C17509   2.779   2.352   1.973 -0.9027  0.0937  0.2103
  157OSM    C1317510   3.027   2.356   2.106 -0.0193 -0.2791 -0.2667
  157OSM   H13A17511   3.065   2.287   2.032 -0.0842 -0.5794 -0.0181
  157OSM   H13B17512   2.960   2.302   2.171  0.6451  1.5112  2.0561
  157OSM   H13C17513   3.104   2.400   2.167 -0.6452  0.0116  0.3300
  157OSM    C1217514   2.867   2.543   2.118  0.6249  0.7483  1.0875
  157OSM   H12A17515   2.788   2.482   2.159  0.2402  1.7765  1.9089
  157OSM   H12B17516   2.813   2.615   2.059 -2.0035 -1.1596  0.9970
  157OSM    C1117517   2.930   2.612   2.237  0.0517 -0.3666 -0.2405
  157OSM   H11A17518   2.996   2.540   2.290 -1.0549 -0.7895  0.5757
  157OSM   H11B17519   2.858   2.644   2.315 -0.6758  1.2856 -1.5178
  157OSM      P17520   2.939   2.848   2.157  0.3183  0.3401 -0.2201
  157OSM    O1317521   3.039   2.960   2.159 -0.4035 -0.6159  0.0509
  157OSM    O1417522   2.850   2.838   2.037 -0.1694  0.6615 -0.1025
  157OSM    O1117523   2.849   2.872   2.286  0.1532  0.0701 -0.1773
  157OSM    O1217524   3.011   2.715   2.188 -0.3613  0.8164 -0.4444
  157OSM    C1S17525   2.742   2.961   2.296  0.0290  0.0862  0.1054
  157OSM    H1S17526   2.654   2.923   2.241 -1.4430  2.4215  0.6859
  157OSM    H1T17527   2.771   3.061   2.256 -1.1937  0.2006 -0.5383
  157OSM     NF17528   2.582   3.085   2.447  0.5588  0.3172  0.6142
  157OSM    HNF17529   2.616   3.173   2.479 -0.3998  0.4206  1.3707
  157OSM    C2S17530   2.687   2.982   2.441 -0.2764  0.2095  0.0868
  157OSM    H2S17531   2.641   2.883   2.461  4.2817 -2.6910 -2.1375
  157OSM    C3S17532   2.805   2.997   2.551 -0.2878  0.1513  0.0918
  157OSM    H3S17533   2.876   3.076   2.518 -0.0167 -0.1780 -0.1252
  157OSM     O317534   2.897   2.888   2.544  0.6205  0.4098  0.3272
  157OSM    HO317535   2.886   2.834   2.465 -0.8217 -1.7132  1.8582
  157OSM    C4S17536   2.773   3.031   2.696 -0.0050 -0.0833 -0.1836
  157OSM    H4S17537   2.766   3.137   2.726 -0.6330  0.3248 -1.6762
  157OSM    C5S17538   2.763   2.942   2.796 -0.3557  0.0265  0.0781
  157OSM    H5S17539   2.778   2.835   2.776  0.6089  0.2462 -0.4417
  157OSM    C6S17540   2.738   2.984   2.940  0.6861  0.2486 -0.0147
  157OSM    H6S17541   2.632   2.984   2.974  0.2802 -1.8429 -1.1205
  157OSM    H6T17542   2.751   3.093   2.953 -1.5798  0.7913 -1.7045
  157OSM    C7S17543   2.826   2.909   3.041  0.3705 -0.3852  0.5989
  157OSM    H7S17544   2.932   2.940   3.026  0.8850 -1.6543  1.3503
  157OSM    H7T17545   2.817   2.800   3.019 -1.3540 -0.2274  0.4195
  157OSM    C8S17546   2.781   2.954   3.185 -0.2155  0.0686  0.1182
  157OSM    H8S17547   2.672   2.933   3.195 -0.5699  2.3643  1.8591
  157OSM    H8T17548   2.798   3.063   3.193 -1.1123  0.2863 -0.7568
  157OSM    C9S17549   2.864   2.872   3.283  1.2959 -0.6223  0.5484
  157OSM    H9S17550   2.969   2.881   3.250  0.5449 -0.4214 -2.0018
  157OSM    H9T17551   2.827   2.768   3.269  0.3556 -0.1110 -1.1181
  157OSM   C10S17552   2.861   2.913   3.421 -0.0989 -0.3673  0.2815
  157OSM   H10S17553   2.857   3.021   3.448  1.2530 -0.2687  0.1522
  157OSM   H10T17554   2.959   2.885   3.465  0.6966  2.5462  0.5788
  157OSM   C11S17555   2.743   2.850   3.498 -0.3066  0.0666 -0.8852
  157OSM   H11S17556   2.753   2.740   3.505  0.3396  0.2222  1.1081
  157OSM   H11T17557   2.648   2.878   3.448 -0.7032 -0.4381 -0.4165
  157OSM   C12S17558   2.733   2.905   3.638 -0.2772 -0.0725 -0.1422
  157OSM   H12S17559   2.630   2.878   3.671 -0.7638  3.5949  1.9457
  157OSM   H12T17560   2.734   3.015   3.619  1.7230 -0.2649 -1.3699
  157OSM   C13S17561   2.840   2.865   3.728 -0.2195  0.2525 -0.0950
  157OSM   H13S17562   2.938   2.899   3.687 -0.4206  1.5055  0.3963
  157OSM   H13T17563   2.839   2.754   3.720 -1.8407  0.0551  1.8864
  157OSM   C14S17564   2.814   2.914   3.873  0.2702  0.0616 -0.5443
  157OSM   H14S17565   2.708   2.889   3.894  0.8527 -0.9386  1.4551
  157OSM   H14T17566   2.826   3.024   3.880 -2.3412  0.5408 -2.3425
  157OSM   C15S17567   2.912   2.854   3.966  0.7031  0.9740  0.4796
  157OSM   H15S17568   2.920   2.743   3.965 -2.6608  0.6130  1.5514
  157OSM   H15T17569   2.881   2.879   4.070  4.0591  0.2109  1.7937
  157OSM   C16S17570   3.054   2.923   3.957 -0.1691  0.1963 -0.3536
  157OSM   H16S17571   3.046   3.032   3.935 -0.9334  0.6647  2.0156
  157OSM   H16T17572   3.129   2.881   3.887  2.0203  1.9400  0.7987
  157OSM   C17S17573   3.130   2.914   4.093  0.5279  0.3206 -0.3634
  157OSM   H17S17574   3.154   2.809   4.121 -0.3138  0.2544  0.1284
  157OSM   H17T17575   3.066   2.956   4.174 -1.2356  1.8211 -2.4210
  157OSM   C18S17576   3.250   3.005   4.095 -0.2635 -0.6780  0.2575
  157OSM   H18S17577   3.218   3.110   4.081  1.7684  0.2564  2.0237
  157OSM   H18T17578   3.312   2.979   4.006  1.1612  2.4801  0.1633
  157OSM   H18U17579   3.299   2.991   4.194 -0.7139 -0.3407  0.5311
  157OSM    C1F17580   2.459   3.088   2.392 -0.4058  0.3096 -0.1285
  157OSM     OF17581   2.419   2.998   2.319  0.9280 -0.5848 -0.0934
  157OSM    C2F17582   2.387   3.212   2.416 -0.0902 -0.0930  0.8720
  157OSM    H2F17583   2.317   3.226   2.331 -2.6224  0.8907  2.9755
  157OSM    H2G17584   2.461   3.295   2.416  0.6684 -0.7523  0.5752
  157OSM    C3F17585   2.293   3.208   2.541 -0.0734 -0.3851  0.4041
  157OSM    H3F17586   2.205   3.140   2.534 -1.0210  0.5832  2.3562
  157OSM    H3G17587   2.250   3.309   2.555  0.3060  0.0484 -1.3418
  157OSM    C4F17588   2.363   3.176   2.681  0.6671 -0.1172  0.2528
  157OSM    H4F17589   2.445   3.249   2.700  0.2048  0.9826 -1.7254
  157OSM    H4G17590   2.404   3.073   2.683  0.0456 -0.3624  0.8307
  157OSM    C5F17591   2.271   3.182   2.805  0.5407 -0.3672  0.3701
  157OSM    H5F17592   2.201   3.097   2.792  2.4839 -2.0577  0.4875
  157OSM    H5G17593   2.215   3.278   2.809  1.6776  0.8002 -4.5418
  157OSM    C6F17594   2.350   3.162   2.935  0.3493  0.2953  0.3476
  157OSM    H6F17595   2.369   3.254   2.994 -0.1117 -0.3751  1.5771
  157OSM    H6G17596   2.445   3.112   2.907 -0.1958 -0.6597  0.1210
  157OSM    C7F17597   2.283   3.060   3.029 -0.0330  0.6808 -0.5897
  157OSM    H7F17598   2.287   2.955   2.993  1.7192  0.0305  1.3262
  157OSM    H7G17599   2.177   3.094   3.036 -0.4862 -0.9575  1.3912
  157OSM    C8F17600   2.343   3.072   3.170 -0.1374 -0.6673  0.0457
  157OSM    H8F17601   2.325   3.177   3.199  0.7187 -0.1166 -1.3120
  157OSM    H8G17602   2.453   3.064   3.163 -0.0933  0.9892 -2.4599
  157OSM    C9F17603   2.287   2.964   3.265  0.0790 -0.0151  0.0989
  157OSM    H9F17604   2.230   2.889   3.208  0.7726 -0.1244 -0.4660
  157OSM   C10F17605   2.302   2.958   3.401 -0.1009  0.2585  0.0210
  157OSM   H10F17606   2.259   2.872   3.453 -0.7137 -0.5302 -1.7214
  157OSM   C11F17607   2.370   3.047   3.489  0.3826 -0.7029 -0.4022
  157OSM   H11F17608   2.347   3.152   3.463  3.0726  0.0287 -0.1720
  157OSM   H11G17609   2.480   3.043   3.473  1.1259  0.5574  3.3949
  157OSM   C12F17610   2.331   3.036   3.640 -0.0229 -0.0350 -0.6226
  157OSM   H12F17611   2.420   3.060   3.702  0.0524 -1.7156 -0.0161
  157OSM   H12G17612   2.315   2.929   3.666 -3.3935  0.7117  1.0365
  157OSM   C13F17613   2.197   3.107   3.676  0.3343  0.7773  0.0541
  157OSM   H13F17614   2.111   3.045   3.642  1.0816 -0.2553  0.0048
  157OSM   H13G17615   2.189   3.202   3.620 -0.0217  0.5188 -0.3421
  157OSM   C14F17616   2.183   3.131   3.830 -0.3722 -0.7089  0.3896
  157OSM   H14F17617   2.284   3.160   3.868 -0.0229  3.3876 -2.8656
  157OSM   H14G17618   2.154   3.035   3.877 -1.5406  0.7444  2.8088
  157OSM   C15F17619   2.079   3.233   3.874 -0.0280  0.3459  0.4361
  157OSM   H15F17620   1.980   3.194   3.844  0.2889  0.1467 -0.3843
  157OSM   H15G17621   2.098   3.328   3.819  0.3744 -1.3814 -2.6711
  157OSM   C16F17622   2.084   3.268   4.016 -0.1059  0.6128  0.4051
  157OSM   H16F17623   2.178   3.328   4.025  0.4927 -0.3200  0.4950
  157OSM   H16G17624   2.097   3.176   4.076  1.8926 -0.1190 -1.0566
  157OSM   C17F17625   1.967   3.355   4.072  0.0845 -0.2014  0.0403
  157OSM   H17F17626   1.880   3.302   4.027 -2.0536 -0.9854  4.5011
  157OSM   H17G17627   1.964   3.457   4.028 -0.4168 -0.0677  0.3719
  157OSM   C18F17628   1.960   3.355   4.225  0.6587  0.0209  0.3564
  157OSM   H18F17629   1.993   3.255   4.261  0.3917 -0.3576 -0.4409
  157OSM   H18G17630   1.859   3.373   4.267  0.4425 -0.6471  0.1223
  157OSM   H18H17631   2.030   3.433   4.263  2.4319 -0.6390 -1.3888
  158OSM      N17632   5.997   1.102   2.094  0.3105 -0.3444  0.0086
  158OSM    C1517633   5.939   1.236   2.057 -0.5399  0.1813  0.0253
  158OSM   H15A17634   5.832   1.238   2.040 -1.1325 -1.7259  2.9463
  158OSM   H15B17635   5.981   1.266   1.962 -0.9680 -0.8744 -0.5147
  158OSM   H15C17636   5.967   1.318   2.121 -0.0511 -0.0072  0.0589
  158OSM    C1417637   5.973   1.005   1.978  0.3226 -0.1156 -0.1285
  158OSM   H14A17638   5.990   0.902   2.007  0.5724  0.0558  0.3498
  158OSM   H14B17639   6.038   1.036   1.898 -1.3193 -0.5595 -1.7055
  158OSM   H14C17640   5.871   1.017   1.944  0.8033 -1.2108 -2.0669
  158OSM    C1317641   6.149   1.121   2.114 -0.8528 -0.6138  0.0403
  158OSM   H13A17642   6.160   1.204   2.182  0.2657 -1.1343  0.5053
  158OSM   H13B17643   6.192   1.155   2.021 -1.6549  1.0591  0.2368
  158OSM   H13C17644   6.194   1.033   2.157  0.4493  0.1621  0.3083
  158OSM    C1217645   5.943   1.052   2.223 -0.1152 -0.4978 -0.2489
  158OSM   H12A17646   5.841   1.019   2.210 -0.5239  0.4941  0.3425
  158OSM   H12B17647   5.935   1.132   2.296 -0.9719  0.3693 -1.2696
  158OSM    C1117648   6.002   0.921   2.281 -0.6510  0.1121 -0.4699
  158OSM   H11A17649   5.946   0.898   2.374  1.4788 -2.3226  0.3318
  158OSM   H11B17650   6.108   0.941   2.307  0.4384 -1.8501 -3.0121
  158OSM      P17651   5.878   0.719   2.155 -0.2713 -0.1227  0.0413
  158OSM    O1317652   5.756   0.786   2.107 -0.2309 -0.2889 -0.0691
  158OSM    O1417653   5.922   0.603   2.075  0.1971 -0.1468 -0.1880
  158OSM    O1117654   5.853   0.664   2.302 -0.2940 -0.4361 -0.8345
  158OSM    O1217655   6.006   0.815   2.183  0.3918 -0.6085 -0.2991
  158OSM    C1S17656   5.940   0.579   2.376 -0.2376  0.5854 -0.9057
  158OSM    H1S17657   6.040   0.624   2.394 -0.4994 -0.2397  4.1727
  158OSM    H1T17658   5.959   0.478   2.334  1.9334  0.0565  1.1049
  158OSM     NF17659   5.998   0.547   2.625  0.7128 -0.0936  0.6411
  158OSM    HNF17660   5.987   0.469   2.686 -2.2045  0.2981  0.7247
  158OSM    C2S17661   5.886   0.574   2.523 -0.0672  0.4425 -0.1147
  158OSM    H2S17662   5.850   0.676   2.548 -2.0801 -0.6377  1.7754
  158OSM    C3S17663   5.764   0.480   2.533  0.0078  0.2303  0.3396
  158OSM    H3S17664   5.786   0.385   2.479 -0.6359 -0.2281  0.8717
  158OSM     O317665   5.650   0.525   2.465  0.1875  0.3263  0.7041
  158OSM    HO317666   5.670   0.613   2.434  0.4325 -0.1827 -0.6269
  158OSM    C4S17667   5.721   0.455   2.676  0.4637 -0.5752  0.4297
  158OSM    H4S17668   5.650   0.524   2.723  0.5509  0.4153 -0.8290
  158OSM    C5S17669   5.754   0.341   2.746  0.0680 -0.7776 -0.3812
  158OSM    H5S17670   5.807   0.262   2.691  1.7654  1.0255 -1.4128
  158OSM    C6S17671   5.705   0.290   2.880  0.5178 -0.2575 -0.6421
  158OSM    H6S17672   5.791   0.266   2.947  0.6547  2.6521  0.3572
  158OSM    H6T17673   5.645   0.198   2.862  2.4832 -1.7093 -0.2051
  158OSM    C7S17674   5.616   0.388   2.965  0.3846 -0.1780 -0.1668
  158OSM    H7S17675   5.515   0.401   2.921 -1.1470  1.5607  3.4765
  158OSM    H7T17676   5.668   0.487   2.963  1.3020 -0.6095  1.0681
  158OSM    C8S17677   5.597   0.336   3.110 -0.3903 -0.2179  0.5758
  158OSM    H8S17678   5.690   0.360   3.166 -0.5075  0.1917  0.5946
  158OSM    H8T17679   5.589   0.225   3.111  3.9008 -0.7441 -0.1406
  158OSM    C9S17680   5.483   0.405   3.180 -0.5906 -0.3044  0.0811
  158OSM    H9S17681   5.393   0.384   3.120 -0.8508 -1.2713  0.7869
  158OSM    H9T17682   5.497   0.516   3.185 -1.7799 -0.1587  0.4973
  158OSM   C10S17683   5.474   0.359   3.326  0.0120 -0.5210  0.0835
  158OSM   H10S17684   5.470   0.248   3.329  0.7270 -0.5670 -0.4435
  158OSM   H10T17685   5.386   0.409   3.372  0.5995  0.9262 -0.3219
  158OSM   C11S17686   5.588   0.392   3.419 -0.4340  0.2439  0.1518
  158OSM   H11S17687   5.603   0.500   3.401  0.6891 -0.2358 -2.2351
  158OSM   H11T17688   5.683   0.347   3.382  0.2207  1.4102  0.3803
  158OSM   C12S17689   5.562   0.373   3.564  0.1069 -0.7456 -0.4198
  158OSM   H12S17690   5.545   0.269   3.599  2.1211 -0.8712  0.3336
  158OSM   H12T17691   5.465   0.423   3.586 -0.6956 -2.5615  0.3588
  158OSM   C13S17692   5.667   0.420   3.668 -0.5836  0.7799 -0.1809
  158OSM   H13S17693   5.704   0.524   3.653  1.2295 -0.0585 -2.0595
  158OSM   H13T17694   5.760   0.364   3.646 -0.8048  0.0650  0.6473
  158OSM   C14S17695   5.631   0.379   3.813 -0.1631 -0.3641  0.1115
  158OSM   H14S17696   5.605   0.272   3.825 -0.1979 -0.4869 -0.9583
  158OSM   H14T17697   5.536   0.430   3.840  1.5057  2.6752  0.6842
  158OSM   C15S17698   5.735   0.428   3.912 -0.5373  0.2368 -0.4270
  158OSM   H15S17699   5.749   0.538   3.904 -1.2517  0.3392 -0.3188
  158OSM   H15T17700   5.831   0.384   3.876  0.5580  1.6235  0.6622
  158OSM   C16S17701   5.717   0.382   4.053 -1.0449  0.1032  0.4316
  158OSM   H16S17702   5.806   0.413   4.110  0.0629  1.1539 -1.7411
  158OSM   H16T17703   5.701   0.274   4.075  0.9858 -0.4167 -0.3714
  158OSM   C17S17704   5.605   0.470   4.104 -0.5190  0.0656 -0.0078
  158OSM   H17S17705   5.511   0.442   4.051 -0.2807 -0.4791 -0.1388
  158OSM   H17T17706   5.622   0.578   4.082  2.3962  0.2132  2.2905
  158OSM   C18S17707   5.590   0.460   4.258  0.5492 -1.3066  0.4488
  158OSM   H18S17708   5.592   0.358   4.304  2.4709 -1.2787  0.5341
  158OSM   H18T17709   5.502   0.521   4.284 -0.9303 -1.2425 -3.9734
  158OSM   H18U17710   5.676   0.520   4.296 -1.4853  1.0155  1.5956
  158OSM    C1F17711   6.108   0.614   2.635  0.2461 -0.4819  0.1264
  158OSM     OF17712   6.119   0.728   2.584 -0.2026  0.3189  0.5874
  158OSM    C2F17713   6.214   0.561   2.728 -0.4009  0.2101  0.8918
  158OSM    H2F17714   6.247   0.460   2.694  0.6400  0.6568  0.5218
  158OSM    H2G17715   6.163   0.524   2.819 -3.3280 -0.0432 -0.7135
  158OSM    C3F17716   6.337   0.650   2.760  0.2459  0.5210  0.1777
  158OSM    H3F17717   6.289   0.732   2.817 -0.8207  0.5598 -0.7443
  158OSM    H3G17718   6.384   0.695   2.670  1.7444  0.2032  0.7581
  158OSM    C4F17719   6.444   0.577   2.843  0.2667 -0.5039 -1.0003
  158OSM    H4F17720   6.506   0.521   2.769  0.1796 -0.2005 -1.3062
  158OSM    H4G17721   6.390   0.504   2.907  2.0052 -1.2818 -0.3474
  158OSM    C5F17722   6.543   0.671   2.919  0.2488  0.0348 -0.5067
  158OSM    H5F17723   6.575   0.752   2.850 -0.5556  0.0209 -0.9034
  158OSM    H5G17724   6.635   0.615   2.946  0.9240  1.7728  1.0056
  158OSM    C6F17725   6.487   0.749   3.034  0.2404  0.5374  0.3306
  158OSM    H6F17726   6.418   0.680   3.088 -1.4709 -0.2102 -2.6242
  158OSM    H6G17727   6.424   0.833   2.997 -0.7120 -0.5974 -0.6910
  158OSM    C7F17728   6.589   0.821   3.123 -0.1688 -0.8208 -0.8372
  158OSM    H7F17729   6.684   0.853   3.075  1.1121 -2.1966  0.6482
  158OSM    H7G17730   6.620   0.741   3.194  0.1542 -0.6860 -0.8260
  158OSM    C8F17731   6.528   0.932   3.222  0.4210  0.0344 -0.0993
  158OSM    H8F17732   6.421   0.907   3.240  0.1739  0.2425 -1.1877
  158OSM    H8G17733   6.520   1.028   3.166 -0.1204 -0.8216 -1.5468
  158OSM    C9F17734   6.607   0.950   3.346 -0.3984 -0.6679 -0.2020
  158OSM    H9F17735   6.708   0.926   3.308 -0.1100  2.0986 -1.4000
  158OSM   C10F17736   6.573   0.953   3.475 -1.0827 -0.1004  0.3987
  158OSM   H10F17737   6.654   0.966   3.548  0.0899  0.0204 -0.8905
  158OSM   C11F17738   6.437   0.963   3.525 -0.4449 -0.0165  0.6356
  158OSM   H11F17739   6.371   0.885   3.481 -0.5347  0.2607  0.2662
  158OSM   H11G17740   6.398   1.066   3.506  0.3787  0.1890 -0.0232
  158OSM   C12F17741   6.433   0.938   3.673  0.1445 -0.1249  0.2185
  158OSM   H12F17742   6.525   0.975   3.723 -0.3075 -2.6860  3.2446
  158OSM   H12G17743   6.440   0.830   3.698 -0.9035 -0.8898 -2.4075
  158OSM   C13F17744   6.318   1.001   3.751  0.6973 -0.2402  0.8767
  158OSM   H13F17745   6.221   0.961   3.714  1.8821 -3.5202  1.0032
  158OSM   H13G17746   6.325   1.109   3.729  1.0065 -0.3468  0.4444
  158OSM   C14F17747   6.320   0.984   3.901 -0.5194  0.0572 -0.0114
  158OSM   H14F17748   6.423   1.011   3.934 -0.3259 -0.2806 -0.3274
  158OSM   H14G17749   6.301   0.876   3.921  0.5554  0.0544  1.0919
  158OSM   C15F17750   6.224   1.080   3.972 -0.5685 -0.0574 -0.3397
  158OSM   H15F17751   6.119   1.067   3.940 -0.6131  1.8275 -1.0439
  158OSM   H15G17752   6.257   1.183   3.948 -1.0226  0.3066  0.5496
  158OSM   C16F17753   6.223   1.073   4.125  0.2786 -0.0737  0.4396
  158OSM   H16F17754   6.321   1.101   4.170  0.0436  3.2453 -0.8101
  158OSM   H16G17755   6.200   0.966   4.145  0.5176 -0.1625  0.2415
  158OSM   C17F17756   6.105   1.158   4.186 -1.0324  0.5259  0.9659
  158OSM   H17F17757   6.008   1.131   4.140 -0.8814  0.2601  0.7978
  158OSM   H17G17758   6.126   1.265   4.168 -0.4908  0.4530  1.1365
  158OSM   C18F17759   6.084   1.140   4.341 -0.0909 -0.3086 -0.8745
  158OSM   H18F17760   6.177   1.142   4.403 -2.2892 -1.9806  2.8651
  158OSM   H18G17761   6.045   1.036   4.343 -0.5571 -0.1291  0.4390
  158OSM   H18H17762   6.014   1.217   4.377  0.9157 -0.5214  1.7767
  159OSM      N17763   2.391   3.254   1.827  0.5907  0.2173  0.3666
  159OSM    C1517764   2.383   3.208   1.690  0.0755 -0.3881 -0.0534
  159OSM   H15A17765   2.289   3.238   1.646  1.1928  2.1343 -0.8932
  159OSM   H15B17766   2.394   3.101   1.678 -1.4619 -0.7820  1.4744
  159OSM   H15C17767   2.468   3.241   1.634  1.4604 -1.0664  1.5535
  159OSM    C1417768   2.418   3.397   1.836  1.0554  0.3841 -0.2131
  159OSM   H14A17769   2.330   3.455   1.811 -1.4223 -2.2427  1.8379
  159OSM   H14B17770   2.510   3.420   1.783  1.7493  1.5594  1.4228
  159OSM   H14C17771   2.432   3.419   1.940  1.6969  1.1787 -0.4543
  159OSM    C1317772   2.264   3.218   1.895 -0.2386 -0.4824 -0.1924
  159OSM   H13A17773   2.256   3.276   1.986 -1.3958 -0.9555  0.0177
  159OSM   H13B17774   2.250   3.113   1.917 -0.8371 -0.4062 -0.1988
  159OSM   H13C17775   2.183   3.244   1.829 -0.2571 -0.1168 -0.0256
  159OSM    C1217776   2.508   3.182   1.894  0.2057 -0.7660 -0.1658
  159OSM   H12A17777   2.591   3.213   1.832 -1.7075  0.6012 -2.1716
  159OSM   H12B17778   2.495   3.075   1.886 -1.4622 -0.7243  1.3981
  159OSM    C1117779   2.543   3.204   2.043  0.4454  0.0533 -0.3149
  159OSM   H11A17780   2.618   3.131   2.080  0.5923  0.7091  0.7243
  159OSM   H11B17781   2.452   3.177   2.101 -0.5253 -1.1973 -2.3201
  159OSM      P17782   2.728   3.393   2.021 -0.3672 -0.1352 -0.0817
  159OSM    O1317783   2.798   3.284   1.952  0.5726  0.1182  0.0715
  159OSM    O1417784   2.700   3.514   1.945 -0.3359 -0.1688 -0.3873
  159OSM    O1117785   2.798   3.417   2.162  0.4555  0.1974 -0.2814
  159OSM    O1217786   2.584   3.339   2.070 -0.1124 -0.5539 -0.2982
  159OSM    C1S17787   2.737   3.424   2.288 -0.6263  0.0003 -0.8388
  159OSM    H1S17788   2.694   3.323   2.307 -1.7419  0.2565 -1.8320
  159OSM    H1T17789   2.647   3.489   2.284  0.0640  0.9235 -2.3265
  159OSM     NF17790   2.790   3.499   2.527  0.3586  0.1533  0.1533
  159OSM    HNF17791   2.793   3.595   2.554 -1.7156  0.6744 -1.1940
  159OSM    C2S17792   2.849   3.457   2.395  0.3927  0.2818  0.7590
  159OSM    H2S17793   2.908   3.363   2.404 -2.3173 -1.5408  0.8114
  159OSM    C3S17794   2.941   3.568   2.337  0.2333 -0.3630  0.0988
  159OSM    H3S17795   2.879   3.648   2.290 -1.0476 -0.7882  1.0058
  159OSM     O317796   3.035   3.531   2.235 -0.2816 -0.2695 -0.4197
  159OSM    HO317797   2.998   3.447   2.206  0.8075 -0.4066 -1.4752
  159OSM    C4S17798   3.016   3.645   2.443 -0.2159  0.1385  0.4171
  159OSM    H4S17799   3.075   3.569   2.496 -0.4592  1.3255  2.5057
  159OSM    C5S17800   3.038   3.781   2.459 -0.0344  0.1809  0.1682
  159OSM    H5S17801   2.977   3.855   2.405 -0.3959  0.6978  1.2681
  159OSM    C6S17802   3.134   3.836   2.557 -0.5387 -0.2539 -0.4043
  159OSM    H6S17803   3.189   3.928   2.528 -0.4356  0.7487  2.6061
  159OSM    H6T17804   3.213   3.760   2.571 -1.7887 -1.5288 -0.0973
  159OSM    C7S17805   3.061   3.861   2.692 -0.3338  0.1457  0.2290
  159OSM    H7S17806   3.016   3.761   2.712  2.0985 -0.8312  1.2241
  159OSM    H7T17807   2.987   3.940   2.670 -2.5453 -1.7349  0.4648
  159OSM    C8S17808   3.162   3.896   2.805  0.2761  0.1843  1.3492
  159OSM    H8S17809   3.236   3.972   2.775 -0.2110  0.7330  1.5162
  159OSM    H8T17810   3.219   3.803   2.828 -0.2706 -0.2665  0.9356
  159OSM    C9S17811   3.095   3.943   2.935 -0.1144  0.2931 -0.7172
  159OSM    H9S17812   3.172   3.977   3.007 -0.5333 -0.7124  0.2274
  159OSM    H9T17813   3.042   3.855   2.977 -1.0504  1.8232  1.5313
  159OSM   C10S17814   2.998   4.057   2.913 -0.3450  0.2336  0.7937
  159OSM   H10S17815   2.918   4.033   2.839 -0.6086  2.0244  0.4433
  159OSM   H10T17816   3.062   4.142   2.881 -1.3169  1.8153  2.7728
  159OSM   C11S17817   2.937   4.096   3.044 -0.7608  0.7973  0.5569
  159OSM   H11S17818   3.018   4.121   3.116  2.5753 -0.3169 -2.5264
  159OSM   H11T17819   2.891   4.004   3.087  1.2482 -0.1186  0.8948
  159OSM   C12S17820   2.826   4.194   3.030  0.3178 -0.7701 -0.0374
  159OSM   H12S17821   2.738   4.156   3.086 -0.6007 -0.3605 -1.1940
  159OSM   H12T17822   2.794   4.214   2.926  3.4982  2.1005 -0.6527
  159OSM   C13S17823   2.867   4.335   3.084  0.8716  0.3584  0.3294
  159OSM   H13S17824   2.884   4.331   3.193  1.3919 -1.1446  0.2143
  159OSM   H13T17825   2.781   4.401   3.059 -0.3663 -0.6085  1.8507
  159OSM   C14S17826   2.988   4.397   3.016 -0.4115 -0.0589  0.5725
  159OSM   H14S17827   2.970   4.401   2.907 -0.3329  0.9182  0.5825
  159OSM   H14T17828   3.070   4.323   3.028  0.8767  0.8579 -1.9503
  159OSM   C15S17829   3.050   4.526   3.088 -0.1049 -0.1284 -0.3906
  159OSM   H15S17830   3.058   4.501   3.196  0.7099 -3.1343 -1.0554
  159OSM   H15T17831   2.976   4.609   3.083 -0.3491 -0.3868 -1.2688
  159OSM   C16S17832   3.184   4.565   3.038 -0.1720 -0.2881  0.1368
  159OSM   H16S17833   3.194   4.577   2.928 -0.6122 -1.4643 -0.0383
  159OSM   H16T17834   3.242   4.472   3.056  1.9556  1.5025  3.8686
  159OSM   C17S17835   3.256   4.686   3.114  0.4641  0.0366  0.3151
  159OSM   H17S17836   3.250   4.666   3.224 -0.2987 -2.0747 -0.0616
  159OSM   H17T17837   3.198   4.779   3.097  0.4268  0.2485  1.4723
  159OSM   C18S17838   3.408   4.698   3.087 -0.0009 -0.1048  0.3838
  159OSM   H18S17839   3.450   4.605   3.130  1.1667 -1.7244 -3.7594
  159OSM   H18T17840   3.456   4.785   3.136 -1.7973  0.5087  1.1225
  159OSM   H18U17841   3.414   4.693   2.976  1.5509 -1.4768  0.4862
  159OSM    C1F17842   2.713   3.414   2.595  0.8535 -0.6478 -0.0844
  159OSM     OF17843   2.687   3.306   2.554 -0.0023  0.3058  0.0734
  159OSM    C2F17844   2.657   3.466   2.733  0.4796  0.1739 -0.4469
  159OSM    H2F17845   2.548   3.477   2.713 -0.0069 -0.4451  1.5927
  159OSM    H2G17846   2.700   3.568   2.742  2.8028 -0.6464 -1.5366
  159OSM    C3F17847   2.688   3.380   2.855  0.4012  0.3139  1.3354
  159OSM    H3F17848   2.798   3.367   2.868  0.6166 -0.0633 -0.5429
  159OSM    H3G17849   2.641   3.284   2.827  0.1634  1.1577 -1.4196
  159OSM    C4F17850   2.626   3.427   2.984 -0.1819 -0.2497  0.4270
  159OSM    H4F17851   2.516   3.441   2.975  0.0055  1.6408  0.7834
  159OSM    H4G17852   2.671   3.528   2.990  0.6549 -0.4830 -1.1547
  159OSM    C5F17853   2.659   3.328   3.098  0.2370 -0.3304 -0.2839
  159OSM    H5F17854   2.768   3.309   3.099  0.3669  0.3728  1.2017
  159OSM    H5G17855   2.616   3.227   3.079  1.4473 -1.1521  1.1138
  159OSM    C6F17856   2.604   3.369   3.231  0.4678 -1.1366  0.2412
  159OSM    H6F17857   2.493   3.374   3.226  0.5067  0.0446  0.3450
  159OSM    H6G17858   2.651   3.466   3.258  0.8309 -1.8081  2.2014
  159OSM    C7F17859   2.644   3.272   3.339 -0.0095 -0.7588  0.4498
  159OSM    H7F17860   2.746   3.239   3.309 -0.2992  0.5024 -2.1318
  159OSM    H7G17861   2.582   3.181   3.353 -0.6310 -0.2768  0.9219
  159OSM    C8F17862   2.671   3.337   3.477 -0.4394 -0.0464 -0.1355
  159OSM    H8F17863   2.745   3.419   3.490 -0.1854 -0.2573 -0.2567
  159OSM    H8G17864   2.716   3.257   3.538  1.6351  1.8880  1.0369
  159OSM    C9F17865   2.551   3.387   3.554 -0.3577  0.3806  0.5084
  159OSM    H9F17866   2.474   3.441   3.496  1.8515  2.1187 -0.9633
  159OSM   C10F17867   2.515   3.364   3.682 -0.2409 -0.7702  0.0041
  159OSM   H10F17868   2.425   3.411   3.726 -0.4375 -1.0450 -0.0975
  159OSM   C11F17869   2.607   3.307   3.786 -0.2441  0.0503  0.3245
  159OSM   H11F17870   2.691   3.378   3.800 -0.2762 -0.0513  1.0620
  159OSM   H11G17871   2.638   3.204   3.760 -1.7289 -0.7074  1.4284
  159OSM   C12F17872   2.540   3.301   3.919 -0.0023  0.5518  0.0089
  159OSM   H12F17873   2.434   3.270   3.909  0.1103  0.6981 -1.8293
  159OSM   H12G17874   2.536   3.406   3.957  0.0836  1.3604 -2.0848
  159OSM   C13F17875   2.620   3.212   4.017  0.4875  0.5472  0.5380
  159OSM   H13F17876   2.728   3.241   4.017  1.2306 -1.9273  1.4680
  159OSM   H13G17877   2.617   3.103   3.999 -2.3198  0.7433 -0.6335
  159OSM   C14F17878   2.576   3.240   4.157  0.0917 -0.3887  0.2324
  159OSM   H14F17879   2.467   3.221   4.172 -0.1929 -1.2536 -2.5125
  159OSM   H14G17880   2.598   3.348   4.176  1.1325 -0.5541 -0.0217
  159OSM   C15F17881   2.651   3.151   4.259  0.5395  0.2530  0.3347
  159OSM   H15F17882   2.623   3.047   4.232 -0.0658  0.1992  1.1263
  159OSM   H15G17883   2.606   3.170   4.359 -1.2756 -0.5812 -0.2770
  159OSM   C16F17884   2.804   3.178   4.255 -0.5082 -0.3527 -0.4035
  159OSM   H16F17885   2.833   3.281   4.284  0.1455 -0.9366  1.1266
  159OSM   H16G17886   2.863   3.146   4.167 -1.9413 -0.7175 -1.2553
  159OSM   C17F17887   2.876   3.095   4.368  0.0351 -0.1992  0.2709
  159OSM   H17F17888   2.881   2.995   4.321 -1.1637  0.3543 -1.1294
  159OSM   H17G17889   2.810   3.098   4.458  1.3759 -2.7197  1.4399
  159OSM   C18F17890   3.011   3.148   4.409 -0.1107 -0.4423  0.1082
  159OSM   H18F17891   3.025   3.115   4.514 -1.5571  0.0824  0.4870
  159OSM   H18G17892   3.013   3.258   4.395  3.2114 -0.4041  0.0379
  159OSM   H18H17893   3.089   3.111   4.339  0.7069 -0.1960  0.8703
  160OSM      N17894   5.740   3.029   1.772 -0.1351  0.3281 -0.3056
  160OSM    C1517895   5.719   2.977   1.632  0.4157  0.3937  0.2492
  160OSM   H15A17896   5.790   3.022   1.565 -0.3439 -0.1977 -0.9727
  160OSM   H15B17897   5.617   3.005   1.607  0.5517 -0.3739 -1.2342
  160OSM   H15C17898   5.724   2.870   1.630  2.1380  0.3817  1.8991
  160OSM    C1417899   5.740   3.177   1.759 -0.4023  0.2098 -0.0595
  160OSM   H14A17900   5.642   3.222   1.751 -0.0512  0.8945 -0.5543
  160OSM   H14B17901   5.791   3.208   1.669 -1.9437 -0.2084 -1.1176
  160OSM   H14C17902   5.791   3.222   1.843 -0.1889  0.6155 -0.4093
  160OSM    C1317903   5.638   2.995   1.866  0.8597 -0.4475  0.2851
  160OSM   H13A17904   5.665   3.033   1.963 -0.2665  0.4412  0.2657
  160OSM   H13B17905   5.619   2.891   1.845 -0.4103  0.2685 -2.5494
  160OSM   H13C17906   5.548   3.048   1.838 -1.4392 -2.7698  2.6994
  160OSM    C1217907   5.875   2.974   1.825  0.5598 -0.5211 -0.3165
  160OSM   H12A17908   5.956   2.984   1.754  0.5923 -3.1476 -0.7156
  160OSM   H12B17909   5.864   2.868   1.841  1.0608 -0.7801 -1.5435
  160OSM    C1117910   5.935   3.038   1.956  0.7987 -0.2186  0.1292
  160OSM   H11A17911   6.036   2.992   1.969  0.6156 -1.1143 -1.3787
  160OSM   H11B17912   5.867   3.011   2.040 -0.5375  0.2892 -0.7726
  160OSM      P17913   5.982   3.266   2.056  0.2741  0.4140  0.1591
  160OSM    O1317914   6.109   3.328   2.049  0.5473 -0.5484 -0.4470
  160OSM    O1417915   5.879   3.367   2.088  0.3557 -0.0639 -0.2156
  160OSM    O1117916   5.993   3.171   2.179 -0.4768 -0.0241 -0.3596
  160OSM    O1217917   5.946   3.174   1.937  0.6615 -0.0496  0.0608
  160OSM    C1S17918   6.002   3.234   2.312 -0.3209  0.4140 -0.8058
  160OSM    H1S17919   5.902   3.271   2.344 -0.8978  0.1105 -2.1889
  160OSM    H1T17920   6.091   3.300   2.319 -1.0432  1.3911 -0.4863
  160OSM     NF17921   6.000   3.168   2.554 -0.1802  0.3119  0.5559
  160OSM    HNF17922   6.088   3.193   2.593  0.4561 -1.1099  0.0985
  160OSM    C2S17923   6.025   3.120   2.424  0.5421 -0.0208 -0.1983
  160OSM    H2S17924   5.942   3.048   2.410 -1.3727  2.2437 -1.1199
  160OSM    C3S17925   6.162   3.056   2.408  0.1879  0.0476 -0.1720
  160OSM    H3S17926   6.231   3.141   2.427  0.0507 -0.3905  2.7303
  160OSM     O317927   6.191   3.016   2.277  0.4632 -0.0750  0.1374
  160OSM    HO317928   6.117   3.058   2.232  0.3422  0.2740  0.6540
  160OSM    C4S17929   6.188   2.943   2.510 -0.0516 -0.8160 -0.6145
  160OSM    H4S17930   6.203   2.977   2.614 -1.2527 -1.6069 -0.1647
  160OSM    C5S17931   6.177   2.806   2.495  0.6333  0.8670  0.0069
  160OSM    H5S17932   6.154   2.759   2.399  1.3270 -0.6370  0.5318
  160OSM    C6S17933   6.200   2.726   2.620  0.2255  1.1306 -0.3361
  160OSM    H6S17934   6.154   2.626   2.605 -0.4465  1.5520 -1.1527
  160OSM    H6T17935   6.161   2.777   2.711  3.2390 -0.9998  2.3567
  160OSM    C7S17936   6.347   2.699   2.656  0.3362  0.1647  0.5075
  160OSM    H7S17937   6.404   2.794   2.660  0.2827  0.2876 -0.9756
  160OSM    H7T17938   6.398   2.646   2.572  1.9599  0.6161  1.1833
  160OSM    C8S17939   6.367   2.603   2.779 -0.6622 -0.5885  0.0676
  160OSM    H8S17940   6.471   2.566   2.779 -0.4173  0.0813  0.7388
  160OSM    H8T17941   6.284   2.528   2.778 -0.2397 -1.0889  1.0690
  160OSM    C9S17942   6.352   2.689   2.914 -0.4403  0.2543  0.9944
  160OSM    H9S17943   6.252   2.736   2.912 -2.2162 -3.1800  1.4288
  160OSM    H9T17944   6.436   2.762   2.915  0.8972 -1.1763 -0.3998
  160OSM   C10S17945   6.354   2.596   3.045 -0.2607 -0.0022 -0.2928
  160OSM   H10S17946   6.458   2.566   3.073 -0.8955 -1.6952  0.4295
  160OSM   H10T17947   6.293   2.505   3.026 -2.6281  1.2902  0.7926
  160OSM   C11S17948   6.289   2.673   3.166  0.2872 -0.1120 -0.1190
  160OSM   H11S17949   6.181   2.686   3.145 -0.0619 -1.8049  0.4620
  160OSM   H11T17950   6.336   2.773   3.161 -0.4780  0.3041  0.7392
  160OSM   C12S17951   6.317   2.600   3.301 -0.1996  0.4114  0.6035
  160OSM   H12S17952   6.427   2.597   3.317 -0.1405  0.5734  0.2258
  160OSM   H12T17953   6.272   2.499   3.297  0.8041 -0.0054 -0.8121
  160OSM   C13S17954   6.258   2.678   3.420 -0.0288  0.0449  0.5357
  160OSM   H13S17955   6.151   2.698   3.401  0.3709  0.8629 -1.0386
  160OSM   H13T17956   6.294   2.783   3.415  0.5504 -0.0456  2.0767
  160OSM   C14S17957   6.289   2.625   3.558  0.5463  0.9359 -0.2011
  160OSM   H14S17958   6.395   2.635   3.592  1.5786 -0.5440 -2.6780
  160OSM   H14T17959   6.273   2.515   3.560 -0.8871  1.1420  0.8534
  160OSM   C15S17960   6.189   2.686   3.651 -0.1143 -0.0760 -0.3282
  160OSM   H15S17961   6.087   2.667   3.613 -0.8427 -0.3099  1.6810
  160OSM   H15T17962   6.196   2.797   3.656 -2.0999  0.0228  1.2057
  160OSM   C16S17963   6.189   2.641   3.802 -0.1606 -0.2745 -1.2101
  160OSM   H16S17964   6.293   2.613   3.830  0.3782 -0.4361 -3.1882
  160OSM   H16T17965   6.127   2.552   3.822 -0.0861  0.0759  0.7595
  160OSM   C17S17966   6.121   2.754   3.891 -0.2070  0.4368 -0.8191
  160OSM   H17S17967   6.017   2.767   3.856 -0.5077 -1.9402 -0.9624
  160OSM   H17T17968   6.177   2.848   3.869 -1.6785  1.4623 -0.2959
  160OSM   C18S17969   6.118   2.720   4.046  0.5429  0.4959 -0.1196
  160OSM   H18S17970   6.205   2.667   4.088 -1.2807 -1.4713  1.3862
  160OSM   H18T17971   6.030   2.655   4.064  2.0652 -0.9819  2.5427
  160OSM   H18U17972   6.104   2.812   4.106 -0.4397 -1.0054  2.0744
  160OSM    C1F17973   5.877   3.201   2.610 -0.4399  0.7174  0.1477
  160OSM     OF17974   5.775   3.163   2.557 -0.4644 -0.2217  1.0628
  160OSM    C2F17975   5.874   3.270   2.741  0.7561 -0.2996 -0.4974
  160OSM    H2F17976   5.898   3.377   2.723 -0.5130  0.8861  3.6430
  160OSM    H2G17977   5.953   3.234   2.811  1.3762 -1.0103 -1.5487
  160OSM    C3F17978   5.727   3.271   2.810  0.1495 -0.0533 -0.4627
  160OSM    H3F17979   5.702   3.164   2.830  2.8985 -0.4284  1.4682
  160OSM    H3G17980   5.652   3.310   2.737  1.2234  2.7271 -0.2098
  160OSM    C4F17981   5.733   3.354   2.937  0.2644 -0.7086  0.0586
  160OSM    H4F17982   5.631   3.347   2.979  0.5507 -3.7061  0.4723
  160OSM    H4G17983   5.745   3.463   2.916 -3.1628 -0.1272  0.5760
  160OSM    C5F17984   5.822   3.295   3.049  0.3467 -0.3364 -0.1608
  160OSM    H5F17985   5.923   3.283   3.005 -0.6295 -2.2871 -2.0415
  160OSM    H5G17986   5.781   3.195   3.073 -0.0205 -0.0849  0.2708
  160OSM    C6F17987   5.820   3.383   3.175  0.4478  0.1627 -0.4700
  160OSM    H6F17988   5.853   3.487   3.154 -0.7978  0.7414  0.2702
  160OSM    H6G17989   5.896   3.338   3.243  1.6944 -0.6763 -2.3205
  160OSM    C7F17990   5.684   3.396   3.245  0.5214 -0.4235 -0.2352
  160OSM    H7F17991   5.608   3.428   3.171  0.5166 -0.4703 -0.2509
  160OSM    H7G17992   5.695   3.477   3.320 -0.1345  0.8889 -1.5113
  160OSM    C8F17993   5.643   3.273   3.324 -0.6144  0.2725 -0.7596
  160OSM    H8F17994   5.714   3.256   3.407 -1.4710 -0.8368 -0.2387
  160OSM    H8G17995   5.635   3.182   3.261 -2.8230  0.3476 -0.6672
  160OSM    C9F17996   5.509   3.295   3.387 -0.3982 -0.2188 -0.2856
  160OSM    H9F17997   5.427   3.272   3.318 -1.9070 -3.3018  2.2539
  160OSM   C10F17998   5.479   3.317   3.522  0.4515  0.5720  0.6448
  160OSM   H10F17999   5.378   3.343   3.556 -0.6043  0.7720 -2.3576
  160OSM   C11F18000   5.583   3.334   3.622 -0.3171  0.2006 -0.1521
  160OSM   H11F18001   5.639   3.429   3.603 -2.5021  1.7320  0.6088
  160OSM   H11G18002   5.653   3.250   3.608  0.1062  0.5385 -0.0935
  160OSM   C12F18003   5.537   3.309   3.765 -0.8537 -0.1845  0.2576
  160OSM   H12F18004   5.627   3.268   3.816 -0.9552 -0.5807  0.1249
  160OSM   H12G18005   5.462   3.228   3.775 -0.6440 -0.5237 -0.7129
  160OSM   C13F18006   5.496   3.435   3.836 -0.1807 -0.5665  0.2591
  160OSM   H13F18007   5.412   3.491   3.791  0.0182 -0.1615  0.3923
  160OSM   H13G18008   5.580   3.508   3.843 -1.5627  1.0899  0.1142
  160OSM   C14F18009   5.445   3.405   3.979  0.0820 -0.1421 -0.6028
  160OSM   H14F18010   5.524   3.348   4.032 -1.3740  0.5878  2.5885
  160OSM   H14G18011   5.344   3.359   3.982 -0.2436  0.5598 -0.7150
  160OSM   C15F18012   5.436   3.533   4.064  0.4004  0.0054 -0.6747
  160OSM   H15F18013   5.396   3.621   4.009  2.6272  2.2279  1.0043
  160OSM   H15G18014   5.535   3.584   4.070 -0.7861  2.5112 -0.9808
  160OSM   C16F18015   5.373   3.502   4.209  0.1915 -0.3020  0.2968
  160OSM   H16F18016   5.430   3.412   4.241 -0.7074 -0.2718  2.1274
  160OSM   H16G18017   5.267   3.476   4.185 -0.3596 -0.1974  2.4252
  160OSM   C17F18018   5.390   3.604   4.323 -0.0686  0.4105 -0.4346
  160OSM   H17F18019   5.349   3.700   4.285 -1.6887  0.2788  0.8537
  160OSM   H17G18020   5.498   3.622   4.342 -0.2046  0.8157 -0.0209
  160OSM   C18F18021   5.325   3.567   4.455  0.2498 -0.1314  0.5655
  160OSM   H18F18022   5.243   3.499   4.422  0.9950 -0.6649 -0.2372
  160OSM   H18G18023   5.294   3.662   4.504  1.9349  0.3815  0.7169
  160OSM   H18H18024   5.400   3.512   4.516  0.4589 -0.3713  0.1019
  161OSM      N18025   3.740   3.002   1.869  0.1067 -0.4995  0.4889
  161OSM    C1518026   3.676   3.056   1.997  0.1426 -0.1360 -0.2384
  161OSM   H15A18027   3.758   3.064   2.068  1.5243 -0.4522 -1.7278
  161OSM   H15B18028   3.597   2.992   2.034  0.4337 -1.2108 -1.4011
  161OSM   H15C18029   3.642   3.158   1.988  1.3441  0.2916 -0.1837
  161OSM    C1418030   3.828   3.104   1.817  0.4729  0.0662  0.0109
  161OSM   H14A18031   3.891   3.070   1.736  0.7836  0.0072  0.2747
  161OSM   H14B18032   3.895   3.134   1.896  1.6247 -2.2585  0.0051
  161OSM   H14C18033   3.781   3.198   1.793 -0.2727  0.1613  1.6874
  161OSM    C1318034   3.816   2.877   1.904  0.9699  0.5470  0.4612
  161OSM   H13A18035   3.742   2.801   1.924 -0.6845  1.3686 -2.0554
  161OSM   H13B18036   3.890   2.896   1.980  2.2786 -0.0456 -0.6142
  161OSM   H13C18037   3.873   2.850   1.816  0.9829 -0.3639  0.7429
  161OSM    C1218038   3.629   2.977   1.767 -0.0750  0.9251 -0.4216
  161OSM   H12A18039   3.674   2.962   1.670  0.7979  1.7335 -0.1642
  161OSM   H12B18040   3.566   3.062   1.746 -1.2724  1.4723  4.2008
  161OSM    C1118041   3.532   2.861   1.796 -0.8305 -0.2334 -0.2094
  161OSM   H11A18042   3.452   2.879   1.721 -1.2258  1.5101  0.5832
  161OSM   H11B18043   3.489   2.879   1.897  1.1833  4.0444  0.1074
  161OSM      P18044   3.500   2.613   1.805  0.0673  0.1255  0.1957
  161OSM    O1318045   3.394   2.622   1.707 -0.6714  0.0320  0.2969
  161OSM    O1418046   3.580   2.488   1.798 -0.7533 -0.2673 -0.1401
  161OSM    O1118047   3.451   2.621   1.955  0.3314 -0.2308 -0.6736
  161OSM    O1218048   3.601   2.732   1.785 -0.3161  1.0095  0.2694
  161OSM    C1S18049   3.537   2.652   2.066  0.3457  0.1656 -0.0214
  161OSM    H1S18050   3.598   2.745   2.055  0.9183 -0.0756  0.9640
  161OSM    H1T18051   3.602   2.563   2.073 -1.4478 -1.1600  0.4229
  161OSM     NF18052   3.540   2.723   2.303  0.0869 -0.3029  0.3896
  161OSM    HNF18053   3.586   2.672   2.376  0.0623  1.5172  1.7528
  161OSM    C2S18054   3.458   2.661   2.202 -0.7790  0.0248  0.1125
  161OSM    H2S18055   3.371   2.727   2.181  0.0084  0.8763 -0.5970
  161OSM    C3S18056   3.400   2.522   2.230 -0.7137 -0.2394 -0.4080
  161OSM    H3S18057   3.484   2.451   2.249  0.0405  0.2665 -1.7253
  161OSM     O318058   3.329   2.464   2.122  0.0316 -0.6523 -0.0854
  161OSM    HO318059   3.335   2.528   2.051 -0.1500 -2.0275 -1.3921
  161OSM    C4S18060   3.306   2.525   2.349  0.0060 -0.1723 -0.1843
  161OSM    H4S18061   3.220   2.591   2.332  0.9373  0.5808 -2.3519
  161OSM    C5S18062   3.289   2.449   2.458  0.6499  0.0623  0.5322
  161OSM    H5S18063   3.359   2.368   2.480 -0.5228 -0.8986  0.8540
  161OSM    C6S18064   3.176   2.476   2.555 -0.1695 -0.1994  0.2028
  161OSM    H6S18065   3.158   2.386   2.618  2.0684 -1.2805 -0.6101
  161OSM    H6T18066   3.082   2.487   2.497 -0.0403 -2.5820 -0.5844
  161OSM    C7S18067   3.210   2.591   2.648 -0.1318 -0.0280 -0.4659
  161OSM    H7S18068   3.271   2.666   2.592  0.1194  1.0588  1.1815
  161OSM    H7T18069   3.270   2.552   2.733 -1.1911 -0.6117  0.0351
  161OSM    C8S18070   3.082   2.648   2.697 -0.0118 -0.9996  0.3587
  161OSM    H8S18071   3.005   2.656   2.618 -1.8653  0.2624  2.1793
  161OSM    H8T18072   3.099   2.751   2.734  1.9750 -1.0996 -0.1422
  161OSM    C9S18073   3.008   2.575   2.810 -0.8342  0.0362 -0.3912
  161OSM    H9S18074   2.979   2.476   2.770  2.9187 -1.7708  0.8949
  161OSM    H9T18075   2.920   2.641   2.825 -1.1421  0.0980 -2.2802
  161OSM   C10S18076   3.071   2.566   2.952  0.4898 -0.1824  0.8111
  161OSM   H10S18077   3.114   2.665   2.978 -0.3718  0.3974  0.0681
  161OSM   H10T18078   3.155   2.493   2.951  0.7838  0.1240  1.9064
  161OSM   C11S18079   2.974   2.520   3.053 -0.6812  0.0540 -0.5166
  161OSM   H11S18080   2.953   2.413   3.034  1.6917 -0.8023  1.2439
  161OSM   H11T18081   2.885   2.586   3.048  0.1508  1.1401 -1.4985
  161OSM   C12S18082   3.027   2.537   3.202 -0.1048  0.0326  0.0770
  161OSM   H12S18083   3.041   2.645   3.221 -2.7444 -0.0176  3.4272
  161OSM   H12T18084   3.117   2.475   3.221  0.3929  0.5567 -0.5787
  161OSM   C13S18085   2.943   2.476   3.318 -0.3195 -0.0224  0.1467
  161OSM   H13S18086   2.951   2.366   3.307 -2.6340  0.0116 -3.2572
  161OSM   H13T18087   2.838   2.506   3.297  0.5579  1.6768 -2.1918
  161OSM   C14S18088   2.963   2.520   3.468  0.2611 -0.0554 -0.3192
  161OSM   H14S18089   2.944   2.628   3.483  0.7601 -0.2191  1.8013
  161OSM   H14T18090   3.067   2.501   3.502 -0.0963  2.2070  2.3412
  161OSM   C15S18091   2.875   2.435   3.555  0.1036 -0.1422 -0.2933
  161OSM   H15S18092   2.856   2.340   3.500  1.6671 -0.6949  0.0668
  161OSM   H15T18093   2.779   2.488   3.573 -0.9842 -1.0199 -2.9248
  161OSM   C16S18094   2.947   2.404   3.689  0.8644  0.9591  0.0463
  161OSM   H16S18095   3.036   2.346   3.655  0.9952  1.9167 -1.3636
  161OSM   H16T18096   2.878   2.344   3.752  2.2323 -0.3632  0.3301
  161OSM   C17S18097   2.987   2.529   3.786 -0.6582 -0.2571  0.0609
  161OSM   H17S18098   2.896   2.574   3.832 -3.0670 -1.1043 -3.3993
  161OSM   H17T18099   3.038   2.601   3.718 -0.2667  0.2890  0.9143
  161OSM   C18S18100   3.093   2.490   3.885  0.4857  0.5440  0.7489
  161OSM   H18S18101   3.181   2.454   3.827  0.9402  0.5363  1.4266
  161OSM   H18T18102   3.064   2.405   3.950 -1.5299  1.2119  0.7841
  161OSM   H18U18103   3.123   2.571   3.956 -0.0552  0.7613  0.7320
  161OSM    C1F18104   3.573   2.853   2.299 -0.9424 -0.2068  0.8767
  161OSM     OF18105   3.506   2.936   2.234 -0.2609  0.0330  0.0909
  161OSM    C2F18106   3.695   2.900   2.367  0.3025  0.0235 -0.1317
  161OSM    H2F18107   3.774   2.921   2.292  0.1540 -0.2268 -0.3621
  161OSM    H2G18108   3.732   2.819   2.433 -2.0752 -1.2630 -0.2580
  161OSM    C3F18109   3.664   3.027   2.443 -0.7353 -0.3782 -0.7498
  161OSM    H3F18110   3.648   3.108   2.369 -0.2570  1.0624  0.6599
  161OSM    H3G18111   3.750   3.054   2.508 -1.3121 -1.4651  0.5142
  161OSM    C4F18112   3.536   3.012   2.533 -0.6904  0.4135 -0.9117
  161OSM    H4F18113   3.451   2.988   2.465  0.8266 -0.1303 -2.6722
  161OSM    H4G18114   3.515   3.111   2.579 -0.2552  0.0033  0.1922
  161OSM    C5F18115   3.546   2.910   2.641  0.1781  0.2230 -0.7540
  161OSM    H5F18116   3.641   2.914   2.699  0.1929 -1.0366 -0.6780
  161OSM    H5G18117   3.555   2.813   2.589 -0.8859  0.6861 -1.8533
  161OSM    C6F18118   3.428   2.908   2.747 -0.2773  0.4495 -0.2431
  161OSM    H6F18119   3.334   2.909   2.689 -1.5951 -2.8465  1.5739
  161OSM    H6G18120   3.436   3.003   2.804 -0.3116 -0.0259  0.5701
  161OSM    C7F18121   3.438   2.782   2.836 -0.0597  0.6188  0.1222
  161OSM    H7F18122   3.544   2.762   2.862 -0.7868 -2.2861  1.3274
  161OSM    H7G18123   3.394   2.697   2.779  0.2201 -0.3404  1.3023
  161OSM    C8F18124   3.365   2.773   2.977  0.2336 -0.6215  0.3601
  161OSM    H8F18125   3.368   2.669   3.014 -1.5214 -1.2212 -1.0438
  161OSM    H8G18126   3.258   2.799   2.960  0.0706 -1.0810  0.6728
  161OSM    C9F18127   3.430   2.873   3.068  1.0772  0.5819 -0.2647
  161OSM    H9F18128   3.455   2.970   3.023 -0.4905  1.4293  0.6339
  161OSM   C10F18129   3.435   2.863   3.205  0.3396  0.4216 -0.3572
  161OSM   H10F18130   3.477   2.936   3.276  0.1062 -1.1644  1.4944
  161OSM   C11F18131   3.388   2.748   3.295  0.6549  0.0850  0.6454
  161OSM   H11F18132   3.480   2.699   3.334  0.3584 -0.7420  0.3221
  161OSM   H11G18133   3.349   2.659   3.241  0.0899 -0.1061  1.3563
  161OSM   C12F18134   3.297   2.792   3.404  0.3039  0.4916 -0.0523
  161OSM   H12F18135   3.191   2.799   3.372 -0.8620 -4.2465  1.8637
  161OSM   H12G18136   3.324   2.891   3.445 -0.4385 -0.4926  3.0766
  161OSM   C13F18137   3.306   2.694   3.523 -0.0746 -0.3797 -0.3558
  161OSM   H13F18138   3.335   2.593   3.488  2.2138  0.9142 -2.4795
  161OSM   H13G18139   3.209   2.676   3.575  1.2073 -2.3598  1.5647
  161OSM   C14F18140   3.408   2.738   3.634  0.1514 -0.0421  0.5071
  161OSM   H14F18141   3.382   2.845   3.649  0.4387  0.7518 -3.5927
  161OSM   H14G18142   3.509   2.732   3.589 -0.8830 -0.0490 -1.9957
  161OSM   C15F18143   3.400   2.650   3.758 -0.1239  0.2938 -1.1783
  161OSM   H15F18144   3.424   2.542   3.751 -0.4459  0.1041  0.2122
  161OSM   H15G18145   3.293   2.652   3.787  0.1561  1.5822 -0.1194
  161OSM   C16F18146   3.480   2.706   3.876 -0.3249  0.3661 -0.9284
  161OSM   H16F18147   3.459   2.815   3.883 -3.6700 -0.2693  1.2598
  161OSM   H16G18148   3.590   2.696   3.868 -0.2529 -0.1388  0.4016
  161OSM   C17F18149   3.444   2.655   4.017 -0.1277  0.3362  0.5276
  161OSM   H17F18150   3.480   2.550   4.013  0.5790  0.5780  0.6034
  161OSM   H17G18151   3.334   2.645   4.029  0.2551 -5.4540  1.9469
  161OSM   C18F18152   3.517   2.720   4.134  0.4630 -0.5593  0.7617
  161OSM   H18F18153   3.626   2.700   4.132  0.9493  1.8244 -0.7727
  161OSM   H18G18154   3.471   2.678   4.225 -0.6733 -2.5170 -0.6439
  161OSM   H18H18155   3.498   2.830   4.131  0.2679 -0.5965  0.5863
  162OSM      N18156   4.649   1.768   1.647  0.6569  0.8126 -0.1500
  162OSM    C1518157   4.648   1.643   1.559  0.5252 -0.2043  0.6612
  162OSM   H15A18158   4.711   1.561   1.591 -2.6041 -2.0573  2.6307
  162OSM   H15B18159   4.663   1.671   1.456 -4.1604  0.9941  0.0604
  162OSM   H15C18160   4.546   1.608   1.550  0.3317  0.7415 -1.3008
  162OSM    C1418161   4.786   1.832   1.648 -0.0137 -0.0139  0.2115
  162OSM   H14A18162   4.859   1.780   1.709  2.0299  1.2978 -0.9917
  162OSM   H14B18163   4.780   1.934   1.684 -0.3340  0.5609 -1.3928
  162OSM   H14C18164   4.822   1.835   1.546  0.0805  2.2196  0.2473
  162OSM    C1318165   4.545   1.861   1.595  0.3511  0.1720  0.1209
  162OSM   H13A18166   4.451   1.808   1.587  0.9440 -0.7640 -0.8177
  162OSM   H13B18167   4.571   1.895   1.496 -0.7254 -0.6131 -0.4526
  162OSM   H13C18168   4.541   1.947   1.660  0.8296 -0.2841  0.7659
  162OSM    C1218169   4.608   1.728   1.790  0.2229  0.0821  0.5023
  162OSM   H12A18170   4.649   1.630   1.807 -2.3628 -0.9011  1.6191
  162OSM   H12B18171   4.504   1.700   1.793  0.7873 -2.2272  0.0860
  162OSM    C1118172   4.644   1.817   1.909  0.1330 -0.2561 -0.2658
  162OSM   H11A18173   4.753   1.836   1.918 -0.0919  0.8523  0.1942
  162OSM   H11B18174   4.623   1.765   2.005  3.3819  0.3462  0.8749
  162OSM      P18175   4.653   2.073   1.952  0.0977 -0.5366 -0.0881
  162OSM    O1318176   4.798   2.059   1.928  0.1550  0.4660 -0.3127
  162OSM    O1418177   4.589   2.184   1.885  0.0160 -0.3185  0.4004
  162OSM    O1118178   4.623   2.082   2.109 -0.3918 -0.1362  0.6311
  162OSM    O1218179   4.573   1.943   1.911 -0.1876 -0.1399  0.3421
  162OSM    C1S18180   4.477   2.065   2.126  0.1028  0.3657  0.3351
  162OSM    H1S18181   4.457   1.956   2.132 -3.4861  0.9254  0.7824
  162OSM    H1T18182   4.410   2.104   2.046  0.1383  0.0660  0.1586
  162OSM     NF18183   4.311   2.079   2.298 -0.3875 -0.5090 -0.7737
  162OSM    HNF18184   4.235   2.139   2.273  1.3624  1.9473 -0.5562
  162OSM    C2S18185   4.447   2.119   2.268  0.8901 -0.0125 -0.3356
  162OSM    H2S18186   4.506   2.066   2.346  0.5625  0.5283  0.2951
  162OSM    C3S18187   4.473   2.270   2.284  0.0445  0.6754 -0.0913
  162OSM    H3S18188   4.425   2.322   2.199  1.5793  0.1177 -1.3606
  162OSM     O318189   4.611   2.307   2.263 -0.2982  0.5010  0.1256
  162OSM    HO318190   4.646   2.223   2.231 -1.0773 -0.2945  1.2737
  162OSM    C4S18191   4.434   2.318   2.423  0.0426  0.2008 -0.0856
  162OSM    H4S18192   4.508   2.293   2.500  0.1662  0.0756 -0.2426
  162OSM    C5S18193   4.326   2.389   2.456 -0.1736  0.1580  0.0395
  162OSM    H5S18194   4.253   2.408   2.377 -0.2729 -1.5720 -0.3432
  162OSM    C6S18195   4.303   2.432   2.592  0.1929  0.6704 -0.5022
  162OSM    H6S18196   4.207   2.489   2.596 -0.0250  0.2323  1.5510
  162OSM    H6T18197   4.375   2.513   2.618  0.2770  0.2712  0.5390
  162OSM    C7S18198   4.289   2.311   2.694  0.5303 -0.1289  0.1858
  162OSM    H7S18199   4.363   2.231   2.678  0.3077 -0.3161  0.0833
  162OSM    H7T18200   4.186   2.270   2.685  0.3534  0.2452  0.4307
  162OSM    C8S18201   4.296   2.364   2.843  0.1048  0.3919 -0.6824
  162OSM    H8S18202   4.393   2.419   2.847 -0.5648  1.6623 -1.0941
  162OSM    H8T18203   4.294   2.277   2.911  0.2124 -0.0301 -1.2175
  162OSM    C9S18204   4.181   2.449   2.886  0.3597 -0.1079 -0.4131
  162OSM    H9S18205   4.081   2.399   2.886 -0.8026  2.1081 -0.7336
  162OSM    H9T18206   4.185   2.530   2.811 -0.2565  0.3759  0.0715
  162OSM   C10S18207   4.214   2.493   3.032  0.0266 -1.0378  0.2011
  162OSM   H10S18208   4.162   2.591   3.042  0.1224 -0.8013 -1.4304
  162OSM   H10T18209   4.321   2.517   3.049  0.2812 -0.1747 -2.2794
  162OSM   C11S18210   4.171   2.393   3.140  0.6341 -0.0213 -1.0438
  162OSM   H11S18211   4.221   2.295   3.128 -2.0219 -1.4607 -1.0698
  162OSM   H11T18212   4.064   2.369   3.119  1.0143 -1.0151 -1.9217
  162OSM   C12S18213   4.205   2.444   3.273  0.1919 -0.0509 -0.2635
  162OSM   H12S18214   4.147   2.538   3.292 -0.9107 -1.1248  2.2018
  162OSM   H12T18215   4.315   2.459   3.274 -0.0136  1.7246 -0.0184
  162OSM   C13S18216   4.164   2.352   3.392 -0.6627  0.2433 -0.4242
  162OSM   H13S18217   4.235   2.267   3.382  0.3659  1.2739 -2.5906
  162OSM   H13T18218   4.062   2.313   3.372 -0.2692 -0.0916 -1.9682
  162OSM   C14S18219   4.193   2.423   3.525  0.2675 -0.3516 -0.7416
  162OSM   H14S18220   4.128   2.514   3.533  1.5861  0.7860 -2.3445
  162OSM   H14T18221   4.295   2.465   3.518 -0.0171  0.4592 -0.2442
  162OSM   C15S18222   4.184   2.331   3.648  0.1054  0.3651  0.3451
  162OSM   H15S18223   4.213   2.229   3.616 -3.7351 -1.1198  1.0264
  162OSM   H15T18224   4.077   2.335   3.681 -0.2345  3.2197 -0.7797
  162OSM   C16S18225   4.271   2.375   3.764 -0.2205  0.1778 -0.1567
  162OSM   H16S18226   4.367   2.412   3.723  0.5110  1.0764  2.2223
  162OSM   H16T18227   4.290   2.297   3.840 -0.0606 -2.1297 -2.4142
  162OSM   C17S18228   4.212   2.498   3.836 -0.6021 -0.1139  0.4972
  162OSM   H17S18229   4.127   2.476   3.904 -0.7138  2.8864  1.4842
  162OSM   H17T18230   4.164   2.565   3.762 -1.8001 -1.2795  0.1771
  162OSM   C18S18231   4.315   2.577   3.926  0.3197 -0.0803 -0.6312
  162OSM   H18S18232   4.392   2.621   3.859  1.7465  0.9928  1.5908
  162OSM   H18T18233   4.365   2.513   4.001 -0.4447 -0.2747 -0.2737
  162OSM   H18U18234   4.261   2.653   3.987 -0.8094 -1.5022  0.2165
  162OSM    C1F18235   4.284   1.952   2.324  0.2605  0.1243 -0.3864
  162OSM     OF18236   4.367   1.862   2.336  0.1868  0.1494  0.1885
  162OSM    C2F18237   4.141   1.909   2.325  0.9654 -0.1701  0.1381
  162OSM    H2F18238   4.134   1.807   2.281 -1.4239  0.2933 -0.7114
  162OSM    H2G18239   4.072   1.965   2.258 -0.3031 -0.7683  0.9002
  162OSM    C3F18240   4.083   1.905   2.471 -0.1793 -0.0226  0.6786
  162OSM    H3F18241   4.165   1.866   2.535 -0.1953 -1.4707 -0.1416
  162OSM    H3G18242   3.996   1.835   2.474  1.2072 -1.7786  2.2239
  162OSM    C4F18243   4.038   2.038   2.520 -0.2003 -0.1268  1.3800
  162OSM    H4F18244   3.962   2.077   2.450  2.0607  1.5035 -0.3040
  162OSM    H4G18245   4.118   2.115   2.510  1.3454 -1.7353  0.9731
  162OSM    C5F18246   3.984   2.035   2.662  0.5499  0.3996  0.6343
  162OSM    H5F18247   3.906   1.956   2.665  2.6921 -2.0502 -1.9540
  162OSM    H5G18248   3.945   2.134   2.694  0.5469  0.5339  0.2300
  162OSM    C6F18249   4.089   1.982   2.756 -0.7178 -0.0270 -0.2740
  162OSM    H6F18250   4.181   2.038   2.728  0.7055 -2.3317 -0.4804
  162OSM    H6G18251   4.103   1.874   2.737  1.2506  0.2802 -0.8342
  162OSM    C7F18252   4.058   2.007   2.906 -0.9211 -0.0760 -0.6978
  162OSM    H7F18253   3.961   1.960   2.931 -0.0691 -1.9419 -0.7135
  162OSM    H7G18254   4.063   2.116   2.925  0.7925 -0.2045 -0.1982
  162OSM    C8F18255   4.171   1.952   2.993  0.2368  0.1052  0.1577
  162OSM    H8F18256   4.271   1.992   2.966  0.6333 -0.9093  0.1158
  162OSM    H8G18257   4.178   1.844   2.971 -0.4508  0.1678 -0.4527
  162OSM    C9F18258   4.128   1.967   3.142 -0.4130 -0.2256  0.9559
  162OSM    H9F18259   4.028   2.010   3.151 -0.9480 -1.1034 -0.5798
  162OSM   C10F18260   4.204   1.948   3.253 -0.4053 -0.5043  0.9844
  162OSM   H10F18261   4.164   1.969   3.353  0.9500  0.2977  1.3909
  162OSM   C11F18262   4.345   1.889   3.255 -0.1428 -0.1431  0.5742
  162OSM   H11F18263   4.368   1.846   3.155 -2.8272 -1.7135  0.5190
  162OSM   H11G18264   4.350   1.803   3.325  0.7942 -1.9551 -1.6030
  162OSM   C12F18265   4.453   1.992   3.286 -0.4837 -0.4188  0.1757
  162OSM   H12F18266   4.433   2.085   3.228 -1.1595  0.5337  1.8539
  162OSM   H12G18267   4.550   1.955   3.246 -0.2330 -0.1909  0.5559
  162OSM   C13F18268   4.475   2.018   3.435  0.4931 -0.5119 -0.6170
  162OSM   H13F18269   4.381   2.060   3.476  1.1011  0.3293 -0.0304
  162OSM   H13G18270   4.546   2.101   3.457  0.6869 -1.2888  1.9806
  162OSM   C14F18271   4.519   1.898   3.516 -0.2248 -0.3052  0.2673
  162OSM   H14F18272   4.611   1.847   3.479 -1.9713 -2.9716 -0.7176
  162OSM   H14G18273   4.432   1.831   3.499 -0.4327  0.3808 -1.6661
  162OSM   C15F18274   4.534   1.924   3.669 -0.9198 -0.7997  0.3028
  162OSM   H15F18275   4.623   1.986   3.689 -0.2952 -1.4527 -0.3901
  162OSM   H15G18276   4.555   1.822   3.707  0.3527 -0.4490  0.5569
  162OSM   C16F18277   4.413   1.992   3.729  0.3250 -0.6417 -0.3614
  162OSM   H16F18278   4.327   1.923   3.714  0.5091 -0.9932  0.1725
  162OSM   H16G18279   4.388   2.090   3.683 -0.0507 -1.0214 -0.9851
  162OSM   C17F18280   4.412   2.027   3.887 -0.6040 -0.5492 -0.4731
  162OSM   H17F18281   4.404   1.936   3.950 -1.1680 -1.5255 -1.9081
  162OSM   H17G18282   4.312   2.074   3.895 -0.2271  0.0062  1.7156
  162OSM   C18F18283   4.521   2.124   3.940  0.3302 -0.1876  0.7732
  162OSM   H18F18284   4.515   2.225   3.894  1.5741  1.8038  4.5569
  162OSM   H18G18285   4.619   2.080   3.913 -0.7596 -2.4866  0.3115
  162OSM   H18H18286   4.514   2.134   4.050 -2.4086  0.6115  0.5883
  163OSM      N18287   4.321   3.144   1.675  0.0151 -0.1885  0.2738
  163OSM    C1518288   4.224   3.060   1.745 -0.6305  0.7609 -0.2619
  163OSM   H15A18289   4.162   3.103   1.822  0.9525 -0.6496  1.9367
  163OSM   H15B18290   4.278   2.973   1.778  2.2054  1.3904 -2.8452
  163OSM   H15C18291   4.153   3.019   1.676 -3.0387  2.1585  1.2430
  163OSM    C1418292   4.393   3.055   1.582 -0.8060  0.3987  0.2134
  163OSM   H14A18293   4.328   3.025   1.500 -2.0122 -0.6862  1.5138
  163OSM   H14B18294   4.430   2.969   1.635  0.8476  0.9165 -0.0257
  163OSM   H14C18295   4.481   3.098   1.536  0.0130 -1.4044 -0.0044
  163OSM    C1318296   4.251   3.254   1.598  0.1608  0.2081 -0.4926
  163OSM   H13A18297   4.157   3.230   1.553 -1.0055  1.5500  1.0677
  163OSM   H13B18298   4.317   3.316   1.538  0.3116  0.9959  0.4542
  163OSM   H13C18299   4.216   3.326   1.671  0.8874  1.6153 -1.4688
  163OSM    C1218300   4.429   3.209   1.766 -0.5994  0.3220  0.3576
  163OSM   H12A18301   4.500   3.249   1.696 -0.8879 -0.0944 -0.1897
  163OSM   H12B18302   4.481   3.131   1.819  0.6097  2.4663  2.5030
  163OSM    C1118303   4.386   3.308   1.870  0.1746 -0.2772 -0.5722
  163OSM   H11A18304   4.348   3.400   1.819  1.9993  0.0754 -1.3671
  163OSM   H11B18305   4.477   3.348   1.921  0.7296  1.7364 -2.9430
  163OSM      P18306   4.320   3.182   2.097 -0.2136  0.1506  0.0406
  163OSM    O1318307   4.197   3.123   2.159  0.1420 -0.3466  0.6669
  163OSM    O1418308   4.430   3.091   2.075 -0.0440  0.0621  0.1055
  163OSM    O1118309   4.370   3.295   2.190  0.3045 -0.3457  0.2725
  163OSM    O1218310   4.289   3.259   1.963  0.1701 -0.8576 -0.7667
  163OSM    C1S18311   4.287   3.382   2.264  0.4232 -0.2663  0.6190
  163OSM    H1S18312   4.198   3.419   2.209 -0.9200 -1.2777  2.0457
  163OSM    H1T18313   4.337   3.478   2.290  0.9676 -0.0395 -1.0982
  163OSM     NF18314   4.161   3.430   2.454 -0.1830  0.1649 -0.2727
  163OSM    HNF18315   4.185   3.495   2.525  0.3856  2.5742 -2.5411
  163OSM    C2S18316   4.243   3.325   2.406 -0.4604 -0.2448  1.2825
  163OSM    H2S18317   4.191   3.229   2.390  0.4384 -0.6969  1.0384
  163OSM    C3S18318   4.375   3.302   2.491  0.0423 -0.6847 -0.9068
  163OSM    H3S18319   4.427   3.400   2.486 -0.5244 -0.4589 -3.1991
  163OSM     O318320   4.462   3.215   2.421 -0.0866  0.6113 -0.1049
  163OSM    HO318321   4.419   3.221   2.335 -0.2189  1.8854  0.0329
  163OSM    C4S18322   4.353   3.262   2.630 -0.3449 -0.3155 -0.7216
  163OSM    H4S18323   4.290   3.172   2.635  1.0856 -1.3407 -0.4949
  163OSM    C5S18324   4.406   3.328   2.733  0.7702  0.4924 -0.8779
  163OSM    H5S18325   4.470   3.417   2.719  2.8587 -0.5195  1.4611
  163OSM    C6S18326   4.393   3.284   2.877  0.6438  0.2789  0.0653
  163OSM    H6S18327   4.463   3.337   2.945  0.2488  1.6342 -0.5638
  163OSM    H6T18328   4.417   3.175   2.884 -0.4410 -0.0210 -0.6720
  163OSM    C7S18329   4.245   3.293   2.929 -0.0334  0.3484 -0.1420
  163OSM    H7S18330   4.184   3.230   2.861  0.4219 -0.0018 -0.2339
  163OSM    H7T18331   4.199   3.394   2.930 -1.3032 -0.2058  0.6294
  163OSM    C8S18332   4.233   3.228   3.074 -0.0792 -0.0455  0.1000
  163OSM    H8S18333   4.296   3.137   3.077 -0.5445 -0.3316  1.9209
  163OSM    H8T18334   4.126   3.199   3.075  0.3644 -1.7588  1.6915
  163OSM    C9S18335   4.277   3.322   3.188  0.3451 -0.0506  0.6791
  163OSM    H9S18336   4.229   3.419   3.161 -0.7862 -1.3942 -2.7702
  163OSM    H9T18337   4.388   3.320   3.197  0.4830 -0.1261 -0.7515
  163OSM   C10S18338   4.219   3.273   3.320 -1.0981  0.3920 -0.0138
  163OSM   H10S18339   4.256   3.169   3.335 -0.7653  0.5186  0.0640
  163OSM   H10T18340   4.109   3.267   3.309 -1.2928 -2.2958  2.3458
  163OSM   C11S18341   4.246   3.360   3.441  0.4163 -0.2528  0.1267
  163OSM   H11S18342   4.184   3.451   3.454  0.4587  0.0918 -1.7668
  163OSM   H11T18343   4.349   3.400   3.453 -0.5321  1.5144  4.0896
  163OSM   C12S18344   4.224   3.276   3.568 -0.1701  0.3090  0.1866
  163OSM   H12S18345   4.314   3.211   3.576 -0.7239 -0.8438 -2.1301
  163OSM   H12T18346   4.139   3.205   3.559 -0.7847  1.2445 -2.1754
  163OSM   C13S18347   4.189   3.359   3.690 -0.2954  0.0480  0.6129
  163OSM   H13S18348   4.104   3.426   3.668  0.4669  1.2325  1.2084
  163OSM   H13T18349   4.280   3.420   3.706 -0.3725  1.1405 -2.3742
  163OSM   C14S18350   4.162   3.273   3.820  0.3955  0.3092 -0.2129
  163OSM   H14S18351   4.260   3.232   3.852  0.5170  1.1295  0.4867
  163OSM   H14T18352   4.078   3.201   3.806 -1.0338  1.2821  2.6414
  163OSM   C15S18353   4.113   3.358   3.939 -0.1093  0.2492 -0.8264
  163OSM   H15S18354   4.029   3.430   3.927 -1.3979 -0.8868  0.8500
  163OSM   H15T18355   4.202   3.421   3.956  0.4201 -0.3532 -1.3307
  163OSM   C16S18356   4.091   3.268   4.062 -0.0059  0.7176 -0.2592
  163OSM   H16S18357   4.186   3.213   4.076 -0.1671  0.6384  0.5730
  163OSM   H16T18358   4.016   3.190   4.038  0.6513  0.0145 -0.0391
  163OSM   C17S18359   4.056   3.358   4.183 -0.2835  1.0235  0.1436
  163OSM   H17S18360   3.950   3.392   4.179 -0.3162  0.8341 -0.9721
  163OSM   H17T18361   4.118   3.450   4.182  2.9276 -0.9942 -1.5735
  163OSM   C18S18362   4.074   3.298   4.322  0.3832  1.0071 -0.0893
  163OSM   H18S18363   4.050   3.369   4.404 -1.3823  0.4271 -0.0500
  163OSM   H18T18364   4.180   3.271   4.337  0.2545  0.2185 -0.5654
  163OSM   H18U18365   4.004   3.212   4.330  0.9936  0.6655  2.8889
  163OSM    C1F18366   4.034   3.422   2.410  0.0173 -0.0867  0.2590
  163OSM     OF18367   3.995   3.339   2.325 -0.0083 -0.3842 -0.1883
  163OSM    C2F18368   3.935   3.512   2.482  0.1948  0.0460 -0.4376
  163OSM    H2F18369   3.874   3.559   2.402  0.1903 -1.6814 -1.5031
  163OSM    H2G18370   3.989   3.583   2.548 -2.1449  0.4905  1.1215
  163OSM    C3F18371   3.830   3.425   2.560  0.3056  0.0746 -0.4655
  163OSM    H3F18372   3.793   3.343   2.495 -0.3655  0.8558 -1.1071
  163OSM    H3G18373   3.737   3.486   2.569  0.2995  0.0167 -0.1298
  163OSM    C4F18374   3.885   3.371   2.693 -0.6701 -0.1967  1.0509
  163OSM    H4F18375   3.918   3.461   2.749  0.8436  0.2542 -0.4724
  163OSM    H4G18376   3.975   3.306   2.688 -0.1080  0.6651 -1.8704
  163OSM    C5F18377   3.783   3.290   2.764  0.3353 -0.1829 -0.0539
  163OSM    H5F18378   3.767   3.189   2.720 -2.4137  0.4260 -0.6723
  163OSM    H5G18379   3.686   3.345   2.774 -0.1485 -0.9425 -0.4406
  163OSM    C6F18380   3.832   3.275   2.908 -0.8818 -0.8060 -0.0829
  163OSM    H6F18381   3.852   3.373   2.955  0.5262 -1.0038 -0.2299
  163OSM    H6G18382   3.935   3.234   2.908 -0.0788  1.0960  0.9140
  163OSM    C7F18383   3.736   3.205   2.997 -0.6119 -0.3249 -0.2308
  163OSM    H7F18384   3.739   3.101   2.957  0.4647 -1.0131  1.5287
  163OSM    H7G18385   3.632   3.244   2.998 -0.3170  0.7414 -2.6148
  163OSM    C8F18386   3.784   3.206   3.148 -0.6937 -0.0516  0.0956
  163OSM    H8F18387   3.779   3.312   3.180  1.4855  0.8994 -2.3429
  163OSM    H8G18388   3.893   3.182   3.148 -0.8322 -0.7647  1.1525
  163OSM    C9F18389   3.713   3.111   3.238  0.0086  0.1555  0.2802
  163OSM    H9F18390   3.701   3.011   3.193 -1.7613  0.2758  0.4071
  163OSM   C10F18391   3.647   3.144   3.355 -0.2832 -0.4581  0.4119
  163OSM   H10F18392   3.604   3.071   3.426  1.4823 -0.9946  0.9796
  163OSM   C11F18393   3.660   3.277   3.429  0.4320  0.0064  0.1679
  163OSM   H11F18394   3.574   3.342   3.399  0.3437 -0.8682 -1.6158
  163OSM   H11G18395   3.747   3.335   3.389  0.3522  1.5567  2.1052
  163OSM   C12F18396   3.679   3.259   3.577  0.0833  0.2121 -0.1678
  163OSM   H12F18397   3.765   3.193   3.599 -0.4400 -1.3356 -2.4549
  163OSM   H12G18398   3.592   3.204   3.619 -0.8614  1.7293 -0.0747
  163OSM   C13F18399   3.682   3.393   3.647  0.2253  0.2485  0.2084
  163OSM   H13F18400   3.598   3.457   3.612  0.6988 -0.4192 -2.3801
  163OSM   H13G18401   3.773   3.446   3.613 -0.7824  2.1739  0.3930
  163OSM   C14F18402   3.690   3.369   3.799  0.2290  0.3825  0.7358
  163OSM   H14F18403   3.766   3.303   3.847  1.7829  1.6579  0.1410
  163OSM   H14G18404   3.596   3.318   3.826  0.9302 -2.2341 -1.3760
  163OSM   C15F18405   3.701   3.508   3.876 -0.3737  0.3815  0.5108
  163OSM   H15F18406   3.644   3.575   3.808  1.7723 -0.7556 -2.6425
  163OSM   H15G18407   3.808   3.522   3.853 -0.8948 -0.4702 -2.9578
  163OSM   C16F18408   3.659   3.514   4.025 -0.3696  0.6360  0.7091
  163OSM   H16F18409   3.681   3.414   4.068 -0.2757 -0.0692 -0.8977
  163OSM   H16G18410   3.548   3.513   4.029 -0.3989 -1.1467  0.2883
  163OSM   C17F18411   3.728   3.628   4.099 -1.0211 -0.2244  0.3288
  163OSM   H17F18412   3.835   3.618   4.069 -1.7942 -0.6631 -2.5987
  163OSM   H17G18413   3.718   3.626   4.209  0.1917  0.8910  0.4904
  163OSM   C18F18414   3.680   3.769   4.057 -0.7665 -0.4322 -0.9306
  163OSM   H18F18415   3.754   3.845   4.089 -0.9808 -1.3114  1.9473
  163OSM   H18G18416   3.578   3.790   4.095  0.0240 -0.0288  1.0738
  163OSM   H18H18417   3.663   3.764   3.947  0.7644  4.2974 -1.6158
  164OSM      N18418   4.916   2.466   2.064  0.1013  0.0297 -0.4919
  164OSM    C1518419   4.935   2.488   1.918 -0.9820 -0.7313  0.8354
  164OSM   H15A18420   4.961   2.587   1.883  0.7487 -0.6774  2.1816
  164OSM   H15B18421   4.863   2.451   1.846  0.3643  1.2526 -1.6937
  164OSM   H15C18422   5.024   2.437   1.886 -0.3545 -0.0773  1.5162
  164OSM    C1418423   4.796   2.538   2.121  0.0130  0.1504  0.4570
  164OSM   H14A18424   4.754   2.511   2.216 -0.6857  1.5693  0.5786
  164OSM   H14B18425   4.711   2.529   2.055  0.4792  3.8040 -0.9037
  164OSM   H14C18426   4.811   2.645   2.117  2.9208 -0.1656  0.1670
  164OSM    C1318427   4.897   2.316   2.081 -0.1470 -0.0264 -0.0046
  164OSM   H13A18428   4.804   2.285   2.037  0.0361 -2.7803  1.3275
  164OSM   H13B18429   4.897   2.290   2.186  0.6175 -3.2932 -0.7011
  164OSM   H13C18430   4.983   2.266   2.039  0.9003  2.1705 -0.6559
  164OSM    C1218431   5.038   2.510   2.152  0.1365  0.4240 -0.0826
  164OSM   H12A18432   5.126   2.462   2.111 -0.1687 -0.5491  0.3737
  164OSM   H12B18433   5.037   2.463   2.249  0.8856  0.3950 -0.0796
  164OSM    C1118434   5.076   2.655   2.171  1.0045  0.2662  0.3080
  164OSM   H11A18435   5.140   2.664   2.261  2.5734  1.5660 -0.8711
  164OSM   H11B18436   4.983   2.713   2.189  0.9070 -0.0960  1.0246
  164OSM      P18437   5.278   2.657   2.010 -0.0309  0.1086 -0.5931
  164OSM    O1318438   5.270   2.511   1.994  0.1103 -0.0131  0.1014
  164OSM    O1418439   5.335   2.744   1.896 -0.1356 -0.2648 -0.2528
  164OSM    O1118440   5.368   2.698   2.138  0.0545  0.2059 -0.8437
  164OSM    O1218441   5.137   2.712   2.047 -0.2230 -0.3751 -0.6402
  164OSM    C1S18442   5.361   2.830   2.191 -0.4029 -0.0420  0.3937
  164OSM    H1S18443   5.258   2.843   2.230 -0.0089  1.4195  1.0393
  164OSM    H1T18444   5.387   2.905   2.113 -0.0262 -1.9020 -1.3354
  164OSM     NF18445   5.427   2.982   2.380  0.6902  0.7570  0.1462
  164OSM    HNF18446   5.488   3.060   2.371  0.9509  0.4031 -1.2351
  164OSM    C2S18447   5.455   2.850   2.316  0.1390  0.0006 -0.0921
  164OSM    H2S18448   5.438   2.764   2.385 -0.0486  0.3986  0.3652
  164OSM    C3S18449   5.611   2.838   2.282  0.7423  0.2667 -0.3326
  164OSM    H3S18450   5.636   2.931   2.226 -0.1627 -0.5939 -2.2530
  164OSM     O318451   5.647   2.731   2.192 -0.4783 -0.7554  0.4052
  164OSM    HO318452   5.564   2.693   2.165 -1.6805  2.0906 -0.3046
  164OSM    C4S18453   5.691   2.836   2.405  0.2478  0.3022 -0.4558
  164OSM    H4S18454   5.705   2.936   2.448  2.0239 -0.3265  0.5637
  164OSM    C5S18455   5.753   2.733   2.463 -1.2073  0.9827  0.0252
  164OSM    H5S18456   5.735   2.631   2.428 -0.6400  0.1372  2.0672
  164OSM    C6S18457   5.827   2.736   2.596  0.3310 -0.2144 -0.7062
  164OSM    H6S18458   5.937   2.722   2.584  0.7448 -0.9632  2.9256
  164OSM    H6T18459   5.796   2.643   2.648 -0.6588 -0.9863 -2.5847
  164OSM    C7S18460   5.800   2.843   2.702 -0.2832 -0.0168 -0.6269
  164OSM    H7S18461   5.691   2.859   2.697 -0.8043 -2.9351 -0.3330
  164OSM    H7T18462   5.845   2.941   2.675  2.1122  0.4929  4.1409
  164OSM    C8S18463   5.845   2.797   2.840  0.7576  0.2710  0.0875
  164OSM    H8S18464   5.944   2.749   2.830 -0.3107 -1.7772 -1.3483
  164OSM    H8T18465   5.772   2.721   2.876  0.3803  1.2386  1.4302
  164OSM    C9S18466   5.861   2.913   2.944 -0.1999 -0.2938 -0.6457
  164OSM    H9S18467   5.765   2.957   2.976  0.6574  0.8168  0.4748
  164OSM    H9T18468   5.927   2.993   2.903  0.5978 -0.1985  0.7550
  164OSM   C10S18469   5.930   2.858   3.075 -0.4985 -0.2016  0.4607
  164OSM   H10S18470   6.036   2.837   3.048 -0.3150  2.5643 -1.3868
  164OSM   H10T18471   5.881   2.765   3.110 -1.9255  0.3627  0.0352
  164OSM   C11S18472   5.937   2.964   3.181  0.2114  0.3684  0.1682
  164OSM   H11S18473   5.850   3.032   3.166  0.1303 -0.2194 -2.6113
  164OSM   H11T18474   6.031   3.022   3.176  0.2005  0.6929  2.6180
  164OSM   C12S18475   5.923   2.904   3.318 -0.4314  0.1088 -0.2445
  164OSM   H12S18476   5.990   2.823   3.352 -1.0947  0.2288  1.4543
  164OSM   H12T18477   5.819   2.863   3.322 -0.8275  1.1770  1.6646
  164OSM   C13S18478   5.930   3.021   3.418 -0.4399  1.1056 -0.5505
  164OSM   H13S18479   5.877   3.114   3.388 -0.0666  1.4704 -0.1071
  164OSM   H13T18480   6.039   3.040   3.431 -0.3041  1.8091 -2.4566
  164OSM   C14S18481   5.889   2.979   3.555 -0.5208 -0.3865  0.4732
  164OSM   H14S18482   5.935   2.881   3.580 -0.6294 -0.4400  0.4678
  164OSM   H14T18483   5.779   2.964   3.553 -0.8190  1.6006 -1.5117
  164OSM   C15S18484   5.949   3.080   3.652 -0.3890  0.2283 -0.4173
  164OSM   H15S18485   5.920   3.180   3.613 -1.6102  0.3685  0.7743
  164OSM   H15T18486   6.059   3.065   3.657 -0.5645 -1.6620 -1.3884
  164OSM   C16S18487   5.901   3.068   3.803  0.3623  0.0670 -0.5366
  164OSM   H16S18488   5.887   2.961   3.829  1.0630  0.3070  0.9257
  164OSM   H16T18489   5.805   3.122   3.815  0.4832  0.0312  0.6700
  164OSM   C17S18490   5.995   3.141   3.899 -0.4456 -0.7997  0.5463
  164OSM   H17S18491   6.100   3.105   3.889 -0.1385  0.2167 -0.0597
  164OSM   H17T18492   5.979   3.111   4.004 -0.3433  0.0209  0.8038
  164OSM   C18S18493   5.992   3.293   3.884  0.7579  0.4384  0.5498
  164OSM   H18S18494   6.063   3.332   3.961  0.2429 -0.5108  1.5316
  164OSM   H18T18495   5.897   3.348   3.902  0.1163  0.1706 -1.7068
  164OSM   H18U18496   6.028   3.324   3.783  1.2268 -0.8038  0.3264
  164OSM    C1F18497   5.314   2.998   2.451 -0.2314 -0.6434  0.5028
  164OSM     OF18498   5.239   2.908   2.478  0.0813  0.5182 -0.7914
  164OSM    C2F18499   5.284   3.138   2.503  0.3319 -0.0259  0.8618
  164OSM    H2F18500   5.178   3.170   2.492  0.9178  1.3460 -1.3370
  164OSM    H2G18501   5.348   3.209   2.446  0.4414 -1.2736 -0.6269
  164OSM    C3F18502   5.331   3.146   2.648  0.1287 -0.3235 -0.3780
  164OSM    H3F18503   5.439   3.123   2.654  0.5036  1.2428 -0.7191
  164OSM    H3G18504   5.273   3.067   2.702  0.7420 -1.4461 -1.3206
  164OSM    C4F18505   5.295   3.282   2.705 -0.0545  0.0229 -1.2981
  164OSM    H4F18506   5.189   3.317   2.698 -0.0928  0.0295 -0.7551
  164OSM    H4G18507   5.351   3.363   2.654  1.5269 -0.5086 -0.4638
  164OSM    C5F18508   5.329   3.283   2.853  0.7982  0.2022 -0.2915
  164OSM    H5F18509   5.380   3.377   2.886  0.6973 -0.0052  0.4877
  164OSM    H5G18510   5.408   3.209   2.879 -0.6722 -1.6724 -0.9045
  164OSM    C6F18511   5.204   3.258   2.944 -0.4549  1.2639  0.4585
  164OSM    H6F18512   5.141   3.187   2.886  0.2995  1.7142 -0.9760
  164OSM    H6G18513   5.155   3.358   2.947  0.1771  1.6425 -0.9771
  164OSM    C7F18514   5.242   3.200   3.078  0.0138 -0.6212 -0.8842
  164OSM    H7F18515   5.314   3.268   3.129 -1.4293  0.3216 -0.0263
  164OSM    H7G18516   5.300   3.105   3.077  2.5203  0.7771  0.2855
  164OSM    C8F18517   5.116   3.197   3.171 -0.1727  0.1884  0.2132
  164OSM    H8F18518   5.156   3.136   3.254  1.4110  0.7242 -0.1178
  164OSM    H8G18519   5.038   3.138   3.119 -1.2251 -0.2279  2.1559
  164OSM    C9F18520   5.088   3.338   3.211  0.5044  0.0781  0.3315
  164OSM    H9F18521   5.076   3.409   3.128  0.7443  1.0733  1.1246
  164OSM   C10F18522   5.080   3.379   3.336 -0.9461  0.5746 -0.4970
  164OSM   H10F18523   5.062   3.486   3.352  2.0210  0.9179  1.3313
  164OSM   C11F18524   5.115   3.296   3.457  0.0334  0.4309  1.0810
  164OSM   H11F18525   5.148   3.359   3.543 -2.2648  1.5221  1.2464
  164OSM   H11G18526   5.198   3.227   3.431  0.5164  1.8732 -1.5878
  164OSM   C12F18527   4.999   3.208   3.501 -0.6734 -0.1125 -0.5956
  164OSM   H12F18528   4.980   3.129   3.426  0.4144  1.9113 -3.1876
  164OSM   H12G18529   4.911   3.273   3.519 -0.9147 -0.3885 -0.7939
  164OSM   C13F18530   5.029   3.129   3.633 -0.0332 -0.2360 -0.8240
  164OSM   H13F18531   5.138   3.112   3.640  0.2941  0.9203 -2.4934
  164OSM   H13G18532   4.979   3.030   3.625  2.8347 -1.7778 -1.0113
  164OSM   C14F18533   4.996   3.195   3.768  0.2585  0.3089  0.5862
  164OSM   H14F18534   4.894   3.237   3.754 -0.1068 -0.8541 -0.4472
  164OSM   H14G18535   5.076   3.269   3.789 -0.5632  1.2600  0.4020
  164OSM   C15F18536   4.997   3.083   3.877 -0.0098 -0.6786 -0.3556
  164OSM   H15F18537   4.902   3.027   3.868 -1.2052  1.1674  0.2447
  164OSM   H15G18538   4.998   3.143   3.970  2.0180  1.0074 -1.3648
  164OSM   C16F18539   5.124   2.988   3.868  0.5331  0.0273 -0.0516
  164OSM   H16F18540   5.221   3.040   3.849  0.6448 -0.7671 -1.7342
  164OSM   H16G18541   5.092   2.910   3.797 -1.9040 -0.3568  1.3549
  164OSM   C17F18542   5.146   2.923   4.004  0.1344 -0.3745 -0.0254
  164OSM   H17F18543   5.043   2.891   4.033 -0.2266  1.2188  0.5374
  164OSM   H17G18544   5.168   2.999   4.082  2.4609 -1.4178  0.4043
  164OSM   C18F18545   5.244   2.807   4.016 -0.0098  0.1105  0.4003
  164OSM   H18F18546   5.234   2.733   3.933  1.6637 -0.2695  0.5029
  164OSM   H18G18547   5.225   2.753   4.112 -1.3012 -0.1981 -0.0015
  164OSM   H18H18548   5.349   2.841   4.006 -0.1678  1.0054  1.6265
  165SAPS     N18549   5.288   2.409   7.386  0.1901  0.2700  0.1498
  165SAPS   HN118550   5.188   2.383   7.374 -0.1430  0.8872  1.4263
  165SAPS   HN218551   5.311   2.423   7.486  0.8375  0.0450  0.0397
  165SAPS   HN318552   5.299   2.504   7.344 -0.2433  0.0665 -0.4315
  165SAPS   C1218553   5.366   2.296   7.328  0.0700  0.2001  0.4370
  165SAPS  H12A18554   5.470   2.324   7.336  0.1894  0.0666 -0.5832
  165SAPS   C1318555   5.332   2.157   7.395  0.2434 -0.2144  0.0318
  165SAPS  O13A18556   5.226   2.149   7.465 -0.3479 -0.6255 -0.3705
  165SAPS  O13B18557   5.393   2.054   7.363 -0.2586  0.0028  0.6654
  165SAPS   C1118558   5.342   2.287   7.179 -0.1623  0.2846 -0.1219
  165SAPS  H11A18559   5.255   2.229   7.140 -0.1032  0.6701 -0.8488
  165SAPS  H11B18560   5.429   2.231   7.138 -2.4425 -2.7471 -1.2319
  165SAPS     P18561   5.374   2.460   6.989  0.4218 -0.1002  0.0335
  165SAPS   O1318562   5.297   2.585   6.953  0.0510  0.5378  0.0686
  165SAPS   O1418563   5.522   2.462   6.993  0.0957  0.1000 -0.1875
  165SAPS   O1218564   5.326   2.415   7.124 -0.3170  0.1037 -0.7428
  165SAPS   O1118565   5.338   2.342   6.893 -0.7167  0.5589  0.0702
  165SAPS    C118566   5.242   2.344   6.782 -0.2361 -0.9059 -0.7043
  165SAPS    HA18567   5.195   2.245   6.767 -0.2485 -0.8816 -0.8336
  165SAPS    HB18568   5.160   2.417   6.802 -0.9957 -1.2034 -2.4925
  165SAPS    C218569   5.304   2.383   6.647  0.4033  0.4707  0.0960
  165SAPS    HS18570   5.383   2.307   6.629  1.3352  1.6169 -0.7622
  165SAPS   O2118571   5.353   2.519   6.659  0.6903  0.7623  0.3130
  165SAPS   C2118572   5.481   2.530   6.617  0.2971 -0.2632  0.3898
  165SAPS   O2218573   5.541   2.449   6.551  0.2792  0.6653  0.4081
  165SAPS   C2218574   5.526   2.667   6.660 -0.7858 -0.6552 -0.1452
  165SAPS   H2R18575   5.443   2.717   6.715 -1.2943 -1.4636 -0.1497
  165SAPS   H2S18576   5.620   2.653   6.718 -0.0882  0.8700 -0.8583
  165SAPS    C318577   5.199   2.373   6.531 -0.2965  0.0922  0.7343
  165SAPS    HX18578   5.132   2.460   6.544 -0.3761  0.1234  0.1293
  165SAPS    HY18579   5.138   2.280   6.532  1.4323 -1.2755 -3.2659
  165SAPS   O3118580   5.262   2.381   6.401 -0.7028  0.1136  0.0833
  165SAPS   C3118581   5.324   2.265   6.362 -0.2649 -0.2175  0.4774
  165SAPS   O3218582   5.298   2.157   6.409  0.2713 -0.0090 -0.4145
  165SAPS   C3218583   5.401   2.300   6.237 -0.0230 -0.0420  0.2383
  165SAPS   H2X18584   5.510   2.277   6.242  0.0485  0.2425  0.0270
  165SAPS   H2Y18585   5.391   2.410   6.221 -2.1384  0.2365  2.7756
  165SAPS   C2318586   5.579   2.744   6.537 -0.2550 -0.0702  0.0845
  165SAPS   H3R18587   5.645   2.679   6.476 -0.2780 -1.0451  1.0654
  165SAPS   H3S18588   5.646   2.825   6.572  0.1556 -0.8154  1.0790
  165SAPS   C2418589   5.461   2.821   6.460  0.3607  0.3078 -0.1114
  165SAPS   H4R18590   5.504   2.885   6.380  1.9662  0.7711  1.0714
  165SAPS   H4S18591   5.426   2.892   6.538  1.0475  0.3643  0.1492
  165SAPS   C2518592   5.348   2.735   6.406  1.4033 -0.5905  0.3825
  165SAPS   H5R18593   5.286   2.681   6.480  0.4242  0.9634  0.7437
  165SAPS   C2618594   5.328   2.708   6.271  0.8531 -0.1331 -0.2197
  165SAPS   H6R18595   5.234   2.654   6.254  0.4514  0.7432 -0.8200
  165SAPS   C2718596   5.414   2.747   6.155 -0.0739  0.0011  0.2363
  165SAPS   H7R18597   5.458   2.847   6.172  1.6065 -0.9385  1.7419
  165SAPS   H7S18598   5.353   2.760   6.064 -0.9050 -0.0032  0.7787
  165SAPS   C2818599   5.520   2.647   6.135 -0.4441  0.6284  0.2329
  165SAPS   H8R18600   5.550   2.596   6.228 -2.1399  0.3910  0.6850
  165SAPS   C2918601   5.580   2.621   6.017  0.8455  0.0342  0.2541
  165SAPS   H9R18602   5.669   2.556   6.020 -0.1183 -1.4212  4.4583
  165SAPS  C21018603   5.557   2.692   5.887  0.8043 -0.6955  0.6497
  165SAPS  H10R18604   5.625   2.779   5.875  1.0462 -1.1607 -1.8836
  165SAPS  H10S18605   5.452   2.730   5.879  1.1631  0.1506 -0.3818
  165SAPS  C21118606   5.585   2.605   5.770 -0.2315 -0.3438  0.4489
  165SAPS  H11R18607   5.592   2.497   5.786 -0.9395 -0.4369  0.1751
  165SAPS  C21218608   5.612   2.649   5.645 -0.6528  0.0443  0.2489
  165SAPS  H12R18609   5.634   2.578   5.565  0.2181  1.0457 -0.4331
  165SAPS  C21318610   5.607   2.797   5.607 -0.2498 -0.1006 -0.2297
  165SAPS  H13R18611   5.596   2.869   5.691  0.4569  0.6101 -0.7374
  165SAPS  H13S18612   5.510   2.808   5.555 -1.5321  1.0035  2.2405
  165SAPS  C21418613   5.734   2.817   5.521  0.2580  0.2920 -0.0234
  165SAPS  H14R18614   5.826   2.780   5.569  0.1265  1.0365  0.8230
  165SAPS  C21518615   5.747   2.880   5.410  0.5451 -0.0203  0.3516
  165SAPS  H15R18616   5.849   2.868   5.372 -0.2773 -1.6493 -1.5647
  165SAPS  C21618617   5.635   2.938   5.325  0.0143 -0.6314  0.6113
  165SAPS  H16R18618   5.637   3.048   5.334 -0.9293 -0.5563  0.1038
  165SAPS  H16S18619   5.532   2.911   5.358  0.2531 -0.5890  1.4002
  165SAPS  C21718620   5.653   2.894   5.174 -0.2121  0.5676 -0.2674
  165SAPS  H17R18621   5.575   2.950   5.118  1.7344  1.8634 -1.8192
  165SAPS  H17S18622   5.633   2.784   5.177  1.5380  0.2481  1.8397
  165SAPS  C21818623   5.780   2.950   5.105 -0.3101 -0.3814  0.5302
  165SAPS  H18R18624   5.863   2.906   5.165  2.1669  1.1449 -1.5567
  165SAPS  H18S18625   5.781   3.060   5.119 -2.0869 -0.2254 -0.2783
  165SAPS  C21918626   5.792   2.910   4.956  0.5349 -0.1341 -0.6337
  165SAPS  H19R18627   5.813   2.801   4.961 -2.0070 -0.6557  0.5565
  165SAPS  H19S18628   5.886   2.951   4.915  0.9074  0.6738  0.9398
  165SAPS  C22018629   5.670   2.938   4.864 -0.3019 -0.8709 -0.2953
  165SAPS  H20R18630   5.571   2.899   4.895 -1.5241  0.9930 -1.6500
  165SAPS  H20S18631   5.691   2.903   4.761 -0.7847  0.6158 -0.9237
  165SAPS  H20T18632   5.654   3.048   4.862 -1.0816 -0.9326  1.0398
  165SAPS   C3318633   5.354   2.229   6.110  0.6826 -0.3919 -0.2147
  165SAPS   H3X18634   5.244   2.248   6.109  1.0246  1.8101 -0.4852
  165SAPS   H3Y18635   5.368   2.120   6.129  0.0287 -0.1112  2.1283
  165SAPS   C3418636   5.419   2.257   5.974  0.2696  0.0748  0.2655
  165SAPS   H4X18637   5.512   2.199   5.957 -0.6239 -1.0076 -1.1939
  165SAPS   H4Y18638   5.430   2.365   5.952 -0.0933 -0.1115 -0.9262
  165SAPS   C3518639   5.330   2.205   5.866  0.7386  0.0145  0.4827
  165SAPS   H5X18640   5.239   2.268   5.871  0.1952 -0.4607 -1.9338
  165SAPS   H5Y18641   5.294   2.103   5.889  2.0590 -0.9209 -1.3467
  165SAPS   C3618642   5.389   2.207   5.724  0.5954 -0.4932  0.0484
  165SAPS   H6X18643   5.470   2.131   5.720 -0.8173 -1.9849 -1.9412
  165SAPS   H6Y18644   5.434   2.304   5.693  0.1739 -0.7762 -1.5789
  165SAPS   C3718645   5.287   2.169   5.611 -0.6395  0.4110 -0.0243
  165SAPS   H7X18646   5.200   2.237   5.609 -1.0546  0.0451  2.4689
  165SAPS   H7Y18647   5.247   2.069   5.639  2.2721 -0.8435  0.0512
  165SAPS   C3818648   5.352   2.156   5.471  0.4902 -0.2959  0.0544
  165SAPS   H8X18649   5.432   2.079   5.481  2.2041  1.5171  1.1727
  165SAPS   H8Y18650   5.395   2.252   5.434  0.1873 -1.2369 -3.0023
  165SAPS   C3918651   5.244   2.123   5.369  1.2557  0.0063  0.2482
  165SAPS   H9X18652   5.171   2.205   5.358 -0.3412 -1.6147 -2.2930
  165SAPS   H9Y18653   5.197   2.029   5.407  0.9857  0.8742  2.2153
  165SAPS  C31018654   5.301   2.109   5.229 -0.2640  0.2070  0.2402
  165SAPS  H10X18655   5.374   2.025   5.232 -0.2689  0.2250  1.0017
  165SAPS  H10Y18656   5.353   2.200   5.193  0.4668 -0.2093  0.2263
  165SAPS  C31118657   5.194   2.072   5.118 -0.0759 -0.0350 -0.6283
  165SAPS  H11X18658   5.134   2.161   5.091 -1.2335 -1.1670 -1.9461
  165SAPS  H11Y18659   5.134   1.992   5.167 -1.1786  1.2985  0.2548
  165SAPS  C31218660   5.252   2.019   4.987 -0.2212 -0.7089 -0.1300
  165SAPS  H12X18661   5.255   1.913   5.021 -1.4514 -0.5404  0.5782
  165SAPS  H12Y18662   5.349   2.070   4.969 -0.3341 -0.5276 -0.2293
  165SAPS  C31318663   5.159   2.047   4.872 -0.7848  0.2910  0.2124
  165SAPS  H13X18664   5.156   2.155   4.848 -2.3041  0.8903  2.7610
  165SAPS  H13Y18665   5.053   2.028   4.899  0.1915 -0.0134  4.5289
  165SAPS  C31418666   5.209   1.971   4.740  0.4522 -0.2219 -0.1999
  165SAPS  H14X18667   5.320   1.965   4.744  0.4635  0.6746  1.5929
  165SAPS  H14Y18668   5.175   2.029   4.651 -0.9760 -2.3744 -1.1536
  165SAPS  C31518669   5.144   1.834   4.736  1.5481 -0.0745  0.7043
  165SAPS  H15X18670   5.033   1.835   4.740  1.4837 -1.4236 -0.1726
  165SAPS  H15Y18671   5.165   1.776   4.828  0.7141 -1.7017 -0.1004
  165SAPS  C31618672   5.182   1.746   4.613 -0.0601  0.6493 -0.1302
  165SAPS  H16X18673   5.137   1.789   4.522  0.1805 -0.9100 -1.0224
  165SAPS  H16Y18674   5.137   1.647   4.633 -0.0094  0.5863 -0.3264
  165SAPS  C31718675   5.336   1.737   4.589 -0.9094  0.2376  0.0044
  165SAPS  H17X18676   5.382   1.731   4.690  0.4971 -0.4744 -0.6555
  165SAPS  H17Y18677   5.367   1.837   4.554  1.0358 -0.8600 -1.6263
  165SAPS  C31818678   5.365   1.640   4.475  0.0807 -0.8250 -0.4591
  165SAPS  H18X18679   5.372   1.536   4.514  0.4305 -1.3101 -1.7572
  165SAPS  H18Y18680   5.467   1.643   4.432  0.5445  1.7389  0.6568
  165SAPS  H18Z18681   5.293   1.624   4.391 -0.6437  1.0786 -0.2551
  166SAPS     N18682   3.041   2.984   6.956 -0.2050 -0.4404 -0.2953
  166SAPS   HN118683   2.939   2.978   6.934 -0.6393 -0.2239  1.4860
  166SAPS   HN218684   3.087   2.894   6.935 -0.3535 -0.9766  1.4866
  166SAPS   HN318685   3.048   3.015   7.055  3.1718  0.2825 -0.6673
  166SAPS   C1218686   3.110   3.093   6.863 -0.5150  0.8700 -0.3717
  166SAPS  H12A18687   3.055   3.185   6.878  0.5569  1.1139  2.8775
  166SAPS   C1318688   3.257   3.106   6.911  0.3318 -0.1662  0.0902
  166SAPS  O13A18689   3.305   3.065   7.018 -0.0537 -0.2028 -0.5512
  166SAPS  O13B18690   3.323   3.198   6.850 -0.0548  0.1593 -0.0759
  166SAPS   C1118691   3.112   3.030   6.724  0.6580 -0.0569 -0.6348
  166SAPS  H11A18692   3.174   3.094   6.659  0.7487  2.8950  2.1236
  166SAPS  H11B18693   3.011   3.028   6.677  0.9346  0.7483 -1.2729
  166SAPS     P18694   3.139   2.795   6.611 -0.2619  0.3816  0.3220
  166SAPS   O1318695   3.272   2.752   6.560 -0.1871 -0.4455  0.0706
  166SAPS   O1418696   3.058   2.684   6.673  0.1618  0.4793 -0.1725
  166SAPS   O1218697   3.166   2.897   6.728 -0.5586  0.0595 -0.2611
  166SAPS   O1118698   3.058   2.881   6.507  0.7221 -0.5992 -0.3943
  166SAPS    C118699   3.100   2.964   6.405  0.2259 -0.7219 -0.2210
  166SAPS    HA18700   3.021   3.038   6.379  0.8170 -0.8304 -2.5799
  166SAPS    HB18701   3.199   3.002   6.437  1.2545 -2.0800 -1.6706
  166SAPS    C218702   3.134   2.877   6.279 -0.1731  0.1805 -0.9060
  166SAPS    HS18703   3.213   2.810   6.319  0.0527  2.5603  3.1396
  166SAPS   O2118704   3.176   2.978   6.179 -0.7577  0.3755 -0.0003
  166SAPS   C2118705   3.274   2.920   6.108  0.3866 -0.1881 -0.5726
  166SAPS   O2218706   3.322   2.811   6.122  0.4284 -0.1756 -0.5542
  166SAPS   C2218707   3.317   3.021   5.997 -0.8216  0.0221  0.0796
  166SAPS   H2R18708   3.243   3.102   5.985  2.0227  2.6567 -0.7311
  166SAPS   H2S18709   3.401   3.080   6.038 -1.7410  0.6901  1.0842
  166SAPS    C318710   3.009   2.793   6.230 -0.2986  0.2086  0.0561
  166SAPS    HX18711   2.930   2.867   6.204  1.2278  1.1263 -2.3634
  166SAPS    HY18712   2.969   2.720   6.302 -1.1994  1.7021  1.1311
  166SAPS   O3118713   3.039   2.728   6.099  0.7465  0.5542 -0.0638
  166SAPS   C3118714   3.107   2.612   6.111  0.4184 -0.1025  0.1329
  166SAPS   O3218715   3.154   2.562   6.209 -0.0361  0.0134 -0.2900
  166SAPS   C3218716   3.095   2.543   5.969 -1.0387  0.3463  0.9071
  166SAPS   H2X18717   3.043   2.617   5.904 -0.7043  0.1004  0.3511
  166SAPS   H2Y18718   3.026   2.459   5.987 -0.3250  0.1069  2.7806
  166SAPS   C2318719   3.364   2.959   5.864  0.2550 -0.0029 -0.5583
  166SAPS   H3R18720   3.447   2.887   5.875  0.3177 -0.3648 -2.9002
  166SAPS   H3S18721   3.400   3.051   5.814 -2.3182  1.1020 -0.5659
  166SAPS   C2418722   3.243   2.884   5.789 -0.2544 -0.2892  0.0324
  166SAPS   H4R18723   3.168   2.965   5.772  0.5851  0.3957 -0.4759
  166SAPS   H4S18724   3.189   2.813   5.856 -3.7250  2.4292  0.4332
  166SAPS   C2518725   3.298   2.824   5.666 -0.6625 -0.3532  0.2593
  166SAPS   H5R18726   3.398   2.778   5.669 -0.7660 -0.5397  1.7486
  166SAPS   C2618727   3.248   2.839   5.545 -0.5734  0.3245 -0.7056
  166SAPS   H6R18728   3.298   2.812   5.451 -1.0339 -1.6394 -0.4130
  166SAPS   C2718729   3.126   2.918   5.523 -0.0897  0.8934  0.2604
  166SAPS   H7R18730   3.152   3.024   5.544  0.3286  0.1791  4.2194
  166SAPS   H7S18731   3.040   2.892   5.589 -1.5889  2.0202 -1.1599
  166SAPS   C2818732   3.073   2.906   5.386 -0.0325  1.0659  0.4127
  166SAPS   H8R18733   2.986   2.838   5.385  0.2418  0.7118  0.0226
  166SAPS   C2918734   3.091   2.985   5.281 -0.0296 -0.1654  0.1504
  166SAPS   H9R18735   3.035   2.960   5.189  0.0402  0.0459  0.0493
  166SAPS  C21018736   3.190   3.098   5.261  0.2441 -0.8782  0.1532
  166SAPS  H10R18737   3.286   3.056   5.224  1.3042  0.1041  1.7082
  166SAPS  H10S18738   3.215   3.137   5.362  1.6885  2.4847 -1.3709
  166SAPS  C21118739   3.122   3.208   5.178 -0.4379  0.1253  0.4127
  166SAPS  H11R18740   3.049   3.264   5.238  0.6428 -0.2909  2.1615
  166SAPS  C21218741   3.141   3.237   5.047 -0.3470 -0.3985 -0.0635
  166SAPS  H12R18742   3.093   3.325   5.003 -0.8467  0.4199  1.9983
  166SAPS  C21318743   3.236   3.153   4.962 -0.4508 -0.2383 -0.0504
  166SAPS  H13R18744   3.219   3.048   4.994 -1.5068 -0.3951 -1.0124
  166SAPS  H13S18745   3.342   3.181   4.978 -0.5683 -0.3038  0.9085
  166SAPS  C21418746   3.207   3.148   4.807  0.6002  0.3956 -0.2496
  166SAPS  H14R18747   3.108   3.179   4.770 -0.7513 -2.4905  0.6369
  166SAPS  C21518748   3.285   3.108   4.706  0.4362  0.9462  0.1402
  166SAPS  H15R18749   3.235   3.094   4.609 -1.2116 -2.7462  1.3281
  166SAPS  C21618750   3.425   3.053   4.709  0.0089  0.3607  0.4330
  166SAPS  H16R18751   3.450   3.033   4.815 -1.1407  3.5669  1.4313
  166SAPS  H16S18752   3.492   3.126   4.658 -0.3801 -0.3193 -1.1341
  166SAPS  C21718753   3.445   2.918   4.633 -0.4847 -0.3793 -0.3756
  166SAPS  H17R18754   3.439   2.943   4.525  1.5793  0.4048 -0.3633
  166SAPS  H17S18755   3.377   2.837   4.668 -0.7620  0.1958  0.4350
  166SAPS  C21818756   3.586   2.870   4.671  0.0086  0.6256  0.0080
  166SAPS  H18R18757   3.597   2.818   4.768 -0.6719  0.2354 -0.1185
  166SAPS  H18S18758   3.655   2.958   4.673 -0.2128  0.8110 -0.3829
  166SAPS  C21918759   3.650   2.789   4.554 -0.2653  0.5683 -0.8299
  166SAPS  H19R18760   3.659   2.855   4.465  0.5335 -0.3507 -1.4391
  166SAPS  H19S18761   3.576   2.711   4.527  0.0497 -0.5017  1.1904
  166SAPS  C22018762   3.790   2.729   4.574 -0.0537  0.6330  0.1542
  166SAPS  H20R18763   3.866   2.810   4.563  1.9963 -1.3352 -1.2729
  166SAPS  H20S18764   3.811   2.651   4.497 -0.8758 -0.2132  0.7683
  166SAPS  H20T18765   3.785   2.690   4.677 -2.0897 -1.0165 -0.5218
  166SAPS   C3318766   3.227   2.490   5.913  0.5380 -0.2168 -0.1105
  166SAPS   H3X18767   3.265   2.413   5.983 -0.5341  0.1408  0.8933
  166SAPS   H3Y18768   3.301   2.574   5.914  1.2393 -0.8220  1.4348
  166SAPS   C3418769   3.220   2.445   5.764 -0.4693 -0.3136  0.1452
  166SAPS   H4X18770   3.175   2.527   5.705 -0.6785  0.8917  1.8888
  166SAPS   H4Y18771   3.145   2.364   5.753 -0.4880 -0.2460 -0.2285
  166SAPS   C3518772   3.350   2.410   5.696 -0.7694  0.6190 -0.9157
  166SAPS   H5X18773   3.388   2.311   5.728 -1.0981  0.4274 -1.1066
  166SAPS   H5Y18774   3.430   2.480   5.728  0.4524 -0.7619 -0.8643
  166SAPS   C3618775   3.347   2.407   5.546  0.1099 -0.5589 -0.0974
  166SAPS   H6X18776   3.446   2.397   5.497  0.2930  3.0561 -0.7205
  166SAPS   H6Y18777   3.325   2.513   5.519  0.0120 -0.2509  1.1348
  166SAPS   C3718778   3.241   2.309   5.484  0.1771 -0.2792 -0.0636
  166SAPS   H7X18779   3.212   2.350   5.384 -0.7017  1.4865  0.8662
  166SAPS   H7Y18780   3.151   2.311   5.549  0.1607  0.1230 -0.0956
  166SAPS   C3818781   3.304   2.173   5.472 -0.2000 -0.4878  0.1808
  166SAPS   H8X18782   3.324   2.134   5.575  1.3593  0.9841  0.4905
  166SAPS   H8Y18783   3.404   2.202   5.434 -1.0078  2.4557  0.0351
  166SAPS   C3918784   3.230   2.079   5.377 -0.5491 -0.2102 -0.0672
  166SAPS   H9X18785   3.122   2.070   5.404 -0.8738  1.5074 -0.6302
  166SAPS   H9Y18786   3.282   1.984   5.398 -0.0469  0.6647  3.4432
  166SAPS  C31018787   3.254   2.114   5.228  1.1470  0.2776  1.1882
  166SAPS  H10X18788   3.364   2.116   5.215  1.1248  2.5268  1.0828
  166SAPS  H10Y18789   3.228   2.220   5.210  0.9208  0.0311 -0.0571
  166SAPS  C31118790   3.181   2.036   5.123  0.2056  0.7116  0.5901
  166SAPS  H11X18791   3.201   1.932   5.158  3.1903  1.1845  0.4919
  166SAPS  H11Y18792   3.225   2.045   5.021  0.8263  0.6539  0.8489
  166SAPS  C31218793   3.025   2.065   5.115  0.2393  0.0850 -0.0072
  166SAPS  H12X18794   3.006   2.159   5.061 -2.6500 -2.0651 -3.1549
  166SAPS  H12Y18795   2.986   2.064   5.219  2.3399 -0.8033  0.8353
  166SAPS  C31318796   2.963   1.952   5.036 -0.1896 -0.0783 -0.1045
  166SAPS  H13X18797   2.994   1.851   5.070 -2.1976 -0.9773 -0.8293
  166SAPS  H13Y18798   2.993   1.972   4.931 -0.2709  1.3010  0.1166
  166SAPS  C31418799   2.813   1.961   5.049  0.9158  0.4387 -0.4203
  166SAPS  H14X18800   2.791   2.056   4.995  1.4881  0.7621 -0.0863
  166SAPS  H14Y18801   2.785   1.978   5.155 -0.6211  0.6336 -0.8269
  166SAPS  C31518802   2.740   1.834   4.995  0.1531  0.0955 -0.1969
  166SAPS  H15X18803   2.641   1.827   5.044  0.4220  0.1407  0.3645
  166SAPS  H15Y18804   2.773   1.734   5.031 -1.1349 -0.5084 -0.6336
  166SAPS  C31618805   2.729   1.846   4.841  0.1768  0.0160  0.0979
  166SAPS  H16X18806   2.829   1.859   4.795  0.0405 -0.2658 -0.2854
  166SAPS  H16Y18807   2.677   1.942   4.818  0.6014  0.5487  1.2734
  166SAPS  C31718808   2.653   1.731   4.785  0.8311  0.5215 -0.2389
  166SAPS  H17X18809   2.559   1.735   4.845  0.3921  0.3076 -0.9078
  166SAPS  H17Y18810   2.697   1.630   4.797  1.7628  0.5709 -2.7577
  166SAPS  C31818811   2.616   1.735   4.633  1.1006  0.4840  0.0276
  166SAPS  H18X18812   2.708   1.763   4.578  0.7214  0.1465 -0.8128
  166SAPS  H18Y18813   2.538   1.810   4.607 -1.4549 -1.8082  0.5354
  166SAPS  H18Z18814   2.575   1.639   4.595  0.2299  1.1283 -0.7122
  167SAPS     N18815   0.126   3.701   6.791  0.4183 -0.0429 -0.0193
  167SAPS   HN118816   0.158   3.750   6.705 -3.2498  2.3501 -0.2328
  167SAPS   HN218817   0.126   3.597   6.782 -0.4851 -0.0208 -0.4111
  167SAPS   HN318818   0.030   3.728   6.819 -0.7659 -1.6385 -2.2428
  167SAPS   C1218819   0.213   3.729   6.905 -0.4993  0.2026  0.5839
  167SAPS  H12A18820   0.170   3.690   6.997 -1.0810  1.1517  0.7354
  167SAPS   C1318821   0.361   3.687   6.906  0.1798 -0.0043  0.4951
  167SAPS  O13A18822   0.410   3.621   6.808  0.4124 -0.2924  0.1767
  167SAPS  O13B18823   0.433   3.729   6.998  0.8544  0.5465  0.3990
  167SAPS   C1118824   0.205   3.885   6.944 -0.2082  0.0139  0.4287
  167SAPS  H11A18825   0.274   3.943   6.879 -0.9921 -0.8753 -1.2305
  167SAPS  H11B18826   0.246   3.893   7.047  5.1743 -0.1827 -1.4151
  167SAPS     P18827   0.008   4.062   6.865  0.4612  0.0447 -0.1835
  167SAPS   O1318828  -0.135   4.064   6.906  0.6292  0.3085  0.1854
  167SAPS   O1418829   0.093   4.178   6.895 -0.1944  0.0766 -0.1817
  167SAPS   O1218830   0.071   3.936   6.945 -0.4297  0.0695 -0.0272
  167SAPS   O1118831   0.019   4.036   6.710  0.3199  0.1583  0.3568
  167SAPS    C118832  -0.054   4.109   6.614 -0.4420 -0.4345  0.2263
  167SAPS    HA18833  -0.162   4.082   6.609 -0.9389  1.2673  1.0587
  167SAPS    HB18834  -0.055   4.216   6.643 -1.1069 -0.8433  1.8584
  167SAPS    C218835   0.018   4.111   6.471  0.3390 -0.2066  0.2655
  167SAPS    HS18836  -0.052   4.174   6.411 -0.1877 -0.4794  0.5818
  167SAPS   O2118837   0.037   3.991   6.406 -0.1655 -0.5094  0.4132
  167SAPS   C2118838  -0.069   3.922   6.377 -0.0548  0.7119 -0.4344
  167SAPS   O2218839  -0.187   3.965   6.387 -0.2175 -0.4088  0.1974
  167SAPS   C2218840  -0.024   3.786   6.323 -0.4647 -0.1923 -0.7470
  167SAPS   H2R18841   0.084   3.773   6.347 -0.5834  0.5216  0.2166
  167SAPS   H2S18842  -0.088   3.706   6.365 -2.9949  0.9495 -2.2020
  167SAPS    C318843   0.150   4.187   6.495  0.8623 -0.1543 -0.2655
  167SAPS    HX18844   0.214   4.126   6.563  0.2070 -0.4447  0.1039
  167SAPS    HY18845   0.112   4.276   6.549  1.6368 -0.1615  0.3182
  167SAPS   O3118846   0.209   4.222   6.376  0.2052 -0.4297  0.3347
  167SAPS   C3118847   0.311   4.145   6.329 -0.0189 -1.2587  0.3379
  167SAPS   O3218848   0.349   4.041   6.376 -0.6480 -0.6472  0.4458
  167SAPS   C3218849   0.358   4.188   6.182  0.0151 -0.2489 -0.1218
  167SAPS   H2X18850   0.418   4.281   6.192  0.0206  0.1411 -2.9448
  167SAPS   H2Y18851   0.264   4.226   6.136 -0.9497 -1.0851  1.0671
  167SAPS   C2318852  -0.050   3.787   6.168  0.0374  0.3496 -0.3631
  167SAPS   H3R18853  -0.154   3.815   6.139  0.5032  1.2966 -1.1665
  167SAPS   H3S18854  -0.042   3.685   6.127 -2.1635  0.0438 -0.1568
  167SAPS   C2418855   0.063   3.871   6.098  0.6273 -0.4363 -0.0367
  167SAPS   H4R18856   0.079   3.823   5.999 -2.4317  0.0035 -0.8692
  167SAPS   H4S18857   0.152   3.862   6.164  0.9101 -1.0406 -0.4907
  167SAPS   C2518858   0.045   4.019   6.078 -0.1662 -0.1603  0.0952
  167SAPS   H5R18859   0.110   4.083   6.140  1.2790 -0.7381 -0.7624
  167SAPS   C2618860  -0.063   4.079   6.032  0.4010  0.1023  0.0974
  167SAPS   H6R18861  -0.061   4.189   6.030  4.0815  0.1952  1.0498
  167SAPS   C2718862  -0.189   4.030   5.961 -0.0155  0.3524  0.6875
  167SAPS   H7R18863  -0.174   3.923   5.937  0.2988  0.2281  1.4248
  167SAPS   H7S18864  -0.183   4.080   5.861  0.9089 -0.6458  0.2218
  167SAPS   C2818865  -0.327   4.045   6.034 -1.1395 -0.0454 -0.5387
  167SAPS   H8R18866  -0.331   4.018   6.140  1.9337  1.3520  0.0297
  167SAPS   C2918867  -0.441   4.086   5.972  0.1393 -0.8438 -1.1273
  167SAPS   H9R18868  -0.529   4.080   6.037  0.9139  1.6708  0.2834
  167SAPS  C21018869  -0.467   4.130   5.836 -0.2721 -0.3161  0.2374
  167SAPS  H10R18870  -0.374   4.173   5.792 -0.6102  0.2678  0.0875
  167SAPS  H10S18871  -0.541   4.212   5.831 -0.1241 -0.0331  2.0487
  167SAPS  C21118872  -0.505   4.015   5.739  0.6366 -0.2731  0.0493
  167SAPS  H11R18873  -0.428   3.941   5.713  0.2974 -0.9907  0.9943
  167SAPS  C21218874  -0.625   4.014   5.676  0.3188 -0.8483 -0.0300
  167SAPS  H12R18875  -0.653   3.921   5.626  1.4423 -1.8537  1.1258
  167SAPS  C21318876  -0.739   4.111   5.686  0.3324  0.2560 -0.2392
  167SAPS  H13R18877  -0.725   4.186   5.768 -1.9158  0.6885 -0.1807
  167SAPS  H13S18878  -0.836   4.062   5.709 -0.2708  1.2821 -0.5019
  167SAPS  C21418879  -0.760   4.196   5.567  0.0223 -0.2314 -0.3537
  167SAPS  H14R18880  -0.690   4.280   5.567  0.9729 -0.9733  1.4030
  167SAPS  C21518881  -0.846   4.180   5.456 -0.6979 -0.7007 -0.5597
  167SAPS  H15R18882  -0.840   4.254   5.375  0.6228 -0.5071 -0.3173
  167SAPS  C21618883  -0.935   4.061   5.424 -0.0069  0.1917 -0.3438
  167SAPS  H16R18884  -1.037   4.095   5.397 -0.1145 -1.8206 -2.8393
  167SAPS  H16S18885  -0.940   4.007   5.521  1.3643  1.7292  0.6412
  167SAPS  C21718886  -0.880   3.950   5.328  0.1884 -0.2174  0.3525
  167SAPS  H17R18887  -0.937   3.856   5.345  1.2941 -1.0696 -0.4485
  167SAPS  H17S18888  -0.772   3.932   5.349  0.9001  1.3453 -1.5904
  167SAPS  C21818889  -0.892   3.983   5.175 -0.2486 -0.1337 -0.3589
  167SAPS  H18R18890  -0.805   4.047   5.149 -0.5576  0.1076 -0.7990
  167SAPS  H18S18891  -0.986   4.041   5.161  0.3595  1.1106  0.4719
  167SAPS  C21918892  -0.908   3.862   5.084  0.5834 -0.1396  0.2260
  167SAPS  H19R18893  -0.985   3.789   5.113  1.1989 -1.4692 -1.3540
  167SAPS  H19S18894  -0.805   3.821   5.074  0.5952 -0.0012 -0.2529
  167SAPS  C22018895  -0.948   3.919   4.943 -0.4941  0.1661 -0.2420
  167SAPS  H20R18896  -0.983   3.839   4.874  0.0893  1.5590 -2.2590
  167SAPS  H20S18897  -0.858   3.968   4.899  0.2376 -1.0864 -0.1646
  167SAPS  H20T18898  -1.025   3.998   4.957 -2.7979 -2.2549  1.6273
  167SAPS   C3318899   0.419   4.079   6.101 -0.0767  0.9707 -0.3358
  167SAPS   H3X18900   0.380   3.978   6.127 -1.2339  1.6383  0.6378
  167SAPS   H3Y18901   0.528   4.076   6.121  0.3103 -0.5144 -2.4029
  167SAPS   C3418902   0.396   4.093   5.954  0.2050 -0.4158  0.5993
  167SAPS   H4X18903   0.395   4.202   5.932  0.2725 -0.4441  0.4569
  167SAPS   H4Y18904   0.294   4.057   5.933 -0.6681  1.9960  0.4103
  167SAPS   C3518905   0.496   4.023   5.869 -0.6031 -0.3214  0.4059
  167SAPS   H5X18906   0.481   3.915   5.888 -3.7863  0.1222  0.9382
  167SAPS   H5Y18907   0.590   4.065   5.910 -1.5917  2.5492  0.0085
  167SAPS   C3618908   0.474   4.057   5.721 -0.0275  0.1905 -0.0585
  167SAPS   H6X18909   0.469   4.165   5.695  0.4486  0.1881 -0.1665
  167SAPS   H6Y18910   0.382   4.007   5.685 -0.4091 -2.2196  3.7281
  167SAPS   C3718911   0.581   3.985   5.636 -0.1654 -0.0196  0.4338
  167SAPS   H7X18912   0.565   3.876   5.653  0.1525  0.0424  1.1488
  167SAPS   H7Y18913   0.678   4.003   5.686  0.1101 -0.7029  0.1573
  167SAPS   C3818914   0.594   4.021   5.485  0.4027  0.3575  0.0926
  167SAPS   H8X18915   0.681   3.973   5.436 -0.1457  0.2412 -0.7913
  167SAPS   H8Y18916   0.611   4.131   5.489 -0.9377  0.6090 -0.8287
  167SAPS   C3918917   0.466   3.978   5.405  0.3837  0.2261 -0.2249
  167SAPS   H9X18918   0.389   4.046   5.448  1.3017 -0.1193  2.1028
  167SAPS   H9Y18919   0.442   3.873   5.431 -1.9244  0.9982  1.0416
  167SAPS  C31018920   0.488   3.985   5.257  0.7348 -0.5261  0.1314
  167SAPS  H10X18921   0.562   3.905   5.236  0.3523 -1.0250  0.6527
  167SAPS  H10Y18922   0.514   4.091   5.233  0.5085  0.1115  2.4915
  167SAPS  C31118923   0.351   3.960   5.187  0.2766 -0.0010 -0.3887
  167SAPS  H11X18924   0.286   4.050   5.192 -1.6018 -1.1882 -2.0200
  167SAPS  H11Y18925   0.298   3.878   5.238 -1.3444  0.8913 -0.5813
  167SAPS  C31218926   0.371   3.929   5.040 -0.0832 -0.5459  0.2443
  167SAPS  H12X18927   0.285   3.871   5.000 -0.9871  1.1437 -0.3493
  167SAPS  H12Y18928   0.460   3.864   5.031  1.6467  1.6791  0.3352
  167SAPS  C31318929   0.393   4.050   4.943 -0.6862 -0.1233 -0.1303
  167SAPS  H13X18930   0.480   4.108   4.979 -1.5573  0.9588  0.3131
  167SAPS  H13Y18931   0.307   4.118   4.963 -0.1345  0.2332  1.1276
  167SAPS  C31418932   0.406   4.014   4.799 -0.5864  0.1000  0.1419
  167SAPS  H14X18933   0.306   3.979   4.766 -1.2326  0.3036  1.8206
  167SAPS  H14Y18934   0.483   3.934   4.794 -0.1228  0.5382  0.1766
  167SAPS  C31518935   0.437   4.128   4.700  0.2604 -0.6636 -0.5177
  167SAPS  H15X18936   0.523   4.190   4.733 -1.4974  1.3968  0.4133
  167SAPS  H15Y18937   0.349   4.195   4.696  0.4208 -0.4559 -0.5722
  167SAPS  C31618938   0.454   4.086   4.560 -0.1691 -0.1946 -0.0597
  167SAPS  H16X18939   0.368   4.022   4.532  0.2657 -0.5897 -0.5173
  167SAPS  H16Y18940   0.544   4.022   4.570  0.4231  0.8346  1.5392
  167SAPS  C31718941   0.484   4.198   4.464 -0.1720 -1.5926  0.1532
  167SAPS  H17X18942   0.393   4.255   4.436  0.2512 -0.6270  0.7134
  167SAPS  H17Y18943   0.529   4.157   4.371  0.3494 -1.7719  0.4799
  167SAPS  C31818944   0.596   4.299   4.496 -0.2022 -0.8611 -0.5774
  167SAPS  H18X18945   0.681   4.235   4.527 -0.2377 -0.0399  1.3386
  167SAPS  H18Y18946   0.575   4.362   4.585  2.9109 -2.1207  1.2219
  167SAPS  H18Z18947   0.629   4.365   4.412  2.2896  0.1726  1.0936
  168SAPS     N18948   4.718   2.988   7.002 -0.6724 -0.5307  0.5980
  168SAPS   HN118949   4.783   2.989   7.083 -1.0983 -2.0425  0.9909
  168SAPS   HN218950   4.670   2.896   6.995  1.0981 -1.4242 -0.2571
  168SAPS   HN318951   4.763   3.006   6.911 -3.3878 -0.9209 -0.9457
  168SAPS   C1218952   4.620   3.102   7.028 -0.3809 -0.5033  0.0673
  168SAPS  H12A18953   4.567   3.061   7.113  0.8671  0.7114  1.4827
  168SAPS   C1318954   4.681   3.231   7.077  0.6377 -0.2629 -0.4337
  168SAPS  O13A18955   4.804   3.238   7.089 -0.1036 -0.0741  1.3945
  168SAPS  O13B18956   4.604   3.332   7.093  0.0173  0.2486 -0.2404
  168SAPS   C1118957   4.526   3.119   6.907  0.0542 -0.6277  0.3820
  168SAPS  H11A18958   4.594   3.164   6.832  2.6381 -0.4890  2.6472
  168SAPS  H11B18959   4.448   3.192   6.935  1.0937  0.6741 -0.0386
  168SAPS     P18960   4.378   2.982   6.750  0.1413 -0.1833 -0.2585
  168SAPS   O1318961   4.380   2.838   6.727  0.5191 -0.4566 -0.3273
  168SAPS   O1418962   4.248   3.054   6.769  0.3428  0.3040 -0.1989
  168SAPS   O1218963   4.469   2.996   6.877  0.0070 -0.2263  0.1866
  168SAPS   O1118964   4.456   3.054   6.631  0.0631  0.1172 -0.0283
  168SAPS    C118965   4.388   3.125   6.532 -0.4974  0.3180  0.6098
  168SAPS    HA18966   4.357   3.056   6.450  1.7544 -0.7431  0.5669
  168SAPS    HB18967   4.300   3.182   6.567 -0.3573  1.5601 -0.9666
  168SAPS    C218968   4.486   3.240   6.470 -0.3506  0.1859 -0.4421
  168SAPS    HS18969   4.432   3.333   6.444 -1.7670 -0.8116 -1.2358
  168SAPS   O2118970   4.551   3.187   6.349 -0.6044  0.9965 -0.6091
  168SAPS   C2118971   4.563   3.263   6.242 -0.5743 -0.8028 -0.8787
  168SAPS   O2218972   4.530   3.380   6.243  0.1534 -0.3159 -0.1520
  168SAPS   C2218973   4.640   3.189   6.134  0.4667 -0.4089  0.6466
  168SAPS   H2R18974   4.741   3.161   6.171  0.5282 -0.5495  0.3756
  168SAPS   H2S18975   4.577   3.102   6.105  1.3764 -0.3322 -1.8097
  168SAPS    C318976   4.593   3.292   6.572 -0.1932 -0.5883  0.3674
  168SAPS    HX18977   4.665   3.211   6.598  0.8717  0.1772 -0.1108
  168SAPS    HY18978   4.541   3.315   6.667 -1.5113  0.2267 -0.5334
  168SAPS   O3118979   4.673   3.400   6.527 -0.2942  0.3215  0.3433
  168SAPS   C3118980   4.628   3.523   6.547  0.0986 -0.4618  0.3317
  168SAPS   O3218981   4.528   3.550   6.611 -0.0786 -0.2217 -0.3100
  168SAPS   C3218982   4.728   3.624   6.487  0.5813 -0.2741  0.0591
  168SAPS   H2X18983   4.831   3.583   6.486  0.0160 -1.7729 -0.2407
  168SAPS   H2Y18984   4.715   3.711   6.555  0.3947 -0.7055  0.5805
  168SAPS   C2318985   4.657   3.265   5.991 -0.2293  0.9406 -0.4490
  168SAPS   H3R18986   4.720   3.351   6.023 -1.2096  0.9107  1.7066
  168SAPS   H3S18987   4.553   3.289   5.961  0.7536  2.0696 -3.3340
  168SAPS   C2418988   4.730   3.168   5.890 -0.3636  0.4458  0.3965
  168SAPS   H4R18989   4.830   3.162   5.938 -0.1412  0.3706 -0.0695
  168SAPS   H4S18990   4.747   3.235   5.803 -2.9396  0.3818 -0.2424
  168SAPS   C2518991   4.654   3.040   5.861 -0.0739 -0.3973  0.8063
  168SAPS   H5R18992   4.649   2.970   5.945  0.8217  0.5857  1.7003
  168SAPS   C2618993   4.614   2.996   5.739  0.0185  0.6747 -0.1580
  168SAPS   H6R18994   4.586   2.891   5.722 -0.3539  0.9038 -1.0002
  168SAPS   C2718995   4.612   3.083   5.609 -0.2588  0.3277 -0.5081
  168SAPS   H7R18996   4.617   3.189   5.641 -0.8739 -0.2496  1.7062
  168SAPS   H7S18997   4.512   3.077   5.561 -1.0226 -1.1159  1.1181
  168SAPS   C2818998   4.733   3.051   5.522  0.1138 -0.0450 -0.5043
  168SAPS   H8R18999   4.822   3.051   5.587 -0.7242  1.6366  0.7210
  168SAPS   C2919000   4.741   3.031   5.389  0.4419 -0.3709 -0.3270
  168SAPS   H9R19001   4.834   3.006   5.337  1.1491  2.0811 -0.3370
  168SAPS  C21019002   4.628   3.038   5.295  0.3066  0.0118  1.0908
  168SAPS  H10R19003   4.626   3.130   5.233  1.1702 -0.5854  0.1555
  168SAPS  H10S19004   4.532   3.023   5.349  0.3585 -2.1126  0.6821
  168SAPS  C21119005   4.640   2.921   5.199 -0.6329 -0.8916  0.4728
  168SAPS  H11R19006   4.564   2.844   5.212 -0.2461 -1.6870 -1.6202
  168SAPS  C21219007   4.724   2.920   5.094  0.5909 -0.2290 -0.1109
  168SAPS  H12R19008   4.714   2.825   5.039 -3.2764  0.4838 -0.9525
  168SAPS  C21319009   4.824   3.015   5.047  0.4244 -0.6090 -0.3808
  168SAPS  H13R19010   4.910   2.966   4.997 -0.7782 -1.3702 -1.7651
  168SAPS  H13S19011   4.867   3.075   5.130 -2.3194 -1.6692  1.9575
  168SAPS  C21419012   4.767   3.119   4.954  0.6931  0.6738  0.1524
  168SAPS  H14R19013   4.687   3.176   5.004 -0.9387 -1.1900 -0.1923
  168SAPS  C21519014   4.785   3.129   4.820 -1.4453 -0.0320  0.8676
  168SAPS  H15R19015   4.728   3.209   4.770 -0.1632  1.0886  1.1500
  168SAPS  C21619016   4.871   3.028   4.742 -0.6867  0.0318 -0.7739
  168SAPS  H16R19017   4.952   2.992   4.809  0.0487 -1.3901 -2.3425
  168SAPS  H16S19018   4.924   3.096   4.672 -1.1852  0.4861 -0.7161
  168SAPS  C21719019   4.802   2.916   4.665 -0.4338  0.0098  0.4354
  168SAPS  H17R19020   4.739   2.958   4.583  0.3842 -0.6011 -0.5211
  168SAPS  H17S19021   4.734   2.864   4.736 -0.6951  0.1766  0.3131
  168SAPS  C21819022   4.904   2.817   4.603  0.7106  0.0894 -0.0750
  168SAPS  H18R19023   4.858   2.717   4.594 -1.0134  0.3111  4.0558
  168SAPS  H18S19024   4.981   2.810   4.684 -1.8581 -0.2809  2.5083
  168SAPS  C21919025   4.972   2.865   4.479  0.0349 -0.7958 -0.6050
  168SAPS  H19R19026   4.991   2.974   4.492  0.1302 -0.7999 -0.7084
  168SAPS  H19S19027   4.894   2.862   4.399  0.8545 -2.8105 -1.3969
  168SAPS  C22019028   5.100   2.784   4.446 -0.5620 -0.0737  0.2530
  168SAPS  H20R19029   5.179   2.833   4.507 -1.4655  1.8376 -0.0335
  168SAPS  H20S19030   5.127   2.787   4.339 -2.0805 -3.5578 -0.3582
  168SAPS  H20T19031   5.090   2.678   4.477 -0.6401  0.0531  0.6677
  168SAPS   C3319032   4.694   3.677   6.344 -0.2207 -0.0583 -0.2078
  168SAPS   H3X19033   4.585   3.694   6.331 -0.1255 -0.4945 -1.7844
  168SAPS   H3Y19034   4.726   3.617   6.256  2.0569 -0.5402  0.8873
  168SAPS   C3419035   4.747   3.821   6.324 -0.6220 -0.9921 -0.0222
  168SAPS   H4X19036   4.720   3.876   6.417 -0.3894  2.1169 -1.6670
  168SAPS   H4Y19037   4.696   3.850   6.230  0.1438 -0.9209 -0.4293
  168SAPS   C3519038   4.899   3.834   6.320  0.9868  0.2540  0.1256
  168SAPS   H5X19039   4.925   3.785   6.224  0.5860  0.8264 -0.2792
  168SAPS   H5Y19040   4.939   3.774   6.406 -0.2272 -0.0725  0.4784
  168SAPS   C3619041   4.935   3.981   6.319  1.0704 -0.3067  0.4039
  168SAPS   H6X19042   4.902   4.027   6.414 -0.7953 -0.0457 -0.3344
  168SAPS   H6Y19043   4.884   4.033   6.235  0.5548 -2.6087 -0.8062
  168SAPS   C3719044   5.084   4.020   6.314 -0.1082 -0.9778 -0.8427
  168SAPS   H7X19045   5.148   3.983   6.396  0.2708  1.1379 -0.1101
  168SAPS   H7Y19046   5.080   4.130   6.328 -1.9318 -0.8865 -1.6877
  168SAPS   C3819047   5.150   3.972   6.185 -0.2671 -0.4275 -0.1315
  168SAPS   H8X19048   5.125   3.864   6.178 -1.2391 -0.1932 -0.4933
  168SAPS   H8Y19049   5.258   3.997   6.192  0.4527 -2.6879 -2.0114
  168SAPS   C3919050   5.100   4.027   6.047 -0.4470  0.4139 -0.8091
  168SAPS   H9X19051   5.143   4.129   6.040 -0.9737  0.9603  2.4168
  168SAPS   H9Y19052   4.991   4.047   6.044 -0.5996  0.4623  1.9902
  168SAPS  C31019053   5.156   3.953   5.923 -0.3097  0.1689  0.0912
  168SAPS  H10X19054   5.160   3.843   5.942  3.0986  0.2421  0.3285
  168SAPS  H10Y19055   5.263   3.980   5.916  0.4991 -2.8251 -0.5569
  168SAPS  C31119056   5.061   3.991   5.800 -0.5005  0.7697  0.9698
  168SAPS  H11X19057   5.063   4.101   5.781 -1.2722  0.5509 -0.4915
  168SAPS  H11Y19058   4.963   3.959   5.841 -0.1680  0.9829  1.9655
  168SAPS  C31219059   5.099   3.910   5.677 -0.0111 -0.3246 -0.5238
  168SAPS  H12X19060   5.040   3.816   5.686 -1.7751  0.7470 -0.3855
  168SAPS  H12Y19061   5.210   3.907   5.673  0.1708  1.7787  1.1568
  168SAPS  C31319062   5.046   3.978   5.548 -0.3995 -0.3565 -0.7091
  168SAPS  H13X19063   5.072   4.086   5.543  0.7859 -0.6792 -2.6010
  168SAPS  H13Y19064   4.936   3.961   5.554 -0.2655 -0.9473  0.3112
  168SAPS  C31419065   5.124   3.917   5.431  0.4801  0.0231  0.2581
  168SAPS  H14X19066   5.104   3.808   5.437  1.1804 -0.1187  0.1694
  168SAPS  H14Y19067   5.233   3.924   5.453  0.0066  0.6450  2.6536
  168SAPS  C31519068   5.089   3.973   5.290 -0.5839  0.3104 -0.2943
  168SAPS  H15X19069   5.141   4.070   5.282  2.8184 -1.4363 -1.5804
  168SAPS  H15Y19070   4.980   3.982   5.276 -1.6395 -6.0147  0.6344
  168SAPS  C31619071   5.149   3.880   5.175 -0.4204  0.0816  0.2327
  168SAPS  H16X19072   5.077   3.796   5.166  0.3222 -0.4799 -0.4985
  168SAPS  H16Y19073   5.253   3.856   5.206  0.5666  0.7346 -2.3713
  168SAPS  C31719074   5.152   3.944   5.036  0.0339 -0.0189  0.0987
  168SAPS  H17X19075   5.234   4.018   5.046 -0.1096  0.0803  0.5942
  168SAPS  H17Y19076   5.063   4.009   5.021  1.8451  2.2070 -1.6214
  168SAPS  C31819077   5.185   3.852   4.914  0.6514  0.1460 -0.0657
  168SAPS  H18X19078   5.272   3.786   4.930  1.1734  0.9050  0.2590
  168SAPS  H18Y19079   5.174   3.905   4.816 -2.0844  0.9384  0.5785
  168SAPS  H18Z19080   5.097   3.785   4.902  0.8700  0.0130 -1.0527
  169SAPS     N19081   0.927   3.703   7.069 -0.1411 -0.2144 -0.2408
  169SAPS   HN119082   0.922   3.755   7.158  1.3835 -0.6345  0.1253
  169SAPS   HN219083   0.844   3.648   7.041  0.7527 -0.7811 -1.9230
  169SAPS   HN319084   1.016   3.649   7.076  0.6386  1.1271  0.6321
  169SAPS   C1219085   0.943   3.813   6.969 -0.0299  0.0080  0.0914
  169SAPS  H12A19086   0.846   3.854   6.944 -1.1187 -2.4518  0.0122
  169SAPS   C1319087   1.018   3.934   7.011 -0.2659  1.5109  0.0911
  169SAPS  O13A19088   1.071   3.923   7.131 -0.3520  0.0094  0.6850
  169SAPS  O13B19089   1.035   4.030   6.935  0.8341 -0.0414  0.1471
  169SAPS   C1119090   1.016   3.770   6.842 -0.5356  0.3196  0.0667
  169SAPS  H11A19091   1.105   3.717   6.881 -2.4287 -3.4697 -0.2968
  169SAPS  H11B19092   1.046   3.861   6.786 -0.7788  0.2665 -0.1512
  169SAPS     P19093   0.841   3.719   6.663  0.1658 -0.0020  0.1177
  169SAPS   O1319094   0.768   3.606   6.603 -0.0729 -0.1993 -0.0541
  169SAPS   O1419095   0.755   3.829   6.704 -0.4299 -0.0324 -0.5782
  169SAPS   O1219096   0.935   3.675   6.779  0.0204  0.1236 -0.2403
  169SAPS   O1119097   0.955   3.763   6.558  0.5853 -0.3359  0.2032
  169SAPS    C119098   0.955   3.879   6.480 -0.4384 -0.0523 -0.0516
  169SAPS    HA19099   0.932   3.964   6.547  0.7441 -1.3341  2.1027
  169SAPS    HB19100   1.056   3.895   6.437 -0.0486 -0.7596  0.5656
  169SAPS    C219101   0.854   3.883   6.362  0.2635 -0.0514  0.4010
  169SAPS    HS19102   0.754   3.873   6.410 -0.2843  1.1074 -0.4349
  169SAPS   O2119103   0.897   3.775   6.272  0.3957 -0.0813  0.3345
  169SAPS   C2119104   0.803   3.732   6.193  0.6923  0.8273 -0.9619
  169SAPS   O2219105   0.684   3.770   6.191 -0.0333 -0.4250 -0.0191
  169SAPS   C2219106   0.856   3.612   6.115 -0.8389  0.5882 -0.4826
  169SAPS   H2R19107   0.966   3.623   6.100 -0.5627 -1.9184 -0.6565
  169SAPS   H2S19108   0.839   3.519   6.173  0.4846  0.7321  0.1749
  169SAPS    C319109   0.868   4.014   6.281 -0.8745 -0.5294 -0.3101
  169SAPS    HX19110   0.795   4.024   6.198  0.0930 -0.6735 -1.1888
  169SAPS    HY19111   0.964   4.003   6.228 -2.4865 -3.1977 -2.9423
  169SAPS   O3119112   0.866   4.138   6.367 -0.2024  0.3164 -0.3868
  169SAPS   C3119113   0.749   4.183   6.392 -0.4490  0.1347 -0.1411
  169SAPS   O3219114   0.645   4.126   6.371  0.4083 -0.1452 -0.3153
  169SAPS   C3219115   0.774   4.306   6.485 -0.4907 -0.7769  0.7544
  169SAPS   H2X19116   0.872   4.351   6.458  0.0568 -1.2522  1.9046
  169SAPS   H2Y19117   0.787   4.271   6.590  1.6230 -2.7261 -0.0689
  169SAPS   C2319118   0.795   3.581   5.972 -0.7797 -0.2769 -0.3857
  169SAPS   H3R19119   0.684   3.585   5.977 -0.7478  3.1553  0.6210
  169SAPS   H3S19120   0.836   3.482   5.943  0.0722 -0.3297  0.9009
  169SAPS   C2419121   0.855   3.680   5.870 -0.4623 -0.1417 -0.7561
  169SAPS   H4R19122   0.803   3.657   5.775  0.9098  0.1792 -1.6071
  169SAPS   H4S19123   0.960   3.648   5.855 -0.4291 -0.3091 -0.1734
  169SAPS   C2519124   0.816   3.824   5.896  0.1526 -0.1121  0.1248
  169SAPS   H5R19125   0.708   3.836   5.879  0.2486  0.6118  0.0087
  169SAPS   C2619126   0.898   3.931   5.911  0.5351  0.0809 -0.1958
  169SAPS   H6R19127   0.857   4.031   5.930 -1.8519 -0.9696  0.5878
  169SAPS   C2719128   1.042   3.911   5.935 -0.2720 -0.0137  0.3406
  169SAPS   H7R19129   1.076   3.825   5.873  0.9091  0.8097 -0.1778
  169SAPS   H7S19130   1.051   3.874   6.039 -0.9694  1.2132  0.8574
  169SAPS   C2819131   1.136   4.018   5.905 -0.8056  0.0234  0.3856
  169SAPS   H8R19132   1.142   4.088   5.989  1.6911  1.7517 -1.1230
  169SAPS   C2919133   1.214   4.032   5.799 -0.4452  0.4483 -0.2163
  169SAPS   H9R19134   1.280   4.119   5.781  1.1582 -0.5131  0.8010
  169SAPS  C21019135   1.226   3.937   5.680 -1.0196 -0.4852  0.4813
  169SAPS  H10R19136   1.206   3.829   5.692  2.8717 -1.6311 -1.7236
  169SAPS  H10S19137   1.336   3.946   5.666 -1.3483  1.6333 -1.4010
  169SAPS  C21119138   1.169   3.996   5.555 -0.5192 -0.5014 -0.4311
  169SAPS  H11R19139   1.200   4.099   5.531 -0.0444 -0.0027  2.0217
  169SAPS  C21219140   1.089   3.934   5.467  0.1719  0.2715  0.2641
  169SAPS  H12R19141   1.046   3.996   5.387  0.6993  0.6472  0.2689
  169SAPS  C21319142   1.039   3.796   5.475 -0.2658 -0.4289  0.4696
  169SAPS  H13R19143   0.930   3.807   5.489 -0.0785  0.7846  1.0758
  169SAPS  H13S19144   1.072   3.747   5.569  1.3894 -0.2208  0.0308
  169SAPS  C21419145   1.106   3.724   5.360 -0.1409 -0.7352  0.4355
  169SAPS  H14R19146   1.210   3.690   5.372 -0.0727 -0.8157 -0.3134
  169SAPS  C21519147   1.053   3.701   5.243 -0.2574  0.3059 -0.0276
  169SAPS  H15R19148   1.115   3.655   5.164 -0.1614  1.8028 -0.8584
  169SAPS  C21619149   0.912   3.745   5.200  0.0736  0.1008 -0.6140
  169SAPS  H16R19150   0.847   3.782   5.282 -1.1555 -1.9140 -0.5967
  169SAPS  H16S19151   0.864   3.654   5.157  0.8677 -1.0660  0.8513
  169SAPS  C21719152   0.929   3.837   5.075  0.2603  0.3092  0.0897
  169SAPS  H17R19153   0.982   3.783   4.994 -0.7077  1.7038 -1.5336
  169SAPS  H17S19154   0.992   3.926   5.093  0.8831 -0.0123 -0.4729
  169SAPS  C21819155   0.793   3.889   5.031 -0.3718 -0.0442  0.2730
  169SAPS  H18R19156   0.737   3.944   5.110 -0.7723  0.3088 -0.2462
  169SAPS  H18S19157   0.726   3.801   5.017  2.1164 -1.9045 -0.7159
  169SAPS  C21919158   0.793   3.988   4.912 -0.9466 -0.0409  0.7470
  169SAPS  H19R19159   0.854   4.079   4.931  2.2634 -2.1325  1.2082
  169SAPS  H19S19160   0.684   4.007   4.899 -1.5139 -3.0584  0.1915
  169SAPS  C22019161   0.850   3.924   4.784  0.2425  0.3502  0.4989
  169SAPS  H20R19162   0.845   3.997   4.700 -0.8332 -1.3925 -1.0210
  169SAPS  H20S19163   0.788   3.834   4.766 -1.3032  0.9614  2.4285
  169SAPS  H20T19164   0.953   3.885   4.798 -0.0290 -0.9224 -0.8684
  169SAPS   C3319165   0.649   4.397   6.472 -0.0940  0.5608  0.4068
  169SAPS   H3X19166   0.667   4.479   6.546  0.3245  1.6356 -0.8502
  169SAPS   H3Y19167   0.560   4.337   6.502  1.3156 -1.1982  1.2439
  169SAPS   C3419168   0.637   4.456   6.326 -0.1178 -0.6731 -0.2466
  169SAPS   H4X19169   0.628   4.379   6.246  1.4396  0.8361 -1.9703
  169SAPS   H4Y19170   0.733   4.507   6.305  0.5851 -1.1520  1.6286
  169SAPS   C3519171   0.524   4.565   6.321  0.1447 -0.0109  0.0406
  169SAPS   H5X19172   0.547   4.635   6.405  0.0932 -1.6625  1.5010
  169SAPS   H5Y19173   0.423   4.526   6.349  0.1963  0.0224  0.2730
  169SAPS   C3619174   0.528   4.634   6.183 -0.1868 -0.0188 -1.1279
  169SAPS   H6X19175   0.636   4.654   6.170  0.3274 -1.6167  0.3610
  169SAPS   H6Y19176   0.466   4.727   6.183 -0.8067 -0.4252 -0.7121
  169SAPS   C3719177   0.477   4.546   6.064 -0.0496  0.0238 -0.4055
  169SAPS   H7X19178   0.380   4.507   6.099 -0.6673  1.8548  0.0514
  169SAPS   H7Y19179   0.551   4.464   6.055  0.9916  0.7411  1.0900
  169SAPS   C3819180   0.460   4.630   5.933 -0.3716  0.6640  1.0367
  169SAPS   H8X19181   0.545   4.701   5.928  1.8865 -1.9186  0.0727
  169SAPS   H8Y19182   0.365   4.688   5.936 -1.0344 -0.2451 -0.6984
  169SAPS   C3919183   0.464   4.539   5.810 -0.4787  0.2367 -0.3685
  169SAPS   H9X19184   0.501   4.436   5.828  0.4996  0.2945 -1.9025
  169SAPS   H9Y19185   0.536   4.584   5.739 -0.6599  1.2480  0.0679
  169SAPS  C31019186   0.327   4.538   5.732 -0.5076 -0.0551  0.1610
  169SAPS  H10X19187   0.275   4.634   5.748 -0.9098 -0.4075  1.0122
  169SAPS  H10Y19188   0.268   4.462   5.787 -0.9700 -0.6555 -1.1172
  169SAPS  C31119189   0.329   4.498   5.586  0.4611 -0.3386  0.6235
  169SAPS  H11X19190   0.399   4.412   5.573 -0.2403 -0.4423 -4.3748
  169SAPS  H11Y19191   0.360   4.579   5.518 -0.6252 -0.4209  0.0069
  169SAPS  C31219192   0.190   4.457   5.531 -0.0712 -0.6242 -0.4491
  169SAPS  H12X19193   0.110   4.533   5.546 -0.6313 -1.1593 -0.7070
  169SAPS  H12Y19194   0.155   4.368   5.587 -2.7043  0.7274  0.2138
  169SAPS  C31319195   0.196   4.431   5.381  0.3966 -0.0331 -0.2900
  169SAPS  H13X19196   0.255   4.342   5.352 -0.7509 -0.0767 -2.7795
  169SAPS  H13Y19197   0.232   4.521   5.327  0.3441  1.1147  1.5023
  169SAPS  C31419198   0.065   4.386   5.312  0.3107  0.2150 -0.1259
  169SAPS  H14X19199  -0.014   4.459   5.339  0.5561  0.5312 -0.2597
  169SAPS  H14Y19200   0.030   4.300   5.374  0.0811 -0.5864 -1.3283
  169SAPS  C31519201   0.070   4.338   5.167 -0.5525 -0.5578  0.3460
  169SAPS  H15X19202   0.135   4.249   5.159  0.6746  0.1437  1.9932
  169SAPS  H15Y19203   0.121   4.422   5.114  0.9120 -0.9362  1.1231
  169SAPS  C31619204  -0.073   4.318   5.099 -0.4463 -0.7343  0.2664
  169SAPS  H16X19205  -0.136   4.407   5.123 -0.4879 -0.6525 -0.1519
  169SAPS  H16Y19206  -0.117   4.230   5.150 -0.9293 -0.3278  0.5680
  169SAPS  C31719207  -0.060   4.304   4.948 -0.0668  0.2497 -0.7019
  169SAPS  H17X19208   0.043   4.273   4.919  1.0366  1.1201  1.9806
  169SAPS  H17Y19209  -0.064   4.407   4.907 -0.3102  0.8465  0.7619
  169SAPS  C31819210  -0.168   4.218   4.891 -0.2178  0.1652 -0.3054
  169SAPS  H18X19211  -0.153   4.108   4.902  0.1850  0.2075 -0.3945
  169SAPS  H18Y19212  -0.182   4.241   4.783 -0.2201 -1.8737 -0.7822
  169SAPS  H18Z19213  -0.261   4.255   4.938  0.7919 -0.5434  2.4575
  170SAPS     N19214   0.284   2.698   7.276  0.3086  0.1014  0.1176
  170SAPS   HN119215   0.308   2.791   7.318  0.1595 -0.5428  1.7119
  170SAPS   HN219216   0.296   2.643   7.363  2.1871  1.2726  0.6712
  170SAPS   HN319217   0.356   2.663   7.210 -0.2722 -1.1211  0.1105
  170SAPS   C1219218   0.142   2.705   7.217 -0.0221 -0.0383 -0.0983
  170SAPS  H12A19219   0.105   2.604   7.210  0.0631  0.0193 -1.5676
  170SAPS   C1319220   0.026   2.777   7.292 -0.2399  0.0567 -0.1204
  170SAPS  O13A19221   0.042   2.859   7.390 -0.2632 -0.0679 -0.4101
  170SAPS  O13B19222  -0.095   2.763   7.251  0.2571 -0.0503 -0.0713
  170SAPS   C1119223   0.153   2.750   7.065 -0.2076 -0.6970 -0.3345
  170SAPS  H11A19224   0.182   2.857   7.079 -3.1718 -0.1435  2.6365
  170SAPS  H11B19225   0.052   2.759   7.021 -0.0051 -0.1893 -0.7191
  170SAPS     P19226   0.380   2.735   6.945  0.0974  0.2756 -0.1232
  170SAPS   O1319227   0.409   2.868   6.990  0.2785 -0.3832  0.8786
  170SAPS   O1419228   0.481   2.629   6.978 -0.4036  0.0953  0.5286
  170SAPS   O1219229   0.249   2.682   6.994 -0.2477  0.7606 -0.1296
  170SAPS   O1119230   0.355   2.742   6.794 -0.3995 -0.2807 -0.4303
  170SAPS    C119231   0.437   2.831   6.709  0.3816  0.2848 -0.1060
  170SAPS    HA19232   0.398   2.932   6.684  3.3593  1.9791  1.5422
  170SAPS    HB19233   0.534   2.858   6.756 -0.7197  0.3735  2.2733
  170SAPS    C219234   0.471   2.764   6.572 -0.2509 -0.7906  0.0533
  170SAPS    HS19235   0.537   2.839   6.523 -0.0234  0.5107  2.2257
  170SAPS   O2119236   0.354   2.723   6.499 -0.5289 -0.6566 -0.3657
  170SAPS   C2119237   0.296   2.821   6.431 -0.1935  0.1353  0.6780
  170SAPS   O2219238   0.333   2.936   6.421  0.1987 -0.5611 -0.2027
  170SAPS   C2219239   0.173   2.766   6.361 -0.4652  0.7031  0.0134
  170SAPS   H2R19240   0.204   2.660   6.351  0.7556  0.8805  1.6199
  170SAPS   H2S19241   0.081   2.769   6.423  0.5572 -3.5702  2.1042
  170SAPS    C319242   0.563   2.637   6.600 -0.6421 -0.2311  0.2494
  170SAPS    HX19243   0.501   2.563   6.655 -2.5986  0.1535 -1.2795
  170SAPS    HY19244   0.638   2.681   6.668 -0.7793  1.0786 -0.4074
  170SAPS   O3119245   0.628   2.586   6.478 -0.3706  0.2251  0.2762
  170SAPS   C3119246   0.554   2.513   6.400 -0.0906  0.3337  0.9938
  170SAPS   O3219247   0.438   2.480   6.413 -0.5370 -0.7782 -0.0146
  170SAPS   C3219248   0.645   2.482   6.273  0.6714 -0.7017  0.0250
  170SAPS   H2X19249   0.581   2.420   6.207 -0.8052 -1.7514  2.3029
  170SAPS   H2Y19250   0.738   2.425   6.295 -0.0159 -1.8164  0.1426
  170SAPS   C2319251   0.149   2.819   6.216 -0.6378  0.0992  0.7564
  170SAPS   H3R19252   0.141   2.930   6.214 -1.0428  0.0687  0.4180
  170SAPS   H3S19253   0.054   2.770   6.187 -0.0854 -0.0457 -0.8590
  170SAPS   C2419254   0.260   2.773   6.114 -0.1700 -0.1156  0.0813
  170SAPS   H4R19255   0.359   2.800   6.156 -0.8019  0.3063  1.3441
  170SAPS   H4S19256   0.248   2.838   6.024 -3.1424  0.7052  0.9640
  170SAPS   C2519257   0.279   2.628   6.091 -0.2404  0.2024 -0.6633
  170SAPS   H5R19258   0.336   2.569   6.165 -0.1523  0.3925 -0.5791
  170SAPS   C2619259   0.203   2.561   6.002  0.2273  0.5808  0.4078
  170SAPS   H6R19260   0.220   2.453   5.995  1.6505  0.8384 -0.7173
  170SAPS   C2719261   0.101   2.623   5.908  0.3492  0.3537 -0.0227
  170SAPS   H7R19262   0.105   2.733   5.914  1.1143  0.2634  1.5472
  170SAPS   H7S19263   0.003   2.586   5.944 -0.3387  2.1117 -0.0229
  170SAPS   C2819264   0.125   2.559   5.771 -0.4594 -0.3122 -0.2962
  170SAPS   H8R19265   0.218   2.503   5.760 -0.0373 -0.3499  2.6977
  170SAPS   C2919266   0.042   2.567   5.663 -0.7201  0.0513 -0.4000
  170SAPS   H9R19267   0.076   2.513   5.574 -0.6296 -2.2805  0.9442
  170SAPS  C21019268  -0.095   2.635   5.677 -0.9803  0.5002  0.0484
  170SAPS  H10R19269  -0.092   2.736   5.632  1.5897  1.0539  1.3002
  170SAPS  H10S19270  -0.126   2.660   5.781 -2.4254  1.5776 -0.6105
  170SAPS  C21119271  -0.203   2.553   5.613 -0.1373  0.3282  0.3442
  170SAPS  H11R19272  -0.278   2.506   5.678 -0.8672  0.7424 -0.1808
  170SAPS  C21219273  -0.228   2.542   5.475  0.3048 -0.4457 -0.3765
  170SAPS  H12R19274  -0.296   2.464   5.440 -0.5188  0.2217 -0.2956
  170SAPS  C21319275  -0.152   2.602   5.363  0.7047  0.3236 -0.3128
  170SAPS  H13R19276  -0.123   2.521   5.293 -0.4040  0.4593 -0.9448
  170SAPS  H13S19277  -0.057   2.641   5.404  1.6218 -0.4260 -1.6671
  170SAPS  C21419278  -0.232   2.716   5.305  0.1707 -0.2481  0.4483
  170SAPS  H14R19279  -0.299   2.784   5.360  0.9129  1.3923 -0.6036
  170SAPS  C21519280  -0.210   2.759   5.178  0.2056 -0.2223 -0.3123
  170SAPS  H15R19281  -0.270   2.843   5.141  2.6906  0.9570 -1.9575
  170SAPS  C21619282  -0.117   2.693   5.081  0.1337  0.3072  0.9630
  170SAPS  H16R19283  -0.041   2.631   5.134  0.9813  1.5088  1.1770
  170SAPS  H16S19284  -0.051   2.771   5.038  1.4763 -0.6935  1.1359
  170SAPS  C21719285  -0.182   2.618   4.968 -0.4889 -0.3069 -1.4326
  170SAPS  H17R19286  -0.106   2.601   4.889  0.4687 -0.3227 -0.5254
  170SAPS  H17S19287  -0.263   2.684   4.931 -1.5800 -1.0017 -0.3238
  170SAPS  C21819288  -0.244   2.484   5.007 -0.4326  0.4794 -0.7231
  170SAPS  H18R19289  -0.336   2.504   5.066 -0.7687 -0.6551 -0.8353
  170SAPS  H18S19290  -0.172   2.423   5.065 -0.4472  2.1558  1.1726
  170SAPS  C21919291  -0.292   2.409   4.882 -0.1004 -0.2040  0.8496
  170SAPS  H19R19292  -0.199   2.392   4.823  0.1529  0.0451  1.1675
  170SAPS  H19S19293  -0.366   2.466   4.823  0.7248  1.6036  1.4917
  170SAPS  C22019294  -0.342   2.267   4.921 -0.4549  0.8118  0.0312
  170SAPS  H20R19295  -0.256   2.222   4.976 -0.1020  1.4034 -0.0276
  170SAPS  H20S19296  -0.364   2.204   4.832  1.1654  0.8568 -0.4256
  170SAPS  H20T19297  -0.432   2.261   4.986  0.3814 -0.5030  1.1194
  170SAPS   C3319298   0.687   2.616   6.213  0.7822  0.1287 -0.7436
  170SAPS   H3X19299   0.762   2.669   6.275  0.7265  1.0373 -1.4214
  170SAPS   H3Y19300   0.603   2.689   6.203 -0.2829 -1.0056 -0.3380
  170SAPS   C3419301   0.751   2.591   6.076 -0.0018  0.0616  0.3218
  170SAPS   H4X19302   0.825   2.509   6.089  1.0176  0.9900  0.5132
  170SAPS   H4Y19303   0.809   2.677   6.036 -0.4247 -0.3658 -1.2949
  170SAPS   C3519304   0.660   2.562   5.952  0.8952 -0.2321  0.1086
  170SAPS   H5X19305   0.566   2.512   5.985  0.5714  0.1114 -0.2899
  170SAPS   H5Y19306   0.709   2.495   5.878 -1.0651 -0.8206 -0.7316
  170SAPS   C3619307   0.614   2.695   5.877 -0.0718  0.0289 -0.3951
  170SAPS   H6X19308   0.691   2.716   5.799  0.7269 -3.7770 -0.8302
  170SAPS   H6Y19309   0.605   2.775   5.953  1.3841 -0.5526  0.4435
  170SAPS   C3719310   0.485   2.665   5.793  0.3358  0.8961  0.1308
  170SAPS   H7X19311   0.399   2.708   5.847 -0.9550 -0.3428 -0.8637
  170SAPS   H7Y19312   0.464   2.557   5.779 -1.0491  1.2059 -0.3649
  170SAPS   C3819313   0.480   2.740   5.659 -0.5361 -0.0189 -0.2571
  170SAPS   H8X19314   0.574   2.720   5.602  1.0911  0.4286  2.1299
  170SAPS   H8Y19315   0.486   2.848   5.685 -0.0846 -0.3262  0.9851
  170SAPS   C3919316   0.358   2.696   5.570 -0.2500 -0.0754 -0.1598
  170SAPS   H9X19317   0.260   2.736   5.603  0.3185  0.3362  1.0774
  170SAPS   H9Y19318   0.343   2.586   5.583 -3.0019  0.1477 -0.8699
  170SAPS  C31019319   0.374   2.748   5.429  0.2251  0.1708  0.0789
  170SAPS  H10X19320   0.471   2.717   5.384 -0.3776 -0.5669 -0.7534
  170SAPS  H10Y19321   0.382   2.858   5.440  2.5628  0.2801 -1.7382
  170SAPS  C31119322   0.249   2.722   5.341  0.2969  0.3001  0.0965
  170SAPS  H11X19323   0.164   2.694   5.406  1.3716  0.2347  1.5217
  170SAPS  H11Y19324   0.289   2.644   5.272 -1.1836  0.3269 -0.8432
  170SAPS  C31219325   0.190   2.844   5.263  0.1968 -0.6655  0.1267
  170SAPS  H12X19326   0.202   2.933   5.328  0.1112 -0.2247 -0.4606
  170SAPS  H12Y19327   0.085   2.828   5.230  0.4874 -0.7705 -0.7595
  170SAPS  C31319328   0.271   2.881   5.142 -0.3017  0.3132 -0.2436
  170SAPS  H13X19329   0.276   2.803   5.063  0.2120  1.8150 -1.7310
  170SAPS  H13Y19330   0.373   2.903   5.181 -0.5980 -0.6082  1.1630
  170SAPS  C31419331   0.220   3.009   5.071  0.0854  0.0288  0.0781
  170SAPS  H14X19332   0.291   3.044   4.993  2.4961 -1.2621  1.5724
  170SAPS  H14Y19333   0.231   3.088   5.148  1.6279 -0.6400  0.5853
  170SAPS  C31519334   0.075   3.006   5.017 -0.7105 -0.4332 -0.3516
  170SAPS  H15X19335   0.002   2.990   5.099  0.4890 -0.3394  0.7522
  170SAPS  H15Y19336   0.054   2.924   4.945 -0.1210 -0.5998 -0.3368
  170SAPS  C31619337   0.040   3.140   4.950  0.4566 -0.1873  0.3213
  170SAPS  H16X19338   0.041   3.229   5.016  2.1252  1.2841 -1.5767
  170SAPS  H16Y19339  -0.067   3.141   4.918  0.1181 -1.3894  1.3380
  170SAPS  C31719340   0.132   3.168   4.830  0.6175 -1.1357 -0.2887
  170SAPS  H17X19341   0.141   3.078   4.765 -1.4257 -1.4070 -0.2482
  170SAPS  H17Y19342   0.228   3.197   4.878 -0.1809  0.2167  0.5625
  170SAPS  C31819343   0.092   3.280   4.747 -0.1118 -0.6964  0.2703
  170SAPS  H18X19344  -0.014   3.263   4.716 -1.0910  1.2614  2.2279
  170SAPS  H18Y19345   0.154   3.284   4.655 -0.1580  1.4449  0.2755
  170SAPS  H18Z19346   0.102   3.385   4.780  0.4205 -0.6043 -0.1780
  171SAPS     N19347   1.304   3.511   6.640 -0.3057  0.0165  0.1743
  171SAPS   HN119348   1.271   3.482   6.733  0.5688  2.1752  1.2386
  171SAPS   HN219349   1.256   3.597   6.606 -0.5668 -0.7744 -1.6026
  171SAPS   HN319350   1.285   3.430   6.577  0.3915 -1.0521  1.2943
  171SAPS   C1219351   1.452   3.520   6.639  0.4001  0.9663  0.4644
  171SAPS  H12A19352   1.490   3.606   6.586 -0.1267  1.6518  1.1775
  171SAPS   C1319353   1.520   3.531   6.778  0.4031 -0.2407 -0.2842
  171SAPS  O13A19354   1.461   3.508   6.886  0.2944  0.7153 -0.0574
  171SAPS  O13B19355   1.648   3.544   6.775 -0.1222  0.2281  0.8805
  171SAPS   C1119356   1.504   3.381   6.592  0.1819  1.1631 -0.1840
  171SAPS  H11A19357   1.615   3.388   6.593  0.4613 -0.6104 -3.5302
  171SAPS  H11B19358   1.484   3.364   6.485  3.2992  0.9372 -0.8375
  171SAPS     P19359   1.510   3.114   6.644 -0.1859 -0.2177 -0.0944
  171SAPS   O1319360   1.632   3.101   6.724  0.4295 -0.0771 -0.1445
  171SAPS   O1419361   1.397   3.024   6.680 -0.0964  0.3830 -0.0510
  171SAPS   O1219362   1.458   3.266   6.669 -0.6287 -0.2011  0.5290
  171SAPS   O1119363   1.545   3.103   6.497  0.1030  0.4606 -0.3932
  171SAPS    C119364   1.441   3.082   6.399  0.0048  0.2752  0.0480
  171SAPS    HA19365   1.392   2.984   6.421 -0.1840  0.6664  1.4437
  171SAPS    HB19366   1.358   3.155   6.407  1.0193  1.3966  0.4621
  171SAPS    C219367   1.494   3.092   6.255  0.3370  0.2159 -0.3395
  171SAPS    HS19368   1.555   2.999   6.247  1.7346  0.9285  1.2982
  171SAPS   O2119369   1.569   3.219   6.230 -0.3330 -0.3820 -0.5190
  171SAPS   C2119370   1.698   3.196   6.212  0.5873  0.5911 -0.5061
  171SAPS   O2219371   1.744   3.090   6.172  0.3306  0.6209 -0.0331
  171SAPS   C2219372   1.777   3.332   6.247 -0.1458  0.3085  0.0562
  171SAPS   H2R19373   1.696   3.407   6.263 -0.2231  0.1258  0.5282
  171SAPS   H2S19374   1.813   3.325   6.352 -0.6021 -1.5483  0.1246
  171SAPS    C319375   1.374   3.094   6.156  0.7355  0.0365 -0.6170
  171SAPS    HX19376   1.296   3.162   6.199  1.6391  0.2219  0.8036
  171SAPS    HY19377   1.325   2.996   6.180  1.2165  0.6745  4.0258
  171SAPS   O3119378   1.404   3.125   6.017 -0.1249  0.2239  0.0910
  171SAPS   C3119379   1.467   3.029   5.957  0.0778 -0.0241  0.4418
  171SAPS   O3219380   1.479   2.917   5.993  0.7713 -0.1217  0.1157
  171SAPS   C3219381   1.522   3.086   5.828 -0.3306 -0.0467 -0.2824
  171SAPS   H2X19382   1.443   3.138   5.770 -0.1544 -0.0947 -0.5723
  171SAPS   H2Y19383   1.560   2.997   5.773 -0.8543  0.0201 -0.7600
  171SAPS   C2319384   1.871   3.384   6.141  0.4069  0.3026  0.0491
  171SAPS   H3R19385   1.827   3.365   6.040 -2.2115  1.7337  0.8293
  171SAPS   H3S19386   1.965   3.326   6.146  0.3362  0.1249 -0.5921
  171SAPS   C2419387   1.908   3.534   6.167 -0.2080 -0.3492 -0.3885
  171SAPS   H4R19388   1.924   3.532   6.277 -0.3123 -2.6686 -0.3689
  171SAPS   H4S19389   1.829   3.609   6.146  0.1165  0.3319  0.7596
  171SAPS   C2519390   2.029   3.567   6.092 -0.1681 -0.4553 -1.2668
  171SAPS   H5R19391   2.120   3.596   6.147 -1.4779 -0.2368  0.9190
  171SAPS   C2619392   2.042   3.588   5.966 -0.0851  0.2729  0.2130
  171SAPS   H6R19393   2.142   3.611   5.927 -0.5779  0.0966 -1.2416
  171SAPS   C2719394   1.938   3.572   5.853 -0.2798 -0.0992 -0.7516
  171SAPS   H7R19395   1.927   3.673   5.808  1.0932  0.9323  1.0617
  171SAPS   H7S19396   1.839   3.547   5.897 -1.0797 -0.9601 -2.8973
  171SAPS   C2819397   1.979   3.464   5.762 -0.2222 -0.7273  0.1207
  171SAPS   H8R19398   1.962   3.359   5.790 -0.3069 -1.9884 -3.9929
  171SAPS   C2919399   2.037   3.480   5.643  0.4079  0.2173 -0.2256
  171SAPS   H9R19400   2.075   3.393   5.588  2.5157  1.6982 -1.2176
  171SAPS  C21019401   2.074   3.615   5.589 -0.2961 -0.5945  0.1806
  171SAPS  H10R19402   2.111   3.672   5.677 -1.2278  0.1385  0.1270
  171SAPS  H10S19403   1.981   3.656   5.544  0.2664  0.0207 -0.4566
  171SAPS  C21119404   2.182   3.611   5.479 -0.0215  0.0751 -0.2504
  171SAPS  H11R19405   2.278   3.582   5.525  0.7386 -1.4674 -2.6095
  171SAPS  C21219406   2.185   3.637   5.349  0.2433  0.4378 -0.3981
  171SAPS  H12R19407   2.285   3.621   5.305  0.0073 -2.3668 -0.0931
  171SAPS  C21319408   2.073   3.680   5.259 -0.4822 -0.3929  0.3647
  171SAPS  H13R19409   2.124   3.770   5.218  1.2462 -0.8641  1.3604
  171SAPS  H13S19410   1.988   3.724   5.317 -0.2176  0.2785  0.2552
  171SAPS  C21419411   2.022   3.584   5.156 -0.4305  0.1769  0.0386
  171SAPS  H14R19412   1.924   3.543   5.184 -0.0313 -0.3519  0.7155
  171SAPS  C21519413   2.067   3.560   5.032 -0.4510 -0.4586 -0.6631
  171SAPS  H15R19414   2.015   3.481   4.976  1.4232 -1.3168 -1.2768
  171SAPS  C21619415   2.191   3.616   4.968  0.3465 -0.5331  0.8127
  171SAPS  H16R19416   2.258   3.535   4.930  1.2859  0.5852  0.0165
  171SAPS  H16S19417   2.263   3.669   5.035 -0.0074  1.7530 -0.5143
  171SAPS  C21719418   2.147   3.701   4.844  0.1440  0.2796  0.0809
  171SAPS  H17R19419   2.234   3.752   4.795 -0.5388  4.2179  2.4854
  171SAPS  H17S19420   2.082   3.785   4.876  2.1416  1.0307  2.5298
  171SAPS  C21819421   2.079   3.609   4.738 -0.4762  0.4636  0.3532
  171SAPS  H18R19422   2.015   3.528   4.779 -0.8882 -0.3255 -1.7758
  171SAPS  H18S19423   2.166   3.559   4.692 -1.2167  0.5273 -1.1636
  171SAPS  C21919424   1.985   3.679   4.635  0.3071  0.3216  0.1168
  171SAPS  H19R19425   1.904   3.730   4.693  2.1299  1.1980  2.0143
  171SAPS  H19S19426   1.951   3.599   4.567  0.3212  0.3561  0.0696
  171SAPS  C22019427   2.055   3.786   4.546 -0.3684  0.2612 -0.5174
  171SAPS  H20R19428   1.986   3.851   4.488 -1.1512 -1.2714 -1.3675
  171SAPS  H20S19429   2.126   3.744   4.471 -0.4719 -1.7494  0.4311
  171SAPS  H20T19430   2.097   3.862   4.615 -1.5160  0.9360 -0.5433
  171SAPS   C3319431   1.627   3.200   5.834 -0.1728 -0.3339 -0.0806
  171SAPS   H3X19432   1.721   3.178   5.890 -0.6379 -1.2228  0.3715
  171SAPS   H3Y19433   1.580   3.285   5.887  0.3827 -0.2025  0.2122
  171SAPS   C3419434   1.671   3.256   5.700  0.2715  0.1381  0.3556
  171SAPS   H4X19435   1.739   3.343   5.719 -0.5512  1.2387 -1.4435
  171SAPS   H4Y19436   1.585   3.292   5.640 -0.8231 -1.1606  1.0902
  171SAPS   C3519437   1.740   3.143   5.617  0.2874 -0.0697  0.4320
  171SAPS   H5X19438   1.674   3.055   5.626  0.0833  0.0751  0.3752
  171SAPS   H5Y19439   1.833   3.110   5.667 -0.4989 -2.8246  0.2289
  171SAPS   C3619440   1.762   3.191   5.473 -0.3883  0.0679  0.0264
  171SAPS   H6X19441   1.824   3.117   5.418 -0.7275 -0.8419  0.8479
  171SAPS   H6Y19442   1.812   3.290   5.478 -1.8625  0.8355  0.3163
  171SAPS   C3719443   1.641   3.218   5.387  0.6725 -0.4767  0.2549
  171SAPS   H7X19444   1.590   3.310   5.423  0.6334 -0.2782 -0.2979
  171SAPS   H7Y19445   1.565   3.138   5.383 -0.4654  0.5986 -2.6797
  171SAPS   C3819446   1.678   3.237   5.240 -0.0893 -1.1929  0.1503
  171SAPS   H8X19447   1.738   3.148   5.212  1.0203  0.5750 -3.6447
  171SAPS   H8Y19448   1.743   3.323   5.216 -0.0273 -1.8463 -2.2659
  171SAPS   C3919449   1.560   3.224   5.149 -0.5124  0.4194  1.1627
  171SAPS   H9X19450   1.483   3.303   5.167 -1.1430  0.6019 -1.7453
  171SAPS   H9Y19451   1.515   3.125   5.173 -0.8293  0.3672  0.3913
  171SAPS  C31019452   1.602   3.208   4.999 -0.4126 -0.0276  0.9680
  171SAPS  H10X19453   1.654   3.113   4.974 -0.6876  0.3338 -1.1731
  171SAPS  H10Y19454   1.667   3.289   4.958  0.2736 -0.7151  0.6671
  171SAPS  C31119455   1.473   3.205   4.919  0.0932  0.5732 -0.2032
  171SAPS  H11X19456   1.398   3.275   4.961 -1.3401 -1.9842  1.7955
  171SAPS  H11Y19457   1.424   3.111   4.950  0.0504  0.4645 -0.5866
  171SAPS  C31219458   1.500   3.221   4.763 -0.8794  0.2733 -0.0847
  171SAPS  H12X19459   1.570   3.142   4.728 -0.5669 -0.0709  1.2603
  171SAPS  H12Y19460   1.547   3.322   4.759 -2.4159  1.1222  1.7196
  171SAPS  C31319461   1.373   3.230   4.689  0.2348  0.0821  0.2328
  171SAPS  H13X19462   1.390   3.283   4.593  0.3231  1.9444  1.2357
  171SAPS  H13Y19463   1.303   3.299   4.739  0.0665 -2.0994  3.2566
  171SAPS  C31419464   1.304   3.095   4.664  1.6070  0.0839  0.0564
  171SAPS  H14X19465   1.200   3.117   4.633  0.6003 -2.5213  1.2662
  171SAPS  H14Y19466   1.295   3.040   4.760 -0.8400 -0.7952 -0.6060
  171SAPS  C31519467   1.390   3.013   4.568  0.0784  0.0674 -0.0482
  171SAPS  H15X19468   1.491   2.999   4.612 -0.4073  0.0822  1.0975
  171SAPS  H15Y19469   1.414   3.076   4.479 -0.4874 -0.1681 -0.3709
  171SAPS  C31619470   1.343   2.880   4.531  0.4791 -0.2209 -0.1234
  171SAPS  H16X19471   1.377   2.844   4.431 -1.4222  0.6039 -1.1250
  171SAPS  H16Y19472   1.232   2.869   4.527  0.4211  0.1139  0.4888
  171SAPS  C31719473   1.402   2.779   4.633 -0.2619  0.4555 -0.3484
  171SAPS  H17X19474   1.364   2.819   4.729  1.3147  0.6571  0.2275
  171SAPS  H17Y19475   1.513   2.786   4.637 -0.3300  1.7686 -0.1405
  171SAPS  C31819476   1.357   2.633   4.600 -0.5166 -0.2526 -0.5554
  171SAPS  H18X19477   1.417   2.566   4.665  1.6808  2.1832  0.0935
  171SAPS  H18Y19478   1.376   2.615   4.492 -1.1968 -1.4463 -0.4983
  171SAPS  H18Z19479   1.251   2.619   4.632  0.0711 -0.3301  1.5038
  172SAPS     N19480   2.719   4.272   6.565 -0.5406 -0.1114 -0.1074
  172SAPS   HN119481   2.816   4.288   6.598 -1.0839  1.5347  0.8180
  172SAPS   HN219482   2.710   4.174   6.533  1.6767 -0.7316  1.0133
  172SAPS   HN319483   2.703   4.337   6.486 -0.1957 -0.4964 -0.4970
  172SAPS   C1219484   2.632   4.297   6.682  0.3882 -0.9710  0.3705
  172SAPS  H12A19485   2.537   4.250   6.662  0.9913 -1.1652 -2.3744
  172SAPS   C1319486   2.676   4.256   6.819  0.0519  0.3346  0.4576
  172SAPS  O13A19487   2.787   4.199   6.844  0.3009  0.0682  0.0856
  172SAPS  O13B19488   2.583   4.246   6.909 -0.3930  0.3835  0.2742
  172SAPS   C1119489   2.598   4.450   6.679  0.9536 -0.2377  0.2125
  172SAPS  H11A19490   2.696   4.499   6.696  1.9188 -1.6544 -1.0320
  172SAPS  H11B19491   2.537   4.475   6.768  0.9271 -0.1991  0.1842
  172SAPS     P19492   2.384   4.501   6.536  0.2769  0.5937  0.1505
  172SAPS   O1319493   2.320   4.380   6.588  0.1223  0.1591  0.3642
  172SAPS   O1419494   2.323   4.624   6.602 -0.0224 -0.0737  0.2183
  172SAPS   O1219495   2.540   4.500   6.557 -0.1746  0.1918 -0.8020
  172SAPS   O1119496   2.360   4.515   6.381 -0.5022  0.6353 -0.4611
  172SAPS    C119497   2.442   4.603   6.301  0.3894  0.2856  0.2766
  172SAPS    HA19498   2.548   4.591   6.330 -0.2881 -3.5603  1.7864
  172SAPS    HB19499   2.435   4.561   6.198 -0.9063  1.2415 -0.0520
  172SAPS    C219500   2.378   4.751   6.298 -0.3674 -0.0753 -0.7601
  172SAPS    HS19501   2.391   4.783   6.403 -0.8675  0.0556 -0.7321
  172SAPS   O2119502   2.239   4.738   6.254 -0.1003  0.2008 -0.6288
  172SAPS   C2119503   2.154   4.825   6.298 -0.4270 -0.5594 -0.4485
  172SAPS   O2219504   2.173   4.932   6.349 -0.6072  0.3315 -0.1685
  172SAPS   C2219505   2.008   4.777   6.271 -0.2297  0.1805  0.3964
  172SAPS   H2R19506   2.014   4.674   6.231  2.8453  0.4067  0.0263
  172SAPS   H2S19507   1.955   4.778   6.369 -0.0817 -0.3226  0.4810
  172SAPS    C319508   2.451   4.851   6.209 -0.1264  0.1773  0.4182
  172SAPS    HX19509   2.553   4.856   6.253 -0.3945  0.3617  1.0360
  172SAPS    HY19510   2.398   4.948   6.198 -1.7728 -0.7587 -0.3126
  172SAPS   O3119511   2.468   4.784   6.074 -0.2825  0.2973  0.1532
  172SAPS   C3119512   2.370   4.800   5.985  0.1687  0.0210 -1.0671
  172SAPS   O3219513   2.275   4.878   5.999  0.1511 -0.0373  0.4926
  172SAPS   C3219514   2.394   4.713   5.862  0.4320 -0.5116  0.1231
  172SAPS   H2X19515   2.351   4.615   5.892  1.9173 -1.1351  0.3059
  172SAPS   H2Y19516   2.503   4.690   5.869  0.5275  0.5631  3.2070
  172SAPS   C2319517   1.936   4.870   6.174 -0.4148 -0.9334  0.5366
  172SAPS   H3R19518   1.994   4.889   6.081  0.6310  0.7100  1.4684
  172SAPS   H3S19519   1.950   4.972   6.215  2.3594 -0.7755 -0.5704
  172SAPS   C2419520   1.791   4.841   6.128  0.3622  0.0965 -0.1197
  172SAPS   H4R19521   1.764   4.923   6.059  0.0496 -1.4954 -1.9630
  172SAPS   H4S19522   1.709   4.843   6.204 -0.4178 -1.0573 -0.9062
  172SAPS   C2519523   1.791   4.705   6.062 -0.6026  0.1104  0.8571
  172SAPS   H5R19524   1.803   4.624   6.135 -3.8512  0.6507  2.1752
  172SAPS   C2619525   1.757   4.676   5.937  0.0381 -0.1434  0.1817
  172SAPS   H6R19526   1.772   4.570   5.912  0.8261 -0.3554  1.4500
  172SAPS   C2719527   1.722   4.779   5.835 -0.9344  0.2113  0.3569
  172SAPS   H7R19528   1.656   4.860   5.874  2.4515  3.1810  0.3487
  172SAPS   H7S19529   1.662   4.714   5.768 -1.1001 -0.2567  0.9482
  172SAPS   C2819530   1.839   4.851   5.768 -0.3352 -0.4725 -0.4155
  172SAPS   H8R19531   1.923   4.883   5.832 -0.9888 -0.1710  0.3105
  172SAPS   C2919532   1.855   4.878   5.634  0.2563 -0.5630 -1.0384
  172SAPS   H9R19533   1.942   4.938   5.605 -0.4682  0.6033 -0.8690
  172SAPS  C21019534   1.761   4.842   5.516  0.2812  0.7228  0.4191
  172SAPS  H10R19535   1.776   4.924   5.443  0.9493 -0.0068 -0.2927
  172SAPS  H10S19536   1.656   4.828   5.550  0.4017 -1.6755  0.0088
  172SAPS  C21119537   1.783   4.706   5.454 -0.2043  0.4897  0.1299
  172SAPS  H11R19538   1.816   4.642   5.537  1.1375  2.8247  1.4933
  172SAPS  C21219539   1.771   4.659   5.330 -0.2766  0.2675 -0.2604
  172SAPS  H12R19540   1.797   4.553   5.318 -0.3586  0.2003  0.1462
  172SAPS  C21319541   1.728   4.730   5.206 -0.2942 -0.6694 -0.5828
  172SAPS  H13R19542   1.725   4.839   5.225  2.1623 -0.9458  2.2619
  172SAPS  H13S19543   1.625   4.696   5.185  0.0182 -1.1277 -1.3942
  172SAPS  C21419544   1.822   4.700   5.093 -0.4472 -0.2897 -0.5072
  172SAPS  H14R19545   1.913   4.763   5.090 -0.9349  0.3847 -1.8467
  172SAPS  C21519546   1.792   4.629   4.985 -0.6731 -0.6600 -0.0608
  172SAPS  H15R19547   1.862   4.629   4.900  0.4001  3.7917  0.5468
  172SAPS  C21619548   1.670   4.540   4.970 -0.3472  0.0633 -0.1470
  172SAPS  H16R19549   1.631   4.514   5.071 -0.9482 -0.8785 -0.6002
  172SAPS  H16S19550   1.694   4.435   4.943  0.9105 -0.0906  1.4190
  172SAPS  C21719551   1.548   4.599   4.891 -0.2378 -0.0949 -0.4815
  172SAPS  H17R19552   1.523   4.691   4.949 -1.6985  0.0863 -1.3416
  172SAPS  H17S19553   1.459   4.535   4.908  0.9158 -1.5046  0.4707
  172SAPS  C21819554   1.578   4.624   4.748 -0.3363 -0.3808  0.7969
  172SAPS  H18R19555   1.616   4.532   4.698 -1.8217 -0.0944 -0.9923
  172SAPS  H18S19556   1.660   4.698   4.739  0.3864 -1.3803 -2.2302
  172SAPS  C21919557   1.454   4.669   4.666 -0.3943  0.3200  0.1961
  172SAPS  H19R19558   1.422   4.766   4.709  0.2239  0.3343  0.6352
  172SAPS  H19S19559   1.367   4.603   4.683 -0.0110 -0.3670 -0.4240
  172SAPS  C22019560   1.489   4.671   4.517  1.3407 -0.2077  0.5214
  172SAPS  H20R19561   1.402   4.695   4.452  1.0581 -1.4144  0.4173
  172SAPS  H20S19562   1.538   4.580   4.476  1.1513  0.6935 -1.8323
  172SAPS  H20T19563   1.562   4.753   4.507 -0.1933  1.5982  2.9030
  172SAPS   C3319564   2.338   4.773   5.729  1.0431 -0.6148 -0.1070
  172SAPS   H3X19565   2.237   4.815   5.751  0.3573 -2.3390  0.2228
  172SAPS   H3Y19566   2.326   4.693   5.652 -1.6598  1.8930 -2.5809
  172SAPS   C3419567   2.438   4.870   5.668 -0.0282 -0.2106  0.3185
  172SAPS   H4X19568   2.535   4.816   5.670 -0.9259 -1.9234 -0.2743
  172SAPS   H4Y19569   2.440   4.961   5.731 -2.4470  0.0060  0.1754
  172SAPS   C3519570   2.409   4.932   5.530 -0.4916 -0.4939 -0.4283
  172SAPS   H5X19571   2.495   4.991   5.494 -0.0633 -0.4878  0.5538
  172SAPS   H5Y19572   2.323   5.000   5.547  0.0065  0.3497 -1.2485
  172SAPS   C3619573   2.382   4.830   5.419 -0.3732  0.3995  0.6525
  172SAPS   H6X19574   2.291   4.769   5.438 -1.4631  0.9265 -2.3287
  172SAPS   H6Y19575   2.464   4.757   5.402 -1.3499 -0.4788 -0.4313
  172SAPS   C3719576   2.354   4.889   5.282 -0.1501  0.8639  1.3476
  172SAPS   H7X19577   2.434   4.954   5.241 -0.1083 -0.1830 -0.3017
  172SAPS   H7Y19578   2.264   4.955   5.286 -1.1626 -0.4445  0.8761
  172SAPS   C3819579   2.322   4.779   5.179 -0.5219 -0.3906  0.1213
  172SAPS   H8X19580   2.233   4.721   5.210 -1.0710 -0.1485 -0.9672
  172SAPS   H8Y19581   2.407   4.709   5.165 -1.0678 -0.6539 -2.2432
  172SAPS   C3919582   2.273   4.850   5.050  0.6971 -0.5463 -0.5232
  172SAPS   H9X19583   2.348   4.924   5.016  0.7436 -0.0345  0.6441
  172SAPS   H9Y19584   2.190   4.912   5.090 -1.0584 -2.6862 -0.6775
  172SAPS  C31019585   2.218   4.758   4.941 -0.5235 -0.1870 -0.1808
  172SAPS  H10X19586   2.157   4.687   5.000  0.1341  1.3314  2.5007
  172SAPS  H10Y19587   2.307   4.712   4.893 -0.3469 -1.2422  1.0995
  172SAPS  C31119588   2.125   4.836   4.846  0.0215 -0.0710  0.3077
  172SAPS  H11X19589   2.166   4.935   4.817  0.7783  0.3734  2.6431
  172SAPS  H11Y19590   2.033   4.848   4.907  0.7538  2.0995  1.0745
  172SAPS  C31219591   2.074   4.758   4.731  0.3257  0.3061  0.1371
  172SAPS  H12X19592   1.972   4.791   4.703  0.1289  0.1801  0.7035
  172SAPS  H12Y19593   2.058   4.657   4.773  0.0656 -0.9162 -2.6531
  172SAPS  C31319594   2.189   4.752   4.625 -0.5677  1.3498 -0.1115
  172SAPS  H13X19595   2.287   4.739   4.677  0.2890 -1.3920 -2.1403
  172SAPS  H13Y19596   2.176   4.857   4.593 -0.3250  1.4711  0.1832
  172SAPS  C31419597   2.184   4.655   4.505  0.8031 -0.2319  0.4852
  172SAPS  H14X19598   2.283   4.653   4.456  1.1576 -0.2694  1.1847
  172SAPS  H14Y19599   2.112   4.706   4.438  1.5894  0.5541  0.2195
  172SAPS  C31519600   2.141   4.512   4.519 -0.1985  0.1617 -0.1480
  172SAPS  H15X19601   2.120   4.459   4.424  2.4144  1.2457 -1.4120
  172SAPS  H15Y19602   2.044   4.519   4.574  0.1359 -0.5257  0.5531
  172SAPS  C31619603   2.229   4.426   4.613 -0.5699  0.8882  0.6365
  172SAPS  H16X19604   2.325   4.411   4.560 -1.9509 -0.6948 -1.6000
  172SAPS  H16Y19605   2.246   4.491   4.702  1.8243 -0.6442  1.3686
  172SAPS  C31719606   2.172   4.293   4.659  0.2259 -0.6989  0.1719
  172SAPS  H17X19607   2.163   4.230   4.568  2.2249  1.1385 -1.4191
  172SAPS  H17Y19608   2.073   4.313   4.705  0.1013 -0.3692 -0.2344
  172SAPS  C31819609   2.254   4.211   4.759  0.2845 -0.3949 -0.0661
  172SAPS  H18X19610   2.183   4.133   4.795 -0.1807  0.8828  1.9651
  172SAPS  H18Y19611   2.283   4.276   4.845  0.1771  0.3900 -0.6125
  172SAPS  H18Z19612   2.347   4.177   4.710  1.9022  1.7245  1.3540
  173SAPS     N19613   1.905   1.059   2.710  0.3997 -0.2961  0.3350
  173SAPS   HN119614   1.818   1.111   2.731 -0.2983 -1.5524  0.6497
  173SAPS   HN219615   1.878   0.958   2.707  0.0916 -0.3298  2.6411
  173SAPS   HN319616   1.977   1.074   2.782 -0.0554 -0.2324  0.7791
  173SAPS   C1219617   1.940   1.101   2.567 -0.5198 -1.2826  0.9770
  173SAPS  H12A19618   2.033   1.053   2.541  0.4975  1.0430  0.0312
  173SAPS   C1319619   1.845   1.050   2.455 -0.2301 -0.6778 -0.3636
  173SAPS  O13A19620   1.765   0.959   2.485 -0.0840 -0.3409  0.2220
  173SAPS  O13B19621   1.854   1.097   2.337  0.1251 -0.0958 -0.9857
  173SAPS   C1119622   1.957   1.257   2.565 -0.0178 -0.3505  0.6234
  173SAPS  H11A19623   1.861   1.313   2.567 -1.1939 -2.1126 -1.6188
  173SAPS  H11B19624   1.997   1.274   2.463 -0.6371  0.8578  0.5613
  173SAPS     P19625   2.192   1.337   2.608  0.1337 -0.0536  0.7577
  173SAPS   O1319626   2.247   1.228   2.524 -0.6360 -0.1992  0.1499
  173SAPS   O1419627   2.174   1.468   2.536  0.4292 -0.2352 -0.0812
  173SAPS   O1219628   2.048   1.301   2.665 -0.0078  0.6044  0.1811
  173SAPS   O1119629   2.280   1.354   2.733  0.9492 -0.4460  0.3426
  173SAPS    C119630   2.239   1.344   2.869  0.8393  0.5458  0.4954
  173SAPS    HA19631   2.147   1.405   2.881  0.4095 -0.0392  0.2301
  173SAPS    HB19632   2.216   1.237   2.890  0.6667  0.6004  0.5845
  173SAPS    C219633   2.360   1.372   2.970 -0.3268 -0.8326  0.5816
  173SAPS    HS19634   2.332   1.346   3.074 -2.9524  1.2940  0.4988
  173SAPS   O2119635   2.401   1.515   2.967 -0.5829  0.1684  0.6878
  173SAPS   C2119636   2.344   1.585   3.059  0.0488 -0.1284  0.7397
  173SAPS   O2219637   2.256   1.552   3.137  0.2617 -0.3538 -0.0550
  173SAPS   C2219638   2.416   1.723   3.061 -0.1533 -0.2623 -0.7046
  173SAPS   H2R19639   2.479   1.738   2.971 -1.4782 -1.2250 -1.8253
  173SAPS   H2S19640   2.335   1.798   3.051  1.7342  1.9554 -0.1716
  173SAPS    C319641   2.478   1.280   2.924 -0.3220 -0.0864 -0.3665
  173SAPS    HX19642   2.523   1.321   2.831  2.2005  1.0729  1.2406
  173SAPS    HY19643   2.436   1.180   2.899 -3.1595  0.3350  2.1790
  173SAPS   O3119644   2.584   1.270   3.022  0.3047 -0.7413 -0.1041
  173SAPS   C3119645   2.692   1.339   3.008  0.0068 -0.9115 -0.7381
  173SAPS   O3219646   2.724   1.420   2.918  0.2744  0.1382  0.1856
  173SAPS   C3219647   2.790   1.303   3.124 -0.6094 -0.5237  0.6389
  173SAPS   H2X19648   2.895   1.333   3.103 -0.6326 -0.8400  0.0531
  173SAPS   H2Y19649   2.790   1.192   3.118 -2.8969 -0.5015 -1.3651
  173SAPS   C2319650   2.507   1.730   3.186 -0.0070 -0.5647 -0.4538
  173SAPS   H3R19651   2.556   1.828   3.168 -2.3840  0.3909 -2.2931
  173SAPS   H3S19652   2.585   1.652   3.183 -0.0981 -0.6530 -3.4609
  173SAPS   C2419653   2.439   1.742   3.333 -0.5132  0.1466 -0.5709
  173SAPS   H4R19654   2.404   1.643   3.370  0.2130 -0.1743 -0.7306
  173SAPS   H4S19655   2.361   1.821   3.319 -0.7898  0.0520  0.3133
  173SAPS   C2519656   2.539   1.808   3.425 -0.3074 -0.4339 -0.2337
  173SAPS   H5R19657   2.612   1.871   3.372 -1.3985  1.3940  0.3704
  173SAPS   C2619658   2.529   1.804   3.562  0.0578  0.4363  0.2189
  173SAPS   H6R19659   2.603   1.869   3.611 -0.7294 -0.1988  2.3638
  173SAPS   C2719660   2.430   1.738   3.650  0.3349 -0.0499  0.2155
  173SAPS   H7R19661   2.330   1.748   3.602 -0.9777 -0.4131  2.7244
  173SAPS   H7S19662   2.419   1.788   3.748 -0.6081 -1.9862  1.1702
  173SAPS   C2819663   2.456   1.592   3.670  0.0920  0.3919 -0.3941
  173SAPS   H8R19664   2.404   1.532   3.594 -0.4581  1.7826 -1.1711
  173SAPS   C2919665   2.556   1.548   3.750  0.7314 -1.4098 -0.4022
  173SAPS   H9R19666   2.579   1.441   3.746  0.9699 -1.3091 -2.4234
  173SAPS  C21019667   2.645   1.629   3.844  0.3313 -0.4366 -0.3953
  173SAPS  H10R19668   2.598   1.726   3.872 -1.4045 -0.6628 -2.2526
  173SAPS  H10S19669   2.740   1.648   3.790  0.5769  1.4609  0.6190
  173SAPS  C21119670   2.673   1.558   3.975  0.0040 -0.2412  0.5629
  173SAPS  H11R19671   2.775   1.519   3.984  0.5011  0.6172 -1.0105
  173SAPS  C21219672   2.590   1.556   4.083 -0.4768 -1.0223  0.0560
  173SAPS  H12R19673   2.626   1.499   4.170 -0.7603 -0.9934  0.1934
  173SAPS  C21319674   2.451   1.619   4.087 -0.0780 -0.0371  0.6105
  173SAPS  H13R19675   2.368   1.547   4.071  0.2113 -0.0024 -1.2119
  173SAPS  H13S19676   2.434   1.679   3.995 -1.6060 -3.0428 -1.2257
  173SAPS  C21419677   2.412   1.689   4.216 -0.0102 -0.0701 -0.0042
  173SAPS  H14R19678   2.413   1.799   4.219  1.4963 -0.0640  0.3340
  173SAPS  C21519679   2.390   1.630   4.336  0.4462  0.2851  0.1299
  173SAPS  H15R19680   2.354   1.703   4.411  0.3739  1.3441 -0.8941
  173SAPS  C21619681   2.399   1.487   4.378  0.7283  0.1422  0.2088
  173SAPS  H16R19682   2.489   1.471   4.441  0.9178 -1.4451 -0.3970
  173SAPS  H16S19683   2.397   1.419   4.290  0.7671  0.0089  0.3100
  173SAPS  C21719684   2.275   1.455   4.466 -0.4870  0.5825 -0.3198
  173SAPS  H17R19685   2.248   1.347   4.467 -2.0995  0.9521  1.3989
  173SAPS  H17S19686   2.183   1.493   4.418 -0.0725 -0.2357 -1.8200
  173SAPS  C21819687   2.290   1.525   4.611  0.2118  0.7087 -0.1385
  173SAPS  H18R19688   2.296   1.636   4.602  0.5961  1.1347  3.6186
  173SAPS  H18S19689   2.388   1.491   4.651  0.0306 -1.0031 -1.0827
  173SAPS  C21919690   2.173   1.486   4.711 -0.5172  0.2362  0.3465
  173SAPS  H19R19691   2.146   1.379   4.700 -2.1831  0.7828 -1.7235
  173SAPS  H19S19692   2.080   1.530   4.670 -1.1260 -1.7513 -0.5516
  173SAPS  C22019693   2.185   1.536   4.855  0.5107 -0.0752  0.2518
  173SAPS  H20R19694   2.086   1.532   4.904  0.3123 -1.2133 -0.2221
  173SAPS  H20S19695   2.221   1.641   4.866  0.2128  0.1222 -0.6088
  173SAPS  H20T19696   2.254   1.477   4.919 -0.7844  0.8847  2.7164
  173SAPS   C3319697   2.749   1.339   3.266  1.1304 -0.0232 -0.1998
  173SAPS   H3X19698   2.651   1.293   3.289  0.9344  0.3354 -0.3205
  173SAPS   H3Y19699   2.740   1.448   3.285  0.7615 -0.1999  0.7060
  173SAPS   C3419700   2.863   1.292   3.358 -0.1359  0.4326  0.2069
  173SAPS   H4X19701   2.963   1.337   3.340 -0.7051  1.6496 -0.0145
  173SAPS   H4Y19702   2.875   1.182   3.354  0.6479  0.5457 -1.1030
  173SAPS   C3519703   2.836   1.329   3.506  0.3893 -0.1659 -0.4244
  173SAPS   H5X19704   2.734   1.312   3.546  1.4259 -0.6600  2.2150
  173SAPS   H5Y19705   2.843   1.439   3.512 -1.1733 -0.1259  2.6880
  173SAPS   C3619706   2.943   1.276   3.611 -0.4247  0.2969  0.6267
  173SAPS   H6X19707   3.036   1.337   3.606  0.2505 -0.7323  0.4598
  173SAPS   H6Y19708   2.966   1.170   3.587  0.7364  0.3727  1.3492
  173SAPS   C3719709   2.883   1.268   3.754 -0.0951 -0.0656  0.2341
  173SAPS   H7X19710   2.792   1.204   3.743  0.4208 -0.5597 -1.4201
  173SAPS   H7Y19711   2.849   1.369   3.787 -0.9316 -0.6149  1.1074
  173SAPS   C3819712   2.983   1.209   3.845  0.2174 -0.0400 -0.0753
  173SAPS   H8X19713   3.081   1.255   3.818  0.1676 -0.0074 -0.1995
  173SAPS   H8Y19714   2.989   1.098   3.833  0.3426 -0.0745  0.2974
  173SAPS   C3919715   2.944   1.251   3.986 -0.7589  0.0144 -0.9466
  173SAPS   H9X19716   2.861   1.189   4.026 -2.1408  0.9732 -2.1925
  173SAPS   H9Y19717   2.903   1.354   3.989 -0.3089  0.1697  0.0930
  173SAPS  C31019718   3.056   1.253   4.089 -0.6705  0.0646  0.1110
  173SAPS  H10X19719   3.136   1.319   4.048  0.1504 -1.9591 -1.7170
  173SAPS  H10Y19720   3.108   1.155   4.097  1.5004  1.1791  0.5041
  173SAPS  C31119721   3.014   1.307   4.228 -0.8364  0.3076 -0.1961
  173SAPS  H11X19722   2.985   1.414   4.222 -1.2111  0.1706 -0.8992
  173SAPS  H11Y19723   3.097   1.300   4.302 -0.7752 -0.6214 -0.3465
  173SAPS  C31219724   2.889   1.240   4.284  0.6387  0.4390 -0.8102
  173SAPS  H12X19725   2.909   1.131   4.293  1.2623  0.6757  1.2423
  173SAPS  H12Y19726   2.801   1.271   4.224  1.0100  1.7723 -0.7010
  173SAPS  C31319727   2.862   1.294   4.426  0.4687 -0.4722 -0.0066
  173SAPS  H13X19728   2.756   1.287   4.456  1.4074 -1.4551  3.5182
  173SAPS  H13Y19729   2.879   1.404   4.427 -0.8331 -0.1971 -2.0849
  173SAPS  C31419730   2.931   1.217   4.539 -0.2332  0.0436  0.3151
  173SAPS  H14X19731   3.042   1.211   4.539 -0.1678  0.3741  2.7139
  173SAPS  H14Y19732   2.885   1.116   4.538  0.9787 -0.5400  1.0770
  173SAPS  C31519733   2.901   1.292   4.674  0.4939 -0.0304 -0.5397
  173SAPS  H15X19734   2.797   1.266   4.704  0.6151  0.0154 -0.0734
  173SAPS  H15Y19735   2.921   1.400   4.657 -0.2226  0.5672  1.9824
  173SAPS  C31619736   2.993   1.243   4.797 -0.0112 -0.2217  0.5386
  173SAPS  H16X19737   3.096   1.270   4.767 -0.1585 -2.9529 -2.9900
  173SAPS  H16Y19738   2.998   1.132   4.797  0.3161 -0.2812 -2.7815
  173SAPS  C31719739   2.955   1.310   4.936  0.7124  1.0871  0.0602
  173SAPS  H17X19740   3.033   1.285   5.011 -2.1982 -2.1462  2.2566
  173SAPS  H17Y19741   2.863   1.257   4.968  0.0805  0.7095 -2.2083
  173SAPS  C31819742   2.909   1.449   4.935 -0.3959 -0.2782 -0.2640
  173SAPS  H18X19743   2.813   1.483   4.890 -0.1403  0.7626 -0.0620
  173SAPS  H18Y19744   2.988   1.512   4.888 -1.8689  2.6493  0.9009
  173SAPS  H18Z19745   2.901   1.478   5.042 -0.9495  0.3725 -0.4713
  174SAPS     N19746   5.794   5.685   2.311 -0.0280 -0.1527  0.1239
  174SAPS   HN119747   5.746   5.761   2.364 -2.0128  0.5207 -2.4384
  174SAPS   HN219748   5.783   5.598   2.366  3.0099  0.7966  2.4847
  174SAPS   HN319749   5.896   5.699   2.303  0.3088 -0.4963  2.7827
  174SAPS   C1219750   5.725   5.668   2.183  0.2900 -0.7996 -0.0285
  174SAPS  H12A19751   5.757   5.577   2.136  0.9506 -1.3079  1.3505
  174SAPS   C1319752   5.564   5.670   2.197  0.7635 -0.0543  0.4124
  174SAPS  O13A19753   5.506   5.682   2.308 -0.4357 -0.0218 -0.4125
  174SAPS  O13B19754   5.499   5.682   2.089  0.6027 -0.0594 -0.5533
  174SAPS   C1119755   5.770   5.803   2.099 -0.0837 -0.1583 -1.0345
  174SAPS  H11A19756   5.731   5.882   2.166  0.0207 -1.2896  0.4263
  174SAPS  H11B19757   5.720   5.803   2.000  0.2392 -2.3285 -1.2511
  174SAPS     P19758   5.991   5.953   2.093 -0.2797  0.2548 -0.0385
  174SAPS   O1319759   6.096   5.960   1.989  0.0763 -0.6431  0.3438
  174SAPS   O1419760   5.891   6.061   2.105  0.0374 -0.3806  0.3752
  174SAPS   O1219761   5.914   5.811   2.080  0.9769  0.5669  0.3927
  174SAPS   O1119762   6.056   5.945   2.237  0.4319 -0.3188 -0.9862
  174SAPS    C119763   6.017   6.030   2.341 -0.2722  0.2177  0.0712
  174SAPS    HA19764   6.060   6.130   2.320 -1.8187  1.1568  1.1822
  174SAPS    HB19765   5.910   6.061   2.342 -0.3793 -0.1497  0.8781
  174SAPS    C219766   6.073   5.987   2.476 -0.2613  0.6922 -0.3784
  174SAPS    HS19767   6.184   5.978   2.472 -0.3630 -0.3710 -0.8442
  174SAPS   O2119768   6.012   5.864   2.520  0.3715  0.1300  0.3251
  174SAPS   C2119769   6.085   5.780   2.592 -0.3544 -0.6786 -0.9064
  174SAPS   O2219770   6.206   5.792   2.618  0.2927  0.2802 -0.4151
  174SAPS   C2219771   6.003   5.653   2.617 -0.3491 -0.2205 -0.1924
  174SAPS   H2R19772   5.969   5.611   2.520 -1.0764 -2.1229  0.8423
  174SAPS   H2S19773   6.066   5.570   2.657  0.0577  1.0634  1.9517
  174SAPS    C319774   6.034   6.091   2.582  0.0518  0.2204  0.1476
  174SAPS    HX19775   5.925   6.079   2.594 -0.6146  3.0858 -2.0059
  174SAPS    HY19776   6.056   6.190   2.536 -0.9114  0.3624 -0.0122
  174SAPS   O3119777   6.120   6.068   2.698  0.0155 -0.0230  0.0482
  174SAPS   C3119778   6.254   6.111   2.684  0.2311 -0.1622 -0.7284
  174SAPS   O3219779   6.297   6.191   2.603 -0.5331 -0.4483  0.0600
  174SAPS   C3219780   6.339   6.025   2.779 -0.2755  0.6336 -0.1482
  174SAPS   H2X19781   6.355   5.927   2.729 -0.2501  0.4919  0.1357
  174SAPS   H2Y19782   6.288   6.005   2.875 -1.0216  0.1260 -0.6423
  174SAPS   C2319783   5.872   5.688   2.699 -0.9547  0.2626  0.2100
  174SAPS   H3R19784   5.793   5.611   2.684 -1.0063  0.5932 -1.4213
  174SAPS   H3S19785   5.816   5.774   2.657  0.4323  1.4325  0.6983
  174SAPS   C2419786   5.907   5.718   2.848 -0.5567  0.6059  0.0488
  174SAPS   H4R19787   5.988   5.792   2.830 -0.3196 -0.1098 -2.0221
  174SAPS   H4S19788   5.935   5.621   2.895 -2.0410  1.8516  3.8852
  174SAPS   C2519789   5.784   5.768   2.916  0.2838 -0.0659 -0.3928
  174SAPS   H5R19790   5.729   5.849   2.867 -2.0055 -1.5352 -0.3990
  174SAPS   C2619791   5.731   5.732   3.034  0.0592 -0.4662 -0.6635
  174SAPS   H6R19792   5.630   5.772   3.052  0.1170 -1.3146  2.1029
  174SAPS   C2719793   5.793   5.629   3.129 -0.0818  0.1192 -0.4167
  174SAPS   H7R19794   5.902   5.647   3.139 -0.4834  1.9093  1.3838
  174SAPS   H7S19795   5.789   5.528   3.082  1.3085  0.8295 -2.1624
  174SAPS   C2819796   5.733   5.645   3.262  0.3838 -0.4933  0.8495
  174SAPS   H8R19797   5.732   5.748   3.301 -2.6437  0.1591 -0.5840
  174SAPS   C2919798   5.694   5.548   3.340  0.0049 -0.4480  0.4116
  174SAPS   H9R19799   5.655   5.570   3.441  1.9655 -0.9558  1.3377
  174SAPS  C21019800   5.714   5.396   3.321 -0.1260  0.7227 -0.3675
  174SAPS  H10R19801   5.771   5.386   3.226  0.3762 -1.1169  0.0960
  174SAPS  H10S19802   5.613   5.352   3.311  0.7814 -1.3523 -0.8707
  174SAPS  C21119803   5.782   5.317   3.434 -0.1609 -0.2136 -0.1743
  174SAPS  H11R19804   5.861   5.248   3.402  0.4703 -0.4124  1.6923
  174SAPS  C21219805   5.744   5.310   3.562 -0.2540  0.6294 -0.1557
  174SAPS  H12R19806   5.810   5.252   3.628  1.1607  1.1258 -1.0888
  174SAPS  C21319807   5.626   5.385   3.619  0.1934  0.3121  0.2139
  174SAPS  H13R19808   5.565   5.317   3.682  0.2023  0.2106  0.1138
  174SAPS  H13S19809   5.553   5.403   3.537 -0.9341  0.2547  1.1636
  174SAPS  C21419810   5.656   5.496   3.704 -0.0868 -0.0291 -0.6685
  174SAPS  H14R19811   5.756   5.540   3.695  1.1889 -2.8630 -1.5811
  174SAPS  C21519812   5.574   5.545   3.806 -0.1439  0.1423  0.0331
  174SAPS  H15R19813   5.615   5.630   3.864 -0.0741 -0.3424  0.6977
  174SAPS  C21619814   5.442   5.489   3.854  0.0622 -0.4428  0.5783
  174SAPS  H16R19815   5.392   5.418   3.785 -1.0022  2.6747 -2.1429
  174SAPS  H16S19816   5.366   5.570   3.857 -0.6485 -1.1267  1.4273
  174SAPS  C21719817   5.443   5.426   3.989 -0.7851  0.1507 -0.6456
  174SAPS  H17R19818   5.339   5.388   4.003 -1.2589  0.5643 -2.6749
  174SAPS  H17S19819   5.468   5.502   4.066  0.5785  0.2937 -1.2123
  174SAPS  C21819820   5.543   5.306   3.996 -0.7948 -0.0226  0.0207
  174SAPS  H18R19821   5.644   5.342   3.968 -0.6672 -0.3905  0.0017
  174SAPS  H18S19822   5.527   5.222   3.925 -0.0509 -1.3166  1.3178
  174SAPS  C21919823   5.551   5.249   4.136 -0.2737 -0.0030  0.1248
  174SAPS  H19R19824   5.447   5.250   4.176  0.1379  0.2483  1.2240
  174SAPS  H19S19825   5.618   5.317   4.193 -0.0631  0.0606 -0.1936
  174SAPS  C22019826   5.620   5.109   4.148  0.3751  0.0219  0.5029
  174SAPS  H20R19827   5.729   5.120   4.133  0.0457  0.0704 -2.5690
  174SAPS  H20S19828   5.569   5.041   4.076  0.1118  0.7328  0.0005
  174SAPS  H20T19829   5.599   5.061   4.246  0.5350  0.3560  0.6985
  174SAPS   C3319830   6.483   6.080   2.804  0.0149  0.1419  0.1753
  174SAPS   H3X19831   6.535   6.097   2.708  2.0874  1.5030  1.4648
  174SAPS   H3Y19832   6.536   5.997   2.857  1.0475  2.2657  2.6807
  174SAPS   C3419833   6.483   6.196   2.901  0.1379  0.2109  0.0232
  174SAPS   H4X19834   6.423   6.286   2.875  0.2216  1.5739  3.8074
  174SAPS   H4Y19835   6.585   6.238   2.916  0.4113 -0.5595  0.3901
  174SAPS   C3519836   6.441   6.171   3.053 -0.3385  0.8134  0.3075
  174SAPS   H5X19837   6.510   6.090   3.086 -1.5795 -0.5799 -0.3755
  174SAPS   H5Y19838   6.333   6.146   3.062 -0.1027 -0.0137  0.9469
  174SAPS   C3619839   6.452   6.298   3.139 -0.4687  0.1876  0.3480
  174SAPS   H6X19840   6.395   6.379   3.090 -0.7137 -0.0779  0.1906
  174SAPS   H6Y19841   6.560   6.320   3.151  0.1035 -1.5497 -1.1230
  174SAPS   C3719842   6.391   6.291   3.278 -0.0990  0.2223 -0.4636
  174SAPS   H7X19843   6.280   6.297   3.271 -0.2530 -2.8145 -2.6163
  174SAPS   H7Y19844   6.420   6.386   3.327 -0.8960  0.7001 -0.8858
  174SAPS   C3819845   6.447   6.184   3.375  0.1104 -0.0024  0.7694
  174SAPS   H8X19846   6.553   6.207   3.395  0.1589  1.4711 -0.8703
  174SAPS   H8Y19847   6.423   6.082   3.337 -0.5451 -0.7305  2.9715
  174SAPS   C3919848   6.370   6.174   3.512 -0.3117 -0.4096 -0.0047
  174SAPS   H9X19849   6.259   6.174   3.504 -0.6303  2.2884  2.4989
  174SAPS   H9Y19850   6.392   6.269   3.565  2.2135  0.7707 -2.8396
  174SAPS  C31019851   6.421   6.056   3.589 -0.1713 -0.2996  0.2980
  174SAPS  H10X19852   6.529   6.069   3.610 -0.0566 -0.3430 -0.2435
  174SAPS  H10Y19853   6.406   5.963   3.530 -1.2868 -0.9710  1.5658
  174SAPS  C31119854   6.337   6.025   3.719  0.1165  0.4202 -0.4463
  174SAPS  H11X19855   6.378   5.929   3.756 -0.4137  1.4262  3.1481
  174SAPS  H11Y19856   6.236   5.990   3.689 -0.7757 -0.4296  3.0534
  174SAPS  C31219857   6.331   6.140   3.815 -0.0623  0.1011  0.3962
  174SAPS  H12X19858   6.275   6.219   3.761  0.0943 -0.6447 -0.8927
  174SAPS  H12Y19859   6.433   6.174   3.843 -0.3376  0.2870  1.2021
  174SAPS  C31319860   6.267   6.096   3.949  0.0272 -0.5474  0.4367
  174SAPS  H13X19861   6.161   6.065   3.940  0.7617 -3.3290  0.3137
  174SAPS  H13Y19862   6.271   6.184   4.016  0.4708  1.2120 -1.7658
  174SAPS  C31419863   6.344   5.984   4.015  0.4402 -0.7509  0.3012
  174SAPS  H14X19864   6.440   6.025   4.052  0.5547  2.5109 -2.9989
  174SAPS  H14Y19865   6.371   5.900   3.947  1.2221  0.2174 -0.6216
  174SAPS  C31519866   6.255   5.927   4.130  0.0406 -0.3221 -0.3529
  174SAPS  H15X19867   6.166   5.877   4.087 -0.5476 -0.6227  1.1749
  174SAPS  H15Y19868   6.209   6.016   4.177 -0.9610 -0.1182 -1.6583
  174SAPS  C31619869   6.325   5.832   4.228 -0.3928 -0.4702 -0.6216
  174SAPS  H16X19870   6.406   5.882   4.284  0.1178 -0.7164 -1.1246
  174SAPS  H16Y19871   6.368   5.755   4.160 -1.9373  0.3465 -2.6633
  174SAPS  C31719872   6.227   5.772   4.331  0.0962 -0.3233  0.5139
  174SAPS  H17X19873   6.288   5.709   4.399  2.6630  2.3702  0.9057
  174SAPS  H17Y19874   6.150   5.709   4.282  0.6986 -1.6721  1.2403
  174SAPS  C31819875   6.159   5.869   4.421 -0.2821  0.1350 -0.4129
  174SAPS  H18X19876   6.077   5.820   4.478  0.1979 -0.3537 -0.1334
  174SAPS  H18Y19877   6.111   5.951   4.363  0.7879  1.8588  1.0182
  174SAPS  H18Z19878   6.230   5.893   4.503 -0.4992  1.6040 -0.6292
  175SAPS     N19879   1.636   4.416   1.957 -0.1248  0.0810 -0.2208
  175SAPS   HN119880   1.566   4.387   1.886 -0.3607  0.8598 -0.3102
  175SAPS   HN219881   1.713   4.345   1.963  0.3594  0.3387 -2.3701
  175SAPS   HN319882   1.582   4.440   2.042 -0.6297  0.6334 -0.6911
  175SAPS   C1219883   1.698   4.542   1.897 -0.7085 -0.2257  1.2843
  175SAPS  H12A19884   1.753   4.506   1.812  1.6429 -0.1365  2.6810
  175SAPS   C1319885   1.596   4.651   1.849 -0.3407 -0.3024 -0.6016
  175SAPS  O13A19886   1.474   4.632   1.875 -0.3045 -0.1581 -0.2577
  175SAPS  O13B19887   1.629   4.730   1.762  0.0355  0.1875  0.2372
  175SAPS   C1119888   1.809   4.603   1.989 -0.2232 -0.4427  0.7681
  175SAPS  H11A19889   1.759   4.652   2.075  1.7042  4.9202 -0.7616
  175SAPS  H11B19890   1.865   4.684   1.937  1.0913 -0.6556  1.8055
  175SAPS     P19891   2.005   4.553   2.153  0.9592  0.2683  0.1208
  175SAPS   O1319892   2.144   4.520   2.114  0.2920  0.4668  1.0902
  175SAPS   O1419893   1.976   4.691   2.181 -0.0829 -0.9076 -0.2624
  175SAPS   O1219894   1.907   4.503   2.043  0.3859 -0.1865 -0.8421
  175SAPS   O1119895   1.971   4.470   2.292  0.0965  0.3355 -0.1939
  175SAPS    C119896   1.844   4.468   2.346  0.0102 -0.4959  0.4872
  175SAPS    HA19897   1.767   4.521   2.286  0.2028 -0.6398  0.1125
  175SAPS    HB19898   1.808   4.363   2.348 -1.6259 -0.0314 -1.4416
  175SAPS    C219899   1.857   4.525   2.493  0.0995 -0.0635  0.8686
  175SAPS    HS19900   1.859   4.636   2.488 -1.9154 -0.0367 -1.2173
  175SAPS   O2119901   1.973   4.475   2.564  0.0236  0.5695  0.1669
  175SAPS   C2119902   2.046   4.557   2.626  0.0573 -0.6026  0.3132
  175SAPS   O2219903   2.024   4.678   2.632 -0.7483  0.4650 -0.2861
  175SAPS   C2219904   2.175   4.488   2.687  0.5050 -0.8750  0.4176
  175SAPS   H2R19905   2.164   4.379   2.671  0.8730 -0.9843  0.8664
  175SAPS   H2S19906   2.256   4.525   2.620  0.9148 -1.9282  0.3169
  175SAPS    C319907   1.734   4.481   2.570  0.7128  0.6627 -1.0523
  175SAPS    HX19908   1.760   4.374   2.586  0.7500  0.8931  0.6887
  175SAPS    HY19909   1.635   4.483   2.522  0.0777  0.8883  0.2263
  175SAPS   O3119910   1.726   4.543   2.698 -0.4160 -0.0292 -0.6081
  175SAPS   C3119911   1.666   4.658   2.696  0.0562 -0.1126  1.3543
  175SAPS   O3219912   1.604   4.705   2.602  0.2375  0.0706 -0.0820
  175SAPS   C3219913   1.698   4.728   2.824  0.5114 -0.1314  0.5729
  175SAPS   H2X19914   1.756   4.657   2.886 -0.1751 -1.9645 -0.7787
  175SAPS   H2Y19915   1.608   4.740   2.889  0.9501  0.0940  1.1502
  175SAPS   C2319916   2.201   4.527   2.841 -0.4632 -0.2665  0.7716
  175SAPS   H3R19917   2.209   4.638   2.834  3.9151 -0.3810  1.1225
  175SAPS   H3S19918   2.291   4.498   2.899  2.2835  1.9635 -2.0130
  175SAPS   C2419919   2.078   4.480   2.919  0.3941 -0.3950  0.4304
  175SAPS   H4R19920   2.095   4.375   2.951  0.7488  0.1737  2.2169
  175SAPS   H4S19921   1.982   4.492   2.865  0.1914 -1.6220  0.4922
  175SAPS   C2519922   2.063   4.553   3.050  0.4862 -0.5138 -0.2130
  175SAPS   H5R19923   1.996   4.640   3.039 -0.9980 -1.7119 -1.0754
  175SAPS   C2619924   2.095   4.518   3.172 -1.0210 -0.4200 -0.1957
  175SAPS   H6R19925   2.070   4.595   3.247 -0.4207  0.3340 -0.7457
  175SAPS   C2719926   2.184   4.401   3.212 -0.7275 -0.8809  0.2124
  175SAPS   H7R19927   2.178   4.316   3.141 -0.2256 -2.7192  2.2507
  175SAPS   H7S19928   2.143   4.361   3.307 -1.4442 -0.8718 -0.0858
  175SAPS   C2819929   2.326   4.445   3.248  0.3033 -0.5246  0.1915
  175SAPS   H8R19930   2.396   4.386   3.187 -0.2614 -0.6941 -0.2981
  175SAPS   C2919931   2.374   4.493   3.365 -0.9142 -0.4337  0.7334
  175SAPS   H9R19932   2.477   4.524   3.387 -0.8514  1.1633 -1.4319
  175SAPS  C21019933   2.289   4.541   3.479  0.0877 -0.2946  0.3875
  175SAPS  H10R19934   2.304   4.475   3.567 -1.6551  1.5009  2.1492
  175SAPS  H10S19935   2.181   4.526   3.456  0.3303  0.9507 -1.7787
  175SAPS  C21119936   2.296   4.681   3.528  0.9191 -0.8344 -0.2387
  175SAPS  H11R19937   2.294   4.754   3.445  1.5437 -0.6796 -0.1214
  175SAPS  C21219938   2.320   4.722   3.647  0.2713 -0.4906 -0.6857
  175SAPS  H12R19939   2.331   4.828   3.673  0.3402 -0.1660 -1.9714
  175SAPS  C21319940   2.332   4.637   3.777  0.1304 -0.0599  1.0310
  175SAPS  H13R19941   2.419   4.568   3.780  0.6740  0.6479  1.7128
  175SAPS  H13S19942   2.243   4.570   3.776 -0.6998  1.0049  1.0677
  175SAPS  C21419943   2.328   4.725   3.900  0.4501 -0.0942 -0.4546
  175SAPS  H14R19944   2.398   4.809   3.885 -1.9518  1.7479 -2.2042
  175SAPS  C21519945   2.250   4.719   4.008 -0.6997 -0.2749  0.1835
  175SAPS  H15R19946   2.279   4.765   4.104  0.9483 -0.6430 -0.1044
  175SAPS  C21619947   2.129   4.623   4.030  0.0112  0.3540  1.1342
  175SAPS  H16R19948   2.118   4.532   3.967 -0.8401  0.2604  1.4092
  175SAPS  H16S19949   2.039   4.686   4.019 -0.1036 -0.0149 -0.2726
  175SAPS  C21719950   2.124   4.557   4.167  0.1835 -0.0672 -0.6638
  175SAPS  H17R19951   2.016   4.550   4.189  0.1209 -1.8248 -1.4395
  175SAPS  H17S19952   2.162   4.622   4.249 -0.5435  0.9665 -1.1318
  175SAPS  C21819953   2.189   4.418   4.169 -0.4104  0.6966 -0.2089
  175SAPS  H18R19954   2.153   4.360   4.082 -0.5814  1.1360 -0.4325
  175SAPS  H18S19955   2.158   4.359   4.258  3.1483 -0.7865  0.2257
  175SAPS  C21919956   2.343   4.416   4.146  0.0144 -0.3709 -0.9322
  175SAPS  H19R19957   2.373   4.440   4.042  2.2017  1.2865  0.0100
  175SAPS  H19S19958   2.391   4.317   4.162  0.5754  0.1116  0.5032
  175SAPS  C22019959   2.422   4.509   4.230 -0.0092 -0.6738 -0.0243
  175SAPS  H20R19960   2.426   4.489   4.339  1.1531  0.6413  0.1992
  175SAPS  H20S19961   2.381   4.611   4.213 -1.6414 -1.3085 -0.0292
  175SAPS  H20T19962   2.529   4.501   4.203 -0.7521 -1.1656 -3.2380
  175SAPS   C3319963   1.771   4.861   2.823 -0.0251 -0.1278 -1.0330
  175SAPS   H3X19964   1.717   4.931   2.756 -1.0849  0.7581  0.6596
  175SAPS   H3Y19965   1.872   4.841   2.782 -0.4805  1.1792 -2.9381
  175SAPS   C3419966   1.782   4.925   2.953  0.4239  0.4005  0.3712
  175SAPS   H4X19967   1.822   5.026   2.929 -0.8848  0.4878 -1.7620
  175SAPS   H4Y19968   1.841   4.864   3.024 -0.1119 -1.0525 -0.4090
  175SAPS   C3519969   1.646   4.971   3.011 -0.0144  0.1539 -0.9978
  175SAPS   H5X19970   1.603   4.896   3.081 -1.9386  1.2428 -0.9635
  175SAPS   H5Y19971   1.575   5.016   2.939 -1.4256 -1.6376 -0.7976
  175SAPS   C3619972   1.655   5.085   3.116 -0.5293 -0.4335 -0.3550
  175SAPS   H6X19973   1.692   5.165   3.047 -1.4744 -0.0042 -0.3799
  175SAPS   H6Y19974   1.731   5.063   3.193 -1.0085 -0.1598  0.2008
  175SAPS   C3719975   1.517   5.140   3.163  0.3693  0.0843 -0.5217
  175SAPS   H7X19976   1.440   5.092   3.099 -0.4039 -0.2051  0.5817
  175SAPS   H7Y19977   1.509   5.250   3.149  2.3059  0.5140  1.2412
  175SAPS   C3819978   1.480   5.105   3.306 -0.0874  0.1623  0.4413
  175SAPS   H8X19979   1.508   5.001   3.333 -2.3438 -0.1772  1.7553
  175SAPS   H8Y19980   1.371   5.117   3.322 -0.0784  2.1062 -0.5881
  175SAPS   C3919981   1.555   5.193   3.406  0.0775 -0.6209 -0.0909
  175SAPS   H9X19982   1.545   5.302   3.385 -0.6961 -1.0874 -2.5867
  175SAPS   H9Y19983   1.664   5.177   3.400  0.3932  1.3436 -0.1690
  175SAPS  C31019984   1.505   5.154   3.548  0.1388 -0.3890 -0.2521
  175SAPS  H10X19985   1.554   5.060   3.581 -1.9460 -0.6252  2.6512
  175SAPS  H10Y19986   1.393   5.155   3.546  0.1239 -1.7451 -0.7490
  175SAPS  C31119987   1.551   5.260   3.649 -0.1660 -0.1677  0.7320
  175SAPS  H11X19988   1.517   5.361   3.618  2.3421  0.0020 -1.8460
  175SAPS  H11Y19989   1.661   5.266   3.663 -0.1942  0.8119  0.6405
  175SAPS  C31219990   1.471   5.236   3.780  0.2228  0.3324  0.0068
  175SAPS  H12X19991   1.496   5.140   3.829 -3.8341 -1.3021 -0.7452
  175SAPS  H12Y19992   1.365   5.231   3.748  0.3468  0.9910 -0.5263
  175SAPS  C31319993   1.481   5.357   3.881  0.5107  0.0440  0.6305
  175SAPS  H13X19994   1.455   5.446   3.820  1.2640  0.4227  0.8515
  175SAPS  H13Y19995   1.589   5.370   3.902  0.5452  2.5514 -0.7495
  175SAPS  C31419996   1.410   5.343   4.016  0.3980  0.5612 -0.6080
  175SAPS  H14X19997   1.300   5.334   4.000  0.3850  1.4144 -1.0830
  175SAPS  H14Y19998   1.438   5.437   4.069  2.1795 -0.0891 -0.3470
  175SAPS  C31519999   1.448   5.221   4.104 -0.5155 -0.3519 -0.5282
  175SAPS  H15X20000   1.556   5.248   4.112 -0.3754 -0.9127 -0.5285
  175SAPS  H15Y20001   1.420   5.122   4.063  0.6801 -0.6057 -0.7777
  175SAPS  C31620002   1.381   5.224   4.247 -0.2616  0.5269 -0.3488
  175SAPS  H16X20003   1.275   5.236   4.216  0.7792  2.2984 -3.8090
  175SAPS  H16Y20004   1.414   5.317   4.299 -2.5747  2.3270 -1.8773
  175SAPS  C31720005   1.393   5.106   4.346  0.0676 -0.4409 -0.3642
  175SAPS  H17X20006   1.336   5.022   4.301  1.4351  0.0041 -3.1362
  175SAPS  H17Y20007   1.349   5.136   4.444 -0.9185 -0.1703 -0.8845
  175SAPS  C31820008   1.537   5.057   4.360 -0.0342  0.2464 -0.6746
  175SAPS  H18X20009   1.602   5.127   4.417  1.8237 -1.2108 -0.9115
  175SAPS  H18Y20010   1.585   5.025   4.265  1.4636 -3.7823  1.2213
  175SAPS  H18Z20011   1.547   4.965   4.422  4.5779  0.0378 -1.3826
  176SAPS     N20012   1.229   4.119   1.929 -0.2528  0.0712  0.1441
  176SAPS   HN120013   1.215   4.176   2.015 -0.9482 -0.7723  0.6088
  176SAPS   HN220014   1.189   4.152   1.839 -0.1832 -0.2147  0.0085
  176SAPS   HN320015   1.181   4.030   1.954  1.1875 -0.9781 -0.6476
  176SAPS   C1220016   1.373   4.096   1.911 -1.1200  0.1156  0.0586
  176SAPS  H12A20017   1.388   3.999   1.864  0.2122  0.3611 -0.0729
  176SAPS   C1320018   1.452   4.193   1.830  0.6576 -0.5966 -0.6508
  176SAPS  O13A20019   1.411   4.311   1.808  0.3668  0.0079  0.1385
  176SAPS  O13B20020   1.577   4.172   1.810  0.1403 -0.1362  0.1900
  176SAPS   C1120021   1.437   4.099   2.055 -0.0690  0.4278  0.2500
  176SAPS  H11A20022   1.545   4.076   2.041 -0.1365 -0.7496  1.4352
  176SAPS  H11B20023   1.400   4.009   2.108 -0.0879 -0.4326 -1.1749
  176SAPS     P20024   1.472   4.274   2.262  0.1370 -0.3747  0.2419
  176SAPS   O1320025   1.555   4.397   2.235  0.3285 -0.1503  0.1311
  176SAPS   O1420026   1.357   4.289   2.356 -0.7005  0.3912  0.0628
  176SAPS   O1220027   1.414   4.222   2.127 -0.2328  0.3573 -1.1441
  176SAPS   O1120028   1.564   4.157   2.311 -0.2592 -0.1397  0.0871
  176SAPS    C120029   1.532   4.049   2.396  0.3542 -0.6770 -0.1684
  176SAPS    HA20030   1.422   4.033   2.410  0.1872  0.6895  0.2333
  176SAPS    HB20031   1.557   3.951   2.351  1.3059 -0.8025  0.6018
  176SAPS    C220032   1.605   4.054   2.532  0.0406 -0.4940 -0.1986
  176SAPS    HS20033   1.597   3.964   2.596 -0.1355  0.9259  1.8799
  176SAPS   O2120034   1.559   4.172   2.615  0.5069  0.7767  0.0201
  176SAPS   C2120035   1.438   4.160   2.662 -0.2349 -0.2343  0.2050
  176SAPS   O2220036   1.358   4.070   2.638 -0.0057  0.0419  0.4792
  176SAPS   C2220037   1.420   4.265   2.768  0.5335 -0.3518  0.2894
  176SAPS   H2R20038   1.476   4.226   2.855 -0.0703 -0.8310  0.4703
  176SAPS   H2S20039   1.480   4.352   2.731  0.0536 -0.8966 -1.9147
  176SAPS    C320040   1.763   4.067   2.517  0.1850  0.1553 -0.4895
  176SAPS    HX20041   1.780   4.175   2.496 -1.4465  0.3831 -0.7795
  176SAPS    HY20042   1.794   4.008   2.428  1.9643  0.0534  0.1503
  176SAPS   O3120043   1.827   4.018   2.634  0.6291 -0.3777 -0.4913
  176SAPS   C3120044   1.954   4.052   2.642  0.0285 -0.4372  0.2705
  176SAPS   O3220045   2.022   4.109   2.556 -0.2012 -0.0630 -0.5617
  176SAPS   C3220046   2.013   4.013   2.781 -0.0653  0.4976 -0.6890
  176SAPS   H2X20047   2.124   4.020   2.779  0.1047 -1.2772  0.0390
  176SAPS   H2Y20048   1.997   3.904   2.799  0.0173  0.5148 -0.5125
  176SAPS   C2320049   1.272   4.293   2.801 -0.3702 -0.4152 -0.4811
  176SAPS   H3R20050   1.223   4.198   2.830 -1.2477  0.4424  1.0130
  176SAPS   H3S20051   1.233   4.320   2.701  0.8386  1.3753 -0.5127
  176SAPS   C2420052   1.238   4.406   2.900  0.1787  0.1308  0.3868
  176SAPS   H4R20053   1.288   4.394   2.998  3.7095 -1.5240 -1.3860
  176SAPS   H4S20054   1.127   4.402   2.903  0.2081 -0.1434  1.4269
  176SAPS   C2520055   1.280   4.534   2.832  0.1334  0.7910 -0.0810
  176SAPS   H5R20056   1.260   4.548   2.725  1.0572 -1.3254 -0.5655
  176SAPS   C2620057   1.324   4.645   2.902 -0.4011 -0.0424  0.1466
  176SAPS   H6R20058   1.343   4.742   2.852  1.9713 -0.8147 -0.6095
  176SAPS   C2720059   1.351   4.645   3.053 -0.0111 -0.4170  0.6308
  176SAPS   H7R20060   1.257   4.632   3.111  0.0095 -0.4408  0.6590
  176SAPS   H7S20061   1.374   4.749   3.083 -1.0663 -0.9282  3.4870
  176SAPS   C2820062   1.453   4.559   3.122  0.3717  0.3476 -0.1041
  176SAPS   H8R20063   1.473   4.477   3.052  0.5617  0.5611 -0.3015
  176SAPS   C2920064   1.508   4.575   3.242 -0.0391  0.6767  0.3121
  176SAPS   H9R20065   1.582   4.500   3.275  0.4976 -0.3467 -2.8650
  176SAPS  C21020066   1.480   4.696   3.331 -0.1733  0.2224 -0.3967
  176SAPS  H10R20067   1.377   4.682   3.368 -0.3546  2.1692 -0.0895
  176SAPS  H10S20068   1.464   4.790   3.274 -1.2185  1.9377  2.5234
  176SAPS  C21120069   1.592   4.711   3.429 -0.1672 -0.3816 -0.3337
  176SAPS  H11R20070   1.692   4.744   3.396  0.6541 -2.2320  0.1532
  176SAPS  C21220071   1.585   4.653   3.547  0.0164  0.2092 -0.6872
  176SAPS  H12R20072   1.666   4.671   3.620  0.7388 -1.5882 -0.9817
  176SAPS  C21320073   1.468   4.584   3.606  0.3174 -0.5635 -0.1508
  176SAPS  H13R20074   1.502   4.526   3.694  0.8717  0.3078  0.2230
  176SAPS  H13S20075   1.424   4.512   3.534 -0.4942 -0.0341 -0.2028
  176SAPS  C21420076   1.353   4.668   3.666  0.0387  0.1085 -0.2913
  176SAPS  H14R20077   1.256   4.620   3.644  0.2458 -1.8307  2.5666
  176SAPS  C21520078   1.361   4.775   3.747 -0.5062  0.5673 -0.2495
  176SAPS  H15R20079   1.268   4.827   3.775 -1.6604 -1.0825 -0.8026
  176SAPS  C21620080   1.481   4.855   3.794 -0.2558  0.4618 -0.2791
  176SAPS  H16R20081   1.438   4.958   3.791 -1.4260  0.0788  1.5596
  176SAPS  H16S20082   1.567   4.851   3.724 -1.0556 -1.7182 -1.2091
  176SAPS  C21720083   1.514   4.831   3.940 -0.5869 -0.1690 -0.0326
  176SAPS  H17R20084   1.425   4.854   4.003 -0.3074 -0.6434  0.5471
  176SAPS  H17S20085   1.596   4.903   3.958 -1.9484  2.2852 -2.7172
  176SAPS  C21820086   1.550   4.690   3.985 -0.6745 -0.2223 -0.6608
  176SAPS  H18R20087   1.634   4.652   3.924 -1.6881 -0.0277 -2.2278
  176SAPS  H18S20088   1.472   4.613   3.963 -0.5605 -0.7063  0.5483
  176SAPS  C21920089   1.610   4.688   4.123  0.3079 -0.0096  0.6485
  176SAPS  H19R20090   1.636   4.583   4.148 -2.2693 -0.4555  1.6756
  176SAPS  H19S20091   1.552   4.744   4.199  0.8290  2.7066 -0.8092
  176SAPS  C22020092   1.741   4.758   4.133  0.0407 -0.1363  0.6614
  176SAPS  H20R20093   1.732   4.868   4.116  0.6983 -0.5561 -3.8743
  176SAPS  H20S20094   1.806   4.718   4.052 -1.5188 -1.1784 -0.1261
  176SAPS  H20T20095   1.801   4.724   4.220  0.4347  1.4399  1.0503
  176SAPS   C3320096   1.952   4.094   2.890 -0.0797 -0.7027 -0.6321
  176SAPS   H3X20097   1.844   4.074   2.908  0.1215  0.1797  1.9603
  176SAPS   H3Y20098   1.954   4.197   2.848  0.9519 -1.0233 -1.4029
  176SAPS   C3420099   2.019   4.090   3.022  0.4840  0.6861  0.0128
  176SAPS   H4X20100   1.963   4.158   3.089 -2.1088 -2.5787  1.4462
  176SAPS   H4Y20101   2.124   4.127   3.024  0.6515  0.5932 -2.7716
  176SAPS   C3520102   2.022   3.951   3.081  0.2583 -0.1639  0.0031
  176SAPS   H5X20103   2.091   3.887   3.022 -1.3716 -1.9617 -0.0445
  176SAPS   H5Y20104   1.920   3.909   3.065 -0.5587  2.3837 -1.9944
  176SAPS   C3620105   2.062   3.952   3.233 -0.3108 -0.2217  0.2384
  176SAPS   H6X20106   2.039   3.850   3.270 -0.7990 -0.0292  0.4623
  176SAPS   H6Y20107   2.010   4.035   3.285  0.7105  2.1798 -2.2706
  176SAPS   C3720108   2.211   3.989   3.262 -0.0005  1.1126  0.3869
  176SAPS   H7X20109   2.247   4.072   3.197 -0.0535  0.8806  0.0570
  176SAPS   H7Y20110   2.281   3.903   3.250 -0.5806  0.5154  1.1700
  176SAPS   C3820111   2.222   4.022   3.411 -0.6583  0.8915  0.2550
  176SAPS   H8X20112   2.175   3.939   3.468  1.1273 -0.7814 -0.5648
  176SAPS   H8Y20113   2.163   4.112   3.436 -0.8431  0.7187  0.4494
  176SAPS   C3920114   2.366   4.033   3.459 -0.5550 -0.1421 -0.2010
  176SAPS   H9X20115   2.407   4.136   3.450  2.2157 -1.1449 -0.0601
  176SAPS   H9Y20116   2.432   3.964   3.401  1.4162  0.0786  1.6795
  176SAPS  C31020117   2.376   3.995   3.609  0.5155  0.0758  0.5224
  176SAPS  H10X20118   2.480   3.989   3.646  0.5568 -0.5966  0.3139
  176SAPS  H10Y20119   2.333   3.893   3.626  0.9172 -0.0100  1.0626
  176SAPS  C31120120   2.302   4.104   3.697 -0.2411 -0.1661 -0.6490
  176SAPS  H11X20121   2.198   4.131   3.667 -0.3038  3.4436  2.1462
  176SAPS  H11Y20122   2.351   4.203   3.691 -0.5556 -0.0050 -0.5964
  176SAPS  C31220123   2.280   4.070   3.849  0.1312  0.2167  0.6154
  176SAPS  H12X20124   2.279   4.164   3.909  0.5426  0.7790 -0.2250
  176SAPS  H12Y20125   2.365   4.006   3.879  1.5685  1.8437  0.2064
  176SAPS  C31320126   2.149   3.990   3.862  0.4896  0.0126 -0.3217
  176SAPS  H13X20127   2.169   3.886   3.829 -0.3151 -0.4785  0.6885
  176SAPS  H13Y20128   2.067   4.037   3.803  0.8660  0.3782 -0.5584
  176SAPS  C31420129   2.117   3.977   4.013 -0.2606  0.0632 -0.2103
  176SAPS  H14X20130   2.210   4.013   4.062 -0.6129  1.9311 -0.8350
  176SAPS  H14Y20131   2.106   3.871   4.046  1.7634 -0.8392 -2.1335
  176SAPS  C31520132   1.998   4.057   4.056  0.3257  0.3595 -0.3999
  176SAPS  H15X20133   1.902   4.014   4.020 -0.9442  1.9213  0.9839
  176SAPS  H15Y20134   1.999   4.163   4.024 -2.3003  1.0804  1.6463
  176SAPS  C31620135   1.984   4.049   4.208 -0.8787  0.2044  0.2383
  176SAPS  H16X20136   2.077   4.086   4.256  0.2270 -1.6381 -0.4076
  176SAPS  H16Y20137   1.975   3.941   4.231 -3.0144  0.4483  0.7762
  176SAPS  C31720138   1.866   4.129   4.265  0.4504 -0.3403  0.5730
  176SAPS  H17X20139   1.837   4.109   4.370 -0.8731  2.5053  0.8349
  176SAPS  H17Y20140   1.778   4.101   4.204 -0.8793  0.1987  2.1725
  176SAPS  C31820141   1.879   4.282   4.257  0.3152 -0.4864  0.5378
  176SAPS  H18X20142   1.934   4.307   4.164  0.8086 -2.1034  0.3611
  176SAPS  H18Y20143   1.931   4.332   4.341  3.3006 -2.4571  0.0042
  176SAPS  H18Z20144   1.779   4.328   4.238  2.2203  2.4565 -4.2966
  177SAPS     N20145   6.193   5.246   2.276 -0.2269  0.0303  0.0873
  177SAPS   HN120146   6.230   5.295   2.360  1.7844 -0.8364 -0.2425
  177SAPS   HN220147   6.244   5.278   2.191 -1.2525  0.4115 -0.4019
  177SAPS   HN320148   6.090   5.259   2.267 -0.2846  1.0196  1.7167
  177SAPS   C1220149   6.216   5.097   2.286  0.0130 -0.3350  0.4303
  177SAPS  H12A20150   6.143   5.053   2.353 -2.4245 -0.3912 -2.0789
  177SAPS   C1320151   6.197   5.030   2.137  0.3052 -0.4715  0.2753
  177SAPS  O13A20152   6.174   5.103   2.039  0.0022  0.4288 -0.6475
  177SAPS  O13B20153   6.169   4.909   2.135 -0.1320 -0.4524 -0.3306
  177SAPS   C1120154   6.352   5.066   2.343 -0.8100 -0.0351 -0.8898
  177SAPS  H11A20155   6.361   4.955   2.344  1.4551  0.0854  0.2268
  177SAPS  H11B20156   6.350   5.105   2.447  0.1448 -2.1639  0.0070
  177SAPS     P20157   6.596   5.052   2.250  0.0023  0.0134 -0.5033
  177SAPS   O1320158   6.576   4.914   2.202  0.1851 -0.7676  0.0335
  177SAPS   O1420159   6.679   5.145   2.171 -0.1448 -0.2292  0.5011
  177SAPS   O1220160   6.455   5.123   2.260 -0.6083  0.0047 -0.1892
  177SAPS   O1120161   6.640   5.052   2.404 -0.3243 -0.0594  0.6693
  177SAPS    C120162   6.721   5.167   2.448 -0.5092  0.0763 -0.1621
  177SAPS    HA20163   6.829   5.150   2.429 -0.6983 -2.9808  0.9098
  177SAPS    HB20164   6.698   5.263   2.397  0.9488  1.1546  1.1086
  177SAPS    C220165   6.708   5.192   2.594  0.4174  0.3213 -0.0963
  177SAPS    HS20166   6.788   5.259   2.634  0.6745 -0.7689  1.2856
  177SAPS   O2120167   6.712   5.070   2.667 -0.3587 -0.2526 -0.1449
  177SAPS   C2120168   6.834   5.020   2.681 -0.1536 -0.0800  0.3339
  177SAPS   O2220169   6.937   5.074   2.648 -0.0215 -0.4573 -0.0819
  177SAPS   C2220170   6.822   4.895   2.761 -0.0265  0.4975 -0.2953
  177SAPS   H2R20171   6.770   4.820   2.699 -0.4014  1.3462 -1.0337
  177SAPS   H2S20172   6.920   4.853   2.793 -0.6750  0.2382  1.4536
  177SAPS    C320173   6.568   5.253   2.629 -0.1284 -0.3583  0.4218
  177SAPS    HX20174   6.495   5.192   2.571  1.5190 -1.4088 -0.6570
  177SAPS    HY20175   6.563   5.355   2.584 -0.6257 -1.4373 -2.1804
  177SAPS   O3120176   6.551   5.263   2.767 -0.4157  0.3015 -0.0141
  177SAPS   C3120177   6.431   5.230   2.811 -0.4142  0.2810  0.1590
  177SAPS   O3220178   6.335   5.199   2.744  0.8571 -0.3761 -0.1295
  177SAPS   C3220179   6.432   5.238   2.961 -0.2803  0.1207 -0.4707
  177SAPS   H2X20180   6.358   5.309   3.003 -1.1500 -1.4028  0.6429
  177SAPS   H2Y20181   6.531   5.253   3.009 -0.8105  1.7386  0.1727
  177SAPS   C2320182   6.747   4.917   2.896  0.4478 -0.5062 -0.0894
  177SAPS   H3R20183   6.640   4.922   2.867  0.2067 -4.1110 -0.2979
  177SAPS   H3S20184   6.781   5.013   2.940  1.5492 -1.2506  0.7659
  177SAPS   C2420185   6.769   4.807   3.003  0.1265 -0.0029 -0.7122
  177SAPS   H4R20186   6.784   4.711   2.949 -0.4023 -1.0969  1.0018
  177SAPS   H4S20187   6.676   4.806   3.064 -0.2887 -0.5231 -1.3320
  177SAPS   C2520188   6.885   4.838   3.091 -0.4008 -0.6256  0.4176
  177SAPS   H5R20189   6.940   4.931   3.074 -1.6870  0.2893  1.1502
  177SAPS   C2620190   6.915   4.771   3.207 -0.6686 -0.1195  0.4958
  177SAPS   H6R20191   7.001   4.797   3.271 -0.6167 -3.8781  2.2473
  177SAPS   C2720192   6.856   4.639   3.251 -0.1536 -0.5609  0.4886
  177SAPS   H7R20193   6.939   4.567   3.268  2.0059  1.5308 -0.5875
  177SAPS   H7S20194   6.785   4.598   3.176  0.7444 -0.1026 -0.6470
  177SAPS   C2820195   6.768   4.662   3.370 -0.4470 -0.2472 -0.4826
  177SAPS   H8R20196   6.708   4.754   3.361  2.8391  2.2825  1.0153
  177SAPS   C2920197   6.756   4.588   3.485  0.1755  0.5820  0.5175
  177SAPS   H9R20198   6.695   4.631   3.566  0.3520  0.6523  0.6158
  177SAPS  C21020199   6.840   4.462   3.506  0.7310  0.2227 -0.7378
  177SAPS  H10R20200   6.948   4.489   3.505  0.5558  0.9847 -0.3075
  177SAPS  H10S20201   6.826   4.398   3.416  3.0511  1.9816 -2.5002
  177SAPS  C21120202   6.811   4.379   3.633  0.5520  0.0753 -0.8154
  177SAPS  H11R20203   6.744   4.293   3.615 -3.0325  2.4657 -0.1385
  177SAPS  C21220204   6.843   4.402   3.762  0.4771  0.1042  0.6040
  177SAPS  H12R20205   6.810   4.327   3.836 -0.2977 -0.8876 -0.7031
  177SAPS  C21320206   6.933   4.518   3.797 -0.9492 -0.3107  0.0918
  177SAPS  H13R20207   6.897   4.567   3.890  0.5611  0.4224  0.3271
  177SAPS  H13S20208   6.933   4.593   3.715 -0.5050 -2.7075 -2.2350
  177SAPS  C21420209   7.075   4.490   3.830 -0.0607  0.0119  0.7464
  177SAPS  H14R20210   7.099   4.386   3.859 -1.1783 -0.0477  1.5221
  177SAPS  C21520211   7.183   4.572   3.839  0.0206  1.2448  0.3458
  177SAPS  H15R20212   7.283   4.528   3.851 -0.4356  0.8117  3.3148
  177SAPS  C21620213   7.172   4.719   3.816 -0.5073  0.8456  0.3225
  177SAPS  H16R20214   7.210   4.767   3.910  0.6228  0.8522 -0.1182
  177SAPS  H16S20215   7.067   4.746   3.795 -1.1257 -1.4619  0.2615
  177SAPS  C21720216   7.266   4.771   3.702 -0.2886 -0.3196  0.9677
  177SAPS  H17R20217   7.370   4.749   3.733  0.4080 -0.8751 -1.5094
  177SAPS  H17S20218   7.245   4.880   3.706 -2.4186 -0.5836 -0.6760
  177SAPS  C21820219   7.203   4.708   3.566  0.2402 -0.0702  0.5366
  177SAPS  H18R20220   7.099   4.746   3.549  0.6261  1.4620  1.4123
  177SAPS  H18S20221   7.196   4.599   3.582  3.3841 -0.5545 -0.6154
  177SAPS  C21920222   7.284   4.715   3.430  0.7292 -0.5880 -0.7744
  177SAPS  H19R20223   7.284   4.819   3.392 -2.8530 -0.3402 -0.4254
  177SAPS  H19S20224   7.226   4.646   3.364 -2.1366  0.5112  0.4648
  177SAPS  C22020225   7.433   4.679   3.440 -0.2830 -0.1570 -0.2175
  177SAPS  H20R20226   7.476   4.717   3.345 -1.2029 -0.1219 -0.6298
  177SAPS  H20S20227   7.462   4.571   3.441 -0.3440 -0.2308 -2.4011
  177SAPS  H20T20228   7.476   4.736   3.525 -1.7796  0.6724  0.0101
  177SAPS   C3320229   6.395   5.098   3.015  0.2876  0.6102 -0.1839
  177SAPS   H3X20230   6.446   5.013   2.964 -2.2499 -1.3866  0.3632
  177SAPS   H3Y20231   6.285   5.088   2.998  0.0499  1.9416  0.4246
  177SAPS   C3420232   6.427   5.088   3.158  0.2729 -0.0443 -1.0481
  177SAPS   H4X20233   6.365   5.166   3.207 -1.3901 -0.8638 -1.7919
  177SAPS   H4Y20234   6.531   5.115   3.186 -0.0405 -0.2182  0.3593
  177SAPS   C3520235   6.392   4.952   3.217 -0.0012  0.0573  0.2405
  177SAPS   H5X20236   6.484   4.890   3.212 -0.6134 -0.7948 -2.6534
  177SAPS   H5Y20237   6.308   4.904   3.162 -0.0838 -1.7804  1.8672
  177SAPS   C3620238   6.339   4.964   3.354 -0.0062 -0.4342 -0.7998
  177SAPS   H6X20239   6.303   4.862   3.380 -1.5132  0.3415  0.3678
  177SAPS   H6Y20240   6.255   5.036   3.343 -0.0145 -0.1577  0.8242
  177SAPS   C3720241   6.432   5.006   3.470 -0.3130 -0.5104 -0.2983
  177SAPS   H7X20242   6.455   5.113   3.454 -1.4464 -0.5874 -3.0551
  177SAPS   H7Y20243   6.528   4.950   3.464 -0.2915 -0.7123  1.4856
  177SAPS   C3820244   6.355   4.996   3.603 -0.0067  0.2125  0.2083
  177SAPS   H8X20245   6.339   4.888   3.626  2.0806  0.2309  2.1388
  177SAPS   H8Y20246   6.257   5.047   3.596  0.8571  1.7704 -1.0141
  177SAPS   C3920247   6.450   5.046   3.711 -0.0992 -0.5107  0.6183
  177SAPS   H9X20248   6.467   5.154   3.695  0.4793 -0.4196  1.7775
  177SAPS   H9Y20249   6.547   4.993   3.709  0.9832  1.4061  0.7464
  177SAPS  C31020250   6.394   5.034   3.859  0.0591 -0.2114  0.0383
  177SAPS  H10X20251   6.343   4.936   3.868 -0.1063 -0.3613 -2.0871
  177SAPS  H10Y20252   6.323   5.115   3.884 -0.3511 -0.9152  1.2077
  177SAPS  C31120253   6.514   5.045   3.955 -0.1443  0.0315  0.7215
  177SAPS  H11X20254   6.551   5.150   3.959 -2.5706  0.9238  1.4660
  177SAPS  H11Y20255   6.592   4.984   3.904 -0.6373 -1.0840  1.2891
  177SAPS  C31220256   6.488   4.991   4.094 -0.0248  0.1047  0.0466
  177SAPS  H12X20257   6.426   4.900   4.092  0.2998 -0.1208  0.1465
  177SAPS  H12Y20258   6.424   5.059   4.154 -0.5881 -0.9761  0.7035
  177SAPS  C31320259   6.618   4.957   4.172 -0.6557  0.1269 -0.2777
  177SAPS  H13X20260   6.682   5.048   4.170 -2.0954  1.4559  3.8297
  177SAPS  H13Y20261   6.670   4.870   4.127  0.1474  2.1552 -3.6391
  177SAPS  C31420262   6.599   4.921   4.323 -0.0820  0.0887 -0.4804
  177SAPS  H14X20263   6.594   4.810   4.331  1.7020 -0.1836 -2.3269
  177SAPS  H14Y20264   6.500   4.954   4.361 -0.6894 -0.3797 -1.6334
  177SAPS  C31520265   6.721   4.965   4.416  0.0460  0.6536 -0.4295
  177SAPS  H15X20266   6.699   5.069   4.449  0.5896  0.9412 -0.9625
  177SAPS  H15Y20267   6.816   4.963   4.359  0.6724 -2.4587  0.5580
  177SAPS  C31620268   6.730   4.879   4.543  0.0963  0.4707 -0.7352
  177SAPS  H16X20269   6.627   4.878   4.585  0.7547  1.2746  0.9651
  177SAPS  H16Y20270   6.810   4.908   4.613 -0.8221  0.9876  0.1174
  177SAPS  C31720271   6.774   4.730   4.514 -0.0401 -1.1553  0.2789
  177SAPS  H17X20272   6.882   4.742   4.491 -0.2356 -0.5464 -0.3419
  177SAPS  H17Y20273   6.735   4.690   4.418 -0.4334  2.3947 -1.1879
  177SAPS  C31820274   6.761   4.641   4.636 -0.8543  0.3168 -0.2042
  177SAPS  H18X20275   6.829   4.554   4.626  1.1479  1.8006 -0.1637
  177SAPS  H18Y20276   6.655   4.610   4.644 -0.7970 -0.3956 -1.8381
  177SAPS  H18Z20277   6.800   4.695   4.725  0.6403  0.7330 -1.0679
  178SAPS     N20278   1.538   0.828   2.509 -0.3497 -0.7548 -0.4421
  178SAPS   HN120279   1.536   0.777   2.418  1.2833 -2.4127  0.3777
  178SAPS   HN220280   1.621   0.890   2.506  0.1471 -1.4233 -1.0757
  178SAPS   HN320281   1.561   0.755   2.580 -1.9584 -0.1649  0.7335
  178SAPS   C1220282   1.404   0.896   2.538 -0.4678 -0.3312 -0.1021
  178SAPS  H12A20283   1.403   0.982   2.473 -1.1315 -1.4526 -1.6128
  178SAPS   C1320284   1.268   0.832   2.516 -0.6673  0.4502  0.4424
  178SAPS  O13A20285   1.267   0.706   2.498  0.4077  0.0451 -0.4470
  178SAPS  O13B20286   1.163   0.907   2.520 -0.0834  0.1787  0.3383
  178SAPS   C1120287   1.408   0.977   2.672  0.5950 -0.0365 -0.9658
  178SAPS  H11A20288   1.361   0.918   2.754  0.9810  1.3398  0.3089
  178SAPS  H11B20289   1.334   1.058   2.652  0.9923  1.0349  1.5184
  178SAPS     P20290   1.559   1.192   2.698 -0.0104  0.4632 -0.3165
  178SAPS   O1320291   1.692   1.229   2.760  0.3373  0.0284 -0.3129
  178SAPS   O1420292   1.518   1.248   2.568 -0.0154 -0.0738 -0.0271
  178SAPS   O1220293   1.532   1.036   2.705 -0.6025 -0.4897  0.1248
  178SAPS   O1120294   1.449   1.253   2.798 -0.1320  0.0732 -0.3426
  178SAPS    C120295   1.323   1.308   2.754  0.0011  0.5148 -0.4579
  178SAPS    HA20296   1.290   1.262   2.658 -2.3450 -2.4052  1.5626
  178SAPS    HB20297   1.245   1.276   2.827  3.0705 -1.6594  2.1356
  178SAPS    C220298   1.330   1.463   2.740  0.8177 -0.3491 -0.9272
  178SAPS    HS20299   1.407   1.486   2.663  1.5587  0.3006 -0.0297
  178SAPS   O2120300   1.381   1.504   2.869 -0.1571  0.1209 -0.3313
  178SAPS   C2120301   1.414   1.625   2.877  0.6440 -0.3185  0.2710
  178SAPS   O2220302   1.398   1.705   2.789  0.1207 -0.3906  0.0166
  178SAPS   C2220303   1.503   1.638   2.995 -0.4282 -0.0480  0.1775
  178SAPS   H2R20304   1.480   1.566   3.077  1.1729  0.8780  1.5243
  178SAPS   H2S20305   1.605   1.614   2.959 -0.6959 -0.4834 -0.2974
  178SAPS    C320306   1.188   1.515   2.706 -0.2252  0.1157  0.4965
  178SAPS    HX20307   1.138   1.461   2.622 -1.9283  0.0868  1.4970
  178SAPS    HY20308   1.213   1.615   2.664  0.1240 -0.5682 -0.9954
  178SAPS   O3120309   1.096   1.534   2.815  0.0530  0.4163  0.0334
  178SAPS   C3120310   1.008   1.441   2.839  0.2304 -0.0110 -0.8390
  178SAPS   O3220311   1.001   1.334   2.779 -0.6959 -0.6313 -0.7833
  178SAPS   C3220312   0.932   1.481   2.963 -0.4274  0.0738 -1.2601
  178SAPS   H2X20313   0.826   1.455   2.945 -0.6269  0.7634 -1.0982
  178SAPS   H2Y20314   0.921   1.592   2.969 -0.2321  0.0088  1.5141
  178SAPS   C2320315   1.514   1.780   3.042  0.3824 -0.1974  0.3010
  178SAPS   H3R20316   1.416   1.821   3.076  1.0651  1.0816  0.8198
  178SAPS   H3S20317   1.563   1.833   2.957  0.5372  0.8856  1.0317
  178SAPS   C2420318   1.611   1.790   3.158 -0.0932  0.3079  0.6662
  178SAPS   H4R20319   1.703   1.738   3.125 -1.4642 -0.7263 -1.7967
  178SAPS   H4S20320   1.572   1.713   3.229 -1.6741  1.6262  1.2794
  178SAPS   C2520321   1.612   1.927   3.219  0.1305  0.2662 -0.3685
  178SAPS   H5R20322   1.661   2.005   3.159  0.7810  1.5309  1.6903
  178SAPS   C2620323   1.553   1.960   3.337  0.2355 -1.0130 -0.9567
  178SAPS   H6R20324   1.567   2.064   3.372 -0.0809 -1.4838  0.6733
  178SAPS   C2720325   1.476   1.869   3.434  0.2208 -0.2618  0.0369
  178SAPS   H7R20326   1.519   1.863   3.536  0.4249  1.4682  0.0819
  178SAPS   H7S20327   1.493   1.764   3.404 -0.5693 -0.6259  0.8140
  178SAPS   C2820328   1.324   1.869   3.428  0.6409 -0.3959  0.1969
  178SAPS   H8R20329   1.285   1.888   3.327 -0.7667 -0.1996  0.7535
  178SAPS   C2920330   1.225   1.874   3.518 -0.1276  0.4886 -0.5402
  178SAPS   H9R20331   1.119   1.875   3.493 -0.4627  2.2590  0.7367
  178SAPS  C21020332   1.248   1.869   3.666  0.2527  0.0246  0.0126
  178SAPS  H10R20333   1.329   1.794   3.681  0.4339  0.7373  3.4535
  178SAPS  H10S20334   1.156   1.828   3.715 -0.8948  3.6513  1.2414
  178SAPS  C21120335   1.283   1.998   3.733  0.2926 -0.1601  0.1155
  178SAPS  H11R20336   1.278   2.091   3.673 -1.8661 -0.2979  0.0028
  178SAPS  C21220337   1.295   2.026   3.863 -0.3487  0.0037  0.0706
  178SAPS  H12R20338   1.336   2.127   3.876 -0.4107  0.4968 -2.9423
  178SAPS  C21320339   1.311   1.926   3.974  0.3172 -0.0769 -0.5499
  178SAPS  H13R20340   1.401   1.948   4.035  0.7491 -1.1291 -0.7878
  178SAPS  H13S20341   1.323   1.823   3.933  2.1163 -1.1438  2.3226
  178SAPS  C21420342   1.195   1.925   4.071 -0.7895  0.1208  0.9213
  178SAPS  H14R20343   1.104   1.959   4.019 -1.7181 -2.5494  0.6675
  178SAPS  C21520344   1.190   1.877   4.199  0.1729  0.5094  0.2391
  178SAPS  H15R20345   1.091   1.856   4.242  0.3307  0.2248  0.4635
  178SAPS  C21620346   1.305   1.834   4.285  0.6166 -0.4886  0.1605
  178SAPS  H16R20347   1.331   1.920   4.351  0.1554 -0.8886  0.8770
  178SAPS  H16S20348   1.400   1.823   4.229  0.2574  0.8414 -0.7632
  178SAPS  C21720349   1.277   1.710   4.369  0.3484 -0.2778  0.4900
  178SAPS  H17R20350   1.365   1.641   4.366 -1.3167 -2.5563  1.0940
  178SAPS  H17S20351   1.208   1.654   4.302  1.3284 -0.4433 -0.4088
  178SAPS  C21820352   1.232   1.746   4.514 -0.3855 -0.3434 -0.3002
  178SAPS  H18R20353   1.297   1.816   4.570  0.3993 -1.4218  0.1780
  178SAPS  H18S20354   1.232   1.652   4.572  0.1740  0.3476  0.8430
  178SAPS  C21920355   1.087   1.810   4.515  0.0173  0.1352 -0.4601
  178SAPS  H19R20356   1.018   1.750   4.452 -0.7510  0.5774 -0.0625
  178SAPS  H19S20357   1.095   1.911   4.470 -0.0929  0.4655  0.2393
  178SAPS  C22020358   1.015   1.806   4.654  0.0762  0.2334  0.7773
  178SAPS  H20R20359   1.066   1.887   4.712 -0.3547  2.9717 -2.3359
  178SAPS  H20S20360   1.030   1.709   4.706  2.9457 -0.4735 -1.1336
  178SAPS  H20T20361   0.909   1.838   4.643 -0.3626 -2.0463 -3.4753
  178SAPS   C3320362   0.981   1.423   3.102  0.0007 -0.4211  0.6484
  178SAPS   H3X20363   1.010   1.317   3.084  0.5967 -0.1350 -0.1355
  178SAPS   H3Y20364   0.896   1.436   3.172 -0.2938 -2.0322  0.6189
  178SAPS   C3420365   1.103   1.497   3.157  0.5001 -0.2430  1.0812
  178SAPS   H4X20366   1.075   1.605   3.154  0.7476 -0.2021 -1.4720
  178SAPS   H4Y20367   1.185   1.492   3.083 -0.6624  2.3981 -0.5323
  178SAPS   C3520368   1.134   1.434   3.289  0.8832 -0.1799 -0.3620
  178SAPS   H5X20369   1.126   1.324   3.288  1.0289 -0.2576  1.7481
  178SAPS   H5Y20370   1.061   1.470   3.365  1.8388  1.1203 -0.0211
  178SAPS   C3620371   1.267   1.459   3.346 -0.4530 -0.0297  0.9657
  178SAPS   H6X20372   1.303   1.560   3.316  1.9427 -1.2071 -0.4644
  178SAPS   H6Y20373   1.335   1.382   3.305 -0.9983 -2.7572  4.6827
  178SAPS   C3720374   1.274   1.445   3.502  0.1353  0.0155  0.7198
  178SAPS   H7X20375   1.229   1.349   3.535 -0.8739  0.9655  2.2423
  178SAPS   H7Y20376   1.215   1.526   3.549  0.2570  0.7286 -0.3324
  178SAPS   C3820377   1.420   1.446   3.547 -1.0118 -0.0801 -0.6164
  178SAPS   H8X20378   1.472   1.519   3.480 -2.6994  0.7424 -1.0897
  178SAPS   H8Y20379   1.459   1.346   3.520 -4.2671 -0.6581 -4.0160
  178SAPS   C3920380   1.440   1.476   3.702  0.6215  0.7415  0.3845
  178SAPS   H9X20381   1.393   1.574   3.722 -0.6342  0.7387 -2.0957
  178SAPS   H9Y20382   1.548   1.482   3.726  0.6228  2.0020  0.1042
  178SAPS  C31020383   1.363   1.368   3.784 -0.2177 -0.0059  0.3582
  178SAPS  H10X20384   1.410   1.275   3.746  0.7649  0.4631  0.3680
  178SAPS  H10Y20385   1.257   1.378   3.753  0.1296 -0.2525 -0.9957
  178SAPS  C31120386   1.387   1.386   3.933  0.2002  0.7365  0.3400
  178SAPS  H11X20387   1.343   1.478   3.979  2.0671  1.4569  0.7552
  178SAPS  H11Y20388   1.495   1.385   3.957  0.3408 -0.3482 -0.2749
  178SAPS  C31220389   1.322   1.266   4.008 -0.1330 -0.6413 -0.1370
  178SAPS  H12X20390   1.375   1.268   4.106 -0.8734  1.2350  0.2892
  178SAPS  H12Y20391   1.339   1.177   3.945  3.0279  0.6289 -1.2694
  178SAPS  C31320392   1.176   1.279   4.056 -0.6595 -0.3134  0.8269
  178SAPS  H13X20393   1.147   1.180   4.095  0.1265 -1.2579 -0.8694
  178SAPS  H13Y20394   1.114   1.299   3.966  0.8237  2.1751  0.2521
  178SAPS  C31420395   1.143   1.396   4.148 -0.1232 -0.0898  0.4298
  178SAPS  H14X20396   1.150   1.494   4.096 -0.2226  0.1284  0.8284
  178SAPS  H14Y20397   1.212   1.381   4.233 -1.6677 -2.9347  1.3216
  178SAPS  C31520398   0.994   1.398   4.187 -0.1864  0.1536  0.3823
  178SAPS  H15X20399   0.971   1.311   4.252  1.3860 -0.4670  0.1620
  178SAPS  H15Y20400   0.924   1.404   4.101 -1.6727  0.4745  1.5850
  178SAPS  C31620401   0.964   1.525   4.279  0.0566  0.0830 -0.1718
  178SAPS  H16X20402   0.986   1.628   4.243 -1.3881  1.3738  2.3319
  178SAPS  H16Y20403   1.026   1.504   4.369  1.1674 -0.9938 -1.1677
  178SAPS  C31720404   0.817   1.528   4.323  0.4223 -0.5874  0.0078
  178SAPS  H17X20405   0.786   1.427   4.356 -1.2943 -0.4871 -1.1681
  178SAPS  H17Y20406   0.752   1.536   4.234  1.4917 -1.6258 -0.9000
  178SAPS  C31820407   0.776   1.635   4.427  1.0877  0.0531 -0.1697
  178SAPS  H18X20408   0.819   1.605   4.524  0.5457 -0.6689 -0.1439
  178SAPS  H18Y20409   0.666   1.654   4.432  1.0125 -0.7455  2.7525
  178SAPS  H18Z20410   0.816   1.731   4.389 -0.2748  1.7189  2.3788
  179SAPS     N20411   5.244   5.726   2.152  0.5389  0.4432  0.1925
  179SAPS   HN120412   5.235   5.829   2.150  3.0664  0.7225 -0.4251
  179SAPS   HN220413   5.238   5.687   2.248  1.7369 -0.2656 -0.0011
  179SAPS   HN320414   5.346   5.707   2.140  0.1118 -2.2141  0.0598
  179SAPS   C1220415   5.161   5.653   2.050 -0.1983  0.7474 -0.0876
  179SAPS  H12A20416   5.061   5.664   2.089 -0.7135 -2.1777 -0.3391
  179SAPS   C1320417   5.164   5.715   1.906  0.3111 -0.5054 -0.9866
  179SAPS  O13A20418   5.239   5.814   1.892  0.4410  0.4133 -0.2586
  179SAPS  O13B20419   5.084   5.672   1.820  0.3635  0.1869  0.6661
  179SAPS   C1120420   5.201   5.503   2.053  0.4134  0.5274  0.6197
  179SAPS  H11A20421   5.310   5.488   2.033  0.7145  2.6979  0.3712
  179SAPS  H11B20422   5.137   5.454   1.977 -0.4850  0.8620  1.1511
  179SAPS     P20423   5.040   5.388   2.224 -0.1675  0.4479  0.2768
  179SAPS   O1320424   4.934   5.487   2.200 -0.4536 -0.0460  0.2010
  179SAPS   O1420425   5.021   5.259   2.150 -0.4239 -0.5905  0.0793
  179SAPS   O1220426   5.177   5.448   2.183  0.2293 -0.5346 -0.4028
  179SAPS   O1120427   5.049   5.368   2.380 -0.1613  0.1542  0.5287
  179SAPS    C120428   5.170   5.414   2.452 -0.1059  0.4762 -0.3546
  179SAPS    HA20429   5.257   5.355   2.416 -0.4941 -1.3246  1.4721
  179SAPS    HB20430   5.191   5.523   2.444 -0.2785  0.8373  2.7504
  179SAPS    C220431   5.152   5.396   2.610  0.2494 -0.4024 -0.1714
  179SAPS    HS20432   5.249   5.403   2.665 -1.0507  4.4703  2.0008
  179SAPS   O2120433   5.085   5.271   2.636  0.1507 -0.1334  0.6031
  179SAPS   C2120434   5.155   5.161   2.627 -0.0435  0.0422 -0.6445
  179SAPS   O2220435   5.261   5.145   2.569 -0.5907 -0.2348 -0.1298
  179SAPS   C2220436   5.075   5.047   2.691  1.5477 -0.1750  0.2501
  179SAPS   H2R20437   5.118   5.005   2.784  0.3932  0.8287  1.2751
  179SAPS   H2S20438   4.975   5.091   2.710  1.4911 -0.0860 -0.2372
  179SAPS    C320439   5.057   5.512   2.665  0.3307 -0.3182 -0.2348
  179SAPS    HX20440   4.966   5.519   2.602 -0.4617  0.2363  0.9300
  179SAPS    HY20441   5.120   5.603   2.654  0.5662 -0.6530 -1.8581
  179SAPS   O3120442   5.034   5.498   2.802  0.1774  0.5269  0.2865
  179SAPS   C3120443   4.928   5.424   2.839 -0.8797 -0.0420 -0.2030
  179SAPS   O3220444   4.847   5.378   2.760 -0.3262  0.5991  0.5456
  179SAPS   C3220445   4.923   5.416   2.989 -0.0050  0.2126  0.1500
  179SAPS   H2X20446   4.947   5.515   3.033 -1.1322  0.9364 -0.8452
  179SAPS   H2Y20447   4.992   5.339   3.031 -0.1922 -0.3767 -0.5987
  179SAPS   C2320448   5.045   4.932   2.585  0.0968  0.4851 -0.1309
  179SAPS   H3R20449   5.141   4.904   2.536 -0.3643  2.0992 -2.1066
  179SAPS   H3S20450   4.985   4.964   2.497 -0.3600 -0.2058 -0.0765
  179SAPS   C2420451   4.985   4.816   2.663  1.3973  0.0571 -0.4702
  179SAPS   H4R20452   5.058   4.799   2.745  0.5376  1.0717  0.5341
  179SAPS   H4S20453   4.975   4.725   2.599 -2.4320 -1.0668  1.4278
  179SAPS   C2520454   4.841   4.829   2.711  0.0563 -1.0830  0.3826
  179SAPS   H5R20455   4.770   4.854   2.631 -1.9795 -0.3882  2.3112
  179SAPS   C2620456   4.783   4.813   2.836 -0.5350  0.4372 -0.4775
  179SAPS   H6R20457   4.674   4.823   2.847 -0.5617 -0.5037  0.1964
  179SAPS   C2720458   4.851   4.770   2.966  0.1244  1.0259  0.5891
  179SAPS   H7R20459   4.816   4.835   3.049 -4.0172  3.5308 -2.6823
  179SAPS   H7S20460   4.959   4.794   2.962  0.1959  0.6473  0.1574
  179SAPS   C2820461   4.839   4.620   2.988  0.1307 -0.2726  0.4223
  179SAPS   H8R20462   4.882   4.563   2.904 -1.5981 -2.4200  0.8807
  179SAPS   C2920463   4.783   4.559   3.093  0.1322 -0.3205  0.0627
  179SAPS   H9R20464   4.778   4.449   3.096 -0.6602 -0.2786  3.2978
  179SAPS  C21020465   4.729   4.637   3.209  0.0959  0.1839  0.3298
  179SAPS  H10R20466   4.674   4.723   3.164 -0.7030 -1.3412 -1.8203
  179SAPS  H10S20467   4.816   4.682   3.261  0.1389 -0.5800  0.9251
  179SAPS  C21120468   4.631   4.555   3.295 -0.6882  0.0646 -0.5002
  179SAPS  H11R20469   4.525   4.572   3.273 -0.0704  1.6324 -2.5146
  179SAPS  C21220470   4.672   4.490   3.410  0.0447 -0.4030 -0.2506
  179SAPS  H12R20471   4.604   4.436   3.477  0.5371 -1.7673 -0.8346
  179SAPS  C21320472   4.811   4.501   3.454 -0.6650  0.7015 -0.5558
  179SAPS  H13R20473   4.885   4.517   3.372 -0.8620  2.2818 -0.4484
  179SAPS  H13S20474   4.838   4.406   3.505 -2.3053 -0.1336 -1.1545
  179SAPS  C21420475   4.827   4.619   3.555  0.0298  0.8268 -0.0210
  179SAPS  H14R20476   4.858   4.714   3.510 -1.1446  0.2931 -2.0618
  179SAPS  C21520477   4.835   4.626   3.693  0.4513  0.1285  0.3453
  179SAPS  H15R20478   4.859   4.721   3.743  0.0331  0.2693  0.2882
  179SAPS  C21620479   4.819   4.510   3.790 -0.6165 -0.2685  0.3304
  179SAPS  H16R20480   4.852   4.414   3.745  2.0469  0.6316  0.2124
  179SAPS  H16S20481   4.715   4.493   3.826  0.0142 -1.7519  1.5968
  179SAPS  C21720482   4.914   4.532   3.907  0.4316 -0.0304 -0.4996
  179SAPS  H17R20483   4.883   4.622   3.964 -1.7574 -1.8750  1.4576
  179SAPS  H17S20484   5.019   4.545   3.872 -0.2672  0.1575 -2.6559
  179SAPS  C21820485   4.903   4.418   4.006  0.0782 -0.1382 -0.0448
  179SAPS  H18R20486   4.968   4.331   3.982 -1.7995 -2.4748  2.5641
  179SAPS  H18S20487   4.799   4.380   4.018 -0.3241  1.1172  0.5544
  179SAPS  C21920488   4.938   4.459   4.145 -0.4184 -0.5796  0.4143
  179SAPS  H19R20489   4.921   4.383   4.224 -2.0975  0.6384  1.2862
  179SAPS  H19S20490   4.870   4.540   4.178 -0.1342  0.0535 -0.4761
  179SAPS  C22020491   5.074   4.523   4.157  0.2214  0.7499 -0.0226
  179SAPS  H20R20492   5.070   4.625   4.112  1.8076  1.2527  0.8689
  179SAPS  H20S20493   5.158   4.469   4.109  2.3620  0.9204  3.1865
  179SAPS  H20T20494   5.107   4.532   4.263 -1.7417 -1.7109  0.8882
  179SAPS   C3320495   4.780   5.367   3.027 -0.3166  0.0467  0.6796
  179SAPS   H3X20496   4.756   5.276   2.967  0.3803 -0.1453  0.6760
  179SAPS   H3Y20497   4.695   5.430   2.996 -0.3049 -0.3096 -0.1127
  179SAPS   C3420498   4.776   5.325   3.177  0.4199 -0.4921 -0.0070
  179SAPS   H4X20499   4.865   5.265   3.207  0.4733 -1.1674 -1.4357
  179SAPS   H4Y20500   4.686   5.262   3.188 -0.2578  0.5293  0.4873
  179SAPS   C3520501   4.760   5.448   3.273 -0.1813  0.1968 -0.0976
  179SAPS   H5X20502   4.668   5.499   3.239 -0.7474 -0.1302  0.9031
  179SAPS   H5Y20503   4.833   5.530   3.257 -0.8551  0.9678  0.6713
  179SAPS   C3620504   4.760   5.414   3.421  0.6113  0.3653 -0.1948
  179SAPS   H6X20505   4.853   5.362   3.450 -0.5144 -1.7413 -0.1435
  179SAPS   H6Y20506   4.679   5.339   3.434  0.5102  0.5541  0.2838
  179SAPS   C3720507   4.733   5.539   3.511  0.7139  0.4679 -0.7365
  179SAPS   H7X20508   4.659   5.603   3.459  0.6884 -0.5090 -1.9340
  179SAPS   H7Y20509   4.829   5.595   3.513  0.6838  0.5325 -1.0736
  179SAPS   C3820510   4.683   5.515   3.657  0.1276 -1.3299  0.0829
  179SAPS   H8X20511   4.754   5.458   3.721  1.4560  3.7591  3.7542
  179SAPS   H8Y20512   4.583   5.466   3.656 -0.2721 -0.5303 -0.6724
  179SAPS   C3920513   4.676   5.645   3.733  0.0140  0.0977 -0.0053
  179SAPS   H9X20514   4.602   5.719   3.696 -0.3872  0.7715  2.0334
  179SAPS   H9Y20515   4.774   5.697   3.734 -0.5982  1.2794  0.6462
  179SAPS  C31020516   4.642   5.633   3.885 -0.1937  0.2282  0.3334
  179SAPS  H10X20517   4.700   5.542   3.910  1.7896  1.1126 -0.8219
  179SAPS  H10Y20518   4.535   5.610   3.904 -0.2860  1.4094  1.4230
  179SAPS  C31120519   4.692   5.747   3.965  0.3535  0.4186 -0.2172
  179SAPS  H11X20520   4.612   5.824   3.962 -2.1025 -2.0044 -0.1998
  179SAPS  H11Y20521   4.782   5.796   3.921 -1.2184  1.1131 -2.8913
  179SAPS  C31220522   4.712   5.708   4.114 -0.3786  0.1030  0.1900
  179SAPS  H12X20523   4.770   5.783   4.172  0.4419  0.2769 -0.8231
  179SAPS  H12Y20524   4.761   5.608   4.110  0.3369  0.4658 -3.0069
  179SAPS  C31320525   4.574   5.697   4.180  0.2544  0.0035 -0.8870
  179SAPS  H13X20526   4.519   5.614   4.130  1.0725 -1.4886  0.5422
  179SAPS  H13Y20527   4.523   5.792   4.157 -0.2798  0.8824  3.2084
  179SAPS  C31420528   4.562   5.690   4.338  1.0213 -0.2993  0.5425
  179SAPS  H14X20529   4.455   5.710   4.358  0.8872 -0.8528  0.4038
  179SAPS  H14Y20530   4.618   5.773   4.385  0.4311  0.5794 -0.2687
  179SAPS  C31520531   4.593   5.560   4.392 -1.3054 -0.5096 -1.0054
  179SAPS  H15X20532   4.577   5.571   4.501  0.3894  0.9136 -0.8586
  179SAPS  H15Y20533   4.697   5.523   4.378 -1.3885 -1.2971  0.3473
  179SAPS  C31620534   4.500   5.439   4.350  0.0009 -0.1936 -0.3287
  179SAPS  H16X20535   4.532   5.406   4.249  0.0870 -0.3112 -0.2630
  179SAPS  H16Y20536   4.393   5.470   4.349 -0.9289 -3.0757 -0.0037
  179SAPS  C31720537   4.528   5.319   4.438 -0.3037  0.7263 -0.0404
  179SAPS  H17X20538   4.508   5.344   4.544  0.4451 -1.6804  0.7267
  179SAPS  H17Y20539   4.637   5.304   4.429 -0.3560 -1.0514  1.6739
  179SAPS  C31820540   4.441   5.207   4.388 -0.2313 -0.0681 -0.9489
  179SAPS  H18X20541   4.440   5.184   4.279 -3.1369  1.1777 -1.2999
  179SAPS  H18Y20542   4.341   5.251   4.410  0.9039  1.8305  0.7056
  179SAPS  H18Z20543   4.445   5.118   4.453 -0.2034  0.9102  0.4290
  180SAPS     N20544   4.195   2.470   1.723  0.5373 -0.2638 -0.4949
  180SAPS   HN120545   4.170   2.502   1.818 -0.6194  0.3900 -1.0001
  180SAPS   HN220546   4.292   2.492   1.693  0.7734  3.1596  2.1316
  180SAPS   HN320547   4.132   2.527   1.662  1.5906 -2.0508 -3.4759
  180SAPS   C1220548   4.167   2.330   1.701  0.1535  0.1617 -0.3063
  180SAPS  H12A20549   4.061   2.328   1.724  0.2070  1.0806  0.0480
  180SAPS   C1320550   4.197   2.266   1.559 -0.1029 -1.2642 -0.2034
  180SAPS  O13A20551   4.230   2.350   1.471  0.1177  0.6642  0.8910
  180SAPS  O13B20552   4.160   2.150   1.540 -0.1558 -0.0260  0.7653
  180SAPS   C1120553   4.253   2.246   1.801 -0.6902  0.0987 -0.0190
  180SAPS  H11A20554   4.352   2.263   1.753  0.1850  0.1923  1.7157
  180SAPS  H11B20555   4.251   2.138   1.772  1.0167  0.8372 -3.3117
  180SAPS     P20556   4.116   2.223   2.017  0.0062 -0.1683 -0.1879
  180SAPS   O1320557   3.992   2.274   1.960  0.0185 -0.3801  0.0675
  180SAPS   O1420558   4.135   2.079   2.029 -0.6880 -0.6139 -0.3487
  180SAPS   O1220559   4.240   2.291   1.940 -0.4959  0.7763 -0.3631
  180SAPS   O1120560   4.134   2.276   2.167  0.1337 -0.2112  0.3323
  180SAPS    C120561   4.016   2.272   2.248  0.0145 -0.4299  0.3873
  180SAPS    HA20562   3.949   2.188   2.219  1.1791 -0.6282 -2.0240
  180SAPS    HB20563   4.058   2.265   2.350  5.0377  3.2605 -1.0601
  180SAPS    C220564   3.934   2.405   2.236 -0.0895  0.4741  0.3767
  180SAPS    HS20565   3.916   2.423   2.128  0.3575 -1.0762  0.0234
  180SAPS   O2120566   4.005   2.518   2.285 -0.5504  0.4176  0.6284
  180SAPS   C2120567   3.976   2.637   2.237  0.0576 -0.0003 -0.1804
  180SAPS   O2220568   3.888   2.664   2.157 -0.2210  0.0846  0.0556
  180SAPS   C2220569   4.070   2.736   2.295  0.3847 -0.2612 -0.1377
  180SAPS   H2R20570   4.155   2.740   2.223 -1.0812  1.0950 -1.8831
  180SAPS   H2S20571   4.030   2.839   2.291 -0.1759 -0.5161 -2.4520
  180SAPS    C320572   3.795   2.392   2.296  0.0360  0.1595  0.3782
  180SAPS    HX20573   3.748   2.296   2.266 -1.1560 -0.0369  2.6513
  180SAPS    HY20574   3.725   2.472   2.264 -1.2368 -1.0857 -0.0747
  180SAPS   O3120575   3.803   2.372   2.438  0.0503 -0.1436 -0.3026
  180SAPS   C3120576   3.727   2.454   2.511  0.6687 -0.4450 -0.2939
  180SAPS   O3220577   3.658   2.549   2.466  0.1185  0.0731  0.0955
  180SAPS   C3220578   3.708   2.395   2.653 -0.6953  0.0099  0.0039
  180SAPS   H2X20579   3.764   2.299   2.664 -1.9472 -0.8187 -0.5988
  180SAPS   H2Y20580   3.602   2.365   2.663 -0.4189 -2.1243 -2.3263
  180SAPS   C2320581   4.122   2.732   2.443  0.0986 -0.5412  0.3264
  180SAPS   H3R20582   4.203   2.657   2.459  0.4816 -0.2009  0.0007
  180SAPS   H3S20583   4.036   2.715   2.511 -2.1922  0.0897 -2.2313
  180SAPS   C2420584   4.203   2.863   2.479  0.2411  0.0252 -0.6383
  180SAPS   H4R20585   4.264   2.903   2.396  2.1134  0.0558  0.6943
  180SAPS   H4S20586   4.275   2.841   2.560 -2.0710  0.9598  1.8343
  180SAPS   C2520587   4.118   2.982   2.520  0.0227 -0.0607 -0.7923
  180SAPS   H5R20588   4.089   3.050   2.438  0.6919  2.2264  0.7715
  180SAPS   C2620589   4.068   3.006   2.638  0.3747  0.2710  0.2754
  180SAPS   H6R20590   4.006   3.097   2.640 -1.4280 -0.8938  0.0636
  180SAPS   C2720591   4.094   2.924   2.762  0.8484 -0.0619  0.1051
  180SAPS   H7R20592   4.114   2.992   2.848 -0.7115 -0.8636  1.1449
  180SAPS   H7S20593   4.186   2.863   2.751 -0.1605 -1.4244 -1.2184
  180SAPS   C2820594   3.971   2.842   2.790  1.1171 -0.0749  0.1878
  180SAPS   H8R20595   3.922   2.790   2.707 -0.4250  0.9910  0.3879
  180SAPS   C2920596   3.919   2.839   2.917 -0.3591  0.2184 -0.7081
  180SAPS   H9R20597   3.832   2.774   2.935  0.0497 -0.0740  0.2590
  180SAPS  C21020598   3.963   2.907   3.037 -0.5035 -0.2037  0.4451
  180SAPS  H10R20599   3.893   2.890   3.121  0.7473 -2.0383  1.1596
  180SAPS  H10S20600   3.966   3.016   3.014 -0.5464  0.0152  1.4221
  180SAPS  C21120601   4.101   2.876   3.089 -0.1566  0.0979 -0.0659
  180SAPS  H11R20602   4.171   2.846   3.010 -0.5932  2.8740 -1.6391
  180SAPS  C21220603   4.146   2.887   3.217  0.1846  0.2313  0.1947
  180SAPS  H12R20604   4.248   2.854   3.243 -0.1552 -0.2350  0.9706
  180SAPS  C21320605   4.066   2.930   3.330  0.5908 -0.2732 -0.3486
  180SAPS  H13R20606   3.986   2.997   3.291 -0.8295 -2.0253 -0.5628
  180SAPS  H13S20607   4.123   2.983   3.409 -0.5891 -1.5953  1.4784
  180SAPS  C21420608   4.010   2.803   3.392  0.0132 -0.0594 -0.4253
  180SAPS  H14R20609   3.965   2.737   3.317 -2.0958 -0.7884  1.3665
  180SAPS  C21520610   3.990   2.770   3.525  0.3513  0.4905  0.3860
  180SAPS  H15R20611   3.954   2.668   3.548  1.5453  0.2685  1.4358
  180SAPS  C21620612   4.022   2.847   3.657 -0.4524 -0.1957  0.6352
  180SAPS  H16R20613   4.100   2.925   3.644 -1.7129  0.7441 -2.1230
  180SAPS  H16S20614   4.069   2.783   3.735 -1.0270 -0.8649  0.4448
  180SAPS  C21720615   3.891   2.900   3.711  0.1947  0.3675  0.1088
  180SAPS  H17R20616   3.817   2.818   3.704 -0.5143  1.1178 -1.8587
  180SAPS  H17S20617   3.853   2.979   3.643  0.2876  0.7773  0.5211
  180SAPS  C21820618   3.899   2.938   3.862 -0.4682  0.6656 -0.2400
  180SAPS  H18R20619   3.985   3.008   3.875  1.6009 -0.9823 -3.6674
  180SAPS  H18S20620   3.943   2.856   3.924 -0.7650  0.5480 -0.1846
  180SAPS  C21920621   3.759   2.976   3.921 -0.8918  0.0194  1.0543
  180SAPS  H19R20622   3.684   2.900   3.888  0.3139  0.0938 -2.2346
  180SAPS  H19S20623   3.735   3.072   3.870  1.2058  0.1952  0.3185
  180SAPS  C22020624   3.757   2.986   4.072  0.3015 -0.2030 -0.2940
  180SAPS  H20R20625   3.654   3.004   4.109 -0.9289 -2.1697 -2.4940
  180SAPS  H20S20626   3.780   2.892   4.126 -0.8449  0.6915  1.8712
  180SAPS  H20T20627   3.831   3.064   4.100 -2.0481  2.3366 -0.7114
  180SAPS   C3320628   3.765   2.503   2.755  0.0078  0.0562 -0.5118
  180SAPS   H3X20629   3.695   2.589   2.756 -1.8239 -1.2710  3.1679
  180SAPS   H3Y20630   3.866   2.534   2.723 -0.6190  1.3025 -1.3829
  180SAPS   C3420631   3.786   2.453   2.901  0.4374  0.0119 -0.0251
  180SAPS   H4X20632   3.847   2.520   2.965  1.8178 -1.7603  0.5878
  180SAPS   H4Y20633   3.829   2.351   2.897  0.2411 -0.0292 -2.4176
  180SAPS   C3520634   3.649   2.432   2.975 -0.0266 -0.4175 -0.4338
  180SAPS   H5X20635   3.586   2.360   2.919 -0.2718  1.1071 -2.2345
  180SAPS   H5Y20636   3.592   2.527   2.983 -0.2426 -0.4106 -1.7657
  180SAPS   C3620637   3.673   2.375   3.119  0.5854  0.4862  0.3503
  180SAPS   H6X20638   3.746   2.291   3.116  1.2689  1.0643  0.6636
  180SAPS   H6Y20639   3.589   2.313   3.157  1.5668 -0.4809  0.9837
  180SAPS   C3720640   3.713   2.471   3.227 -0.3938 -0.3579 -0.2305
  180SAPS   H7X20641   3.656   2.566   3.230  2.8832  1.8118 -1.4271
  180SAPS   H7Y20642   3.818   2.501   3.208  0.3858 -1.8420  1.4477
  180SAPS   C3820643   3.717   2.402   3.363 -0.0659  0.2315 -0.6366
  180SAPS   H8X20644   3.793   2.321   3.367 -1.0395 -0.7287 -1.2468
  180SAPS   H8Y20645   3.613   2.366   3.381 -0.7021  2.9727  1.9153
  180SAPS   C3920646   3.743   2.496   3.484  0.4618 -0.6021 -0.3693
  180SAPS   H9X20647   3.677   2.585   3.477 -0.4135 -1.3123 -1.5636
  180SAPS   H9Y20648   3.852   2.517   3.488  0.3892 -0.4235  1.2849
  180SAPS  C31020649   3.701   2.435   3.618  0.0120 -0.4538  0.3823
  180SAPS  H10X20650   3.697   2.324   3.608 -1.1547 -0.3284 -0.8480
  180SAPS  H10Y20651   3.596   2.461   3.641  0.7378  1.0581  2.2556
  180SAPS  C31120652   3.782   2.473   3.747 -0.2957  0.0101 -0.3028
  180SAPS  H11X20653   3.773   2.580   3.776  0.5038  0.7689 -2.6516
  180SAPS  H11Y20654   3.889   2.458   3.722  0.1125 -0.1050  1.4027
  180SAPS  C31220655   3.743   2.382   3.862  0.4445  0.2107 -0.6121
  180SAPS  H12X20656   3.748   2.278   3.824  2.1880 -0.6770  1.8252
  180SAPS  H12Y20657   3.640   2.412   3.892  0.9390  0.7027  0.6398
  180SAPS  C31320658   3.842   2.419   3.971 -0.7024  0.4320 -0.3593
  180SAPS  H13X20659   3.820   2.523   4.005 -0.9888 -0.6464  3.2127
  180SAPS  H13Y20660   3.945   2.395   3.936 -1.1302 -0.0759 -1.2834
  180SAPS  C31420661   3.809   2.331   4.096 -0.2261 -0.0803 -0.3496
  180SAPS  H14X20662   3.897   2.341   4.162 -0.7709  0.5739  0.2987
  180SAPS  H14Y20663   3.805   2.222   4.071 -3.2319  0.2383 -1.8002
  180SAPS  C31520664   3.684   2.379   4.176 -0.1455 -0.1950  0.2363
  180SAPS  H15X20665   3.595   2.330   4.130 -0.2488 -1.1703  1.4305
  180SAPS  H15Y20666   3.671   2.489   4.170 -0.1823 -0.1505  1.0884
  180SAPS  C31620667   3.684   2.340   4.323 -0.1564 -0.5645 -0.6480
  180SAPS  H16X20668   3.772   2.384   4.375 -1.7446  1.2648  0.6420
  180SAPS  H16Y20669   3.687   2.230   4.339  2.4386 -0.4057  0.5094
  180SAPS  C31720670   3.559   2.407   4.393  0.1204 -0.0839  0.3354
  180SAPS  H17X20671   3.469   2.360   4.349 -0.0012 -3.0207  3.3522
  180SAPS  H17Y20672   3.568   2.516   4.371  0.2200  0.2607  1.9280
  180SAPS  C31820673   3.559   2.393   4.542  0.1887 -0.0338 -0.0413
  180SAPS  H18X20674   3.547   2.284   4.563  0.0134 -0.2619 -1.2931
  180SAPS  H18Y20675   3.479   2.453   4.590  1.8207  1.9283  0.3725
  180SAPS  H18Z20676   3.657   2.427   4.582  0.2484  1.4501 -1.3731
  181POPC     N20677   4.238   0.029   6.727 -0.6564  0.1834  0.4998
  181POPC   C1220678   4.174   0.146   6.657  0.3805  0.1260 -0.8611
  181POPC  H12A20679   4.073   0.125   6.626 -0.8429  0.3679  2.5493
  181POPC  H12B20680   4.233   0.181   6.574  0.7861  2.9316  0.5028
  181POPC   C1320681   4.162  -0.012   6.851  0.1560  0.1168  0.3657
  181POPC  H13A20682   4.062  -0.035   6.817  0.2837 -0.7518  0.5528
  181POPC  H13B20683   4.192  -0.107   6.892 -0.3037 -0.0051  0.4209
  181POPC  H13C20684   4.166   0.071   6.920  2.6912 -0.0433  0.5079
  181POPC   C1420685   4.253  -0.084   6.626 -0.3586  0.6113 -0.2783
  181POPC  H14A20686   4.282  -0.027   6.539  1.0553  0.7083  0.2357
  181POPC  H14B20687   4.332  -0.154   6.648 -0.1654  0.5620 -1.0860
  181POPC  H14C20688   4.157  -0.129   6.603  0.1206 -0.5489 -0.0796
  181POPC   C1520689   4.383   0.070   6.772  0.2717  0.1364  0.5960
  181POPC  H15A20690   4.449   0.072   6.686  0.7300 -1.9716  0.8412
  181POPC  H15B20691   4.417  -0.005   6.842 -1.8937  1.0638  2.7711
  181POPC  H15C20692   4.366   0.166   6.819 -1.2425 -0.0220  0.4130
  181POPC   C1120693   4.159   0.284   6.737  0.2766  0.2992 -0.3251
  181POPC  H11A20694   4.120   0.257   6.838  0.4230 -1.1049 -0.6304
  181POPC  H11B20695   4.075   0.346   6.700 -0.1768  0.1482  0.4270
  181POPC     P20696   4.340   0.453   6.629  0.1484  0.1399  0.2833
  181POPC   O1320697   4.335   0.377   6.500  0.0759 -0.4483  0.7266
  181POPC   O1420698   4.470   0.512   6.673  0.6963 -0.4382 -0.1878
  181POPC   O1220699   4.290   0.352   6.746  0.1287  0.0957 -0.3819
  181POPC   O1120700   4.241   0.570   6.627  0.8589 -0.8282  0.4344
  181POPC    C120701   4.143   0.581   6.514  0.0989 -0.4432  0.0760
  181POPC    HA20702   4.058   0.648   6.542 -0.7205 -0.8374 -1.3576
  181POPC    HB20703   4.090   0.487   6.487 -1.3127  0.8665 -2.0022
  181POPC    C220704   4.211   0.650   6.388 -0.6388 -0.0693 -0.1069
  181POPC    HS20705   4.276   0.575   6.338  0.7979  1.5190 -0.6951
  181POPC   O2120706   4.282   0.760   6.443 -0.2075  0.4944 -0.3655
  181POPC   C2120707   4.400   0.797   6.381  0.9156 -0.2712  0.1076
  181POPC   O2220708   4.448   0.746   6.280 -0.5687  0.1372 -0.3914
  181POPC   C2220709   4.454   0.918   6.448 -0.2207  0.3878  0.2043
  181POPC   H2R20710   4.511   0.893   6.540 -2.8482 -0.6201  1.6728
  181POPC   H2S20711   4.377   0.993   6.474 -1.0316 -0.4684  0.3078
  181POPC    C320712   4.114   0.719   6.293  0.5148  0.2110  0.2199
  181POPC    HX20713   4.052   0.807   6.322  0.2155  0.2852 -0.6229
  181POPC    HY20714   4.041   0.635   6.290  0.3619  0.2096  2.3707
  181POPC   O3120715   4.174   0.758   6.170 -0.3771  0.0190  0.3597
  181POPC   C3120716   4.136   0.694   6.058 -0.3008  0.4482 -0.1865
  181POPC   O3220717   4.058   0.601   6.048 -0.0094 -0.1929  0.5102
  181POPC   C3220718   4.207   0.765   5.951 -0.2160  0.3729 -0.7398
  181POPC   H2X20719   4.318   0.760   5.961 -0.2379  3.1247  2.7362
  181POPC   H2Y20720   4.186   0.871   5.977  0.7574  0.3502  0.2411
  181POPC   C2320721   4.540   0.998   6.349  0.1109  1.0337 -0.5645
  181POPC   H3R20722   4.607   0.931   6.291  1.3448  0.2380  1.6661
  181POPC   H3S20723   4.600   1.069   6.410 -2.7675  1.6534  1.7129
  181POPC   C2420724   4.444   1.084   6.259 -0.7751  0.3383 -0.5831
  181POPC   H4R20725   4.420   1.169   6.325 -2.6947 -0.0693 -0.6815
  181POPC   H4S20726   4.352   1.025   6.234 -1.0829  0.4131  0.3555
  181POPC   C2520727   4.505   1.140   6.128  0.6084 -0.2793  0.3406
  181POPC   H5R20728   4.549   1.056   6.070  0.9623  0.1043  0.0477
  181POPC   H5S20729   4.599   1.193   6.154  1.3642 -0.2665 -2.1413
  181POPC   C2620730   4.407   1.225   6.034 -0.9036 -0.4331 -0.9139
  181POPC   H6R20731   4.468   1.295   5.973  0.9144  1.2189  2.5139
  181POPC   H6S20732   4.344   1.294   6.095  0.6589  0.4437 -0.2205
  181POPC   C2720733   4.302   1.144   5.950 -0.1778 -0.5309 -0.1549
  181POPC   H7R20734   4.266   1.073   6.028  0.7517 -0.1584  0.6348
  181POPC   H7S20735   4.364   1.093   5.873  0.9487 -0.4242  0.6671
  181POPC   C2820736   4.183   1.220   5.884  0.5238 -0.4364  0.1778
  181POPC   H8R20737   4.111   1.255   5.961  0.3174  0.9228 -0.5822
  181POPC   H8S20738   4.126   1.148   5.822 -0.6294  1.2951 -0.8874
  181POPC   C2920739   4.220   1.346   5.813  0.4619 -0.3728  0.2625
  181POPC   H9120740   4.263   1.422   5.879  2.6686 -1.2539 -0.0965
  181POPC  C21020741   4.196   1.376   5.683  0.0386  0.4876  0.3877
  181POPC  H10120742   4.236   1.468   5.639  2.0024 -1.3532 -1.9199
  181POPC  C21120743   4.148   1.279   5.578 -0.3155  0.6588  0.3626
  181POPC  H11R20744   4.144   1.178   5.623  0.9231 -0.0064 -0.9625
  181POPC  H11S20745   4.217   1.280   5.492 -0.5396 -1.3459  0.1109
  181POPC  C21220746   3.997   1.300   5.529  0.0306  0.5828 -0.5731
  181POPC  H12R20747   3.927   1.293   5.614 -0.6416  1.3453 -1.0489
  181POPC  H12S20748   3.961   1.222   5.458 -0.4551 -1.2662  1.6025
  181POPC  C21320749   3.960   1.436   5.462  0.1991  0.3916 -0.6188
  181POPC  H13R20750   4.001   1.521   5.520  2.5820 -1.4273  0.5349
  181POPC  H13S20751   3.851   1.427   5.442  0.1613 -1.8149  0.3306
  181POPC  C21420752   4.018   1.456   5.328 -0.0987  0.4884 -0.2584
  181POPC  H14R20753   4.025   1.365   5.264  3.5257  1.0017 -0.7919
  181POPC  H14S20754   4.123   1.488   5.341 -0.4756  1.1847  1.2828
  181POPC  C21520755   3.925   1.558   5.254  0.3924  0.6762 -1.3053
  181POPC  H15R20756   3.925   1.655   5.307  0.7678  0.2419 -0.4904
  181POPC  H15S20757   3.823   1.514   5.263  0.7502  0.1362  0.3782
  181POPC  C21620758   3.953   1.585   5.111  0.4440  0.1784  0.8194
  181POPC  H16R20759   3.873   1.649   5.067  0.6472  0.1995  0.4843
  181POPC  H16S20760   3.959   1.491   5.053  1.7090  1.3501 -1.0579
  181POPC  C21720761   4.095   1.650   5.091  0.2568 -0.3750 -0.5056
  181POPC  H17R20762   4.173   1.590   5.142 -0.3526 -2.7094 -2.1273
  181POPC  H17S20763   4.091   1.748   5.142 -0.7194 -0.0799 -1.1273
  181POPC  C21820764   4.143   1.674   4.950 -0.3889 -0.1907  0.1539
  181POPC  H18R20765   4.080   1.747   4.894 -0.9774  2.9259  4.4195
  181POPC  H18S20766   4.143   1.575   4.900  2.7197 -0.1009 -0.1877
  181POPC  H18T20767   4.246   1.715   4.947  0.5050 -2.3536 -1.8322
  181POPC   C3320768   4.166   0.714   5.813  0.1041  0.1333  0.8584
  181POPC   H3X20769   4.059   0.729   5.790 -0.0015 -0.5535  0.8825
  181POPC   H3Y20770   4.195   0.607   5.811  1.3326  0.4434  0.7176
  181POPC   C3420771   4.257   0.777   5.704  0.0672 -0.1114 -0.1191
  181POPC   H4X20772   4.364   0.748   5.702  0.8074  2.3923 -1.9492
  181POPC   H4Y20773   4.255   0.888   5.707  0.9927 -0.1008  1.0905
  181POPC   C3520774   4.186   0.755   5.566 -0.4661 -0.2894  0.1244
  181POPC   H5X20775   4.088   0.807   5.578 -0.8056 -1.2188  1.7211
  181POPC   H5Y20776   4.162   0.647   5.555  1.1640 -0.5928 -0.7452
  181POPC   C3620777   4.254   0.809   5.438 -0.5675  0.5762 -0.4015
  181POPC   H6X20778   4.178   0.793   5.358 -1.5374  2.1631  0.1456
  181POPC   H6Y20779   4.353   0.759   5.425 -1.2488 -0.7327 -0.7353
  181POPC   C3720780   4.277   0.961   5.451  0.0516  0.0467 -0.1113
  181POPC   H7X20781   4.352   0.976   5.532 -0.5901  1.5827  0.2253
  181POPC   H7Y20782   4.192   1.028   5.476  1.0646  1.6323 -0.7518
  181POPC   C3820783   4.339   1.025   5.324  0.8487 -0.4140  0.4037
  181POPC   H8X20784   4.406   0.949   5.278  1.5950  0.5270 -0.0904
  181POPC   H8Y20785   4.386   1.120   5.355 -1.3147  0.3254  1.6413
  181POPC   C3920786   4.236   1.064   5.206  0.3833 -0.5883 -0.1844
  181POPC   H9X20787   4.175   1.149   5.244  1.0549 -0.7356  1.3029
  181POPC   H9Y20788   4.167   0.980   5.185 -0.4115  0.3574 -1.4901
  181POPC  C31020789   4.286   1.125   5.075  0.2780  0.3055 -0.5707
  181POPC  H10X20790   4.353   1.052   5.025  1.7375  1.5724 -0.5015
  181POPC  H10Y20791   4.341   1.217   5.103 -0.1881  1.1920 -2.4184
  181POPC  C31120792   4.171   1.173   4.987  0.1763  0.4905 -0.5754
  181POPC  H11X20793   4.130   1.261   5.042 -1.0881 -0.5310  0.1851
  181POPC  H11Y20794   4.097   1.092   4.968 -0.0653  0.5783 -0.0399
  181POPC  C31220795   4.231   1.228   4.856 -0.1475 -0.2568  0.3909
  181POPC  H12X20796   4.305   1.154   4.819  0.4953  0.6655 -0.2326
  181POPC  H12Y20797   4.290   1.321   4.874 -0.4027 -0.0482  0.1561
  181POPC  C31320798   4.134   1.262   4.739  0.8613 -0.0171 -0.1491
  181POPC  H13X20799   4.059   1.334   4.779  1.6984  0.6600  0.2281
  181POPC  H13Y20800   4.075   1.177   4.699 -2.4918  0.2116  3.6915
  181POPC  C31420801   4.196   1.333   4.617  0.4277 -0.2920 -0.0987
  181POPC  H14X20802   4.279   1.271   4.574  1.1626  0.6578 -0.0968
  181POPC  H14Y20803   4.243   1.427   4.653 -1.8106  0.9616 -0.3040
  181POPC  C31520804   4.085   1.371   4.516  0.1536 -0.8337  0.1605
  181POPC  H15X20805   3.988   1.398   4.562 -0.7566 -0.2276 -1.9941
  181POPC  H15Y20806   4.060   1.277   4.463 -3.5469  0.3776 -0.5516
  181POPC  C31620807   4.133   1.473   4.413 -0.6256  0.0852 -0.4638
  181POPC  H16X20808   4.227   1.437   4.366  0.9237  1.4653  1.3973
  181POPC  H16Y20809   4.156   1.566   4.469  2.5646  0.8386 -2.7463
  181POPC  H16Z20810   4.067   1.495   4.326 -0.1119  2.4755 -0.3078
  182POPC     N20811   2.558   5.533   6.608  0.3067 -0.3470  0.3440
  182POPC   C1220812   2.682   5.460   6.642 -0.2578  0.2956  0.1808
  182POPC  H12A20813   2.715   5.501   6.736  0.2798  2.0526 -0.7227
  182POPC  H12B20814   2.762   5.486   6.574  0.1046  1.3077  0.9799
  182POPC   C1320815   2.442   5.480   6.688 -0.3121 -0.0267  0.0428
  182POPC  H13A20816   2.353   5.540   6.681  0.5836  1.4777  0.9318
  182POPC  H13B20817   2.419   5.381   6.652 -0.0086 -0.8652  2.0031
  182POPC  H13C20818   2.466   5.466   6.792 -0.6558  0.6233  0.2138
  182POPC   C1420819   2.586   5.680   6.634 -0.6030 -0.3225  0.6006
  182POPC  H14A20820   2.502   5.747   6.620 -0.4905 -0.0615  1.1333
  182POPC  H14B20821   2.636   5.693   6.729  1.2171 -2.2614  0.0006
  182POPC  H14C20822   2.656   5.718   6.560 -3.4587 -0.0945 -2.2110
  182POPC   C1520823   2.532   5.519   6.460  0.1095  0.4795 -0.5707
  182POPC  H15A20824   2.614   5.551   6.398  1.2402 -1.1774  0.0120
  182POPC  H15B20825   2.439   5.571   6.441 -0.9551 -1.1196  0.0967
  182POPC  H15C20826   2.502   5.416   6.450 -1.4652  0.5512  2.3442
  182POPC   C1120827   2.702   5.303   6.662  0.4248 -0.9622 -0.4631
  182POPC  H11A20828   2.643   5.278   6.752 -0.9740  0.0798 -1.0603
  182POPC  H11B20829   2.806   5.264   6.672 -0.0911 -2.3032 -0.1157
  182POPC     P20830   2.548   5.121   6.554  0.1590  0.0941 -0.0753
  182POPC   O1320831   2.428   5.201   6.561  0.6207  0.2424 -0.0869
  182POPC   O1420832   2.592   5.033   6.663  0.6074  0.0710  0.4476
  182POPC   O1220833   2.651   5.233   6.545 -0.1591 -0.2589  0.0286
  182POPC   O1120834   2.567   5.050   6.415  0.2509  0.2097 -0.0338
  182POPC    C120835   2.666   5.086   6.315 -0.8562 -0.1013 -0.4035
  182POPC    HA20836   2.693   5.000   6.250 -0.7683  0.8568 -1.6912
  182POPC    HB20837   2.759   5.122   6.364 -1.5841 -0.0601  0.9884
  182POPC    C220838   2.619   5.196   6.219 -0.3024  0.6960  0.2110
  182POPC    HS20839   2.632   5.285   6.284  0.4190  0.8621 -0.1559
  182POPC   O2120840   2.485   5.173   6.167 -0.8111  0.0764  0.4710
  182POPC   C2120841   2.418   5.290   6.138 -0.6109 -0.0512 -0.1845
  182POPC   O2220842   2.466   5.399   6.166  0.4514  0.4524  0.2139
  182POPC   C2220843   2.300   5.261   6.054  0.5255 -0.4287 -0.0863
  182POPC   H2R20844   2.236   5.350   6.039  0.7741 -0.5330 -2.0015
  182POPC   H2S20845   2.241   5.189   6.114  2.8276 -0.7909  1.9093
  182POPC    C320846   2.725   5.217   6.106 -0.0823 -1.0525 -0.4342
  182POPC    HX20847   2.721   5.129   6.038  1.5810  0.5555 -2.8040
  182POPC    HY20848   2.832   5.207   6.137 -0.2991 -1.1084  0.3061
  182POPC   O3120849   2.692   5.330   6.023  0.5496 -0.8921 -0.5814
  182POPC   C3120850   2.714   5.452   6.075 -0.2894 -0.1666  0.3162
  182POPC   O3220851   2.772   5.472   6.181  0.0177  0.5759  0.1467
  182POPC   C3220852   2.681   5.558   5.971  0.1099  0.3555  0.8618
  182POPC   H2X20853   2.640   5.644   6.028  0.6138  0.0517  1.7147
  182POPC   H2Y20854   2.606   5.515   5.902  0.4338 -0.9866  1.3131
  182POPC   C2320855   2.341   5.192   5.926 -0.1817  0.3115  0.3560
  182POPC   H3R20856   2.245   5.147   5.891 -0.2569 -1.2054  2.3638
  182POPC   H3S20857   2.406   5.102   5.930  0.1045  0.4812 -0.2671
  182POPC   C2420858   2.397   5.299   5.820  0.0779 -0.6008  0.1455
  182POPC   H4R20859   2.494   5.337   5.859  0.8194 -2.4189  0.1440
  182POPC   H4S20860   2.322   5.381   5.827  0.0276 -0.5312 -1.0069
  182POPC   C2520861   2.405   5.247   5.681 -0.0285  0.3419 -0.5465
  182POPC   H5R20862   2.312   5.188   5.665  0.5585 -0.1654 -2.3212
  182POPC   H5S20863   2.490   5.175   5.680  1.2410  1.7132  1.0997
  182POPC   C2620864   2.432   5.345   5.573 -0.3023 -0.2053  0.3155
  182POPC   H6R20865   2.522   5.408   5.591 -1.0166  0.7593  0.5726
  182POPC   H6S20866   2.351   5.421   5.560 -0.8520 -0.8608 -0.1762
  182POPC   C2720867   2.440   5.276   5.436 -0.2387 -0.1179 -0.1112
  182POPC   H7R20868   2.351   5.211   5.426  0.3805 -1.1114  0.6126
  182POPC   H7S20869   2.523   5.202   5.426 -0.1854 -0.0405 -0.2382
  182POPC   C2820870   2.443   5.369   5.314 -0.3537 -0.5850 -0.2803
  182POPC   H8R20871   2.537   5.428   5.310 -0.1817 -0.9153 -2.0231
  182POPC   H8S20872   2.361   5.443   5.325  1.3168  1.1716  1.1551
  182POPC   C2920873   2.429   5.290   5.186 -0.7144  0.6034 -0.1319
  182POPC   H9120874   2.353   5.211   5.194 -0.7412  0.6072 -0.3359
  182POPC  C21020875   2.490   5.304   5.069  0.2197  0.2985 -0.2630
  182POPC  H10120876   2.465   5.230   4.992 -0.5757 -3.6893  3.4597
  182POPC  C21120877   2.590   5.406   5.020  0.2674  0.4573  0.1576
  182POPC  H11R20878   2.690   5.358   5.018  0.4767  0.9104 -0.3470
  182POPC  H11S20879   2.592   5.485   5.098  1.6431  0.3080  0.2832
  182POPC  C21220880   2.568   5.453   4.878 -0.4411  0.4402  0.3958
  182POPC  H12R20881   2.541   5.369   4.810 -2.0620  0.5556  0.8593
  182POPC  H12S20882   2.656   5.507   4.836  0.1551 -0.8713 -0.0796
  182POPC  C21320883   2.454   5.557   4.869  0.5068  0.3906  0.3894
  182POPC  H13R20884   2.489   5.651   4.915  0.2015  0.2690  0.8803
  182POPC  H13S20885   2.368   5.516   4.926 -0.5610 -0.6586 -1.8475
  182POPC  C21420886   2.402   5.584   4.728 -0.1996  0.2508 -0.0048
  182POPC  H14R20887   2.320   5.657   4.714 -1.5080 -1.3576 -1.3378
  182POPC  H14S20888   2.342   5.495   4.697 -1.5478  1.3774 -0.7483
  182POPC  C21520889   2.494   5.610   4.615  0.1060  0.8669 -0.2439
  182POPC  H15R20890   2.590   5.554   4.616 -0.8428 -0.8473  0.2937
  182POPC  H15S20891   2.517   5.718   4.618  1.8169  0.5262 -0.1133
  182POPC  C21620892   2.444   5.561   4.474  0.3813  0.5362  0.9384
  182POPC  H16R20893   2.465   5.453   4.458 -1.6306  0.5400 -2.6181
  182POPC  H16S20894   2.508   5.621   4.406  0.9550  0.3918  1.3419
  182POPC  C21720895   2.296   5.584   4.441  0.4147  0.1986 -0.1936
  182POPC  H17R20896   2.271   5.685   4.479  0.1185 -0.2052  0.6875
  182POPC  H17S20897   2.227   5.519   4.497  1.5865 -3.4794 -2.6707
  182POPC  C21820898   2.256   5.575   4.292  0.6702  0.5138 -0.5383
  182POPC  H18R20899   2.321   5.645   4.236  1.0948 -0.9020 -1.8632
  182POPC  H18S20900   2.153   5.615   4.276  0.0904  0.1641  1.8478
  182POPC  H18T20901   2.273   5.469   4.264  1.4212  0.6897 -0.7464
  182POPC   C3320902   2.800   5.616   5.885 -0.6040 -0.5972  0.0796
  182POPC   H3X20903   2.904   5.606   5.922  0.3421 -2.1823 -2.7088
  182POPC   H3Y20904   2.786   5.726   5.874 -0.1744 -0.4486  0.9369
  182POPC   C3420905   2.791   5.548   5.747  0.2359  0.5985 -0.1493
  182POPC   H4X20906   2.684   5.543   5.719 -0.0550 -0.2342  1.0024
  182POPC   H4Y20907   2.848   5.453   5.750  0.4990  0.7700  0.6783
  182POPC   C3520908   2.838   5.630   5.632 -0.1232 -0.2712  0.4127
  182POPC   H5X20909   2.933   5.684   5.656 -1.3389  2.6097 -0.7966
  182POPC   H5Y20910   2.769   5.715   5.616  0.5273 -0.2258 -2.6437
  182POPC   C3620911   2.856   5.558   5.495  0.0773  0.2740 -0.8700
  182POPC   H6X20912   2.766   5.496   5.471  0.1189 -0.3450  0.4823
  182POPC   H6Y20913   2.928   5.475   5.515 -1.1967 -0.0790  3.3294
  182POPC   C3720914   2.899   5.645   5.382 -0.1489 -0.1388  0.7294
  182POPC   H7X20915   2.997   5.690   5.412  0.5020  1.0087 -2.6029
  182POPC   H7Y20916   2.826   5.727   5.369  1.7126  1.5486  0.3521
  182POPC   C3820917   2.910   5.565   5.247  0.3564  0.0461  0.6345
  182POPC   H8X20918   2.824   5.497   5.230 -0.0914  0.0802  2.5671
  182POPC   H8Y20919   2.995   5.495   5.264 -0.7708 -1.7582 -0.7103
  182POPC   C3920920   2.935   5.659   5.122 -0.9622 -0.0664  0.0243
  182POPC   H9X20921   2.958   5.586   5.042  1.8653 -1.3693  1.8783
  182POPC   H9Y20922   3.032   5.706   5.150 -0.4956 -0.7705 -0.3884
  182POPC  C31020923   2.825   5.762   5.091 -0.5531  0.0230 -0.0826
  182POPC  H10X20924   2.826   5.823   5.184  1.5268 -1.8775  1.2388
  182POPC  H10Y20925   2.729   5.707   5.098 -0.4573 -0.0590  0.6870
  182POPC  C31120926   2.839   5.847   4.963  0.6245  0.3789 -0.3236
  182POPC  H11X20927   2.942   5.887   4.976  2.0928 -1.4294 -4.6065
  182POPC  H11Y20928   2.763   5.928   4.962  0.9521  0.6843 -1.3868
  182POPC  C31220929   2.820   5.765   4.835  0.2752 -0.1966  0.0424
  182POPC  H12X20930   2.726   5.707   4.843 -0.4597  0.9069 -0.3429
  182POPC  H12Y20931   2.917   5.712   4.820  1.1009  1.1449  0.3965
  182POPC  C31320932   2.810   5.866   4.715 -0.7105  0.3763 -0.0794
  182POPC  H13X20933   2.721   5.931   4.730 -1.2807 -0.6221  1.0198
  182POPC  H13Y20934   2.783   5.807   4.625  1.8024  1.2166 -1.4767
  182POPC  C31420935   2.941   5.937   4.675  0.4141 -0.7964 -0.0267
  182POPC  H14X20936   3.019   5.861   4.654  0.0074 -0.5163 -2.9508
  182POPC  H14Y20937   2.970   6.000   4.761 -1.4311 -0.6063  0.4972
  182POPC  C31520938   2.913   6.019   4.541  0.7400  0.1589  0.8710
  182POPC  H15X20939   3.001   6.082   4.517  0.1455  0.3234 -1.0704
  182POPC  H15Y20940   2.824   6.083   4.560 -0.3884 -0.4490 -1.9212
  182POPC  C31620941   2.908   5.932   4.417 -0.7944  0.5752 -0.0883
  182POPC  H16X20942   2.844   5.842   4.426  0.3958 -0.3059 -0.1513
  182POPC  H16Y20943   3.011   5.901   4.388 -0.1288  1.6291  1.0862
  182POPC  H16Z20944   2.872   5.995   4.333 -0.7470  2.1132  1.0140
  183POPC     N20945   5.512   5.615   6.737 -0.4391  0.1030 -0.3370
  183POPC   C1220946   5.363   5.644   6.733  0.6391  0.5698 -0.7836
  183POPC  H12A20947   5.314   5.581   6.661 -2.2206 -0.7926  2.0871
  183POPC  H12B20948   5.357   5.747   6.701  0.9985  0.7627 -0.2604
  183POPC   C1320949   5.582   5.716   6.819  0.0218  0.0158 -0.1844
  183POPC  H13A20950   5.676   5.672   6.850 -0.6981 -1.6323 -0.2400
  183POPC  H13B20951   5.613   5.809   6.773  4.3275 -1.8227 -1.4627
  183POPC  H13C20952   5.526   5.745   6.907 -0.7144 -0.3231 -0.5369
  183POPC   C1420953   5.542   5.486   6.814  0.3736 -0.2167  0.2512
  183POPC  H14A20954   5.644   5.484   6.850  0.0620 -0.6684  1.1300
  183POPC  H14B20955   5.473   5.471   6.896  0.4414  0.3154  0.4109
  183POPC  H14C20956   5.523   5.405   6.746  0.7786  0.8682 -1.2092
  183POPC   C1520957   5.571   5.626   6.598  0.0391 -0.3050  0.2418
  183POPC  H15A20958   5.674   5.594   6.595 -0.0287 -0.4655 -0.8806
  183POPC  H15B20959   5.569   5.730   6.571  0.9425 -0.4245 -0.3360
  183POPC  H15C20960   5.519   5.565   6.525 -0.8259 -0.6305  1.0994
  183POPC   C1120961   5.276   5.627   6.863  0.1360 -0.4791  0.2837
  183POPC  H11A20962   5.181   5.682   6.846 -0.7853 -2.1512 -0.1680
  183POPC  H11B20963   5.337   5.670   6.946  1.4982  0.3948 -1.1294
  183POPC     P20964   5.145   5.413   6.793  0.4051 -0.1048 -0.3349
  183POPC   O1320965   5.014   5.483   6.795  0.3106  0.2189  0.3773
  183POPC   O1420966   5.148   5.267   6.834 -0.1337 -0.2405  0.4920
  183POPC   O1220967   5.239   5.492   6.894  0.4943  0.7703  0.4858
  183POPC   O1120968   5.213   5.427   6.652 -0.0557 -0.2141  0.1656
  183POPC    C120969   5.261   5.311   6.583 -0.5797  0.2644 -0.0721
  183POPC    HA20970   5.170   5.252   6.558 -0.1196  0.2499 -1.9104
  183POPC    HB20971   5.329   5.248   6.643  1.3830  1.0265 -1.3834
  183POPC    C220972   5.345   5.339   6.448  0.3003 -0.6431 -0.8067
  183POPC    HS20973   5.444   5.385   6.467  0.7352 -0.9352 -2.2219
  183POPC   O2120974   5.263   5.426   6.368 -0.3335 -0.2422 -0.1856
  183POPC   C2120975   5.323   5.535   6.324 -0.5763 -0.9239 -0.1126
  183POPC   O2220976   5.432   5.579   6.358 -0.7340  0.3902 -0.3246
  183POPC   C2220977   5.230   5.612   6.236  0.6015 -0.1591  0.5692
  183POPC   H2R20978   5.142   5.651   6.293  1.1449  2.6011 -0.3120
  183POPC   H2S20979   5.188   5.542   6.161  1.0512  0.8990 -0.7044
  183POPC    C320980   5.379   5.202   6.386  0.1888 -0.0426  0.5113
  183POPC    HX20981   5.293   5.134   6.407  0.5412 -0.3342  1.0347
  183POPC    HY20982   5.458   5.152   6.447 -0.0251 -0.6493  0.3072
  183POPC   O3120983   5.420   5.216   6.249 -0.2995  0.5045 -0.8496
  183POPC   C3120984   5.331   5.224   6.161  0.1049  0.1397 -0.0090
  183POPC   O3220985   5.207   5.221   6.183 -0.1851 -0.1801  0.2767
  183POPC   C3220986   5.401   5.265   6.029  0.3720  0.5215  0.1609
  183POPC   H2X20987   5.489   5.199   6.011 -0.3299 -1.4312  3.1023
  183POPC   H2Y20988   5.432   5.371   6.024  2.1537  0.0288 -0.0033
  183POPC   C2320989   5.300   5.733   6.161  0.1747 -0.0881 -0.3974
  183POPC   H3R20990   5.371   5.797   6.218  2.0312 -1.1170 -1.4624
  183POPC   H3S20991   5.215   5.794   6.122 -0.4788 -1.9561 -2.0468
  183POPC   C2420992   5.359   5.683   6.024 -0.0657 -0.6830  0.0355
  183POPC   H4R20993   5.282   5.623   5.970  0.7047  0.0434 -1.9796
  183POPC   H4S20994   5.447   5.620   6.048  1.2866  0.9809 -0.4164
  183POPC   C2520995   5.412   5.801   5.942 -0.0315  0.4901 -0.2990
  183POPC   H5R20996   5.444   5.763   5.843  1.3911 -1.2986  0.7636
  183POPC   H5S20997   5.505   5.838   5.992 -1.2423 -0.8061  3.2444
  183POPC   C2620998   5.319   5.919   5.912 -0.2589 -0.1876  0.1597
  183POPC   H6R20999   5.268   5.962   6.000 -2.2122  1.2608 -1.5913
  183POPC   H6S21000   5.230   5.873   5.864 -0.3681  0.8573 -0.6709
  183POPC   C2721001   5.391   6.035   5.851 -0.0565  0.1861  0.3814
  183POPC   H7R21002   5.473   6.067   5.919  0.8883  1.5688 -1.2972
  183POPC   H7S21003   5.324   6.123   5.846 -1.4597 -0.8848 -0.1660
  183POPC   C2821004   5.458   6.012   5.709  0.3239 -0.6802 -0.2020
  183POPC   H8R21005   5.544   5.942   5.712  0.2326 -0.7902 -0.1626
  183POPC   H8S21006   5.492   6.113   5.676 -1.0483 -0.2580 -0.4125
  183POPC   C2921007   5.347   5.966   5.620 -0.8584 -1.1630  0.3163
  183POPC   H9121008   5.254   6.024   5.628  0.6785  1.4920  0.1972
  183POPC  C21021009   5.354   5.874   5.529 -0.6423 -0.5357  0.9151
  183POPC  H10121010   5.270   5.848   5.463  1.1709  0.1555 -1.8356
  183POPC  C21121011   5.469   5.779   5.497  0.4137 -0.2142 -0.2909
  183POPC  H11R21012   5.436   5.674   5.511  0.0219  0.0622  0.9975
  183POPC  H11S21013   5.558   5.802   5.560  1.4866 -0.9029 -1.5002
  183POPC  C21221014   5.505   5.809   5.344  1.0712 -0.3125 -1.0619
  183POPC  H12R21015   5.612   5.786   5.322  1.3194 -0.4445  0.2028
  183POPC  H12S21016   5.485   5.916   5.321 -0.5609 -0.2623  0.4057
  183POPC  C21321017   5.417   5.725   5.246 -0.3183 -0.4231  0.2266
  183POPC  H13R21018   5.326   5.788   5.246 -0.1136 -0.1255  0.1644
  183POPC  H13S21019   5.395   5.626   5.291  0.4285 -0.4127  0.6246
  183POPC  C21421020   5.481   5.731   5.108 -0.5276  0.3952  0.9363
  183POPC  H14R21021   5.566   5.659   5.108 -1.1743 -0.3825  0.4721
  183POPC  H14S21022   5.512   5.837   5.103  0.3458  0.1205  0.3858
  183POPC  C21521023   5.386   5.722   4.997 -0.1799 -0.2566 -0.2873
  183POPC  H15R21024   5.293   5.766   5.039 -0.1334  0.4800 -0.9283
  183POPC  H15S21025   5.358   5.619   4.966  2.6023 -0.5774 -2.1564
  183POPC  C21621026   5.440   5.782   4.871 -0.4038 -0.4665  0.0658
  183POPC  H16R21027   5.532   5.721   4.858  0.5334  0.8194  0.5022
  183POPC  H16S21028   5.476   5.887   4.877 -0.0850 -0.5537 -0.2456
  183POPC  C21721029   5.357   5.765   4.747 -0.1084  0.7796  0.1689
  183POPC  H17R21030   5.266   5.828   4.756 -0.9303 -0.3233 -0.2300
  183POPC  H17S21031   5.318   5.661   4.750 -0.1008  0.7883  2.3484
  183POPC  C21821032   5.442   5.789   4.616 -0.3305  0.3884 -0.9520
  183POPC  H18R21033   5.517   5.709   4.597 -1.2852 -0.5195 -0.9379
  183POPC  H18S21034   5.495   5.887   4.617  0.6062 -0.1016 -1.1381
  183POPC  H18T21035   5.373   5.778   4.530 -3.4522 -1.2113  1.5602
  183POPC   C3321036   5.305   5.243   5.915 -0.3248  0.1636  0.0431
  183POPC   H3X21037   5.351   5.283   5.823 -0.9292 -1.0225 -0.7920
  183POPC   H3Y21038   5.205   5.290   5.932  1.2735  3.3971  1.3361
  183POPC   C3421039   5.290   5.096   5.861  0.6928  0.2998  0.1441
  183POPC   H4X21040   5.262   5.034   5.950 -1.8597  0.3287 -0.5491
  183POPC   H4Y21041   5.382   5.070   5.805  1.6584  1.2386  1.2547
  183POPC   C3521042   5.170   5.089   5.774 -0.0530  0.5487 -0.2355
  183POPC   H5X21043   5.186   5.147   5.681  2.2446  0.2636 -0.0719
  183POPC   H5Y21044   5.090   5.144   5.828  1.8839  1.8650  1.4906
  183POPC   C3621045   5.129   4.942   5.747  0.6812 -0.4719  0.0269
  183POPC   H6X21046   5.054   4.907   5.821 -0.7779 -0.3140 -1.3434
  183POPC   H6Y21047   5.218   4.874   5.748  2.5907  1.8211 -1.8963
  183POPC   C3721048   5.042   4.930   5.615  0.1959  0.0182 -0.2280
  183POPC   H7X21049   4.978   5.021   5.609  0.2244  0.1105  0.7139
  183POPC   H7Y21050   4.967   4.851   5.634  0.9378 -0.5364  0.4768
  183POPC   C3821051   5.123   4.931   5.488 -0.4405  0.7586  0.2662
  183POPC   H8X21052   5.160   4.827   5.472  0.7477  1.2284 -0.1430
  183POPC   H8Y21053   5.214   4.992   5.504  1.1560 -1.4433  0.1261
  183POPC   C3921054   5.059   4.980   5.354 -0.3334 -0.2002  0.7418
  183POPC   H9X21055   5.135   4.991   5.274 -0.2957  0.3736  0.8568
  183POPC   H9Y21056   5.029   5.084   5.377  0.0754  0.1298 -0.1854
  183POPC  C31021057   4.935   4.905   5.312  0.4154  0.0382  0.2105
  183POPC  H10X21058   4.856   4.879   5.386 -0.8791  0.1076 -1.1058
  183POPC  H10Y21059   4.956   4.800   5.283 -0.4966 -0.5955  1.6957
  183POPC  C31121060   4.871   4.983   5.187 -0.4340 -0.4892  0.2103
  183POPC  H11X21061   4.954   5.016   5.120  0.1878 -1.6111  0.4077
  183POPC  H11Y21062   4.802   5.065   5.215  0.8569  0.9442 -0.6155
  183POPC  C31221063   4.791   4.883   5.115  0.6274  0.8451 -0.4649
  183POPC  H12X21064   4.724   4.825   5.182 -3.8809  0.6337 -4.5909
  183POPC  H12Y21065   4.861   4.809   5.071  0.9304 -0.4504  2.0093
  183POPC  C31321066   4.697   4.947   5.010  0.1443  0.0419 -0.1796
  183POPC  H13X21067   4.743   4.958   4.909  1.4138  1.3397  0.5061
  183POPC  H13Y21068   4.681   5.053   5.040 -1.9057  0.0917 -1.2763
  183POPC  C31421069   4.569   4.875   4.997  0.1462 -0.3343 -0.1181
  183POPC  H14X21070   4.525   4.868   5.099  0.3749 -2.6600 -0.1147
  183POPC  H14Y21071   4.596   4.774   4.959  0.1641  0.4124 -2.1792
  183POPC  C31521072   4.474   4.938   4.905  0.1617  0.2680  0.0720
  183POPC  H15X21073   4.440   5.036   4.946 -0.6160 -0.9894  2.6723
  183POPC  H15Y21074   4.384   4.873   4.903 -0.4699  1.1233 -0.0174
  183POPC  C31621075   4.528   4.950   4.757 -0.7013 -0.0204 -0.5611
  183POPC  H16X21076   4.571   5.052   4.744 -2.9670  0.7723 -2.5433
  183POPC  H16Y21077   4.447   4.972   4.684 -0.0727  1.2233 -0.9211
  183POPC  H16Z21078   4.592   4.862   4.734 -0.6550 -0.4261  1.0653
  184POPC     N21079   5.831   6.433   6.899  0.3592 -0.2518  0.0160
  184POPC   C1221080   5.703   6.374   6.841 -0.7192 -0.2055 -0.5677
  184POPC  H12A21081   5.627   6.451   6.845 -2.5686 -1.9296  3.2255
  184POPC  H12B21082   5.664   6.306   6.915  0.2912  0.7807  0.9236
  184POPC   C1321083   5.930   6.323   6.900 -0.4259 -0.3773 -0.2212
  184POPC  H13A21084   5.895   6.232   6.946 -0.4440 -0.7747 -0.9993
  184POPC  H13B21085   5.951   6.289   6.799 -1.2152 -3.8782  0.6767
  184POPC  H13C21086   6.024   6.348   6.946  0.9498 -1.9742 -1.9793
  184POPC   C1421087   5.882   6.551   6.814  0.1569 -0.3198 -0.1205
  184POPC  H14A21088   5.841   6.644   6.850  0.2613 -0.0406 -0.7255
  184POPC  H14B21089   5.990   6.554   6.812  0.1955 -0.1311  1.2591
  184POPC  H14C21090   5.842   6.547   6.714  0.4913  1.6302 -0.3651
  184POPC   C1521091   5.813   6.484   7.039 -0.0225 -0.4936 -0.9228
  184POPC  H15A21092   5.785   6.407   7.110 -2.3322  0.0216 -1.1985
  184POPC  H15B21093   5.732   6.555   7.047 -0.8625 -1.5548  0.8395
  184POPC  H15C21094   5.910   6.523   7.068 -0.5251 -0.5708  1.0481
  184POPC   C1121095   5.712   6.317   6.700 -0.1907 -0.2936 -0.0100
  184POPC  H11A21096   5.773   6.390   6.643  1.1641  0.6120  2.4136
  184POPC  H11B21097   5.608   6.308   6.662 -1.3204 -0.7127  2.9119
  184POPC     P21098   5.690   6.068   6.762 -0.2733 -0.0522  0.1457
  184POPC   O1321099   5.548   6.093   6.771  0.0020  0.4502 -0.2722
  184POPC   O1421100   5.759   6.041   6.891  0.0581 -0.1292  0.3018
  184POPC   O1221101   5.769   6.192   6.699  0.0258  0.4785 -0.5384
  184POPC   O1121102   5.709   5.958   6.653 -0.0727 -0.4159  0.3889
  184POPC    C121103   5.828   5.878   6.644 -0.5766  0.2563 -0.7046
  184POPC    HA21104   5.812   5.798   6.568  0.0973 -2.4633  1.8278
  184POPC    HB21105   5.853   5.830   6.741  0.1884  3.7841  1.0211
  184POPC    C221106   5.958   5.951   6.585  0.3345  0.0571 -0.4856
  184POPC    HS21107   5.972   6.024   6.667 -0.2497 -0.5576  0.1773
  184POPC   O2121108   5.920   6.013   6.458  0.1925 -0.1277  0.1731
  184POPC   C2121109   5.996   6.118   6.431  0.3683  0.6138  0.1956
  184POPC   O2221110   6.085   6.164   6.501  0.6037 -0.4879 -0.2600
  184POPC   C2221111   5.959   6.166   6.293 -0.0828  0.8133  1.0643
  184POPC   H2R21112   5.888   6.251   6.294  2.7997  3.3944  2.5223
  184POPC   H2S21113   5.924   6.075   6.239  0.3403  0.9593  0.5339
  184POPC    C321114   6.079   5.855   6.561  0.1908 -0.4312 -0.0986
  184POPC    HX21115   6.109   5.806   6.656  1.3582  2.1107  0.9298
  184POPC    HY21116   6.167   5.913   6.525  0.5989 -1.6937 -1.2146
  184POPC   O3121117   6.038   5.755   6.469  0.9538  0.3644 -0.5073
  184POPC   C3121118   6.086   5.756   6.346 -0.2458  0.0221  0.1217
  184POPC   O3221119   6.164   5.837   6.298 -0.1018  0.2443  0.3741
  184POPC   C3221120   6.011   5.649   6.267 -0.0147  0.0336 -0.2507
  184POPC   H2X21121   5.909   5.636   6.308  1.2334 -1.6985  2.6345
  184POPC   H2Y21122   6.073   5.562   6.297  1.0806  1.0456  0.5316
  184POPC   C2321123   6.086   6.211   6.217 -0.2722 -0.1740  0.2584
  184POPC   H3R21124   6.179   6.206   6.277 -1.1394 -2.3524  1.5402
  184POPC   H3S21125   6.081   6.318   6.188 -0.1722 -0.2031  0.1348
  184POPC   C2421126   6.104   6.126   6.093  0.3120  0.3174 -0.4379
  184POPC   H4R21127   6.042   6.148   6.003  2.7901  0.5807 -2.2064
  184POPC   H4S21128   6.079   6.020   6.116  0.1115  0.6719  1.0761
  184POPC   C2521129   6.255   6.116   6.036  0.8345  0.2369 -0.6932
  184POPC   H5R21130   6.265   6.036   5.959 -1.5665  0.5269 -1.4022
  184POPC   H5S21131   6.325   6.092   6.118  1.7919  1.4490 -1.1283
  184POPC   C2621132   6.305   6.252   5.976  0.2806 -0.2075  0.2639
  184POPC   H6R21133   6.268   6.342   6.031 -1.2569 -0.1866 -0.7266
  184POPC   H6S21134   6.264   6.265   5.873  0.6689  1.6811  0.3128
  184POPC   C2721135   6.457   6.260   5.959  0.3316  0.4515 -0.0886
  184POPC   H7R21136   6.505   6.233   6.056 -1.6805 -3.3152  0.0447
  184POPC   H7S21137   6.498   6.363   5.945  1.5218  0.1991  1.2209
  184POPC   C2821138   6.523   6.160   5.859 -0.3713 -0.2544  0.5806
  184POPC   H8R21139   6.452   6.074   5.850 -0.2540 -0.2685 -0.3515
  184POPC   H8S21140   6.620   6.130   5.904  0.7312  0.7255 -1.0527
  184POPC   C2921141   6.558   6.233   5.728 -0.5129  0.8215  0.3231
  184POPC   H9121142   6.637   6.309   5.724 -0.1320  0.4109 -2.0696
  184POPC  C21021143   6.514   6.196   5.602 -0.3233 -0.1933 -0.4732
  184POPC  H10121144   6.543   6.253   5.512 -2.7940  2.3107  0.1574
  184POPC  C21121145   6.432   6.071   5.586  0.0004  0.4450  0.0094
  184POPC  H11R21146   6.464   5.996   5.661  1.6751  2.8254  1.8484
  184POPC  H11S21147   6.447   6.029   5.484 -1.6530 -0.1014 -0.0425
  184POPC  C21221148   6.278   6.086   5.585 -0.2361 -0.6106  0.6402
  184POPC  H12R21149   6.257   6.107   5.692 -0.1123  0.0752  0.5354
  184POPC  H12S21150   6.233   5.988   5.556 -0.9859 -0.0607 -0.0991
  184POPC  C21321151   6.237   6.208   5.499 -0.3647 -0.3258 -1.2003
  184POPC  H13R21152   6.275   6.300   5.550  1.3139 -0.1587 -2.6691
  184POPC  H13S21153   6.126   6.210   5.500 -0.4473 -2.7254 -1.4449
  184POPC  C21421154   6.288   6.204   5.356 -0.4716  0.3896  0.3950
  184POPC  H14R21155   6.257   6.105   5.317  0.8893  0.4488 -0.9521
  184POPC  H14S21156   6.399   6.193   5.359 -0.4487  0.7683  1.4076
  184POPC  C21521157   6.257   6.320   5.267  0.3275 -0.0916  0.1915
  184POPC  H15R21158   6.284   6.415   5.317  1.3508 -0.5196  0.4696
  184POPC  H15S21159   6.147   6.326   5.252  0.6664 -0.4761 -3.1336
  184POPC  C21621160   6.326   6.320   5.124  0.1142 -0.4592 -0.6429
  184POPC  H16R21161   6.433   6.343   5.141  0.2647  0.0719 -2.1854
  184POPC  H16S21162   6.301   6.406   5.059 -0.2251  0.0214  0.1083
  184POPC  C21721163   6.312   6.182   5.046  0.3976 -0.3611 -0.8435
  184POPC  H17R21164   6.357   6.102   5.108 -0.1039  0.3447  0.4652
  184POPC  H17S21165   6.386   6.179   4.963  0.9388  0.5328 -0.4056
  184POPC  C21821166   6.170   6.145   5.002  0.0226  0.3930  0.2932
  184POPC  H18R21167   6.163   6.054   4.939  0.9121  0.4034  0.1716
  184POPC  H18S21168   6.126   6.224   4.937 -0.3088  1.2269  1.4976
  184POPC  H18T21169   6.105   6.136   5.092 -1.1328 -0.7673 -0.6167
  184POPC   C3321170   6.008   5.668   6.108 -1.2821  0.1374 -0.0545
  184POPC   H3X21171   5.979   5.574   6.057 -0.9483  0.0483 -0.0816
  184POPC   H3Y21172   6.109   5.700   6.076 -0.4857 -1.3409  0.8609
  184POPC   C3421173   5.893   5.772   6.074 -0.4035  0.4206 -0.4148
  184POPC   H4X21174   5.903   5.861   6.140  1.7218 -0.4128  0.4839
  184POPC   H4Y21175   5.794   5.727   6.096 -0.2866  0.5661  0.4498
  184POPC   C3521176   5.905   5.808   5.924 -0.7719 -0.4284  0.2055
  184POPC   H5X21177   5.890   5.715   5.866 -0.7527 -1.1216  1.2861
  184POPC   H5Y21178   6.003   5.858   5.904 -0.2717 -1.4683  0.0135
  184POPC   C3621179   5.788   5.905   5.871  0.4066 -0.2259 -0.0294
  184POPC   H6X21180   5.761   5.979   5.949  0.1027 -0.0977 -0.2513
  184POPC   H6Y21181   5.698   5.848   5.840  0.2976 -2.0823  3.3513
  184POPC   C3721182   5.833   5.986   5.747 -0.4516 -0.0545  0.2736
  184POPC   H7X21183   5.912   6.064   5.757 -1.4528  0.8469  1.7745
  184POPC   H7Y21184   5.748   6.047   5.708 -0.3968  0.1482  0.4651
  184POPC   C3821185   5.867   5.904   5.622  0.5206 -1.0441 -0.0351
  184POPC   H8X21186   5.787   5.827   5.615 -0.7425  0.2344 -0.0448
  184POPC   H8Y21187   5.955   5.838   5.640  1.1859 -0.4533 -1.0949
  184POPC   C3921188   5.874   5.978   5.484 -0.5274  0.0635  0.6438
  184POPC   H9X21189   5.945   6.063   5.491  2.2247 -1.8294 -1.8910
  184POPC   H9Y21190   5.770   6.017   5.474 -0.2728  0.9242  1.2191
  184POPC  C31021191   5.899   5.890   5.362 -0.2714  0.7285 -0.2030
  184POPC  H10X21192   5.859   5.786   5.355  1.1002  0.2575 -1.4769
  184POPC  H10Y21193   6.009   5.878   5.358 -0.3110  0.5399 -0.9517
  184POPC  C31121194   5.837   5.953   5.232 -0.1634  0.5624 -0.4422
  184POPC  H11X21195   5.874   6.055   5.212 -3.4990  2.3714  1.6639
  184POPC  H11Y21196   5.728   5.956   5.251  0.0058 -0.7667  0.9749
  184POPC  C31221197   5.863   5.865   5.106  0.2903  0.3871 -0.3413
  184POPC  H12X21198   5.808   5.769   5.115 -0.4347  0.7032 -1.2103
  184POPC  H12Y21199   5.969   5.832   5.102  0.5562  1.2925 -1.2562
  184POPC  C31321200   5.839   5.928   4.974  0.1205 -0.6004 -0.0631
  184POPC  H13X21201   5.916   6.008   4.969 -0.5087  0.1417  1.4888
  184POPC  H13Y21202   5.741   5.981   4.962  0.1032 -0.8562 -1.1972
  184POPC  C31421203   5.865   5.828   4.856  0.2371  0.5411  0.4681
  184POPC  H14X21204   5.790   5.746   4.858  1.7928 -1.1143 -2.2394
  184POPC  H14Y21205   5.965   5.781   4.867  1.8512  3.3640 -0.9178
  184POPC  C31521206   5.872   5.901   4.715  1.1072  0.2757  0.5005
  184POPC  H15X21207   5.767   5.931   4.695  1.1926 -0.1598 -0.6492
  184POPC  H15Y21208   5.885   5.819   4.641 -3.4177  0.3433 -0.6616
  184POPC  C31621209   5.978   6.008   4.689 -0.3331  0.3701 -0.0461
  184POPC  H16X21210   6.076   5.958   4.706 -0.6115 -0.9912 -2.0790
  184POPC  H16Y21211   5.961   6.101   4.748 -0.0372  0.1330  0.4162
  184POPC  H16Z21212   5.973   6.029   4.580  0.7701  0.3225 -0.1220
  185POPC     N21213   2.362   5.878   2.643 -0.3112  0.6832 -0.2521
  185POPC   C1221214   2.490   5.956   2.657  0.4970  0.2611 -0.1331
  185POPC  H12A21215   2.494   5.982   2.762 -0.2458 -2.7622  0.7308
  185POPC  H12B21216   2.479   6.042   2.592 -2.5322  1.5172  1.8357
  185POPC   C1321217   2.363   5.771   2.747 -0.6235  0.1187 -0.7088
  185POPC  H13A21218   2.326   5.817   2.838 -0.0552  1.6785 -1.2326
  185POPC  H13B21219   2.289   5.695   2.723 -1.7091  0.6392  0.8308
  185POPC  H13C21220   2.454   5.716   2.766 -0.0787  0.5922 -1.8527
  185POPC   C1421221   2.234   5.956   2.665  0.3528 -0.1489  0.0296
  185POPC  H14A21222   2.233   6.023   2.580  0.5899 -2.0457 -1.5450
  185POPC  H14B21223   2.152   5.886   2.668 -0.3121  0.6606  1.4433
  185POPC  H14C21224   2.236   6.015   2.755 -1.2845 -0.0492  0.0203
  185POPC   C1521225   2.356   5.808   2.513 -0.6854  0.5368 -0.4615
  185POPC  H15A21226   2.430   5.729   2.508 -0.9288  0.3072 -0.4908
  185POPC  H15B21227   2.361   5.879   2.432  0.0446 -0.5866 -1.4202
  185POPC  H15C21228   2.260   5.758   2.502 -1.0486 -0.2979  4.1764
  185POPC   C1121229   2.620   5.881   2.630 -0.7921 -0.0546  0.3964
  185POPC  H11A21230   2.619   5.777   2.670  0.7601 -0.1305  0.2832
  185POPC  H11B21231   2.699   5.936   2.684 -0.6918  1.1602 -0.9354
  185POPC     P21232   2.715   6.000   2.412  0.1661 -0.1180 -0.2265
  185POPC   O1321233   2.597   6.051   2.339 -0.3448  0.1229  0.7353
  185POPC   O1421234   2.834   5.965   2.332  0.3639 -0.1909 -0.1865
  185POPC   O1221235   2.655   5.873   2.489  0.3925  0.0631 -0.4715
  185POPC   O1121236   2.754   6.109   2.524  0.4137 -0.4859  0.0481
  185POPC    C121237   2.850   6.220   2.498 -0.0939  0.1046 -0.3470
  185POPC    HA21238   2.804   6.320   2.514  0.2475 -0.0588  2.0439
  185POPC    HB21239   2.895   6.221   2.397 -1.4252 -0.0218 -0.9606
  185POPC    C221240   2.974   6.208   2.602  0.4209 -0.6740  0.1017
  185POPC    HS21241   3.015   6.105   2.597 -0.6676 -1.1149  0.0383
  185POPC   O2121242   2.935   6.257   2.732  0.1825  0.0395 -0.2465
  185POPC   C2121243   2.903   6.165   2.816  0.6244 -0.1407  0.0973
  185POPC   O2221244   2.909   6.046   2.797 -0.9727 -0.3808 -0.6439
  185POPC   C2221245   2.859   6.243   2.944  0.0094  0.3834  0.4601
  185POPC   H2R21246   2.829   6.160   3.012  1.1454  0.8355  1.5498
  185POPC   H2S21247   2.776   6.314   2.926  0.5524  1.4396  1.9317
  185POPC    C321248   3.083   6.301   2.548 -0.7417 -0.6536  0.0381
  185POPC    HX21249   3.043   6.405   2.546  0.0499 -0.2655  1.8419
  185POPC    HY21250   3.102   6.274   2.442 -1.1762  1.3259 -0.5943
  185POPC   O3121251   3.203   6.304   2.631 -0.0701  0.1019 -0.0615
  185POPC   C3121252   3.299   6.227   2.597  0.0013 -0.4216 -0.1521
  185POPC   O3221253   3.305   6.148   2.500  0.5759  0.0827  0.1539
  185POPC   C3221254   3.422   6.267   2.674  0.0972  0.2837  0.9731
  185POPC   H2X21255   3.402   6.370   2.711 -1.1156 -0.0193  1.1760
  185POPC   H2Y21256   3.512   6.247   2.611 -0.3837 -0.8343  0.6260
  185POPC   C2321257   2.977   6.321   3.001 -0.4658 -0.2291  0.4304
  185POPC   H3R21258   3.008   6.399   2.928 -0.9505 -0.2780  0.1661
  185POPC   H3S21259   3.066   6.256   3.006 -1.2017 -1.2655  0.2960
  185POPC   C2421260   2.942   6.402   3.132  0.0793  0.0979 -0.2826
  185POPC   H4R21261   2.848   6.461   3.124 -0.1643 -0.3602 -0.8843
  185POPC   H4S21262   3.030   6.461   3.165  0.5002 -0.1726 -0.9081
  185POPC   C2521263   2.909   6.294   3.238 -0.0045  0.4146  0.6242
  185POPC   H5R21264   2.992   6.221   3.227 -2.1967 -2.5686  2.3240
  185POPC   H5S21265   2.813   6.240   3.217 -0.3662  0.7292  1.4344
  185POPC   C2621266   2.910   6.335   3.386  0.6345 -0.3028  0.1766
  185POPC   H6R21267   3.011   6.371   3.415  0.3277  0.1922  0.6604
  185POPC   H6S21268   2.894   6.249   3.454 -0.1986 -1.0614 -0.9369
  185POPC   C2721269   2.818   6.454   3.413 -0.5750 -0.0486  0.2814
  185POPC   H7R21270   2.837   6.541   3.347 -0.2364  0.0447  0.5022
  185POPC   H7S21271   2.839   6.489   3.516  0.7871 -2.2262  0.8109
  185POPC   C2821272   2.664   6.428   3.401 -0.2589 -0.4635 -0.1726
  185POPC   H8R21273   2.660   6.367   3.308  3.0822 -1.9069  0.4840
  185POPC   H8S21274   2.610   6.524   3.393 -2.2933 -1.6854 -2.2019
  185POPC   C2921275   2.609   6.355   3.522 -0.1166 -0.6544  0.6135
  185POPC   H9121276   2.612   6.246   3.506  0.5396 -0.3033 -1.9858
  185POPC  C21021277   2.547   6.406   3.629 -0.2312 -0.4033  0.2082
  185POPC  H10121278   2.536   6.336   3.713 -0.7511  2.5850  2.8131
  185POPC  C21121279   2.521   6.555   3.660  0.0940 -0.2930  1.1178
  185POPC  H11R21280   2.411   6.570   3.654  0.2143  0.1470 -1.1817
  185POPC  H11S21281   2.565   6.618   3.580 -0.6363  0.5499  1.3690
  185POPC  C21221282   2.577   6.584   3.792  0.0382 -0.7735  0.7523
  185POPC  H12R21283   2.560   6.692   3.816 -1.0557 -0.9526  0.7967
  185POPC  H12S21284   2.688   6.571   3.786  0.1750 -0.0798  1.4391
  185POPC  C21321285   2.502   6.516   3.916 -0.6983 -0.3423 -0.3305
  185POPC  H13R21286   2.521   6.407   3.923 -0.4288 -0.2990 -0.3455
  185POPC  H13S21287   2.393   6.535   3.913 -0.5985  0.3370  0.1068
  185POPC  C21421288   2.560   6.574   4.051 -0.2926 -0.1846  0.1145
  185POPC  H14R21289   2.533   6.681   4.054 -0.2718 -0.1485 -0.7833
  185POPC  H14S21290   2.669   6.557   4.044 -0.4902 -0.8008 -3.1395
  185POPC  C21521291   2.510   6.501   4.168  0.4343  0.2955 -0.7938
  185POPC  H15R21292   2.567   6.524   4.260 -1.5239 -1.0671  0.8560
  185POPC  H15S21293   2.530   6.393   4.153  2.6186  0.3426  1.2053
  185POPC  C21621294   2.362   6.509   4.208  0.2913  0.7809 -0.6715
  185POPC  H16R21295   2.314   6.451   4.126 -1.1619 -0.0884  0.7323
  185POPC  H16S21296   2.324   6.613   4.203 -1.8928  0.3146  2.8699
  185POPC  C21721297   2.328   6.445   4.343 -0.2611 -0.5739  0.3314
  185POPC  H17R21298   2.353   6.517   4.423 -2.3030  0.3254  0.2324
  185POPC  H17S21299   2.387   6.353   4.362 -0.4010 -0.8636 -0.5620
  185POPC  C21821300   2.173   6.436   4.358  0.2046  0.0293 -0.1052
  185POPC  H18R21301   2.117   6.529   4.381 -2.7024 -0.8953 -2.8519
  185POPC  H18S21302   2.151   6.358   4.434 -1.0475 -0.2935 -0.7779
  185POPC  H18T21303   2.133   6.397   4.262  3.2067 -0.9115 -1.1153
  185POPC   C3321304   3.439   6.173   2.799 -0.4346  0.3655 -0.1189
  185POPC   H3X21305   3.547   6.176   2.825 -0.7298 -0.3041  1.2787
  185POPC   H3Y21306   3.428   6.066   2.774 -0.1972  0.1378  0.7130
  185POPC   C3421307   3.357   6.219   2.919  0.0078 -0.0101 -0.1503
  185POPC   H4X21308   3.250   6.201   2.894 -0.4077 -0.1118  1.5630
  185POPC   H4Y21309   3.370   6.324   2.951 -0.8725 -0.4439  1.8422
  185POPC   C3521310   3.408   6.139   3.044 -0.2885 -0.7422  0.8801
  185POPC   H5X21311   3.500   6.188   3.083 -1.2625  1.8507  0.1298
  185POPC   H5Y21312   3.426   6.033   3.017 -0.0620 -0.8022  1.2670
  185POPC   C3621313   3.310   6.156   3.165 -0.6985  0.1103 -0.4826
  185POPC   H6X21314   3.216   6.106   3.133 -1.1432  1.4469 -1.3221
  185POPC   H6Y21315   3.281   6.262   3.175  0.1573  0.3458 -0.4413
  185POPC   C3721316   3.352   6.105   3.302  0.1473 -0.2167 -0.3619
  185POPC   H7X21317   3.455   6.131   3.332 -0.4199  1.5122  0.1974
  185POPC   H7Y21318   3.337   5.995   3.303 -2.4344  0.0548 -1.5343
  185POPC   C3821319   3.273   6.173   3.411 -0.0840  0.1212 -0.5937
  185POPC   H8X21320   3.166   6.144   3.402  0.2925 -1.2103 -0.8960
  185POPC   H8Y21321   3.271   6.282   3.389 -0.6000  0.5152  1.2557
  185POPC   C3921322   3.323   6.151   3.557  0.5687  0.7462 -0.0280
  185POPC   H9X21323   3.434   6.157   3.551  0.4810  2.0225 -0.6193
  185POPC   H9Y21324   3.301   6.045   3.583  1.5634  0.3666 -0.6411
  185POPC  C31021325   3.281   6.246   3.666  1.2693 -0.1152 -0.5734
  185POPC  H10X21326   3.284   6.347   3.620  0.0941  1.8615  3.2696
  185POPC  H10Y21327   3.339   6.243   3.761 -0.6487 -1.3585  0.6335
  185POPC  C31121328   3.137   6.215   3.697  0.6011  0.2982  0.2337
  185POPC  H11X21329   3.138   6.117   3.750  0.6036  0.6205  0.8362
  185POPC  H11Y21330   3.070   6.218   3.609 -1.4566  0.9926  1.7517
  185POPC  C31221331   3.084   6.326   3.789 -0.2256  0.7397  0.4217
  185POPC  H12X21332   3.091   6.427   3.743 -0.0160  0.7568  0.4873
  185POPC  H12Y21333   3.142   6.332   3.884  2.6535 -0.5416 -1.1112
  185POPC  C31321334   2.938   6.307   3.824  0.1356  0.2728 -0.0743
  185POPC  H13X21335   2.883   6.302   3.727 -1.2051 -1.7853  0.7298
  185POPC  H13Y21336   2.910   6.401   3.876  0.1036  0.7202 -0.8825
  185POPC  C31421337   2.909   6.186   3.901 -0.3261 -0.7097  0.1659
  185POPC  H14X21338   2.972   6.183   3.992  0.6909 -0.0681 -0.5042
  185POPC  H14Y21339   2.937   6.094   3.845  0.2171  0.2464 -1.1939
  185POPC  C31521340   2.755   6.183   3.941 -0.6599 -0.7111  0.1972
  185POPC  H15X21341   2.690   6.160   3.854 -1.8962 -0.5114  1.0362
  185POPC  H15Y21342   2.721   6.285   3.968  0.3810 -0.2407 -0.2381
  185POPC  C31621343   2.716   6.093   4.059 -0.3126  0.9089 -0.1651
  185POPC  H16X21344   2.799   6.082   4.132  0.1581  0.5269 -0.7417
  185POPC  H16Y21345   2.710   5.985   4.032  1.4213  0.1670  2.0534
  185POPC  H16Z21346   2.626   6.129   4.113 -0.7742  1.1813 -1.0973
  186POPC     N21347   2.184   2.364   2.159  0.1006 -0.0547  0.6965
  186POPC   C1221348   2.227   2.332   2.308 -0.4348  0.1832  0.8934
  186POPC  H12A21349   2.267   2.231   2.315 -0.0549  0.3914  1.8069
  186POPC  H12B21350   2.142   2.339   2.374 -1.5883 -2.6618 -0.0924
  186POPC   C1321351   2.053   2.293   2.128 -0.1291 -1.2416  0.1913
  186POPC  H13A21352   2.069   2.186   2.123  1.5890 -0.9635 -1.1161
  186POPC  H13B21353   1.979   2.311   2.204 -0.7605  0.2504 -0.7428
  186POPC  H13C21354   2.010   2.334   2.038  2.4342  1.0451 -0.1267
  186POPC   C1421355   2.164   2.512   2.137 -0.2328 -0.5702  0.5251
  186POPC  H14A21356   2.076   2.556   2.180  1.1279  0.8897  1.9283
  186POPC  H14B21357   2.245   2.575   2.170  0.4793 -1.5398  0.6700
  186POPC  H14C21358   2.160   2.534   2.031  0.0960  0.8087  0.7827
  186POPC   C1521359   2.288   2.312   2.072 -0.3521 -0.2036  0.1242
  186POPC  H15A21360   2.380   2.369   2.076  1.2036 -2.6062  0.6374
  186POPC  H15B21361   2.266   2.314   1.966  1.0497 -0.7974 -0.2027
  186POPC  H15C21362   2.314   2.211   2.099  0.8445  0.4416  1.5289
  186POPC   C1121363   2.345   2.420   2.353 -0.6382 -0.1877 -1.0285
  186POPC  H11A21364   2.382   2.384   2.451 -0.9346  0.4258 -0.6883
  186POPC  H11B21365   2.297   2.520   2.364 -1.8032 -0.6878 -1.3854
  186POPC     P21366   2.574   2.326   2.261 -0.2607  0.4586 -0.0832
  186POPC   O1321367   2.630   2.312   2.128 -0.1070 -0.2182  0.1316
  186POPC   O1421368   2.538   2.205   2.337  0.6253 -0.2038  0.2146
  186POPC   O1221369   2.455   2.435   2.264 -0.0136 -0.3112  0.1747
  186POPC   O1121370   2.681   2.409   2.336  0.0141 -0.1288  0.2427
  186POPC    C121371   2.663   2.479   2.457  0.4553  1.4735  0.2628
  186POPC    HA21372   2.567   2.534   2.462  0.4052  1.6562 -1.8144
  186POPC    HB21373   2.744   2.554   2.467  2.0621  0.3793 -3.0829
  186POPC    C221374   2.675   2.386   2.582 -0.0411 -0.9803 -0.1776
  186POPC    HS21375   2.585   2.322   2.584 -0.0091 -1.0031  1.2739
  186POPC   O2121376   2.685   2.468   2.702 -0.6793  0.5217  0.5230
  186POPC   C2121377   2.580   2.461   2.785  0.5442 -0.2981  0.7031
  186POPC   O2221378   2.472   2.406   2.762  0.3086  0.6047  0.0254
  186POPC   C2221379   2.615   2.531   2.918 -0.0837 -0.7983 -0.3340
  186POPC   H2R21380   2.646   2.636   2.902 -0.0950 -0.9612 -1.5067
  186POPC   H2S21381   2.702   2.480   2.964 -0.2772 -1.0030 -0.1935
  186POPC    C321382   2.796   2.291   2.574 -0.0405  0.3323  0.4549
  186POPC    HX21383   2.886   2.354   2.557  0.5465 -0.8375 -1.0095
  186POPC    HY21384   2.783   2.226   2.484  0.3095 -0.1033  0.7150
  186POPC   O3121385   2.809   2.222   2.700 -0.0831  0.1087 -0.1555
  186POPC   C3121386   2.901   2.130   2.701  0.2400  0.5338 -0.9316
  186POPC   O3221387   2.976   2.106   2.604  0.0270  0.1849  0.5249
  186POPC   C3221388   2.895   2.047   2.828 -0.1780 -0.0894 -0.2575
  186POPC   H2X21389   2.959   1.957   2.816  2.0483  1.6504 -2.4571
  186POPC   H2Y21390   2.788   2.023   2.846 -0.1082 -1.2539 -1.2212
  186POPC   C2321391   2.500   2.520   3.020 -0.3158 -0.2854  0.2935
  186POPC   H3R21392   2.485   2.410   3.028  2.2294 -0.6126  1.2798
  186POPC   H3S21393   2.410   2.568   2.976  0.9960  1.3349 -0.7523
  186POPC   C2421394   2.530   2.574   3.162 -0.7531 -0.0929  0.1005
  186POPC   H4R21395   2.544   2.684   3.152 -1.0447 -0.0849 -0.2556
  186POPC   H4S21396   2.626   2.528   3.194 -0.5479  0.1425 -0.1776
  186POPC   C2521397   2.417   2.550   3.262 -0.4353  0.2678  0.4825
  186POPC   H5R21398   2.369   2.450   3.246  0.4956 -0.4732  2.1044
  186POPC   H5S21399   2.336   2.622   3.237 -0.4573  0.1570  0.2270
  186POPC   C2621400   2.463   2.563   3.401 -0.0900  0.5293 -1.0283
  186POPC   H6R21401   2.504   2.667   3.395 -2.1906  1.6210  1.6549
  186POPC   H6S21402   2.550   2.494   3.411 -1.5414 -1.6053 -2.2176
  186POPC   C2721403   2.360   2.553   3.511  0.3389 -0.3703 -0.7052
  186POPC   H7R21404   2.349   2.443   3.519  3.2589 -0.8587 -2.0574
  186POPC   H7S21405   2.258   2.589   3.482  0.7552  0.3037 -1.3943
  186POPC   C2821406   2.400   2.608   3.647 -0.5023  0.1048  0.0364
  186POPC   H8R21407   2.321   2.621   3.724  1.2885  3.7368  1.4887
  186POPC   H8S21408   2.430   2.712   3.620 -1.8665  0.3903 -0.4680
  186POPC   C2921409   2.515   2.536   3.718  0.2708 -1.3033  0.4065
  186POPC   H9121410   2.563   2.460   3.655 -0.0226 -0.3146 -1.0467
  186POPC  C21021411   2.558   2.549   3.847  0.4940 -0.0157 -0.4128
  186POPC  H10121412   2.645   2.492   3.882  0.0780 -2.1973 -2.6256
  186POPC  C21121413   2.481   2.641   3.938  0.6850  0.1435 -0.2169
  186POPC  H11R21414   2.370   2.640   3.929  0.7357  2.5668 -2.3712
  186POPC  H11S21415   2.522   2.743   3.925 -1.6687  1.2116  0.1187
  186POPC  C21221416   2.510   2.605   4.088 -0.3789  0.6856 -0.1516
  186POPC  H12R21417   2.520   2.494   4.097 -0.2693  0.6906 -0.2075
  186POPC  H12S21418   2.430   2.648   4.152 -0.4188  1.3865 -0.6675
  186POPC  C21321419   2.638   2.669   4.141 -0.1827 -0.1987 -0.0418
  186POPC  H13R21420   2.621   2.778   4.127 -2.4591 -0.4905  0.0842
  186POPC  H13S21421   2.725   2.625   4.087 -0.4209 -2.0530  1.0184
  186POPC  C21421422   2.670   2.633   4.284 -0.1095  0.5933 -0.0260
  186POPC  H14R21423   2.670   2.523   4.294 -0.4959  0.3962 -1.9193
  186POPC  H14S21424   2.584   2.667   4.346 -0.5555 -2.2137  1.0577
  186POPC  C21521425   2.791   2.695   4.347  0.5512  0.3091  0.7207
  186POPC  H15R21426   2.789   2.707   4.458 -2.2154 -0.3856  0.8304
  186POPC  H15S21427   2.800   2.801   4.315  1.1757 -0.3065 -1.2829
  186POPC  C21621428   2.920   2.637   4.302 -0.3511 -0.3228  0.0541
  186POPC  H16R21429   3.012   2.694   4.327 -0.5531 -0.4624  1.1342
  186POPC  H16S21430   2.906   2.626   4.192 -1.8702 -1.5061  0.3454
  186POPC  C21721431   2.933   2.500   4.367 -0.5167  0.2768  0.5497
  186POPC  H17R21432   2.879   2.423   4.309 -0.9345 -0.0886  1.4185
  186POPC  H17S21433   2.881   2.507   4.465  0.3068 -0.3240  1.0424
  186POPC  C21821434   3.091   2.460   4.390  0.6590  0.5479  0.7130
  186POPC  H18R21435   3.144   2.521   4.465  0.8272  1.2391  0.0361
  186POPC  H18S21436   3.100   2.354   4.422 -1.1857  0.4706  1.0964
  186POPC  H18T21437   3.140   2.476   4.291 -2.6431  0.3188 -1.1051
  186POPC   C3321438   2.945   2.126   2.945 -0.1086  0.6532 -0.6434
  186POPC   H3X21439   2.901   2.071   3.031  0.1781 -0.2882 -1.0799
  186POPC   H3Y21440   2.906   2.229   2.934  2.2764  1.5133 -1.7141
  186POPC   C3421441   3.097   2.133   2.954  0.1472  0.2980 -1.0419
  186POPC   H4X21442   3.136   2.225   2.905  2.6031 -0.3111 -0.3949
  186POPC   H4Y21443   3.153   2.044   2.915 -2.1124 -0.7679 -2.0154
  186POPC   C3521444   3.136   2.156   3.105  0.3620  1.3726  0.6711
  186POPC   H5X21445   3.088   2.078   3.167 -1.1649  0.7359 -1.1848
  186POPC   H5Y21446   3.092   2.250   3.146 -0.4469  0.7482  1.2603
  186POPC   C3621447   3.288   2.144   3.124 -0.0256 -0.5024 -0.8055
  186POPC   H6X21448   3.332   2.231   3.071 -0.3341 -0.0850 -0.3830
  186POPC   H6Y21449   3.322   2.051   3.074  0.5086  0.0807 -1.5603
  186POPC   C3721450   3.336   2.149   3.269  0.3836  0.2238  0.2801
  186POPC   H7X21451   3.446   2.134   3.260  0.0056 -1.3093 -3.2262
  186POPC   H7Y21452   3.297   2.061   3.325  2.1833 -0.0340  1.2234
  186POPC   C3821453   3.291   2.279   3.340 -0.6028  0.0347 -0.2640
  186POPC   H8X21454   3.180   2.275   3.338 -0.5773 -1.3304 -0.1584
  186POPC   H8Y21455   3.325   2.365   3.278  0.2436 -0.4100 -0.4337
  186POPC   C3921456   3.339   2.277   3.487  0.3551  0.1299 -0.1771
  186POPC   H9X21457   3.318   2.364   3.553  0.5543  0.7301 -0.9020
  186POPC   H9Y21458   3.449   2.267   3.477  0.3707 -1.6217  1.1234
  186POPC  C31021459   3.298   2.148   3.570  0.3020  0.0628 -0.6472
  186POPC  H10X21460   3.349   2.064   3.518  0.0457 -0.7571  0.4068
  186POPC  H10Y21461   3.190   2.122   3.579  0.8642 -1.7190  1.6663
  186POPC  C31121462   3.331   2.162   3.716 -0.2793  0.5019 -0.1555
  186POPC  H11X21463   3.246   2.207   3.771  0.5836 -1.0999  2.6487
  186POPC  H11Y21464   3.415   2.234   3.719 -0.0687  0.2201  0.8514
  186POPC  C31221465   3.383   2.044   3.799  0.6152  0.6739 -0.4512
  186POPC  H12X21466   3.474   2.011   3.745  0.9608  1.1216 -0.1560
  186POPC  H12Y21467   3.310   1.960   3.794  2.2798 -0.8188 -0.5663
  186POPC  C31321468   3.427   2.071   3.938  0.5021 -0.1193  0.6498
  186POPC  H13X21469   3.342   2.103   4.002  0.1824 -1.0116  0.6842
  186POPC  H13Y21470   3.499   2.155   3.936  1.2066 -0.7176 -0.8242
  186POPC  C31421471   3.494   1.955   4.003 -0.3849  0.3711  0.4432
  186POPC  H14X21472   3.572   1.912   3.937 -0.4890  0.3176  0.3547
  186POPC  H14Y21473   3.419   1.874   4.021 -0.3046  0.5373  1.6315
  186POPC  C31521474   3.556   1.985   4.145 -0.0551  0.2439 -0.5792
  186POPC  H15X21475   3.648   2.047   4.136  0.5306 -0.2652  1.4513
  186POPC  H15Y21476   3.588   1.886   4.182  1.4697  0.6063 -0.8500
  186POPC  C31621477   3.450   2.044   4.240  0.8403 -0.0316  0.2057
  186POPC  H16X21478   3.491   2.047   4.343  1.0590  1.2223  0.1014
  186POPC  H16Y21479   3.362   1.976   4.230 -1.4443  2.4278  2.0531
  186POPC  H16Z21480   3.431   2.148   4.206  0.4090 -0.4082 -0.7395
  187POPC     N21481   2.020   5.630   2.263 -0.8137 -0.6083 -0.4557
  187POPC   C1221482   1.930   5.740   2.311 -0.0944  0.1101 -0.4095
  187POPC  H12A21483   1.845   5.690   2.353 -0.4090 -1.0223 -2.2669
  187POPC  H12B21484   1.900   5.806   2.231 -0.8365  0.2079 -0.0535
  187POPC   C1321485   2.157   5.680   2.217 -0.2820  0.4493  0.1332
  187POPC  H13A21486   2.216   5.603   2.169  0.1625  0.5111  0.5692
  187POPC  H13B21487   2.148   5.761   2.147  1.2074  1.7182  1.3455
  187POPC  H13C21488   2.211   5.709   2.306  0.2396 -1.8887  0.6417
  187POPC   C1421489   2.049   5.530   2.372 -0.0045  0.0750 -0.4752
  187POPC  H14A21490   2.079   5.586   2.458  0.1753  0.8473 -1.0287
  187POPC  H14B21491   1.962   5.472   2.401  1.6862 -3.1021 -1.2995
  187POPC  H14C21492   2.123   5.457   2.345 -1.0345 -1.7851  1.4209
  187POPC   C1521493   1.960   5.559   2.149 -0.7555  0.1104 -0.1219
  187POPC  H15A21494   1.864   5.517   2.175 -0.0694 -1.7240 -0.4060
  187POPC  H15B21495   2.029   5.482   2.119 -1.1860 -0.1665 -0.4147
  187POPC  H15C21496   1.931   5.622   2.066  0.1238 -0.4858 -0.8967
  187POPC   C1121497   1.990   5.837   2.419  0.5790 -1.0133 -0.0299
  187POPC  H11A21498   1.914   5.919   2.423 -0.1779 -1.7210  0.4212
  187POPC  H11B21499   2.085   5.876   2.376 -0.5383 -0.6772 -2.3515
  187POPC     P21500   1.905   5.758   2.655 -0.0060  0.1491  0.0441
  187POPC   O1321501   1.930   5.873   2.738  0.0316 -0.1280 -0.2272
  187POPC   O1421502   1.901   5.621   2.712 -0.0815 -0.0050 -0.3779
  187POPC   O1221503   2.012   5.768   2.538  0.0435 -0.4371 -0.4323
  187POPC   O1121504   1.773   5.768   2.573  0.2999 -1.0226 -0.3363
  187POPC    C121505   1.655   5.700   2.611 -0.5018  0.1679  0.1864
  187POPC    HA21506   1.670   5.605   2.667 -0.7293  0.0661  0.0748
  187POPC    HB21507   1.605   5.665   2.519 -1.7747  1.7759  0.2226
  187POPC    C221508   1.562   5.794   2.691 -0.5408 -0.2654  0.1674
  187POPC    HS21509   1.567   5.892   2.640  1.0582 -0.4134  0.0099
  187POPC   O2121510   1.609   5.796   2.827  0.0261 -0.0346  0.3298
  187POPC   C2121511   1.587   5.924   2.885 -1.1630 -0.3843 -0.0087
  187POPC   O2221512   1.553   6.022   2.828  0.4252 -0.3889  0.0040
  187POPC   C2221513   1.625   5.910   3.036 -0.3217 -0.1682 -0.0369
  187POPC   H2R21514   1.735   5.922   3.036 -0.0948 -1.9639 -1.0044
  187POPC   H2S21515   1.594   5.810   3.074 -0.0829 -0.0256  0.5484
  187POPC    C321516   1.414   5.747   2.692 -0.2700 -0.2200  0.0314
  187POPC    HX21517   1.429   5.641   2.722  1.5279 -0.4263 -1.4043
  187POPC    HY21518   1.367   5.742   2.591 -0.1781  0.2149 -0.0339
  187POPC   O3121519   1.323   5.810   2.783 -0.0759 -0.0239 -0.8783
  187POPC   C3121520   1.200   5.765   2.794 -0.0993  0.6427  0.0037
  187POPC   O3221521   1.148   5.671   2.737  0.0351  0.0215 -0.3745
  187POPC   C3221522   1.136   5.852   2.912 -0.2669  0.1299 -0.2351
  187POPC   H2X21523   1.026   5.836   2.907 -0.4771  1.2424  0.5019
  187POPC   H2Y21524   1.155   5.960   2.894 -1.4902  0.3390 -0.3569
  187POPC   C2321525   1.573   6.033   3.122 -0.5827  1.2248  0.1869
  187POPC   H3R21526   1.473   6.006   3.162  0.4324 -1.6565  1.0081
  187POPC   H3S21527   1.564   6.123   3.057  1.4465 -0.1222 -2.1486
  187POPC   C2421528   1.662   6.058   3.242  0.1644  0.0611 -0.0481
  187POPC   H4R21529   1.768   6.026   3.229  0.6660  1.1483  1.2098
  187POPC   H4S21530   1.619   5.992   3.321 -1.5185  0.5403 -0.5338
  187POPC   C2521531   1.650   6.201   3.287  0.0858 -0.9635  0.2199
  187POPC   H5R21532   1.546   6.230   3.312  0.7686 -0.2579  2.5302
  187POPC   H5S21533   1.702   6.269   3.215  2.4074  0.5595  3.1119
  187POPC   C2621534   1.728   6.225   3.412 -0.0943  0.6120 -0.4081
  187POPC   H6R21535   1.752   6.333   3.423 -1.9625  0.9430  1.0833
  187POPC   H6S21536   1.827   6.176   3.404 -0.1722  0.4438 -0.3654
  187POPC   C2721537   1.663   6.171   3.541 -0.6361 -0.0005  0.1690
  187POPC   H7R21538   1.735   6.184   3.624 -1.3137  3.4342  0.3972
  187POPC   H7S21539   1.625   6.068   3.524  2.8005 -1.4912  0.7093
  187POPC   C2821540   1.542   6.251   3.583  0.5888 -0.0279  0.8709
  187POPC   H8R21541   1.489   6.179   3.648  0.6148  0.0097  0.9337
  187POPC   H8S21542   1.486   6.282   3.492  1.8705  0.0047  0.0655
  187POPC   C2921543   1.589   6.371   3.657  0.0158  0.0600  0.7844
  187POPC   H9121544   1.674   6.422   3.609  1.5955 -0.9024  2.4345
  187POPC  C21021545   1.538   6.417   3.772 -0.0645  0.5754  0.1136
  187POPC  H10121546   1.572   6.513   3.815  0.7332  0.4052 -0.1147
  187POPC  C21121547   1.429   6.361   3.858  0.8435 -0.0400  0.0998
  187POPC  H11R21548   1.359   6.313   3.787  0.1851  2.4600 -1.0647
  187POPC  H11S21549   1.380   6.443   3.916  1.6173 -0.9755  2.1913
  187POPC  C21221550   1.475   6.258   3.962 -0.1800 -0.3228 -0.2243
  187POPC  H12R21551   1.527   6.167   3.924 -1.2711 -0.7527 -0.7179
  187POPC  H12S21552   1.378   6.244   4.015 -0.0223  1.5866  0.6483
  187POPC  C21321553   1.551   6.317   4.083 -0.5345  0.6549  0.0257
  187POPC  H13R21554   1.485   6.350   4.167  0.5001  1.1508  0.6657
  187POPC  H13S21555   1.598   6.413   4.050  1.4575 -0.0242  0.7826
  187POPC  C21421556   1.666   6.242   4.144 -0.8642  1.2768  0.3772
  187POPC  H14R21557   1.748   6.225   4.070  0.8821  2.9142  1.8261
  187POPC  H14S21558   1.630   6.143   4.181 -0.4026  0.9979  0.0930
  187POPC  C21521559   1.730   6.334   4.254 -0.2264  0.0756 -0.0799
  187POPC  H15R21560   1.756   6.436   4.218  0.8469  1.6112  4.4111
  187POPC  H15S21561   1.829   6.282   4.255 -0.4260 -0.3737 -1.3869
  187POPC  C21621562   1.671   6.329   4.394 -0.1598 -0.2237 -0.5646
  187POPC  H16R21563   1.647   6.222   4.410 -0.4038 -0.2901 -1.3292
  187POPC  H16S21564   1.572   6.380   4.385 -0.8818 -1.4819 -0.0520
  187POPC  C21721565   1.743   6.394   4.519 -1.2018 -0.6040  0.2950
  187POPC  H17R21566   1.844   6.350   4.522 -1.5783 -1.4594  1.0680
  187POPC  H17S21567   1.698   6.376   4.620  2.6031 -0.5623  2.1697
  187POPC  C21821568   1.770   6.544   4.514 -0.2327 -0.4283 -1.0550
  187POPC  H18R21569   1.823   6.591   4.600 -3.1481  1.2164  0.0210
  187POPC  H18S21570   1.674   6.599   4.505  0.6938  1.1474 -1.7135
  187POPC  H18T21571   1.828   6.565   4.422  1.1738 -0.0677 -0.1138
  187POPC   C3321572   1.183   5.820   3.057 -0.8247  0.6760 -1.1084
  187POPC   H3X21573   1.292   5.843   3.057 -0.6271 -0.2160 -0.8166
  187POPC   H3Y21574   1.175   5.712   3.081 -0.1876  0.9670  0.4992
  187POPC   C3421575   1.100   5.885   3.168 -0.3847 -0.1435  0.0716
  187POPC   H4X21576   0.996   5.845   3.172 -0.3761 -0.2414 -0.5386
  187POPC   H4Y21577   1.088   5.995   3.169  1.1744  0.0666  2.3091
  187POPC   C3521578   1.146   5.841   3.315  0.9542 -0.1595  0.3097
  187POPC   H5X21579   1.166   5.732   3.319  1.1569 -0.1224  0.3109
  187POPC   H5Y21580   1.067   5.880   3.383 -0.7642 -1.0661 -1.0861
  187POPC   C3621581   1.279   5.914   3.352  1.1395  0.3411 -0.2445
  187POPC   H6X21582   1.268   6.024   3.342  1.9906  0.6364  1.5334
  187POPC   H6Y21583   1.363   5.883   3.287  1.0178 -2.2761  0.7424
  187POPC   C3721584   1.348   5.886   3.488 -0.3713  0.8510 -0.6603
  187POPC   H7X21585   1.451   5.927   3.498  0.5649 -1.6534  0.7905
  187POPC   H7Y21586   1.368   5.777   3.492  1.8662  1.1994 -0.6769
  187POPC   C3821587   1.264   5.941   3.606  0.5123 -0.0407  0.3020
  187POPC   H8X21588   1.168   5.886   3.606  0.8296 -0.7142  3.0831
  187POPC   H8Y21589   1.237   6.048   3.593  0.1727 -0.1598  0.0165
  187POPC   C3921590   1.320   5.927   3.752  0.1594  0.0893  1.2121
  187POPC   H9X21591   1.259   5.999   3.812 -0.5463  0.3838  0.1706
  187POPC   H9Y21592   1.427   5.955   3.745  0.1687 -0.3123 -1.1622
  187POPC  C31021593   1.298   5.797   3.835 -0.4272 -0.5228  0.5609
  187POPC  H10X21594   1.320   5.701   3.784 -0.9380  1.1420 -3.0432
  187POPC  H10Y21595   1.188   5.796   3.846 -0.3550  1.0623  1.7703
  187POPC  C31121596   1.385   5.809   3.961 -0.2290  0.4481 -0.6419
  187POPC  H11X21597   1.401   5.911   4.004  2.0285  0.5182 -1.5013
  187POPC  H11Y21598   1.487   5.775   3.935 -0.3161 -0.4307  0.1197
  187POPC  C31221599   1.335   5.718   4.069  0.9140 -0.0166 -0.2768
  187POPC  H12X21600   1.329   5.611   4.042 -0.6181 -0.0621  0.1483
  187POPC  H12Y21601   1.232   5.744   4.102  0.9020 -1.1257  0.6283
  187POPC  C31321602   1.439   5.725   4.180  0.3372  0.7746 -0.4447
  187POPC  H13X21603   1.442   5.831   4.211 -0.8200  0.8210 -0.4602
  187POPC  H13Y21604   1.540   5.688   4.150  0.3973  2.7735 -3.0600
  187POPC  C31421605   1.382   5.642   4.303 -0.2601 -0.2290  0.0846
  187POPC  H14X21606   1.367   5.538   4.266 -1.9951  0.7961 -2.3840
  187POPC  H14Y21607   1.285   5.681   4.341  1.2124  4.5075 -0.4105
  187POPC  C31521608   1.475   5.646   4.424 -0.1463  0.0518 -0.0861
  187POPC  H15X21609   1.502   5.749   4.455 -0.3252  0.1335 -0.1970
  187POPC  H15Y21610   1.566   5.591   4.392  1.2196  2.3666 -0.3914
  187POPC  C31621611   1.414   5.573   4.546 -0.4103  0.1395 -0.0732
  187POPC  H16X21612   1.463   5.586   4.645  0.8577  1.3243 -0.8158
  187POPC  H16Y21613   1.406   5.465   4.522  2.5002 -0.4901  1.2819
  187POPC  H16Z21614   1.312   5.614   4.561 -0.1686  0.6721  0.1448
  188POPC     N21615   4.094   5.710   2.178 -0.3198 -0.2166 -0.0245
  188POPC   C1221616   4.019   5.665   2.301  0.7619  0.1591 -0.7805
  188POPC  H12A21617   4.096   5.650   2.375  0.1020 -1.3894 -0.3827
  188POPC  H12B21618   3.981   5.565   2.291  0.6360  0.1039  0.1650
  188POPC   C1321619   4.001   5.734   2.062 -0.0989  0.2773 -0.2875
  188POPC  H13A21620   4.066   5.751   1.977  1.2384 -4.9168 -0.6821
  188POPC  H13B21621   3.939   5.647   2.048 -0.6466  0.6772 -0.3697
  188POPC  H13C21622   3.939   5.821   2.073  0.8613  0.8370  0.8546
  188POPC   C1421623   4.178   5.832   2.207  0.2561 -0.6220 -0.1319
  188POPC  H14A21624   4.254   5.813   2.281  1.0707 -3.1333 -1.5272
  188POPC  H14B21625   4.225   5.860   2.113  1.6445 -2.5834 -0.0747
  188POPC  H14C21626   4.124   5.924   2.228 -0.7910 -0.1596 -4.0134
  188POPC   C1521627   4.192   5.605   2.152 -0.3817  0.4526 -0.3533
  188POPC  H15A21628   4.157   5.504   2.139  0.5401  0.2894 -1.7645
  188POPC  H15B21629   4.264   5.591   2.231 -0.7496  0.8497  0.0590
  188POPC  H15C21630   4.235   5.620   2.054 -0.0062 -2.3456 -0.6955
  188POPC   C1121631   3.901   5.747   2.346 -0.1511 -0.5742  0.0098
  188POPC  H11A21632   3.937   5.852   2.338 -2.2169  0.0964 -1.4579
  188POPC  H11B21633   3.882   5.730   2.454  0.9254 -0.7935  0.1728
  188POPC     P21634   3.715   5.583   2.264 -0.1316  0.4155  0.0700
  188POPC   O1321635   3.808   5.482   2.211  0.2827  0.1414 -0.2343
  188POPC   O1421636   3.589   5.592   2.191 -0.1062  0.0140 -0.0002
  188POPC   O1221637   3.789   5.730   2.264  0.6002  0.0900 -1.1843
  188POPC   O1121638   3.693   5.555   2.414 -0.2590  0.3461  0.1987
  188POPC    C121639   3.580   5.608   2.487 -0.1215 -0.7185 -0.0129
  188POPC    HA21640   3.575   5.552   2.583 -0.9082  0.0829  0.4278
  188POPC    HB21641   3.479   5.604   2.439 -0.7570  2.2330  0.9045
  188POPC    C221642   3.590   5.762   2.512  0.9369  1.0697 -0.5809
  188POPC    HS21643   3.605   5.813   2.414 -1.1630  1.4921 -0.7272
  188POPC   O2121644   3.698   5.789   2.606 -0.3284  0.3205 -0.1746
  188POPC   C2121645   3.730   5.910   2.633  0.0290 -0.4796  0.7099
  188POPC   O2221646   3.682   6.012   2.578  0.0608  0.2641  0.3279
  188POPC   C2221647   3.846   5.917   2.731 -0.8144 -0.6880  0.3232
  188POPC   H2R21648   3.930   5.949   2.666 -0.6626  0.3837  1.0248
  188POPC   H2S21649   3.873   5.813   2.760 -2.1156 -2.0068 -2.7261
  188POPC    C321650   3.455   5.812   2.573  0.5169  0.0202  0.2754
  188POPC    HX21651   3.379   5.784   2.497  1.0315 -1.8896  0.4044
  188POPC    HY21652   3.460   5.921   2.591 -1.8113  0.0234  1.3123
  188POPC   O3121653   3.412   5.731   2.687 -0.4855 -0.6559 -0.2981
  188POPC   C3121654   3.314   5.797   2.746  0.6051  0.1977  0.1096
  188POPC   O3221655   3.258   5.886   2.686  0.7365  0.5877  0.2799
  188POPC   C3221656   3.276   5.739   2.881  0.0532 -0.0764 -0.0135
  188POPC   H2X21657   3.369   5.757   2.937  0.3359  2.7296 -1.2188
  188POPC   H2Y21658   3.248   5.631   2.878 -2.1956  0.3401  2.3245
  188POPC   C2321659   3.830   6.017   2.844 -0.4684  0.3919 -0.6205
  188POPC   H3R21660   3.728   6.026   2.888 -0.0158 -0.1841  0.5976
  188POPC   H3S21661   3.859   6.118   2.809  0.5213  0.6898  0.9603
  188POPC   C2421662   3.923   5.988   2.967 -0.2449  0.3949 -0.0453
  188POPC   H4R21663   4.028   5.997   2.934  0.2379 -0.8449  1.0417
  188POPC   H4S21664   3.910   5.879   2.985 -2.1745  0.8002  1.3856
  188POPC   C2521665   3.900   6.069   3.096 -0.0815  0.1149  0.8808
  188POPC   H5R21666   3.801   6.071   3.146  0.6695  1.5671  2.4146
  188POPC   H5S21667   3.924   6.176   3.074 -1.9182  0.9813  2.6895
  188POPC   C2621668   3.998   6.026   3.208  0.3791 -0.4284 -0.4388
  188POPC   H6R21669   4.098   6.048   3.164  0.8269 -1.1081  0.2122
  188POPC   H6S21670   3.987   5.918   3.230  0.7634 -0.7867 -1.8995
  188POPC   C2721671   3.981   6.100   3.344 -0.7001 -1.0456  0.3673
  188POPC   H7R21672   3.900   6.060   3.409  0.3644 -2.0157  1.1492
  188POPC   H7S21673   3.953   6.206   3.324  0.1459 -1.0323 -0.8434
  188POPC   C2821674   4.116   6.104   3.423 -0.6182  0.3496 -0.1095
  188POPC   H8R21675   4.103   6.175   3.507  1.1283  1.1821 -0.4822
  188POPC   H8S21676   4.195   6.147   3.357 -1.7279  1.7310 -0.5843
  188POPC   C2921677   4.154   5.968   3.469 -0.5097  0.7761  0.0484
  188POPC   H9121678   4.131   5.889   3.396  1.6541 -0.3732  0.5295
  188POPC  C21021679   4.218   5.934   3.585 -0.0136 -0.4575  0.9548
  188POPC  H10121680   4.242   5.829   3.605  0.6049 -0.4721  0.1950
  188POPC  C21121681   4.271   6.036   3.682 -0.2507  0.7689 -0.3025
  188POPC  H11R21682   4.251   6.144   3.665  1.0875  1.4509  2.0626
  188POPC  H11S21683   4.382   6.033   3.668  0.1242  2.3147  1.8266
  188POPC  C21221684   4.243   6.008   3.830  0.3251  0.9345  0.5483
  188POPC  H12R21685   4.327   6.045   3.892 -0.4711 -0.3874  2.5342
  188POPC  H12S21686   4.250   5.898   3.846 -1.8141  0.9263  1.8843
  188POPC  C21321687   4.097   6.044   3.873 -0.0605  0.5357 -0.7389
  188POPC  H13R21688   4.077   5.989   3.967  3.1268  0.7108  0.1307
  188POPC  H13S21689   4.028   6.010   3.793 -1.4957  0.5032  0.4620
  188POPC  C21421690   4.068   6.190   3.900  0.7270  0.1100  0.6608
  188POPC  H14R21691   3.965   6.218   3.930  0.6279  1.1474 -0.5750
  188POPC  H14S21692   4.088   6.243   3.805  0.6389 -0.1914  0.4740
  188POPC  C21521693   4.169   6.244   4.000 -0.3078 -0.6612  0.2532
  188POPC  H15R21694   4.269   6.196   3.995 -0.1682 -0.2774 -3.9849
  188POPC  H15S21695   4.134   6.214   4.101 -0.0486  0.2955  0.6454
  188POPC  C21621696   4.184   6.397   3.992 -0.3435  0.3834 -0.1342
  188POPC  H16R21697   4.085   6.441   4.016  1.0056  2.2911  2.5234
  188POPC  H16S21698   4.224   6.428   3.893  0.6076  2.0381  0.7183
  188POPC  C21721699   4.304   6.440   4.080 -0.0712 -0.6035 -0.4084
  188POPC  H17R21700   4.388   6.367   4.082  3.6482  3.2663  1.3919
  188POPC  H17S21701   4.257   6.441   4.180 -0.3595  1.2845 -0.5179
  188POPC  C21821702   4.363   6.573   4.046 -0.1343  0.2658 -0.2997
  188POPC  H18R21703   4.291   6.656   4.031 -1.2985 -0.1278  2.6158
  188POPC  H18S21704   4.424   6.566   3.952  0.4964  1.6985 -0.0326
  188POPC  H18T21705   4.433   6.607   4.126  2.0456 -1.7119 -1.2369
  188POPC   C3321706   3.170   5.832   2.943  0.0449 -0.4776  0.2600
  188POPC   H3X21707   3.068   5.800   2.912  0.3114  0.8016 -2.2645
  188POPC   H3Y21708   3.180   5.940   2.917 -1.5577  0.0440  1.6874
  188POPC   C3421709   3.167   5.821   3.099  0.0540 -0.4173  1.0237
  188POPC   H4X21710   3.249   5.880   3.146 -0.0776  0.2855  0.3738
  188POPC   H4Y21711   3.174   5.712   3.121 -1.2394 -0.4262  1.4876
  188POPC   C3521712   3.038   5.870   3.174  0.0086 -0.5169  0.4487
  188POPC   H5X21713   2.948   5.821   3.132  0.6701 -0.5079 -1.0571
  188POPC   H5Y21714   3.026   5.978   3.155 -1.9283 -1.0249 -1.6412
  188POPC   C3621715   3.039   5.852   3.326  0.5333 -0.1116 -0.7762
  188POPC   H6X21716   3.130   5.899   3.372 -0.0175 -0.9601  1.3088
  188POPC   H6Y21717   3.047   5.743   3.346  0.8218  0.3167  1.8223
  188POPC   C3721718   2.919   5.919   3.393 -0.2596  1.2473 -0.4294
  188POPC   H7X21719   2.832   5.869   3.347  2.2838 -0.7555 -3.5238
  188POPC   H7Y21720   2.901   6.023   3.360  0.1601  1.3041 -0.4931
  188POPC   C3821721   2.918   5.907   3.545 -0.3278  0.2205  0.4095
  188POPC   H8X21722   3.003   5.969   3.580 -0.3162 -0.1762  1.1176
  188POPC   H8Y21723   2.937   5.800   3.570  2.2033  0.0906 -1.6052
  188POPC   C3921724   2.793   5.965   3.605  0.4565 -0.2754  0.9320
  188POPC   H9X21725   2.806   6.075   3.604  0.1536 -0.2196 -1.0718
  188POPC   H9Y21726   2.795   5.945   3.714 -2.2339 -1.7527  0.8159
  188POPC  C31021727   2.653   5.919   3.543 -0.0227 -0.0671 -0.1343
  188POPC  H10X21728   2.644   5.808   3.537  1.2056 -0.3137  1.7272
  188POPC  H10Y21729   2.648   5.948   3.436  2.4893  0.0497 -0.2778
  188POPC  C31121730   2.538   5.986   3.624 -0.0488  0.2846  0.3979
  188POPC  H11X21731   2.454   5.943   3.565  0.1100 -0.1891  0.5074
  188POPC  H11Y21732   2.533   6.095   3.606  0.7120  0.3447  0.5527
  188POPC  C31221733   2.527   5.952   3.767 -0.3818  0.2236 -0.0188
  188POPC  H12X21734   2.625   5.967   3.817 -0.6530 -1.2798  1.0557
  188POPC  H12Y21735   2.510   5.842   3.771 -0.7329  0.2762 -0.0560
  188POPC  C31321736   2.411   6.024   3.848 -0.6427 -0.2254 -0.0689
  188POPC  H13X21737   2.318   6.006   3.791 -0.8288 -1.2807  0.5423
  188POPC  H13Y21738   2.430   6.133   3.842  0.2870 -0.3916 -0.3378
  188POPC  C31421739   2.386   5.973   3.986 -0.6472  0.5064  0.1594
  188POPC  H14X21740   2.478   5.955   4.045 -0.9941 -0.3529  0.4515
  188POPC  H14Y21741   2.324   5.881   3.980 -0.8054  0.6610 -0.6922
  188POPC  C31521742   2.306   6.080   4.060 -0.3308 -0.0371 -0.2669
  188POPC  H15X21743   2.374   6.167   4.068 -2.8094  2.1700 -1.4931
  188POPC  H15Y21744   2.278   6.043   4.161 -4.1654  0.5241 -0.9633
  188POPC  C31621745   2.176   6.134   3.992  0.0900  0.0509  0.2686
  188POPC  H16X21746   2.111   6.050   3.959 -0.9214  1.1790 -0.6733
  188POPC  H16Y21747   2.198   6.191   3.899  0.6187 -1.7702 -0.7843
  188POPC  H16Z21748   2.111   6.200   4.054 -0.4996 -0.2271 -0.0482
  189SAPI   C1221749   5.838   0.426   6.740 -0.6066 -0.9484 -0.1211
  189SAPI    H221750   5.896   0.421   6.645 -0.4302  0.3579 -0.1048
  189SAPI    O221751   5.803   0.300   6.795 -0.1783 -0.4344 -0.2938
  189SAPI   HO221752   5.832   0.229   6.737 -0.3644  0.4437 -1.4987
  189SAPI   C1321753   5.930   0.509   6.835 -0.0564  0.7583  0.5732
  189SAPI    H321754   5.939   0.606   6.783  1.0330  0.8969  0.9939
  189SAPI    O321755   6.064   0.463   6.849 -0.0968  0.1833  0.2026
  189SAPI   HO321756   6.117   0.529   6.804 -0.3544  1.2787  1.4340
  189SAPI   C1421757   5.862   0.513   6.971 -0.1912 -0.0903 -0.1483
  189SAPI    H421758   5.867   0.410   7.011 -0.8065 -0.9623 -2.2116
  189SAPI    O421759   5.932   0.603   7.067  0.4323  0.7559 -0.2420
  189SAPI   HO421760   5.999   0.553   7.113 -1.8538 -2.4638 -0.0337
  189SAPI   C1521761   5.715   0.554   6.963  0.5788 -0.1022 -0.0332
  189SAPI    H521762   5.723   0.664   6.976  0.8555  0.0763 -1.5184
  189SAPI    O521763   5.643   0.507   7.078 -0.2745 -0.8362 -0.5481
  189SAPI   HO521764   5.558   0.551   7.075 -0.7795 -1.7997 -0.7825
  189SAPI   C1621765   5.644   0.535   6.833  0.7167 -0.1502  0.7633
  189SAPI    H621766   5.592   0.439   6.855  1.6134 -0.0841  3.7200
  189SAPI    O621767   5.544   0.634   6.810 -0.1029  0.2026  0.2208
  189SAPI   HO621768   5.573   0.696   6.743 -0.4620  1.2438  0.9866
  189SAPI   C1121769   5.718   0.512   6.711  0.0920  1.0754  0.7152
  189SAPI    H121770   5.752   0.609   6.670  1.3083  0.3227 -0.1429
  189SAPI     P21771   5.638   0.478   6.445 -0.0794  0.0942 -0.1495
  189SAPI   O1321772   5.657   0.619   6.421  0.5827 -0.5104  0.1207
  189SAPI   O1421773   5.518   0.420   6.389 -0.2075 -0.1108 -0.5758
  189SAPI   O1221774   5.626   0.449   6.613  0.4278  0.3750  0.5260
  189SAPI   O1121775   5.763   0.389   6.412 -0.4136  0.0103  0.0597
  189SAPI    C121776   5.761   0.249   6.450 -0.4535 -0.7587  0.2601
  189SAPI    HA21777   5.848   0.223   6.514  1.2900  1.6004 -0.9910
  189SAPI    HB21778   5.677   0.198   6.502  1.2105 -3.3962  0.5782
  189SAPI    C221779   5.779   0.164   6.319 -0.1284  0.3087  0.5961
  189SAPI    HS21780   5.773   0.056   6.346 -0.1901 -0.3413 -1.7755
  189SAPI   O2121781   5.912   0.190   6.275  0.2900 -0.0920 -0.7947
  189SAPI   C2121782   6.002   0.090   6.315  0.6349  0.6270 -0.7239
  189SAPI   O2221783   5.982  -0.001   6.392  0.2368 -0.0535  0.1420
  189SAPI   C2221784   6.135   0.119   6.245 -0.3654  0.0970 -0.2347
  189SAPI   H2R21785   6.126   0.225   6.212 -0.4733 -0.1430 -1.0012
  189SAPI   H2S21786   6.214   0.105   6.321 -0.1657  3.1631  0.2531
  189SAPI    C321787   5.678   0.201   6.208 -0.1691  0.4068 -0.0116
  189SAPI    HX21788   5.692   0.311   6.199 -1.5947  1.0647  3.7000
  189SAPI    HY21789   5.575   0.187   6.247  0.5470  0.9015  2.2391
  189SAPI   O3121790   5.704   0.133   6.089  0.1140 -0.1755  0.0741
  189SAPI   C3121791   5.616   0.156   5.994  0.4864 -0.6294  0.4895
  189SAPI   O3221792   5.523   0.233   5.999  0.7178  0.0280  0.6075
  189SAPI   C3221793   5.654   0.062   5.877  0.0372  0.0099 -1.1286
  189SAPI   H2X21794   5.618  -0.040   5.904  0.6891 -0.2222 -1.1192
  189SAPI   H2Y21795   5.763   0.078   5.861  0.0224  0.1743 -1.0695
  189SAPI   C2321796   6.139   0.041   6.113 -0.4310  0.7971 -0.1846
  189SAPI   H3R21797   6.041  -0.009   6.098  0.5309 -1.6772  1.1086
  189SAPI   H3S21798   6.203  -0.045   6.142 -2.3828 -0.0079  2.1134
  189SAPI   C2421799   6.190   0.113   5.989 -0.8451 -0.0143 -0.0627
  189SAPI   H4R21800   6.243   0.039   5.925  0.3106  0.3385  0.4541
  189SAPI   H4S21801   6.264   0.193   6.010 -0.9718  0.5893 -1.8001
  189SAPI   C2521802   6.074   0.169   5.911  1.3028  0.7158  0.2542
  189SAPI   H5R21803   5.992   0.209   5.973 -0.1408 -2.2171  0.4225
  189SAPI   C2621804   6.062   0.157   5.776 -0.3176 -0.7847  0.5613
  189SAPI   H6R21805   5.974   0.203   5.729  2.2832  2.2162 -1.8265
  189SAPI   C2721806   6.164   0.115   5.671  1.1227 -0.2813 -0.3858
  189SAPI   H7R21807   6.178   0.006   5.691 -2.5011 -0.4778  2.0672
  189SAPI   H7S21808   6.264   0.161   5.682  1.2846 -0.4072 -1.2624
  189SAPI   C2821809   6.098   0.139   5.534 -0.3408  0.2125  0.4023
  189SAPI   H8R21810   5.989   0.121   5.533 -0.6656  1.9511  1.5487
  189SAPI   C2921811   6.148   0.182   5.418  0.2067  0.6363  0.7923
  189SAPI   H9R21812   6.078   0.185   5.334  0.8238  0.0822  0.2415
  189SAPI  C21021813   6.289   0.223   5.385  0.3094 -0.4881  0.2150
  189SAPI  H10R21814   6.352   0.219   5.476 -0.0889 -2.3004  0.4443
  189SAPI  H10S21815   6.287   0.332   5.364 -0.9419 -0.2015  1.6760
  189SAPI  C21121816   6.350   0.139   5.275 -0.1725 -0.3590 -0.6324
  189SAPI  H11R21817   6.417   0.061   5.314  0.7414  1.8173  2.6043
  189SAPI  C21221818   6.329   0.167   5.145 -0.2928 -0.4796  0.0030
  189SAPI  H12R21819   6.371   0.092   5.075  1.4138 -1.8107  2.3191
  189SAPI  C21321820   6.267   0.285   5.076  1.1499 -0.4300 -0.1493
  189SAPI  H13R21821   6.338   0.371   5.074 -0.2029  0.9842  3.7783
  189SAPI  H13S21822   6.185   0.327   5.138  0.8020 -1.8386  0.3729
  189SAPI  C21421823   6.221   0.271   4.930  0.4789  0.2028  0.0953
  189SAPI  H14R21824   6.111   0.273   4.925  0.4781  2.2212  0.1141
  189SAPI  C21521825   6.293   0.265   4.816  0.7756 -0.2771  0.1799
  189SAPI  H15R21826   6.244   0.245   4.720  0.9922  0.4823 -0.0958
  189SAPI  C21621827   6.442   0.280   4.816  0.8647 -0.1898  0.0484
  189SAPI  H16R21828   6.477   0.253   4.918 -3.0098 -1.3348  1.2403
  189SAPI  H16S21829   6.474   0.384   4.795  1.9000 -0.3007  1.0079
  189SAPI  C21721830   6.514   0.193   4.713  0.2774  0.1971  0.2017
  189SAPI  H17R21831   6.494   0.084   4.724  2.2643 -0.3092 -0.7350
  189SAPI  H17S21832   6.624   0.203   4.724  0.6849  0.9656 -3.3484
  189SAPI  C21821833   6.495   0.227   4.559  0.1588  0.1019 -0.2129
  189SAPI  H18R21834   6.544   0.324   4.537 -0.1074  0.6985  1.5998
  189SAPI  H18S21835   6.388   0.241   4.536 -0.4644  1.8769  3.1194
  189SAPI  C21921836   6.541   0.127   4.454  0.5009  0.2695 -0.2086
  189SAPI  H19R21837   6.518   0.020   4.474  0.9199  0.5324  1.9279
  189SAPI  H19S21838   6.652   0.118   4.458  0.2871 -3.8966  0.2803
  189SAPI  C22021839   6.504   0.162   4.309 -0.2095 -0.0321  0.0472
  189SAPI  H20R21840   6.546   0.080   4.247  1.1994  0.5140  0.2370
  189SAPI  H20S21841   6.543   0.261   4.278  1.6692 -0.8693 -0.4500
  189SAPI  H20T21842   6.394   0.152   4.300 -0.7486  2.4909  2.5449
  189SAPI   C3321843   5.566   0.086   5.747  0.0248  0.2550 -0.4040
  189SAPI   H3X21844   5.559   0.197   5.736 -0.3581 -0.0233 -4.2080
  189SAPI   H3Y21845   5.465   0.042   5.756 -0.2283  1.2080  2.4830
  189SAPI   C3421846   5.643   0.047   5.619  0.5955  0.0245  0.4370
  189SAPI   H4X21847   5.615  -0.059   5.606 -0.9614  0.3964  0.5647
  189SAPI   H4Y21848   5.753   0.064   5.628  1.0070 -1.7090 -0.9119
  189SAPI   C3521849   5.594   0.122   5.498 -0.2490  0.0892  0.6433
  189SAPI   H5X21850   5.634   0.226   5.495 -1.1989  0.4601  0.4353
  189SAPI   H5Y21851   5.484   0.135   5.506 -0.2952 -0.3306  0.7178
  189SAPI   C3621852   5.635   0.058   5.369 -0.1571 -0.9640  0.2304
  189SAPI   H6X21853   5.596  -0.046   5.372 -0.7647 -0.8404 -1.7007
  189SAPI   H6Y21854   5.746   0.053   5.375  0.0004  1.0876 -0.1609
  189SAPI   C3721855   5.586   0.122   5.239  0.0796 -0.0928  0.1900
  189SAPI   H7X21856   5.598   0.232   5.254  0.5314  0.3494 -2.8030
  189SAPI   H7Y21857   5.482   0.095   5.212 -0.2986  1.3767  0.0644
  189SAPI   C3821858   5.667   0.078   5.114  0.6245 -0.1546  0.1168
  189SAPI   H8X21859   5.718  -0.020   5.124 -1.6474 -1.3269  0.9523
  189SAPI   H8Y21860   5.733   0.165   5.095 -2.3692  2.0535 -1.0195
  189SAPI   C3921861   5.578   0.074   4.997  0.1957 -0.6555  0.9764
  189SAPI   H9X21862   5.633   0.105   4.906 -1.0295 -0.1183  0.3905
  189SAPI   H9Y21863   5.511   0.161   5.017  0.8681  0.8159 -2.3974
  189SAPI  C31021864   5.494  -0.052   4.958  0.4865 -0.5667 -0.5097
  189SAPI  H10X21865   5.442  -0.101   5.043 -1.1343  0.6329 -0.7538
  189SAPI  H10Y21866   5.579  -0.114   4.923  2.3247  1.5866 -0.1286
  189SAPI  C31121867   5.385  -0.024   4.851  0.3729  0.3448 -0.1600
  189SAPI  H11X21868   5.382   0.087   4.837 -0.2773 -0.0048 -3.5684
  189SAPI  H11Y21869   5.291  -0.070   4.885  1.4940 -1.2453  0.9081
  189SAPI  C31221870   5.418  -0.082   4.708  0.2212 -0.3899 -0.7568
  189SAPI  H12X21871   5.470  -0.179   4.723  1.6011  0.4747  0.3760
  189SAPI  H12Y21872   5.495  -0.015   4.663  1.3411 -0.6271  0.6878
  189SAPI  C31321873   5.305  -0.095   4.606 -0.7852 -0.6587 -0.2409
  189SAPI  H13X21874   5.279   0.008   4.573 -0.6297 -0.4958  0.1275
  189SAPI  H13Y21875   5.217  -0.135   4.661 -0.9626 -1.2215 -0.9211
  189SAPI  C31421876   5.358  -0.176   4.490  0.0259 -0.4210 -0.1237
  189SAPI  H14X21877   5.405  -0.269   4.527 -1.0231 -0.5644  0.8953
  189SAPI  H14Y21878   5.425  -0.102   4.440 -1.5691  2.2166  1.3633
  189SAPI  C31521879   5.242  -0.212   4.396  0.2626 -0.2631 -0.0432
  189SAPI  H15X21880   5.191  -0.115   4.372 -0.2152 -0.9075 -1.8146
  189SAPI  H15Y21881   5.174  -0.276   4.456 -0.4699  0.8098  0.3113
  189SAPI  C31621882   5.280  -0.314   4.279 -0.9830  0.3469  0.5908
  189SAPI  H16X21883   5.382  -0.295   4.240 -1.8389  0.7897 -1.5884
  189SAPI  H16Y21884   5.214  -0.288   4.193  0.5561 -1.0369 -1.0789
  189SAPI  C31721885   5.263  -0.463   4.320  0.2932  0.4522 -0.2317
  189SAPI  H17X21886   5.158  -0.480   4.355  0.5925  1.0714  1.0348
  189SAPI  H17Y21887   5.331  -0.484   4.405  1.3031  1.3296 -0.8097
  189SAPI  C31821888   5.288  -0.573   4.213 -0.1421  0.3786 -0.1256
  189SAPI  H18X21889   5.396  -0.587   4.189  0.2077  1.5081  0.7279
  189SAPI  H18Y21890   5.238  -0.535   4.121  0.4408 -0.1344 -0.6646
  189SAPI  H18Z21891   5.260  -0.674   4.250  2.3270 -0.6808 -0.9060
  190SAPI   C1221892   5.272   6.064   6.504 -0.1481  0.0203 -0.1473
  190SAPI    H221893   5.198   6.002   6.558  2.2117 -1.7122  1.2832
  190SAPI    O221894   5.296   6.171   6.592 -0.3202  0.1652  0.2550
  190SAPI   HO221895   5.207   6.199   6.616 -0.1285  1.7276 -0.6726
  190SAPI   C1321896   5.394   5.975   6.482  0.4220 -0.1076 -0.4395
  190SAPI    H321897   5.367   5.898   6.406 -0.1887  0.7224 -1.0757
  190SAPI    O321898   5.417   5.913   6.610  0.4250  0.0928  0.5884
  190SAPI   HO321899   5.456   5.981   6.667  0.4277 -0.0793  0.7948
  190SAPI   C1421900   5.507   6.052   6.431 -0.7612 -0.8493  0.3195
  190SAPI    H421901   5.551   6.116   6.510  0.2363 -0.7084 -0.3226
  190SAPI    O421902   5.609   5.959   6.387  0.2725 -0.2299 -0.2627
  190SAPI   HO421903   5.674   5.965   6.457  0.7360  1.0704 -0.7811
  190SAPI   C1521904   5.477   6.140   6.311 -0.1308 -0.7847 -0.0042
  190SAPI    H521905   5.490   6.086   6.215  0.5618  2.8580 -2.1360
  190SAPI    O521906   5.560   6.260   6.308 -0.1084 -0.3922 -0.2126
  190SAPI   HO521907   5.624   6.263   6.237 -0.0903  0.5954 -0.1697
  190SAPI   C1621908   5.334   6.183   6.294  0.0589 -0.6748  0.0228
  190SAPI    H621909   5.329   6.280   6.347  0.8276  0.5504 -2.0401
  190SAPI    O621910   5.304   6.204   6.158 -0.1215 -0.1140  0.4128
  190SAPI   HO621911   5.214   6.181   6.135 -0.6429  2.6613 -0.7900
  190SAPI   C1121912   5.232   6.099   6.363 -0.4345  0.3269  0.2701
  190SAPI    H121913   5.219   6.004   6.307 -1.2109 -1.9446  3.9694
  190SAPI     P21914   4.989   6.154   6.253 -0.0628 -0.0486  0.1129
  190SAPI   O1321915   5.049   6.128   6.121 -0.0286 -0.7648  0.2920
  190SAPI   O1421916   4.894   6.268   6.273  0.3777  0.4005  0.4637
  190SAPI   O1221917   5.102   6.159   6.374  0.1460 -0.8242 -0.0727
  190SAPI   O1121918   4.903   6.031   6.294  0.0457  0.1151 -0.4393
  190SAPI    C121919   4.931   5.898   6.278  0.0341 -0.2813 -1.2809
  190SAPI    HA21920   5.037   5.873   6.260  0.2264 -1.0393  0.7688
  190SAPI    HB21921   4.918   5.858   6.380  0.3579 -0.2744 -1.2381
  190SAPI    C221922   4.833   5.830   6.172 -0.2672 -0.0319  0.0550
  190SAPI    HS21923   4.880   5.734   6.143  1.1958  0.5216  0.4826
  190SAPI   O2121924   4.799   5.925   6.071 -0.4079  0.1866 -0.0988
  190SAPI   C2121925   4.886   5.919   5.969 -0.4416 -0.1322  1.1015
  190SAPI   O2221926   4.971   5.833   5.955 -0.5072 -0.1052  0.3625
  190SAPI   C2221927   4.871   6.046   5.890 -0.7186 -0.1489 -0.6390
  190SAPI   H2R21928   4.773   6.043   5.836 -0.0441 -0.8216 -1.8818
  190SAPI   H2S21929   4.862   6.128   5.964  0.3624 -0.5536 -0.0413
  190SAPI    C321930   4.694   5.795   6.243 -0.3028 -0.3052  0.4256
  190SAPI    HX21931   4.650   5.893   6.270 -0.5565 -0.5636  0.9669
  190SAPI    HY21932   4.709   5.743   6.340 -2.6853 -1.8981 -0.0007
  190SAPI   O3121933   4.621   5.701   6.156 -0.0703 -0.2283  0.3544
  190SAPI   C3121934   4.507   5.753   6.102  0.3808 -0.3142  0.2713
  190SAPI   O3221935   4.458   5.863   6.122 -0.2895 -0.2322 -0.2916
  190SAPI   C3221936   4.458   5.656   5.996 -0.3067  0.2496  0.4070
  190SAPI   H2X21937   4.384   5.591   6.046  2.7106 -2.4035  1.7528
  190SAPI   H2Y21938   4.542   5.592   5.962  0.7615  2.2804 -1.0161
  190SAPI   C2321939   4.967   6.053   5.772  0.1202 -0.0878  0.1918
  190SAPI   H3R21940   4.962   5.956   5.717  2.3101  0.9047 -1.9261
  190SAPI   H3S21941   5.070   6.061   5.814  0.0705  0.5475  0.2057
  190SAPI   C2421942   4.927   6.170   5.679 -0.2668  0.0824 -0.0019
  190SAPI   H4R21943   4.899   6.256   5.743  0.6126  0.4752 -0.1387
  190SAPI   H4S21944   4.836   6.139   5.622 -0.1588 -2.7788  1.1752
  190SAPI   C2521945   5.039   6.212   5.591 -0.2991 -0.3065 -0.4381
  190SAPI   H5R21946   5.126   6.253   5.645  0.0407  0.2638 -1.4033
  190SAPI   C2621947   5.047   6.189   5.457  0.9254 -0.1162  0.5597
  190SAPI   H6R21948   5.136   6.224   5.403 -0.4003  0.4376 -1.3696
  190SAPI   C2721949   4.931   6.134   5.368 -0.2106  0.2587 -0.4149
  190SAPI   H7R21950   4.907   6.193   5.277  1.1590  0.0584 -0.9306
  190SAPI   H7S21951   4.834   6.145   5.420 -0.7353  0.3679 -1.4043
  190SAPI   C2821952   4.960   5.988   5.341  0.2546  0.3708  0.0726
  190SAPI   H8R21953   4.919   5.926   5.423  1.3844 -0.9281 -0.3009
  190SAPI   C2921954   5.013   5.932   5.229 -0.8918 -0.6939  0.1638
  190SAPI   H9R21955   5.013   5.822   5.226 -1.4722 -0.7238  0.9296
  190SAPI  C21021956   5.049   5.998   5.099 -0.7183 -0.1026  0.3522
  190SAPI  H10R21957   4.968   6.054   5.048  2.4447  1.8606 -3.0102
  190SAPI  H10S21958   5.073   5.922   5.022  0.1339  0.6475 -0.1426
  190SAPI  C21121959   5.169   6.089   5.116 -0.4193  0.3649 -0.0928
  190SAPI  H11R21960   5.215   6.093   5.215 -0.8663 -2.2479  0.3038
  190SAPI  C21221961   5.207   6.170   5.020  0.2417 -0.3095  0.2863
  190SAPI  H12R21962   5.279   6.252   5.035 -0.1678  0.5240 -1.8893
  190SAPI  C21321963   5.147   6.168   4.882  0.4013 -0.3170 -0.6054
  190SAPI  H13R21964   5.048   6.219   4.882  0.4778 -0.0952 -2.4736
  190SAPI  H13S21965   5.115   6.066   4.851 -1.2725 -0.6609  1.8974
  190SAPI  C21421966   5.234   6.235   4.783  0.5130 -0.8356 -0.8514
  190SAPI  H14R21967   5.325   6.182   4.750  1.8408 -0.8385  2.3634
  190SAPI  C21521968   5.215   6.356   4.724  0.1812 -0.2164 -0.6052
  190SAPI  H15R21969   5.288   6.392   4.649  0.3926  1.0963  0.1908
  190SAPI  C21621970   5.100   6.451   4.751  0.2355  0.0918  0.0793
  190SAPI  H16R21971   5.138   6.555   4.742  3.0347 -0.9631 -1.3695
  190SAPI  H16S21972   5.039   6.447   4.844 -2.0741  0.6397 -1.3408
  190SAPI  C21721973   5.012   6.433   4.625  0.5493 -0.3864  0.0278
  190SAPI  H17R21974   5.075   6.427   4.534  1.3924  2.4168  0.3113
  190SAPI  H17S21975   4.949   6.524   4.615  0.1651 -0.6359  0.1905
  190SAPI  C21821976   4.916   6.314   4.633 -0.1558 -0.5389  0.4317
  190SAPI  H18R21977   4.971   6.222   4.665  1.2156  0.1629  0.1778
  190SAPI  H18S21978   4.872   6.291   4.534 -0.2453 -0.1673  0.3865
  190SAPI  C21921979   4.821   6.329   4.746 -0.4877 -0.0718  0.1557
  190SAPI  H19R21980   4.764   6.417   4.709 -1.3976 -0.7330 -0.0485
  190SAPI  H19S21981   4.867   6.346   4.846 -0.4319 -0.9634  0.2918
  190SAPI  C22021982   4.720   6.219   4.770  0.1433  0.6735 -0.5323
  190SAPI  H20R21983   4.760   6.141   4.837 -1.3249 -0.3562 -0.8183
  190SAPI  H20S21984   4.685   6.174   4.675  0.5343 -0.7050 -0.0387
  190SAPI  H20T21985   4.635   6.264   4.826  0.3095  1.4300 -0.8661
  190SAPI   C3321986   4.424   5.729   5.867 -0.2324 -0.5976 -0.1345
  190SAPI   H3X21987   4.352   5.811   5.888  1.7480  1.0549  0.5021
  190SAPI   H3Y21988   4.362   5.663   5.802 -1.4327 -1.6662  1.9773
  190SAPI   C3421989   4.542   5.772   5.782  0.4175  0.0690  0.1448
  190SAPI   H4X21990   4.594   5.675   5.763  1.2071 -0.2696  3.5222
  190SAPI   H4Y21991   4.624   5.826   5.835  0.7501  0.3336 -0.6171
  190SAPI   C3521992   4.505   5.848   5.657 -0.0730 -0.0089 -0.1012
  190SAPI   H5X21993   4.463   5.947   5.686 -0.2170  0.0679 -0.5565
  190SAPI   H5Y21994   4.430   5.790   5.599  1.6313 -0.1174 -2.3273
  190SAPI   C3621995   4.624   5.879   5.570 -0.3201 -0.7070  0.4856
  190SAPI   H6X21996   4.680   5.784   5.567 -2.4218 -1.9938  0.2379
  190SAPI   H6Y21997   4.681   5.951   5.633  1.7903 -1.3781 -0.5465
  190SAPI   C3721998   4.585   5.933   5.432 -0.0951 -0.2935  1.2628
  190SAPI   H7X21999   4.669   5.982   5.379 -0.5255  1.0219  1.7610
  190SAPI   H7Y22000   4.509   6.013   5.439 -0.6003 -0.5725 -0.5364
  190SAPI   C3822001   4.526   5.824   5.343  0.0027 -0.4860 -0.2774
  190SAPI   H8X22002   4.420   5.814   5.374 -0.4978  1.4941 -1.1545
  190SAPI   H8Y22003   4.577   5.729   5.369  0.6833  0.4940  2.2787
  190SAPI   C3922004   4.533   5.861   5.191  0.0106 -0.2862  0.5878
  190SAPI   H9X22005   4.640   5.878   5.165 -0.3315 -0.9792 -1.4456
  190SAPI   H9Y22006   4.474   5.952   5.167 -1.7988 -1.5467  0.0847
  190SAPI  C31022007   4.481   5.746   5.100 -0.6081  0.4181 -1.0851
  190SAPI  H10X22008   4.371   5.735   5.116 -0.2284 -0.6893  1.1424
  190SAPI  H10Y22009   4.525   5.650   5.134  1.2624  1.1830 -1.2351
  190SAPI  C31122010   4.520   5.760   4.952 -0.9115  0.4232 -0.0004
  190SAPI  H11X22011   4.475   5.852   4.910  0.8304  1.5368  0.4630
  190SAPI  H11Y22012   4.476   5.676   4.894 -1.5934 -0.8634  2.2482
  190SAPI  C31222013   4.672   5.766   4.924 -0.3866 -0.3709  0.1431
  190SAPI  H12X22014   4.720   5.682   4.978 -1.7830 -0.7056  0.9300
  190SAPI  H12Y22015   4.713   5.857   4.971  1.5129 -0.7116 -0.7822
  190SAPI  C31322016   4.703   5.730   4.781  0.2866  0.6731  0.2535
  190SAPI  H13X22017   4.629   5.787   4.722  1.0017  1.1978 -0.1523
  190SAPI  H13Y22018   4.685   5.620   4.785  3.0046  0.1533  0.5886
  190SAPI  C31422019   4.843   5.776   4.739 -0.2640  0.0632 -0.3276
  190SAPI  H14X22020   4.917   5.747   4.817 -0.4457 -2.2763 -0.9517
  190SAPI  H14Y22021   4.837   5.887   4.729 -2.7607 -0.1287 -1.8041
  190SAPI  C31522022   4.890   5.733   4.598 -0.7613 -0.2894 -0.3159
  190SAPI  H15X22023   4.825   5.788   4.526  1.4307  1.9169 -0.7444
  190SAPI  H15Y22024   4.885   5.622   4.588  1.4810 -0.5009  0.4704
  190SAPI  C31622025   5.032   5.790   4.566  0.3643  0.0361  0.0778
  190SAPI  H16X22026   5.080   5.733   4.484  2.8081 -0.7247  1.9227
  190SAPI  H16Y22027   5.095   5.771   4.656 -1.8618  0.5766  1.8791
  190SAPI  C31722028   5.049   5.936   4.541  0.2467  0.1545  0.4214
  190SAPI  H17X22029   5.157   5.954   4.519  0.8715 -0.9075  2.4103
  190SAPI  H17Y22030   5.024   5.999   4.629  0.0114 -1.2461  1.3886
  190SAPI  C31822031   4.977   5.987   4.414  0.4763  0.2550  0.1498
  190SAPI  H18X22032   5.015   6.087   4.385  0.9579  0.3508  1.0728
  190SAPI  H18Y22033   4.868   5.999   4.436  0.5615  1.3667  0.0049
  190SAPI  H18Z22034   4.998   5.915   4.332 -0.3828  0.4613 -0.2658
  191SAPI   C1222035   4.863   1.322   1.575 -0.4790  0.5610 -1.4762
  191SAPI    H222036   4.894   1.402   1.646  1.3380 -1.8546  0.6918
  191SAPI    O222037   4.777   1.371   1.468 -0.6731  0.1188  0.6828
  191SAPI   HO222038   4.836   1.425   1.415 -0.9498 -0.1923  0.0583
  191SAPI   C1322039   4.999   1.269   1.520  1.1061 -0.6825 -0.1863
  191SAPI    H322040   5.059   1.228   1.604  2.1177  2.5501  0.8218
  191SAPI    O322041   5.081   1.372   1.474 -0.1629 -0.7135 -0.4230
  191SAPI   HO322042   5.171   1.344   1.491 -0.2433 -0.1227  1.0765
  191SAPI   C1422043   4.975   1.159   1.413  0.1561 -0.2795  0.1287
  191SAPI    H422044   4.910   1.207   1.337  0.1353  1.3211  1.1218
  191SAPI    O422045   5.099   1.111   1.363  0.1343 -0.0557 -0.9788
  191SAPI   HO422046   5.099   1.118   1.267 -0.0668 -1.5066 -1.1052
  191SAPI   C1522047   4.904   1.041   1.472 -0.0174 -0.2344  0.3344
  191SAPI    H522048   4.980   0.977   1.521  1.2940  1.7107  0.9533
  191SAPI    O522049   4.844   0.959   1.373 -0.1528 -0.2140  0.1984
  191SAPI   HO522050   4.881   0.870   1.376  0.7356  0.1781  2.7008
  191SAPI   C1622051   4.797   1.073   1.578 -0.7886  0.2791  0.5389
  191SAPI    H622052   4.708   1.082   1.512 -1.0741 -0.1072  0.8633
  191SAPI    O622053   4.764   0.960   1.662  0.2414 -0.4658 -0.5261
  191SAPI   HO622054   4.669   0.942   1.667  0.5135 -2.0078 -0.3943
  191SAPI   C1122055   4.801   1.204   1.651  0.0407 -0.5495 -0.8485
  191SAPI    H122056   4.862   1.187   1.742 -1.4605  0.5574  0.4178
  191SAPI     P22057   4.655   1.346   1.837 -0.4869  0.0967  0.1577
  191SAPI   O1322058   4.511   1.369   1.849 -0.6028  0.0181  0.6810
  191SAPI   O1422059   4.744   1.465   1.833  0.1760 -0.0147 -0.0528
  191SAPI   O1222060   4.676   1.247   1.701 -0.4908 -0.1820 -0.4980
  191SAPI   O1122061   4.717   1.240   1.940  0.2094 -0.4562  0.3444
  191SAPI    C122062   4.624   1.142   1.996 -0.6553  0.2753  0.2418
  191SAPI    HA22063   4.526   1.145   1.943 -1.7845 -0.3842  2.1857
  191SAPI    HB22064   4.675   1.044   2.004  0.8547  0.9588 -0.4490
  191SAPI    C222065   4.595   1.184   2.146 -0.5264  0.7484 -0.1370
  191SAPI    HS22066   4.530   1.273   2.138 -1.8180  0.1168  2.2996
  191SAPI   O2122067   4.719   1.199   2.213  0.6952  0.1487  0.0244
  191SAPI   C2122068   4.720   1.304   2.300 -0.6974 -0.2358 -0.2240
  191SAPI   O2222069   4.630   1.378   2.328 -0.6027 -0.1221  0.3228
  191SAPI   C2222070   4.863   1.306   2.361 -0.5583 -0.4269 -0.0943
  191SAPI   H2R22071   4.915   1.208   2.358 -2.3985 -1.4588 -0.0486
  191SAPI   H2S22072   4.931   1.369   2.301 -2.0729 -1.3108 -2.9828
  191SAPI    C322073   4.517   1.075   2.214  0.1249  0.0526 -0.0410
  191SAPI    HX22074   4.583   0.986   2.218 -0.9902 -0.8291 -0.7239
  191SAPI    HY22075   4.425   1.034   2.167 -0.5439 -0.4563  1.6240
  191SAPI   O3122076   4.487   1.113   2.347  0.0289 -0.2266 -0.8250
  191SAPI   C3122077   4.378   1.201   2.363 -0.3177 -0.5346  0.2110
  191SAPI   O3222078   4.294   1.219   2.272  0.1280 -0.1350 -0.1183
  191SAPI   C3222079   4.366   1.260   2.501 -0.3962  0.7046 -0.7359
  191SAPI   H2X22080   4.464   1.288   2.544 -0.6095  0.0722  0.1676
  191SAPI   H2Y22081   4.314   1.179   2.555 -1.4632  1.8111 -0.0389
  191SAPI   C2322082   4.842   1.337   2.509  0.0201 -0.4650  0.7137
  191SAPI   H3R22083   4.793   1.253   2.562  1.4999 -0.8713  1.4565
  191SAPI   H3S22084   4.765   1.416   2.526  1.1842  0.9248 -0.2427
  191SAPI   C2422085   4.968   1.390   2.579 -0.3758  0.5355  0.7319
  191SAPI   H4R22086   4.941   1.445   2.671  1.0618  2.3031  0.1499
  191SAPI   H4S22087   5.009   1.477   2.523 -0.7486 -0.5305 -1.3155
  191SAPI   C2522088   5.077   1.283   2.586 -0.3190 -0.6950 -0.7582
  191SAPI   H5R22089   5.162   1.292   2.517  2.2568 -0.8823  2.1923
  191SAPI   C2622090   5.086   1.192   2.689 -0.6743  0.0908  0.0745
  191SAPI   H6R22091   5.173   1.125   2.694 -1.6806 -1.2934 -0.1712
  191SAPI   C2722092   4.989   1.183   2.808  0.4917  0.4346 -0.3362
  191SAPI   H7R22093   4.943   1.082   2.817 -1.0401  0.8020 -3.1891
  191SAPI   H7S22094   4.906   1.251   2.781  1.1409  0.7553 -1.6178
  191SAPI   C2822095   5.052   1.232   2.938  0.1149  0.2376  0.6259
  191SAPI   H8R22096   5.066   1.341   2.944  0.3507  0.2829 -0.4790
  191SAPI   C2922097   5.076   1.161   3.042 -0.6595  0.7051 -0.6586
  191SAPI   H9R22098   5.142   1.206   3.118  0.1219 -2.3466  0.6466
  191SAPI  C21022099   5.038   1.015   3.070  0.1181  0.0840 -0.3315
  191SAPI  H10R22100   5.121   0.966   3.125 -0.6363  0.4095  1.1242
  191SAPI  H10S22101   5.032   0.954   2.977 -1.1128 -0.4139  0.0548
  191SAPI  C21122102   4.910   1.008   3.147 -0.5446  0.4207  0.1663
  191SAPI  H11R22103   4.825   1.050   3.091 -1.4198  0.3358  1.3807
  191SAPI  C21222104   4.891   0.987   3.273 -0.0060  0.4568 -0.8967
  191SAPI  H12R22105   4.788   0.989   3.311 -0.2478 -1.5275 -1.3405
  191SAPI  C21322106   4.997   0.967   3.377 -0.0594  0.7133 -0.6394
  191SAPI  H13R22107   5.099   0.984   3.338  0.6195  1.8992  1.4481
  191SAPI  H13S22108   4.992   0.859   3.401 -1.7569  0.6871 -0.9786
  191SAPI  C21422109   4.984   1.033   3.512 -0.2643 -0.4029 -0.7209
  191SAPI  H14R22110   4.970   1.142   3.502 -0.7768 -0.6166 -2.5927
  191SAPI  C21522111   4.985   0.982   3.639 -0.6909 -0.7612  0.1486
  191SAPI  H15R22112   4.968   1.051   3.723  0.2977  1.1717 -1.1630
  191SAPI  C21622113   4.994   0.833   3.672 -0.1513  0.0271 -0.0294
  191SAPI  H16R22114   4.995   0.775   3.577 -2.6752  1.2016 -0.8617
  191SAPI  H16S22115   4.905   0.808   3.733 -0.6480 -0.2162 -0.8376
  191SAPI  C21722116   5.131   0.799   3.744  0.3083  0.7387  0.1845
  191SAPI  H17R22117   5.123   0.697   3.788 -0.0773  0.5340 -0.3525
  191SAPI  H17S22118   5.137   0.858   3.837  0.8289 -0.3984  0.8998
  191SAPI  C21822119   5.255   0.822   3.670  0.0858 -0.2825  0.7179
  191SAPI  H18R22120   5.261   0.921   3.620 -1.3766 -0.5019  0.0499
  191SAPI  H18S22121   5.278   0.744   3.595  2.4561 -0.1449  1.2207
  191SAPI  C21922122   5.379   0.813   3.758  0.1893  0.2359 -0.1862
  191SAPI  H19R22123   5.355   0.860   3.856 -0.9298 -0.1941 -0.2422
  191SAPI  H19S22124   5.464   0.869   3.714  0.2502  0.6261  0.4038
  191SAPI  C22022125   5.407   0.666   3.769  0.3761  0.3955  0.1216
  191SAPI  H20R22126   5.314   0.612   3.797  1.5465 -1.5464  0.4253
  191SAPI  H20S22127   5.485   0.642   3.845  1.9329  1.7818 -0.9837
  191SAPI  H20T22128   5.432   0.624   3.670 -1.6053 -1.4792  0.3459
  191SAPI   C3322129   4.276   1.385   2.499  0.0354 -0.1507  0.0426
  191SAPI   H3X22130   4.169   1.367   2.473 -0.4290  0.3019  1.5134
  191SAPI   H3Y22131   4.309   1.463   2.427  0.1130 -0.1901  0.0365
  191SAPI   C3422132   4.272   1.459   2.636 -0.6848  0.4311 -0.3951
  191SAPI   H4X22133   4.362   1.524   2.636 -0.6299  0.3676  0.6874
  191SAPI   H4Y22134   4.274   1.376   2.710  0.6719  0.8814  0.0981
  191SAPI   C3522135   4.149   1.551   2.666 -0.2537  0.6078 -0.4432
  191SAPI   H5X22136   4.055   1.501   2.636 -0.7217  3.1092 -3.7573
  191SAPI   H5Y22137   4.164   1.640   2.601 -0.1481 -0.2911 -1.6799
  191SAPI   C3622138   4.133   1.598   2.813 -0.8569  0.6719 -0.1227
  191SAPI   H6X22139   4.038   1.654   2.828 -2.1624 -1.7914  1.4653
  191SAPI   H6Y22140   4.213   1.668   2.845 -1.1896  0.5996  0.8962
  191SAPI   C3722141   4.135   1.490   2.919 -0.2748 -0.4375  0.7481
  191SAPI   H7X22142   4.230   1.433   2.926  0.3175  0.4108 -0.1515
  191SAPI   H7Y22143   4.064   1.408   2.892  0.9862 -1.8891  1.7207
  191SAPI   C3822144   4.098   1.544   3.052  0.1642 -0.1794  0.2018
  191SAPI   H8X22145   3.988   1.547   3.064  0.0822 -1.4404 -0.0659
  191SAPI   H8Y22146   4.132   1.649   3.066  1.2805 -0.4514 -0.3170
  191SAPI   C3922147   4.153   1.459   3.165  0.7400 -0.3908 -0.4349
  191SAPI   H9X22148   4.263   1.446   3.164  0.8593 -0.3916  2.5343
  191SAPI   H9Y22149   4.087   1.371   3.156 -0.3780  0.4704 -0.9048
  191SAPI  C31022150   4.130   1.534   3.301  0.3232 -0.0046 -0.2315
  191SAPI  H10X22151   4.032   1.583   3.315  0.6320  0.3842  0.6347
  191SAPI  H10Y22152   4.214   1.605   3.317  1.2683 -1.1332  0.0437
  191SAPI  C31122153   4.124   1.451   3.426  0.3745 -0.8750  1.1085
  191SAPI  H11X22154   4.215   1.388   3.439  1.0931 -0.0825  0.0512
  191SAPI  H11Y22155   4.039   1.380   3.428  1.8002 -2.6625  1.2059
  191SAPI  C31222156   4.117   1.537   3.549 -0.7848  0.0930 -0.4041
  191SAPI  H12X22157   4.022   1.594   3.544 -0.2375  0.9702 -1.4447
  191SAPI  H12Y22158   4.204   1.603   3.527  1.0405 -2.0859 -0.0280
  191SAPI  C31322159   4.139   1.453   3.670  0.0812  0.3093  0.1014
  191SAPI  H13X22160   4.213   1.372   3.650  0.0157 -0.2897  2.0705
  191SAPI  H13Y22161   4.043   1.399   3.687  0.2126 -0.6343 -1.8953
  191SAPI  C31422162   4.187   1.532   3.788  0.2826 -0.5239 -0.5905
  191SAPI  H14X22163   4.095   1.554   3.845  0.4721  0.3004 -0.5922
  191SAPI  H14Y22164   4.235   1.631   3.772 -0.4920  0.1581  1.0798
  191SAPI  C31522165   4.276   1.444   3.879  0.3157  0.0034 -0.0502
  191SAPI  H15X22166   4.373   1.450   3.826 -0.2145  1.9408 -0.8692
  191SAPI  H15Y22167   4.251   1.335   3.877 -1.2315  0.3402 -0.3241
  191SAPI  C31622168   4.287   1.489   4.025 -0.2550 -0.2670 -0.0969
  191SAPI  H16X22169   4.359   1.424   4.079  0.8848  0.4100 -0.7566
  191SAPI  H16Y22170   4.192   1.480   4.083  0.7461 -0.1711  1.6520
  191SAPI  C31722171   4.323   1.637   4.050  0.1864  0.4953  0.3118
  191SAPI  H17X22172   4.246   1.698   4.000 -0.4352  0.4413  1.1757
  191SAPI  H17Y22173   4.421   1.660   4.003  0.3856  0.6229  0.7828
  191SAPI  C31822174   4.328   1.679   4.195 -0.1656 -0.8232 -0.6961
  191SAPI  H18X22175   4.225   1.680   4.236 -0.6567 -1.8008 -1.8482
  191SAPI  H18Y22176   4.362   1.784   4.198 -0.9116 -0.5913 -0.0804
  191SAPI  H18Z22177   4.396   1.622   4.262 -0.2298  0.7584  0.7651
  192SAPI   C1222178   1.879   2.755   2.444 -0.0420 -0.2081 -0.7768
  192SAPI    H222179   1.833   2.678   2.510 -3.0712  0.6986 -1.6706
  192SAPI    O222180   1.798   2.865   2.465  0.2475 -0.4672  0.1091
  192SAPI   HO222181   1.703   2.850   2.454 -0.6872  2.6131  2.4289
  192SAPI   C1322182   2.021   2.771   2.483 -0.5227 -0.0723 -0.5277
  192SAPI    H322183   2.055   2.665   2.486 -1.4252 -0.3483  0.1414
  192SAPI    O322184   2.034   2.825   2.617  0.0695 -0.0659  0.2275
  192SAPI   HO322185   1.998   2.913   2.608 -0.3138 -0.1561  0.8611
  192SAPI   C1422186   2.110   2.845   2.384 -0.2422 -0.7424 -0.2195
  192SAPI    H422187   2.106   2.947   2.427 -2.4004 -1.3218  1.0756
  192SAPI    O422188   2.249   2.798   2.389 -0.1318 -0.1712  0.2822
  192SAPI   HO422189   2.300   2.873   2.359 -3.6996  1.5941 -2.1856
  192SAPI   C1522190   2.054   2.862   2.244 -0.6321  0.4990  0.5833
  192SAPI    H522191   2.128   2.806   2.183 -1.7172 -1.3298  0.8409
  192SAPI    O522192   2.047   2.993   2.199 -0.4866 -0.4676 -0.6881
  192SAPI   HO522193   1.956   3.022   2.204 -0.2903  1.1428 -3.6197
  192SAPI   C1622194   1.918   2.798   2.209 -0.1722  0.1614 -0.3515
  192SAPI    H622195   1.842   2.878   2.201 -0.7183 -0.4690 -1.6315
  192SAPI    O622196   1.927   2.727   2.084 -0.3948  0.1258  0.6246
  192SAPI   HO622197   1.859   2.660   2.084  1.3424 -1.7665  0.9394
  192SAPI   C1122198   1.871   2.699   2.308 -0.5875  0.0142 -0.4665
  192SAPI    H122199   1.938   2.612   2.296  0.2242  0.7048 -1.0389
  192SAPI     P22200   1.692   2.512   2.207 -0.0924  0.1462  0.4243
  192SAPI   O1322201   1.735   2.516   2.066  0.3925  0.0830 -0.2454
  192SAPI   O1422202   1.543   2.503   2.236 -0.1146  0.1755 -0.1575
  192SAPI   O1222203   1.743   2.649   2.285  0.3115 -0.0113  0.2677
  192SAPI   O1122204   1.774   2.401   2.283  0.3556 -0.1209  0.2006
  192SAPI    C122205   1.717   2.268   2.299 -0.9268 -0.7353  0.7997
  192SAPI    HA22206   1.665   2.231   2.208 -0.1446 -0.5075  0.2537
  192SAPI    HB22207   1.793   2.187   2.305  0.1409  0.3188  2.3428
  192SAPI    C222208   1.631   2.252   2.422  0.2669  0.7567  0.1194
  192SAPI    HS22209   1.536   2.296   2.385 -0.5934  0.0565  1.4347
  192SAPI   O2122210   1.678   2.327   2.535 -0.0874 -0.6165 -0.1846
  192SAPI   C2122211   1.589   2.375   2.607 -0.0335 -0.6171  0.2585
  192SAPI   O2222212   1.465   2.358   2.603 -0.9020 -0.0420 -0.5874
  192SAPI   C2222213   1.664   2.479   2.702  0.5050  0.4835  0.5822
  192SAPI   H2R22214   1.691   2.433   2.800  1.2286 -1.2143 -0.3596
  192SAPI   H2S22215   1.757   2.511   2.650 -0.0929  0.5590 -0.4706
  192SAPI    C322216   1.619   2.107   2.457 -0.1212 -0.0141 -0.0337
  192SAPI    HX22217   1.721   2.075   2.488 -0.7289 -1.3037  0.7391
  192SAPI    HY22218   1.593   2.048   2.367  0.1904 -0.5654  0.2327
  192SAPI   O3122219   1.511   2.078   2.553  0.0435  0.4381 -0.3696
  192SAPI   C3122220   1.550   2.068   2.679 -0.4581 -0.3034 -0.5893
  192SAPI   O3222221   1.664   2.063   2.721  0.0722 -0.6086  0.0140
  192SAPI   C3222222   1.430   2.037   2.763 -0.8232  0.0647  0.7719
  192SAPI   H2X22223   1.408   1.928   2.760  1.0687 -0.3352  0.2986
  192SAPI   H2Y22224   1.343   2.087   2.715 -1.1931 -1.2268  0.0440
  192SAPI   C2322225   1.577   2.592   2.724 -0.0274 -0.1721 -0.2680
  192SAPI   H3R22226   1.480   2.561   2.769  0.7944 -0.7321  1.1583
  192SAPI   H3S22227   1.563   2.635   2.622 -1.1966  0.5640  0.1844
  192SAPI   C2422228   1.639   2.690   2.832 -0.0655  0.4363 -0.4447
  192SAPI   H4R22229   1.740   2.710   2.789 -0.1083 -2.7036 -2.3377
  192SAPI   H4S22230   1.646   2.621   2.918 -0.9427  1.8905  0.8450
  192SAPI   C2522231   1.545   2.806   2.865 -0.0433 -0.3252 -0.1417
  192SAPI   H5R22232   1.522   2.872   2.781 -1.0647 -1.0329 -0.4404
  192SAPI   C2622233   1.493   2.840   2.980  0.2304 -0.1399 -0.3138
  192SAPI   H6R22234   1.430   2.930   2.990 -0.7706 -1.0002  1.6907
  192SAPI   C2722235   1.492   2.770   3.114 -0.5180 -0.7369 -0.4571
  192SAPI   H7R22236   1.561   2.683   3.111  1.9357  1.1145 -1.6280
  192SAPI   H7S22237   1.392   2.731   3.140 -1.2708  1.9964  1.1155
  192SAPI   C2822238   1.539   2.870   3.221  0.5450  0.8451  0.0886
  192SAPI   H8R22239   1.626   2.933   3.198  1.6427 -0.4377  0.6286
  192SAPI   C2922240   1.481   2.883   3.348 -0.1313 -0.5537  0.5149
  192SAPI   H9R22241   1.534   2.944   3.423  0.5568  0.0867 -0.4639
  192SAPI  C21022242   1.362   2.817   3.405 -1.0373 -0.4627 -0.4711
  192SAPI  H10R22243   1.358   2.716   3.358 -0.3829 -1.0988  0.7914
  192SAPI  H10S22244   1.264   2.867   3.388 -1.4455 -1.4827 -1.2440
  192SAPI  C21122245   1.374   2.774   3.552 -0.3985 -0.1596 -0.0559
  192SAPI  H11R22246   1.469   2.722   3.572  1.3905  2.5609 -0.9144
  192SAPI  C21222247   1.298   2.819   3.652  0.2543 -0.1303  0.0905
  192SAPI  H12R22248   1.322   2.787   3.755 -2.7339  0.7804  1.1637
  192SAPI  C21322249   1.188   2.928   3.645  0.3461 -0.1799 -0.2249
  192SAPI  H13R22250   1.165   2.970   3.545  0.0788  1.8708  0.6518
  192SAPI  H13S22251   1.214   3.016   3.708  1.3355 -1.5197  1.3097
  192SAPI  C21422252   1.058   2.877   3.707 -0.7528 -0.2321  0.6217
  192SAPI  H14R22253   0.995   2.823   3.635  0.9881 -2.8240  0.8631
  192SAPI  C21522254   1.013   2.891   3.835  0.2060  1.6139  0.2207
  192SAPI  H15R22255   0.914   2.853   3.864 -1.2159  3.5975 -1.6917
  192SAPI  C21622256   1.090   2.954   3.953  0.3155  0.3689  1.3719
  192SAPI  H16R22257   1.175   3.013   3.913 -0.6058  0.7868 -0.0297
  192SAPI  H16S22258   1.130   2.871   4.016  0.0619 -1.6715 -1.0003
  192SAPI  C21722259   1.022   3.044   4.050 -0.3678  0.5092 -0.2313
  192SAPI  H17R22260   0.928   3.003   4.093 -1.2045 -0.1120 -2.5050
  192SAPI  H17S22261   1.005   3.137   3.990 -1.5460  0.9270  0.7129
  192SAPI  C21822262   1.114   3.079   4.168 -0.2401 -0.0345  1.3129
  192SAPI  H18R22263   1.218   3.069   4.132 -0.6205 -0.1240  0.2177
  192SAPI  H18S22264   1.102   3.021   4.263  2.6696  0.1602  1.8768
  192SAPI  C21922265   1.099   3.227   4.213  0.7809  0.3163 -0.7650
  192SAPI  H19R22266   0.998   3.245   4.254  1.0807 -1.8055  1.1253
  192SAPI  H19S22267   1.120   3.304   4.136  0.5789  1.0329 -0.1219
  192SAPI  C22022268   1.196   3.248   4.332  0.0534 -0.5201  0.3366
  192SAPI  H20R22269   1.147   3.201   4.420  0.1552 -1.2771  0.0019
  192SAPI  H20S22270   1.215   3.356   4.347  0.7556 -0.3943 -1.2610
  192SAPI  H20T22271   1.289   3.191   4.313  0.2118  0.0012 -0.4975
  192SAPI   C3322272   1.451   2.098   2.908 -0.0651 -0.1698  0.4707
  192SAPI   H3X22273   1.536   2.047   2.960 -0.8426 -0.1816  1.7665
  192SAPI   H3Y22274   1.361   2.063   2.963  0.5549  0.1683  1.7468
  192SAPI   C3422275   1.469   2.251   2.914 -0.2211 -0.4364 -0.3218
  192SAPI   H4X22276   1.397   2.301   2.846  0.8123  2.1517  0.3855
  192SAPI   H4Y22277   1.560   2.279   2.857  0.4018  0.7315  1.1928
  192SAPI   C3522278   1.450   2.330   3.047 -0.0420  0.4634 -0.0201
  192SAPI   H5X22279   1.362   2.276   3.088  0.3919 -2.2043 -2.3528
  192SAPI   H5Y22280   1.423   2.437   3.037  2.9187  1.4164  1.1635
  192SAPI   C3622281   1.586   2.323   3.122 -0.2123  0.2161  0.3330
  192SAPI   H6X22282   1.675   2.371   3.074  1.4427 -0.1126  2.8847
  192SAPI   H6Y22283   1.616   2.218   3.142  1.9996  0.5811 -0.7339
  192SAPI   C3722284   1.572   2.385   3.267  0.3924 -0.1293  1.1101
  192SAPI   H7X22285   1.549   2.488   3.232 -1.1692 -0.5620  0.7769
  192SAPI   H7Y22286   1.668   2.382   3.323 -0.1964  0.5126  2.1930
  192SAPI   C3822287   1.456   2.341   3.355 -0.0732 -0.6042  0.3175
  192SAPI   H8X22288   1.476   2.234   3.379 -1.5042 -1.3719 -1.6244
  192SAPI   H8Y22289   1.368   2.343   3.287  2.0108  0.1467 -2.5712
  192SAPI   C3922290   1.444   2.415   3.492 -0.1709  0.5421  0.1491
  192SAPI   H9X22291   1.361   2.369   3.551  0.7548 -2.2052 -0.5139
  192SAPI   H9Y22292   1.407   2.518   3.475 -2.7450 -0.2779  0.3559
  192SAPI  C31022293   1.572   2.418   3.569  0.4686 -0.5464 -0.6612
  192SAPI  H10X22294   1.640   2.491   3.520  1.5462 -0.2336  1.1959
  192SAPI  H10Y22295   1.624   2.321   3.558  1.2586 -0.5351  2.1138
  192SAPI  C31122296   1.562   2.474   3.714 -0.2573  0.5628  0.4235
  192SAPI  H11X22297   1.476   2.543   3.730 -1.7555 -1.0737 -0.1586
  192SAPI  H11Y22298   1.662   2.516   3.737  0.1582  0.0954 -0.4878
  192SAPI  C31222299   1.549   2.362   3.807  0.0345  1.0910  0.2023
  192SAPI  H12X22300   1.628   2.286   3.786 -1.1640  0.0456 -0.5991
  192SAPI  H12Y22301   1.448   2.321   3.791  0.1907  1.6995 -2.9448
  192SAPI  C31322302   1.562   2.404   3.952  0.3759 -0.2557 -0.5593
  192SAPI  H13X22303   1.486   2.482   3.972 -0.0403 -0.7286 -0.2516
  192SAPI  H13Y22304   1.661   2.453   3.965 -0.7212  1.8250  0.4215
  192SAPI  C31422305   1.549   2.292   4.057 -0.0369  0.0667  0.3836
  192SAPI  H14X22306   1.610   2.205   4.024  0.0999 -0.0979  1.0513
  192SAPI  H14Y22307   1.445   2.260   4.077 -0.9605  1.6258 -1.5750
  192SAPI  C31522308   1.607   2.333   4.189  0.3260 -0.7147 -0.2355
  192SAPI  H15X22309   1.552   2.417   4.237  0.3226 -0.3042 -0.9514
  192SAPI  H15Y22310   1.713   2.364   4.178  0.5364 -1.0571  0.6773
  192SAPI  C31622311   1.600   2.221   4.296 -0.6942  0.7157 -0.3062
  192SAPI  H16X22312   1.498   2.179   4.303  0.2850 -1.5823  1.3634
  192SAPI  H16Y22313   1.624   2.264   4.396  1.1331 -1.1562  0.1355
  192SAPI  C31722314   1.711   2.111   4.277 -0.1377  0.0031  0.1279
  192SAPI  H17X22315   1.803   2.142   4.332 -0.8034 -0.0331  1.2838
  192SAPI  H17Y22316   1.719   2.092   4.168 -0.5021  1.7827 -0.2377
  192SAPI  C31822317   1.667   1.973   4.342 -0.0264 -0.3340 -0.0512
  192SAPI  H18X22318   1.595   1.920   4.277  0.4307 -0.0544 -0.7996
  192SAPI  H18Y22319   1.614   1.995   4.437 -1.5149  2.0194 -1.3257
  192SAPI  H18Z22320   1.751   1.901   4.357 -1.8161 -2.7396 -0.8831
  193SOD    SOD22321   3.903   1.727   8.111 -0.1453  0.3072  0.5967
  194SOD    SOD22322   6.816   2.944   6.683  0.1237  0.2448 -0.0185
  195SOD    SOD22323   2.291   2.645   8.660  0.3973  0.4355  0.0194
  196SOD    SOD22324   0.763   4.268   1.921 -0.1413 -0.2736 -0.1757
  197SOD    SOD22325   5.986   0.334   8.680  0.2317 -0.2191  0.8281
  198SOD    SOD22326   2.081   3.209   6.757  0.4844  0.1969 -0.1796
  199SOD    SOD22327   5.013   1.329   0.061  1.0400 -0.1300 -0.1619
  200SOD    SOD22328   3.503   2.056   6.426 -0.7149  0.1013 -0.0086
  201SOD    SOD22329   2.394   0.812   7.132  0.0167 -0.0129 -0.1147
  202SOD    SOD22330   0.244   5.035   2.501 -0.1203  0.3619 -0.5434
  203SOD    SOD22331   2.270   4.204   0.785  0.2423 -0.0410  0.1823
  204SOD    SOD22332   4.845   4.979   6.751  0.0258 -0.0970  0.0867
  205SOD    SOD22333   4.332   2.605   8.711  0.6833 -0.4518 -0.4552
  206SOD    SOD22334   3.662   2.619   8.288 -0.3023  0.2479 -0.0670
  207SOD    SOD22335   3.444   1.632   1.670  0.1088  0.2943  0.1483
  208SOD    SOD22336   6.537   4.116   0.545  0.5918 -0.8251  0.4635
  209SOD    SOD22337   4.369   4.985   1.234  0.3079  0.1093  0.4872
  210SOD    SOD22338   5.074   4.248   0.115 -0.1523  0.1378  0.4164
  211SOD    SOD22339   2.687   5.818   7.656  0.6010  0.2422 -0.0059
  212SOD    SOD22340   3.017   5.809   2.380  0.1666  0.5294  0.5788
  213SOD    SOD22341   6.722   2.067   6.869 -0.2646  0.4395  0.0243
  214SOD    SOD22342   0.505   6.367   1.800 -0.2988  0.0910  0.3609
  215SOD    SOD22343   1.963   5.863   0.217  0.1993  0.4513  0.3776
  216SOD    SOD22344   1.717   0.940   2.169  0.1140 -0.1935 -0.0669
  217SOD    SOD22345   5.244   6.058   1.543 -0.4080  0.2356  0.0457
  218SOD    SOD22346   2.810   2.411   1.402  0.0136  0.1997 -0.4024
  219SOD    SOD22347   3.456   0.723   8.008  0.1557  0.2768 -0.1461
  220SOD    SOD22348   1.068   4.685   7.659 -0.1427 -0.2694  0.1660
  221SOD    SOD22349   0.632   2.996   2.298 -0.0395  0.5526 -1.1302
  222SOD    SOD22350   1.496   5.429   7.310 -0.1291  0.0467 -0.2113
  223SOD    SOD22351   4.423   6.171   7.144  0.2359 -0.4671 -0.5645
  224SOD    SOD22352   4.957   1.503   1.056  0.2537  0.0232  0.6325
  225SOD    SOD22353   5.568   1.924   7.640  0.3911 -0.0616 -0.0140
  226SOD    SOD22354   0.287   5.391   8.480 -0.2059 -0.6434  0.2684
  227SOD    SOD22355   0.419   3.679   8.258  0.3474 -0.4529 -0.2128
  228SOD    SOD22356   1.354   1.103   8.660 -0.0127 -0.1094 -0.2440
  229SOD    SOD22357   4.792   5.207   0.909 -0.3364  0.3147  0.2313
  230CLA    CLA22358   6.776   0.386   1.282 -0.3534  0.0636  0.3806
  231CLA    CLA22359   2.186   0.315   1.003 -0.1359  0.0106 -0.0075
  232CLA    CLA22360   0.651   2.680   7.330  0.0729 -0.0013  0.2722
  233CLA    CLA22361   3.974   1.479   0.734 -0.0566 -0.1139  0.0692
  234CLA    CLA22362   6.035   1.276   0.780 -0.2357 -0.3421  0.4238
  235CLA    CLA22363   2.045   3.434   8.614  0.5160 -0.0263 -0.2900
  236CLA    CLA22364   1.785   3.883   0.606  0.4882 -0.0828  0.1481
  237CLA    CLA22365   5.435   5.257   1.394  0.5480  0.5840 -0.3142
  238CLA    CLA22366   0.279   2.442   7.511 -0.2441  0.0011 -0.0510
  239CLA    CLA22367   1.710   1.703   8.323  0.4442 -0.1216 -0.0280
  240CLA    CLA22368   2.356   1.761   8.617 -0.2712  0.3911 -0.0570
  241CLA    CLA22369   4.899   4.082   0.240 -0.1158 -0.2080 -0.2026
  242CLA    CLA22370   4.292   5.474   7.126 -0.1967  0.0368  0.0352
  243CLA    CLA22371   6.391   4.952   8.784  0.2528 -0.0331  0.1009
  244CLA    CLA22372   4.964   3.536   1.244  0.1334 -0.1332  0.1184
  245CLA    CLA22373   3.635   3.347   0.160  0.2130 -0.0583 -0.3209
  246CLA    CLA22374   2.828   1.640   7.989  0.0032 -0.0969  0.3827
  247TIP3   OH222375   5.663   0.407   0.289  0.0437 -0.3294 -0.1268
  247TIP3    H122376   5.685   0.494   0.254  0.2506  0.6964  2.3290
  247TIP3    H222377   5.718   0.347   0.238  1.0601  1.1408 -0.8654
  248TIP3   OH222378   0.465   4.613   1.629 -0.1075  0.0015 -0.2900
  248TIP3    H122379   0.480   4.568   1.547  0.7398 -1.7256  0.7567
  248TIP3    H222380   0.492   4.704   1.613 -0.7397 -0.1036 -2.1095
  249TIP3   OH222381   1.973   4.917   2.500  0.2470  0.5509 -0.4841
  249TIP3    H122382   1.988   4.861   2.576 -0.9518  1.1397  0.2263
  249TIP3    H222383   1.913   4.866   2.445  0.0421  0.6652 -0.3710
  250TIP3   OH222384   4.453   3.977   0.535 -0.1108  0.4831 -0.3689
  250TIP3    H122385   4.370   3.942   0.568  0.1979  1.0947  1.1328
  250TIP3    H222386   4.439   3.988   0.441 -1.2436 -0.7434 -0.3657
  251TIP3   OH222387   5.373   2.623   8.696  0.0916  0.3378  0.2397
  251TIP3    H122388   5.461   2.592   8.679 -0.0787  0.0316 -0.0895
  251TIP3    H222389   5.327   2.614   8.612 -1.2079 -2.6588  1.1505
  252TIP3   OH222390   5.633   2.840   0.513 -0.1510  0.1465  0.5832
  252TIP3    H122391   5.684   2.792   0.579 -1.2538 -0.1544  1.2416
  252TIP3    H222392   5.589   2.772   0.463 -0.1941  0.4203  0.2507
  253TIP3   OH222393   6.557   0.873   7.757  0.3490 -0.0617  0.3667
  253TIP3    H122394   6.652   0.862   7.765  0.6887 -0.9275 -3.0180
  253TIP3    H222395   6.546   0.946   7.696 -1.2193  0.5328  1.2945
  254TIP3   OH222396   4.215   6.214   0.432 -0.1753 -0.2062  0.2826
  254TIP3    H122397   4.170   6.284   0.384  1.1528 -0.6024 -1.6677
  254TIP3    H222398   4.298   6.253   0.458  0.3671 -0.8767 -0.3940
  255TIP3   OH222399   6.399   2.108   7.990 -0.0587  0.9554 -0.1545
  255TIP3    H122400   6.439   2.195   7.987  2.6137 -0.1860 -1.3420
  255TIP3    H222401   6.457   2.057   8.047 -1.7032 -0.0388  0.7128
  256TIP3   OH222402   2.012   6.789   2.156  0.3860 -0.6346 -0.0617
  256TIP3    H122403   1.938   6.729   2.168 -0.3307  0.0239 -0.9524
  256TIP3    H222404   1.998   6.858   2.220 -0.1061 -0.2179 -0.6029
  257TIP3   OH222405   4.036   0.683   7.480  0.8746 -0.5724 -0.2396
  257TIP3    H122406   4.052   0.689   7.386  1.2250  1.2501 -0.1097
  257TIP3    H222407   3.950   0.723   7.493 -0.8456 -3.9992 -0.1238
  258TIP3   OH222408   0.398   4.741   6.968  0.5316  0.6075 -0.4976
  258TIP3    H122409   0.420   4.825   6.927  0.1811  0.3830 -1.1659
  258TIP3    H222410   0.433   4.675   6.908 -1.2298  0.2474 -1.1864
  259TIP3   OH222411   2.495   0.784   1.117 -0.1641 -0.2562  0.5185
  259TIP3    H122412   2.533   0.857   1.166 -1.1622  0.5211  0.1728
  259TIP3    H222413   2.420   0.757   1.169  0.3066 -1.1820  0.7373
  260TIP3   OH222414   5.267   3.277   2.193  0.2226  0.0357 -0.2720
  260TIP3    H122415   5.186   3.263   2.242  0.8286  0.5950  0.9249
  260TIP3    H222416   5.258   3.365   2.156  0.4595  0.2812  0.2402
  261TIP3   OH222417   3.826   2.522   7.593  0.1642 -0.3434  0.0434
  261TIP3    H122418   3.738   2.558   7.590  0.2773 -0.0749 -0.1787
  261TIP3    H222419   3.877   2.579   7.535  1.2963  1.7294  2.8313
  262TIP3   OH222420   2.217   0.637   6.839 -0.3159 -0.2390  0.3865
  262TIP3    H122421   2.250   0.581   6.768 -1.1953 -0.2256 -0.0555
  262TIP3    H222422   2.132   0.599   6.862  0.2112 -0.5876  1.8568
  263TIP3   OH222423   2.983   5.899   8.128  0.1970  0.4023 -0.2201
  263TIP3    H122424   2.992   5.836   8.056  0.2768  1.0304 -0.7754
  263TIP3    H222425   2.952   5.980   8.085 -0.8712  0.4595  0.6121
  264TIP3   OH222426   5.050   6.726   2.477 -0.3989 -1.2726  0.4854
  264TIP3    H122427   4.964   6.715   2.517 -1.7433 -1.8345 -2.3310
  264TIP3    H222428   5.072   6.639   2.444 -0.4799 -0.4438 -1.9587
  265TIP3   OH222429   4.976   4.460   0.444 -0.5489  0.4582 -0.1449
  265TIP3    H122430   4.961   4.439   0.537 -1.3792  0.8534 -0.1791
  265TIP3    H222431   5.065   4.430   0.427 -0.6346 -0.2650  0.5998
  266TIP3   OH222432   3.016   4.252   1.884 -0.3335  0.5806 -0.3843
  266TIP3    H122433   3.051   4.337   1.858  0.2276 -0.0087 -1.6093
  266TIP3    H222434   3.093   4.197   1.898 -0.6516 -0.6808 -2.9557
  267TIP3   OH222435   4.911   4.788   7.364  0.0490 -0.0153 -0.6498
  267TIP3    H122436   4.841   4.853   7.359  0.2249  0.2391  0.0404
  267TIP3    H222437   4.867   4.707   7.390 -0.4238 -0.6243 -3.0975
  268TIP3   OH222438   1.757   0.052   1.776  0.5975  0.0988  0.3336
  268TIP3    H122439   1.776   0.144   1.758 -0.9250  0.4372  0.3701
  268TIP3    H222440   1.664   0.043   1.759  0.5220 -1.2017  1.3282
  269TIP3   OH222441   0.129   6.254   8.673  0.5660  1.0645 -0.4539
  269TIP3    H122442   0.066   6.247   8.601  1.4869 -0.6294 -1.1360
  269TIP3    H222443   0.110   6.340   8.712 -3.7701 -0.2583  0.9364
  270TIP3   OH222444   4.770   2.753   0.785  0.3113  0.8116 -0.3718
  270TIP3    H122445   4.770   2.689   0.857  1.1274 -0.3977 -1.4128
  270TIP3    H222446   4.739   2.834   0.826 -1.8260 -0.4774  0.7407
  271TIP3   OH222447   2.343   0.883   6.466  0.5795  0.1744  0.2208
  271TIP3    H122448   2.366   0.858   6.377 -3.0573 -0.6971 -0.6428
  271TIP3    H222449   2.307   0.972   6.458 -1.8442 -0.7195  0.2964
  272TIP3   OH222450   0.593   1.573   0.761 -0.2295  0.2956 -0.1146
  272TIP3    H122451   0.680   1.536   0.751 -0.7118 -0.6080 -1.2018
  272TIP3    H222452   0.604   1.666   0.737  0.2201 -0.0805 -1.4683
  273TIP3   OH222453   1.989   4.183   2.291 -0.1676 -0.5696 -0.2410
  273TIP3    H122454   1.999   4.135   2.373 -1.5092 -1.9669 -0.8452
  273TIP3    H222455   1.997   4.275   2.315  1.3428 -1.0242  1.1355
  274TIP3   OH222456   4.013   3.269   8.226  0.1413 -0.3619 -0.0046
  274TIP3    H122457   4.059   3.309   8.151 -1.4818  0.6509 -0.5189
  274TIP3    H222458   3.973   3.190   8.190  1.2899 -1.1567  0.4048
  275TIP3   OH222459   1.329   6.656   7.021  0.5955  0.0692 -0.4691
  275TIP3    H122460   1.392   6.586   7.007  1.6555  1.1155 -1.1334
  275TIP3    H222461   1.382   6.735   7.032 -0.5688  0.8318 -0.0839
  276TIP3   OH222462   1.656   6.442   0.342 -0.1026 -0.0331 -0.3216
  276TIP3    H122463   1.655   6.439   0.247  0.3641  1.6975 -0.4040
  276TIP3    H222464   1.579   6.493   0.366  0.1644  0.1289  0.2023
  277TIP3   OH222465   3.613   2.985   6.476 -0.5497  0.7376  0.4502
  277TIP3    H122466   3.587   3.034   6.398 -1.3250  0.8012  0.7313
  277TIP3    H222467   3.692   3.030   6.507 -1.5579  2.2123  1.0341
  278TIP3   OH222468   4.022   0.550   7.843  0.4460  0.3632 -0.1131
  278TIP3    H122469   3.979   0.628   7.809  2.3350  1.1024 -0.9463
  278TIP3    H222470   3.953   0.503   7.891 -1.5687  0.8343 -2.3656
  279TIP3   OH222471   3.768   5.525   1.397  0.1577  0.3442  0.2184
  279TIP3    H122472   3.835   5.577   1.353  1.1480 -0.4033  0.7892
  279TIP3    H222473   3.789   5.531   1.490 -0.8663  0.4843  0.4537
  280TIP3   OH222474   1.664   5.882   0.627 -0.2742  0.3900  0.2790
  280TIP3    H122475   1.702   5.957   0.673 -0.9545  2.3854 -2.1869
  280TIP3    H222476   1.572   5.905   0.616 -0.6498 -1.1395 -0.0001
  281TIP3   OH222477   5.345   0.452   6.688 -0.3485 -0.0215  0.0771
  281TIP3    H122478   5.420   0.495   6.729  0.7326 -0.5562 -1.2736
  281TIP3    H222479   5.381   0.408   6.611 -1.7222 -1.7977  0.3715
  282TIP3   OH222480   1.214   4.441   1.925 -0.2501 -0.6509 -0.0150
  282TIP3    H122481   1.274   4.388   1.872 -0.4329  0.1123 -1.0383
  282TIP3    H222482   1.256   4.527   1.930  0.5691 -1.1175  2.5370
  283TIP3   OH222483   0.576   1.815   1.541  0.0250 -0.2247 -0.9532
  283TIP3    H122484   0.552   1.758   1.613 -1.0005 -0.0823 -1.1708
  283TIP3    H222485   0.531   1.779   1.465 -1.1107  1.1817 -0.9846
  284TIP3   OH222486   4.432   6.384   8.133 -0.5289  0.2313 -0.2403
  284TIP3    H122487   4.375   6.322   8.179 -0.5057 -1.6026 -2.4950
  284TIP3    H222488   4.521   6.351   8.149 -0.3863  0.6735 -0.1022
  285TIP3   OH222489   3.272   1.187   8.008  0.3697  1.1659 -0.2812
  285TIP3    H122490   3.250   1.281   8.005  2.4970  1.7173  0.0227
  285TIP3    H222491   3.341   1.177   7.942  1.0213  0.0590  0.5506
  286TIP3   OH222492   4.345   4.573   7.990 -0.2831  0.0969 -0.6515
  286TIP3    H122493   4.254   4.602   7.991 -0.1055  0.6677  0.3957
  286TIP3    H222494   4.361   4.547   7.900 -1.2580  0.7181 -1.0181
  287TIP3   OH222495   2.318   2.019   2.125  0.2814  0.6789  0.4602
  287TIP3    H122496   2.236   2.024   2.176  0.2158 -0.6750  0.5174
  287TIP3    H222497   2.358   1.936   2.153  1.4222  1.0820  0.0449
  288TIP3   OH222498   0.244   3.659   1.463  0.0620  0.8266 -0.4279
  288TIP3    H122499   0.272   3.728   1.524  0.3438  0.2578  0.0960
  288TIP3    H222500   0.326   3.628   1.423  0.7316 -2.6308  2.9769
  289TIP3   OH222501   3.239   1.324   1.872 -0.1918 -0.0874 -0.4250
  289TIP3    H122502   3.193   1.387   1.928  1.3624 -0.2549  1.1398
  289TIP3    H222503   3.206   1.239   1.900 -0.2959 -0.1093 -0.6150
  290TIP3   OH222504   1.876   3.222   6.647 -0.8659 -0.0013 -0.1807
  290TIP3    H122505   1.858   3.309   6.610 -1.2026  0.4116  0.9062
  290TIP3    H222506   1.794   3.174   6.636 -0.9055  0.0567 -0.1377
  291TIP3   OH222507   2.625   1.685   1.574 -0.1797 -0.5242  0.3455
  291TIP3    H122508   2.593   1.639   1.652  1.4116 -1.7230  0.3415
  291TIP3    H222509   2.704   1.729   1.603  0.3706 -0.8955 -0.5665
  292TIP3   OH222510   4.654   5.175   7.241 -0.3079 -0.4110  0.4043
  292TIP3    H122511   4.568   5.161   7.200  0.1043 -1.2745 -0.2072
  292TIP3    H222512   4.680   5.087   7.270  0.5259 -0.2175  0.2518
  293TIP3   OH222513   0.861   5.563   1.412  0.1678  0.4553  0.1074
  293TIP3    H122514   0.887   5.655   1.401  1.9352 -0.1490 -1.0261
  293TIP3    H222515   0.784   5.553   1.356  0.4596  1.0367 -0.4043
  294TIP3   OH222516   5.216   5.007   8.105 -0.1990 -0.3261  0.8799
  294TIP3    H122517   5.257   5.066   8.041  1.0765 -1.2804  0.7772
  294TIP3    H222518   5.289   4.972   8.156 -1.1588  0.0914  2.6120
  295TIP3   OH222519   4.266   2.279   0.207  0.5726 -0.1373  0.4102
  295TIP3    H122520   4.208   2.210   0.237 -0.3070 -0.7469 -2.3635
  295TIP3    H222521   4.336   2.233   0.160  1.0184  0.7821  0.1370
  296TIP3   OH222522   2.794   2.705   6.470  0.1554  0.4251  0.4033
  296TIP3    H122523   2.736   2.781   6.467  1.4887  1.4689 -0.0354
  296TIP3    H222524   2.880   2.742   6.489  0.6438 -1.1073  1.3168
  297TIP3   OH222525   1.516   6.494   8.076  0.2500 -0.0791 -0.2889
  297TIP3    H122526   1.529   6.546   8.156 -0.1412  0.3199 -0.4830
  297TIP3    H222527   1.597   6.444   8.068  0.1660 -0.3679  0.5349
  298TIP3   OH222528   3.117   2.071   6.988 -0.3477 -0.1583 -0.4474
  298TIP3    H122529   3.094   2.063   7.081  1.6902 -1.9962 -0.0037
  298TIP3    H222530   3.050   2.020   6.943 -2.8480  2.7958 -0.3680
  299TIP3   OH222531   1.536   1.349   7.881 -0.1458  0.4110 -0.8771
  299TIP3    H122532   1.523   1.402   7.803 -1.9556  0.1112 -0.8139
  299TIP3    H222533   1.539   1.413   7.953 -0.4918  0.5521 -0.9878
  300TIP3   OH222534   5.893   0.697   0.654 -0.5485  0.0213  0.2482
  300TIP3    H122535   5.870   0.607   0.633 -1.1083  0.2799 -0.2599
  300TIP3    H222536   5.843   0.751   0.592  0.1395  0.6631  0.2291
  301TIP3   OH222537   0.720   5.225   8.671 -0.4128 -0.1132  0.3097
  301TIP3    H122538   0.815   5.236   8.658 -0.2448  0.8472  2.0596
  301TIP3    H222539   0.704   5.133   8.652  1.3000 -0.8445  2.0314
  302TIP3   OH222540   5.346   0.502   0.183  0.3594 -0.4028 -0.2274
  302TIP3    H122541   5.332   0.441   0.255 -0.8512 -0.2673 -0.3232
  302TIP3    H222542   5.264   0.501   0.134  1.6902 -1.7408 -2.6067
  303TIP3   OH222543   2.680   4.848   1.323 -0.3911 -0.0743 -0.0355
  303TIP3    H122544   2.665   4.908   1.396  1.1735 -1.2725  1.3365
  303TIP3    H222545   2.624   4.773   1.342  2.8211 -2.1187  2.1467
  304TIP3   OH222546   1.238   1.845   7.417  0.2009  0.0341 -0.2119
  304TIP3    H122547   1.183   1.818   7.344 -0.2255 -0.5374  0.3123
  304TIP3    H222548   1.187   1.824   7.495  1.0522 -0.2701  0.2792
  305TIP3   OH222549   6.697   2.275   8.437  0.2004 -0.1094 -0.4178
  305TIP3    H122550   6.705   2.332   8.361  1.7985  1.1688  0.6446
  305TIP3    H222551   6.780   2.228   8.442 -0.3941 -1.1727 -0.1984
  306TIP3   OH222552   4.799   3.488   2.521  0.0163  0.1075  0.5485
  306TIP3    H122553   4.765   3.562   2.572  0.2314  1.5321 -1.2716
  306TIP3    H222554   4.889   3.477   2.552  0.8355  2.2732 -0.7881
  307TIP3   OH222555   3.258   6.502   7.600 -0.1058 -0.0190 -0.2219
  307TIP3    H122556   3.221   6.581   7.561 -1.4251 -0.6931 -0.4029
  307TIP3    H222557   3.349   6.501   7.572 -0.2709  1.0305 -0.8470
  308TIP3   OH222558   0.767   4.966   7.902 -0.7551 -0.2048 -0.1135
  308TIP3    H122559   0.684   4.981   7.855 -0.0295  0.2086 -1.3034
  308TIP3    H222560   0.807   4.892   7.857 -1.1014 -1.3209  1.3518
  309TIP3   OH222561   6.249   4.619   7.937  0.5108  0.1950 -0.1280
  309TIP3    H122562   6.269   4.642   7.846  0.3855  0.8144 -0.0025
  309TIP3    H222563   6.160   4.651   7.950  0.9039  1.0662  0.5305
  310TIP3   OH222564   1.752   4.653   1.532  0.1516 -0.3956 -0.1260
  310TIP3    H122565   1.710   4.568   1.519  0.1668 -0.5653  0.8520
  310TIP3    H222566   1.739   4.673   1.624  1.3668  0.0031 -0.0124
  311TIP3   OH222567   6.565   6.132   8.088  0.5848  0.4307 -0.1346
  311TIP3    H122568   6.489   6.089   8.127  0.2758  1.5792  0.5651
  311TIP3    H222569   6.639   6.099   8.140  0.3452  0.7750  0.4361
  312TIP3   OH222570   0.186   4.630   0.223  0.0910 -0.2760  0.0202
  312TIP3    H122571   0.158   4.719   0.199 -2.7355 -1.1855 -0.4053
  312TIP3    H222572   0.105   4.582   0.234  1.5302 -3.2187 -1.2298
  313TIP3   OH222573   6.522   6.728   7.586 -0.0989 -0.2288  0.0612
  313TIP3    H122574   6.547   6.715   7.678  0.2373 -0.5373 -0.0715
  313TIP3    H222575   6.440   6.678   7.577 -1.4866  1.7673  0.8082
  314TIP3   OH222576   6.519   0.628   7.579  0.3807  1.0129 -0.0569
  314TIP3    H122577   6.546   0.693   7.643 -0.9049  1.8766 -0.3556
  314TIP3    H222578   6.601   0.591   7.546  1.0844  0.5044  2.0720
  315TIP3   OH222579   5.896   2.686   2.073 -0.3696 -0.1607  0.2707
  315TIP3    H122580   5.899   2.595   2.105  1.5861  0.1918  1.2281
  315TIP3    H222581   5.845   2.733   2.139 -0.4816 -0.3671  0.3315
  316TIP3   OH222582   2.741   4.704   0.309 -1.1717 -0.0597 -0.2798
  316TIP3    H122583   2.704   4.640   0.249 -0.6841 -0.5458 -0.0738
  316TIP3    H222584   2.817   4.740   0.263 -2.0395  1.1638 -0.8313
  317TIP3   OH222585   1.983   5.814   1.432 -0.2909 -0.0174  0.1021
  317TIP3    H122586   2.050   5.866   1.476  0.8192 -1.3249  0.0206
  317TIP3    H222587   1.990   5.727   1.472 -0.9898 -0.5520 -0.8921
  318TIP3   OH222588   6.174   6.824   6.891  0.5609  0.2321 -0.3207
  318TIP3    H122589   6.154   6.767   6.817 -2.0174 -1.5869  1.5835
  318TIP3    H222590   6.133   6.908   6.868 -1.1152 -0.6189 -0.5677
  319TIP3   OH222591   2.997   2.382   8.217 -0.5670  0.4236 -0.2405
  319TIP3    H122592   2.947   2.368   8.137 -0.5340 -2.8544  0.1996
  319TIP3    H222593   2.943   2.442   8.269 -1.5438  0.9847 -1.8347
  320TIP3   OH222594   5.392   0.955   8.003  0.0614  0.2502  0.6286
  320TIP3    H122595   5.304   0.952   7.966 -0.3523  0.4497  1.5620
  320TIP3    H222596   5.403   0.871   8.046  0.7655 -0.2145 -0.4145
  321TIP3   OH222597   0.640   3.812   0.456 -0.3183 -0.4542  0.0228
  321TIP3    H122598   0.696   3.746   0.498 -1.5296 -1.9879 -0.6666
  321TIP3    H222599   0.658   3.803   0.363 -0.0120  0.6744 -0.0355
  322TIP3   OH222600   3.094   2.191   0.053 -0.7703  0.0272 -0.4353
  322TIP3    H122601   3.022   2.174  -0.007 -0.4978  0.1072 -0.7850
  322TIP3    H222602   3.067   2.270   0.101 -0.5708  0.5126 -1.1131
  323TIP3   OH222603   3.294   3.122   7.506  0.3233 -0.1730  0.1414
  323TIP3    H122604   3.208   3.088   7.480  0.0823  0.9861 -0.6508
  323TIP3    H222605   3.288   3.134   7.601  1.3633 -4.9277  1.0823
  324TIP3   OH222606   5.404   5.610   1.032 -0.0741  0.1540  0.3693
  324TIP3    H122607   5.337   5.665   0.991  0.4811 -0.4696 -1.4761
  324TIP3    H222608   5.463   5.588   0.960  1.3997 -0.3636  1.6981
  325TIP3   OH222609   2.094   5.141   8.554  0.0598  0.2703  0.0873
  325TIP3    H122610   2.098   5.046   8.543 -1.3115  0.1281  0.5825
  325TIP3    H222611   2.177   5.164   8.596  0.5764 -0.6493 -0.3903
  326TIP3   OH222612   4.615   5.081   2.482  0.0789 -0.1753  0.2922
  326TIP3    H122613   4.693   5.136   2.488  0.4460 -0.7047  0.5362
  326TIP3    H222614   4.566   5.116   2.408  0.9954 -0.3880 -0.4379
  327TIP3   OH222615   3.262   1.568   7.837 -0.2479  0.0249 -0.7375
  327TIP3    H122616   3.202   1.502   7.804 -0.3626 -0.1386 -0.2172
  327TIP3    H222617   3.250   1.566   7.932  0.6388 -0.0795 -0.6137
  328TIP3   OH222618   5.839   5.621   1.404 -0.2784  0.1988 -0.1453
  328TIP3    H122619   5.881   5.648   1.486  0.7756 -0.2743 -0.5003
  328TIP3    H222620   5.829   5.526   1.413 -1.7680  0.3693  0.1348
  329TIP3   OH222621   2.200   3.784   0.015 -0.2069 -0.0271 -0.0651
  329TIP3    H122622   2.290   3.761  -0.007  0.4987 -0.2334  2.7174
  329TIP3    H222623   2.155   3.787  -0.070  1.5511 -3.3595 -1.3098
  330TIP3   OH222624   2.417   4.110   0.983 -0.3292 -0.2209 -0.5349
  330TIP3    H122625   2.499   4.077   0.945 -0.7844 -1.1330 -0.7661
  330TIP3    H222626   2.414   4.070   1.070 -1.1242 -1.2218 -1.0009
  331TIP3   OH222627   6.638   2.080   2.812 -0.2173 -0.9823  0.8984
  331TIP3    H122628   6.650   1.988   2.789  1.2817 -0.1106 -2.3321
  331TIP3    H222629   6.719   2.103   2.859  0.7315 -0.6826 -0.8099
  332TIP3   OH222630   1.326   6.490   7.543  0.0107 -0.2714  0.8108
  332TIP3    H122631   1.334   6.397   7.521  2.2058 -0.0718  0.5477
  332TIP3    H222632   1.412   6.527   7.523 -1.1529  2.0933 -0.2847
  333TIP3   OH222633   2.411   4.862   0.066  0.2707  0.1059 -0.4828
  333TIP3    H122634   2.325   4.840   0.031 -0.2508  1.1168  0.0945
  333TIP3    H222635   2.473   4.836  -0.002 -0.3085 -2.4814 -0.1144
  334TIP3   OH222636   3.947   4.801   6.812  0.4136  0.2287  0.3938
  334TIP3    H122637   3.924   4.716   6.775 -1.0170 -0.1704  2.0377
  334TIP3    H222638   3.867   4.853   6.803  0.5226  0.6069  1.4944
  335TIP3   OH222639   2.785   0.997   2.877 -0.3176 -0.2920 -0.2459
  335TIP3    H122640   2.869   1.037   2.854  0.1460 -0.9141  0.3323
  335TIP3    H222641   2.808   0.923   2.934 -1.2926 -0.0616  0.4763
  336TIP3   OH222642   6.276   0.132   0.951 -0.4744 -0.0188 -0.4034
  336TIP3    H122643   6.298   0.069   0.883  0.6888  0.4709 -0.5028
  336TIP3    H222644   6.281   0.081   1.033  2.4615  0.3154 -0.2685
  337TIP3   OH222645   0.152   6.498   7.798  0.2908 -0.0308 -0.0215
  337TIP3    H122646   0.165   6.437   7.726 -0.8872  1.1551 -1.3060
  337TIP3    H222647   0.131   6.442   7.874  0.3720 -1.2548 -0.8768
  338TIP3   OH222648   4.514   6.135   8.635  0.0823  0.0293  0.2690
  338TIP3    H122649   4.596   6.180   8.616  0.1361  0.0368  0.5200
  338TIP3    H222650   4.505   6.139   8.730 -1.0956  1.5749  0.1312
  339TIP3   OH222651   5.628   6.489   7.824 -0.0016  0.2031  0.1322
  339TIP3    H122652   5.640   6.514   7.733  0.1513 -1.0158 -0.2067
  339TIP3    H222653   5.551   6.538   7.853 -0.8666 -0.4028 -1.0583
  340TIP3   OH222654   1.082   2.506   1.286  0.1675 -0.2744 -0.5432
  340TIP3    H122655   1.158   2.475   1.236 -1.4499 -0.5507 -3.0058
  340TIP3    H222656   1.023   2.431   1.288 -0.7041  0.4125 -0.0411
  341TIP3   OH222657   1.030   5.577   1.085 -0.2400 -0.2322 -0.0400
  341TIP3    H122658   1.011   5.669   1.068  1.5360  0.1910  0.0442
  341TIP3    H222659   1.027   5.569   1.180 -2.8910 -0.8970 -0.1038
  342TIP3   OH222660   2.863   6.756   2.167 -0.1320  0.1438 -0.0857
  342TIP3    H122661   2.950   6.726   2.142  1.0319  2.9958  0.1731
  342TIP3    H222662   2.839   6.700   2.242  1.1945 -1.0570 -0.5084
  343TIP3   OH222663   5.539   2.764   0.841  0.2756  0.2274  0.2043
  343TIP3    H122664   5.556   2.683   0.792  0.3670 -0.5100  1.4151
  343TIP3    H222665   5.447   2.784   0.821  0.1342 -0.3911  0.1997
  344TIP3   OH222666   6.718   5.005   7.483 -0.3086  0.1570 -0.0156
  344TIP3    H122667   6.681   4.920   7.459  0.2979 -0.1176  0.0151
  344TIP3    H222668   6.802   4.984   7.523  0.4505  0.8391 -1.1903
  345TIP3   OH222669   2.111   5.842   2.940 -0.7355  0.6139  0.2270
  345TIP3    H122670   2.048   5.806   2.877 -1.5023 -0.1155  1.3670
  345TIP3    H222671   2.074   5.926   2.966 -1.7234 -0.1822  1.5216
  346TIP3   OH222672   2.797   2.447   1.184 -0.5050  0.2899  0.4393
  346TIP3    H122673   2.714   2.453   1.138 -0.4115  0.8253  0.3433
  346TIP3    H222674   2.858   2.411   1.119 -0.4847  0.5941  0.2925
  347TIP3   OH222675   2.306   5.849   6.871  0.0777 -0.2159 -0.1948
  347TIP3    H122676   2.240   5.918   6.884  1.1965  0.8826 -0.1381
  347TIP3    H222677   2.262   5.784   6.816 -0.5213  1.3280 -1.6397
  348TIP3   OH222678   1.853   1.877   7.427  0.0468 -0.2713 -0.5321
  348TIP3    H122679   1.764   1.887   7.462  0.4103  0.7247  0.1356
  348TIP3    H222680   1.841   1.821   7.350 -0.9412 -1.4982  0.4501
  349TIP3   OH222681   3.429   2.249   6.576 -0.2585 -0.3987 -0.2534
  349TIP3    H122682   3.398   2.207   6.657  1.5039 -0.8521  0.2441
  349TIP3    H222683   3.385   2.333   6.574 -1.7762 -1.1453  0.1875
  350TIP3   OH222684   4.111   6.129   7.924  0.5324 -0.0945 -0.5066
  350TIP3    H122685   4.044   6.130   7.856  1.0864 -1.7750 -1.1107
  350TIP3    H222686   4.069   6.084   7.998  0.3859  0.5257 -0.2030
  351TIP3   OH222687   6.097   3.709   0.438  0.3272 -0.2377 -0.0645
  351TIP3    H122688   6.018   3.695   0.490 -2.2792  1.7842 -3.0444
  351TIP3    H222689   6.098   3.636   0.376  1.6114 -0.9323  0.7247
  352TIP3   OH222690   1.351   1.539   0.485  0.2185  0.2054 -0.4719
  352TIP3    H122691   1.279   1.490   0.524  0.5920  0.0923  0.0937
  352TIP3    H222692   1.427   1.517   0.540 -0.0262  3.1933  1.2801
  353TIP3   OH222693   5.327   5.566   7.617  0.3619  0.4164 -0.4124
  353TIP3    H122694   5.282   5.484   7.599  1.7370 -0.3889 -0.3624
  353TIP3    H222695   5.342   5.605   7.531  1.1292 -0.1979 -0.5691
  354TIP3   OH222696   5.367   2.017   8.227  0.4156  0.0430 -0.1160
  354TIP3    H122697   5.348   2.076   8.300  0.3603  0.9084 -0.8047
  354TIP3    H222698   5.344   2.068   8.149 -0.6173 -1.2832 -0.6984
  355TIP3   OH222699   3.586   4.923   8.062 -0.2093  0.0207  0.3305
  355TIP3    H122700   3.606   4.879   7.979 -1.2723  0.7154 -0.3243
  355TIP3    H222701   3.490   4.934   8.061 -0.2445  0.0049  1.6758
  356TIP3   OH222702   3.420   5.150   7.165  0.2509 -0.7140  0.6287
  356TIP3    H122703   3.419   5.114   7.077  0.8386  0.7640 -0.0266
  356TIP3    H222704   3.328   5.159   7.189  0.0629 -0.3417 -0.1928
  357TIP3   OH222705   0.235   4.440   2.333  0.2038  0.0606 -0.2007
  357TIP3    H122706   0.190   4.364   2.298  1.0893 -0.6288  0.1221
  357TIP3    H222707   0.325   4.410   2.349  0.5654  1.1658 -0.0595
  358TIP3   OH222708   0.038   0.365   8.270  0.4042  0.7708  0.9489
  358TIP3    H122709   0.046   0.270   8.262 -1.2293  0.6331  0.5413
  358TIP3    H222710  -0.035   0.378   8.331 -1.2333  1.7165 -1.1195
  359TIP3   OH222711   3.775   2.750   1.600 -0.6228 -0.2621 -0.8361
  359TIP3    H122712   3.719   2.719   1.529 -0.5381 -2.6465  0.0422
  359TIP3    H222713   3.719   2.747   1.677  0.6363 -2.8896  0.0993
  360TIP3   OH222714   0.799   5.869   0.016 -0.1272  0.3076  0.2586
  360TIP3    H122715   0.797   5.773   0.015 -3.3582  0.2318  1.6201
  360TIP3    H222716   0.779   5.895  -0.074  1.6476 -0.2111 -0.3283
  361TIP3   OH222717   6.844   5.855   7.556 -0.3437  0.1709 -0.2287
  361TIP3    H122718   6.888   5.770   7.550  2.0395  1.3064 -0.1388
  361TIP3    H222719   6.775   5.852   7.490  0.0164 -1.6331 -0.5629
  362TIP3   OH222720   0.899   4.377   2.317  0.0229 -0.3124  0.5192
  362TIP3    H122721   0.854   4.326   2.385 -0.5570 -0.2484  0.1947
  362TIP3    H222722   0.935   4.311   2.258 -1.7063 -0.3648 -0.5289
  363TIP3   OH222723   3.962   6.777   7.561  0.0246 -0.2837 -0.0366
  363TIP3    H122724   4.055   6.759   7.573 -0.0130 -0.7166 -0.3744
  363TIP3    H222725   3.932   6.809   7.646  0.9663  2.0585 -0.5082
  364TIP3   OH222726   3.109   6.377   1.131 -0.3262  0.0770  0.1220
  364TIP3    H122727   3.056   6.442   1.176  0.5627  0.3706  0.7960
  364TIP3    H222728   3.046   6.320   1.087 -1.1534  0.8094  0.3267
  365TIP3   OH222729   0.775   3.041   1.765  0.0724 -0.2154  0.3766
  365TIP3    H122730   0.729   2.993   1.834 -2.8642  0.7547 -0.7908
  365TIP3    H222731   0.825   3.108   1.812  0.7660 -1.6053  1.7156
  366TIP3   OH222732   3.202   2.637   8.178 -0.1334  0.1564  0.2683
  366TIP3    H122733   3.159   2.637   8.093 -1.9709 -0.2247  1.1445
  366TIP3    H222734   3.137   2.601   8.238  0.9272  0.8660  1.9297
  367TIP3   OH222735   4.437   3.970   8.402  0.0942  0.0235  0.0013
  367TIP3    H122736   4.465   3.880   8.389  0.5530  0.2346 -0.5317
  367TIP3    H222737   4.486   4.020   8.336  0.1681  0.7165  0.5638
  368TIP3   OH222738   1.786   0.460   0.662  0.0921 -0.5361 -0.1339
  368TIP3    H122739   1.763   0.399   0.732  1.1069  0.0212  0.7230
  368TIP3    H222740   1.875   0.488   0.684 -0.1298  0.7803 -0.8449
  369TIP3   OH222741   0.475   5.284   7.468  0.9073 -0.3782  0.4334
  369TIP3    H122742   0.432   5.250   7.389  1.2274 -2.7175  1.2051
  369TIP3    H222743   0.564   5.303   7.440  0.1744  2.0057 -0.5289
  370TIP3   OH222744   5.104   1.272   6.876  0.2700  0.3819  0.0996
  370TIP3    H122745   5.028   1.329   6.892 -0.3323 -0.2581 -0.4217
  370TIP3    H222746   5.090   1.237   6.788  1.6755  1.0052 -0.3908
  371TIP3   OH222747   0.425   2.937   2.392  0.7489  0.5823 -0.1343
  371TIP3    H122748   0.413   2.988   2.473  0.1756 -0.9184  0.7666
  371TIP3    H222749   0.338   2.933   2.354  0.9378  0.9004 -0.6108
  372TIP3   OH222750   2.963   6.677   1.912  0.0462  0.1167 -0.5122
  372TIP3    H122751   2.968   6.618   1.836 -1.6961 -2.2255  1.0438
  372TIP3    H222752   3.052   6.675   1.949 -0.1015 -2.2416 -0.1090
  373TIP3   OH222753   2.653   4.144   7.582  0.3916 -0.4422 -0.5198
  373TIP3    H122754   2.713   4.132   7.656 -0.2869 -0.9464 -0.0322
  373TIP3    H222755   2.705   4.189   7.516  0.6747  1.2219  0.7471
  374TIP3   OH222756   4.664   6.332   1.376  0.3448  0.1572 -0.6601
  374TIP3    H122757   4.693   6.287   1.455 -2.1478  1.1213  0.9268
  374TIP3    H222758   4.693   6.276   1.304  0.7068 -1.9357  1.0161
  375TIP3   OH222759   6.541   0.419   1.003 -0.0611  0.8783  0.7078
  375TIP3    H122760   6.569   0.348   0.944 -1.8870  0.3175  0.4734
  375TIP3    H222761   6.623   0.457   1.034  1.1242 -2.5798  2.3928
  376TIP3   OH222762   6.771   0.950   8.335 -0.0882  0.0491  0.6993
  376TIP3    H122763   6.827   0.921   8.263  1.0108  0.8706  1.1834
  376TIP3    H222764   6.710   0.878   8.349 -0.0218 -0.3010 -0.7479
  377TIP3   OH222765   3.020   6.834   0.432  0.4363 -0.3480  0.8436
  377TIP3    H122766   3.008   6.798   0.344 -0.5667 -1.2629  1.3268
  377TIP3    H222767   3.071   6.768   0.478  2.9797  1.1351  0.3558
  378TIP3   OH222768   6.159   5.041   0.741 -0.4312  0.6026  0.4345
  378TIP3    H122769   6.108   5.108   0.787 -2.3522 -1.5162  1.6004
  378TIP3    H222770   6.201   5.088   0.669 -3.2850  2.7101 -0.0184
  379TIP3   OH222771   5.879   2.107   1.814 -0.5755 -0.4300 -0.1456
  379TIP3    H122772   5.875   2.056   1.895 -0.2793  0.6177  0.5565
  379TIP3    H222773   5.793   2.149   1.808 -0.1296  0.6144  0.4107
  380TIP3   OH222774   0.149   5.299   0.295 -0.7988  0.0719 -0.2808
  380TIP3    H122775   0.161   5.285   0.201 -1.1290  1.5684 -0.5653
  380TIP3    H222776   0.201   5.230   0.337  0.2853  0.0976 -1.5437
  381TIP3   OH222777   5.642   2.551   0.229  0.4767 -0.2245 -0.1039
  381TIP3    H122778   5.694   2.512   0.301 -0.7619 -2.5004 -0.3511
  381TIP3    H222779   5.568   2.592   0.273  0.3263 -0.5964 -0.0085
  382TIP3   OH222780   4.191   3.087   6.228 -0.4976 -0.0147  0.2030
  382TIP3    H122781   4.117   3.080   6.288  0.3602 -1.3767  1.1528
  382TIP3    H222782   4.187   3.177   6.196 -3.8880 -0.6310 -1.5652
  383TIP3   OH222783   4.122   1.575   1.206  0.0964  0.0411 -0.6122
  383TIP3    H122784   4.148   1.483   1.216  0.2235  0.2538  1.4451
  383TIP3    H222785   4.169   1.621   1.275 -0.8012  1.4801 -0.9219
  384TIP3   OH222786   0.247   2.290   7.179 -0.3922  0.2238  0.5360
  384TIP3    H122787   0.310   2.226   7.213 -0.1362  0.5470  0.6802
  384TIP3    H222788   0.297   2.371   7.172 -0.9236  0.6067  1.1239
  385TIP3   OH222789   0.316   4.362   0.430 -0.0681  0.1360  0.3601
  385TIP3    H122790   0.325   4.418   0.353  1.4658  1.6625  1.5775
  385TIP3    H222791   0.229   4.324   0.422  0.3542 -0.4839 -2.5745
  386TIP3   OH222792   0.127   5.967   8.760 -0.1381  0.3939  0.0957
  386TIP3    H122793   0.117   5.914   8.838  3.4679  0.2213  0.6345
  386TIP3    H222794   0.132   6.057   8.792  3.6160  0.1840  0.5680
  387TIP3   OH222795   1.594   0.814   2.009 -0.3847  0.0404 -0.0731
  387TIP3    H122796   1.549   0.735   2.039 -0.6950  0.8357  1.7228
  387TIP3    H222797   1.533   0.856   1.949 -3.2520  2.1986  3.8893
  388TIP3   OH222798   1.288   2.952   0.747 -0.1586 -0.5135 -0.4256
  388TIP3    H122799   1.316   3.008   0.674 -1.4894  3.5177  1.8508
  388TIP3    H222800   1.370   2.923   0.786  0.6164 -0.2378 -1.7524
  389TIP3   OH222801   6.188   6.594   8.344  0.2261  0.1561  0.7873
  389TIP3    H122802   6.252   6.547   8.290  0.3947  1.0105  0.2390
  389TIP3    H222803   6.105   6.549   8.327  0.2200  0.5856 -0.4198
  390TIP3   OH222804   4.419   0.422   0.288 -0.3421  0.3157 -0.2300
  390TIP3    H122805   4.461   0.508   0.283  1.6055 -0.5905 -0.7797
  390TIP3    H222806   4.351   0.432   0.355  2.0494  1.4477  2.2555
  391TIP3   OH222807   5.835   2.762   7.821  0.3939  0.6419 -0.1516
  391TIP3    H122808   5.862   2.768   7.729  1.0565 -0.3343 -0.0408
  391TIP3    H222809   5.739   2.762   7.818  0.4094  0.2263 -0.8811
  392TIP3   OH222810   1.734   4.122   6.430 -0.3291  0.1206 -0.1860
  392TIP3    H122811   1.655   4.177   6.431 -1.9419 -1.9528  2.8926
  392TIP3    H222812   1.722   4.065   6.354 -1.8422 -0.1430  0.2094
  393TIP3   OH222813   2.029   4.859   1.763 -0.1387 -0.1143  0.0954
  393TIP3    H122814   1.955   4.893   1.712 -0.2196  0.0308  0.3074
  393TIP3    H222815   2.014   4.893   1.851 -1.5179 -2.6190  0.9389
  394TIP3   OH222816   0.608   0.032   7.833  0.2534  0.0086 -0.6933
  394TIP3    H122817   0.582   0.113   7.875  2.1176  1.4233 -2.0497
  394TIP3    H222818   0.621  -0.030   7.905 -0.2312  1.2136  0.4652
  395TIP3   OH222819   1.364   5.279   1.015 -0.2491 -0.3151  0.7340
  395TIP3    H122820   1.278   5.299   0.978  0.1843 -0.7179 -0.5103
  395TIP3    H222821   1.345   5.217   1.085 -0.9447 -0.6470  0.2640
  396TIP3   OH222822   1.357   6.175   7.561  0.5806  0.0689  0.4855
  396TIP3    H122823   1.359   6.143   7.471  0.7974 -0.0174  0.5190
  396TIP3    H222824   1.273   6.146   7.596  0.2898  0.5170  0.1617
  397TIP3   OH222825   2.161   5.898   8.053  0.1348  0.0127 -0.0664
  397TIP3    H122826   2.103   5.856   8.118  0.6508 -1.0368 -0.2542
  397TIP3    H222827   2.217   5.956   8.104 -0.8395  0.7721  0.1610
  398TIP3   OH222828   4.799   6.090   6.527  0.0770 -0.4257  0.3770
  398TIP3    H122829   4.835   6.063   6.442 -1.1673  0.2430 -0.3965
  398TIP3    H222830   4.852   6.043   6.591  2.4181  0.6139 -0.6614
  399TIP3   OH222831   1.375   0.818   1.536 -0.3791  0.1048 -0.1292
  399TIP3    H122832   1.322   0.798   1.459  0.6168 -0.1348 -0.7714
  399TIP3    H222833   1.465   0.803   1.508  0.0265  0.3259  0.9919
  400TIP3   OH222834   2.220   1.529   6.855  0.1135 -0.3624  0.2733
  400TIP3    H122835   2.212   1.448   6.805  2.2573  0.2583 -1.2117
  400TIP3    H222836   2.236   1.499   6.945 -0.3022 -1.5537 -0.0253
  401TIP3   OH222837   2.422   6.619   0.255 -0.1323  0.0366  0.2265
  401TIP3    H122838   2.390   6.697   0.300  1.4513  1.1124 -0.4247
  401TIP3    H222839   2.514   6.637   0.239  0.4088 -2.2008  0.4965
  402TIP3   OH222840   2.904   5.199   2.223 -0.1944  0.1747 -0.0743
  402TIP3    H122841   2.815   5.172   2.245 -0.2630  1.2742  1.0658
  402TIP3    H222842   2.957   5.122   2.243 -0.5295  0.4314  2.0870
  403TIP3   OH222843   2.993   5.792   7.095 -0.4647 -0.4544  0.1664
  403TIP3    H122844   3.029   5.751   7.016 -0.1405 -0.1779  0.1664
  403TIP3    H222845   2.952   5.872   7.062 -0.9354 -0.6849  0.1889
  404TIP3   OH222846   2.904   3.968   7.506  0.3353 -0.1328 -0.6814
  404TIP3    H122847   2.895   3.999   7.596  0.1615  0.4738 -0.9084
  404TIP3    H222848   2.998   3.969   7.489  0.2819  0.9970 -0.9429
  405TIP3   OH222849   5.361   1.799   8.356  0.0181 -0.1452  0.5279
  405TIP3    H122850   5.373   1.880   8.306 -0.4375 -0.6986 -0.4998
  405TIP3    H222851   5.446   1.755   8.350  0.0237 -0.1199  0.4222
  406TIP3   OH222852   6.848   2.230   1.563  0.4047  0.0888 -0.6319
  406TIP3    H122853   6.815   2.141   1.551 -0.1089  0.2335 -0.2967
  406TIP3    H222854   6.815   2.257   1.648 -0.9908  1.2803 -1.5086
  407TIP3   OH222855   6.014   3.729   7.271  0.4491  0.3598 -0.0547
  407TIP3    H122856   6.063   3.800   7.312  1.3892 -0.1322 -0.3147
  407TIP3    H222857   5.931   3.769   7.245  1.1743  1.5084 -0.6843
  408TIP3   OH222858   1.084   6.393   0.307 -0.3462 -0.0103 -0.2013
  408TIP3    H122859   1.145   6.370   0.236 -1.1228 -0.8661 -0.6027
  408TIP3    H222860   1.070   6.487   0.296  0.3439  0.0645 -0.5372
  409TIP3   OH222861   4.844   0.283   8.784  0.1512 -0.5299  0.4440
  409TIP3    H122862   4.764   0.279   8.836 -1.3402 -1.2664 -1.7875
  409TIP3    H222863   4.915   0.284   8.849 -1.6356  0.3904  2.4840
  410TIP3   OH222864   6.522   3.128   8.309 -0.4691 -0.1765 -0.5918
  410TIP3    H122865   6.545   3.220   8.297  2.1800 -0.3223  2.0909
  410TIP3    H222866   6.444   3.115   8.256 -0.0716  3.2131 -2.2290
  411TIP3   OH222867   4.968   2.322   0.915  0.7574  0.1998  0.3964
  411TIP3    H122868   4.913   2.267   0.970 -1.5498 -1.3020 -3.0854
  411TIP3    H222869   5.049   2.273   0.905  0.1387 -0.8161  0.2791
  412TIP3   OH222870   1.721   1.808   0.896 -0.7135 -0.0599 -0.0328
  412TIP3    H122871   1.653   1.862   0.937 -0.1572 -0.4125  1.4396
  412TIP3    H222872   1.796   1.868   0.887  0.1947 -0.6891  2.3915
  413TIP3   OH222873   4.916   6.392   8.042 -0.7049  0.1264 -0.0263
  413TIP3    H122874   4.970   6.325   8.084  0.8027  0.1986 -1.7187
  413TIP3    H222875   4.867   6.432   8.114  0.1539 -1.1590  1.3402
  414TIP3   OH222876   1.724   1.437   6.625  0.5712 -0.3606  0.5780
  414TIP3    H122877   1.643   1.489   6.624  0.0633 -1.1319  0.0168
  414TIP3    H222878   1.735   1.412   6.716 -0.2214 -0.8311  0.5583
  415TIP3   OH222879   3.163   0.096   1.134  0.3352 -0.3665 -0.4529
  415TIP3    H122880   3.115   0.138   1.205  0.2183  0.5353 -1.0605
  415TIP3    H222881   3.156   0.156   1.060  1.3265 -0.8137 -0.9316
  416TIP3   OH222882   1.601   6.820   0.714 -0.3750 -0.6764  0.1830
  416TIP3    H122883   1.632   6.801   0.803 -1.5527 -0.0547  0.7508
  416TIP3    H222884   1.511   6.850   0.726 -0.7390 -1.0934 -1.2782
  417TIP3   OH222885   3.923   5.836   0.489 -0.0990 -0.1162 -0.0395
  417TIP3    H122886   3.940   5.806   0.400  1.0136 -1.6652  0.6580
  417TIP3    H222887   4.005   5.822   0.536 -0.6681  0.6494  1.2369
  418TIP3   OH222888   5.935   0.133   0.001 -0.1375 -0.1819 -0.4958
  418TIP3    H122889   5.860   0.089   0.040 -1.4893  0.8356 -1.8518
  418TIP3    H222890   6.002   0.065  -0.006 -0.6688 -0.9517  1.3242
  419TIP3   OH222891   2.747   5.515   6.924 -0.0306  0.3462 -0.3048
  419TIP3    H122892   2.698   5.492   7.003 -1.3537 -0.5836 -1.3523
  419TIP3    H222893   2.745   5.611   6.922 -1.5031  0.3480 -0.0922
  420TIP3   OH222894   4.133   0.867   1.680  0.0137  0.4143  0.5220
  420TIP3    H122895   4.176   0.791   1.641 -0.4689  0.8746 -0.9773
  420TIP3    H222896   4.080   0.831   1.751 -1.3835 -0.8939 -1.1099
  421TIP3   OH222897   5.410   5.384   7.080 -0.0249  0.2205 -0.7682
  421TIP3    H122898   5.444   5.467   7.113  1.5000 -1.0257  1.0269
  421TIP3    H222899   5.316   5.387   7.100  0.3909  0.6343  1.4270
  422TIP3   OH222900   0.084   6.040   7.950  0.4138 -0.1266  0.4984
  422TIP3    H122901   0.176   6.013   7.942  0.2918 -0.6180  0.7339
  422TIP3    H222902   0.053   5.998   8.030 -0.3589 -0.9610 -0.2150
  423TIP3   OH222903   6.180   2.614   0.293  0.0750 -0.4727  0.1715
  423TIP3    H122904   6.239   2.688   0.308 -0.3451  0.1353 -1.0122
  423TIP3    H222905   6.188   2.560   0.371  1.1217  0.3331  0.6404
  424TIP3   OH222906   0.746   2.718   8.355  0.3299  0.3651  0.5302
  424TIP3    H122907   0.779   2.679   8.274 -0.0307 -1.4958  1.2397
  424TIP3    H222908   0.682   2.655   8.388  1.9985 -0.0156  3.3705
  425TIP3   OH222909   4.317   2.618   8.480 -0.1761  0.0410 -0.8052
  425TIP3    H122910   4.330   2.574   8.397  1.5989 -1.6968  0.3086
  425TIP3    H222911   4.346   2.708   8.464 -0.1688 -0.1761 -2.1255
  426TIP3   OH222912   6.563   1.623   1.118  0.0881 -0.0600  0.7410
  426TIP3    H122913   6.513   1.545   1.140 -1.5991  0.5697 -0.6857
  426TIP3    H222914   6.559   1.630   1.023  3.1283 -0.0728  0.4958
  427TIP3   OH222915   5.153   0.387   6.949 -0.1991 -0.3110  0.2280
  427TIP3    H122916   5.184   0.399   6.859 -0.0064 -1.6059  0.0970
  427TIP3    H222917   5.187   0.301   6.975  0.4246  0.3718  1.8330
  428TIP3   OH222918   1.746   3.367   7.265 -0.2578 -0.4574 -0.0519
  428TIP3    H122919   1.734   3.430   7.194  0.2537  1.1611  1.2572
  428TIP3    H222920   1.791   3.416   7.334 -0.1492 -2.1669  1.1472
  429TIP3   OH222921   5.487   4.258   8.204  0.3198  0.0534  0.1802
  429TIP3    H122922   5.395   4.283   8.206  0.5949  1.1426  0.0864
  429TIP3    H222923   5.502   4.211   8.286 -0.2063  0.2910  0.4126
  430TIP3   OH222924   3.376   4.487   0.010  0.3786 -0.2827  0.0658
  430TIP3    H122925   3.370   4.455   0.100  1.8078 -0.9166 -0.0365
  430TIP3    H222926   3.410   4.412  -0.039  1.2161  0.5644 -0.6757
  431TIP3   OH222927   2.964   1.196   1.620 -0.1566 -0.0134 -0.4557
  431TIP3    H122928   2.991   1.270   1.673 -0.1679  0.8139 -1.5647
  431TIP3    H222929   2.941   1.128   1.683  2.6426 -0.1185  0.5971
  432TIP3   OH222930   2.064   3.560   0.981 -0.1403 -0.1462 -0.1107
  432TIP3    H122931   2.019   3.601   1.055 -0.4221 -2.1058  0.8534
  432TIP3    H222932   2.141   3.616   0.966 -1.7364  2.0813 -0.4586
  433TIP3   OH222933   4.181   5.781   0.513  0.0439 -0.0121 -0.0164
  433TIP3    H122934   4.227   5.711   0.560  0.4968  0.1670 -0.1868
  433TIP3    H222935   4.191   5.758   0.421 -0.2322  0.0161 -0.0546
  434TIP3   OH222936   6.035   2.641   1.843 -0.3345  0.4453  0.2027
  434TIP3    H122937   5.996   2.663   1.927 -1.4318 -1.1282  0.1429
  434TIP3    H222938   5.974   2.580   1.802 -0.5040  2.1497 -2.3535
  435TIP3   OH222939   2.736   1.477   8.666 -0.0971 -0.6118  0.7876
  435TIP3    H122940   2.752   1.411   8.599 -0.1001 -0.4375  0.6152
  435TIP3    H222941   2.751   1.431   8.749  1.5638 -0.3907  0.6375
  436TIP3   OH222942   5.600   6.424   1.080  0.1177 -0.3314 -0.1822
  436TIP3    H122943   5.516   6.437   1.124  0.6304 -0.8842  1.0116
  436TIP3    H222944   5.662   6.410   1.152  1.1635 -0.3003 -1.0593
  437TIP3   OH222945   6.721   5.240   8.669  0.0704 -0.3732  0.4688
  437TIP3    H122946   6.626   5.251   8.675  0.2082  1.6161 -0.4113
  437TIP3    H222947   6.756   5.304   8.730  0.8705 -1.3710  1.0823
  438TIP3   OH222948   1.498   2.426   0.344 -0.0928  0.0664  0.6045
  438TIP3    H122949   1.423   2.486   0.351  1.3749  2.1000  0.0728
  438TIP3    H222950   1.571   2.483   0.318  0.7310 -2.4463 -3.4340
  439TIP3   OH222951   6.745   6.866   0.583 -0.2182 -0.0527 -0.0956
  439TIP3    H122952   6.800   6.794   0.554 -0.1736 -0.8632  1.8363
  439TIP3    H222953   6.773   6.883   0.673  0.2029  2.8261 -0.6604
  440TIP3   OH222954   6.392   3.156   0.284 -0.1767  0.4395 -0.7963
  440TIP3    H122955   6.330   3.228   0.293  0.9313  1.2952  0.3056
  440TIP3    H222956   6.456   3.171   0.353  0.4895 -1.2020 -1.0198
  441TIP3   OH222957   4.462   1.880   7.887 -0.0822  0.7595 -0.3941
  441TIP3    H122958   4.515   1.801   7.900  1.3878  2.0597  2.1250
  441TIP3    H222959   4.398   1.854   7.821 -1.7099 -3.5892  2.4315
  442TIP3   OH222960   1.299   4.661   7.742 -0.3073  0.4582 -0.4751
  442TIP3    H122961   1.292   4.567   7.760 -2.2684  0.6755  0.1262
  442TIP3    H222962   1.386   4.685   7.775  0.2112 -1.1177 -0.5816
  443TIP3   OH222963   2.570   0.106   8.431  0.3786  0.7029 -0.1381
  443TIP3    H122964   2.651   0.075   8.472 -0.1742  0.6473  0.9514
  443TIP3    H222965   2.598   0.145   8.348  1.5720  1.0887  0.4280
  444TIP3   OH222966   4.139   2.575   0.610 -0.7382  0.5528 -0.9363
  444TIP3    H122967   4.160   2.569   0.517 -1.8981 -0.2012 -1.1745
  444TIP3    H222968   4.119   2.667   0.624  0.1550  0.8050 -1.2630
  445TIP3   OH222969   5.091   6.305   8.673  0.0425 -0.0279 -1.0374
  445TIP3    H122970   5.167   6.266   8.631  0.6204  1.5747 -1.5881
  445TIP3    H222971   5.027   6.317   8.602 -0.1397 -0.0396 -0.8761
  446TIP3   OH222972   1.293   4.712   2.064  0.0624  0.2571 -0.2833
  446TIP3    H122973   1.342   4.772   2.120  0.4020  3.0163 -3.2475
  446TIP3    H222974   1.355   4.687   1.996 -1.4498  0.4881 -1.8118
  447TIP3   OH222975   4.791   0.259   7.008  0.0758  0.1153  0.2428
  447TIP3    H122976   4.829   0.279   7.094  0.9968 -1.3146  0.1817
  447TIP3    H222977   4.787   0.344   6.964  1.0376  0.6327  1.1153
  448TIP3   OH222978   4.266   0.108   0.209 -0.1563  0.0169 -0.0397
  448TIP3    H122979   4.216   0.159   0.145 -2.0069 -1.8048 -0.1431
  448TIP3    H222980   4.229   0.133   0.293  0.0517  0.0551  0.0388
  449TIP3   OH222981   6.795   3.275   8.070 -0.0693  0.0995 -0.1166
  449TIP3    H122982   6.853   3.346   8.095 -0.3711  0.1075  0.5631
  449TIP3    H222983   6.824   3.200   8.122 -2.1883  0.7104  2.1149
  450TIP3   OH222984   5.506   0.988   7.746  0.0633  0.4144  0.2138
  450TIP3    H122985   5.432   1.022   7.695 -0.2395 -0.6492 -0.0915
  450TIP3    H222986   5.471   0.979   7.834  0.2386  1.1729  0.3648
  451TIP3   OH222987   5.603   6.179   0.822  0.3848  0.4408 -0.4360
  451TIP3    H122988   5.657   6.151   0.748  1.6461  0.1621  0.5570
  451TIP3    H222989   5.616   6.274   0.827 -0.4000  0.6001 -1.0806
  452TIP3   OH222990   0.893   1.703   8.326 -0.4256 -0.1292  0.5255
  452TIP3    H122991   0.875   1.621   8.280  1.2063 -0.4336  0.3747
  452TIP3    H222992   0.822   1.761   8.299 -0.4016 -0.8089 -1.1193
  453TIP3   OH222993   4.246   4.154   8.403 -0.2534  0.0111 -0.8829
  453TIP3    H122994   4.298   4.087   8.360 -1.7867 -0.8351 -1.4980
  453TIP3    H222995   4.259   4.232   8.348  0.3908 -0.1597 -0.9879
  454TIP3   OH222996   0.525   0.628   1.974  0.0247  0.4353  0.1494
  454TIP3    H122997   0.465   0.698   2.000 -0.8354 -0.2289 -0.0144
  454TIP3    H222998   0.510   0.558   2.037 -0.0895 -0.1155 -0.4781
  455TIP3   OH222999   2.001   4.175   6.468  0.0831  0.0959 -0.1482
  455TIP3    H123000   1.907   4.156   6.469  0.5568 -2.5834 -0.4420
  455TIP3    H223001   2.036   4.124   6.394  1.1200  5.0745 -3.5872
  456TIP3   OH223002   5.678   0.850   0.527  0.2020 -0.2479 -0.1057
  456TIP3    H123003   5.608   0.794   0.558 -0.1028  0.8791  1.3208
  456TIP3    H223004   5.633   0.925   0.488  0.5866  0.3796  0.6256
  457TIP3   OH223005   4.231   2.491   0.372  0.0883 -0.1420 -0.4957
  457TIP3    H123006   4.140   2.500   0.342 -0.3631 -1.6550  0.3063
  457TIP3    H223007   4.264   2.414   0.326  0.2110 -0.9495  0.8835
  458TIP3   OH223008   5.210   2.184   2.123  0.0644 -0.2831 -0.7182
  458TIP3    H123009   5.276   2.234   2.172  1.5065 -1.3014 -1.5527
  458TIP3    H223010   5.178   2.119   2.185  1.7809 -1.4796 -1.0282
  459TIP3   OH223011   0.662   1.497   2.328  0.1453 -0.2197 -0.6893
  459TIP3    H123012   0.610   1.529   2.254  0.0009 -0.0561 -0.5186
  459TIP3    H223013   0.649   1.563   2.396  1.8086  0.6494 -1.1480
  460TIP3   OH223014   5.274   2.122   0.470 -0.3085 -0.2926  0.4440
  460TIP3    H123015   5.243   2.199   0.421  0.3479 -0.0635  0.3721
  460TIP3    H223016   5.199   2.094   0.521 -1.3935 -1.2345 -1.5547
  461TIP3   OH223017   0.029   6.268   8.305 -0.4066 -0.0689  0.0984
  461TIP3    H123018  -0.039   6.200   8.307 -1.1856  0.6992  0.6036
  461TIP3    H223019  -0.012   6.343   8.347  0.6547  0.5253  0.0950
  462TIP3   OH223020   4.164   4.837   7.896  0.9008 -0.6684  0.2105
  462TIP3    H123021   4.222   4.879   7.959  1.6911 -0.3857 -0.6837
  462TIP3    H223022   4.079   4.837   7.938  0.8720  1.7844  0.2676
  463TIP3   OH223023   5.559   3.459   7.432  0.5862 -0.4106 -0.1724
  463TIP3    H123024   5.630   3.513   7.466  0.1171 -0.0824  0.3177
  463TIP3    H223025   5.559   3.475   7.338  0.4744  0.4301 -0.0380
  464TIP3   OH223026   0.950   1.837   1.532 -0.2024 -0.0240 -0.2340
  464TIP3    H123027   1.037   1.803   1.512 -0.0187 -0.2155  0.8494
  464TIP3    H223028   0.966   1.924   1.569 -0.3687 -0.5821  1.1930
  465TIP3   OH223029   6.049   3.579   1.904  0.6477  0.0897 -0.2239
  465TIP3    H123030   6.118   3.595   1.838  0.4983  3.2632  0.2427
  465TIP3    H223031   6.084   3.508   1.958  1.6230 -1.2921 -2.5126
  466TIP3   OH223032   2.133   1.071   7.790 -0.5653 -0.1538  0.2092
  466TIP3    H123033   2.224   1.078   7.816 -0.7910 -1.4232  1.4902
  466TIP3    H223034   2.092   1.152   7.821  0.1236  0.4639 -0.4638
  467TIP3   OH223035   6.684   5.067   1.855 -0.4291 -0.1842 -0.4401
  467TIP3    H123036   6.601   5.066   1.903 -0.0894  0.1756  0.1671
  467TIP3    H223037   6.659   5.078   1.763 -1.1046 -1.1804 -0.3896
  468TIP3   OH223038   6.555   4.225   7.477  0.2616  0.1897  0.1534
  468TIP3    H123039   6.484   4.242   7.539  0.9786 -2.2732  1.7853
  468TIP3    H223040   6.632   4.266   7.516  1.0724 -2.7230  1.9110
  469TIP3   OH223041   5.490   0.267   7.093 -0.1178 -0.0429  0.1174
  469TIP3    H123042   5.560   0.332   7.085 -1.2770  0.9756 -3.0092
  469TIP3    H223043   5.451   0.284   7.179  1.8573  0.9359  0.9021
  470TIP3   OH223044   3.976   4.562   0.876  0.1045  0.0107 -0.2018
  470TIP3    H123045   3.884   4.541   0.858 -0.3047  1.2312  0.3405
  470TIP3    H223046   3.979   4.578   0.971  1.0089 -0.6354 -0.1144
  471TIP3   OH223047   2.411   0.797   2.848 -0.5096 -0.0887 -0.3125
  471TIP3    H123048   2.388   0.869   2.907  2.5411  0.6671  0.1215
  471TIP3    H223049   2.329   0.748   2.838 -1.9398  1.5925  1.9314
  472TIP3   OH223050   6.536   3.651   0.821 -0.0445 -0.2169  0.5212
  472TIP3    H123051   6.581   3.569   0.800  1.4635  0.4348  1.0845
  472TIP3    H223052   6.447   3.624   0.843  0.4275 -1.7154  0.7131
  473TIP3   OH223053   0.690   0.531   1.581 -0.6487 -0.4260 -0.0503
  473TIP3    H123054   0.710   0.575   1.498  0.2805 -2.3005 -0.8937
  473TIP3    H223055   0.663   0.601   1.640 -2.2467  0.8774 -2.1900
  474TIP3   OH223056   1.289   5.834   1.852 -0.1881 -0.0300  0.1058
  474TIP3    H123057   1.286   5.827   1.947 -0.3067 -1.4148  0.0215
  474TIP3    H223058   1.373   5.877   1.833  1.2383 -2.3770  0.7461
  475TIP3   OH223059   2.722   0.711   1.675  0.7484  0.3389  0.2812
  475TIP3    H123060   2.672   0.770   1.732 -0.4019 -0.9317  0.6566
  475TIP3    H223061   2.656   0.676   1.614  1.3040 -0.8500  0.3306
  476TIP3   OH223062   2.265   1.800   7.633  0.0107  0.3838 -0.0732
  476TIP3    H123063   2.299   1.768   7.549  0.3781  2.6416 -0.8521
  476TIP3    H223064   2.216   1.879   7.610  0.1949  1.0983  1.8546
  477TIP3   OH223065   1.396   1.480   2.233 -0.7570 -0.5543 -0.6823
  477TIP3    H123066   1.426   1.535   2.161  0.1395 -0.4434 -0.2338
  477TIP3    H223067   1.417   1.530   2.312 -0.5664 -1.2330 -0.2927
  478TIP3   OH223068   3.614   2.698   7.506 -0.1239 -0.0241 -0.1017
  478TIP3    H123069   3.608   2.793   7.521  0.2635  0.0534 -0.4109
  478TIP3    H223070   3.635   2.691   7.413 -2.0491 -0.4703 -0.5382
  479TIP3   OH223071   5.831   0.483   7.300 -0.5393  0.3014  0.1016
  479TIP3    H123072   5.753   0.469   7.353 -1.0109  0.2641 -0.5906
  479TIP3    H223073   5.803   0.541   7.229 -0.1009 -0.1968 -0.4993
  480TIP3   OH223074   5.976   2.329   7.093 -0.4686  0.4083 -0.3018
  480TIP3    H123075   5.909   2.305   7.028  0.6459  0.8517 -1.6580
  480TIP3    H223076   5.963   2.267   7.165 -0.2813 -1.6182 -1.9287
  481TIP3   OH223077   2.605   0.778   0.537  0.0224  0.7776  0.0119
  481TIP3    H123078   2.633   0.710   0.597  0.3451  1.9845  1.2675
  481TIP3    H223079   2.588   0.732   0.455 -0.7024 -0.9524  1.0805
  482TIP3   OH223080   0.953   0.748   1.769  0.3790  0.1496  0.5481
  482TIP3    H123081   0.891   0.713   1.833 -1.5747  1.6507 -0.4309
  482TIP3    H223082   0.902   0.760   1.689  1.9862  1.2270 -0.3774
  483TIP3   OH223083   0.067   4.629   6.933  0.2195  0.3748  0.3878
  483TIP3    H123084   0.092   4.685   6.860 -1.6451  2.6141  1.3425
  483TIP3    H223085  -0.027   4.643   6.943 -0.0337 -1.7604  1.7073
  484TIP3   OH223086   4.549   5.563   7.328 -0.4031  0.3627 -0.2742
  484TIP3    H123087   4.481   5.548   7.263 -1.8370 -0.2901  1.3293
  484TIP3    H223088   4.503   5.595   7.405  0.6792 -2.5993  1.7883
  485TIP3   OH223089   4.897   6.544   7.546  0.1742  0.1097  0.4596
  485TIP3    H123090   4.968   6.482   7.565  0.9248  1.0298  0.7449
  485TIP3    H223091   4.818   6.502   7.581  0.7367 -0.5053  1.0028
  486TIP3   OH223092   2.881   5.489   7.930  0.5127 -0.1233 -0.0857
  486TIP3    H123093   2.815   5.470   7.997  0.7266 -0.2456  0.0929
  486TIP3    H223094   2.924   5.405   7.914 -0.6821 -0.4850 -1.6286
  487TIP3   OH223095   4.080   4.358   1.631  0.2856  0.3177  0.1501
  487TIP3    H123096   4.060   4.422   1.700  0.1752  1.9339 -1.3288
  487TIP3    H223097   4.176   4.351   1.633  0.4612  1.9371 -0.8401
  488TIP3   OH223098   2.301   3.979   8.513 -0.1447  0.4560 -0.2308
  488TIP3    H123099   2.374   3.918   8.498 -1.0112 -0.6297 -0.1673
  488TIP3    H223100   2.223   3.926   8.497 -0.9223  1.6146 -0.3319
  489TIP3   OH223101   4.291   5.152   8.154  0.1571  0.1870 -0.4032
  489TIP3    H123102   4.265   5.196   8.073  0.5148 -1.1234 -1.2755
  489TIP3    H223103   4.348   5.081   8.124  2.0087  0.9259  1.1704
  490TIP3   OH223104   4.664   5.523   2.493  0.0561  0.3737  0.3473
  490TIP3    H123105   4.650   5.580   2.569  0.3797  0.6644  0.1900
  490TIP3    H223106   4.720   5.453   2.525  1.5425  1.3455  0.0022
  491TIP3   OH223107   1.057   3.307   0.411 -0.2026  0.4147  0.2711
  491TIP3    H123108   1.121   3.335   0.347  1.3275 -2.7159  0.2380
  491TIP3    H223109   1.072   3.364   0.487 -0.3508  2.5092 -1.1909
  492TIP3   OH223110   2.351   3.412   8.492  0.1290  0.3739  0.2437
  492TIP3    H123111   2.358   3.327   8.450  1.4674  0.3158  0.5531
  492TIP3    H223112   2.272   3.406   8.546 -1.0000  0.0875 -1.3859
  493TIP3   OH223113   3.652   1.484   8.348  0.1508  0.5145  0.5601
  493TIP3    H123114   3.614   1.527   8.424 -0.2357  0.0116  0.6600
  493TIP3    H223115   3.734   1.447   8.380 -0.2955 -0.2068  0.8956
  494TIP3   OH223116   4.296   1.044   1.532 -0.1331  0.6268 -0.2908
  494TIP3    H123117   4.242   0.974   1.568  0.8922 -0.3367 -0.5829
  494TIP3    H223118   4.310   1.020   1.440  1.8329  0.1540  0.0809
  495TIP3   OH223119   4.783   1.722   8.648 -0.2015 -0.3338 -0.4184
  495TIP3    H123120   4.874   1.694   8.659 -0.5268 -0.7240  1.8836
  495TIP3    H223121   4.786   1.788   8.579  1.8690 -0.1637 -0.2356
  496TIP3   OH223122   0.653   1.532   0.025 -0.2642 -0.4803 -0.3713
  496TIP3    H123123   0.690   1.480   0.097 -1.9748 -0.1784  0.8064
  496TIP3    H223124   0.561   1.543   0.049 -0.2375  2.1232 -1.1374
  497TIP3   OH223125   5.080   1.737   7.171 -0.5074  0.1602  0.8247
  497TIP3    H123126   5.101   1.804   7.107 -0.2853  1.5081  2.2487
  497TIP3    H223127   5.152   1.674   7.165 -0.2399  0.5244  0.1223
  498TIP3   OH223128   1.909   6.650   7.653 -0.1515 -0.0161 -0.7684
  498TIP3    H123129   1.826   6.691   7.677 -0.9805 -2.4067  0.8095
  498TIP3    H223130   1.968   6.670   7.725  0.5239  1.2208 -1.6309
  499TIP3   OH223131   6.666   4.245   0.941 -0.6839 -0.2493 -0.3834
  499TIP3    H123132   6.735   4.201   0.891  0.0834  0.0374  0.3977
  499TIP3    H223133   6.672   4.337   0.913 -1.8178 -0.4870 -1.4900
  500TIP3   OH223134   1.262   4.270   0.712 -0.6710  0.2423 -0.3554
  500TIP3    H123135   1.255   4.362   0.685  0.6911  0.4337 -0.1618
  500TIP3    H223136   1.190   4.226   0.669 -0.2048  1.0569 -2.0394
  501TIP3   OH223137   1.476   3.583   8.083  0.7869 -0.9894 -0.4123
  501TIP3    H123138   1.419   3.560   8.157  1.2211  1.6654  0.8552
  501TIP3    H223139   1.417   3.586   8.008 -0.1282 -1.4516  0.2561
  502TIP3   OH223140   3.083   1.855   8.677 -0.1493  0.1129  0.2449
  502TIP3    H123141   3.001   1.905   8.672 -0.3575 -0.1329  1.0435
  502TIP3    H223142   3.078   1.810   8.761  0.6705 -0.1537  0.1558
  503TIP3   OH223143   0.983   3.317   0.046 -0.0687 -0.2383  0.2339
  503TIP3    H123144   1.045   3.260  -0.000 -1.5586  0.9139 -3.5955
  503TIP3    H223145   1.035   3.392   0.073  0.5336  0.2026 -1.9263
  504TIP3   OH223146   0.824   5.192   2.429 -0.1202 -0.1599 -0.4805
  504TIP3    H123147   0.895   5.166   2.371 -1.3917  0.0033 -2.1914
  504TIP3    H223148   0.816   5.286   2.418 -2.6049 -0.5276 -2.8438
  505TIP3   OH223149   0.714   6.069   1.360  0.2836 -0.4840  0.3192
  505TIP3    H123150   0.703   6.103   1.448  0.3528  3.5625 -1.0522
  505TIP3    H223151   0.636   6.097   1.313  0.2138 -2.6051 -0.9649
  506TIP3   OH223152   3.202   3.320   0.312  0.0965 -0.0640 -0.7721
  506TIP3    H123153   3.221   3.310   0.219  1.1221  0.3757 -0.6245
  506TIP3    H223154   3.257   3.393   0.341 -1.9963  1.4227 -0.3238
  507TIP3   OH223155   2.843   3.254   6.690 -0.2989 -0.5025 -0.6602
  507TIP3    H123156   2.784   3.327   6.707 -1.3562 -1.3404 -0.6505
  507TIP3    H223157   2.832   3.195   6.764  0.1387 -0.9374 -0.9283
  508TIP3   OH223158   3.767   0.626   1.350  0.1981  0.0657  0.2417
  508TIP3    H123159   3.753   0.671   1.266  0.0632  0.6460  0.5714
  508TIP3    H223160   3.713   0.674   1.413  0.1490 -0.4875  0.6270
  509TIP3   OH223161   3.228   2.953   8.446 -0.0400  0.1315  0.0889
  509TIP3    H123162   3.207   3.011   8.373 -0.1268 -0.8846 -0.7115
  509TIP3    H223163   3.319   2.975   8.468 -0.5836  1.7382  0.9304
  510TIP3   OH223164   2.477   3.186   0.086 -0.6315 -0.2182 -0.2897
  510TIP3    H123165   2.528   3.189   0.005 -1.3474 -1.4083 -0.7981
  510TIP3    H223166   2.389   3.159   0.059 -1.2588  0.7243  0.7134
  511TIP3   OH223167   1.526   6.168   0.625  0.0072 -0.2837  0.1679
  511TIP3    H123168   1.542   6.172   0.719  2.6048 -0.7691 -0.1724
  511TIP3    H223169   1.462   6.098   0.614 -1.7343  0.9805  1.6491
  512TIP3   OH223170   3.317   1.793   1.767  0.0728 -0.4884 -0.2039
  512TIP3    H123171   3.250   1.771   1.832 -2.8158 -2.7440 -3.5608
  512TIP3    H223172   3.332   1.887   1.780 -3.9219  0.2305  0.7132
  513TIP3   OH223173   6.621   4.330   0.431  0.0063  0.3870  0.1346
  513TIP3    H123174   6.584   4.399   0.486 -0.5664  0.4761 -0.3609
  513TIP3    H223175   6.715   4.351   0.428 -0.3524  2.0620 -1.2715
  514TIP3   OH223176   2.070   2.088   1.053 -0.5023  0.0174 -0.2684
  514TIP3    H123177   1.990   2.078   1.105  0.3235 -0.0262  1.0461
  514TIP3    H223178   2.138   2.109   1.118  0.2326  1.7904 -1.5478
  515TIP3   OH223179   6.322   5.371   7.342  0.2024  0.9051 -0.2814
  515TIP3    H123180   6.393   5.435   7.338 -1.3431  2.7267 -0.1798
  515TIP3    H223181   6.272   5.386   7.261 -0.9202  0.7456  0.3637
  516TIP3   OH223182   4.447   4.803   1.696  0.1010  0.3413  0.0474
  516TIP3    H123183   4.393   4.731   1.663  0.0615 -0.0088  0.8428
  516TIP3    H223184   4.532   4.791   1.654  0.1589 -0.3068  0.3342
  517TIP3   OH223185   2.479   6.689   0.924 -0.1582  0.2301  0.1131
  517TIP3    H123186   2.460   6.673   0.831  3.3982  3.1833 -1.3900
  517TIP3    H223187   2.464   6.783   0.935  1.2511  0.2826  2.0210
  518TIP3   OH223188   1.682   2.344   0.533  0.5304  0.1831  0.5026
  518TIP3    H123189   1.691   2.251   0.510  2.0350  0.3488  0.2933
  518TIP3    H223190   1.607   2.374   0.483  0.2765 -0.8224  0.2469
  519TIP3   OH223191   6.799   1.539   2.122 -0.3746  0.3487 -0.6274
  519TIP3    H123192   6.733   1.471   2.115  1.2459 -1.2175 -1.8037
  519TIP3    H223193   6.867   1.513   2.059  1.4852  1.6946  0.6946
  520TIP3   OH223194   2.336   6.088   7.880  0.2235 -0.3047  0.2133
  520TIP3    H123195   2.265   6.029   7.905 -2.8727  1.6348 -3.0451
  520TIP3    H223196   2.415   6.048   7.916 -2.4332 -2.3919  4.5483
  521TIP3   OH223197   5.062   1.360   1.940  0.1554  0.4424 -0.2012
  521TIP3    H123198   5.144   1.404   1.964  0.0064 -0.2528  1.7739
  521TIP3    H223199   5.001   1.432   1.924  0.0301  1.0856  2.5804
  522TIP3   OH223200   4.812   5.101   2.232 -0.4093 -0.1243 -0.4134
  522TIP3    H123201   4.896   5.120   2.189 -0.0897 -1.0584 -0.2155
  522TIP3    H223202   4.798   5.177   2.289  0.2449  0.0976 -0.5282
  523TIP3   OH223203   6.491   4.915   2.566 -0.1266 -0.2104  0.5290
  523TIP3    H123204   6.547   4.837   2.571  0.7788  0.2179 -1.7619
  523TIP3    H223205   6.541   4.977   2.514 -1.5849  1.2718  0.8241
  524TIP3   OH223206   2.519   1.349   8.336 -0.0729 -0.6856 -0.5611
  524TIP3    H123207   2.586   1.417   8.340 -1.8938  1.1632  1.7705
  524TIP3    H223208   2.487   1.351   8.246  0.2128  1.2992 -0.6526
  525TIP3   OH223209   3.789   5.868   8.340  0.1316 -0.2140 -0.0358
  525TIP3    H123210   3.798   5.775   8.323  1.3163  0.2446 -2.2866
  525TIP3    H223211   3.870   5.893   8.386  0.9637  0.1107 -1.6207
  526TIP3   OH223212   3.908   1.823   0.129 -0.6005  0.1738  0.3817
  526TIP3    H123213   4.004   1.822   0.126 -0.6062 -1.4377 -1.7216
  526TIP3    H223214   3.883   1.887   0.063 -0.9884  0.7509  1.0806
  527TIP3   OH223215   4.295   2.940   1.293 -0.5572  0.7352 -0.3295
  527TIP3    H123216   4.385   2.959   1.265 -0.1380  0.4065  0.7314
  527TIP3    H223217   4.300   2.851   1.328 -0.4120  2.0090  3.2327
  528TIP3   OH223218   0.149   4.595   1.528 -0.0054  0.2439  0.5825
  528TIP3    H123219   0.214   4.656   1.565 -0.2605  0.7534  0.1965
  528TIP3    H223220   0.183   4.508   1.551 -0.0164  0.5370  1.7747
  529TIP3   OH223221   2.424   3.230   0.756 -0.2115 -0.2146  0.3512
  529TIP3    H123222   2.452   3.141   0.733  0.3418  0.4452 -1.6954
  529TIP3    H223223   2.348   3.246   0.701 -0.5220  0.4822  0.9656
  530TIP3   OH223224   0.925   2.244   1.313 -0.1906 -0.4882  0.0830
  530TIP3    H123225   0.886   2.263   1.227  0.0877  0.2158  0.1085
  530TIP3    H223226   0.915   2.149   1.323 -2.2319 -0.2911  0.2603
  531TIP3   OH223227   2.909   5.028   7.848 -0.2460  0.1678  0.0839
  531TIP3    H123228   2.843   4.959   7.846  1.1392 -1.2150 -2.4315
  531TIP3    H223229   2.893   5.079   7.769  0.1012  1.4437  0.8071
  532TIP3   OH223230   0.736   6.266   8.309  1.0799 -0.3716  0.2470
  532TIP3    H123231   0.666   6.202   8.297  1.1999 -0.2234 -1.6090
  532TIP3    H223232   0.816   6.214   8.311  0.9952 -0.4781  1.5945
  533TIP3   OH223233   6.085   4.091   7.287 -1.0264 -0.3239 -0.2733
  533TIP3    H123234   6.121   4.169   7.331 -0.7848  0.1762 -1.3241
  533TIP3    H223235   6.047   4.125   7.206 -4.5606 -0.6892  1.0373
  534TIP3   OH223236   5.607   3.736   7.833  0.5408 -0.5071  0.4093
  534TIP3    H123237   5.673   3.777   7.777  1.5624 -1.3705  0.9405
  534TIP3    H223238   5.529   3.731   7.779  0.9894  0.2921 -0.3302
  535TIP3   OH223239   3.256   3.254   6.208 -0.8708 -0.3322  0.0371
  535TIP3    H123240   3.185   3.317   6.216 -1.1240 -0.8471  2.2089
  535TIP3    H223241   3.222   3.173   6.246  0.3065 -1.0689 -0.4136
  536TIP3   OH223242   0.694   2.428   2.769 -0.4692  0.1684 -0.1922
  536TIP3    H123243   0.719   2.520   2.779 -0.8793  0.5440 -2.2778
  536TIP3    H223244   0.610   2.420   2.815 -0.5683  0.9097 -0.2406
  537TIP3   OH223245   3.857   0.076   6.792  0.3620  0.2551  0.2042
  537TIP3    H123246   3.867  -0.018   6.781  2.6100  0.6763 -2.5762
  537TIP3    H223247   3.782   0.099   6.738  0.4975  0.1658 -0.0248
  538TIP3   OH223248   0.773   1.875   0.583 -0.4037 -0.3074 -0.2194
  538TIP3    H123249   0.715   1.893   0.509  0.0208 -0.4408 -0.5832
  538TIP3    H223250   0.829   1.803   0.553 -0.0891 -0.2188  0.1540
  539TIP3   OH223251   3.271   3.011   1.590 -0.8538 -0.3919 -0.3142
  539TIP3    H123252   3.234   3.076   1.530  1.2754  0.3422 -0.8858
  539TIP3    H223253   3.229   3.031   1.674 -0.2481  1.7608 -0.4736
  540TIP3   OH223254   1.545   3.058   0.254  0.0454 -0.6945  0.3309
  540TIP3    H123255   1.474   3.122   0.255  0.2469 -0.4259 -0.7151
  540TIP3    H223256   1.511   2.985   0.201  0.9817  0.0101 -1.3286
  541TIP3   OH223257   3.087   3.083   1.220  0.2124  0.3667  0.5744
  541TIP3    H123258   3.124   3.161   1.261 -2.2187  1.6039  0.6035
  541TIP3    H223259   3.001   3.072   1.261 -0.3065 -1.2134 -0.7853
  542TIP3   OH223260   2.757   0.637   2.146 -0.1564 -0.4623 -0.7470
  542TIP3    H123261   2.811   0.570   2.188 -1.6537 -0.3781  1.5230
  542TIP3    H223262   2.775   0.717   2.196 -0.9527  0.0103 -1.1862
  543TIP3   OH223263   2.126   4.314   0.638  0.4388  0.3340  0.9613
  543TIP3    H123264   2.099   4.294   0.548 -1.7563 -4.1676  2.3209
  543TIP3    H223265   2.085   4.398   0.657 -1.6399 -0.0278 -1.3414
  544TIP3   OH223266   0.096   3.562   7.733  0.1239  1.0225 -0.1588
  544TIP3    H123267   0.138   3.629   7.679  1.7443  2.2769  2.4515
  544TIP3    H223268   0.165   3.499   7.752 -0.6109  0.1998 -0.1558
  545TIP3   OH223269   1.182   2.592   7.608 -0.0330  0.1893 -0.0701
  545TIP3    H123270   1.127   2.525   7.648  1.6990 -1.7877 -0.8198
  545TIP3    H223271   1.203   2.557   7.521  2.2805  0.8777  0.1627
  546TIP3   OH223272   3.723   3.086   6.761 -0.2844 -0.6093  0.1761
  546TIP3    H123273   3.758   3.109   6.675 -2.0740  1.4633 -0.0954
  546TIP3    H223274   3.801   3.078   6.816  0.8339 -0.4867 -1.3071
  547TIP3   OH223275   0.426   0.771   0.879  0.0245  0.7477 -0.5165
  547TIP3    H123276   0.337   0.738   0.871 -0.1112  1.3336 -1.7865
  547TIP3    H223277   0.456   0.741   0.965 -0.5076 -1.5579 -1.0769
  548TIP3   OH223278   2.256   4.191   1.888 -0.1416 -0.2723  0.0203
  548TIP3    H123279   2.186   4.147   1.936  0.4876 -0.4412  0.8000
  548TIP3    H223280   2.263   4.142   1.807 -1.8758  0.5947 -0.7175
  549TIP3   OH223281   0.177   3.162   7.102 -0.5272  0.1897 -0.1422
  549TIP3    H123282   0.179   3.258   7.106 -0.6294  0.1426  1.2499
  549TIP3    H223283   0.236   3.141   7.029  2.4980  1.1968  1.8133
  550TIP3   OH223284   5.505   4.380   7.591  0.4337 -0.4698  0.3536
  550TIP3    H123285   5.579   4.320   7.606  0.9591  0.2382  0.6607
  550TIP3    H223286   5.522   4.416   7.504 -1.8179 -3.4517 -1.5218
  551TIP3   OH223287   3.681   5.517   7.799  0.2200 -0.3533 -0.3213
  551TIP3    H123288   3.628   5.481   7.870  1.1492  0.6628  0.9432
  551TIP3    H223289   3.630   5.591   7.766  0.0964 -0.3996 -0.2351
  552TIP3   OH223290   5.246   3.657   0.718 -0.1221  0.0508  0.3978
  552TIP3    H123291   5.166   3.606   0.704 -1.1675  0.9080  2.8374
  552TIP3    H223292   5.243   3.683   0.810  2.7842  0.4760  0.4643
  553TIP3   OH223293   6.607   6.240   0.389  0.4804 -0.5747  0.1641
  553TIP3    H123294   6.586   6.190   0.310  1.4447 -1.0763  0.2221
  553TIP3    H223295   6.623   6.174   0.456 -0.4242 -0.1538  0.8241
  554TIP3   OH223296   5.550   0.814   1.252  0.1658  0.0205 -0.5796
  554TIP3    H123297   5.624   0.779   1.202 -1.1146 -1.0677 -1.8044
  554TIP3    H223298   5.565   0.908   1.254  1.1615 -0.0935 -1.5060
  555TIP3   OH223299   6.272   1.183   1.795  0.5734  0.3046  0.2678
  555TIP3    H123300   6.227   1.262   1.765  3.0356  0.9258 -2.2313
  555TIP3    H223301   6.224   1.112   1.752  0.9599  0.8191 -1.0700
  556TIP3   OH223302   2.634   3.863   1.173 -0.0152  0.1321  0.2578
  556TIP3    H123303   2.653   3.831   1.261  0.0675  0.8432  0.5101
  556TIP3    H223304   2.565   3.928   1.185  0.1102  0.3556 -0.1819
  557TIP3   OH223305   1.570   6.219   8.290  0.2951 -0.1663 -0.2895
  557TIP3    H123306   1.567   6.213   8.385 -0.2942  2.9190  0.0196
  557TIP3    H223307   1.655   6.257   8.270  0.1222 -0.0828 -0.9160
  558TIP3   OH223308   1.048   4.942   7.941 -0.1732  0.0476 -0.1647
  558TIP3    H123309   1.128   4.956   7.891  0.8589  0.9980  1.6733
  558TIP3    H223310   0.977   4.959   7.878  1.0550  0.6230 -1.4407
  559TIP3   OH223311   0.268   6.209   2.090 -0.5867 -0.2217  0.3686
  559TIP3    H123312   0.249   6.252   2.173  0.0262  0.3048  0.2403
  559TIP3    H223313   0.202   6.242   2.029 -1.2164 -0.8262  0.7025
  560TIP3   OH223314   1.007   3.057   8.543  0.6071  0.4887  0.0897
  560TIP3    H123315   0.979   3.004   8.468  0.2684  0.1860  0.4241
  560TIP3    H223316   0.931   3.058   8.600  0.8845  0.6739  0.4558
  561TIP3   OH223317   5.449   1.743   7.562  0.0139  0.4310 -0.5621
  561TIP3    H123318   5.468   1.667   7.507  1.1899  0.5040 -0.2840
  561TIP3    H223319   5.362   1.771   7.535 -0.0031 -0.3889 -1.3984
  562TIP3   OH223320   1.590   1.023   0.649  0.1537 -0.0649 -0.1861
  562TIP3    H123321   1.579   1.037   0.555  1.1125  1.3876 -0.1232
  562TIP3    H223322   1.682   0.999   0.659  0.0672 -0.1687  0.3849
  563TIP3   OH223323   2.867   1.132   1.043  0.3023  0.4895  0.0108
  563TIP3    H123324   2.787   1.185   1.046 -0.1230  0.2293 -3.0956
  563TIP3    H223325   2.849   1.058   1.100  0.1101  2.5561  2.8293
  564TIP3   OH223326   0.790   2.987   8.698 -0.0700  0.1875 -0.1168
  564TIP3    H123327   0.747   3.003   8.782  1.9446  0.4346  0.9103
  564TIP3    H223328   0.720   2.999   8.633 -1.5319  0.5805  1.4660
  565TIP3   OH223329   1.390   3.845   6.787  0.4812 -0.1182 -0.1340
  565TIP3    H123330   1.343   3.918   6.747  1.4858  1.7732  1.9457
  565TIP3    H223331   1.474   3.843   6.741  1.0613  1.0991  0.8219
  566TIP3   OH223332   2.471   5.659   0.981 -0.1435  0.7784 -0.0356
  566TIP3    H123333   2.381   5.691   0.994 -1.3519 -2.5429  0.7505
  566TIP3    H223334   2.483   5.595   1.051  0.5375 -3.3084 -3.5156
  567TIP3   OH223335   0.718   1.790   0.125 -0.4796 -0.3072 -0.0417
  567TIP3    H123336   0.709   1.725   0.055  0.4457 -3.0338  2.2243
  567TIP3    H223337   0.810   1.788   0.148 -0.9621 -0.4162  2.0615
  568TIP3   OH223338   1.345   5.739   0.050  0.3446  0.1370  0.7970
  568TIP3    H123339   1.339   5.676   0.122  0.0065 -0.9276 -0.1332
  568TIP3    H223340   1.420   5.795   0.073 -1.0160  1.2048  3.0131
  569TIP3   OH223341   2.730   4.781   7.223  0.5803 -0.0662 -0.5064
  569TIP3    H123342   2.648   4.742   7.252 -0.0741  2.0599  0.7814
  569TIP3    H223343   2.719   4.791   7.128 -1.0423  0.9132 -0.2610
  570TIP3   OH223344   2.504   2.751   8.059 -0.1928 -0.0857  0.4612
  570TIP3    H123345   2.566   2.678   8.058 -0.9205 -0.7503 -1.8447
  570TIP3    H223346   2.427   2.716   8.103  0.7665  0.5921  2.8899
  571TIP3   OH223347   5.126   1.709   6.525  0.0215 -0.1461 -0.1931
  571TIP3    H123348   5.059   1.654   6.484 -0.8063  1.4803 -1.1334
  571TIP3    H223349   5.155   1.767   6.455 -1.5199  2.8383  1.4509
  572TIP3   OH223350   2.984   2.050   1.527  0.3756  0.4664 -0.0159
  572TIP3    H123351   2.958   1.975   1.579 -1.8113  0.4792 -0.9582
  572TIP3    H223352   3.079   2.053   1.533  0.5054 -2.2334  0.2196
  573TIP3   OH223353   2.981   5.652   1.752 -0.2242  0.5170 -0.2457
  573TIP3    H123354   2.996   5.708   1.675  0.7493  1.7075  0.7565
  573TIP3    H223355   2.954   5.714   1.820 -0.9858 -0.5115  0.4031
  574TIP3   OH223356   5.399   1.163   2.571  0.0825 -0.0960  0.1544
  574TIP3    H123357   5.330   1.099   2.557  0.4811 -0.5008  0.0340
  574TIP3    H223358   5.420   1.196   2.483  0.8490 -0.8224  0.0567
  575TIP3   OH223359   2.681   2.288   7.742  0.4380 -0.0869  0.2244
  575TIP3    H123360   2.679   2.322   7.652  2.5512 -1.0541 -0.2623
  575TIP3    H223361   2.734   2.351   7.790 -0.8436  0.5252  0.8792
  576TIP3   OH223362   5.474   4.326   1.298  0.3623 -0.7625  0.0652
  576TIP3    H123363   5.509   4.238   1.317  1.2534 -0.5158 -0.3646
  576TIP3    H223364   5.391   4.309   1.255 -0.3070 -1.3640  1.5246
  577TIP3   OH223365   0.411   1.772   6.872  0.0461 -0.5490  1.0028
  577TIP3    H123366   0.338   1.826   6.843  1.1081 -0.1773 -1.1996
  577TIP3    H223367   0.426   1.797   6.963 -1.2857  0.7963  0.8812
  578TIP3   OH223368   2.167   0.357   8.611 -0.0794  0.2091  0.0738
  578TIP3    H123369   2.211   0.280   8.649  0.8620  0.5852 -0.2420
  578TIP3    H223370   2.227   0.388   8.543 -2.3112 -1.2747 -2.7983
  579TIP3   OH223371   2.099   6.217   0.330 -0.5521 -0.3087  0.0069
  579TIP3    H123372   2.098   6.312   0.320 -0.8707 -0.3224 -0.0918
  579TIP3    H223373   2.189   6.192   0.306 -1.3871 -0.4100 -3.5590
  580TIP3   OH223374   0.130   2.733   0.137 -0.1589  0.2133  0.1795
  580TIP3    H123375   0.067   2.677   0.183 -2.5328  1.0688 -1.8205
  580TIP3    H223376   0.110   2.721   0.044  2.5748  0.6779 -0.5710
  581TIP3   OH223377   0.893   2.846   0.183  0.2694 -0.1435  0.1504
  581TIP3    H123378   0.875   2.890   0.266 -1.2731 -1.2809  0.4703
  581TIP3    H223379   0.809   2.847   0.137  0.9475 -0.0907 -1.1511
  582TIP3   OH223380   5.319   1.541   0.829 -0.0614  0.5619  0.6802
  582TIP3    H123381   5.361   1.481   0.891  1.3151  0.8195  0.0303
  582TIP3    H223382   5.307   1.622   0.879 -0.8914  0.1337  1.2155
  583TIP3   OH223383   4.493   0.999   0.412  0.2970 -0.2506 -0.0906
  583TIP3    H123384   4.404   1.033   0.405  0.2802 -0.2368  0.1773
  583TIP3    H223385   4.528   1.040   0.491  0.2139 -0.9913  0.3386
  584TIP3   OH223386   5.565   1.914   7.900  0.8722  0.0398 -0.7258
  584TIP3    H123387   5.605   1.960   7.973 -2.5094  1.0819  0.6741
  584TIP3    H223388   5.573   1.821   7.922  0.6445  0.3154  0.5803
  585TIP3   OH223389   3.326   1.770   7.231 -1.0542 -0.1085 -0.6125
  585TIP3    H123390   3.290   1.683   7.252 -0.1087 -0.9923 -2.4113
  585TIP3    H223391   3.295   1.826   7.301  0.1296 -2.3609  1.9392
  586TIP3   OH223392   5.428   0.943   0.764 -0.0708 -0.1928 -0.0700
  586TIP3    H123393   5.519   0.931   0.792  0.1451 -0.6774 -0.9294
  586TIP3    H223394   5.389   0.855   0.773  0.0620 -0.4085 -1.4409
  587TIP3   OH223395   6.410   4.729   0.348 -0.1054  0.3356  0.1729
  587TIP3    H123396   6.337   4.777   0.311 -0.9093 -0.2037  1.0034
  587TIP3    H223397   6.452   4.791   0.407 -0.1412  0.5230  0.0002
  588TIP3   OH223398   3.167   4.153   8.097 -0.2672 -0.1948  0.0457
  588TIP3    H123399   3.086   4.121   8.056  0.4130 -0.0188 -1.4929
  588TIP3    H223400   3.237   4.126   8.037  0.6707  1.0533  0.5284
  589TIP3   OH223401   1.466   4.287   1.225  0.0388  0.1395  1.1443
  589TIP3    H123402   1.462   4.369   1.274 -1.9911  0.7554  0.0533
  589TIP3    H223403   1.504   4.311   1.141 -0.0389 -0.1448  1.0268
  590TIP3   OH223404   4.789   2.546   7.965  0.1947 -0.5066 -0.5813
  590TIP3    H123405   4.773   2.528   7.872 -1.3061  0.3337 -0.5310
  590TIP3    H223406   4.840   2.627   7.965 -0.4367 -0.1002 -0.6801
  591TIP3   OH223407   2.970   4.802   1.557 -0.2624 -0.3480  0.0628
  591TIP3    H123408   3.039   4.867   1.564 -0.0842 -0.7247  2.3345
  591TIP3    H223409   2.963   4.785   1.463  1.8535  0.6048 -0.3198
  592TIP3   OH223410   5.028   0.005   1.665  0.0840 -0.3157  0.0044
  592TIP3    H123411   5.093   0.054   1.615 -0.6778 -0.1498 -0.8379
  592TIP3    H223412   5.067  -0.004   1.752 -0.2240  2.9225  0.6225
  593TIP3   OH223413   3.175   5.629   2.379 -0.0885  0.0603 -0.1631
  593TIP3    H123414   3.234   5.625   2.304  0.9075  0.9577  0.5418
  593TIP3    H223415   3.169   5.539   2.411  1.4751  0.0594  0.1707
  594TIP3   OH223416   3.971   4.878   8.093 -0.4455  0.2091  0.0207
  594TIP3    H123417   3.964   4.968   8.061  1.8292  0.7135  0.7379
  594TIP3    H223418   3.967   4.885   8.188 -0.7425 -0.5095  0.0703
  595TIP3   OH223419   2.408   5.355   8.560  0.2647 -0.3963  0.0642
  595TIP3    H123420   2.346   5.296   8.602  0.3378 -0.7668 -0.3390
  595TIP3    H223421   2.465   5.298   8.508  1.7947 -0.1997  1.4345
  596TIP3   OH223422   2.704   0.139   1.041 -0.1944  0.7326 -0.2229
  596TIP3    H123423   2.675   0.129   1.132  1.2079  2.2904  0.4245
  596TIP3    H223424   2.638   0.196   1.001  0.4062  1.9336  0.4637
  597TIP3   OH223425   4.788   1.355   1.117 -0.1160 -0.2789  0.5759
  597TIP3    H123426   4.790   1.282   1.055 -1.9863 -0.8095  1.0816
  597TIP3    H223427   4.700   1.354   1.153  0.1985  1.4814  1.5279
  598TIP3   OH223428   6.721   3.762   6.856  0.2001  0.3425  0.9266
  598TIP3    H123429   6.666   3.694   6.895  0.8748 -0.2133  0.9277
  598TIP3    H223430   6.711   3.837   6.915 -0.8193  0.3682  0.7378
  599TIP3   OH223431   3.806   4.131   0.995 -0.1224 -0.1588 -0.1384
  599TIP3    H123432   3.801   4.056   1.055 -0.5311  2.0629  2.8076
  599TIP3    H223433   3.731   4.185   1.018 -0.3439  0.7832 -2.8124
  600TIP3   OH223434   6.727   1.781   1.387 -0.2423  0.0883 -0.7927
  600TIP3    H123435   6.668   1.834   1.333 -1.2924  1.2515  1.3839
  600TIP3    H223436   6.674   1.706   1.414  0.1005 -0.1904 -0.8792
  601TIP3   OH223437   0.164   5.834   8.318  0.6992  0.3334 -0.2269
  601TIP3    H123438   0.149   5.881   8.400  1.5992 -0.8668  0.6622
  601TIP3    H223439   0.082   5.843   8.270 -0.1773  0.2869  1.2077
  602TIP3   OH223440   2.931   4.700   6.815 -0.9577  0.0105  0.0512
  602TIP3    H123441   3.007   4.718   6.759 -1.2573  1.1562 -0.0230
  602TIP3    H223442   2.946   4.611   6.848  1.4250  0.8652  1.5819
  603TIP3   OH223443   5.593   3.208   2.376 -0.3186 -0.5245 -0.3853
  603TIP3    H123444   5.654   3.177   2.443 -0.2788 -1.9448 -1.0192
  603TIP3    H223445   5.628   3.292   2.348 -0.7367  0.4553  1.8363
  604TIP3   OH223446   5.665   5.810   1.036 -0.3283 -0.0535 -0.4673
  604TIP3    H123447   5.735   5.811   1.101 -1.9377  3.9071  1.4987
  604TIP3    H223448   5.597   5.754   1.075 -0.9751  1.6918  1.0083
  605TIP3   OH223449   2.458   4.236   8.771 -0.1478 -0.3697  0.3542
  605TIP3    H123450   2.368   4.219   8.800  0.0338 -0.4171  0.8987
  605TIP3    H223451   2.512   4.186   8.831  0.2740  0.1169  0.3799
  606TIP3   OH223452   6.851   3.982   7.298  0.0174 -0.2753 -0.6328
  606TIP3    H123453   6.888   3.943   7.377  2.3454 -0.4027 -1.6942
  606TIP3    H223454   6.763   4.010   7.323  0.9705  0.4476  2.2299
  607TIP3   OH223455   5.131   5.823   0.491 -0.3007 -0.0995 -0.6887
  607TIP3    H123456   5.092   5.858   0.411 -0.0092 -0.2822 -0.9150
  607TIP3    H223457   5.074   5.854   0.562 -1.0840 -0.7108 -1.0406
  608TIP3   OH223458   0.143   2.270   7.760 -0.0944  0.8724 -0.8494
  608TIP3    H123459   0.194   2.305   7.687  0.5019 -0.9204 -1.3444
  608TIP3    H223460   0.180   2.313   7.838  0.4072  1.5251 -1.4348
  609TIP3   OH223461   6.017   6.704   1.035  0.0443  0.2335 -0.3111
  609TIP3    H123462   6.108   6.733   1.043  0.2418 -0.4885  0.1017
  609TIP3    H223463   5.980   6.718   1.122  0.3761 -1.5163  0.1411
  610TIP3   OH223464   1.009   4.660   7.890  0.5493  0.1886 -0.0796
  610TIP3    H123465   0.947   4.621   7.951  0.6629 -0.3466 -0.3043
  610TIP3    H223466   1.020   4.750   7.922 -0.1556  0.2200  0.1022
  611TIP3   OH223467   3.933   5.403   6.684 -0.5361 -0.5235 -0.1552
  611TIP3    H123468   3.892   5.474   6.634  0.9854  0.9894  0.6649
  611TIP3    H223469   3.924   5.326   6.627 -1.4230  0.4993 -1.4717
  612TIP3   OH223470   2.288   4.563   0.236 -0.6041 -0.5328 -0.1726
  612TIP3    H123471   2.316   4.654   0.222 -1.8927 -0.3693 -2.0098
  612TIP3    H223472   2.299   4.549   0.330  0.7012  1.1408 -0.0178
  613TIP3   OH223473   4.504   0.846   8.399  0.3745 -0.9635  0.0826
  613TIP3    H123474   4.578   0.804   8.356  0.5313 -0.6385  0.0327
  613TIP3    H223475   4.437   0.853   8.331  0.7528 -0.1165 -0.2263
  614TIP3   OH223476   3.494   6.495   7.287  0.0046  0.0597 -0.1245
  614TIP3    H123477   3.588   6.499   7.304  0.1848 -2.9993  0.0694
  614TIP3    H223478   3.482   6.538   7.203  1.5788  0.3879 -0.2005
  615TIP3   OH223479   1.177   5.208   8.380 -0.5869 -0.1519  0.6814
  615TIP3    H123480   1.107   5.216   8.316 -0.9858 -0.3152  1.0928
  615TIP3    H223481   1.186   5.113   8.394 -0.6186 -0.1100  0.9927
  616TIP3   OH223482   1.978   1.313   7.880  0.6586 -0.3204  0.3036
  616TIP3    H123483   1.954   1.386   7.822  0.9867  0.8856  1.6114
  616TIP3    H223484   2.058   1.343   7.923  0.5872 -1.3042  1.1534
  617TIP3   OH223485   4.317   4.110   1.497 -0.4708  0.7389  0.2160
  617TIP3    H123486   4.287   4.041   1.556  0.3283 -0.2960 -0.5361
  617TIP3    H223487   4.325   4.188   1.552  3.9841 -0.9807  2.5657
  618TIP3   OH223488   3.162   6.699   7.431 -0.1237 -0.2287  0.4114
  618TIP3    H123489   3.079   6.746   7.432  0.0531  0.1071 -0.1255
  618TIP3    H223490   3.219   6.753   7.376  0.1413 -0.9664 -0.0550
  619TIP3   OH223491   3.282   5.039   1.289 -0.2098  0.8933  0.1702
  619TIP3    H123492   3.234   5.031   1.372  1.2671  0.0589  1.0020
  619TIP3    H223493   3.331   5.121   1.299  1.0801  0.0953  0.7978
  620TIP3   OH223494   0.420   5.274   0.100 -0.0508 -0.5926  0.4234
  620TIP3    H123495   0.384   5.350   0.054 -0.1379 -0.8962 -0.0134
  620TIP3    H223496   0.514   5.293   0.106 -0.2060 -0.0109  1.1652
  621TIP3   OH223497   1.596   0.670   7.408 -0.4160  0.3325  0.1909
  621TIP3    H123498   1.533   0.616   7.360 -0.9324  1.3721 -0.3206
  621TIP3    H223499   1.543   0.718   7.472  0.0766  0.0591  0.8228
  622TIP3   OH223500   0.207   4.878   7.157  0.4971 -0.1002 -0.3807
  622TIP3    H123501   0.268   4.824   7.108 -1.2865 -0.4974 -2.3325
  622TIP3    H223502   0.182   4.948   7.096 -0.3681  0.5202  0.6372
  623TIP3   OH223503   2.390   6.287   1.186 -0.1852  0.3598  0.0023
  623TIP3    H123504   2.417   6.221   1.122  0.8361  0.7475  0.0149
  623TIP3    H223505   2.339   6.350   1.136 -0.7530 -0.1843 -0.1081
  624TIP3   OH223506   2.982   0.555   7.097  0.2153  0.1699  0.0788
  624TIP3    H123507   2.920   0.628   7.087  1.1660  0.8862 -0.8460
  624TIP3    H223508   3.068   0.597   7.097  0.6998 -0.7014  2.4747
  625TIP3   OH223509   6.841   3.090   7.293 -0.1639 -0.4003  0.6708
  625TIP3    H123510   6.865   3.004   7.329 -1.7376 -0.7664  0.9087
  625TIP3    H223511   6.914   3.112   7.234  0.9237 -1.2509  1.6371
  626TIP3   OH223512   1.395   0.069   8.520  0.5088  0.3427  0.0959
  626TIP3    H123513   1.326   0.058   8.585  1.1015  0.9165  0.8439
  626TIP3    H223514   1.376   0.153   8.479 -1.6597 -1.3658 -2.7282
  627TIP3   OH223515   1.374   3.528   7.323 -0.6333 -0.1116  0.1813
  627TIP3    H123516   1.331   3.607   7.289 -0.2115  0.1959  0.3613
  627TIP3    H223517   1.393   3.476   7.245 -0.1928  0.3288 -0.0083
  628TIP3   OH223518   2.131   5.384   1.543 -0.1251  0.3241  0.0041
  628TIP3    H123519   2.169   5.309   1.589  0.5193  0.6446  0.0128
  628TIP3    H223520   2.123   5.356   1.452 -0.7657 -0.0759  0.1800
  629TIP3   OH223521   4.067   2.404   8.178 -0.3523  0.0791 -0.3868
  629TIP3    H123522   4.159   2.385   8.160 -0.6810 -1.3967 -0.6373
  629TIP3    H223523   4.018   2.346   8.119 -1.4396 -0.4209  0.9400
  630TIP3   OH223524   5.029   3.197   7.711 -0.3017 -0.1040 -0.1365
  630TIP3    H123525   5.123   3.204   7.700 -0.4454  0.6125 -1.0267
  630TIP3    H223526   5.012   3.103   7.721  0.5596 -0.1827  0.6636
  631TIP3   OH223527   6.315   1.853   7.874  0.4260 -0.1132 -0.3524
  631TIP3    H123528   6.225   1.826   7.893  1.1716 -3.2802 -0.6138
  631TIP3    H223529   6.329   1.929   7.930 -1.6298 -1.0743  1.7028
  632TIP3   OH223530   0.798   5.233   1.452 -0.2797 -0.6650  0.2912
  632TIP3    H123531   0.844   5.257   1.533 -0.9170  0.2192  0.4092
  632TIP3    H223532   0.849   5.161   1.416  0.5136 -0.4921  1.0313
  633TIP3   OH223533   1.230   4.941   7.686  0.1131 -0.2004  0.1298
  633TIP3    H123534   1.295   5.008   7.706  2.0005 -2.2273  1.1068
  633TIP3    H223535   1.272   4.885   7.621 -0.8554 -1.2631  0.3843
  634TIP3   OH223536   6.176   1.920   1.045 -0.0980  0.2125 -0.1716
  634TIP3    H123537   6.217   1.876   0.971  0.4054 -0.9929  0.7876
  634TIP3    H223538   6.197   2.013   1.033  0.5983 -0.0590 -1.1328
  635TIP3   OH223539   2.209   2.774   8.466 -0.2588  0.2981  0.1978
  635TIP3    H123540   2.201   2.756   8.373  0.2933  1.4838 -0.0947
  635TIP3    H223541   2.121   2.802   8.493 -0.2511  0.6187 -0.1138
  636TIP3   OH223542   5.080   1.288   7.932  0.0525  0.7324  0.0977
  636TIP3    H123543   5.084   1.238   8.014 -0.4453  1.8171  0.8142
  636TIP3    H223544   5.128   1.369   7.952  0.8189  0.5718 -1.0212
  637TIP3   OH223545   4.841   5.932   0.117  0.5565 -0.0030 -0.1202
  637TIP3    H123546   4.860   5.920   0.024  1.4290  2.2563 -0.2855
  637TIP3    H223547   4.751   5.964   0.119  0.4813 -0.2086 -0.1598
  638TIP3   OH223548   2.349   2.545   0.086  0.2257  0.0222  0.3603
  638TIP3    H123549   2.265   2.511   0.115 -1.6452  1.4206 -2.8790
  638TIP3    H223550   2.400   2.467   0.064 -1.2399 -0.8415 -0.1332
  639TIP3   OH223551   0.193   0.227   1.453 -0.2658 -1.0917  0.3684
  639TIP3    H123552   0.130   0.192   1.390 -2.0527  5.8907 -2.5694
  639TIP3    H223553   0.139   0.250   1.529  0.1029 -1.0757  0.6245
  640TIP3   OH223554   5.421   1.281   2.329 -0.2476  0.4804 -0.0086
  640TIP3    H123555   5.426   1.361   2.277 -0.4622 -0.8266 -2.1417
  640TIP3    H223556   5.433   1.210   2.266 -0.0654 -1.1925  1.8106
  641TIP3   OH223557   0.961   1.206   1.127  0.0789 -0.5640  0.2026
  641TIP3    H123558   0.887   1.266   1.130 -0.8568 -1.6962  0.2932
  641TIP3    H223559   1.035   1.256   1.161 -0.5207  0.7482 -0.3811
  642TIP3   OH223560   4.563   4.425   1.123  0.1594  0.1144 -0.2363
  642TIP3    H123561   4.537   4.354   1.183  3.5845 -0.6649  0.4957
  642TIP3    H223562   4.532   4.395   1.037  0.4496 -1.7038  0.2398
  643TIP3   OH223563   2.184   0.847   1.080 -0.3668 -0.2835  0.3762
  643TIP3    H123564   2.231   0.859   0.998 -1.6952  1.0585 -0.2468
  643TIP3    H223565   2.129   0.769   1.065  0.5894 -1.0147  0.6049
  644TIP3   OH223566   4.658   6.706   6.892 -0.5520 -0.6689 -0.1763
  644TIP3    H123567   4.719   6.771   6.855 -2.5017  1.2030 -0.2961
  644TIP3    H223568   4.712   6.628   6.904  1.8302  0.8030 -0.4408
  645TIP3   OH223569   0.988   5.911   7.991  0.2643 -0.2421 -0.0554
  645TIP3    H123570   0.902   5.888   7.957 -0.2335 -3.3308  2.6781
  645TIP3    H223571   1.049   5.867   7.932 -0.2510 -0.8541 -0.1490
  646TIP3   OH223572   2.067   0.050   6.927  0.0793 -0.2178  0.2430
  646TIP3    H123573   2.146   0.003   6.900  0.9788  1.6895 -0.6640
  646TIP3    H223574   2.020   0.067   6.846 -1.2845 -1.2680  0.7682
  647TIP3   OH223575   0.755   0.078   8.327  0.2122 -0.0680  0.2073
  647TIP3    H123576   0.709   0.162   8.336 -1.4314 -0.8979  0.0281
  647TIP3    H223577   0.754   0.041   8.415  0.2669 -0.2299  0.1396
  648TIP3   OH223578   5.464   4.233   0.947 -0.2515  0.1386  0.4188
  648TIP3    H123579   5.395   4.171   0.968  0.2783 -2.5233 -4.2324
  648TIP3    H223580   5.545   4.186   0.967  0.2576  1.5968  1.9682
  649TIP3   OH223581   6.082   5.347   7.146 -0.2106 -0.3516 -0.6835
  649TIP3    H123582   6.013   5.291   7.180 -0.9538  1.3160  0.7036
  649TIP3    H223583   6.099   5.314   7.058 -0.7247 -2.6065  0.0004
  650TIP3   OH223584   1.223   5.177   8.040 -0.5167  0.1155  0.6522
  650TIP3    H123585   1.131   5.181   8.068 -0.2007 -0.5345  1.8567
  650TIP3    H223586   1.260   5.261   8.065 -0.9169  0.6181 -0.3901
  651TIP3   OH223587   6.449   6.071   2.094 -0.0305  0.1298 -0.6710
  651TIP3    H123588   6.462   5.978   2.114 -1.2537  0.0924  0.0838
  651TIP3    H223589   6.497   6.085   2.013  1.3970 -0.8078 -0.0202
  652TIP3   OH223590   1.364   5.148   7.801 -0.0713  0.0826  0.1155
  652TIP3    H123591   1.311   5.161   7.880  0.1280  1.3256  0.0627
  652TIP3    H223592   1.450   5.122   7.834  0.0359  0.6783  0.3127
  653TIP3   OH223593   5.296   0.285   0.371 -0.1843 -0.9888 -0.2190
  653TIP3    H123594   5.267   0.297   0.461  1.3283 -0.4329  0.2289
  653TIP3    H223595   5.237   0.219   0.335 -2.8144  0.9905  0.1726
  654TIP3   OH223596   2.436   6.330   2.094  0.1097 -0.0206 -0.3614
  654TIP3    H123597   2.489   6.366   2.165  0.4940 -1.4383  0.0969
  654TIP3    H223598   2.471   6.371   2.015  0.7654  0.3364  0.1030
  655TIP3   OH223599   3.036   5.887   0.782 -0.1274  0.5536 -0.4127
  655TIP3    H123600   3.004   5.926   0.863 -0.0623 -1.0361  0.4029
  655TIP3    H223601   3.124   5.923   0.771 -0.4212  1.3533 -0.1920
  656TIP3   OH223602   3.921   2.727   1.261 -0.0257 -0.0844  0.3001
  656TIP3    H123603   3.941   2.658   1.324 -2.7643 -1.3978 -0.1048
  656TIP3    H223604   3.945   2.690   1.176 -1.4356 -0.5769  0.0888
  657TIP3   OH223605   3.022   5.844   8.770  0.1659  0.1560  0.3688
  657TIP3    H123606   3.075   5.923   8.773 -1.2103  1.0722  2.0058
  657TIP3    H223607   2.981   5.846   8.683 -0.7142  1.8408  0.7959
  658TIP3   OH223608   1.636   1.416   8.432 -0.1144  0.4441  0.3870
  658TIP3    H123609   1.620   1.440   8.523 -1.0739  0.9689  0.0943
  658TIP3    H223610   1.661   1.498   8.390 -0.3119  0.3326  0.0490
  659TIP3   OH223611   4.276   6.121   8.216  0.2308 -0.2611 -0.1315
  659TIP3    H123612   4.274   6.114   8.311  1.3518 -0.4731 -0.1097
  659TIP3    H223613   4.188   6.095   8.187 -0.0355 -0.4317  0.8230
  660TIP3   OH223614   5.593   0.824   6.584  0.1896 -0.4472 -0.0761
  660TIP3    H123615   5.610   0.750   6.525 -0.4023 -0.8816  0.2888
  660TIP3    H223616   5.539   0.883   6.532  0.7772 -0.1981 -0.4158
  661TIP3   OH223617   3.888   2.240   1.070  0.2576 -0.0436  0.7573
  661TIP3    H123618   3.835   2.163   1.092 -0.1289  0.6113  2.2576
  661TIP3    H223619   3.928   2.265   1.152  0.1617  1.5228  0.3536
  662TIP3   OH223620   1.808   1.123   8.781 -0.1573 -0.1380  0.4470
  662TIP3    H123621   1.880   1.121   8.718  0.7738  0.3249  1.4664
  662TIP3    H223622   1.821   1.045   8.835 -1.0977 -0.6726 -0.0734
  663TIP3   OH223623   1.901   5.071   0.748  1.2854 -0.6962 -0.5012
  663TIP3    H123624   1.875   5.007   0.814  0.8601 -1.8024 -1.7112
  663TIP3    H223625   1.822   5.088   0.698  1.1017  1.6296  0.4318
  664TIP3   OH223626   4.025   2.126   8.297 -0.5951  0.5072  0.0676
  664TIP3    H123627   4.031   2.210   8.343  0.6647  0.1040  0.7080
  664TIP3    H223628   4.085   2.069   8.345 -2.6983 -1.2734  0.6968
  665TIP3   OH223629   2.561   1.241   6.794 -0.4871  0.1164  0.0825
  665TIP3    H123630   2.600   1.156   6.771 -0.5256  0.2897 -0.6456
  665TIP3    H223631   2.471   1.221   6.818 -0.1213 -0.2167  1.2389
  666TIP3   OH223632   5.822   3.492   7.154  0.3597  0.1510 -0.1089
  666TIP3    H123633   5.881   3.468   7.226  1.1824  0.2811 -0.7319
  666TIP3    H223634   5.844   3.583   7.134 -1.3549  0.8396  0.8888
  667TIP3   OH223635   4.119   4.248   7.303 -0.9898 -0.0616  0.3230
  667TIP3    H123636   4.121   4.189   7.379  0.3163 -0.3600  0.0917
  667TIP3    H223637   4.124   4.190   7.227  0.0226  0.3170  0.0826
  668TIP3   OH223638   3.044   5.209   1.112 -0.0375  0.0917  0.1811
  668TIP3    H123639   2.996   5.168   1.184 -0.6552 -0.1781 -0.3642
  668TIP3    H223640   3.099   5.275   1.154  0.4158 -0.7718  1.0057
  669TIP3   OH223641   6.819   4.788   2.203  0.6711 -0.1406  0.2185
  669TIP3    H123642   6.828   4.783   2.108 -1.8596 -2.4922 -0.0317
  669TIP3    H223643   6.730   4.820   2.217  0.5796 -0.9619  1.7346
  670TIP3   OH223644   6.272   3.597   6.674  0.5315  0.0063 -0.3301
  670TIP3    H123645   6.217   3.638   6.740  0.9912 -0.7378  0.5323
  670TIP3    H223646   6.210   3.564   6.609  0.0424  0.2784 -0.0062
  671TIP3   OH223647   0.901   1.081   1.667  0.0235  0.5016  0.0815
  671TIP3    H123648   0.930   1.131   1.591  0.1714  0.0033 -0.1950
  671TIP3    H223649   0.805   1.085   1.664 -0.0410 -0.9561 -1.1367
  672TIP3   OH223650   0.966   5.872   6.960  0.0782 -0.3104  0.6011
  672TIP3    H123651   0.998   5.783   6.973 -0.2716 -0.4131  0.7777
  672TIP3    H223652   0.876   5.861   6.929  0.0947 -0.0223  0.4497
  673TIP3   OH223653   1.568   5.991   7.641  0.3171  0.0904  0.0256
  673TIP3    H123654   1.521   5.915   7.606  0.9782  0.1617 -1.0594
  673TIP3    H223655   1.565   6.056   7.571 -0.8099  1.3537  1.1783
  674TIP3   OH223656   3.137   3.963   7.376  0.2004 -0.3065 -0.4803
  674TIP3    H123657   3.144   4.010   7.293 -0.9754 -2.0271 -1.6287
  674TIP3    H223658   3.204   3.896   7.372 -1.3789 -1.9305 -1.1779
  675TIP3   OH223659   2.816   1.270   1.366 -0.0764 -0.2879  0.0075
  675TIP3    H123660   2.850   1.236   1.283 -2.8461  0.6839 -1.6467
  675TIP3    H223661   2.850   1.209   1.432  3.4150 -0.2781 -1.5547
  676TIP3   OH223662   2.958   1.077   8.771 -0.4566  0.0511  0.6841
  676TIP3    H123663   2.930   1.101   8.860  0.2541  1.6974  0.4949
  676TIP3    H223664   3.032   1.018   8.785 -0.4337  0.1878  1.1866
  677TIP3   OH223665   3.018   2.462   0.134 -0.1314  0.8301 -0.2306
  677TIP3    H123666   3.019   2.481   0.040 -0.1773 -0.0144 -0.4120
  677TIP3    H223667   2.924   2.459   0.156 -0.1499 -0.1061 -0.4072
  678TIP3   OH223668   4.114   0.175   0.461  0.0464 -0.0065  0.6494
  678TIP3    H123669   4.062   0.166   0.541 -1.1751  0.4304 -0.0813
  678TIP3    H223670   4.087   0.258   0.424 -0.3221 -0.7630 -0.8603
  679TIP3   OH223671   6.065   1.049   7.843 -0.3661  0.4183  0.0366
  679TIP3    H123672   6.004   0.983   7.878 -0.3839 -1.5360 -3.2687
  679TIP3    H223673   6.151   1.010   7.853  0.0426  1.5535  1.2928
  680TIP3   OH223674   2.498   0.632   1.537  0.0587 -0.2172  0.2801
  680TIP3    H123675   2.514   0.580   1.458  0.0210 -0.7884  0.6429
  680TIP3    H223676   2.410   0.604   1.566 -1.0001  1.7526 -0.8285
  681TIP3   OH223677   3.662   3.906   8.087 -0.3558 -0.1746  0.3172
  681TIP3    H123678   3.719   3.829   8.083  0.7156  0.5968  0.0461
  681TIP3    H223679   3.655   3.936   7.996 -1.4890 -0.4471  0.2997
  682TIP3   OH223680   0.320   3.928   8.709 -0.3774  0.0508 -0.0542
  682TIP3    H123681   0.388   3.866   8.737  0.4990  0.9353 -0.1789
  682TIP3    H223682   0.300   3.978   8.788 -1.1819 -0.4659  0.0791
  683TIP3   OH223683   6.534   0.422   8.238  0.9296  0.2441 -1.2747
  683TIP3    H123684   6.449   0.426   8.282  1.1841  0.5691 -0.7924
  683TIP3    H223685   6.517   0.458   8.151  0.6708  0.7897 -1.0096
  684TIP3   OH223686   5.889   5.508   0.912 -0.6798  0.3999 -0.0273
  684TIP3    H123687   5.884   5.493   1.007 -0.7726 -1.1348 -0.2554
  684TIP3    H223688   5.798   5.507   0.883 -0.6912  1.5397 -0.0469
  685TIP3   OH223689   3.071   0.497   1.383  0.3702  0.5770  0.8201
  685TIP3    H123690   2.998   0.435   1.389 -1.1144  2.2476  0.6948
  685TIP3    H223691   3.121   0.466   1.307  0.0632 -0.8587  1.1740
  686TIP3   OH223692   1.111   5.307   2.498 -0.3059 -0.9666 -0.5864
  686TIP3    H123693   1.155   5.254   2.565 -0.2982  0.1631  0.3484
  686TIP3    H223694   1.085   5.245   2.431  1.0862 -1.9289 -0.2826
  687TIP3   OH223695   3.874   0.392   0.968  0.2309  0.3149 -0.3161
  687TIP3    H123696   3.940   0.443   1.016 -0.8370  1.5736 -0.1397
  687TIP3    H223697   3.803   0.380   1.031 -0.0862 -0.2470 -0.7816
  688TIP3   OH223698   4.723   0.190   2.380 -0.0888 -0.2119  0.0200
  688TIP3    H123699   4.742   0.234   2.297  0.2936  1.2174  0.8356
  688TIP3    H223700   4.631   0.208   2.396 -0.8296 -2.4952 -1.2136
  689TIP3   OH223701   2.055   0.690   7.897  0.9726 -0.9824 -0.3071
  689TIP3    H123702   1.985   0.740   7.855  2.1282 -1.6746 -3.3023
  689TIP3    H223703   2.027   0.599   7.890  0.8183 -1.0874  1.2883
  690TIP3   OH223704   2.961   1.658   7.698 -0.3860 -0.7067  0.2822
  690TIP3    H123705   2.907   1.621   7.768 -0.0054 -0.4657  0.7077
  690TIP3    H223706   2.992   1.741   7.733 -1.7780  0.3523 -0.9218
  691TIP3   OH223707   5.586   0.872   2.301  0.8021 -0.0857  0.2875
  691TIP3    H123708   5.651   0.842   2.237  0.0717  0.7763 -0.9089
  691TIP3    H223709   5.502   0.848   2.262  0.3335 -2.4038  2.4217
  692TIP3   OH223710   0.327   1.130   1.147 -0.1654  0.3519  0.0692
  692TIP3    H123711   0.300   1.171   1.065  0.2214 -1.6762 -1.1616
  692TIP3    H223712   0.244   1.104   1.188 -0.3249  0.1348 -0.3809
  693TIP3   OH223713   2.108   4.350   8.667 -0.1599 -0.0152  0.2141
  693TIP3    H123714   2.093   4.286   8.598  0.3073 -0.4352  0.4991
  693TIP3    H223715   2.172   4.411   8.630 -0.2813  0.0482  0.1035
  694TIP3   OH223716   3.666   6.283   6.496 -0.1673  0.4685  0.5108
  694TIP3    H123717   3.622   6.364   6.523 -0.5211  0.5842 -0.3938
  694TIP3    H223718   3.740   6.275   6.557 -0.2180  1.3858  0.7099
  695TIP3   OH223719   6.191   3.800   2.062  0.6032 -0.6093 -0.6996
  695TIP3    H123720   6.123   3.742   2.095 -0.2946  0.5040 -0.5555
  695TIP3    H223721   6.157   3.834   1.980  0.7778  0.3038 -0.4063
  696TIP3   OH223722   3.290   4.269   5.940  0.0377  0.0177 -0.1725
  696TIP3    H123723   3.384   4.285   5.949  0.0694 -0.9562  2.0007
  696TIP3    H223724   3.283   4.175   5.927 -0.6160  0.2188 -1.3783
  697TIP3   OH223725   5.145   1.172   0.167 -0.2370  0.5336 -0.3875
  697TIP3    H123726   5.186   1.242   0.218 -0.1958  1.2903 -1.4451
  697TIP3    H223727   5.099   1.119   0.232  0.4476  1.0347  0.5280
  698TIP3   OH223728   3.660   2.307   1.994  0.2810  0.0823 -0.0135
  698TIP3    H123729   3.743   2.288   1.950 -0.4859 -0.8148 -1.1352
  698TIP3    H223730   3.616   2.368   1.936 -0.4070 -0.4904 -0.1002
  699TIP3   OH223731   4.800   4.923   0.372  0.2999 -0.1297 -0.6196
  699TIP3    H123732   4.781   4.837   0.332 -0.9613 -0.4640  0.6236
  699TIP3    H223733   4.886   4.912   0.412  0.1239 -0.8511 -0.4145
  700TIP3   OH223734   1.493   2.792   7.069  0.2050  0.4118  0.6705
  700TIP3    H123735   1.480   2.699   7.050  1.8650  0.6569 -2.3674
  700TIP3    H223736   1.405   2.827   7.076 -0.5151 -1.0482 -0.4318
  701TIP3   OH223737   1.807   4.665   0.839 -0.6087  0.2756  0.0799
  701TIP3    H123738   1.737   4.669   0.773  0.2901  3.3527 -0.8398
  701TIP3    H223739   1.872   4.606   0.801 -1.7008 -0.9319 -0.0144
  702TIP3   OH223740   1.998   6.378   8.274 -0.0188  0.3126 -0.7161
  702TIP3    H123741   1.929   6.443   8.268  0.3780  0.6466 -1.9479
  702TIP3    H223742   1.980   6.331   8.355 -0.9362  1.2383 -0.3668
  703TIP3   OH223743   1.703   2.542   0.953  0.2628  0.7948 -0.1023
  703TIP3    H123744   1.661   2.628   0.944 -0.0358  0.6640  0.0533
  703TIP3    H223745   1.765   2.553   1.025  0.2519  0.8891 -0.1067
  704TIP3   OH223746   2.908   0.759   7.807 -0.1286 -0.0831 -0.4784
  704TIP3    H123747   2.998   0.746   7.836 -1.1518 -1.5282  2.5898
  704TIP3    H223748   2.882   0.675   7.770 -0.4330  0.0643 -0.6067
  705TIP3   OH223749   6.481   0.298   1.261  0.4680  0.2174 -0.3734
  705TIP3    H123750   6.463   0.329   1.173 -0.3411 -1.1380 -0.7202
  705TIP3    H223751   6.573   0.321   1.277  0.1470  2.0096 -0.8795
  706TIP3   OH223752   5.215   5.198   7.268 -0.3865  0.4988  0.2305
  706TIP3    H123753   5.152   5.270   7.254 -0.8757  0.2313  0.9614
  706TIP3    H223754   5.162   5.119   7.261  0.2001  0.1868 -0.8225
  707TIP3   OH223755   2.153   6.176   2.361  0.0907  0.2947  0.0366
  707TIP3    H123756   2.122   6.165   2.272  1.8638  1.7869 -0.8306
  707TIP3    H223757   2.247   6.192   2.352  0.5700 -0.7781  2.2727
  708TIP3   OH223758   3.979   4.446   7.385  0.1272  0.3748  0.3987
  708TIP3    H123759   4.018   4.373   7.336 -1.9591  0.2863 -1.2588
  708TIP3    H223760   3.894   4.413   7.414  1.1079  0.5523  3.9780
  709TIP3   OH223761   6.028   2.192   1.250  0.4896 -0.4038  0.0494
  709TIP3    H123762   5.939   2.223   1.267  0.3344 -1.1832  0.7067
  709TIP3    H223763   6.070   2.264   1.203 -0.1475  0.4022  0.6950
  710TIP3   OH223764   6.787   4.998   8.295 -0.0365  0.7840 -0.3798
  710TIP3    H123765   6.729   5.060   8.339  0.7592  0.8617  0.6129
  710TIP3    H223766   6.856   4.982   8.359  1.2851  1.0495 -1.6899
  711TIP3   OH223767   2.993   2.336   6.594 -0.1142 -0.6902 -0.4346
  711TIP3    H123768   3.078   2.319   6.635 -0.3431  0.7633  0.7115
  711TIP3    H223769   3.014   2.367   6.506  0.6078  0.4538  0.1200
  712TIP3   OH223770   4.956   0.758   0.677  0.1258  0.3940 -0.5179
  712TIP3    H123771   4.870   0.746   0.636 -0.6474 -1.7238  1.4950
  712TIP3    H223772   4.937   0.798   0.762  0.8481 -1.6909  0.7008
  713TIP3   OH223773   1.071   1.690   0.781  0.2798 -0.0899  0.3178
  713TIP3    H123774   1.080   1.779   0.746  0.7731 -0.6707 -1.0730
  713TIP3    H223775   1.157   1.669   0.817  0.2451 -0.1142  0.3874
  714TIP3   OH223776   0.748   3.316   8.283  0.0200  0.2588  0.1124
  714TIP3    H123777   0.672   3.258   8.286  0.5594 -0.5122 -0.5181
  714TIP3    H223778   0.797   3.288   8.205  0.9585  0.7146  0.5145
  715TIP3   OH223779   2.367   2.477   1.376  0.4884  0.7351 -0.1964
  715TIP3    H123780   2.367   2.546   1.442  0.5709  0.3578  0.1981
  715TIP3    H223781   2.437   2.417   1.402  1.3927  1.2434 -1.3295
  716TIP3   OH223782   4.057   5.787   1.384 -0.3748 -0.3418  0.1113
  716TIP3    H123783   4.052   5.865   1.440 -0.9843  0.2222 -0.7024
  716TIP3    H223784   4.146   5.753   1.398  0.9836  2.1416 -1.6008
  717TIP3   OH223785   4.527   4.388   0.752 -0.4796 -0.6572  0.0187
  717TIP3    H123786   4.444   4.419   0.717 -0.6569 -0.3071  0.7252
  717TIP3    H223787   4.523   4.293   0.744 -0.1965 -0.5628 -1.5896
  718TIP3   OH223788   2.677   4.269   1.384 -0.2803  0.0155  0.2757
  718TIP3    H123789   2.587   4.244   1.403 -0.4521  0.4876  0.1006
  718TIP3    H223790   2.683   4.267   1.289  0.6614 -2.6328  0.3161
  719TIP3   OH223791   5.896   5.044   2.090  0.3029 -0.3560  0.2893
  719TIP3    H123792   5.902   5.105   2.163  1.3957 -0.8512  0.6415
  719TIP3    H223793   5.987   5.022   2.069 -0.0349 -1.2213 -0.3607
  720TIP3   OH223794   5.215   1.884   6.723 -0.4922 -0.0017  0.4567
  720TIP3    H123795   5.293   1.925   6.685 -0.7049  0.6733  0.7226
  720TIP3    H223796   5.186   1.822   6.657  0.3970 -0.4264  0.4470
  721TIP3   OH223797   6.362   0.520   0.214  0.2154 -0.4333  0.2538
  721TIP3    H123798   6.307   0.568   0.152  0.4574  1.4310  1.3931
  721TIP3    H223799   6.377   0.435   0.173 -1.0147  0.1218 -1.4408
  722TIP3   OH223800   0.837   2.085   1.060  0.2636 -0.2184  0.4215
  722TIP3    H123801   0.809   2.176   1.068  0.8034  0.0645 -0.6603
  722TIP3    H223802   0.758   2.034   1.078 -1.0772  0.5552 -2.5538
  723TIP3   OH223803   6.452   4.386   6.177 -0.3628 -0.1778  0.4204
  723TIP3    H123804   6.477   4.314   6.235 -1.3772 -1.2866 -0.4665
  723TIP3    H223805   6.358   4.375   6.164 -0.7268  1.8823  0.9961
  724TIP3   OH223806   3.522   3.291   7.588  0.1211 -0.3402 -0.0052
  724TIP3    H123807   3.489   3.376   7.616  0.2005 -0.9039  1.9097
  724TIP3    H223808   3.502   3.232   7.660  1.9223 -1.5076 -0.3890
  725TIP3   OH223809   6.175   2.546   0.015 -0.1876 -0.6571 -0.0912
  725TIP3    H123810   6.122   2.600  -0.043 -0.5451  0.1434  0.9594
  725TIP3    H223811   6.117   2.523   0.087  0.8348  0.1644  1.0334
  726TIP3   OH223812   2.345   0.716   7.899 -0.0007  0.6449 -0.6920
  726TIP3    H123813   2.251   0.713   7.914 -0.2771  4.2115 -1.0041
  726TIP3    H223814   2.359   0.657   7.824 -1.6028 -1.3965  0.5092
  727TIP3   OH223815   4.016   3.509   8.685  0.0838 -0.4979 -0.1869
  727TIP3    H123816   4.069   3.586   8.707  0.9100 -1.3904  1.0743
  727TIP3    H223817   3.940   3.545   8.639  1.3806  0.8902 -1.3424
  728TIP3   OH223818   0.928   2.192   0.142  0.6836 -0.3003 -0.0632
  728TIP3    H123819   1.016   2.162   0.119  1.9055  0.6830  2.7919
  728TIP3    H223820   0.893   2.123   0.200  1.2706  1.0437  2.0127
  729TIP3   OH223821   4.881   6.539   6.144 -0.0549  0.3954  0.5626
  729TIP3    H123822   4.906   6.447   6.159 -2.0953 -0.2270  0.3400
  729TIP3    H223823   4.880   6.548   6.049 -0.2736  0.5458  0.5813
  730TIP3   OH223824   5.230   2.681   1.647  0.4830  0.0368  0.3284
  730TIP3    H123825   5.134   2.689   1.648  0.4891  1.0053 -1.3929
  730TIP3    H223826   5.258   2.713   1.732 -0.6646  1.4496  0.2144
  731TIP3   OH223827   2.734   3.209   0.764 -0.1932 -0.0369 -0.0784
  731TIP3    H123828   2.672   3.281   0.750 -0.8643 -0.5073  0.3977
  731TIP3    H223829   2.790   3.239   0.836  0.1987  0.4298 -0.5724
  732TIP3   OH223830   0.310   3.369   7.788 -0.1146 -0.0460  0.4159
  732TIP3    H123831   0.372   3.353   7.860  0.8789  0.9000 -0.2124
  732TIP3    H223832   0.235   3.313   7.809  0.1254  0.2477  2.2192
  733TIP3   OH223833   1.633   2.047   0.736  0.0033  0.4819 -0.3637
  733TIP3    H123834   1.613   2.139   0.751  0.5553  0.2559  2.3462
  733TIP3    H223835   1.655   2.042   0.643 -0.8904  2.8965 -0.7745
  734TIP3   OH223836   5.728   5.836   1.715  0.0542 -0.8847 -0.5195
  734TIP3    H123837   5.687   5.885   1.786 -1.6119 -1.2816 -1.1636
  734TIP3    H223838   5.698   5.880   1.636  0.3744 -1.5675 -1.0260
  735TIP3   OH223839   1.262   5.635   0.566 -0.7108 -0.5242  0.1342
  735TIP3    H123840   1.210   5.555   0.561 -1.1867 -0.2036 -0.1167
  735TIP3    H223841   1.333   5.614   0.626  1.9288 -2.7393 -3.3583
  736TIP3   OH223842   1.445   3.968   8.241 -0.1719 -0.4246  0.0483
  736TIP3    H123843   1.477   4.021   8.313 -1.0407 -0.5788  0.5634
  736TIP3    H223844   1.517   3.907   8.222 -0.6228 -1.7032  2.1098
  737TIP3   OH223845   1.249   6.848   1.063 -0.8425  0.5506 -0.1772
  737TIP3    H123846   1.279   6.771   1.111 -1.4522 -1.1774 -2.3858
  737TIP3    H223847   1.170   6.819   1.017 -2.1061  3.0367  0.2660
  738TIP3   OH223848   5.196   0.828   8.408 -0.1302  0.3594 -1.3055
  738TIP3    H123849   5.268   0.890   8.396 -1.1599  1.5464 -1.5359
  738TIP3    H223850   5.213   0.760   8.343  2.9201 -1.5462  1.1832
  739TIP3   OH223851   0.218   4.307   0.970  0.9702  0.0624  0.0365
  739TIP3    H123852   0.190   4.363   1.042  1.3287  0.7636 -0.3638
  739TIP3    H223853   0.229   4.366   0.896  1.3214 -0.5401 -0.4016
  740TIP3   OH223854   4.849   0.015   6.874  0.0752  0.3712  0.3239
  740TIP3    H123855   4.917   0.027   6.808  0.7758 -0.4664  0.8705
  740TIP3    H223856   4.842   0.099   6.918  0.9017  0.4121  0.3895
  741TIP3   OH223857   2.620   5.370   1.044 -0.3150 -0.6199 -0.1510
  741TIP3    H123858   2.539   5.357   1.093  0.5948 -0.6198  1.4396
  741TIP3    H223859   2.670   5.290   1.060 -0.0436 -0.6728 -1.2140
  742TIP3   OH223860   6.285   3.707   2.453  0.1590  0.1272 -0.7607
  742TIP3    H123861   6.269   3.652   2.377  0.0225  1.7857 -1.9820
  742TIP3    H223862   6.370   3.679   2.486 -0.3667 -1.5100 -0.6898
  743TIP3   OH223863   0.068   5.937   0.913  0.5064 -0.5030 -0.0530
  743TIP3    H123864   0.027   6.006   0.862  0.7755 -0.8954 -0.8059
  743TIP3    H223865  -0.003   5.875   0.932  0.0625  0.3811  1.3730
  744TIP3   OH223866   1.919   2.796   8.255 -0.3933 -0.6642 -0.0011
  744TIP3    H123867   1.858   2.841   8.313  0.8439 -0.4193  1.1362
  744TIP3    H223868   1.915   2.704   8.282 -0.6777 -0.7474 -0.3154
  745TIP3   OH223869   1.709   0.533   7.818  0.1214 -0.3834  0.1576
  745TIP3    H123870   1.731   0.622   7.790 -0.0699 -0.2384  0.4585
  745TIP3    H223871   1.654   0.545   7.896  0.8059 -0.7695  0.7186
  746TIP3   OH223872   4.583   6.642   7.879  0.1476  0.3296 -0.2985
  746TIP3    H123873   4.525   6.641   7.803  0.7814  0.0003 -0.7924
  746TIP3    H223874   4.536   6.693   7.944 -0.6991  0.0602 -0.6797
  747TIP3   OH223875   2.981   4.787   0.186 -0.1442 -0.0580 -0.2201
  747TIP3    H123876   2.975   4.842   0.108 -0.7973  0.8522  0.4456
  747TIP3    H223877   3.012   4.846   0.254 -0.3662 -0.6376  0.3917
  748TIP3   OH223878   0.914   6.505   1.035 -0.2249  0.2764 -0.0014
  748TIP3    H123879   0.940   6.572   1.098  0.5485 -0.2748  0.2768
  748TIP3    H223880   0.995   6.485   0.987 -0.3283 -0.8169  0.2637
  749TIP3   OH223881   4.399   3.074   7.365  0.0126 -0.1937 -0.0178
  749TIP3    H123882   4.363   3.084   7.453  0.4615 -1.8427  0.3861
  749TIP3    H223883   4.409   3.164   7.333 -2.3924  0.3948  0.6570
  750TIP3   OH223884   0.703   1.215   2.019  0.2548 -0.1502 -0.0994
  750TIP3    H123885   0.612   1.239   2.000 -0.3345 -0.9822  1.4670
  750TIP3    H223886   0.715   1.239   2.111  1.1661 -1.3295  0.1113
  751TIP3   OH223887   4.682   6.324   0.256  0.1411  0.2090 -0.0720
  751TIP3    H123888   4.725   6.325   0.341  0.9540  1.0477 -0.4777
  751TIP3    H223889   4.743   6.368   0.197 -0.1070 -0.9469 -1.2502
  752TIP3   OH223890   1.218   3.785   8.228 -0.0611  0.2197 -0.7121
  752TIP3    H123891   1.253   3.712   8.279 -0.7164  0.2771 -0.1518
  752TIP3    H223892   1.295   3.833   8.199  0.3740 -0.6267 -0.9908
  753TIP3   OH223893   3.869   3.660   7.422  0.5994 -0.2276  0.5784
  753TIP3    H123894   3.840   3.663   7.331 -0.7852  1.2979  1.0158
  753TIP3    H223895   3.881   3.567   7.441  2.2999 -0.5137 -1.5341
  754TIP3   OH223896   2.466   0.379   1.121 -0.3827 -0.4247 -0.4412
  754TIP3    H123897   2.392   0.357   1.064  0.0230  0.5792 -1.3844
  754TIP3    H223898   2.529   0.420   1.062 -0.2762  1.3915  0.8793
  755TIP3   OH223899   0.108   2.356   8.179 -0.0672 -0.4348  0.1046
  755TIP3    H123900   0.032   2.393   8.224  0.3086 -1.6757  1.8765
  755TIP3    H223901   0.071   2.310   8.104 -0.7947  0.9846 -0.4575
  756TIP3   OH223902   5.507   6.255   7.039 -1.0820  0.1103  0.3173
  756TIP3    H123903   5.529   6.212   6.956  0.5316 -0.0322  0.7915
  756TIP3    H223904   5.505   6.184   7.103  0.6991  0.5724  0.9370
  757TIP3   OH223905   3.788   4.685   8.672  0.8720  0.3567 -0.1892
  757TIP3    H123906   3.850   4.680   8.745  1.9438 -2.4581 -1.1641
  757TIP3    H223907   3.805   4.771   8.632  1.0057  1.4979  2.1369
  758TIP3   OH223908   6.352   1.640   8.298  0.1132 -0.5355 -0.2245
  758TIP3    H123909   6.365   1.732   8.277 -0.9053 -0.3705 -0.1539
  758TIP3    H223910   6.383   1.632   8.389  1.4912 -0.5702 -0.6790
  759TIP3   OH223911   0.313   4.491   8.719 -0.0448  0.5768 -0.4652
  759TIP3    H123912   0.310   4.543   8.799  0.5193 -1.3208  0.8482
  759TIP3    H223913   0.403   4.458   8.714 -0.1155  0.5225 -1.7937
  760TIP3   OH223914   6.450   4.747   7.273  0.2607 -0.2667  0.0112
  760TIP3    H123915   6.507   4.679   7.308  1.0950 -0.2234 -1.1910
  760TIP3    H223916   6.509   4.818   7.248 -0.4252  0.2133 -0.2997
  761TIP3   OH223917   2.259   5.721   6.494 -0.0612  0.3302 -0.3534
  761TIP3    H123918   2.222   5.725   6.582 -0.9899 -0.3060 -0.6995
  761TIP3    H223919   2.200   5.664   6.446 -1.0926  2.7342 -2.1132
  762TIP3   OH223920   2.322   4.686   7.775 -0.5190  0.4364  0.8605
  762TIP3    H123921   2.298   4.774   7.743  0.4466  0.7482  0.9459
  762TIP3    H223922   2.406   4.699   7.818 -0.3710 -0.5384  0.8833
  763TIP3   OH223923   1.887   6.411   0.485  0.1035  0.2671 -0.7352
  763TIP3    H123924   1.818   6.470   0.453  0.7828  1.5133  0.0161
  763TIP3    H223925   1.968   6.458   0.469  0.5746  0.2526  1.3136
  764TIP3   OH223926   6.718   1.601   8.419  0.5175  0.1894  0.3961
  764TIP3    H123927   6.739   1.643   8.502  2.0292 -1.1447  0.7309
  764TIP3    H223928   6.800   1.601   8.370 -0.2800  0.7263 -1.0238
  765TIP3   OH223929   6.253   4.853   0.934  0.3298 -0.0891  0.3188
  765TIP3    H123930   6.171   4.819   0.970  0.8941 -0.4962  1.2914
  765TIP3    H223931   6.227   4.914   0.866 -0.7650 -0.7461  0.1288
  766TIP3   OH223932   1.650   0.418   8.375 -1.0081  0.4584 -0.4604
  766TIP3    H123933   1.643   0.513   8.390  0.1924  0.2937  1.6166
  766TIP3    H223934   1.701   0.387   8.450  0.2272 -1.5764 -2.0599
  767TIP3   OH223935   6.733   1.074   0.035 -0.0199 -0.0970 -0.0337
  767TIP3    H123936   6.663   1.072  -0.030  1.6949  0.2185 -1.9909
  767TIP3    H223937   6.779   0.991   0.024  0.0555 -0.2218  1.0914
  768TIP3   OH223938   1.093   1.787   6.969 -0.2166 -0.6340  0.0030
  768TIP3    H123939   1.181   1.785   6.932  0.3170  1.0433  1.0643
  768TIP3    H223940   1.043   1.843   6.910  0.0923  0.3797  0.6823
  769TIP3   OH223941   5.326   2.145   7.981 -0.2460 -0.4793 -0.0077
  769TIP3    H123942   5.309   2.063   7.934  0.8701  0.0735 -1.4393
  769TIP3    H223943   5.376   2.198   7.919  0.6716  0.5673  1.5813
  770TIP3   OH223944   0.804   2.820   0.753  0.2125  0.5128  0.1081
  770TIP3    H123945   0.724   2.772   0.730 -0.2118  2.1401 -2.1183
  770TIP3    H223946   0.861   2.754   0.792 -1.7967 -0.9145  0.8210
  771TIP3   OH223947   6.468   3.457   1.792 -0.0473  0.2323 -0.3279
  771TIP3    H123948   6.464   3.523   1.861 -1.4297 -0.5973  0.4398
  771TIP3    H223949   6.382   3.460   1.750 -0.3021 -1.3500  0.0079
  772TIP3   OH223950   0.493   5.468   2.510  0.2445 -0.1177  0.6221
  772TIP3    H123951   0.505   5.509   2.425  1.7713 -0.4916  0.6231
  772TIP3    H223952   0.489   5.541   2.572  1.5808  0.1099  0.4744
  773TIP3   OH223953   0.888   1.152   8.375 -0.2016 -0.4345  0.2151
  773TIP3    H123954   0.951   1.213   8.336  0.4702 -1.7604 -0.8393
  773TIP3    H223955   0.863   1.094   8.303 -1.3272 -1.0017  1.0406
  774TIP3   OH223956   5.040   0.312   8.283 -0.7878 -0.6281  0.0096
  774TIP3    H123957   5.067   0.337   8.371  0.4827 -1.0152 -0.2353
  774TIP3    H223958   4.946   0.295   8.290 -0.9427  0.5108  1.0009
  775TIP3   OH223959   4.323   1.610   2.199 -0.3185 -0.2182  0.4575
  775TIP3    H123960   4.402   1.606   2.145 -0.4416  1.0769  0.1330
  775TIP3    H223961   4.331   1.693   2.246 -1.2738 -0.2814  0.7478
  776TIP3   OH223962   4.295   0.127   0.655  0.0358  0.0625 -0.4037
  776TIP3    H123963   4.228   0.143   0.588 -0.7700 -0.7996  0.1613
  776TIP3    H223964   4.304   0.032   0.656 -0.5586  0.0056  1.2658
  777TIP3   OH223965   6.538   3.773   2.539 -0.1358  0.4482 -0.4533
  777TIP3    H123966   6.610   3.802   2.596  0.0789  1.5342 -1.2389
  777TIP3    H223967   6.496   3.854   2.511 -1.6116 -0.1756 -0.1022
  778TIP3   OH223968   1.238   2.122   7.897 -0.2036  0.0933  0.6385
  778TIP3    H123969   1.312   2.181   7.913 -0.8481  1.1676 -0.1914
  778TIP3    H223970   1.168   2.156   7.952 -0.2383 -0.6331  1.0587
  779TIP3   OH223971   4.805   0.570   7.323 -0.2026  0.5938 -0.2011
  779TIP3    H123972   4.843   0.482   7.322 -3.4882 -1.0085  0.2604
  779TIP3    H223973   4.796   0.591   7.416  0.1619  1.2255 -0.3062
  780TIP3   OH223974   6.831   6.550   6.941  0.1631 -0.1961 -0.3899
  780TIP3    H123975   6.911   6.600   6.930  0.5666 -0.4824  1.0227
  780TIP3    H223976   6.760   6.613   6.924  0.6590 -0.0419 -2.0296
  781TIP3   OH223977   2.728   0.062   0.735  0.0834 -0.3629 -0.0350
  781TIP3    H123978   2.751   0.072   0.827  0.3202  0.8369 -0.2057
  781TIP3    H223979   2.652   0.118   0.722 -0.7272 -1.5000 -0.2979
  782TIP3   OH223980   4.273   5.099   0.337 -0.1792 -0.6120  0.3015
  782TIP3    H123981   4.227   5.063   0.261  0.4626 -2.0494  0.5615
  782TIP3    H223982   4.351   5.141   0.301 -0.7960  0.3103  0.0180
  783TIP3   OH223983   3.826   6.498   7.573 -0.3269 -0.5634 -0.1676
  783TIP3    H123984   3.791   6.410   7.582 -0.1160 -0.8429 -1.8745
  783TIP3    H223985   3.812   6.521   7.482  0.3797  0.8497  0.0502
  784TIP3   OH223986   2.402   4.149   2.124  0.7733  0.4761 -0.3275
  784TIP3    H123987   2.338   4.166   2.055 -0.4539  0.3303  0.7328
  784TIP3    H223988   2.442   4.235   2.141  0.8916  0.5611 -1.0258
  785TIP3   OH223989   1.625   6.144   0.368 -0.4440 -0.0308 -0.1390
  785TIP3    H123990   1.607   6.131   0.462  2.5521 -0.8401  0.4190
  785TIP3    H223991   1.636   6.238   0.359 -0.4558  0.0301  0.4031
  786TIP3   OH223992   3.043   3.144   0.465  0.2247  0.3604 -0.2205
  786TIP3    H123993   3.103   3.204   0.422 -1.5131  0.5936 -2.4949
  786TIP3    H223994   3.099   3.079   0.507  2.1564  3.1169  1.8286
  787TIP3   OH223995   3.171   6.073   1.752  0.1567  0.8269 -0.2274
  787TIP3    H123996   3.255   6.050   1.712 -1.1456 -3.6024 -1.0238
  787TIP3    H223997   3.184   6.055   1.846  0.4531  1.4119 -0.1563
  788TIP3   OH223998   0.172   3.808   0.266  0.2410 -0.4344  0.0746
  788TIP3    H123999   0.091   3.761   0.246  0.7843 -1.8782  1.0894
  788TIP3    H224000   0.157   3.847   0.352  0.6105 -0.6498  0.2375
  789TIP3   OH224001   4.767   0.398   7.743 -0.0197  0.1999 -0.0929
  789TIP3    H124002   4.855   0.362   7.753 -0.4650 -0.6043  1.3051
  789TIP3    H224003   4.729   0.350   7.670  0.3929 -0.0853 -0.1235
  790TIP3   OH224004   4.973   2.338   2.384 -0.0037  0.8324  0.7828
  790TIP3    H124005   4.961   2.243   2.392  1.7611  0.5723  0.6443
  790TIP3    H224006   4.891   2.375   2.415 -0.7861 -0.7448  0.6961
  791TIP3   OH224007   4.536   4.390   0.242  0.5427 -0.0431 -0.6179
  791TIP3    H124008   4.593   4.400   0.166  1.6881 -1.9557 -0.0913
  791TIP3    H224009   4.452   4.363   0.206  0.4333  1.1324 -1.3023
  792TIP3   OH224010   4.112   0.011   1.249 -0.3339 -0.1620 -0.2595
  792TIP3    H124011   4.165   0.073   1.299 -0.4428  0.5135 -0.9706
  792TIP3    H224012   4.036   0.061   1.220 -2.2161 -1.4693  2.0102
  793TIP3   OH224013   6.791   0.436   7.174 -0.0546 -0.3707 -0.3529
  793TIP3    H124014   6.742   0.354   7.183  0.7011 -0.8684 -0.6920
  793TIP3    H224015   6.781   0.460   7.082  1.2382 -1.0770 -0.7105
  794TIP3   OH224016   6.071   1.028   1.184  0.2130 -0.7764 -0.0267
  794TIP3    H124017   6.077   1.030   1.089  2.0991 -1.2703  0.0499
  794TIP3    H224018   6.103   0.941   1.209 -2.0135 -1.3889  1.0009
  795TIP3   OH224019   0.745   5.587   8.787  0.1345  0.7085  0.4422
  795TIP3    H124020   0.729   5.617   8.698  1.2696 -2.5225 -0.9731
  795TIP3    H224021   0.658   5.586   8.828 -0.7281  0.2502 -1.3290
  796TIP3   OH224022   2.493   0.278   1.664 -0.4850 -0.0439 -0.5500
  796TIP3    H124023   2.453   0.334   1.598 -1.4553  2.3318  1.8724
  796TIP3    H224024   2.584   0.308   1.669 -0.4453 -0.1385 -0.6764
  797TIP3   OH224025   5.918   4.368   8.257 -0.0680 -0.2796  0.2151
  797TIP3    H124026   5.875   4.419   8.326 -0.8510 -1.2863  0.5037
  797TIP3    H224027   5.989   4.323   8.302  1.5037  1.5429 -0.3001
  798TIP3   OH224028   3.391   6.573   7.939  0.1954  0.0507 -0.0698
  798TIP3    H124029   3.346   6.621   7.869 -0.9334  0.3645  0.8355
  798TIP3    H224030   3.463   6.528   7.895 -0.7588 -0.1349 -1.5239
  799TIP3   OH224031   2.083   3.826   0.658  0.2921 -0.2027  0.0832
  799TIP3    H124032   1.989   3.839   0.651  0.4156  0.3056 -0.7138
  799TIP3    H224033   2.110   3.801   0.570  1.1994  1.6323 -0.2067
  800TIP3   OH224034   2.903   6.480   7.198  0.1694 -0.0042 -0.3840
  800TIP3    H124035   2.970   6.532   7.155  0.8212  0.7731  1.4854
  800TIP3    H224036   2.930   6.389   7.184  1.0269  0.2733 -0.5821
  801TIP3   OH224037   0.456   1.554   0.497 -0.1266  0.1023 -0.0306
  801TIP3    H124038   0.488   1.545   0.587  1.8059 -5.3503 -0.9097
  801TIP3    H224039   0.376   1.502   0.495  1.1273 -1.8979 -1.8437
  802TIP3   OH224040   1.153   6.388   1.317 -0.0329  0.2007  0.3399
  802TIP3    H124041   1.181   6.370   1.406 -0.1752 -0.4118  0.2645
  802TIP3    H224042   1.166   6.306   1.270 -0.2930  0.4134 -0.1179
  803TIP3   OH224043   2.151   4.572   7.308  0.2038  0.4523 -0.0101
  803TIP3    H124044   2.223   4.565   7.246  1.9602  0.2952  1.9280
  803TIP3    H224045   2.183   4.528   7.387 -2.5420 -0.8039  0.5319
  804TIP3   OH224046   0.335   4.898   1.540  0.2403 -0.2211  0.5934
  804TIP3    H124047   0.349   4.979   1.492 -1.7229 -0.7052 -0.9392
  804TIP3    H224048   0.419   4.881   1.584  1.5146  1.2621 -1.1276
  805TIP3   OH224049   4.767   1.178   8.427 -0.5534  0.3241  0.1739
  805TIP3    H124050   4.698   1.173   8.493 -2.1805  3.1357 -1.1002
  805TIP3    H224051   4.772   1.272   8.405  2.6423  0.0094 -0.9035
  806TIP3   OH224052   6.589   4.363   1.613  0.5146  0.1865 -0.1573
  806TIP3    H124053   6.647   4.439   1.614  0.2710  0.3812 -0.6797
  806TIP3    H224054   6.515   4.388   1.669  0.9581 -0.0895  0.5692
  807TIP3   OH224055   0.641   1.808   7.111  0.5536  0.1786 -0.0106
  807TIP3    H124056   0.593   1.861   7.175  0.6421  0.8419 -0.4884
  807TIP3    H224057   0.711   1.865   7.080  0.6218 -0.2031 -0.5721
  808TIP3   OH224058   0.384   3.651   2.260  0.1626 -0.3946 -0.3302
  808TIP3    H124059   0.319   3.712   2.224  0.5373  1.1432  1.4463
  808TIP3    H224060   0.346   3.565   2.244 -1.0676  0.3298 -1.6534
  809TIP3   OH224061   2.236   4.673   1.685  0.5047 -0.0731 -0.5469
  809TIP3    H124062   2.171   4.742   1.703 -0.6024 -0.9595 -1.0055
  809TIP3    H224063   2.223   4.609   1.754  0.0665 -0.8219 -1.3035
  810TIP3   OH224064   4.030   3.306   0.572 -0.0709  0.0194  0.2271
  810TIP3    H124065   4.121   3.337   0.574 -0.0083 -0.0377 -1.1498
  810TIP3    H224066   3.985   3.366   0.514 -0.3574 -1.3442 -1.0140
  811TIP3   OH224067   1.168   4.416   7.070  0.2751 -0.0705  0.7060
  811TIP3    H124068   1.113   4.340   7.090  0.6085 -1.6915 -3.5051
  811TIP3    H224069   1.107   4.489   7.064 -0.5384 -0.6419  1.7028
  812TIP3   OH224070   3.655   2.207   6.347 -0.3284 -0.4165 -0.1680
  812TIP3    H124071   3.686   2.262   6.275 -0.4245 -0.6420 -0.3843
  812TIP3    H224072   3.730   2.197   6.405  0.4361 -2.0447 -1.3402
  813TIP3   OH224073   2.268   6.220   8.756 -0.2893  0.0253  0.3988
  813TIP3    H124074   2.205   6.217   8.683  0.5261  0.9748 -0.3771
  813TIP3    H224075   2.350   6.190   8.717 -0.2133 -1.0509  1.3639
  814TIP3   OH224076   3.724   5.335   8.364 -0.1647  0.1822 -0.6714
  814TIP3    H124077   3.773   5.254   8.378 -2.0755 -0.8384  0.4560
  814TIP3    H224078   3.633   5.307   8.353 -1.0792  2.2209  0.9248
  815TIP3   OH224079   3.801   4.087   6.642  0.2295 -0.1670  0.4185
  815TIP3    H124080   3.816   4.004   6.597  0.7532  0.4354 -0.5408
  815TIP3    H224081   3.867   4.147   6.607 -0.3907  0.7711  0.7902
  816TIP3   OH224082   2.161   1.475   1.129 -0.0170 -0.2887  0.4934
  816TIP3    H124083   2.200   1.390   1.151  0.0220 -0.1693  0.8912
  816TIP3    H224084   2.136   1.467   1.037 -0.5462 -0.9317  0.6886
  817TIP3   OH224085   4.380   0.185   7.359 -0.1252 -0.2985 -0.0147
  817TIP3    H124086   4.304   0.154   7.410  0.8212 -0.5949  1.2699
  817TIP3    H224087   4.412   0.260   7.408 -0.2961  0.5724 -1.2101
  818TIP3   OH224088   1.552   3.793   7.759 -0.6954  0.2745 -0.0146
  818TIP3    H124089   1.560   3.766   7.668 -2.0328 -1.6838  0.3852
  818TIP3    H224090   1.630   3.757   7.802 -1.1498 -0.7058  0.0054
  819TIP3   OH224091   6.269   6.521   8.746  0.1775 -0.3923 -0.7791
  819TIP3    H124092   6.300   6.492   8.832 -0.6893 -0.0312 -0.3271
  819TIP3    H224093   6.201   6.458   8.722 -0.0318 -0.1286 -0.8967
  820TIP3   OH224094   6.535   6.466   0.539  0.5524  0.1004 -0.3742
  820TIP3    H124095   6.467   6.403   0.561 -0.4826  1.3113  0.0208
  820TIP3    H224096   6.589   6.422   0.473  0.3433 -1.4743  0.4588
  821TIP3   OH224097   1.810   0.323   1.719 -0.1027  0.8205 -0.7203
  821TIP3    H124098   1.733   0.335   1.776 -0.9167  0.5427 -1.7316
  821TIP3    H224099   1.867   0.397   1.741 -0.3949  0.7285  0.4463
  822TIP3   OH224100   2.247   6.227   1.908  0.4611 -0.6558 -0.1514
  822TIP3    H124101   2.228   6.298   1.847  0.0579 -1.6845 -1.2625
  822TIP3    H224102   2.302   6.267   1.976 -2.2421  1.4966  0.9739
  823TIP3   OH224103   1.432   1.689   2.398  0.0649  0.6572 -0.1414
  823TIP3    H124104   1.364   1.721   2.457  1.2756  0.0195  1.6953
  823TIP3    H224105   1.428   1.747   2.322 -1.3494  1.7158  0.7017
  824TIP3   OH224106   5.911   0.380   1.510 -0.4321 -0.1807 -0.6910
  824TIP3    H124107   5.965   0.311   1.548 -0.8439 -0.4677 -0.6214
  824TIP3    H224108   5.966   0.458   1.514 -0.1610 -0.3882 -0.2756
  825TIP3   OH224109   2.278   2.916   0.715 -0.2000  0.2773 -0.2401
  825TIP3    H124110   2.292   2.828   0.681 -0.6481  0.8189 -1.9044
  825TIP3    H224111   2.356   2.964   0.690 -1.1358  1.0437 -1.8001
  826TIP3   OH224112   0.676   6.059   0.190 -0.0024  0.0352 -0.2105
  826TIP3    H124113   0.736   5.999   0.145 -0.8434 -0.2703 -0.9568
  826TIP3    H224114   0.701   6.054   0.282  0.7965 -0.4560 -0.4475
  827TIP3   OH224115   2.566   5.671   8.051 -0.1674  0.7145 -0.4941
  827TIP3    H124116   2.530   5.583   8.040 -3.5324  1.9278 -0.3096
  827TIP3    H224117   2.544   5.716   7.970 -0.9457  2.1263  0.4721
  828TIP3   OH224118   1.100   5.487   1.349 -0.7167 -0.2371  0.2081
  828TIP3    H124119   1.014   5.500   1.389 -1.2921 -0.4332 -0.9265
  828TIP3    H224120   1.106   5.393   1.334  0.0666 -0.3372  1.0514
  829TIP3   OH224121   2.961   4.674   7.147 -0.2974 -0.2510  0.2676
  829TIP3    H124122   2.878   4.704   7.183 -1.5384  0.9338 -3.2141
  829TIP3    H224123   2.937   4.605   7.085  1.3313 -0.0140 -0.6912
  830TIP3   OH224124   6.161   2.239   7.342  0.8040  0.1651  0.3097
  830TIP3    H124125   6.140   2.208   7.254  2.3621 -1.2016  0.3460
  830TIP3    H224126   6.244   2.286   7.332  0.8825  0.1900  0.9910
  831TIP3   OH224127   6.574   1.803   7.227 -0.9718 -0.2620  0.5403
  831TIP3    H124128   6.534   1.718   7.207  0.5579 -0.7651 -0.4914
  831TIP3    H224129   6.607   1.793   7.317  0.2623 -1.2101  0.0075
  832TIP3   OH224130   0.040   2.962   1.932 -0.3592 -0.4236  0.0686
  832TIP3    H124131   0.051   2.929   1.843  0.8217 -1.3889  0.5510
  832TIP3    H224132   0.122   2.942   1.976 -0.9380 -0.0062  1.3994
  833TIP3   OH224133   2.001   4.869   8.227  0.3138  0.5878 -0.5629
  833TIP3    H124134   1.983   4.840   8.138 -0.9409  0.2170 -0.2088
  833TIP3    H224135   2.094   4.850   8.241 -0.1092 -2.0205 -0.8349
  834TIP3   OH224136   1.210   0.470   0.830 -0.6167  0.0945  0.0622
  834TIP3    H124137   1.174   0.543   0.780 -0.6801  0.4606  0.6394
  834TIP3    H224138   1.305   0.482   0.826 -0.6745  1.4198  1.9350
  835TIP3   OH224139   1.833   0.787   7.730  0.1508  0.0849 -0.3304
  835TIP3    H124140   1.776   0.833   7.792 -1.3491 -1.0933 -0.7794
  835TIP3    H224141   1.873   0.857   7.678 -3.6982  0.9753 -2.4360
  836TIP3   OH224142   2.065   1.701   0.749 -0.2553  0.6017  0.3622
  836TIP3    H124143   2.086   1.795   0.752  1.3821  0.3262 -1.0885
  836TIP3    H224144   2.004   1.693   0.675 -0.0795  0.4647  0.2329
  837TIP3   OH224145   5.571   3.888   1.397 -0.2209 -0.2911  0.5701
  837TIP3    H124146   5.542   3.832   1.469  1.5624 -0.3257  1.3093
  837TIP3    H224147   5.576   3.976   1.436  0.8599 -0.3288  0.5462
  838TIP3   OH224148   4.463   3.790   7.342  0.3389 -0.2909  0.6896
  838TIP3    H124149   4.418   3.736   7.407  0.5712 -1.9295 -0.4478
  838TIP3    H224150   4.439   3.752   7.258 -1.8266  3.1568 -0.4842
  839TIP3   OH224151   5.864   2.421   2.196 -0.5561 -0.2385  0.3134
  839TIP3    H124152   5.853   2.433   2.290  2.2381  1.0288  0.6082
  839TIP3    H224153   5.910   2.337   2.188 -2.9734 -1.5959 -0.2015
  840TIP3   OH224154   3.067   4.377   7.739  0.0204 -0.0304 -0.5194
  840TIP3    H124155   3.055   4.302   7.680  1.8130  1.8560 -3.5847
  840TIP3    H224156   3.159   4.372   7.765 -0.2731  0.2355  0.6079
  841TIP3   OH224157   6.664   2.558   1.881 -0.5239  0.1971  0.4003
  841TIP3    H124158   6.630   2.644   1.906 -1.6841 -0.9320  3.0834
  841TIP3    H224159   6.619   2.497   1.940  1.1748 -2.1282 -0.5851
  842TIP3   OH224160   0.781   3.048   0.923  0.3205 -0.0471  0.1310
  842TIP3    H124161   0.809   3.032   1.013  0.3273 -0.3880  0.0663
  842TIP3    H224162   0.835   2.989   0.870  1.5211  1.3165 -0.2544
  843TIP3   OH224163   6.765   5.916   2.145  0.3066 -0.5040  0.5835
  843TIP3    H124164   6.679   5.895   2.180  0.3059 -0.1118  0.8232
  843TIP3    H224165   6.815   5.835   2.154 -0.1419 -0.8454  0.0977
  844TIP3   OH224166   5.146   4.764   7.516 -0.4759  0.4257  0.4116
  844TIP3    H124167   5.059   4.762   7.476 -1.0365 -0.3635  1.6125
  844TIP3    H224168   5.140   4.832   7.584 -0.0838  0.5357  0.3388
  845TIP3   OH224169   0.131   2.704   8.459  0.5298 -0.9917 -0.4053
  845TIP3    H124170   0.145   2.780   8.516 -1.9197  1.4636 -2.8136
  845TIP3    H224171   0.211   2.651   8.470  2.8998  2.4493  0.6139
  846TIP3   OH224172   6.337   2.793   8.345 -0.1734  0.2571 -0.6178
  846TIP3    H124173   6.373   2.734   8.279 -2.2105  0.4965 -2.0392
  846TIP3    H224174   6.336   2.879   8.304  2.0744  1.2478  1.1735
  847TIP3   OH224175   5.966   5.545   0.640 -0.3904  0.1490  0.1995
  847TIP3    H124176   5.930   5.559   0.727  1.7995  0.9144  1.0391
  847TIP3    H224177   5.889   5.540   0.583 -1.8658 -0.3707  2.1410
  848TIP3   OH224178   6.339   0.266   0.092 -0.9215 -0.1669 -0.3533
  848TIP3    H124179   6.291   0.246   0.011 -1.3112 -1.4056  0.1676
  848TIP3    H224180   6.431   0.255   0.069 -1.0719 -1.5873 -0.3714
  849TIP3   OH224181   4.440   3.624   7.913 -0.0249 -0.2072 -0.5633
  849TIP3    H124182   4.452   3.557   7.846 -0.1081  0.9815 -1.8122
  849TIP3    H224183   4.347   3.624   7.931 -0.0824 -0.1813 -0.8471
  850TIP3   OH224184   2.379   0.373   1.447  0.5006  0.0888  0.2329
  850TIP3    H124185   2.311   0.419   1.397  0.3918  0.4848  0.7405
  850TIP3    H224186   2.372   0.282   1.418  1.8141  0.6493 -2.0001
  851TIP3   OH224187   1.163   1.321   1.246  0.0642  0.5108 -0.0249
  851TIP3    H124188   1.115   1.393   1.286 -0.6769 -0.0074  0.0373
  851TIP3    H224189   1.254   1.338   1.269 -0.1725  1.0912  0.5169
  852TIP3   OH224190   5.477   1.113   1.418 -0.4829 -0.4513 -0.5177
  852TIP3    H124191   5.531   1.128   1.341 -1.7750 -0.8219 -1.5411
  852TIP3    H224192   5.532   1.061   1.477 -0.6676 -3.5174 -2.7910
  853TIP3   OH224193   0.950   4.559   7.230 -0.2493  0.9561 -0.1569
  853TIP3    H124194   0.855   4.564   7.216 -0.3867 -0.8298 -0.1104
  853TIP3    H224195   0.986   4.627   7.173 -1.4946  0.9843 -0.9592
  854TIP3   OH224196   5.636   0.464   0.545 -0.2992  0.3170 -0.3192
  854TIP3    H124197   5.724   0.451   0.579  0.5951  0.5323 -2.3927
  854TIP3    H224198   5.644   0.448   0.451 -2.5362  0.1073 -0.5302
  855TIP3   OH224199   2.485   5.135   8.403  0.1726  0.2519  0.1569
  855TIP3    H124200   2.483   5.169   8.314  2.3225 -0.7518 -0.3287
  855TIP3    H224201   2.538   5.056   8.398 -1.9025 -1.3855  1.8521
  856TIP3   OH224202   4.556   2.319   7.509 -0.4307 -0.9676  0.4382
  856TIP3    H124203   4.496   2.263   7.459 -0.6709 -1.6569  1.4798
  856TIP3    H224204   4.541   2.295   7.600  1.4662 -1.1707  0.7271
  857TIP3   OH224205   6.006   4.890   0.357 -0.3353 -0.5029 -0.4809
  857TIP3    H124206   6.055   4.890   0.275  0.2914  0.6499 -0.1258
  857TIP3    H224207   5.976   4.981   0.368  0.6632 -0.3342  1.1705
  858TIP3   OH224208   5.547   0.629   2.077 -0.0918 -0.4003  0.2422
  858TIP3    H124209   5.619   0.691   2.084  2.0232 -2.2386 -2.7235
  858TIP3    H224210   5.470   0.683   2.057  0.8656  1.4492  1.2836
  859TIP3   OH224211   0.199   2.619   1.167  0.0122 -0.2116  0.2747
  859TIP3    H124212   0.128   2.589   1.109 -0.1414 -1.6777  1.1578
  859TIP3    H224213   0.207   2.549   1.232  1.6396  0.3834  0.7550
  860TIP3   OH224214   4.938   2.785   7.998 -0.0127  0.0715 -0.2675
  860TIP3    H124215   5.015   2.803   7.945  0.7875 -1.3340  0.3527
  860TIP3    H224216   4.915   2.868   8.039  1.2698  0.4656 -0.3375
  861TIP3   OH224217   2.393   4.297   8.482 -0.4979 -0.4169 -0.1134
  861TIP3    H124218   2.340   4.227   8.445 -0.8503  0.2480 -0.8962
  861TIP3    H224219   2.406   4.272   8.573 -0.0918 -1.8144 -0.5203
  862TIP3   OH224220   1.430   2.584   8.419  0.5104  0.7316  0.5128
  862TIP3    H124221   1.387   2.522   8.360  1.2788 -0.1143  0.8055
  862TIP3    H224222   1.359   2.635   8.457 -0.1982 -0.3334  0.6527
  863TIP3   OH224223   3.187   0.546   2.379 -0.0634 -0.0166  0.1363
  863TIP3    H124224   3.142   0.562   2.463 -0.4490 -2.1836  0.3907
  863TIP3    H224225   3.275   0.520   2.404 -0.4157 -1.4644 -0.0572
  864TIP3   OH224226   6.428   3.342   1.046  0.0417  0.2159  0.2545
  864TIP3    H124227   6.380   3.299   1.116  0.4769  1.5559  1.4121
  864TIP3    H224228   6.463   3.270   0.993 -1.6659 -0.8083  0.4205
  865TIP3   OH224229   2.001   0.632   7.069  0.3575  0.4353 -0.2171
  865TIP3    H124230   1.907   0.635   7.050  0.3273  2.2537  0.0509
  865TIP3    H224231   2.007   0.642   7.164  0.8310  2.0713 -0.3792
  866TIP3   OH224232   1.274   4.541   0.645  0.4604  0.4651  0.3987
  866TIP3    H124233   1.312   4.629   0.632  0.1602  0.9860  2.6610
  866TIP3    H224234   1.185   4.557   0.675  0.7766 -0.5434  2.0102
  867TIP3   OH224235   3.683   0.783   2.046  0.0263  0.3581 -0.4610
  867TIP3    H124236   3.723   0.696   2.049 -2.0917 -0.6821 -0.9587
  867TIP3    H224237   3.750   0.837   2.003  1.2334 -1.0881 -0.5226
  868TIP3   OH224238   5.745   3.424   8.703  0.2958 -0.2354 -0.5440
  868TIP3    H124239   5.822   3.374   8.677  1.1175  0.7579 -0.0976
  868TIP3    H224240   5.720   3.472   8.625  0.8542  0.3312 -0.3880
  869TIP3   OH224241   4.140   6.482   8.491  0.3570 -0.0665  0.5074
  869TIP3    H124242   4.121   6.417   8.423 -0.3766  1.9420 -1.2941
  869TIP3    H224243   4.061   6.482   8.545 -0.2462  0.3247 -0.3469
  870TIP3   OH224244   3.745   1.034   2.204  0.3265 -0.1065  0.1751
  870TIP3    H124245   3.793   1.095   2.261  1.3738 -0.2724 -0.5005
  870TIP3    H224246   3.801   1.024   2.127 -0.7990 -0.3261 -0.6450
  871TIP3   OH224247   2.118   6.806   8.156  0.3107 -0.1221 -0.3551
  871TIP3    H124248   2.178   6.844   8.220 -1.9056 -1.0168  2.4576
  871TIP3    H224249   2.064   6.880   8.127  0.0101 -0.0500  0.3789
  872TIP3   OH224250   2.972   3.869   8.549 -0.2119  0.1577  0.4051
  872TIP3    H124251   3.055   3.898   8.510  0.2373 -0.1864  1.0912
  872TIP3    H224252   2.905   3.909   8.494  0.3092 -2.6948 -2.6955
  873TIP3   OH224253   6.384   6.842   0.765  0.0646  0.0687 -0.3607
  873TIP3    H124254   6.428   6.893   0.697 -0.2542  0.1473 -0.5128
  873TIP3    H224255   6.433   6.761   0.770  0.3664  0.2490 -0.3651
  874TIP3   OH224256   5.913   3.506   0.664 -0.3972  0.2473  0.4171
  874TIP3    H124257   5.838   3.553   0.628 -0.1775  0.2235 -0.0707
  874TIP3    H224258   5.886   3.414   0.664 -0.2245  0.1966 -0.1108
  875TIP3   OH224259   2.817   6.677   7.709 -0.2709  0.1154 -0.2355
  875TIP3    H124260   2.822   6.730   7.789 -1.6800  0.4469 -0.3412
  875TIP3    H224261   2.891   6.705   7.656  0.2350  0.4382  0.6263
  876TIP3   OH224262   3.460   1.172   7.797 -0.2945 -0.3259 -0.3498
  876TIP3    H124263   3.547   1.140   7.776 -0.7358 -0.7804 -1.5788
  876TIP3    H224264   3.463   1.265   7.772  0.5998  0.3645  2.0500
  877TIP3   OH224265   4.951   4.230   1.181 -0.2885 -0.3024  0.3093
  877TIP3    H124266   4.907   4.198   1.102 -0.6827 -0.3821  0.5558
  877TIP3    H224267   4.915   4.176   1.252 -1.3235  0.9749  0.8041
  878TIP3   OH224268   6.201   4.210   1.650  0.3469  0.3271 -0.5028
  878TIP3    H124269   6.268   4.275   1.671  0.6683  0.0148 -0.5534
  878TIP3    H224270   6.210   4.196   1.556 -1.0132  1.6385 -0.8634
  879TIP3   OH224271   5.020   4.885   7.761  0.1354  0.3840 -0.0852
  879TIP3    H124272   4.926   4.899   7.753  0.3453  2.1616  0.2760
  879TIP3    H224273   5.031   4.847   7.849 -0.2073  0.4416 -0.0165
  880TIP3   OH224274   5.847   2.820   8.517  0.3374  0.5545  0.4139
  880TIP3    H124275   5.931   2.866   8.517 -0.2306  1.8131 -2.4749
  880TIP3    H224276   5.784   2.884   8.551  0.1326  0.6482 -0.1232
  881TIP3   OH224277   5.385   6.749   1.617 -0.0473 -0.1405  0.0212
  881TIP3    H124278   5.411   6.821   1.674  0.1037 -0.1322 -0.0591
  881TIP3    H224279   5.451   6.682   1.630  1.1718  0.6522 -1.6753
  882TIP3   OH224280   1.949   2.540   8.321  0.2809 -0.2095  0.7711
  882TIP3    H124281   1.924   2.462   8.370  1.7452 -0.2855  1.4296
  882TIP3    H224282   2.041   2.528   8.300 -0.4045 -0.4931 -2.6517
  883TIP3   OH224283   6.115   0.607   1.459  0.1890  0.4107 -0.3215
  883TIP3    H124284   6.131   0.630   1.368  0.1726 -0.5319 -0.5671
  883TIP3    H224285   6.202   0.586   1.494  0.3845  2.0542  0.2597
  884TIP3   OH224286   5.429   1.407   1.275 -0.2419  1.1579 -0.1418
  884TIP3    H124287   5.509   1.424   1.325 -0.1099 -0.4696  0.2468
  884TIP3    H224288   5.459   1.397   1.185 -0.0255  0.7212 -0.0233
  885TIP3   OH224289   0.132   6.332   0.737  0.0724 -0.7068  0.1181
  885TIP3    H124290   0.223   6.342   0.709  0.5042  0.1940  1.7217
  885TIP3    H224291   0.093   6.274   0.672  1.4136  0.0015 -1.3854
  886TIP3   OH224292   3.561   0.376   8.749 -0.6843  0.2827 -0.2641
  886TIP3    H124293   3.531   0.386   8.659  0.5646  1.1851 -0.6020
  886TIP3    H224294   3.653   0.404   8.748 -1.0626  1.8808  1.5907
  887TIP3   OH224295   3.776   2.225   8.546 -0.5278  0.5058 -0.2788
  887TIP3    H124296   3.835   2.151   8.559  1.8775  2.1168 -1.3852
  887TIP3    H224297   3.748   2.249   8.635 -0.6798 -1.1511  0.1520
  888TIP3   OH224298   6.603   4.671   2.554  0.0384  0.8314 -0.1423
  888TIP3    H124299   6.538   4.661   2.623 -1.0872 -1.4141 -1.4069
  888TIP3    H224300   6.680   4.624   2.585 -0.8661 -1.1945 -0.8100
  889TIP3   OH224301   3.984   2.969   0.140  0.0152 -0.6331  0.5791
  889TIP3    H124302   3.978   3.064   0.129 -2.1419 -0.9294 -1.7730
  889TIP3    H224303   3.973   2.955   0.234 -1.0996  1.3980  0.8149
  890TIP3   OH224304   5.059   4.834   2.206  0.0163  0.3431  0.5592
  890TIP3    H124305   4.977   4.791   2.182 -0.4593  0.6446  1.5905
  890TIP3    H224306   5.123   4.763   2.214  0.4156  0.2653 -2.2296
  891TIP3   OH224307   3.095   2.817   0.083  0.6269  0.1817 -0.8828
  891TIP3    H124308   3.039   2.747   0.047  1.3802 -0.2667 -1.1984
  891TIP3    H224309   3.052   2.841   0.165  1.2648 -1.8991  0.1547
  892TIP3   OH224310   3.191   3.831   0.295  0.7056 -0.0185 -0.0389
  892TIP3    H124311   3.257   3.821   0.364  0.6818  0.0892 -0.0002
  892TIP3    H224312   3.238   3.811   0.214  0.0541 -3.0790  0.2218
  893TIP3   OH224313   3.057   6.734   7.829 -0.1590  0.2749 -0.3063
  893TIP3    H124314   3.134   6.756   7.778 -1.3560  0.4598 -2.1338
  893TIP3    H224315   3.035   6.645   7.803 -0.5032  0.1887  0.2676
  894TIP3   OH224316   4.413   3.883   7.751  0.0322 -0.2541  0.0768
  894TIP3    H124317   4.456   3.907   7.669 -1.6546  0.2756 -0.7071
  894TIP3    H224318   4.458   3.804   7.781  0.3919 -0.7131 -1.5984
  895TIP3   OH224319   3.745   0.172   8.404 -0.3352  0.3968 -0.9581
  895TIP3    H124320   3.699   0.089   8.395 -1.2166  0.6771  0.5348
  895TIP3    H224321   3.773   0.174   8.495  0.7508  1.2121 -1.2882
  896TIP3   OH224322   1.196   2.608   7.291  0.1150  0.3554 -0.7586
  896TIP3    H124323   1.228   2.697   7.307 -0.0202  0.1493  0.8259
  896TIP3    H224324   1.101   2.615   7.301  0.2173 -0.2285  0.9251
  897TIP3   OH224325   3.914   2.489   6.762  0.3278  0.2807 -1.1263
  897TIP3    H124326   3.958   2.573   6.755  0.5310  0.2182 -0.6450
  897TIP3    H224327   3.933   2.459   6.851 -0.1259 -0.0599 -1.1397
  898TIP3   OH224328   4.985   2.783   6.970 -0.2469 -0.1586 -1.2150
  898TIP3    H124329   5.048   2.754   6.904  0.7864  1.7499 -1.1460
  898TIP3    H224330   4.990   2.715   7.038 -1.9092 -2.5861 -3.3144
  899TIP3   OH224331   2.957   0.104   7.914 -0.0132 -0.4124 -0.0518
  899TIP3    H124332   2.977   0.124   8.006 -1.0518 -1.8016  0.5165
  899TIP3    H224333   2.981   0.012   7.904 -2.2034 -1.0175 -0.4281
  900TIP3   OH224334   3.240   5.206   0.554  0.3595 -0.4013  0.3191
  900TIP3    H124335   3.164   5.264   0.555  0.7872  0.1766  0.0671
  900TIP3    H224336   3.259   5.190   0.646  1.1880  1.1585  0.4549
  901TIP3   OH224337   0.955   0.257   6.261  0.4653  0.2333 -0.0483
  901TIP3    H124338   0.927   0.332   6.312 -1.3335  1.0030 -1.9965
  901TIP3    H224339   0.955   0.184   6.322  1.3662  1.6144  1.6817
  902TIP3   OH224340   3.281   5.993   0.768 -0.1867  0.0826  0.1216
  902TIP3    H124341   3.293   6.046   0.689 -0.2979 -0.2561 -0.1251
  902TIP3    H224342   3.296   6.054   0.840  0.0126  0.3713 -0.1610
  903TIP3   OH224343   2.090   0.387   1.555  0.2494  0.3520 -0.0562
  903TIP3    H124344   1.999   0.360   1.548  0.8996 -2.1253  0.0429
  903TIP3    H224345   2.087   0.473   1.598 -1.9423 -1.0809  3.0715
  904TIP3   OH224346   1.604   4.378   1.583 -0.6274  0.2424 -0.1331
  904TIP3    H124347   1.551   4.335   1.650 -0.0831  0.1737  0.2634
  904TIP3    H224348   1.542   4.402   1.515 -1.1702  0.1948  0.3386
  905TIP3   OH224349   0.790   6.542   6.632 -0.1669  0.7867 -0.4031
  905TIP3    H124350   0.835   6.626   6.627  0.0356  0.5877 -3.0138
  905TIP3    H224351   0.860   6.478   6.640 -0.3181  0.8140  5.3359
  906TIP3   OH224352   4.517   0.298   8.274 -0.2972  0.2085 -0.2667
  906TIP3    H124353   4.523   0.352   8.354 -0.4993 -0.3886  0.1606
  906TIP3    H224354   4.469   0.220   8.302  1.6581 -1.0930 -0.4078
  907TIP3   OH224355   1.878   4.514   8.673  0.4231 -0.6043  0.0874
  907TIP3    H124356   1.923   4.430   8.681 -1.4087 -1.9420 -2.4082
  907TIP3    H224357   1.941   4.570   8.628  1.6504 -0.5688  1.7517
  908TIP3   OH224358   1.025   0.023   7.459 -0.6139 -0.3745  0.2439
  908TIP3    H124359   1.098  -0.038   7.449  1.2818  1.9616 -1.2637
  908TIP3    H224360   1.042   0.069   7.541  0.1425  0.7453 -0.5100
  909TIP3   OH224361   0.084   3.593   0.941  0.2708 -0.2152 -0.2617
  909TIP3    H124362   0.168   3.548   0.947  1.0446  1.1780 -0.0886
  909TIP3    H224363   0.051   3.571   0.854 -1.0806 -3.8560  1.0021
  910TIP3   OH224364   0.349   6.003   1.865  0.9245 -0.0131 -0.8622
  910TIP3    H124365   0.435   5.969   1.891  1.2481  0.7329 -0.9264
  910TIP3    H224366   0.368   6.085   1.819  0.0182  2.5742  2.9393
  911TIP3   OH224367   3.662   4.860   6.911  0.0714 -0.1373  0.3800
  911TIP3    H124368   3.701   4.824   6.991 -0.7317 -0.3009  0.7094
  911TIP3    H224369   3.573   4.827   6.911 -0.6289  1.6401  0.5717
  912TIP3   OH224370   2.534   5.152   0.068  0.5557  0.1968  0.0365
  912TIP3    H124371   2.619   5.155   0.025  0.4309  1.0731 -0.1583
  912TIP3    H224372   2.514   5.058   0.075  0.9498  0.0132 -1.0822
  913TIP3   OH224373   2.911   2.240   6.853 -0.3365  0.2893  0.3747
  913TIP3    H124374   2.902   2.146   6.869 -1.6903  0.3562  0.1489
  913TIP3    H224375   2.924   2.246   6.758 -1.8759  0.3893  0.1420
  914TIP3   OH224376   4.508   0.510   0.649  0.2622 -0.0032  0.2528
  914TIP3    H124377   4.535   0.423   0.618  1.6459  0.3366  0.4174
  914TIP3    H224378   4.489   0.498   0.742  0.0858 -0.2019  0.1918
  915TIP3   OH224379   0.319   4.732   7.753 -0.5881  0.2969  0.1938
  915TIP3    H124380   0.303   4.735   7.847 -0.4694 -2.4389  0.3853
  915TIP3    H224381   0.233   4.747   7.713 -0.4035  2.9313  0.6132
  916TIP3   OH224382   1.945   2.214   7.867  0.2514  0.3258  0.1584
  916TIP3    H124383   1.874   2.162   7.905  1.6249 -1.6758  0.1009
  916TIP3    H224384   1.912   2.304   7.870 -1.6184 -0.3381  1.6312
  917TIP3   OH224385   5.456   0.296   7.935  0.0906  0.1890 -0.6910
  917TIP3    H124386   5.367   0.321   7.962  0.6215  1.7471 -0.2660
  917TIP3    H224387   5.480   0.363   7.871  1.3034  0.3341 -0.0983
  918TIP3   OH224388   2.245   1.448   7.158  0.1284  0.3430  0.5953
  918TIP3    H124389   2.282   1.379   7.214 -0.0696 -1.0964 -0.9698
  918TIP3    H224390   2.153   1.423   7.147  0.2432  0.4311 -0.6121
  919TIP3   OH224391   6.141   2.247   6.447 -0.0426  0.3399  0.2277
  919TIP3    H124392   6.155   2.263   6.354 -0.3204 -0.8932 -0.0399
  919TIP3    H224393   6.046   2.237   6.456 -0.1706  1.7884  0.8926
  920TIP3   OH224394   1.998   6.091   2.976 -0.3649 -0.0060  0.2649
  920TIP3    H124395   1.938   6.152   3.020  2.4354  2.2894  1.1631
  920TIP3    H224396   1.990   6.112   2.883  0.0379  1.2536  0.4997
  921TIP3   OH224397   1.565   4.793   6.397  0.2323 -0.0467  0.0126
  921TIP3    H124398   1.502   4.851   6.354  0.7079 -0.4217 -1.2223
  921TIP3    H224399   1.527   4.776   6.483 -0.5390  1.0622 -0.0887
  922TIP3   OH224400   2.818   4.245   0.111  0.8687  0.0659  0.1938
  922TIP3    H124401   2.804   4.207   0.024  0.3922 -0.5485  0.5347
  922TIP3    H224402   2.913   4.238   0.125  1.2117  1.6491 -0.9357
  923TIP3   OH224403   5.193   4.277   0.343  0.2112  0.2463  0.1590
  923TIP3    H124404   5.196   4.231   0.427  0.6338  1.2053  0.6895
  923TIP3    H224405   5.280   4.263   0.305  0.2530  0.3741  0.2039
  924TIP3   OH224406   0.570   5.382   1.565 -0.0213 -0.2128 -0.6003
  924TIP3    H124407   0.551   5.295   1.599 -0.2687 -0.0875 -0.4044
  924TIP3    H224408   0.649   5.372   1.512  0.3261 -0.4322 -0.0493
  925TIP3   OH224409   1.783   4.208   8.743  0.7723  0.6971 -0.5518
  925TIP3    H124410   1.698   4.165   8.755  0.2408  1.5116 -1.3400
  925TIP3    H224411   1.804   4.194   8.651  1.5566  0.4091 -0.3406
  926TIP3   OH224412   3.042   5.642   8.341 -0.1369 -0.3985  0.2675
  926TIP3    H124413   3.108   5.703   8.372 -0.1400 -0.5226  0.5157
  926TIP3    H224414   2.973   5.645   8.407 -0.5953  0.0764 -0.2169
  927TIP3   OH224415   3.045   2.046   7.261 -0.1787 -0.0800 -0.8383
  927TIP3    H124416   3.103   1.994   7.316  0.2666 -0.0833 -1.3074
  927TIP3    H224417   3.016   2.118   7.318 -1.9781 -1.6003  0.3109
  928TIP3   OH224418   1.379   3.269   7.784 -0.3643  0.0802  0.2825
  928TIP3    H124419   1.453   3.304   7.833  0.2361 -2.7004  1.6075
  928TIP3    H224420   1.412   3.260   7.694 -0.2750  1.9719  0.1007
  929TIP3   OH224421   3.470   3.775   0.401 -0.9860 -0.1963 -0.0261
  929TIP3    H124422   3.486   3.844   0.337 -2.4131  0.1465 -0.0443
  929TIP3    H224423   3.531   3.794   0.473 -2.0184  1.6972  0.4267
  930TIP3   OH224424   6.043   0.117   7.660 -0.0128 -0.5805 -0.1515
  930TIP3    H124425   5.960   0.142   7.701 -0.3698  0.0587 -1.2259
  930TIP3    H224426   6.063   0.031   7.696 -1.3163 -0.8933 -0.1356
  931TIP3   OH224427   6.825   6.129   6.949  0.5737 -0.1745 -0.4586
  931TIP3    H124428   6.854   6.208   6.903 -0.1305  0.0387 -0.5614
  931TIP3    H224429   6.832   6.151   7.042 -1.2429  0.6720 -0.4657
  932TIP3   OH224430   1.318   3.243   1.443 -0.5791  0.4280 -0.3644
  932TIP3    H124431   1.283   3.331   1.427  0.7697  1.4344  1.6816
  932TIP3    H224432   1.333   3.241   1.538  2.5288 -0.7631 -0.7683
  933TIP3   OH224433   4.110   3.251   8.630  0.3736  0.0228 -0.4269
  933TIP3    H124434   4.205   3.251   8.638  0.3493  1.3207  0.1002
  933TIP3    H224435   4.082   3.329   8.677 -0.9381 -0.1793 -0.8311
  934TIP3   OH224436   0.996   5.239   8.638  0.1625  0.3414 -0.0665
  934TIP3    H124437   1.053   5.275   8.571 -0.0978  0.4616 -0.2261
  934TIP3    H224438   1.036   5.266   8.721  1.0419 -0.6563 -0.1390
  935TIP3   OH224439   3.270   0.020   7.235  0.4788 -0.3207 -0.1417
  935TIP3    H124440   3.239  -0.022   7.156 -0.0319 -2.4894  1.1307
  935TIP3    H224441   3.365   0.025   7.225  0.3243  0.4677 -1.3327
  936TIP3   OH224442   5.494   2.845   8.437  0.2417  0.1704  0.0184
  936TIP3    H124443   5.547   2.771   8.467  0.1992  0.5934  1.2075
  936TIP3    H224444   5.413   2.806   8.405 -0.0718 -0.2715  1.2966
  937TIP3   OH224445   0.652   5.663   0.562  0.8731  0.0842 -0.8440
  937TIP3    H124446   0.649   5.596   0.630 -0.8982  1.4260  0.4568
  937TIP3    H224447   0.624   5.617   0.483  1.3154 -1.0860 -0.3500
  938TIP3   OH224448   0.884   6.719   8.476  0.1781  0.2241 -0.0029
  938TIP3    H124449   0.895   6.696   8.568  4.0513  0.2306 -0.3223
  938TIP3    H224450   0.945   6.791   8.461 -0.9226  0.7659 -2.4490
  939TIP3   OH224451   3.137   0.500   1.103  0.5452 -0.2264  0.1975
  939TIP3    H124452   3.108   0.442   1.033  0.0104  2.1706 -1.6997
  939TIP3    H224453   3.227   0.522   1.081  0.2574  0.8364 -0.0085
  940TIP3   OH224454   5.000   3.165   8.591 -0.0123 -0.7883 -0.1630
  940TIP3    H124455   4.966   3.228   8.528  0.3149  0.8336  1.2067
  940TIP3    H224456   4.921   3.122   8.625 -0.3806 -0.0066  0.0030
  941TIP3   OH224457   5.891   1.540   0.926 -0.0684 -0.3221 -0.3408
  941TIP3    H124458   5.809   1.559   0.881  0.3956 -2.1269 -2.0541
  941TIP3    H224459   5.919   1.455   0.892  2.9076  0.5615 -0.3915
  942TIP3   OH224460   0.266   4.093   7.296  0.2282  0.0817  0.2891
  942TIP3    H124461   0.298   4.140   7.219  0.1305 -2.3630 -1.3489
  942TIP3    H224462   0.171   4.094   7.287  0.2047 -0.0214  0.5114
  943TIP3   OH224463   5.537   4.728   0.927  0.3214  0.4732  0.1600
  943TIP3    H124464   5.605   4.723   0.860  0.5308 -0.9935  0.4542
  943TIP3    H224465   5.585   4.735   1.009  0.0715  1.4713  0.2359
  944TIP3   OH224466   0.380   3.601   1.827 -0.3620 -0.0476  0.7722
  944TIP3    H124467   0.300   3.623   1.778 -1.3298 -1.0977  1.8306
  944TIP3    H224468   0.399   3.680   1.878 -1.6872 -0.3319  1.7570
  945TIP3   OH224469   0.387   4.085   1.034  0.2582  0.5903  0.0759
  945TIP3    H124470   0.404   4.104   1.126  0.0314  1.6150 -0.0882
  945TIP3    H224471   0.331   4.156   1.004 -0.5192 -0.2832 -0.5948
  946TIP3   OH224472   1.237   3.911   1.644 -0.0101 -0.2819  0.4788
  946TIP3    H124473   1.257   3.881   1.555  1.7827  0.0509  0.7196
  946TIP3    H224474   1.143   3.930   1.643  0.1040  0.3980 -1.5454
  947TIP3   OH224475   5.017   6.786   7.526  0.4914  0.2303  0.2337
  947TIP3    H124476   5.040   6.798   7.618  3.3482 -1.2636 -0.1649
  947TIP3    H224477   4.960   6.709   7.525  0.0594  0.5434  0.8059
  948TIP3   OH224478   2.199   2.753   1.743 -0.3866  0.2346  0.0682
  948TIP3    H124479   2.117   2.794   1.772  0.3027  1.5562  0.2098
  948TIP3    H224480   2.268   2.806   1.783  0.5519 -0.5192 -0.5055
  949TIP3   OH224481   5.599   5.141   8.063 -0.0662  0.3778  0.3257
  949TIP3    H124482   5.680   5.192   8.054  0.5478 -0.6528 -0.1832
  949TIP3    H224483   5.576   5.151   8.156  0.8469  0.4124  0.5684
  950TIP3   OH224484   3.523   6.763   0.918  0.6761  0.3192  0.4733
  950TIP3    H124485   3.574   6.792   0.994  0.7929 -0.3716  0.6661
  950TIP3    H224486   3.454   6.708   0.955  1.3143 -0.8214  0.0128
  951TIP3   OH224487   6.852   5.426   0.080  0.2055  0.5233 -0.2177
  951TIP3    H124488   6.761   5.456   0.076  0.6068  1.7786 -0.5155
  951TIP3    H224489   6.882   5.453   0.167 -0.2386 -1.5854  0.6354
  952TIP3   OH224490   0.159   2.485   0.904  0.3199  0.0489  0.0019
  952TIP3    H124491   0.142   2.402   0.949  1.0474  0.0667  0.3272
  952TIP3    H224492   0.085   2.496   0.844 -0.2183 -0.4081  0.5745
  953TIP3   OH224493   4.416   2.283   0.530  0.0888 -0.2136  0.5336
  953TIP3    H124494   4.480   2.229   0.484 -1.1215  0.1581 -1.7529
  953TIP3    H224495   4.333   2.265   0.486 -0.8376  1.5024  1.4631
  954TIP3   OH224496   5.354   6.443   7.202  0.2215 -0.0407 -0.2107
  954TIP3    H124497   5.385   6.382   7.135 -1.1621 -2.1102  0.9442
  954TIP3    H224498   5.432   6.466   7.251  0.5336 -2.6080  0.6408
  955TIP3   OH224499   0.664   6.264   1.641 -0.0318  0.0780 -0.5816
  955TIP3    H124500   0.757   6.245   1.622 -0.0495 -0.6736  0.0331
  955TIP3    H224501   0.629   6.293   1.557  0.7587  0.3482 -0.8308
  956TIP3   OH224502   2.733   6.023   1.813 -0.0492 -0.1858 -0.4418
  956TIP3    H124503   2.664   6.075   1.854  0.7291  0.8676 -0.4367
  956TIP3    H224504   2.799   6.086   1.785  0.3108 -1.0542 -1.6597
  957TIP3   OH224505   0.252   3.857   1.229 -0.1056 -0.5720 -0.0760
  957TIP3    H124506   0.219   3.937   1.188 -0.3603 -0.0936  1.0132
  957TIP3    H224507   0.191   3.840   1.301 -0.1917 -1.8899 -0.4364
  958TIP3   OH224508   0.494   5.290   7.055  0.0649 -0.3788 -0.2596
  958TIP3    H124509   0.543   5.222   7.008 -1.1760 -1.4591 -0.0422
  958TIP3    H224510   0.516   5.371   7.010  0.1590 -1.1720 -1.6861
  959TIP3   OH224511   5.399   3.914   6.676 -0.1056  0.1048  0.0245
  959TIP3    H124512   5.494   3.898   6.678  0.1146  1.3005 -0.0834
  959TIP3    H224513   5.360   3.827   6.677  0.9940 -0.4018  0.3111
  960TIP3   OH224514   4.316   5.020   8.592 -0.1072 -0.8365  0.1103
  960TIP3    H124515   4.373   5.057   8.525 -0.9026  0.3828  0.0812
  960TIP3    H224516   4.354   4.934   8.610  2.4233  0.3690  0.9532
  961TIP3   OH224517   0.927   5.283   0.317 -0.2079  0.0064  0.0819
  961TIP3    H124518   1.012   5.324   0.329 -1.3431  2.5884 -0.0051
  961TIP3    H224519   0.903   5.251   0.404  0.5216 -0.0411  0.2661
  962TIP3   OH224520   4.430   2.069   0.094  0.7498 -0.7690 -0.1419
  962TIP3    H124521   4.413   1.975   0.099 -0.3562 -0.5862 -0.2578
  962TIP3    H224522   4.398   2.094   0.007 -1.4410  0.1730  0.8758
  963TIP3   OH224523   1.485   6.110   0.900  0.0451  0.1789  0.3568
  963TIP3    H124524   1.411   6.154   0.860 -0.5488  0.2790  1.5158
  963TIP3    H224525   1.458   6.094   0.991  1.3671  0.0624  0.7612
  964TIP3   OH224526   4.416   3.536   7.026 -0.3774  0.3354 -0.1344
  964TIP3    H124527   4.454   3.601   6.967 -0.6081  0.0383 -0.6210
  964TIP3    H224528   4.486   3.471   7.037 -1.4284 -1.4560 -2.9202
  965TIP3   OH224529   3.363   1.930   6.585  0.2117  0.1651 -0.2639
  965TIP3    H124530   3.272   1.929   6.616 -0.0567 -0.5910 -1.0384
  965TIP3    H224531   3.412   1.882   6.651 -0.0266  0.1970 -0.0631
  966TIP3   OH224532   6.864   6.848   1.685 -0.8949  0.3076 -0.2793
  966TIP3    H124533   6.872   6.943   1.695  1.2629  0.2270 -0.8645
  966TIP3    H224534   6.859   6.815   1.775  3.2515  0.6916  0.2802
  967TIP3   OH224535   5.789   1.348   1.301 -0.0869  0.4868 -0.4498
  967TIP3    H124536   5.828   1.409   1.240 -1.5059  1.9174  0.0127
  967TIP3    H224537   5.735   1.402   1.359 -0.4292 -1.0573  0.7577
  968TIP3   OH224538   1.129   6.117   6.876 -0.2881  0.2502 -0.4190
  968TIP3    H124539   1.050   6.089   6.924  0.4696  0.6023  1.1041
  968TIP3    H224540   1.198   6.058   6.908  0.2595  0.5577 -1.0269
  969TIP3   OH224541   0.530   2.152   7.584 -0.5448 -0.3889  0.3559
  969TIP3    H124542   0.586   2.219   7.546 -1.1738 -0.4611 -0.7318
  969TIP3    H224543   0.494   2.192   7.663 -1.5998  0.8851 -0.7334
  970TIP3   OH224544   0.741   2.535   2.010  0.1676  0.3471  0.0290
  970TIP3    H124545   0.654   2.505   2.037  0.2330  1.0769  1.1085
  970TIP3    H224546   0.786   2.456   1.982 -0.2943 -0.2978  1.0523
  971TIP3   OH224547   5.462   1.186   0.632 -0.4654 -0.2483  0.2286
  971TIP3    H124548   5.452   1.096   0.663 -0.0240 -0.0717  0.8998
  971TIP3    H224549   5.556   1.203   0.635 -0.1139 -0.9303 -3.3019
  972TIP3   OH224550   6.158   2.540   0.866  0.1373  0.1869  0.3844
  972TIP3    H124551   6.159   2.449   0.837  2.0639 -0.5779  2.5022
  972TIP3    H224552   6.123   2.589   0.792  0.8633 -2.0518 -1.5509
  973TIP3   OH224553   1.678   2.387   1.361 -0.0154  0.5564 -0.2626
  973TIP3    H124554   1.589   2.359   1.338 -0.1438  1.2912 -0.6861
  973TIP3    H224555   1.689   2.360   1.452  0.1143 -1.4898 -0.8181
  974TIP3   OH224556   3.476   2.124   1.084  0.1948 -0.4025 -0.1087
  974TIP3    H124557   3.468   2.037   1.124  0.4855 -0.4463 -0.1462
  974TIP3    H224558   3.513   2.179   1.153  3.0128 -1.0121 -0.9945
  975TIP3   OH224559   5.749   5.427   0.485  0.1547 -0.1754  0.3583
  975TIP3    H124560   5.799   5.455   0.409 -1.2803 -1.4969 -1.1556
  975TIP3    H224561   5.658   5.449   0.464  0.0015  2.5398  3.1838
  976TIP3   OH224562   1.383   1.506   1.594  0.1415  0.2966 -0.4343
  976TIP3    H124563   1.326   1.434   1.567 -0.5509  0.3543  0.8108
  976TIP3    H224564   1.471   1.471   1.583 -0.1819 -0.7648  0.1650
  977TIP3   OH224565   0.710   1.162   1.420 -0.0339  0.3152 -0.1417
  977TIP3    H124566   0.653   1.162   1.343 -0.3478 -1.3837  0.0326
  977TIP3    H224567   0.649   1.156   1.494  0.2988  0.6760  0.1594
  978TIP3   OH224568   1.315   3.939   7.436 -0.5717 -0.6518 -0.2662
  978TIP3    H124569   1.289   3.856   7.396 -0.0819 -0.4122 -1.1067
  978TIP3    H224570   1.392   3.917   7.489  0.6863 -0.4441 -1.9215
  979TIP3   OH224571   5.768   2.904   0.914  0.3533 -0.5860 -0.1771
  979TIP3    H124572   5.808   2.868   0.993 -0.0507 -2.0262 -0.5862
  979TIP3    H224573   5.690   2.849   0.900 -1.0201  1.2525 -0.1710
  980TIP3   OH224574   1.382   5.215   0.679 -0.1783 -0.2046  0.2724
  980TIP3    H124575   1.422   5.229   0.593 -1.1653 -2.3182 -0.5814
  980TIP3    H224576   1.378   5.303   0.718 -1.3735  1.1102 -2.5708
  981TIP3   OH224577   5.613   1.081   1.168  0.4430  0.1323  0.2644
  981TIP3    H124578   5.539   1.104   1.111 -0.3080  1.0207  1.5555
  981TIP3    H224579   5.690   1.111   1.119  0.0366 -1.2811 -1.3391
  982TIP3   OH224580   5.394   2.284   1.227  0.2939 -0.1819  0.5563
  982TIP3    H124581   5.474   2.335   1.217  0.4654 -0.6157 -0.3256
  982TIP3    H224582   5.422   2.204   1.272 -0.1874  1.0088  3.1574
  983TIP3   OH224583   6.810   2.485   7.668  0.5158 -0.2931 -0.2712
  983TIP3    H124584   6.759   2.426   7.612  1.0507  0.0127 -1.0922
  983TIP3    H224585   6.896   2.445   7.673  0.5022 -0.2599  0.2549
  984TIP3   OH224586   3.394   3.542   7.211 -0.0865  0.2465  0.2059
  984TIP3    H124587   3.393   3.447   7.224 -1.5750 -0.2540 -2.8357
  984TIP3    H224588   3.329   3.576   7.273  0.7818 -0.5813  1.6388
  985TIP3   OH224589   5.932   5.194   7.460  0.5314 -0.2256  0.0750
  985TIP3    H124590   5.896   5.250   7.392  2.2996  2.4264  1.1360
  985TIP3    H224591   5.862   5.187   7.526  0.7559  2.1831  0.6563
  986TIP3   OH224592   6.031   5.954   8.606 -0.1500  0.2363  0.5025
  986TIP3    H124593   6.096   6.013   8.645 -0.4636  1.2203 -0.4148
  986TIP3    H224594   5.960   5.951   8.670  0.4416 -0.2422  1.1638
  987TIP3   OH224595   5.639   6.838   0.659  0.5369  0.3252  0.3318
  987TIP3    H124596   5.694   6.822   0.582  0.4427  0.1904  0.2925
  987TIP3    H224597   5.612   6.930   0.650  0.2369  0.2102  0.0153
  988TIP3   OH224598   6.119   3.515   6.476 -0.0525  0.5738  0.7310
  988TIP3    H124599   6.097   3.435   6.429  2.7241  0.4596 -0.5546
  988TIP3    H224600   6.057   3.581   6.443 -0.2183 -0.2649 -0.6737
  989TIP3   OH224601   0.421   0.293   8.454  0.3852 -0.3054  0.4654
  989TIP3    H124602   0.493   0.270   8.513  2.2304 -0.6962 -1.7539
  989TIP3    H224603   0.362   0.218   8.457  2.0479 -1.7149 -0.4463
  990TIP3   OH224604   5.638   6.463   0.799  0.9047  0.2126  0.5472
  990TIP3    H124605   5.634   6.558   0.782  0.0922  0.1121  0.1274
  990TIP3    H224606   5.622   6.456   0.893 -1.1733  0.3837  0.2512
  991TIP3   OH224607   0.178   5.129   0.881 -0.1255  0.0372  0.1559
  991TIP3    H124608   0.207   5.055   0.828 -4.6736 -1.9241 -0.0674
  991TIP3    H224609   0.200   5.105   0.971  1.0076 -0.1552 -0.1615
  992TIP3   OH224610   3.883   3.197   1.437  0.6996  0.1007 -0.3141
  992TIP3    H124611   3.821   3.144   1.387 -0.7286 -0.9025  2.3090
  992TIP3    H224612   3.844   3.285   1.437 -0.7408 -0.4879  1.1881
  993TIP3   OH224613   0.480   4.535   6.772 -0.2905  0.1921  0.3898
  993TIP3    H124614   0.558   4.493   6.809 -0.3547  1.0874  1.5841
  993TIP3    H224615   0.412   4.468   6.776 -0.2805  0.2353  1.8794
  994TIP3   OH224616   6.736   1.543   0.507  0.6890 -0.6937  0.1747
  994TIP3    H124617   6.781   1.553   0.590 -0.2968 -0.2395  0.6704
  994TIP3    H224618   6.654   1.592   0.517 -0.2505 -2.0490 -0.4326
  995TIP3   OH224619   5.452   2.639   0.395  0.1320  0.1226 -0.0057
  995TIP3    H124620   5.372   2.676   0.358  0.1054 -0.2161 -0.2900
  995TIP3    H224621   5.429   2.549   0.418  0.4855 -0.0424 -0.2808
  996TIP3   OH224622   2.939   3.708   7.525  0.5049  0.2850  0.2876
  996TIP3    H124623   2.910   3.799   7.520 -2.9185 -0.6855 -0.1313
  996TIP3    H224624   2.860   3.657   7.509  2.7509 -2.8091 -2.0918
  997TIP3   OH224625   5.428   4.012   7.483 -0.3726 -0.3644  0.0348
  997TIP3    H124626   5.375   4.071   7.429  1.4391  0.9453 -0.4017
  997TIP3    H224627   5.455   3.942   7.423 -0.2279 -0.1219 -0.1882
  998TIP3   OH224628   5.859   3.889   1.360  0.4092  0.2898 -0.0144
  998TIP3    H124629   5.889   3.819   1.418  0.9172 -1.6519 -2.4496
  998TIP3    H224630   5.764   3.883   1.363  0.4438 -0.3775 -0.0274
  999TIP3   OH224631   1.863   3.815   6.537 -0.0336  0.1399  0.2509
  999TIP3    H124632   1.905   3.878   6.595 -1.3875  0.5900  0.7781
  999TIP3    H224633   1.934   3.784   6.480  0.7882  1.6378  0.4038
 1000TIP3   OH224634   5.097   0.875   7.949  0.1355  0.0185 -0.3692
 1000TIP3    H124635   5.035   0.948   7.946 -0.0784 -0.0881  0.7774
 1000TIP3    H224636   5.061   0.817   8.017  2.2032  0.6491  1.3688
 1001TIP3   OH224637   0.674   4.438   1.778 -0.8239  0.3923 -0.1397
 1001TIP3    H124638   0.620   4.384   1.720  0.9802 -0.7307 -0.9027
 1001TIP3    H224639   0.755   4.451   1.728 -0.1170  1.3893  1.2247
 1002TIP3   OH224640   6.269   2.426   7.550  0.4534  0.3204  0.0922
 1002TIP3    H124641   6.181   2.464   7.547 -0.3117 -1.3422  0.4117
 1002TIP3    H224642   6.257   2.340   7.589  2.3406  0.3098  0.7386
 1003TIP3   OH224643   1.331   3.631   7.577 -0.2764 -0.0926 -0.0707
 1003TIP3    H124644   1.425   3.640   7.563 -0.1250 -0.4016  0.7389
 1003TIP3    H224645   1.301   3.577   7.504 -0.0805  1.2030 -1.1637
 1004TIP3   OH224646   4.519   3.469   1.274 -0.1119  0.4455 -0.9224
 1004TIP3    H124647   4.496   3.381   1.244  2.6992 -0.7660  0.1103
 1004TIP3    H224648   4.472   3.478   1.358 -0.1304 -0.2301 -0.8525
 1005TIP3   OH224649   1.602   6.123   7.346 -0.1184  0.0227 -0.0168
 1005TIP3    H124650   1.525   6.141   7.292  0.6632  0.1399 -1.1344
 1005TIP3    H224651   1.663   6.079   7.286  1.0645  0.8229  0.5720
 1006TIP3   OH224652   0.479   4.550   8.256 -0.1606  0.3298 -0.1606
 1006TIP3    H124653   0.476   4.616   8.326  1.5277  0.3125 -0.0317
 1006TIP3    H224654   0.569   4.517   8.258 -1.3754 -3.3849  1.0406
 1007TIP3   OH224655   6.291   1.017   6.940 -0.6061 -0.3052  0.6588
 1007TIP3    H124656   6.242   0.935   6.942 -0.6244 -0.4037 -1.4258
 1007TIP3    H224657   6.382   0.990   6.924 -0.9660  0.0933 -2.6141
 1008TIP3   OH224658   6.066   6.426   6.527  0.3183 -0.6597  0.2744
 1008TIP3    H124659   6.098   6.336   6.519 -0.3102 -1.0766  2.0567
 1008TIP3    H224660   6.014   6.439   6.448  1.1843 -1.5105 -0.4776
 1009TIP3   OH224661   1.673   4.084   6.688  0.0228  0.5654 -0.2442
 1009TIP3    H124662   1.668   3.990   6.703 -0.7436  0.6762  0.2663
 1009TIP3    H224663   1.684   4.093   6.593 -1.0388 -0.0152 -0.4295
 1010TIP3   OH224664   3.882   2.839   0.404  0.2240  0.2463 -0.2522
 1010TIP3    H124665   3.809   2.895   0.378  0.1055 -0.2622 -1.0612
 1010TIP3    H224666   3.882   2.843   0.500 -1.4208 -0.4071 -0.1871
 1011TIP3   OH224667   0.228   0.754   1.147  0.3129 -0.1973 -0.3525
 1011TIP3    H124668   0.311   0.710   1.131  1.6123  1.2591  1.8400
 1011TIP3    H224669   0.184   0.700   1.213 -0.3278 -0.7334 -1.1945
 1012TIP3   OH224670   3.187   0.064   0.747 -0.5728 -0.3996 -0.6418
 1012TIP3    H124671   3.142  -0.013   0.780  1.1504 -0.2809  2.3801
 1012TIP3    H224672   3.261   0.029   0.697  0.1651 -0.7814  0.6639
 1013TIP3   OH224673   0.743   1.824   2.023  0.5569  0.2004  0.2981
 1013TIP3    H124674   0.716   1.870   1.944 -0.4020  2.8682  2.0635
 1013TIP3    H224675   0.833   1.853   2.039  0.9420 -0.7465 -0.0520
 1014TIP3   OH224676   2.769   5.372   8.144 -0.2492  0.1434  0.3736
 1014TIP3    H124677   2.765   5.406   8.233  1.9447 -0.7965  0.9086
 1014TIP3    H224678   2.703   5.302   8.142  0.8161 -0.9931  1.8683
 1015TIP3   OH224679   3.227   0.515   7.493 -1.0203  0.4896 -0.4519
 1015TIP3    H124680   3.310   0.477   7.521 -0.9047  0.7035 -0.5003
 1015TIP3    H224681   3.187   0.448   7.437 -1.2305  0.0808  0.1828
 1016TIP3   OH224682   5.887   6.048   1.223  0.1625 -0.2538  0.1930
 1016TIP3    H124683   5.807   6.062   1.274 -0.0060  0.3864 -0.2391
 1016TIP3    H224684   5.884   5.955   1.200 -0.4325 -0.2470  0.2220
 1017TIP3   OH224685   1.304   6.264   8.282  0.1362 -0.2998 -0.1579
 1017TIP3    H124686   1.278   6.175   8.306 -0.8684  0.1172  0.3542
 1017TIP3    H224687   1.399   6.265   8.294 -0.0057 -0.8888  1.2455
 1018TIP3   OH224688   2.017   4.374   7.509  0.2615  0.2658 -0.4891
 1018TIP3    H124689   2.079   4.323   7.456  1.9914  1.1980  0.5577
 1018TIP3    H224690   1.948   4.312   7.531  1.6610 -1.2846 -0.2973
 1019TIP3   OH224691   6.607   1.928   6.351 -0.5979 -0.2138  0.5851
 1019TIP3    H124692   6.617   2.006   6.406 -0.0437 -1.2800  2.0531
 1019TIP3    H224693   6.695   1.912   6.317 -1.0327  0.7266 -1.0721
 1020TIP3   OH224694   6.027   1.056   0.543 -0.1486 -0.3337  0.3420
 1020TIP3    H124695   6.104   0.999   0.550 -0.5460 -0.7627  1.3557
 1020TIP3    H224696   6.033   1.115   0.618 -0.8894 -0.4757  0.5234
 1021TIP3   OH224697   1.915   4.745   1.343 -0.1674  0.1295 -0.1291
 1021TIP3    H124698   1.845   4.738   1.407 -0.2424  0.4105 -0.1763
 1021TIP3    H224699   1.872   4.772   1.262  0.0746  1.0053  0.0205
 1022TIP3   OH224700   6.123   1.408   1.090 -0.1786  0.3131  0.2233
 1022TIP3    H124701   6.063   1.352   1.042 -0.4786  1.4241 -0.7484
 1022TIP3    H224702   6.143   1.480   1.029  1.4579  0.4214  0.8284
 1023TIP3   OH224703   1.249   6.240   0.803  0.8812 -0.1509 -1.4145
 1023TIP3    H124704   1.173   6.227   0.746  0.8690 -0.8339 -1.2516
 1023TIP3    H224705   1.240   6.330   0.835  0.0367 -0.2863 -1.2431
 1024TIP3   OH224706   2.915   4.690   8.418 -0.0096 -0.0907  0.5641
 1024TIP3    H124707   2.842   4.656   8.366 -1.8872 -1.9426  4.0387
 1024TIP3    H224708   2.969   4.614   8.437  1.5233  0.8313  0.1150
 1025TIP3   OH224709   0.780   0.625   0.132 -0.2852  0.2290  0.0008
 1025TIP3    H124710   0.862   0.604   0.176  0.0106 -0.4040 -0.8269
 1025TIP3    H224711   0.763   0.551   0.074 -0.7037  0.9943 -0.8868
 1026TIP3   OH224712   2.975   1.777   1.535  0.1338  0.2096 -0.5166
 1026TIP3    H124713   2.969   1.797   1.442  2.0479  0.6152 -0.5976
 1026TIP3    H224714   2.999   1.684   1.538  1.7573  0.5917 -0.5339
 1027TIP3   OH224715   0.532   2.059   6.963  0.2421 -0.1413 -0.0036
 1027TIP3    H124716   0.623   2.029   6.952  0.5328  0.9788 -0.8034
 1027TIP3    H224717   0.538   2.131   7.025  0.3689  1.9089 -2.2330
 1028TIP3   OH224718   6.725   6.285   1.436 -0.3055  0.0603  0.1722
 1028TIP3    H124719   6.663   6.310   1.368  1.1018  0.3024 -1.0888
 1028TIP3    H224720   6.724   6.189   1.435  0.0582  0.0566 -0.5514
 1029TIP3   OH224721   0.101   1.029   7.550 -0.4043 -0.0480  0.1421
 1029TIP3    H124722   0.195   1.042   7.542 -0.4931  1.1117  0.7753
 1029TIP3    H224723   0.075   0.987   7.467  0.3459  1.5417 -0.9487
 1030TIP3   OH224724   5.850   1.015   6.396  0.1294  0.6450  0.4007
 1030TIP3    H124725   5.797   1.073   6.450  0.1859  0.3460  0.7878
 1030TIP3    H224726   5.934   1.060   6.386  1.0483 -0.3974  2.7284
 1031TIP3   OH224727   4.803   3.468   7.252  0.0766  0.5473 -0.0323
 1031TIP3    H124728   4.767   3.404   7.190  0.2246 -1.0336  1.4333
 1031TIP3    H224729   4.730   3.490   7.309 -0.4747  3.1734 -1.5807
 1032TIP3   OH224730   3.597   4.205   1.297 -0.1797  0.3911  0.0425
 1032TIP3    H124731   3.530   4.245   1.353  0.9734 -0.1355  1.8998
 1032TIP3    H224732   3.564   4.216   1.208 -3.4897 -1.1407  0.9110
 1033TIP3   OH224733   3.045   5.804   2.149  0.2520  0.0439  0.1499
 1033TIP3    H124734   3.132   5.843   2.144 -1.1440  3.6434  0.6580
 1033TIP3    H224735   3.000   5.834   2.070 -0.1287 -3.1742 -0.9869
 1034TIP3   OH224736   3.706   1.118   2.474  0.0310  0.3166 -0.0795
 1034TIP3    H124737   3.750   1.201   2.458  0.1990  0.0668 -0.9648
 1034TIP3    H224738   3.628   1.141   2.523  0.3391  0.9381  0.1295
 1035TIP3   OH224739   0.323   0.438   0.608 -0.3654 -0.0777  0.6612
 1035TIP3    H124740   0.410   0.478   0.607  0.4894 -1.7946  0.6110
 1035TIP3    H224741   0.290   0.452   0.696  0.5842 -0.5823  1.1179
 1036TIP3   OH224742   1.486   4.131   0.721  0.3922  0.1662 -0.1757
 1036TIP3    H124743   1.524   4.135   0.634 -1.2832 -2.1327 -1.0994
 1036TIP3    H224744   1.407   4.184   0.715 -0.8166 -1.6171 -0.7315
 1037TIP3   OH224745   2.036   4.599   7.639  0.4982 -0.2494  0.4074
 1037TIP3    H124746   2.116   4.639   7.603  1.8669 -1.8721  1.5073
 1037TIP3    H224747   2.013   4.531   7.575 -1.2766  1.5060 -0.9667
 1038TIP3   OH224748   1.919   2.064   8.543  0.0718  0.0936 -0.2414
 1038TIP3    H124749   1.852   2.054   8.476 -1.2084 -0.9643  1.1393
 1038TIP3    H224750   1.980   1.992   8.527 -1.4978 -1.6168  1.0858
 1039TIP3   OH224751   0.964   0.653   7.798 -0.2259  0.2843 -0.3331
 1039TIP3    H124752   0.892   0.688   7.746  0.4238  0.5965 -1.0490
 1039TIP3    H224753   0.977   0.564   7.765  0.2133  0.4968 -0.7375
 1040TIP3   OH224754   0.912   5.048   1.918  0.2198  0.3573 -0.5006
 1040TIP3    H124755   0.993   5.034   1.967  1.2245  0.1748 -2.1368
 1040TIP3    H224756   0.844   5.054   1.985  0.8813 -3.8027  0.7948
 1041TIP3   OH224757   3.542   6.108   1.927 -0.1398 -0.0120  0.2799
 1041TIP3    H124758   3.497   6.167   1.987 -0.3193 -0.4799  0.6193
 1041TIP3    H224759   3.596   6.053   1.984  1.6002  1.1357 -0.1807
 1042TIP3   OH224760   2.311   0.926   0.828  0.0967 -0.2479 -0.6149
 1042TIP3    H124761   2.372   0.995   0.854  0.3896 -0.2785 -1.2102
 1042TIP3    H224762   2.315   0.925   0.732 -1.6340  0.4671 -0.7263
 1043TIP3   OH224763   0.006   0.326   7.611 -0.7107 -0.1207 -0.6400
 1043TIP3    H124764   0.093   0.300   7.580 -0.8549 -0.2042 -0.9738
 1043TIP3    H224765  -0.037   0.243   7.633 -0.4559 -0.0431  0.2103
 1044TIP3   OH224766   3.149   0.697   1.835 -0.0848 -0.1988  0.2116
 1044TIP3    H124767   3.148   0.793   1.835 -1.8350 -0.1748 -0.1852
 1044TIP3    H224768   3.109   0.674   1.751  2.5198 -1.3336 -0.8210
 1045TIP3   OH224769   0.386   6.867   0.270 -0.1897 -0.3359 -0.2979
 1045TIP3    H124770   0.342   6.906   0.345 -0.1853 -1.4949  0.3350
 1045TIP3    H224771   0.466   6.918   0.259 -1.8192  2.1445 -1.7790
 1046TIP3   OH224772   3.870   1.492   7.784 -0.7423 -0.2184  0.1805
 1046TIP3    H124773   3.927   1.456   7.717 -3.7376 -3.3064 -1.0107
 1046TIP3    H224774   3.873   1.428   7.855 -0.3941  1.1778  1.4918
 1047TIP3   OH224775   1.493   0.818   0.374  0.2846  0.1417  0.2899
 1047TIP3    H124776   1.513   0.912   0.373 -0.0375  0.3024 -3.3114
 1047TIP3    H224777   1.569   0.777   0.335 -0.4818 -0.8563 -0.1915
 1048TIP3   OH224778   5.634   5.449   1.120  0.2684  0.0221  0.1872
 1048TIP3    H124779   5.592   5.509   1.182  0.8580  0.9730 -0.3150
 1048TIP3    H224780   5.727   5.451   1.144  0.7544  1.5287 -1.5920
 1049TIP3   OH224781   0.754   4.350   6.829 -0.5841  0.2229 -0.0522
 1049TIP3    H124782   0.764   4.259   6.801 -0.8459  0.0378  0.4413
 1049TIP3    H224783   0.692   4.346   6.902  0.6526  0.6008  1.0571
 1050TIP3   OH224784   4.679   4.015   6.946  0.2996  0.0844  0.5023
 1050TIP3    H124785   4.765   4.056   6.954  1.2152 -1.3844 -1.1270
 1050TIP3    H224786   4.679   3.976   6.858 -1.6012 -0.9206  0.8957
 1051TIP3   OH224787   0.985   2.851   2.322  0.8260 -0.0993 -0.0848
 1051TIP3    H124788   0.989   2.926   2.263  0.0691  0.5494  0.6628
 1051TIP3    H224789   0.902   2.862   2.369  0.6780 -1.4261  0.0060
 1052TIP3   OH224790   6.711   2.809   0.426 -0.0383 -0.3077  0.1068
 1052TIP3    H124791   6.699   2.887   0.372  0.6709 -0.2891 -0.0279
 1052TIP3    H224792   6.739   2.741   0.365  2.1684  0.0649  0.6189
 1053TIP3   OH224793   5.535   4.034   7.161 -0.3484 -0.2622 -0.4418
 1053TIP3    H124794   5.463   4.061   7.104 -0.4172  0.6115  0.0364
 1053TIP3    H224795   5.526   3.939   7.167 -0.1385 -0.4292 -2.1397
 1054TIP3   OH224796   4.408   5.067   1.710 -0.6315  0.2945  0.5703
 1054TIP3    H124797   4.463   5.112   1.775  0.3832  1.0847 -0.7702
 1054TIP3    H224798   4.436   4.976   1.714 -1.1047  0.1803  1.7349
 1055TIP3   OH224799   5.033   4.300   7.675  0.0641 -0.0525 -0.0439
 1055TIP3    H124800   5.045   4.275   7.766  0.2629 -2.4903 -0.6723
 1055TIP3    H224801   5.110   4.265   7.630 -0.3264  0.5579 -1.2384
 1056TIP3   OH224802   4.629   0.106   7.238  0.1498 -0.6126 -0.3283
 1056TIP3    H124803   4.619   0.154   7.155  0.4394  1.6107  0.8615
 1056TIP3    H224804   4.540   0.100   7.273  0.3958  1.9045  0.9688
 1057TIP3   OH224805   5.601   5.171   0.321  0.8306  0.1945 -0.2756
 1057TIP3    H124806   5.542   5.135   0.387 -0.6755  0.8650 -1.2089
 1057TIP3    H224807   5.684   5.184   0.368 -0.5793  2.0815  1.9441
 1058TIP3   OH224808   0.406   4.446   7.928  0.4118 -0.3501  0.1889
 1058TIP3    H124809   0.310   4.451   7.922  0.3421  0.5262  1.5668
 1058TIP3    H224810   0.423   4.431   8.021  1.5988 -1.5553 -0.1933
 1059TIP3   OH224811   4.685   4.210   0.421 -0.3153 -0.3020  0.0222
 1059TIP3    H124812   4.752   4.170   0.367 -0.1283 -0.9165  0.6950
 1059TIP3    H224813   4.670   4.296   0.381  1.9806  0.4914  0.7498
 1060TIP3   OH224814   1.744   3.608   0.487  0.6334 -0.3721  0.4881
 1060TIP3    H124815   1.734   3.577   0.577  2.1732 -0.4780  0.6497
 1060TIP3    H224816   1.758   3.703   0.496  1.9853 -0.5542  0.4751
 1061TIP3   OH224817   6.760   4.645   8.698  0.5061 -0.5301  0.2036
 1061TIP3    H124818   6.680   4.631   8.648  0.6996  0.1031 -0.2985
 1061TIP3    H224819   6.746   4.729   8.742  0.9198 -0.3808  0.0542
 1062TIP3   OH224820   4.352   4.963   1.000  0.0078 -0.0174 -0.2720
 1062TIP3    H124821   4.259   4.950   0.986 -0.2512  0.8893  0.4726
 1062TIP3    H224822   4.394   4.892   0.953 -1.0386 -0.1850 -0.9787
 1063TIP3   OH224823   5.991   4.226   2.141  0.2481  0.7895 -0.0085
 1063TIP3    H124824   6.075   4.257   2.175 -0.9110  1.2323  2.7197
 1063TIP3    H224825   5.985   4.135   2.171 -0.4625  0.9257  0.2769
 1064TIP3   OH224826   0.151   2.749   0.709 -0.0793 -0.1626  0.0379
 1064TIP3    H124827   0.180   2.833   0.746  1.6077 -0.5314 -0.3626
 1064TIP3    H224828   0.064   2.736   0.747  0.3435  0.9193  1.5189
 1065TIP3   OH224829   4.374   1.537   0.494  0.1764  0.0350 -0.0151
 1065TIP3    H124830   4.392   1.598   0.565  0.2261  1.1217 -0.9314
 1065TIP3    H224831   4.281   1.550   0.474  0.7703  1.7448 -1.9316
 1066TIP3   OH224832   1.191   0.920   8.159 -0.2346  0.0779  0.0560
 1066TIP3    H124833   1.188   0.955   8.070  0.9634  1.8137  0.6455
 1066TIP3    H224834   1.248   0.980   8.207 -0.5979 -0.9821  1.9321
 1067TIP3   OH224835   6.053   4.454   1.323 -0.2349  0.3314 -0.5312
 1067TIP3    H124836   6.000   4.512   1.377  0.2859  0.3877 -0.0617
 1067TIP3    H224837   6.022   4.366   1.345 -0.4208  0.3871 -0.5726
 1068TIP3   OH224838   1.785   4.175   2.086  0.2406  0.0242 -0.8079
 1068TIP3    H124839   1.871   4.206   2.114  0.6066 -1.5043 -0.1741
 1068TIP3    H224840   1.746   4.138   2.165 -0.2353 -0.9636 -1.4913
 1069TIP3   OH224841   3.421   1.325   0.569  0.5949  0.0514  0.1563
 1069TIP3    H124842   3.426   1.302   0.662  1.2912 -1.8245 -0.2827
 1069TIP3    H224843   3.363   1.400   0.565  0.1145 -0.1763  2.0556
 1070TIP3   OH224844   0.638   5.495   8.282  0.0957 -0.2695  0.3906
 1070TIP3    H124845   0.664   5.560   8.215 -0.6567  0.3870  0.7221
 1070TIP3    H224846   0.720   5.451   8.304  0.2146 -1.2910 -1.7650
 1071TIP3   OH224847   0.307   2.087   8.634 -0.6273  0.1112  0.9229
 1071TIP3    H124848   0.383   2.131   8.673  0.3086 -0.5688 -0.0640
 1071TIP3    H224849   0.286   2.018   8.696  0.5490 -0.6622  0.5001
 1072TIP3   OH224850   1.005   3.621   0.434 -0.0149  0.2807  0.5602
 1072TIP3    H124851   1.000   3.565   0.512 -2.2055  0.7203  0.8195
 1072TIP3    H224852   1.029   3.707   0.468  1.3501 -0.0310  0.4221
 1073TIP3   OH224853   4.245   3.606   6.723 -0.8641 -0.4831  0.2344
 1073TIP3    H124854   4.253   3.642   6.635 -0.2707 -1.4171 -0.1108
 1073TIP3    H224855   4.334   3.588   6.750 -1.0639 -0.4715  0.9200
 1074TIP3   OH224856   2.332   2.753   2.690  0.2203  0.0521 -0.3904
 1074TIP3    H124857   2.274   2.808   2.742  0.0180 -0.4934 -0.0341
 1074TIP3    H224858   2.287   2.741   2.607 -0.9415 -1.6689  0.4373
 1075TIP3   OH224859   6.188   3.557   1.390 -0.2746  0.2655  0.0002
 1075TIP3    H124860   6.106   3.563   1.341  0.3236  0.0706 -1.0603
 1075TIP3    H224861   6.256   3.578   1.327  0.5685 -0.5133  0.6044
 1076TIP3   OH224862   4.349   2.619   7.881 -0.4119 -0.0030 -0.5324
 1076TIP3    H124863   4.262   2.636   7.844 -1.3612 -0.7881  1.2194
 1076TIP3    H224864   4.368   2.697   7.933 -0.9466 -0.6264  0.6255
 1077TIP3   OH224865   6.261   0.805   8.462  0.1298 -0.3500 -0.5124
 1077TIP3    H124866   6.227   0.764   8.383 -1.3316  0.7997 -0.5274
 1077TIP3    H224867   6.184   0.815   8.518  0.5092  1.8062 -0.2960
 1078TIP3   OH224868   2.167   6.721   0.810 -0.2607 -0.1817  0.0975
 1078TIP3    H124869   2.243   6.709   0.753  0.9650  0.7046  1.4723
 1078TIP3    H224870   2.093   6.724   0.750  1.0219  1.4633 -1.5558
 1079TIP3   OH224871   1.037   5.254   1.650 -0.1183 -0.3131  0.0579
 1079TIP3    H124872   1.082   5.172   1.669  1.5133  0.8504  1.4887
 1079TIP3    H224873   1.066   5.314   1.719 -0.5300  1.7413 -1.4769
 1080TIP3   OH224874   6.766   3.832   0.825  0.1433 -0.3359 -0.3372
 1080TIP3    H124875   6.711   3.780   0.883  0.5595 -2.1802 -1.5054
 1080TIP3    H224876   6.845   3.849   0.876 -1.8385  3.5285  1.8782
 1081TIP3   OH224877   4.549   0.513   1.903 -0.0674 -0.5910  0.2321
 1081TIP3    H124878   4.456   0.531   1.887 -1.3416 -3.7492  2.7614
 1081TIP3    H224879   4.576   0.458   1.829 -0.8098 -1.1314  0.3446
 1082TIP3   OH224880   0.990   5.133   8.181 -0.2778  0.3311 -0.9774
 1082TIP3    H124881   0.939   5.056   8.207 -0.3372  0.1427 -1.6158
 1082TIP3    H224882   0.931   5.181   8.122 -0.0107  0.5344 -1.0786
 1083TIP3   OH224883   2.794   4.801   7.936 -0.0361  0.4943 -0.4891
 1083TIP3    H124884   2.831   4.713   7.947 -2.6139 -0.5045  0.8856
 1083TIP3    H224885   2.844   4.855   7.998 -1.4111 -1.0423  2.1487
 1084TIP3   OH224886   3.399   2.305   7.271 -0.4259 -0.2750  0.3835
 1084TIP3    H124887   3.409   2.289   7.177 -0.6998 -1.0313  0.4742
 1084TIP3    H224888   3.350   2.229   7.303  1.2937 -0.9768  1.4800
 1085TIP3   OH224889   0.456   1.080   8.526 -0.4125 -0.0197  0.0638
 1085TIP3    H124890   0.464   1.135   8.604  1.7138 -0.9195  0.5505
 1085TIP3    H224891   0.473   1.140   8.453  2.0055  0.0529  0.5894
 1086TIP3   OH224892   0.815   5.352   8.408  0.3450  0.0947  0.3445
 1086TIP3    H124893   0.870   5.409   8.461 -0.0762  0.4635  0.3806
 1086TIP3    H224894   0.803   5.274   8.462 -0.6319  0.7338  1.0816
 1087TIP3   OH224895   4.986   2.114   8.406  0.2131  0.0425 -0.2242
 1087TIP3    H124896   5.017   2.111   8.316 -0.0831 -0.1718 -0.3235
 1087TIP3    H224897   4.944   2.199   8.415  2.4551  1.1395  0.4786
 1088TIP3   OH224898   5.993   0.481   1.849  0.3383  0.5210  0.6722
 1088TIP3    H124899   5.986   0.536   1.927  0.9471  1.3786  0.1418
 1088TIP3    H224900   6.062   0.522   1.797 -0.6671  0.4954 -0.7408
 1089TIP3   OH224901   0.870   0.180   7.774  0.4011  0.4180 -0.2823
 1089TIP3    H124902   0.852   0.089   7.750  1.5411  0.2481 -0.5234
 1089TIP3    H224903   0.849   0.185   7.867  0.5773 -0.1616 -0.2066
 1090TIP3   OH224904   4.627   2.990   1.909  0.0606  0.3765 -0.5217
 1090TIP3    H124905   4.584   3.063   1.954 -1.3694 -0.1989 -0.8930
 1090TIP3    H224906   4.648   2.928   1.979  0.3586  0.6998 -0.3233
 1091TIP3   OH224907   5.793   2.370   1.478 -0.3372  0.5348 -0.2167
 1091TIP3    H124908   5.748   2.390   1.395 -0.2758  1.6553  0.0058
 1091TIP3    H224909   5.792   2.275   1.483  0.2730  0.4056 -1.8545
 1092TIP3   OH224910   2.124   4.179   7.939 -0.4340  0.8350 -0.3442
 1092TIP3    H124911   2.037   4.160   7.903  0.0053  0.7872 -1.4397
 1092TIP3    H224912   2.148   4.262   7.897  0.7373  0.0069 -1.3866
 1093TIP3   OH224913   2.800   0.448   8.620 -0.3162 -0.3250 -0.7661
 1093TIP3    H124914   2.817   0.534   8.657  1.6630 -2.3400  3.8223
 1093TIP3    H224915   2.708   0.431   8.637 -0.8251  0.9648 -2.0935
 1094TIP3   OH224916   3.689   0.723   0.806 -0.5281 -0.1769  0.9040
 1094TIP3    H124917   3.697   0.768   0.721 -0.4006 -0.0875  0.9626
 1094TIP3    H224918   3.596   0.703   0.814 -0.4482 -0.7268  0.4697
 1095TIP3   OH224919   2.413   6.718   6.594  0.6083 -0.0159  0.2266
 1095TIP3    H124920   2.317   6.717   6.584  0.4686  2.1917  0.7283
 1095TIP3    H224921   2.441   6.632   6.565 -1.3012  0.1376 -2.5048
 1096TIP3   OH224922   1.753   5.241   1.721  0.3600 -0.1229 -0.2831
 1096TIP3    H124923   1.780   5.312   1.779 -2.5920  3.6174 -2.9673
 1096TIP3    H224924   1.829   5.224   1.666  0.7467  2.2095 -0.5771
 1097TIP3   OH224925   3.649   4.220   0.237 -0.6796 -0.3965 -0.1742
 1097TIP3    H124926   3.722   4.206   0.177  0.3438 -0.9232  1.1377
 1097TIP3    H224927   3.674   4.296   0.289 -1.9748  0.6332 -1.0014
 1098TIP3   OH224928   2.184   6.661   1.596  0.0886 -0.1169 -0.1573
 1098TIP3    H124929   2.116   6.684   1.533 -0.8965  0.0899  0.9571
 1098TIP3    H224930   2.165   6.715   1.673  1.0308 -0.6446  0.4624
 1099TIP3   OH224931   5.636   0.230   8.373 -0.1346  0.7323  0.5137
 1099TIP3    H124932   5.624   0.182   8.291  0.0894  0.8664  0.4018
 1099TIP3    H224933   5.576   0.305   8.366  1.8067  2.2830 -0.7289
 1100TIP3   OH224934   5.466   4.589   1.320 -0.1339  0.1392 -0.2176
 1100TIP3    H124935   5.477   4.494   1.315  0.5166  0.2214 -0.5794
 1100TIP3    H224936   5.377   4.605   1.290 -0.2251 -0.3540 -0.2128
 1101TIP3   OH224937   4.284   5.193   1.256  0.0262 -0.4588  0.1084
 1101TIP3    H124938   4.304   5.260   1.192  1.9032 -1.1171 -0.0497
 1101TIP3    H224939   4.212   5.229   1.307 -0.4062  0.7644 -1.2979
 1102TIP3   OH224940   0.016   3.742   8.020 -0.0465  0.1057  0.2700
 1102TIP3    H124941   0.055   3.779   7.940 -0.1241  0.6316  0.4762
 1102TIP3    H224942  -0.057   3.800   8.041 -0.4451 -0.4107  0.3518
 1103TIP3   OH224943   3.633   6.157   6.257  0.7586  1.0046 -0.0232
 1103TIP3    H124944   3.644   6.185   6.348 -0.3355 -0.0337  0.4456
 1103TIP3    H224945   3.721   6.132   6.229  0.5926 -2.3418  2.0112
 1104TIP3   OH224946   5.962   4.994   7.279 -0.1404  0.4165 -0.8291
 1104TIP3    H124947   5.945   5.050   7.355  2.1298  1.1264 -0.7807
 1104TIP3    H224948   5.895   5.020   7.216 -0.6059  1.4916  0.0626
 1105TIP3   OH224949   2.841   1.203   7.475 -0.2645 -0.4779 -0.4102
 1105TIP3    H124950   2.884   1.267   7.530  0.8497 -0.1699 -1.6095
 1105TIP3    H224951   2.834   1.125   7.530  0.5688 -0.0936  0.2567
 1106TIP3   OH224952   5.076   5.611   1.168  0.1947 -0.6160 -0.2332
 1106TIP3    H124953   5.132   5.554   1.115  0.8110  0.4124 -0.7225
 1106TIP3    H224954   5.058   5.686   1.112  2.4997  1.4751  1.6099
 1107TIP3   OH224955   4.233   3.670   8.725 -0.6115  0.3134 -0.1025
 1107TIP3    H124956   4.286   3.613   8.669 -1.5844 -1.3334  0.5772
 1107TIP3    H224957   4.258   3.759   8.699 -1.2362 -0.3353 -3.3887
 1108TIP3   OH224958   0.737   4.176   1.221  0.6172 -0.0808  0.3007
 1108TIP3    H124959   0.830   4.176   1.198  0.3909 -0.4160 -0.6574
 1108TIP3    H224960   0.697   4.114   1.160 -0.4516  1.0749 -0.2188
 1109TIP3   OH224961   6.834   0.479   0.750  0.0587 -0.0125  0.1529
 1109TIP3    H124962   6.849   0.520   0.665 -1.3453  2.2535  0.9290
 1109TIP3    H224963   6.914   0.494   0.799  0.5507 -0.5829 -0.4544
 1110TIP3   OH224964   1.911   0.347   8.512  0.5005 -0.8412 -0.5185
 1110TIP3    H124965   1.897   0.255   8.491  0.2866 -0.6261 -1.3571
 1110TIP3    H224966   2.002   0.350   8.544  0.0643 -1.5528  0.9129
 1111TIP3   OH224967   6.776   6.063   0.708 -0.1351  0.0621 -0.3854
 1111TIP3    H124968   6.824   5.989   0.673  1.9081  0.6112  1.0785
 1111TIP3    H224969   6.779   6.129   0.639 -1.2985 -0.9055 -1.3937
 1112TIP3   OH224970   1.753   6.662   1.220  0.1759 -0.3100  0.3052
 1112TIP3    H124971   1.832   6.617   1.190  0.9784  2.0096 -1.3093
 1112TIP3    H224972   1.782   6.715   1.294  0.0205  0.1090  0.0705
 1113TIP3   OH224973   2.387   4.386   8.187  0.9966 -0.0427  0.0295
 1113TIP3    H124974   2.352   4.297   8.192 -0.1699  0.3785 -0.2269
 1113TIP3    H224975   2.428   4.401   8.273 -0.9290  0.0052  0.9962
 1114TIP3   OH224976   5.827   2.985   7.366  0.0344 -0.3208 -0.1206
 1114TIP3    H124977   5.906   3.033   7.341 -0.4877  0.6564  0.0743
 1114TIP3    H224978   5.777   3.047   7.419 -0.8906 -0.9095 -0.2848
 1115TIP3   OH224979   0.315   6.714   0.828 -0.1631  0.2409  0.1956
 1115TIP3    H124980   0.298   6.807   0.841  1.3906  0.6076 -0.2075
 1115TIP3    H224981   0.305   6.676   0.916 -0.2417  0.8878  0.4744
 1116TIP3   OH224982   1.125   2.643   2.250 -0.7770 -0.1942 -0.1927
 1116TIP3    H124983   1.070   2.716   2.279  0.0817  0.0918  0.7620
 1116TIP3    H224984   1.189   2.632   2.320 -0.2216 -1.1631 -0.8333
 1117TIP3   OH224985   6.532   4.196   6.374 -0.3159  0.0395 -0.8721
 1117TIP3    H124986   6.450   4.162   6.410 -0.5806  1.6810  0.1660
 1117TIP3    H224987   6.590   4.120   6.372 -1.3555 -0.8083 -0.1250
 1118TIP3   OH224988   1.998   3.326   7.719 -0.1379 -0.3701 -0.0006
 1118TIP3    H124989   2.023   3.307   7.809 -1.2860 -1.1188  0.1924
 1118TIP3    H224990   1.902   3.317   7.719 -0.1118 -0.8770 -1.3930
 1119TIP3   OH224991   3.427   4.362   8.127  0.1739  0.2028  0.1846
 1119TIP3    H124992   3.494   4.337   8.063  0.0741  0.8544 -0.1847
 1119TIP3    H224993   3.449   4.453   8.150 -0.7373  0.5171 -0.1512
 1120TIP3   OH224994   1.969   6.571   1.055 -0.1230  0.1906  0.0826
 1120TIP3    H124995   1.975   6.643   0.992  1.2757  0.5559  0.5940
 1120TIP3    H224996   2.045   6.583   1.111 -0.6119 -0.9235  1.0069
 1121TIP3   OH224997   3.440   2.022   1.827 -0.9626 -0.1338 -0.5403
 1121TIP3    H124998   3.516   2.000   1.881 -0.2575 -3.0454 -2.5113
 1121TIP3    H224999   3.439   2.118   1.824  2.2628  0.0105  0.0545
 1122TIP3   OH225000   6.197   1.521   0.631 -0.3922  0.0977  0.0725
 1122TIP3    H125001   6.150   1.444   0.663  0.7035 -0.3993  0.5530
 1122TIP3    H225002   6.282   1.487   0.603 -0.2918  0.9746 -0.7470
 1123TIP3   OH225003   1.276   5.936   7.327  0.1595 -0.5559  0.4957
 1123TIP3    H125004   1.314   5.907   7.410  1.7930 -0.8203 -0.3103
 1123TIP3    H225005   1.249   5.854   7.284 -1.9140 -0.3432  1.2890
 1124TIP3   OH225006   0.389   1.492   7.173  1.0898  0.3325 -0.0361
 1124TIP3    H125007   0.320   1.546   7.209  1.6152  0.7397  0.3742
 1124TIP3    H225008   0.361   1.402   7.190  1.7055  0.5008  2.1562
 1125TIP3   OH225009   3.596   0.833   0.194 -0.2688 -0.0141  0.5598
 1125TIP3    H125010   3.667   0.809   0.253 -1.4437  2.1905  3.1083
 1125TIP3    H225011   3.589   0.928   0.202 -3.2309 -0.1004  0.1590
 1126TIP3   OH225012   5.803   0.979   0.188  0.3387 -0.3063 -0.2679
 1126TIP3    H125013   5.793   0.992   0.094 -2.7922  0.7819  0.1146
 1126TIP3    H225014   5.866   1.046   0.215  0.5904 -0.0429 -1.4410
 1127TIP3   OH225015   0.274   1.098   0.218 -0.1327  0.4599 -0.5574
 1127TIP3    H125016   0.265   1.089   0.313 -0.4915  0.4147 -0.5936
 1127TIP3    H225017   0.362   1.134   0.205  0.8390 -1.6690 -0.3325
 1128TIP3   OH225018   0.066   3.255   7.812  0.1665 -0.2322 -0.6282
 1128TIP3    H125019   0.018   3.184   7.769 -1.4891  0.7533 -0.4988
 1128TIP3    H225020  -0.002   3.307   7.854  1.1772  2.1890 -1.8333
 1129TIP3   OH225021   4.995   5.982   1.538  0.0004  0.2868  0.3454
 1129TIP3    H125022   4.926   5.951   1.479 -0.8575  1.5081  0.6754
 1129TIP3    H225023   4.972   6.073   1.557  2.3262  1.1131 -0.4278
 1130TIP3   OH225024   3.204   6.353   6.960  0.7155  0.5362 -0.1263
 1130TIP3    H125025   3.140   6.333   7.029  0.8405  0.1346 -0.1244
 1130TIP3    H225026   3.218   6.270   6.915 -0.5189  1.0975 -1.6371
 1131TIP3   OH225027   5.554   5.593   7.192 -0.5032  0.2981  0.2726
 1131TIP3    H125028   5.626   5.655   7.204 -0.4424  0.2726  0.0373
 1131TIP3    H225029   5.500   5.604   7.270  1.0535 -1.4495  1.6858
 1132TIP3   OH225030   5.341   6.423   0.233  0.2277 -0.2944  0.3213
 1132TIP3    H125031   5.385   6.397   0.152 -0.4894 -0.2527 -0.0854
 1132TIP3    H225032   5.267   6.363   0.240 -0.5937  0.6773  0.1459
 1133TIP3   OH225033   2.113   3.452   6.673  0.4004  0.0048  0.7604
 1133TIP3    H125034   2.023   3.480   6.661  0.6492  1.2565  1.6965
 1133TIP3    H225035   2.162   3.532   6.691  1.9648 -0.4590 -1.0663
 1134TIP3   OH225036   2.322   1.981   0.553  0.2709 -0.4584 -0.5711
 1134TIP3    H125037   2.413   1.950   0.543  0.2181 -0.5631 -0.7416
 1134TIP3    H225038   2.305   1.975   0.647  1.2754  1.9278 -0.1511
 1135TIP3   OH225039   6.211   5.636   0.712  0.8102  0.0346  0.0840
 1135TIP3    H125040   6.125   5.598   0.693  0.5428  0.3308  0.6889
 1135TIP3    H225041   6.270   5.561   0.717  0.1279 -0.4050  2.1373
 1136TIP3   OH225042   1.901   4.877   6.715  0.3448  0.4925  0.3312
 1136TIP3    H125043   1.844   4.861   6.791 -0.1483  1.4110  0.1670
 1136TIP3    H225044   1.841   4.901   6.645  0.5570 -2.5794 -1.0787
 1137TIP3   OH225045   0.265   2.441   7.995 -0.8334  0.3510 -1.0495
 1137TIP3    H125046   0.194   2.454   8.058 -0.6172 -0.3691 -0.6559
 1137TIP3    H225047   0.242   2.499   7.922 -1.6302  0.4042 -0.7658
 1138TIP3   OH225048   3.068   4.258   0.231 -0.0303 -0.0670  0.6211
 1138TIP3    H125049   3.100   4.347   0.244 -1.0732  0.6618 -1.3238
 1138TIP3    H225050   3.146   4.208   0.207  0.3844  0.5908  0.5679
 1139TIP3   OH225051   0.550   3.227   2.429  0.0588 -0.2333  0.1849
 1139TIP3    H125052   0.641   3.244   2.452 -0.0284 -0.4727  0.7252
 1139TIP3    H225053   0.499   3.271   2.497 -0.1791 -2.0987  1.3017
 1140TIP3   OH225054   1.975   6.275   7.681 -0.0975  0.5702 -0.4127
 1140TIP3    H125055   1.900   6.330   7.657  0.1413  1.5672  0.9857
 1140TIP3    H225056   2.038   6.290   7.611 -1.5597 -1.1225 -2.1907
 1141TIP3   OH225057   0.192   5.958   1.270 -0.1115  0.0538  0.1304
 1141TIP3    H125058   0.117   5.968   1.329  0.5687  1.3926  0.8292
 1141TIP3    H225059   0.208   5.864   1.267 -0.5149 -0.0897  1.6413
 1142TIP3   OH225060   2.249   1.772   1.400 -0.3017 -0.5664  0.7869
 1142TIP3    H125061   2.164   1.777   1.356 -0.3763 -1.1174  0.8644
 1142TIP3    H225062   2.229   1.735   1.486 -0.1264  0.3109  1.2185
 1143TIP3   OH225063   6.615   4.739   0.148  0.9689  0.0449 -0.2456
 1143TIP3    H125064   6.653   4.812   0.198 -0.3469  0.5851 -0.0009
 1143TIP3    H225065   6.524   4.735   0.176  0.7845 -1.1315 -0.9276
 1144TIP3   OH225066   3.755   2.358   1.467  0.1222 -0.2790 -0.3809
 1144TIP3    H125067   3.671   2.322   1.496  0.4172 -1.2731 -0.6902
 1144TIP3    H225068   3.743   2.452   1.468 -0.5448 -0.3479  0.9560
 1145TIP3   OH225069   3.074   4.928   8.078  0.4372 -0.7305 -0.3200
 1145TIP3    H125070   3.047   4.996   8.017 -0.8687 -2.0310 -1.2683
 1145TIP3    H225071   3.143   4.880   8.032  0.4026 -0.8791 -0.2199
 1146TIP3   OH225072   1.936   5.141   1.547 -0.1655  0.5587  0.2288
 1146TIP3    H125073   1.874   5.081   1.505 -0.5435  0.4436  0.9389
 1146TIP3    H225074   2.005   5.084   1.580  0.1551  0.6539 -0.2686
 1147TIP3   OH225075   3.867   6.109   2.414  0.0930  0.4257  0.4375
 1147TIP3    H125076   3.793   6.081   2.468  0.1061 -1.5578 -0.4937
 1147TIP3    H225077   3.944   6.095   2.469 -0.0692  0.7378  0.7502
 1148TIP3   OH225078   1.739   2.832   7.781 -0.0823  0.3357 -0.2986
 1148TIP3    H125079   1.814   2.882   7.748  2.1568 -2.1107  0.7764
 1148TIP3    H225080   1.691   2.807   7.702  0.6662  1.2825 -1.0796
 1149TIP3   OH225081   4.474   6.356   0.888 -0.1532 -0.0759 -0.5755
 1149TIP3    H125082   4.529   6.372   0.965  0.0814  1.7066 -1.0565
 1149TIP3    H225083   4.385   6.373   0.919  0.0485  1.9915 -0.9521
 1150TIP3   OH225084   3.603   2.036   7.983 -0.1797  0.0480  0.2081
 1150TIP3    H125085   3.633   2.004   8.068  0.2214 -0.6710 -0.1947
 1150TIP3    H225086   3.520   1.991   7.968 -0.8706  1.1057  0.7660
 1151TIP3   OH225087   6.012   3.036   0.312 -0.8905 -0.1923  0.0045
 1151TIP3    H125088   5.988   3.055   0.221  0.3774 -0.3956 -0.3921
 1151TIP3    H225089   5.986   2.945   0.324 -2.7264  0.3498  0.4458
 1152TIP3   OH225090   1.459   4.954   1.607  0.6140  0.3286 -0.0464
 1152TIP3    H125091   1.434   4.952   1.699 -0.3900 -0.0521 -0.3204
 1152TIP3    H225092   1.468   5.047   1.587  3.1702  0.4100  1.0158
 1153TIP3   OH225093   0.761   4.577   8.251  0.4071 -0.0334 -0.3477
 1153TIP3    H125094   0.735   4.666   8.227  1.3382 -0.3043 -2.5913
 1153TIP3    H225095   0.815   4.547   8.178  3.2790 -1.1079  2.0350
 1154TIP3   OH225096   4.430   1.650   7.424  0.1662 -0.2805 -0.4911
 1154TIP3    H125097   4.449   1.576   7.366  0.4870  0.8360 -1.8560
 1154TIP3    H225098   4.429   1.726   7.366 -0.7289  0.7230  0.7899
 1155TIP3   OH225099   1.132   0.705   0.995  0.5486  0.3160 -1.2460
 1155TIP3    H125100   1.209   0.754   1.024  1.7555 -1.5966 -1.0080
 1155TIP3    H225101   1.165   0.616   0.980 -1.4133 -0.3130 -2.1656
 1156TIP3   OH225102   5.818   3.668   1.813 -0.4425 -0.1646 -0.7693
 1156TIP3    H125103   5.768   3.608   1.867  0.4737 -0.2867 -0.0266
 1156TIP3    H225104   5.910   3.643   1.828 -0.0924  0.8697 -1.1022
 1157TIP3   OH225105   4.662   2.032   1.380  0.3080  0.3732  0.1436
 1157TIP3    H125106   4.571   2.060   1.383  0.1476  0.0501 -1.0019
 1157TIP3    H225107   4.713   2.111   1.396 -0.1626  0.6774  0.1513
 1158TIP3   OH225108   0.056   6.581   0.795 -0.5851 -0.2995  0.2728
 1158TIP3    H125109   0.138   6.629   0.801 -0.2358 -0.8880  0.1886
 1158TIP3    H225110   0.081   6.489   0.795 -1.2846 -0.4949  0.8643
 1159TIP3   OH225111   5.975   1.507   7.573  0.3782  0.3356  0.7514
 1159TIP3    H125112   6.028   1.429   7.557  0.8173  0.6974  0.4156
 1159TIP3    H225113   5.887   1.482   7.547  0.3705 -0.2832  1.3402
 1160TIP3   OH225114   6.644   3.855   7.644  0.0069  0.3646 -0.2415
 1160TIP3    H125115   6.643   3.764   7.672  0.2626  0.3395 -0.3135
 1160TIP3    H225116   6.603   3.903   7.716  2.6865  0.6083  1.2540
 1161TIP3   OH225117   2.406   0.401   8.404  0.1348 -0.4965  0.4235
 1161TIP3    H125118   2.455   0.442   8.333 -1.2823 -0.1503 -0.3918
 1161TIP3    H225119   2.454   0.424   8.483 -0.1270  2.0329 -0.0922
 1162TIP3   OH225120   1.101   3.240   1.645 -0.2119  0.1592 -0.1050
 1162TIP3    H125121   1.196   3.236   1.657 -0.3134 -0.8503  0.4472
 1162TIP3    H225122   1.089   3.273   1.556  0.6668 -0.7845 -0.5827
 1163TIP3   OH225123   5.941   0.826   7.928 -0.5133 -0.0929  0.3815
 1163TIP3    H125124   5.938   0.737   7.893 -3.6224  0.2343 -0.4912
 1163TIP3    H225125   5.856   0.837   7.971  0.5802  1.8324  2.2342
 1164TIP3   OH225126   6.151   4.890   8.342  0.1355  0.3641  0.2441
 1164TIP3    H125127   6.201   4.926   8.269  3.7085  1.4099  2.8851
 1164TIP3    H225128   6.127   4.967   8.394 -0.2246 -0.4538  1.3327
 1165TIP3   OH225129   2.363   3.129   8.408  0.3772  0.3051 -0.8011
 1165TIP3    H125130   2.301   3.137   8.336  0.8309  0.0662 -1.2219
 1165TIP3    H225131   2.403   3.043   8.396 -0.3847 -0.2452  0.4160
 1166TIP3   OH225132   4.032   6.498   7.163 -0.2572  0.1104  0.0744
 1166TIP3    H125133   4.053   6.502   7.070  0.2254 -0.7474  0.1385
 1166TIP3    H225134   4.082   6.570   7.201 -1.3855  1.2295 -0.4778
 1167TIP3   OH225135   5.250   6.866   0.941  0.3937  0.0103  0.6707
 1167TIP3    H125136   5.293   6.900   0.862 -1.8180  1.9155  0.1760
 1167TIP3    H225137   5.171   6.822   0.909 -0.1003  0.0536  1.7700
 1168TIP3   OH225138   4.414   0.406   7.503 -0.3217 -0.2615 -0.1652
 1168TIP3    H125139   4.496   0.428   7.548  0.1023  0.9223 -1.4531
 1168TIP3    H225140   4.359   0.483   7.513 -1.3252 -1.0567  0.7081
 1169TIP3   OH225141   2.368   3.841   0.308 -0.0079  0.0212  0.2693
 1169TIP3    H125142   2.429   3.914   0.313  1.3060 -1.0911  1.1887
 1169TIP3    H225143   2.282   3.883   0.298  0.3229  1.8494  3.5557
 1170TIP3   OH225144   1.405   6.573   1.701  0.1053  0.1000 -0.1100
 1170TIP3    H125145   1.486   6.586   1.652  0.7531  0.1352  0.9348
 1170TIP3    H225146   1.340   6.626   1.655  1.0306  1.3140 -0.0865
 1171TIP3   OH225147   5.651   6.117   0.494 -0.4723  0.3296  0.3227
 1171TIP3    H125148   5.625   6.209   0.502  0.7684  0.6460  1.1977
 1171TIP3    H225149   5.736   6.113   0.538 -0.7633 -1.3590  0.8057
 1172TIP3   OH225150   3.602   5.412   7.382  0.1468 -0.0184 -0.1989
 1172TIP3    H125151   3.575   5.324   7.409 -0.6032  0.2688  0.0277
 1172TIP3    H225152   3.697   5.411   7.386  0.1039 -0.3049  1.5072
 1173TIP3   OH225153   5.867   3.517   6.076  0.4303  0.1835 -0.6187
 1173TIP3    H125154   5.945   3.545   6.028  0.5338 -0.2439 -0.7048
 1173TIP3    H225155   5.817   3.598   6.089 -0.6962  0.0370 -3.3837
 1174TIP3   OH225156   0.206   6.369   7.520  1.2657 -0.0670 -0.7126
 1174TIP3    H125157   0.185   6.434   7.453  1.2200 -0.9045 -1.5242
 1174TIP3    H225158   0.301   6.377   7.532  1.0583  1.2606  0.3944
 1175TIP3   OH225159   4.472   4.071   6.351 -0.9681 -0.0615 -0.5681
 1175TIP3    H125160   4.380   4.091   6.337 -1.2195 -1.7971 -1.8234
 1175TIP3    H225161   4.472   4.009   6.424 -0.8722 -0.5607 -0.9863
 1176TIP3   OH225162   2.632   4.998   1.558 -0.0913  0.1268  0.1505
 1176TIP3    H125163   2.597   4.914   1.587 -0.9854  0.2828 -0.4404
 1176TIP3    H225164   2.696   5.022   1.624  1.1261 -1.6417 -0.3160
 1177TIP3   OH225165   1.695   6.527   7.263 -0.0973  0.0952  0.4430
 1177TIP3    H125166   1.703   6.607   7.210 -0.6704  0.1886  0.4932
 1177TIP3    H225167   1.631   6.549   7.330 -1.7283 -0.9888 -0.6704
 1178TIP3   OH225168   2.333   0.603   7.256  0.3528  0.4994 -0.2765
 1178TIP3    H125169   2.375   0.524   7.291  2.2400  1.1563 -0.9174
 1178TIP3    H225170   2.268   0.627   7.322 -1.3153 -2.3423 -0.7140
 1179TIP3   OH225171   6.221   5.804   1.435  0.2578 -0.0830 -0.4662
 1179TIP3    H125172   6.217   5.890   1.393  1.3129  0.1723 -0.0730
 1179TIP3    H225173   6.219   5.822   1.528  3.3789 -0.2279 -0.2747
 1180TIP3   OH225174   5.207   6.201   0.161 -0.0620  0.1640 -0.2784
 1180TIP3    H125175   5.180   6.210   0.070  1.4403 -1.2628 -0.9218
 1180TIP3    H225176   5.286   6.148   0.157  0.8603  1.2783  1.7595
 1181TIP3   OH225177   4.000   0.168   0.090 -0.3980 -0.4835 -0.0870
 1181TIP3    H125178   4.034   0.102   0.029 -1.4733 -0.3925 -0.8279
 1181TIP3    H225179   3.934   0.121   0.141  0.3629 -0.5073  0.8888
 1182TIP3   OH225180   3.887   1.315   0.483 -0.2945 -0.0881 -0.3402
 1182TIP3    H125181   3.901   1.396   0.533 -1.3180 -0.3460  0.3794
 1182TIP3    H225182   3.806   1.331   0.435  0.8271  0.2833 -2.2285
 1183TIP3   OH225183   0.696   0.649   7.651 -0.2956 -0.3052 -0.1027
 1183TIP3    H125184   0.618   0.630   7.598  0.6238 -0.3563 -1.4841
 1183TIP3    H225185   0.661   0.690   7.730 -1.5949  2.0096 -1.7343
 1184TIP3   OH225186   0.204   6.793   0.085 -0.4065 -0.1241  0.6632
 1184TIP3    H125187   0.151   6.868   0.113 -0.7204 -0.7237  1.7165
 1184TIP3    H225188   0.281   6.796   0.142  0.8781  0.8950 -1.0246
 1185TIP3   OH225189   5.893   3.701   1.556  0.3198 -0.3760  0.5358
 1185TIP3    H125190   5.864   3.653   1.634 -0.1128  1.3720  1.5239
 1185TIP3    H225191   5.982   3.729   1.578  1.2941 -2.2047 -0.7920
 1186TIP3   OH225192   2.615   4.813   1.848  0.1291 -0.1308  0.4415
 1186TIP3    H125193   2.709   4.835   1.849  0.6431 -2.1565  0.2037
 1186TIP3    H225194   2.603   4.756   1.924 -0.6441 -0.9394 -0.2733
 1187TIP3   OH225195   3.275   1.482   7.212  0.8448  0.2254 -0.9418
 1187TIP3    H125196   3.298   1.438   7.294  1.6323  1.4109 -0.5064
 1187TIP3    H225197   3.184   1.509   7.224  1.2877  1.3717  0.0069
 1188TIP3   OH225198   2.341   5.078   0.472  0.0006  0.0215 -0.3142
 1188TIP3    H125199   2.380   5.026   0.403 -0.5362  0.8619 -1.2777
 1188TIP3    H225200   2.365   5.169   0.451 -0.0014  0.2761  0.7120
 1189TIP3   OH225201   0.568   3.225   0.859 -0.2645 -0.1619  0.0146
 1189TIP3    H125202   0.639   3.164   0.841 -1.8203 -1.4357 -2.3294
 1189TIP3    H225203   0.550   3.267   0.775 -2.4020 -0.0425  0.4784
 1190TIP3   OH225204   3.244   2.364   6.337  0.6693  0.5303  0.3402
 1190TIP3    H125205   3.186   2.421   6.286 -1.0695  0.3702  2.0576
 1190TIP3    H225206   3.271   2.418   6.411  2.9258  0.6476 -0.4870
 1191TIP3   OH225207   0.628   0.543   0.364 -0.2839  0.2529  0.4055
 1191TIP3    H125208   0.553   0.500   0.323  0.0398  0.1614 -0.1064
 1191TIP3    H225209   0.662   0.602   0.296  0.4798 -0.1662  0.4178
 1192TIP3   OH225210   4.140   5.565   7.454 -0.2032 -0.3790  0.1077
 1192TIP3    H125211   4.155   5.493   7.392 -4.2889 -2.1940  0.8548
 1192TIP3    H225212   4.095   5.632   7.402  0.8494  0.3073  0.0715
 1193TIP3   OH225213   2.090   2.445   8.081  0.4112  0.1267  0.4984
 1193TIP3    H125214   2.015   2.500   8.105  1.7430  1.9574  0.7173
 1193TIP3    H225215   2.051   2.361   8.056 -1.6682  0.8833  0.9520
 1194TIP3   OH225216   4.787   4.402   1.312 -0.0815 -0.1835  0.1359
 1194TIP3    H125217   4.727   4.457   1.261 -2.3031 -0.4757  2.2709
 1194TIP3    H225218   4.867   4.399   1.259 -0.4679  3.5881 -0.9291
 1195TIP3   OH225219   3.301   3.981   5.961 -0.2689 -0.0510  0.3519
 1195TIP3    H125220   3.339   4.001   6.046 -0.8272 -2.6057  1.2907
 1195TIP3    H225221   3.371   3.939   5.912 -0.6331 -0.8210  0.4799
 1196TIP3   OH225222   5.334   1.947   7.109 -0.5801  0.2078  0.1651
 1196TIP3    H125223   5.359   2.005   7.181  0.1079 -0.7438  0.7078
 1196TIP3    H225224   5.416   1.912   7.076 -1.0245 -1.2579  0.5243
 1197TIP3   OH225225   1.097   5.088   0.809 -0.4033 -0.3533 -0.5775
 1197TIP3    H125226   1.171   5.122   0.758 -1.6154  0.1635 -2.0655
 1197TIP3    H225227   1.073   5.161   0.867 -0.1630 -0.2825 -0.5649
 1198TIP3   OH225228   5.981   2.056   7.867 -0.0317 -0.2360  0.0965
 1198TIP3    H125229   5.972   2.043   7.773 -1.6142 -0.7202  0.2875
 1198TIP3    H225230   5.979   1.967   7.904  2.6270 -0.2252  0.4898
 1199TIP3   OH225231   2.382   0.245   7.641  0.8032 -0.0453  0.1489
 1199TIP3    H125232   2.441   0.279   7.709  1.6587  0.5928 -0.8889
 1199TIP3    H225233   2.332   0.177   7.686  1.6258  0.0830  1.3257
 1200TIP3   OH225234   4.735   2.460   2.451 -0.1421 -0.4291 -0.1973
 1200TIP3    H125235   4.688   2.420   2.378 -1.1762  0.5877 -0.1058
 1200TIP3    H225236   4.702   2.549   2.457 -0.1212 -0.4858  1.5380
 1201TIP3   OH225237   5.124   0.617   0.523  0.1879 -0.5759  0.0615
 1201TIP3    H125238   5.124   0.530   0.564  1.5036 -0.4293  0.4278
 1201TIP3    H225239   5.063   0.669   0.575 -0.3960 -1.1997  0.0091
 1202TIP3   OH225240   1.111   1.424   6.939  0.0013  0.5689 -0.3757
 1202TIP3    H125241   1.122   1.348   6.882  1.1354 -0.7213  1.4621
 1202TIP3    H225242   1.092   1.386   7.026  2.2182  2.2914  0.9526
 1203TIP3   OH225243   5.060   0.337   2.182 -0.6513 -0.2570  0.1880
 1203TIP3    H125244   5.057   0.407   2.116  0.1224  0.4441  0.8690
 1203TIP3    H225245   5.000   0.367   2.251 -0.5971 -0.4379  0.3140
 1204TIP3   OH225246   5.853   5.399   1.961  0.0789 -0.1931  0.2157
 1204TIP3    H125247   5.891   5.312   1.958 -0.0513 -0.2874  0.9979
 1204TIP3    H225248   5.926   5.459   1.948  0.3343 -0.3973  0.6990
 1205TIP3   OH225249   2.431   1.315   2.142 -0.2080  0.0566  0.3320
 1205TIP3    H125250   2.490   1.351   2.076 -0.0032  0.6336  0.8200
 1205TIP3    H225251   2.485   1.307   2.220 -0.8290  0.8286  0.8558
 1206TIP3   OH225252   1.733   4.045   7.664 -0.1947  0.6689 -0.0492
 1206TIP3    H125253   1.813   4.002   7.696 -1.4065 -1.2128  0.6339
 1206TIP3    H225254   1.710   3.996   7.585 -0.4203  1.5252 -0.5270
 1207TIP3   OH225255   2.837   5.118   0.562 -0.0701  0.0054 -0.0997
 1207TIP3    H125256   2.843   5.029   0.599  0.6544 -0.6455 -1.7133
 1207TIP3    H225257   2.851   5.106   0.468 -1.2193  1.6918 -0.5327
 1208TIP3   OH225258   3.437   5.461   8.690 -0.1298 -0.1186 -0.1945
 1208TIP3    H125259   3.371   5.467   8.620  0.2342  0.3343 -0.5028
 1208TIP3    H225260   3.510   5.514   8.659 -0.5650  1.3895  1.1986
 1209TIP3   OH225261   2.172   5.189   6.438 -0.2273 -0.9236  0.4071
 1209TIP3    H125262   2.158   5.103   6.399 -0.2599 -1.2653  1.1670
 1209TIP3    H225263   2.266   5.193   6.453  0.0778 -0.0280 -1.4370
 1210TIP3   OH225264   0.953   1.530   2.473 -0.3484 -0.2058 -0.4026
 1210TIP3    H125265   0.967   1.444   2.434  0.4386 -1.1880  1.8445
 1210TIP3    H225266   0.892   1.514   2.545  0.2058  0.9883  0.3769
 1211TIP3   OH225267   3.795   6.821   8.051  0.4807 -0.2287  0.9316
 1211TIP3    H125268   3.809   6.783   8.138  2.5374 -0.4634  0.5662
 1211TIP3    H225269   3.798   6.916   8.065 -1.6574 -0.1870  1.4197
 1212TIP3   OH225270   5.243   2.673   7.339 -0.3796  0.5564 -0.3652
 1212TIP3    H125271   5.272   2.763   7.327 -0.6216  0.5031 -1.4370
 1212TIP3    H225272   5.155   2.671   7.301 -0.1158 -0.2848 -0.9583
 1213TIP3   OH225273   0.474   0.858   1.423  0.2616  0.1160 -0.1039
 1213TIP3    H125274   0.461   0.895   1.510 -1.7033  0.3413 -0.4492
 1213TIP3    H225275   0.428   0.774   1.425  1.6103 -0.6803 -0.4550
 1214TIP3   OH225276   5.877   6.578   6.367 -0.6229 -0.0819 -0.7295
 1214TIP3    H125277   5.789   6.543   6.351 -1.5127 -0.0639  3.1171
 1214TIP3    H225278   5.864   6.643   6.435  2.5782 -1.7491  1.7107
 1215TIP3   OH225279   6.715   2.941   6.429  0.2620 -0.0693 -0.6063
 1215TIP3    H125280   6.636   2.961   6.479 -0.3561  0.3725 -1.6974
 1215TIP3    H225281   6.690   2.960   6.338  1.4861 -0.3672 -1.0218
 1216TIP3   OH225282   5.732   4.649   0.769  0.1014  0.2761 -0.0472
 1216TIP3    H125283   5.772   4.564   0.787  1.5937  1.1866  1.2237
 1216TIP3    H225284   5.704   4.644   0.678  1.6597 -1.0041 -0.4982
 1217TIP3   OH225285   2.825   5.097   7.439 -0.2346 -0.2440  0.0385
 1217TIP3    H125286   2.798   5.009   7.466  1.3065 -0.5297  0.8068
 1217TIP3    H225287   2.876   5.083   7.360 -1.3185  0.1549 -0.7496
 1218TIP3   OH225288   1.940   2.189   0.011  0.4805  0.2312 -0.5239
 1218TIP3    H125289   1.860   2.187   0.064  0.3819  0.9479 -0.6303
 1218TIP3    H225290   1.916   2.142  -0.069 -0.1493  1.2660 -0.9631
 1219TIP3   OH225291   3.418   3.254   8.322  0.2788  0.2877 -0.3940
 1219TIP3    H125292   3.332   3.230   8.289 -0.3749  0.1449  1.3152
 1219TIP3    H225293   3.470   3.272   8.243 -1.3015  0.3983 -1.4562
 1220TIP3   OH225294   5.066   0.196   6.319 -0.1173 -0.7212  0.4218
 1220TIP3    H125295   4.983   0.241   6.338  0.3009  0.1921  0.1571
 1220TIP3    H225296   5.059   0.172   6.227  2.4390  5.3064 -1.8309
 1221TIP3   OH225297   6.462   4.319   7.919 -0.3245  0.6777 -0.2339
 1221TIP3    H125298   6.531   4.256   7.940 -0.7181 -0.2947 -1.7858
 1221TIP3    H225299   6.389   4.294   7.976  0.1936  1.0109  0.5997
 1222TIP3   OH225300   1.215   3.202   8.618 -0.5821 -0.1343 -0.0294
 1222TIP3    H125301   1.177   3.276   8.570 -2.7844 -0.8672  0.4627
 1222TIP3    H225302   1.147   3.134   8.614 -0.1954 -0.7930  2.7100
 1223TIP3   OH225303   6.376   3.819   8.088  0.0399 -0.4696  0.0439
 1223TIP3    H125304   6.426   3.750   8.131 -2.4679 -2.2223  0.3746
 1223TIP3    H225305   6.372   3.794   7.996  2.4448  1.4322 -0.6718
 1224TIP3   OH225306   0.600   5.152   1.726 -0.4329 -0.2812 -0.4429
 1224TIP3    H125307   0.675   5.093   1.720 -2.1714 -2.7863  0.7354
 1224TIP3    H225308   0.575   5.150   1.818 -0.0209  3.1699 -0.1375
 1225TIP3   OH225309   2.975   3.407   1.609 -0.3369  0.3214 -0.0976
 1225TIP3    H125310   3.023   3.397   1.691 -2.0150 -0.2221  0.8517
 1225TIP3    H225311   2.947   3.499   1.608  2.0363  1.1333 -1.4693
 1226TIP3   OH225312   2.270   0.164   0.568 -0.7713  0.1362 -0.3194
 1226TIP3    H125313   2.273   0.244   0.516 -0.1318  0.6754  0.5255
 1226TIP3    H225314   2.185   0.167   0.611 -0.2359  1.0418  0.7269
 1227TIP3   OH225315   4.789   5.918   1.369  0.2541  0.3981 -0.5298
 1227TIP3    H125316   4.850   5.934   1.297  0.5491 -1.1391 -0.6588
 1227TIP3    H225317   4.702   5.920   1.328  0.2546  1.7478 -0.4979
 1228TIP3   OH225318   1.335   1.976   8.179  0.3700 -0.0920 -0.0279
 1228TIP3    H125319   1.368   1.943   8.263 -0.1736 -2.3073 -0.6358
 1228TIP3    H225320   1.241   1.961   8.182 -0.0117  1.9333 -0.1743
 1229TIP3   OH225321   0.332   2.034   1.514  0.2047 -0.1480 -0.4108
 1229TIP3    H125322   0.306   1.944   1.533 -1.0352  0.0817 -0.9850
 1229TIP3    H225323   0.309   2.082   1.593 -0.4332 -0.0873 -0.6280
 1230TIP3   OH225324   4.673   1.042   0.219  0.4273 -0.2639 -0.5540
 1230TIP3    H125325   4.645   1.024   0.130  2.2558 -0.7623 -1.0604
 1230TIP3    H225326   4.601   1.008   0.274 -1.3716  1.3407 -1.8157
 1231TIP3   OH225327   5.756   3.673   8.057  0.0638  0.3500 -0.1657
 1231TIP3    H125328   5.788   3.586   8.033  0.9655  0.7678 -0.5146
 1231TIP3    H225329   5.699   3.698   7.985 -0.9800 -0.3478  0.4007
 1232TIP3   OH225330   5.992   5.735   7.292 -0.0334 -0.2637  0.6138
 1232TIP3    H125331   6.062   5.720   7.357  1.2926 -1.8038 -1.0670
 1232TIP3    H225332   5.915   5.693   7.330  0.8471 -1.6050  0.9852
 1233TIP3   OH225333   5.390   0.221   1.050  0.5201  0.1645  0.0675
 1233TIP3    H125334   5.332   0.151   1.020 -2.0384  1.7247  1.0005
 1233TIP3    H225335   5.391   0.284   0.977 -0.3697  0.9003  0.6599
 1234TIP3   OH225336   2.136   6.679   6.596  0.4747  0.3436  0.5335
 1234TIP3    H125337   2.087   6.758   6.616  1.7284  3.0961 -5.1808
 1234TIP3    H225338   2.076   6.625   6.544  1.8074  1.7471 -2.7874
 1235TIP3   OH225339   3.517   0.526   0.380 -0.2474  0.0674  0.3622
 1235TIP3    H125340   3.475   0.502   0.463 -0.2081  0.8625  0.6168
 1235TIP3    H225341   3.470   0.604   0.351  1.2203  1.1465  0.7956
 1236TIP3   OH225342   6.074   0.547   8.535  0.8824  1.0081  0.2037
 1236TIP3    H125343   6.010   0.538   8.465 -0.1321  1.4049  1.0498
 1236TIP3    H225344   6.058   0.634   8.571 -0.0960  0.0420  2.2935
 1237TIP3   OH225345   6.516   5.594   7.342  0.3643  0.0492  0.3245
 1237TIP3    H125346   6.568   5.640   7.276 -0.4252 -0.2035 -0.4894
 1237TIP3    H225347   6.533   5.642   7.423  1.2876  0.4135 -0.0681
 1238TIP3   OH225348   5.735   4.351   1.179  0.1429 -0.4423 -0.3724
 1238TIP3    H125349   5.788   4.318   1.251 -1.4647  1.1217  1.6520
 1238TIP3    H225350   5.644   4.341   1.210 -0.5527  1.3491 -1.6804
 1239TIP3   OH225351   4.036   1.344   7.591  0.4487  0.1560 -0.2754
 1239TIP3    H125352   4.063   1.253   7.581  0.8881  0.3064 -0.4997
 1239TIP3    H225353   4.117   1.395   7.578  0.3139  0.5489  0.3932
 1240TIP3   OH225354   2.506   1.109   2.565 -0.1204  0.0751 -0.1535
 1240TIP3    H125355   2.524   1.067   2.649 -0.3688  3.2499  1.6491
 1240TIP3    H225356   2.423   1.155   2.578  0.1021  1.1040 -1.9671
 1241TIP3   OH225357   3.067   0.494   8.188 -0.5592 -0.0330 -0.0212
 1241TIP3    H125358   3.047   0.438   8.263 -1.2954 -1.9845 -1.5852
 1241TIP3    H225359   3.010   0.570   8.199  0.3299  0.4266  2.0630
 1242TIP3   OH225360   5.775   6.761   2.077 -0.0735 -0.5920 -0.2979
 1242TIP3    H125361   5.832   6.690   2.107  0.8472 -0.1551 -0.9540
 1242TIP3    H225362   5.794   6.834   2.135  2.9297  0.7918 -2.7420
 1243TIP3   OH225363   2.987   5.631   6.642  0.6124  0.2810 -0.4272
 1243TIP3    H125364   2.959   5.560   6.584 -0.0935 -0.2308  0.5220
 1243TIP3    H225365   3.015   5.701   6.582  1.0806 -0.6943 -1.3709
 1244TIP3   OH225366   6.721   6.751   8.719  0.8119  0.1069 -0.4122
 1244TIP3    H125367   6.633   6.735   8.753  1.4462 -1.2692  0.6575
 1244TIP3    H225368   6.714   6.732   8.625  0.2126 -1.1119 -0.1442
 1245TIP3   OH225369   1.062   1.022   2.297 -0.1582 -0.1070  0.4856
 1245TIP3    H125370   1.111   0.976   2.365  0.4287  0.0660  0.1925
 1245TIP3    H225371   1.001   0.957   2.263 -0.2941 -0.2628  1.0155
 1246TIP3   OH225372   3.928   5.413   1.979 -0.0769  0.1330 -0.7789
 1246TIP3    H125373   3.874   5.350   1.931  1.7100 -1.2859 -1.0335
 1246TIP3    H225374   3.880   5.427   2.061 -0.7882 -1.1831 -0.9332
 1247TIP3   OH225375   6.418   6.785   8.174  0.6485 -0.1729  0.0864
 1247TIP3    H125376   6.393   6.694   8.186  1.9517 -0.4563  0.7377
 1247TIP3    H225377   6.405   6.801   8.080  0.1298 -0.9342  0.0242
 1248TIP3   OH225378   0.290   1.733   8.548  0.4133  0.1935 -0.1412
 1248TIP3    H125379   0.382   1.706   8.553 -0.0987 -1.3615  1.9896
 1248TIP3    H225380   0.253   1.706   8.632 -2.1459  0.2855 -1.1802
 1249TIP3   OH225381   2.753   0.159   7.562 -0.7461  0.1147  0.1296
 1249TIP3    H125382   2.714   0.219   7.626 -0.1004  1.6243 -0.8153
 1249TIP3    H225383   2.847   0.166   7.577 -0.5239  1.1120 -1.4415
 1250TIP3   OH225384   3.935   4.508   1.163  0.2986 -0.0716  0.7924
 1250TIP3    H125385   3.892   4.444   1.220 -1.6332 -1.8029 -2.3235
 1250TIP3    H225386   3.886   4.589   1.176 -0.5299 -0.6170  1.1372
 1251TIP3   OH225387   5.429   2.301   1.953  0.5906  0.4447  0.2035
 1251TIP3    H125388   5.387   2.386   1.959  1.7847  1.3115 -2.3289
 1251TIP3    H225389   5.493   2.300   2.024 -0.1438  1.2099  0.8867
 1252TIP3   OH225390   4.176   3.381   6.991  0.1084  0.1290 -0.3490
 1252TIP3    H125391   4.162   3.380   6.896  0.2034  1.2941 -0.3874
 1252TIP3    H225392   4.233   3.456   7.006 -0.6463  0.5105  0.7306
 1253TIP3   OH225393   2.278   1.645   7.384 -0.4196 -0.3032  0.9013
 1253TIP3    H125394   2.285   1.734   7.348  2.1913 -0.4864  0.7515
 1253TIP3    H225395   2.301   1.588   7.311  2.4376 -0.8015  2.0391
 1254TIP3   OH225396   6.486   4.935   0.573 -0.2421 -0.5770  0.5208
 1254TIP3    H125397   6.503   4.869   0.640 -1.0145  0.8441  2.1981
 1254TIP3    H225398   6.552   5.003   0.590 -1.8448  0.8365  1.3358
 1255TIP3   OH225399   4.747   2.350   8.596  0.2025  0.4240  0.2890
 1255TIP3    H125400   4.741   2.394   8.511  0.3951 -1.8544 -0.9729
 1255TIP3    H225401   4.841   2.336   8.610  0.1533  0.5342  0.7791
 1256TIP3   OH225402   3.622   4.906   8.480 -0.3689 -0.1216  0.0443
 1256TIP3    H125403   3.629   4.821   8.523  1.3507 -1.0660 -1.9459
 1256TIP3    H225404   3.585   4.887   8.394 -2.1422  1.4933  0.3772
 1257TIP3   OH225405   3.978   2.971   6.904 -1.3773  0.1862  0.0250
 1257TIP3    H125406   3.971   3.046   6.963 -0.4818 -1.3485  2.1994
 1257TIP3    H225407   4.059   2.985   6.856 -0.3707 -0.0878  1.5604
 1258TIP3   OH225408   4.507   1.201   8.074 -0.3573 -0.4065  0.4725
 1258TIP3    H125409   4.417   1.202   8.107 -0.4374 -1.4158  0.3145
 1258TIP3    H225410   4.504   1.142   7.999  0.6554 -1.2868  1.1044
 1259TIP3   OH225411   5.612   2.200   1.745  0.2010 -0.1186 -0.1661
 1259TIP3    H125412   5.547   2.171   1.681 -0.0512  0.3811 -0.1419
 1259TIP3    H225413   5.563   2.259   1.803  0.9243  1.1607 -0.8231
 1260TIP3   OH225414   0.637   4.907   7.463  0.1971 -0.6463 -0.2512
 1260TIP3    H125415   0.561   4.924   7.408 -1.9273 -0.1165  2.6402
 1260TIP3    H225416   0.687   4.989   7.461 -0.0746 -0.4920 -0.9777
 1261TIP3   OH225417   2.996   0.360   6.778  0.5552 -0.6815  0.2102
 1261TIP3    H125418   2.980   0.330   6.688 -0.3385  0.0504  0.1152
 1261TIP3    H225419   2.908   0.374   6.814  0.9227 -0.4612  1.0295
 1262TIP3   OH225420   0.263   5.452   7.704 -0.5252  0.4934 -0.5381
 1262TIP3    H125421   0.277   5.358   7.716 -2.8390  0.3272  1.6581
 1262TIP3    H225422   0.247   5.463   7.611  0.0069 -1.2403 -0.8660
 1263TIP3   OH225423   5.625   5.123   8.356  0.4183  0.1980  0.4171
 1263TIP3    H125424   5.657   5.120   8.446  0.5136  0.2772  0.3869
 1263TIP3    H225425   5.644   5.035   8.322  1.7211  0.6117  0.0270
 1264TIP3   OH225426   2.746   0.548   0.696  0.4665 -0.2537  0.4713
 1264TIP3    H125427   2.769   0.641   0.703 -0.5499  0.1790 -1.2281
 1264TIP3    H225428   2.830   0.502   0.696  1.2507  0.9977 -2.1502
 1265TIP3   OH225429   0.082   1.244   0.042  0.0038 -0.1228  0.3976
 1265TIP3    H125430   0.141   1.199   0.103 -0.4208 -0.7589  0.3561
 1265TIP3    H225431   0.005   1.188   0.038  0.3321 -0.5413 -1.3263
 1266TIP3   OH225432   0.980   3.309   0.889 -0.6075 -0.6398 -0.0031
 1266TIP3    H125433   0.939   3.248   0.827 -0.7000  0.4830 -1.0929
 1266TIP3    H225434   1.036   3.254   0.944  1.2553 -1.4719 -2.5233
 1267TIP3   OH225435   2.073   3.990   6.270 -0.3150  0.5231  0.1760
 1267TIP3    H125436   2.042   3.901   6.286  1.9036 -0.2419  0.6983
 1267TIP3    H225437   2.098   3.990   6.178  1.0694  0.0664  0.5129
 1268TIP3   OH225438   0.370   1.510   0.055  0.0397 -0.2198  0.3862
 1268TIP3    H125439   0.385   1.448  -0.016 -0.5720 -1.1060  1.0089
 1268TIP3    H225440   0.290   1.480   0.097 -0.0917  0.8090  0.9113
 1269TIP3   OH225441   3.887   4.654   7.571  0.3987  0.5394 -0.1273
 1269TIP3    H125442   3.900   4.585   7.506 -1.6142  1.4533 -1.5972
 1269TIP3    H225443   3.976   4.678   7.598  1.2201 -3.0065  0.9686
 1270TIP3   OH225444   5.777   2.783   8.079 -0.4182  0.5635  0.0601
 1270TIP3    H125445   5.815   2.764   7.993  1.2799  1.4584  0.5628
 1270TIP3    H225446   5.779   2.699   8.124  1.2760  0.5957  0.1377
 1271TIP3   OH225447   4.056   0.617   1.295  0.2754 -0.5050  0.5680
 1271TIP3    H125448   4.099   0.702   1.303 -0.1345 -0.2925  0.5411
 1271TIP3    H225449   3.962   0.637   1.295  0.1894 -0.8422 -0.8067
 1272TIP3   OH225450   3.759   3.280   7.879  0.4640  0.6339  0.2864
 1272TIP3    H125451   3.725   3.366   7.853  0.5479  0.9670  1.2037
 1272TIP3    H225452   3.687   3.220   7.863  0.3658  0.8908 -0.2697
 1273TIP3   OH225453   5.788   0.443   8.671 -0.1541  0.1845  0.2304
 1273TIP3    H125454   5.759   0.491   8.594 -0.5094  1.5969  1.2154
 1273TIP3    H225455   5.710   0.435   8.726  0.4196  0.5443  1.1248
 1274TIP3   OH225456   2.270   1.004   8.704  0.2725 -0.1196  0.2500
 1274TIP3    H125457   2.356   0.997   8.662  0.2531  0.6467  0.0647
 1274TIP3    H225458   2.265   1.095   8.735 -0.9757  0.2509 -0.9023
 1275TIP3   OH225459   0.953   3.987   0.307 -0.0425 -0.5921 -0.6099
 1275TIP3    H125460   0.950   3.955   0.397  0.5205 -0.1060 -0.4172
 1275TIP3    H225461   1.002   3.919   0.260  0.3790 -0.4500 -0.3810
 1276TIP3   OH225462   6.300   0.244   8.094  0.0231 -0.5542  0.4643
 1276TIP3    H125463   6.260   0.329   8.110  0.5753 -0.0738 -0.5948
 1276TIP3    H225464   6.345   0.254   8.011  0.7729 -1.6431  0.7134
 1277TIP3   OH225465   1.195   5.786   1.232  0.5561  0.5463 -0.1981
 1277TIP3    H125466   1.105   5.806   1.257  1.0917  1.1827  1.3938
 1277TIP3    H225467   1.231   5.738   1.307  1.3716 -0.2460 -1.0615
 1278TIP3   OH225468   6.286   5.606   2.088  0.4537 -0.1130 -0.6409
 1278TIP3    H125469   6.338   5.674   2.046  1.0023  0.8163  1.4083
 1278TIP3    H225470   6.350   5.546   2.126  0.0774  0.4321  0.9422
 1279TIP3   OH225471   4.604   2.294   1.628  0.0354 -0.5535 -0.0839
 1279TIP3    H125472   4.599   2.259   1.716  0.9814 -2.5619 -0.7538
 1279TIP3    H225473   4.687   2.259   1.593  0.1467  0.9320 -1.4590
 1280TIP3   OH225474   4.944   4.539   7.764 -0.2514 -0.0297  0.4335
 1280TIP3    H125475   4.866   4.563   7.715  0.1126 -0.9977 -0.6670
 1280TIP3    H225476   4.976   4.459   7.721  2.9250  1.8082 -0.9923
 1281TIP3   OH225477   6.157   0.789   6.987  0.4419  0.0903 -0.2255
 1281TIP3    H125478   6.235   0.745   7.021  0.2192 -0.2554 -0.1585
 1281TIP3    H225479   6.100   0.718   6.958  0.1478  0.3415 -0.2673
 1282TIP3   OH225480   0.383   6.748   8.127 -0.2327 -0.4921 -0.5718
 1282TIP3    H125481   0.355   6.662   8.096 -0.9736  0.3747 -2.4872
 1282TIP3    H225482   0.479   6.745   8.122 -0.1856 -1.5105  0.3780
 1283TIP3   OH225483   1.439   2.324   1.250  0.0984 -0.0134  0.0810
 1283TIP3    H125484   1.354   2.356   1.220 -0.1106 -0.9190 -0.3431
 1283TIP3    H225485   1.496   2.334   1.175 -0.3638 -2.0523 -0.6336
 1284TIP3   OH225486   3.309   2.273   7.551  0.2999  0.2925 -0.6895
 1284TIP3    H125487   3.353   2.350   7.588  0.0714  0.0747  0.0678
 1284TIP3    H225488   3.301   2.213   7.625 -0.9500  0.1917 -0.8789
 1285TIP3   OH225489   5.263   1.820   7.410 -0.0552  0.3239  0.6746
 1285TIP3    H125490   5.316   1.773   7.345 -0.4466  0.7914  0.0009
 1285TIP3    H225491   5.281   1.912   7.393  0.5531  0.4480  1.8556
 1286TIP3   OH225492   2.889   1.175   7.878 -0.3345 -0.4915  0.7516
 1286TIP3    H125493   2.816   1.236   7.865 -0.0489 -0.2021  0.5115
 1286TIP3    H225494   2.870   1.102   7.819  0.0356 -0.0025  0.0242
 1287TIP3   OH225495   1.662   6.325   0.950  0.3679  0.0522  0.5805
 1287TIP3    H125496   1.602   6.250   0.948 -0.9819  1.0946 -0.2709
 1287TIP3    H225497   1.747   6.289   0.926 -0.6736 -0.8738 -1.9925
 1288TIP3   OH225498   1.281   2.918   6.958  0.0209  0.3609 -0.3403
 1288TIP3    H125499   1.204   2.940   6.905 -0.7831 -0.0423  0.6371
 1288TIP3    H225500   1.351   2.974   6.923 -0.3805 -0.1402 -2.0664
 1289TIP3   OH225501   4.604   0.938   8.749 -0.4353 -0.0432 -0.2545
 1289TIP3    H125502   4.681   0.883   8.764 -1.5038 -1.0769  1.9046
 1289TIP3    H225503   4.535   0.876   8.726 -1.0688  0.6877 -0.3625
 1290TIP3   OH225504   3.598   5.828   0.817  0.0911  0.2880  0.8054
 1290TIP3    H125505   3.503   5.833   0.830 -0.1623  1.2599 -1.0253
 1290TIP3    H225506   3.626   5.919   0.811  0.6088  0.0292 -1.7945
 1291TIP3   OH225507   5.151   5.978   7.442  0.7325  0.8934  0.1209
 1291TIP3    H125508   5.226   5.921   7.455  1.3286  1.7224  0.3858
 1291TIP3    H225509   5.098   5.933   7.376  1.4671  0.3129 -0.0863
 1292TIP3   OH225510   1.857   3.850   8.038  0.2056 -0.2627 -0.1436
 1292TIP3    H125511   1.831   3.841   7.946  1.2593 -1.8920 -0.3191
 1292TIP3    H225512   1.922   3.781   8.051 -0.3961 -0.4797  2.0031
 1293TIP3   OH225513   6.341   4.761   7.679 -0.0244 -0.1060 -0.2472
 1293TIP3    H125514   6.428   4.796   7.695  0.3162 -0.9312 -0.2415
 1293TIP3    H225515   6.293   4.833   7.638  0.5966  0.4172 -0.0699
 1294TIP3   OH225516   0.090   4.848   2.448  0.0076 -0.2380 -0.2673
 1294TIP3    H125517   0.037   4.841   2.368 -0.7174 -0.4688  0.2224
 1294TIP3    H225518   0.088   4.760   2.486  0.1864 -0.0830  0.1046
 1295TIP3   OH225519   1.670   6.290   6.705 -0.0565 -0.2750  0.7287
 1295TIP3    H125520   1.740   6.255   6.760  0.1962  0.8007  1.1269
 1295TIP3    H225521   1.592   6.242   6.732  0.6055 -1.9366 -0.1568
 1296TIP3   OH225522   0.504   3.845   1.330 -0.5688 -0.1703 -0.3266
 1296TIP3    H125523   0.429   3.854   1.271 -1.4492 -1.9808  0.4504
 1296TIP3    H225524   0.543   3.761   1.308  0.6966  0.3269 -0.0744
 1297TIP3   OH225525   5.324   2.364   0.181  0.0482 -0.3239  0.0901
 1297TIP3    H125526   5.255   2.353   0.247 -1.2381 -0.4642 -1.2254
 1297TIP3    H225527   5.277   2.393   0.102  1.4962 -0.4955 -0.8699
 1298TIP3   OH225528   4.935   2.993   0.531 -0.2596 -0.2652 -0.2950
 1298TIP3    H125529   4.847   3.019   0.503 -0.3582  0.1585  0.3990
 1298TIP3    H225530   4.940   3.021   0.622 -0.4570 -2.8364  0.5866
 1299TIP3   OH225531   1.345   3.561   1.506  0.4673 -0.1971 -0.1962
 1299TIP3    H125532   1.360   3.654   1.488  0.8613  0.1558  1.7742
 1299TIP3    H225533   1.326   3.557   1.599 -2.8158 -1.7319 -0.7837
 1300TIP3   OH225534   0.181   1.912   0.278 -0.5550 -0.5127 -0.1075
 1300TIP3    H125535   0.210   1.994   0.318 -1.0172  0.0557 -0.9001
 1300TIP3    H225536   0.169   1.852   0.351  0.6035 -0.1385  0.4169
 1301TIP3   OH225537   1.218   4.832   0.916  0.4770  0.0125  0.5176
 1301TIP3    H125538   1.215   4.927   0.903  1.1289  0.1068  0.9819
 1301TIP3    H225539   1.287   4.802   0.857  1.1912  0.0165  1.3226
 1302TIP3   OH225540   0.338   0.449   1.422  0.1282 -0.0895  0.3009
 1302TIP3    H125541   0.298   0.536   1.427  0.0288 -0.0447 -1.0904
 1302TIP3    H225542   0.265   0.388   1.420  0.0833 -0.0289 -1.7938
 1303TIP3   OH225543   4.660   5.149   7.971  0.2442 -0.7872  0.1207
 1303TIP3    H125544   4.601   5.162   7.896 -0.5214 -0.8980  0.6883
 1303TIP3    H225545   4.747   5.169   7.937 -0.1770 -0.1618 -0.6198
 1304TIP3   OH225546   3.453   6.673   0.159 -0.4390 -0.6131  0.5214
 1304TIP3    H125547   3.483   6.621   0.233 -3.1973 -1.8801  0.8668
 1304TIP3    H225548   3.383   6.728   0.194 -1.1372 -0.5243 -0.9142
 1305TIP3   OH225549   0.506   5.259   8.342 -0.3871  0.2336  0.0976
 1305TIP3    H125550   0.574   5.209   8.386 -0.6352 -2.4305 -2.3166
 1305TIP3    H225551   0.542   5.348   8.335  0.8689  0.0320  2.8278
 1306TIP3   OH225552   4.428   2.827   5.960 -0.1794  0.1944  0.8340
 1306TIP3    H125553   4.340   2.790   5.955 -0.6342  1.3715 -0.2619
 1306TIP3    H225554   4.479   2.761   6.007 -1.5845 -0.6040  1.2763
 1307TIP3   OH225555   6.574   2.411   0.507 -0.0218 -0.0902 -0.4914
 1307TIP3    H125556   6.631   2.469   0.557 -0.1396  1.1012 -1.6799
 1307TIP3    H225557   6.630   2.339   0.479  0.2858 -0.2215  0.4550
 1308TIP3   OH225558   0.420   0.563   8.311  0.8029 -0.0808 -0.1355
 1308TIP3    H125559   0.350   0.550   8.246  0.8136  0.5787 -0.2817
 1308TIP3    H225560   0.414   0.486   8.368  1.3031 -1.0771 -1.3809
 1309TIP3   OH225561   0.090   4.831   1.387  0.6917 -0.4242  0.2214
 1309TIP3    H125562   0.087   4.737   1.400  3.2981 -0.8190 -1.1934
 1309TIP3    H225563   0.160   4.861   1.446  0.9853  0.3326 -0.4844
 1310TIP3   OH225564   1.458   3.446   0.415  0.1916  0.5869 -0.3671
 1310TIP3    H125565   1.547   3.465   0.384 -0.1948  1.0005 -1.2413
 1310TIP3    H225566   1.437   3.361   0.378  0.1088  0.6216 -0.3993
 1311TIP3   OH225567   6.582   0.744   8.446 -0.0887  0.0069 -0.0300
 1311TIP3    H125568   6.636   0.675   8.408 -0.7613 -0.1039 -0.8039
 1311TIP3    H225569   6.504   0.747   8.391  0.3308  2.0444 -0.6150
 1312TIP3   OH225570   1.436   2.252   1.845 -0.0255  0.1494 -0.4805
 1312TIP3    H125571   1.341   2.242   1.847  0.1318 -2.0970 -1.2210
 1312TIP3    H225572   1.450   2.346   1.846 -2.3208  0.5902 -2.0422
 1313TIP3   OH225573   5.021   4.467   0.180  0.0521 -0.4922 -0.2859
 1313TIP3    H125574   4.966   4.462   0.258 -1.4596 -0.3760 -1.3037
 1313TIP3    H225575   5.043   4.559   0.172  0.7135 -0.5852  0.3085
 1314TIP3   OH225576   2.124   5.170   0.231  0.2823 -0.8831 -0.8185
 1314TIP3    H125577   2.088   5.093   0.275  0.0105 -0.4509 -0.2749
 1314TIP3    H225578   2.113   5.241   0.294  1.4473 -0.5962 -0.9092
 1315TIP3   OH225579   0.533   5.034   8.575 -0.4233 -0.0502 -0.1800
 1315TIP3    H125580   0.512   5.004   8.487 -1.1022 -3.5451  1.0248
 1315TIP3    H225581   0.586   4.964   8.612  1.0668  1.9625  1.7958
 1316TIP3   OH225582   1.588   5.016   0.845  0.1507  0.4589  0.5543
 1316TIP3    H125583   1.546   5.063   0.773 -1.7749 -1.1165  0.5518
 1316TIP3    H225584   1.610   5.083   0.909  0.6627  1.7312 -0.8957
 1317TIP3   OH225585   6.450   2.737   2.057  0.0090  0.1905  0.0112
 1317TIP3    H125586   6.418   2.736   1.967 -0.8975  0.9659  0.3018
 1317TIP3    H225587   6.434   2.827   2.087 -3.7358 -0.9761  2.3057
 1318TIP3   OH225588   6.289   6.293   8.273  0.2702  0.0702  0.4072
 1318TIP3    H125589   6.214   6.275   8.215 -0.2357  0.7034  0.8467
 1318TIP3    H225590   6.350   6.221   8.256 -0.1914 -0.1582 -0.3692
 1319TIP3   OH225591   4.552   0.475   8.504 -0.3006  0.1219 -0.3494
 1319TIP3    H125592   4.518   0.562   8.525 -2.3531 -0.1988 -2.0007
 1319TIP3    H225593   4.523   0.420   8.577 -0.9610  0.4140 -0.3816
 1320TIP3   OH225594   2.328   0.824   1.924 -0.2329 -0.2707 -0.3369
 1320TIP3    H125595   2.342   0.884   1.997 -0.3776 -1.4282  0.6754
 1320TIP3    H225596   2.239   0.843   1.895 -0.4209 -0.2633  0.2347
 1321TIP3   OH225597   3.986   6.069   8.178 -0.1656 -0.4133 -0.5967
 1321TIP3    H125598   3.940   5.993   8.143 -0.5991  0.8045 -2.8332
 1321TIP3    H225599   3.916   6.126   8.211  0.0617 -0.3785 -0.1653
 1322TIP3   OH225600   6.484   1.252   2.362  0.1431  0.4964 -0.1355
 1322TIP3    H125601   6.524   1.165   2.367  0.8980  0.6704 -2.1758
 1322TIP3    H225602   6.534   1.305   2.424  0.9456 -0.0800 -0.2674
 1323TIP3   OH225603   1.207   6.681   0.126 -0.6370  0.0459  0.1543
 1323TIP3    H125604   1.153   6.682   0.205  1.5599 -2.2201  1.8389
 1323TIP3    H225605   1.246   6.594   0.124  3.1133  1.5376 -0.7591
 1324TIP3   OH225606   3.168   2.751   7.051 -0.3258  0.1858 -0.1376
 1324TIP3    H125607   3.262   2.757   7.033 -0.6945  1.3288 -1.9804
 1324TIP3    H225608   3.160   2.678   7.112  1.7780  0.2551  0.3022
 1325TIP3   OH225609   1.710   6.713   1.988  0.0146 -0.1999 -0.4807
 1325TIP3    H125610   1.789   6.706   1.935 -0.3280  0.8839 -1.1698
 1325TIP3    H225611   1.737   6.687   2.076  1.1190  0.1082 -0.7153
 1326TIP3   OH225612   3.769   4.714   0.364  0.1931 -0.8541 -0.3293
 1326TIP3    H125613   3.702   4.783   0.363 -0.7314 -1.7271  0.1515
 1326TIP3    H225614   3.792   4.704   0.456  1.0295 -0.5296 -0.4965
 1327TIP3   OH225615   3.337   4.341   2.024  0.0233  0.2543  0.2693
 1327TIP3    H125616   3.422   4.383   2.011  0.1056  0.3359  1.0165
 1327TIP3    H225617   3.277   4.414   2.036 -0.3055  0.2269 -1.0105
 1328TIP3   OH225618   2.595   0.176   6.914  0.0415 -0.4029  0.1936
 1328TIP3    H125619   2.514   0.225   6.900  0.0489 -0.6639 -0.8859
 1328TIP3    H225620   2.593   0.108   6.847  2.6879  1.5765 -2.1380
 1329TIP3   OH225621   5.391   0.245   7.610  0.8903 -0.2341  0.9377
 1329TIP3    H125622   5.447   0.172   7.636 -0.3722 -1.4349  0.3926
 1329TIP3    H225623   5.431   0.321   7.653  1.5205 -1.4107  2.5726
 1330TIP3   OH225624   0.270   3.151   7.487  0.0553  0.2747 -0.0273
 1330TIP3    H125625   0.291   3.150   7.580  2.6157  0.4089 -0.5214
 1330TIP3    H225626   0.280   3.242   7.460  1.2632 -0.0473 -0.7636
 1331TIP3   OH225627   3.942   1.740   1.067  0.6908  0.3339 -0.1747
 1331TIP3    H125628   3.991   1.774   0.992  0.0765 -0.0502 -0.7633
 1331TIP3    H225629   3.942   1.645   1.054 -3.0016  0.4168 -2.0362
 1332TIP3   OH225630   3.917   0.946   0.007  0.0488  0.2815 -0.6097
 1332TIP3    H125631   4.002   0.984  -0.013  0.1387 -0.3049 -1.4312
 1332TIP3    H225632   3.890   0.905  -0.075 -0.1623 -1.1653  0.1505
 1333TIP3   OH225633   4.759   1.117   6.865  0.5781 -0.5416 -0.4547
 1333TIP3    H125634   4.783   1.036   6.819 -0.4713 -0.9198 -0.3555
 1333TIP3    H225635   4.829   1.129   6.929  1.1651 -0.9291 -1.0000
 1334TIP3   OH225636   2.250   1.905   7.273 -0.5665  0.5402 -0.0871
 1334TIP3    H125637   2.255   1.938   7.183 -1.0595  1.6638  0.2809
 1334TIP3    H225638   2.166   1.936   7.305 -1.6484 -2.1321 -0.0813
 1335TIP3   OH225639   0.268   5.218   7.229 -0.2530 -0.5210  0.0770
 1335TIP3    H125640   0.186   5.266   7.234 -0.9513 -1.7302  0.8080
 1335TIP3    H225641   0.310   5.249   7.149 -1.3179  0.2646 -0.1958
 1336TIP3   OH225642   0.378   6.526   7.078 -0.4742  0.3449 -0.1549
 1336TIP3    H125643   0.440   6.588   7.118 -0.8877  0.8922 -0.3541
 1336TIP3    H225644   0.352   6.568   6.996  0.2536 -0.6987 -0.9420
 1337TIP3   OH225645   0.279   2.013   6.985  0.0258 -1.1137 -0.8482
 1337TIP3    H125646   0.369   2.041   6.967  0.2175 -0.8663  0.4422
 1337TIP3    H225647   0.288   1.943   7.050 -0.6086 -2.4637 -2.1489
 1338TIP3   OH225648   2.219   5.771   1.013 -0.4537  0.0678  0.2533
 1338TIP3    H125649   2.190   5.860   1.033 -0.3445 -0.2549  2.0424
 1338TIP3    H225650   2.143   5.728   0.976 -0.6610  0.7498 -0.1277
 1339TIP3   OH225651   4.575   5.811   1.784  0.7685  0.0319  0.5710
 1339TIP3    H125652   4.602   5.820   1.875 -1.1377 -2.5225  1.5042
 1339TIP3    H225653   4.646   5.763   1.742  1.2140  0.3534  0.9502
 1340TIP3   OH225654   6.672   2.831   6.830  0.4798  0.6163  0.7800
 1340TIP3    H125655   6.586   2.872   6.821  0.1768 -0.1031  0.3363
 1340TIP3    H225656   6.665   2.781   6.912 -0.5403 -1.7907 -0.6900
 1341TIP3   OH225657   5.223   6.001   1.075  0.1002 -0.7543 -0.3974
 1341TIP3    H125658   5.252   5.925   1.024  2.3358 -1.0122  1.1028
 1341TIP3    H225659   5.298   6.061   1.073 -0.3708 -0.0594  1.1361
 1342TIP3   OH225660   6.700   0.963   1.728  0.2395 -0.3561  0.2198
 1342TIP3    H125661   6.700   0.895   1.661 -0.3484  0.0795 -0.2340
 1342TIP3    H225662   6.786   1.005   1.719 -0.5775  1.0493 -1.6859
 1343TIP3   OH225663   3.467   3.200   7.838  0.2935  0.7457 -0.3108
 1343TIP3    H125664   3.517   3.120   7.849 -2.3346 -0.8027  1.8663
 1343TIP3    H225665   3.457   3.234   7.927 -3.3861  0.2138 -0.3474
 1344TIP3   OH225666   2.011   5.399   7.856 -0.1446  0.1194 -0.2900
 1344TIP3    H125667   1.928   5.357   7.833 -2.2677  3.8719 -0.2566
 1344TIP3    H225668   2.028   5.372   7.946 -1.5653 -0.3962 -0.1533
 1345TIP3   OH225669   4.698   2.847   2.154 -0.6251 -0.3778  0.2347
 1345TIP3    H125670   4.775   2.856   2.098 -1.1820 -1.0021 -0.6358
 1345TIP3    H225671   4.731   2.871   2.242  0.0013  1.6267 -0.4821
 1346TIP3   OH225672   6.151   2.049   0.702  0.6030 -0.0264 -0.0068
 1346TIP3    H125673   6.085   1.980   0.706  0.8216 -0.2251  0.1753
 1346TIP3    H225674   6.228   2.012   0.745 -0.2069  1.3955  2.8780
 1347TIP3   OH225675   5.990   0.968   7.261 -0.5342  0.1035 -0.2889
 1347TIP3    H125676   6.038   0.886   7.272 -1.4829 -0.3205  0.7987
 1347TIP3    H225677   5.922   0.948   7.196  0.4216  0.5806 -1.4817
 1348TIP3   OH225678   4.225   0.149   1.449  0.0580  0.2920  0.2687
 1348TIP3    H125679   4.213   0.244   1.441 -1.3760  0.4241  2.9179
 1348TIP3    H225680   4.320   0.137   1.443  0.2645  1.8448 -0.2946
 1349TIP3   OH225681   5.980   4.130   0.645  0.5782 -1.0064  0.1185
 1349TIP3    H125682   5.933   4.067   0.700  2.5951 -1.7220  1.1098
 1349TIP3    H225683   6.023   4.076   0.579 -0.0296 -0.3507 -0.8350
 1350TIP3   OH225684   6.111   3.160   0.829  0.9200 -0.1514  0.0325
 1350TIP3    H125685   6.027   3.148   0.784  2.3197 -0.9961 -2.5249
 1350TIP3    H225686   6.117   3.086   0.889  0.8158 -1.4120 -1.4587
 1351TIP3   OH225687   2.602   3.301   0.293  0.0389  0.6691  0.1466
 1351TIP3    H125688   2.560   3.268   0.214  2.2891  3.5306 -2.5079
 1351TIP3    H225689   2.691   3.268   0.289  0.0365  0.2873  1.9841
 1352TIP3   OH225690   3.323   5.559   2.166  0.1439 -0.0254  0.2465
 1352TIP3    H125691   3.417   5.570   2.183 -0.0747  0.3541  1.2767
 1352TIP3    H225692   3.319   5.483   2.108  1.2517  1.4448 -1.9242
 1353TIP3   OH225693   5.440   0.744   0.011 -0.2381  0.4098 -0.1037
 1353TIP3    H125694   5.417   0.816  -0.048 -1.1089  0.8484  0.7392
 1353TIP3    H225695   5.377   0.675  -0.009 -0.0543  0.2676 -0.1996
 1354TIP3   OH225696   5.336   1.965   0.020 -0.1767 -0.2385  0.0288
 1354TIP3    H125697   5.262   2.002  -0.028 -0.2314 -0.3600  0.0181
 1354TIP3    H225698   5.397   1.935  -0.048  0.0859  0.2632  0.0392
 1355TIP3   OH225699   6.524   2.717   2.345 -0.1843  0.5594  0.8020
 1355TIP3    H125700   6.531   2.715   2.250 -1.5895  2.6884  0.5926
 1355TIP3    H225701   6.497   2.628   2.369 -1.4178  0.4048 -0.9676
 1356TIP3   OH225702   1.152   0.074   7.741 -0.0830 -0.0325 -0.1550
 1356TIP3    H125703   1.177  -0.017   7.755  2.0715  0.3886 -0.8428
 1356TIP3    H225704   1.182   0.119   7.820  0.4228  0.3216 -0.5397
 1357TIP3   OH225705   6.034   5.280   0.845  0.3543  0.1689  0.2247
 1357TIP3    H125706   5.978   5.357   0.841 -0.2631 -0.3258 -1.5081
 1357TIP3    H225707   6.118   5.313   0.879 -0.3445  1.3008  0.9043
 1358TIP3   OH225708   4.971   5.447   0.362  0.6699  0.0650  0.2352
 1358TIP3    H125709   5.050   5.475   0.407  1.3424  0.6798 -1.2907
 1358TIP3    H225710   4.969   5.497   0.281 -1.8331  0.8449  0.6608
 1359TIP3   OH225711   5.328   2.239   8.396 -0.3862 -0.4362 -0.2680
 1359TIP3    H125712   5.355   2.302   8.329 -0.5432  0.3799  0.4144
 1359TIP3    H225713   5.318   2.292   8.476  0.3191 -1.4732  0.5258
 1360TIP3   OH225714   5.975   6.325   1.198 -0.8208  0.8957  0.3976
 1360TIP3    H125715   6.022   6.363   1.123  1.1766  1.5862  1.9318
 1360TIP3    H225716   5.965   6.233   1.175  0.3439  0.9534 -0.4434
 1361TIP3   OH225717   3.699   3.266   8.641 -0.2741 -0.3514  0.1532
 1361TIP3    H125718   3.708   3.345   8.588  1.4508 -0.5082  0.1800
 1361TIP3    H225719   3.649   3.294   8.718 -0.2974  0.5438 -0.1853
 1362TIP3   OH225720   1.163   4.352   0.051  0.4339 -0.0530  0.3097
 1362TIP3    H125721   1.104   4.394   0.114 -0.5859  1.2525 -1.4280
 1362TIP3    H225722   1.145   4.259   0.061  0.4486  0.0877  2.0606
 1363TIP3   OH225723   3.301   4.526   7.054  0.1288  0.5005 -0.3748
 1363TIP3    H125724   3.251   4.476   6.990  2.0688  0.7198 -2.1620
 1363TIP3    H225725   3.328   4.460   7.119 -2.9678  0.5012  1.1184
 1364TIP3   OH225726   4.363   1.008   7.485  0.3129 -0.5973 -0.4055
 1364TIP3    H125727   4.364   0.951   7.408  1.1170 -1.0980 -0.0433
 1364TIP3    H225728   4.402   0.955   7.554 -1.0354 -0.3953  0.5328
 1365TIP3   OH225729   5.567   5.203   7.555  0.0535  0.0538  0.0371
 1365TIP3    H125730   5.571   5.249   7.471 -2.0416 -1.8705 -1.2198
 1365TIP3    H225731   5.541   5.114   7.532 -1.2597 -0.3622  2.7757
 1366TIP3   OH225732   5.119   1.584   6.782 -0.4562  0.3942  0.3837
 1366TIP3    H125733   5.094   1.621   6.697 -1.2377  2.9579  1.6460
 1366TIP3    H225734   5.204   1.543   6.766 -0.2454  1.4534 -1.4859
 1367TIP3   OH225735   0.090   6.332   8.020 -0.1680 -0.6648  0.0321
 1367TIP3    H125736   0.088   6.318   8.115  0.2926 -1.5577 -0.0749
 1367TIP3    H225737   0.078   6.244   7.983 -1.3586 -0.1814 -0.7552
 1368TIP3   OH225738   2.021   4.439   0.961  0.1786 -0.7999 -0.3470
 1368TIP3    H125739   2.107   4.462   0.995  0.6796 -2.0797 -0.6903
 1368TIP3    H225740   2.027   4.346   0.940 -1.2002 -0.8499 -0.6545
 1369TIP3   OH225741   2.105   3.308   7.362  0.1533  0.7702 -0.0219
 1369TIP3    H125742   2.200   3.320   7.360  0.4596 -1.3610 -0.8416
 1369TIP3    H225743   2.074   3.358   7.286  0.7037  0.8746 -0.1854
 1370TIP3   OH225744   4.661   1.068   0.634  0.7666  0.1243 -0.1474
 1370TIP3    H125745   4.618   1.005   0.691  1.6969 -0.5420 -0.1514
 1370TIP3    H225746   4.661   1.150   0.684  1.9949 -0.5587  1.0432
 1371TIP3   OH225747   4.949   5.403   1.456 -0.7177 -0.5593 -0.6613
 1371TIP3    H125748   4.871   5.370   1.502 -0.5147 -0.3558 -0.1685
 1371TIP3    H225749   4.914   5.457   1.385 -1.0137  0.2746  0.1140
 1372TIP3   OH225750   6.347   5.094   7.297 -0.5185 -0.1985 -0.0714
 1372TIP3    H125751   6.293   5.100   7.218  0.1547 -0.8423 -0.5938
 1372TIP3    H225752   6.323   5.171   7.348 -1.5900 -0.2232 -0.5043
 1373TIP3   OH225753   4.396   1.741   0.695 -0.1264  0.8695  0.1103
 1373TIP3    H125754   4.314   1.781   0.725 -0.8077  0.9302 -1.6815
 1373TIP3    H225755   4.452   1.816   0.674 -0.5639  0.8971 -1.0541
 1374TIP3   OH225756   5.615   2.570   0.685 -0.0951 -0.3337 -0.4644
 1374TIP3    H125757   5.698   2.551   0.641 -0.7446 -0.4850 -1.6656
 1374TIP3    H225758   5.552   2.511   0.644 -1.1355  0.9118 -0.7167
 1375TIP3   OH225759   3.492   3.305   0.435 -0.5494  0.3655 -0.3531
 1375TIP3    H125760   3.529   3.315   0.348  1.5851  3.4265  0.7280
 1375TIP3    H225761   3.567   3.313   0.494 -2.2190  0.8416  1.8446
 1376TIP3   OH225762   2.076   3.503   0.644  0.3609  0.3936 -0.0808
 1376TIP3    H125763   2.117   3.559   0.578 -0.3110 -1.6941 -2.4360
 1376TIP3    H225764   2.139   3.502   0.717  2.3918  0.8120 -1.7210
 1377TIP3   OH225765   0.960   0.842   1.523  0.3903  0.0433  0.2839
 1377TIP3    H125766   0.948   0.923   1.573 -1.9269 -0.4245  0.5725
 1377TIP3    H225767   1.011   0.870   1.446  0.0080  1.6864  0.5861
 1378TIP3   OH225768   0.537   0.405   6.312 -0.1175  0.5284  0.4310
 1378TIP3    H125769   0.612   0.359   6.274  0.7391  1.5403  0.8347
 1378TIP3    H225770   0.470   0.337   6.323 -0.3017  0.0981 -2.4682
 1379TIP3   OH225771   1.520   5.862   6.628 -0.5565  0.3882 -0.0469
 1379TIP3    H125772   1.599   5.840   6.579 -0.9082  1.6414 -1.2312
 1379TIP3    H225773   1.551   5.915   6.702 -0.1685 -0.2340  0.2388
 1380TIP3   OH225774   6.742   4.582   1.562 -0.2225 -0.4263  0.1157
 1380TIP3    H125775   6.837   4.573   1.551 -0.1830 -2.0929  1.4180
 1380TIP3    H225776   6.711   4.608   1.475  1.3652 -0.3821 -0.4790
 1381TIP3   OH225777   6.707   2.339   0.120  0.1173  0.4562 -0.9487
 1381TIP3    H125778   6.706   2.355   0.026  0.5203  0.6440 -0.9220
 1381TIP3    H225779   6.724   2.245   0.129 -0.4899  0.3318 -1.0717
 1382TIP3   OH225780   5.865   4.385   7.821 -1.3141  0.2592 -0.2141
 1382TIP3    H125781   5.811   4.350   7.891 -2.5918  2.4032 -0.0563
 1382TIP3    H225782   5.945   4.415   7.865  0.1436 -2.8739 -0.4443
 1383TIP3   OH225783   5.912   2.762   1.126  0.3867 -0.2172 -0.1386
 1383TIP3    H125784   6.000   2.724   1.119  1.5061  1.9697  1.0171
 1383TIP3    H225785   5.885   2.742   1.216 -0.0433 -0.3564 -0.2984
 1384TIP3   OH225786   4.420   0.775   7.313 -0.1442 -0.1965 -0.0996
 1384TIP3    H125787   4.489   0.808   7.255 -0.2960  0.7349  0.2244
 1384TIP3    H225788   4.464   0.762   7.397 -0.2863  0.0766  0.0186
 1385TIP3   OH225789   3.340   4.325   0.218 -0.5140 -0.1036 -0.0111
 1385TIP3    H125790   3.308   4.313   0.307 -2.1322 -0.4532 -0.5970
 1385TIP3    H225791   3.424   4.279   0.216 -0.3052  0.1729  1.3986
 1386TIP3   OH225792   6.389   6.622   8.528 -0.0314 -0.4957  0.7383
 1386TIP3    H125793   6.354   6.602   8.615 -0.1118 -0.1684  0.7841
 1386TIP3    H225794   6.311   6.628   8.473  0.0308 -0.8537  0.6135
 1387TIP3   OH225795   3.392   2.235   7.021 -0.6798  0.2871 -0.4679
 1387TIP3    H125796   3.466   2.269   6.971  0.5270  1.0642  1.7500
 1387TIP3    H225797   3.391   2.141   7.002  2.1036 -0.0992  0.9186
 1388TIP3   OH225798   1.713   4.908   6.922 -0.1535 -0.0662 -0.1212
 1388TIP3    H125799   1.626   4.868   6.914 -0.1514  0.1473 -1.4882
 1388TIP3    H225800   1.736   4.896   7.014 -1.2355 -0.9453  0.0683
 1389TIP3   OH225801   1.246   3.765   7.235  0.0946 -0.0436  0.2792
 1389TIP3    H125802   1.277   3.759   7.145 -1.9375 -0.9274 -0.4141
 1389TIP3    H225803   1.182   3.837   7.234  0.2371  0.1104  1.0976
 1390TIP3   OH225804   1.201   3.364   8.138 -0.4405  0.8190 -0.5283
 1390TIP3    H125805   1.184   3.430   8.072 -2.2762  0.4646 -0.4667
 1390TIP3    H225806   1.219   3.284   8.088 -2.1116  0.4834 -0.6435
 1391TIP3   OH225807   0.899   2.638   7.103 -0.1923  0.2136 -0.1402
 1391TIP3    H125808   0.837   2.654   7.032  0.5183 -1.1291 -1.1248
 1391TIP3    H225809   0.845   2.608   7.176 -0.7155 -1.8765 -1.2870
 1392TIP3   OH225810   1.526   3.286   7.551 -0.6002  0.0253  0.4823
 1392TIP3    H125811   1.505   3.374   7.519 -2.0964 -0.1354  0.9362
 1392TIP3    H225812   1.520   3.230   7.473  2.7296  0.5868 -0.3363
 1393TIP3   OH225813   0.075   1.537   0.193  0.0991  0.4210 -0.0387
 1393TIP3    H125814   0.128   1.497   0.262  0.4609 -0.5294 -0.8580
 1393TIP3    H225815  -0.005   1.485   0.190  0.0182  0.5550 -0.2469
 1394TIP3   OH225816   4.133   6.639   0.901  0.0617 -0.2909 -0.2941
 1394TIP3    H125817   4.162   6.569   0.960 -0.8752  0.1791  0.7693
 1394TIP3    H225818   4.098   6.594   0.825  0.3817 -0.9479 -0.0559
 1395TIP3   OH225819   2.155   0.854   7.058  0.0356  0.3185 -0.0012
 1395TIP3    H125820   2.082   0.793   7.070 -0.3264  0.8426  0.5847
 1395TIP3    H225821   2.112   0.938   7.040  0.5242  0.3984 -0.7972
 1396TIP3   OH225822   2.593   0.421   2.753 -0.1642  0.4806  0.1556
 1396TIP3    H125823   2.499   0.434   2.742 -0.4200 -1.2896 -0.1209
 1396TIP3    H225824   2.620   0.378   2.672  0.4214 -1.1057  1.1531
 1397TIP3   OH225825   3.638   1.846   8.656 -0.2322  0.0294  0.6259
 1397TIP3    H125826   3.717   1.793   8.667  0.9757  2.0704  2.6840
 1397TIP3    H225827   3.612   1.870   8.745 -1.8964  1.2528 -0.1300
 1398TIP3   OH225828   1.878   3.433   0.334  0.2371  0.1664  0.2218
 1398TIP3    H125829   1.843   3.464   0.417  2.7156  1.9203  0.7034
 1398TIP3    H225830   1.962   3.478   0.324  1.9555 -3.0121 -1.2920
 1399TIP3   OH225831   5.890   0.754   6.358 -0.4144 -0.1055  0.1199
 1399TIP3    H125832   5.869   0.847   6.366  0.4188  0.0255  0.9496
 1399TIP3    H225833   5.806   0.710   6.366 -0.7869  0.5601 -0.0313
 1400TIP3   OH225834   5.890   2.654   6.607  0.1443  0.0257 -0.1684
 1400TIP3    H125835   5.899   2.748   6.619  0.8587 -0.1492  0.8854
 1400TIP3    H225836   5.885   2.619   6.696  0.4181 -0.9725 -0.5299
 1401TIP3   OH225837   0.459   1.761   7.596 -0.0253  0.1655 -0.5752
 1401TIP3    H125838   0.522   1.818   7.641 -1.3868  0.6270  0.8423
 1401TIP3    H225839   0.473   1.675   7.635 -0.2679  0.2705 -0.2522
 1402TIP3   OH225840   5.842   4.824   8.481  0.0053 -0.0572 -0.3658
 1402TIP3    H125841   5.833   4.862   8.568 -0.8688  1.2223 -0.9838
 1402TIP3    H225842   5.935   4.801   8.474  0.0525 -0.3027  0.9347
 1403TIP3   OH225843   5.705   0.977   0.807 -0.3761  0.4368  0.0008
 1403TIP3    H125844   5.701   0.978   0.711 -1.5136 -0.5436  0.0253
 1403TIP3    H225845   5.732   1.066   0.830  3.3802 -0.1477 -1.3253
 1404TIP3   OH225846   4.870   4.376   8.043 -0.2654 -0.2572 -0.0207
 1404TIP3    H125847   4.914   4.307   7.992  0.0331  0.7853 -1.2193
 1404TIP3    H225848   4.792   4.333   8.079 -0.7396 -0.9293 -1.7384
 1405TIP3   OH225849   3.117   6.234   8.735  0.2990  0.1478  0.2676
 1405TIP3    H125850   3.133   6.319   8.694 -1.0492 -0.0936 -0.8181
 1405TIP3    H225851   3.022   6.229   8.746  0.3271 -1.3128  0.0815
 1406TIP3   OH225852   1.869   0.621   7.512 -0.7062  0.0952 -0.0034
 1406TIP3    H125853   1.855   0.647   7.603  0.3645  0.1322  0.1704
 1406TIP3    H225854   1.783   0.629   7.471 -0.5358  4.1080  0.0011
 1407TIP3   OH225855   1.696   0.895   8.258 -0.2106 -0.0018  0.0404
 1407TIP3    H125856   1.629   0.959   8.234  0.8025  0.0651 -2.8634
 1407TIP3    H225857   1.772   0.948   8.282  0.1498 -0.0728 -0.9061
 1408TIP3   OH225858   6.736   5.033   0.287 -0.4209 -0.1063 -0.9569
 1408TIP3    H125859   6.727   4.994   0.374 -1.8098 -3.5140 -2.4531
 1408TIP3    H225860   6.818   4.998   0.252  1.0858  2.6534 -0.5193
 1409TIP3   OH225861   2.471   2.729   0.924 -0.1928  0.1318  0.2824
 1409TIP3    H125862   2.441   2.672   0.995 -1.0723  0.6496  0.3416
 1409TIP3    H225863   2.439   2.816   0.948 -1.7386  0.0999 -1.4053
 1410TIP3   OH225864   5.112   0.115   1.174 -0.4921 -0.5091  0.1064
 1410TIP3    H125865   5.083   0.038   1.224 -2.8559 -0.3595 -0.8949
 1410TIP3    H225866   5.180   0.081   1.117 -0.9528 -1.7107  0.2201
 1411TIP3   OH225867   4.714   3.129   8.697  0.5677  0.1448 -0.3819
 1411TIP3    H125868   4.711   3.212   8.744  0.2815 -0.4702  0.7393
 1411TIP3    H225869   4.732   3.064   8.765 -2.2151 -1.0823 -0.6683
 1412TIP3   OH225870   6.173   4.424   0.524  0.1450  0.3632  0.1330
 1412TIP3    H125871   6.110   4.483   0.482  0.0262  0.1976  0.0766
 1412TIP3    H225872   6.195   4.467   0.607  1.0551  1.1154 -0.4864
 1413TIP3   OH225873   6.618   2.107   7.652 -0.2831 -0.1882 -0.4186
 1413TIP3    H125874   6.601   2.175   7.587 -1.6436  0.0514  0.1482
 1413TIP3    H225875   6.531   2.081   7.682  0.3021 -0.3726  1.2077
 1414TIP3   OH225876   1.614   6.756   0.972 -0.1018 -0.0394 -0.0334
 1414TIP3    H125877   1.694   6.730   1.018 -0.1141  0.2769  0.1667
 1414TIP3    H225878   1.592   6.842   1.008  0.1654  0.4442 -0.9814
 1415TIP3   OH225879   5.469   3.042   6.893 -0.0242 -0.5422  0.1893
 1415TIP3    H125880   5.458   3.030   6.988 -0.3000  1.0623  0.3738
 1415TIP3    H225881   5.546   3.098   6.884 -0.8039  0.4497 -0.4698
 1416TIP3   OH225882   4.264   4.405   1.383 -0.3488 -0.0724 -0.2824
 1416TIP3    H125883   4.348   4.377   1.347 -1.0944 -0.8873 -1.5029
 1416TIP3    H225884   4.202   4.340   1.351 -1.4870  0.6513  0.3753
 1417TIP3   OH225885   0.579   1.100   0.653 -0.4855  0.9872  0.2384
 1417TIP3    H125886   0.509   1.068   0.710  0.2026 -0.4781  0.3013
 1417TIP3    H225887   0.632   1.022   0.634  0.2113  1.7594 -1.1086
 1418TIP3   OH225888   2.408   3.998   7.670 -0.1670  0.2291 -0.2976
 1418TIP3    H125889   2.446   4.067   7.725 -3.0604 -0.1843  2.4606
 1418TIP3    H225890   2.421   3.917   7.719  0.0553 -0.7252 -1.8406
 1419TIP3   OH225891   1.094   4.021   2.318  0.3057 -0.5634 -0.6101
 1419TIP3    H125892   1.108   4.114   2.297  0.5115 -0.6122 -0.6954
 1419TIP3    H225893   1.022   3.994   2.262 -0.0898 -0.3261 -0.2247
 1420TIP3   OH225894   6.077   0.907   0.914 -0.6244  0.5698 -0.9643
 1420TIP3    H125895   5.983   0.888   0.907 -0.2457 -0.9003 -2.6243
 1420TIP3    H225896   6.120   0.823   0.898  0.9977  0.9041  1.1763
 1421TIP3   OH225897   2.711   0.998   8.417  0.1765  0.0438  0.2609
 1421TIP3    H125898   2.727   1.060   8.488 -2.8553  1.1488  0.1214
 1421TIP3    H225899   2.716   1.050   8.337  0.0828 -0.4571 -0.0803
 1422TIP3   OH225900   1.862   6.063   0.255  0.2388  0.3937  0.0983
 1422TIP3    H125901   1.933   6.109   0.299 -0.2626  0.9768  0.3074
 1422TIP3    H225902   1.782   6.097   0.296 -0.2309  0.8663 -1.1885
 1423TIP3   OH225903   2.057   3.968   7.394  0.3440  0.2930 -0.5694
 1423TIP3    H125904   2.128   3.918   7.435 -0.0704  0.4981  0.4239
 1423TIP3    H225905   2.047   4.045   7.450 -2.1678 -0.8134  0.6433
 1424TIP3   OH225906   1.556   0.414   0.875 -0.6936 -0.0522  0.0164
 1424TIP3    H125907   1.490   0.476   0.843 -2.0527 -1.1411  0.6164
 1424TIP3    H225908   1.595   0.458   0.951  0.4909  1.2907 -1.2959
 1425TIP3   OH225909   5.722   3.886   1.692  0.3147 -0.0240 -0.0799
 1425TIP3    H125910   5.770   3.964   1.666  0.7473 -0.8702 -2.0122
 1425TIP3    H225911   5.790   3.823   1.718  0.0433 -0.1381  0.3699
 1426TIP3   OH225912   3.818   2.410   6.491 -0.0504 -0.1556  0.0009
 1426TIP3    H125913   3.850   2.439   6.577 -0.6184 -1.5297  0.7173
 1426TIP3    H225914   3.849   2.320   6.483 -1.6486 -0.7216 -0.3456
 1427TIP3   OH225915   3.404   4.566   1.249  0.4293  0.0511 -0.5341
 1427TIP3    H125916   3.343   4.639   1.246 -0.1156 -0.4136 -2.7368
 1427TIP3    H225917   3.477   4.593   1.194  0.4156 -0.8640 -1.0292
 1428TIP3   OH225918   0.881   2.883   7.377 -0.0782 -0.2786 -0.1981
 1428TIP3    H125919   0.808   2.821   7.372  0.2817 -0.6374 -1.2107
 1428TIP3    H225920   0.944   2.851   7.313 -0.1366  1.4832 -1.1937
 1429TIP3   OH225921   3.104   5.544   0.835 -0.1127 -0.2878  0.0144
 1429TIP3    H125922   3.068   5.503   0.914  2.7843  2.2792  3.0059
 1429TIP3    H225923   3.033   5.600   0.803 -0.3170  1.7389  3.4179
 1430TIP3   OH225924   4.996   3.736   8.476 -0.2125 -0.1834  0.1544
 1430TIP3    H125925   5.002   3.775   8.563  0.2942 -0.3160  0.1833
 1430TIP3    H225926   4.927   3.785   8.432  0.1509  0.4853  0.3225
 1431TIP3   OH225927   0.536   1.279   7.701  0.1290 -0.1448 -0.4885
 1431TIP3    H125928   0.442   1.296   7.706 -0.0611 -0.6701 -1.9389
 1431TIP3    H225929   0.567   1.290   7.791 -1.0793  1.3694 -0.2310
 1432TIP3   OH225930   4.863   3.969   7.801  0.2154 -0.0644 -0.0878
 1432TIP3    H125931   4.819   3.955   7.717 -0.0265 -0.3053  0.0752
 1432TIP3    H225932   4.955   3.977   7.778  0.3237 -1.4781 -0.2644
 1433TIP3   OH225933   0.603   6.682   1.185 -0.0276  0.2078 -0.6305
 1433TIP3    H125934   0.592   6.600   1.137  0.0213  0.1166 -0.4838
 1433TIP3    H225935   0.690   6.714   1.159 -0.5464  0.8486 -1.6633
 1434TIP3   OH225936   0.141   4.316   8.634 -0.1077  0.2838  0.0422
 1434TIP3    H125937   0.185   4.320   8.549  1.0351  2.0551  0.6534
 1434TIP3    H225938   0.199   4.364   8.693 -0.7179 -1.1734  1.9162
 1435TIP3   OH225939   0.969   6.022   1.933  0.0947  0.1260  0.1096
 1435TIP3    H125940   0.887   5.980   1.960  0.6435  0.3283  2.1978
 1435TIP3    H225941   1.038   5.969   1.973  0.9710  0.4908 -0.8768
 1436TIP3   OH225942   2.409   1.727   6.531 -0.4738 -0.5981 -0.2963
 1436TIP3    H125943   2.484   1.678   6.498  2.4200  2.4075  1.2230
 1436TIP3    H225944   2.363   1.757   6.453  1.8133  0.1427 -1.4360
 1437TIP3   OH225945   1.298   2.117   8.514 -0.1296 -0.1521 -0.3143
 1437TIP3    H125946   1.341   2.034   8.491  0.5063 -0.1061  0.6578
 1437TIP3    H225947   1.208   2.106   8.484  0.1421 -0.8942 -0.9001
 1438TIP3   OH225948   1.612   1.492   1.739 -0.5761 -0.2068 -0.4824
 1438TIP3    H125949   1.706   1.499   1.757 -0.7230  0.2646  0.1195
 1438TIP3    H225950   1.578   1.580   1.755 -1.1528 -0.4178 -0.5306
 1439TIP3   OH225951   3.218   1.328   6.728 -1.0191  0.2010 -0.2226
 1439TIP3    H125952   3.260   1.316   6.813 -0.5154 -1.2603 -0.6641
 1439TIP3    H225953   3.252   1.412   6.697  0.4883 -0.2816  0.0570
 1440TIP3   OH225954   2.945   6.828   7.408 -0.0471 -0.6572  0.0868
 1440TIP3    H125955   2.901   6.899   7.454 -1.4260 -1.6617  0.3788
 1440TIP3    H225956   2.896   6.819   7.326  0.6042 -0.7592 -0.2925
 1441TIP3   OH225957   5.154   2.888   7.900  0.2699 -0.0887 -0.2084
 1441TIP3    H125958   5.192   2.954   7.957  0.5515 -0.9713  0.6656
 1441TIP3    H225959   5.215   2.879   7.828  0.8966 -0.3154  0.3398
 1442TIP3   OH225960   1.982   6.675   8.431 -0.7713 -0.8571  0.2978
 1442TIP3    H125961   1.928   6.635   8.363 -0.8017 -1.9702  0.9344
 1442TIP3    H225962   2.069   6.680   8.393 -0.9934 -0.5339 -0.1728
 1443TIP3   OH225963   0.857   2.933   7.673 -0.1416 -0.2119 -0.5029
 1443TIP3    H125964   0.819   2.847   7.693 -0.9492  0.1555 -0.4154
 1443TIP3    H225965   0.868   2.932   7.578  0.0264 -0.4870 -0.4809
 1444TIP3   OH225966   2.364   6.357   7.773  0.2617 -0.0153  0.2568
 1444TIP3    H125967   2.424   6.421   7.812  1.1355 -0.0968 -0.8873
 1444TIP3    H225968   2.361   6.285   7.836  1.5960 -0.1221  0.2210
 1445TIP3   OH225969   3.693   6.717   7.686  0.4455  0.9961  0.8103
 1445TIP3    H125970   3.662   6.791   7.635  1.6703  1.3166  0.4971
 1445TIP3    H225971   3.771   6.686   7.640 -1.3757 -2.1034 -0.5036
 1446TIP3   OH225972   2.043   6.490   0.011 -0.0033  0.6269 -0.3440
 1446TIP3    H125973   1.988   6.413  -0.003  1.2940 -0.2559 -0.8027
 1446TIP3    H225974   2.131   6.455   0.026  0.7102  2.0233 -0.9685
 1447TIP3   OH225975   3.846   1.210   0.829  0.3703  0.2667  0.9785
 1447TIP3    H125976   3.868   1.295   0.791  0.1462 -0.0969  0.0062
 1447TIP3    H225977   3.886   1.146   0.770 -1.5964 -0.3664  0.2454
 1448TIP3   OH225978   5.630   3.953   0.541 -0.1240 -0.1045  1.0450
 1448TIP3    H125979   5.539   3.938   0.516 -0.5950  2.4061  1.0587
 1448TIP3    H225980   5.625   4.005   0.622  1.2612  1.4497  0.1967
 1449TIP3   OH225981   1.007   5.328   2.117  0.4495  0.4510  0.3411
 1449TIP3    H125982   1.053   5.268   2.175  2.2832 -0.0789 -1.5639
 1449TIP3    H225983   0.925   5.283   2.096  1.4828 -1.1299 -0.4945
 1450TIP3   OH225984   1.989   2.638   0.801 -0.2722  0.2127 -0.0120
 1450TIP3    H125985   1.924   2.624   0.731  1.0593  1.2362 -1.5135
 1450TIP3    H225986   1.990   2.732   0.815 -2.1681 -0.0816  3.1388
 1451TIP3   OH225987   2.501   3.201   7.405 -0.4160 -0.1094  0.2136
 1451TIP3    H125988   2.461   3.115   7.421 -1.3647  0.4742  1.1075
 1451TIP3    H225989   2.490   3.215   7.311 -1.1027 -0.5580  0.2168
 1452TIP3   OH225990   3.705   5.702   1.084 -0.1203  0.2589 -0.1033
 1452TIP3    H125991   3.645   5.749   1.142  1.0963  1.4540  0.2198
 1452TIP3    H225992   3.694   5.745   0.999  0.3292  0.5361 -0.0240
 1453TIP3   OH225993   1.805   2.037   1.826 -0.1089 -0.1526 -0.3724
 1453TIP3    H125994   1.793   2.004   1.737  0.2072  1.5896 -1.0948
 1453TIP3    H225995   1.817   2.131   1.815 -0.9598  0.2340  1.5965
 1454TIP3   OH225996   1.643   5.606   0.529 -0.3599 -0.0619 -0.4493
 1454TIP3    H125997   1.628   5.696   0.556 -0.1086  0.0358 -0.6414
 1454TIP3    H225998   1.666   5.560   0.610 -2.9495 -0.5095  0.1415
 1455TIP3   OH225999   2.844   6.337   8.717 -0.0214 -0.3857  0.0289
 1455TIP3    H126000   2.805   6.410   8.764  2.0414  0.6429  0.2463
 1455TIP3    H226001   2.834   6.359   8.625 -0.1578 -0.2675  0.0712
 1456TIP3   OH226002   5.391   5.276   1.711  0.5682  0.0874 -0.0016
 1456TIP3    H126003   5.375   5.363   1.746  0.3739 -0.5955  1.7043
 1456TIP3    H226004   5.397   5.289   1.616  0.3689  1.9082  0.1984
 1457TIP3   OH226005   2.799   4.189   7.125  0.0633 -0.5356 -0.1407
 1457TIP3    H126006   2.757   4.193   7.038 -1.0910  1.1170  0.4350
 1457TIP3    H226007   2.800   4.096   7.147 -0.7563 -0.8719 -1.4090
 1458TIP3   OH226008   6.183   4.717   6.671  0.7324 -0.0039  0.3362
 1458TIP3    H126009   6.240   4.660   6.724  0.2167 -0.4305  0.4405
 1458TIP3    H226010   6.237   4.794   6.653  1.5446 -0.6459 -0.0491
 1459TIP3   OH226011   1.453   4.893   1.875  0.0767  0.2435  1.0047
 1459TIP3    H126012   1.533   4.933   1.910  0.6437 -0.1192  0.1657
 1459TIP3    H226013   1.477   4.801   1.862 -0.0873  0.3740 -0.3571
 1460TIP3   OH226014   3.788   3.863   7.183 -0.0448 -0.1335  0.0902
 1460TIP3    H126015   3.758   3.890   7.096 -0.1543  3.0082  1.0095
 1460TIP3    H226016   3.789   3.767   7.178 -1.2307 -0.1178 -2.9535
 1461TIP3   OH226017   3.771   3.560   7.189  0.1966  0.2681  0.4960
 1461TIP3    H126018   3.715   3.514   7.127 -0.0521 -0.4133  1.2115
 1461TIP3    H226019   3.860   3.532   7.166  0.2740  1.4150 -0.6897
 1462TIP3   OH226020   6.285   1.456   7.846 -0.0280  0.0313  0.2821
 1462TIP3    H126021   6.274   1.483   7.937 -0.7436  1.5817 -0.2382
 1462TIP3    H226022   6.205   1.485   7.802 -0.8481 -2.9049 -0.3956
 1463TIP3   OH226023   4.714   1.865   8.205  0.2095 -0.1569 -0.1531
 1463TIP3    H126024   4.731   1.940   8.149  3.6795 -0.9382 -0.3681
 1463TIP3    H226025   4.685   1.796   8.146 -0.3212  0.2293 -0.3459
 1464TIP3   OH226026   1.331   4.974   7.047  0.1271  0.2046  0.1078
 1464TIP3    H126027   1.345   4.953   6.955 -0.5385 -1.0660  0.2730
 1464TIP3    H226028   1.418   4.997   7.080  0.2680  1.2710 -0.9602
 1465TIP3   OH226029   5.812   2.492   8.133 -0.6842 -0.2297 -0.0301
 1465TIP3    H126030   5.849   2.510   8.046 -0.2445  0.3967  0.2719
 1465TIP3    H226031   5.878   2.439   8.177  0.7093  2.2114  1.0818
 1466TIP3   OH226032   1.360   5.832   0.402  0.1464  0.6081  0.1589
 1466TIP3    H126033   1.310   5.758   0.435 -1.6613  1.8256  0.3074
 1466TIP3    H226034   1.365   5.893   0.477  3.1451 -0.0341  0.6085
 1467TIP3   OH226035   2.202   3.993   1.702 -0.2738  0.3259 -0.3160
 1467TIP3    H126036   2.170   3.908   1.735 -0.1113  0.3718 -0.0333
 1467TIP3    H226037   2.238   3.973   1.616  0.3681 -0.0235  0.0238
 1468TIP3   OH226038   1.896   6.233   1.558  0.3612 -0.1964 -0.1185
 1468TIP3    H126039   1.859   6.314   1.522 -3.6795 -2.6369 -2.1288
 1468TIP3    H226040   1.833   6.205   1.624  1.2994 -2.0929  0.0261
 1469TIP3   OH226041   1.415   5.783   7.513 -0.4259  0.2310 -0.2523
 1469TIP3    H126042   1.400   5.735   7.594 -1.6288  0.5345 -0.2819
 1469TIP3    H226043   1.478   5.729   7.465  1.2071  0.6185  1.3522
 1470TIP3   OH226044   5.325   2.828   7.033 -0.4051 -0.1425 -0.2689
 1470TIP3    H126045   5.298   2.889   6.964 -2.0239  0.0728  0.4908
 1470TIP3    H226046   5.307   2.742   6.996 -2.3535 -0.0086  0.2135
 1471TIP3   OH226047   0.751   1.150   7.404  0.6272 -0.0251  0.8081
 1471TIP3    H126048   0.675   1.145   7.346  2.1912 -0.3892 -1.3609
 1471TIP3    H226049   0.748   1.238   7.441 -0.0486  0.4985 -0.4388
 1472TIP3   OH226050   5.290   6.752   7.084  0.2396 -0.4985 -0.2826
 1472TIP3    H126051   5.272   6.746   7.177  2.0424 -2.6061  0.0004
 1472TIP3    H226052   5.379   6.717   7.074 -0.0914 -0.7929 -2.8481
 1473TIP3   OH226053   0.157   2.934   2.224 -0.2800  0.2590 -0.6342
 1473TIP3    H126054   0.200   3.019   2.217  0.3840 -0.0302 -0.1511
 1473TIP3    H226055   0.195   2.881   2.154 -2.7439  1.1816 -2.8417
 1474TIP3   OH226056   1.038   3.634   2.604  0.5752  0.0883  0.3306
 1474TIP3    H126057   1.099   3.704   2.627  1.1580 -0.1359 -0.5338
 1474TIP3    H226058   0.978   3.674   2.541 -1.0025  0.6880  2.0931
 1475TIP3   OH226059   3.059   5.532   1.118 -0.4803  0.0837  0.3467
 1475TIP3    H126060   3.142   5.575   1.098 -0.9316  1.4372  1.2707
 1475TIP3    H226061   3.065   5.510   1.211 -1.2722  0.4486  0.4898
 1476TIP3   OH226062   0.363   5.603   7.194  0.2340  0.6178 -0.3313
 1476TIP3    H126063   0.321   5.594   7.108  1.0026  0.3753 -0.6924
 1476TIP3    H226064   0.376   5.698   7.204  2.9288  0.5260 -1.9031
 1477TIP3   OH226065   5.666   3.649   1.196  0.3727 -0.0774 -0.6956
 1477TIP3    H126066   5.649   3.556   1.181 -2.3078  0.3436 -0.7149
 1477TIP3    H226067   5.592   3.678   1.249  1.6099  1.8816  0.0497
 1478TIP3   OH226068   4.610   1.385   6.618  0.1414  0.2807 -0.3397
 1478TIP3    H126069   4.694   1.340   6.623 -0.6215 -1.0633  2.1722
 1478TIP3    H226070   4.625   1.469   6.661  0.1623 -0.0877  0.3934
 1479TIP3   OH226071   6.581   1.348   7.298 -0.2299 -0.5839 -0.7995
 1479TIP3    H126072   6.519   1.325   7.368  0.0642 -1.8005 -0.9064
 1479TIP3    H226073   6.667   1.344   7.340  0.0335 -2.2836 -1.4183
 1480TIP3   OH226074   4.466   2.612   7.613  0.2289 -0.0472  0.4488
 1480TIP3    H126075   4.433   2.614   7.703 -0.4175  2.1948  0.2261
 1480TIP3    H226076   4.561   2.609   7.622  0.3592  3.1219  1.3676
 1481TIP3   OH226077   4.910   0.370   1.562  0.0919 -0.2391  0.3197
 1481TIP3    H126078   4.951   0.453   1.538  0.1432 -0.1549  0.6917
 1481TIP3    H226079   4.967   0.334   1.630 -0.7123  0.1221  1.2231
 1482TIP3   OH226080   3.420   3.988   6.208 -0.8486  1.0649  0.1479
 1482TIP3    H126081   3.353   4.023   6.267 -0.8712  0.1998  0.6395
 1482TIP3    H226082   3.490   3.958   6.266 -0.8613  0.2193 -0.2664
 1483TIP3   OH226083   3.412   6.474   6.550 -0.0601  0.0266 -0.0617
 1483TIP3    H126084   3.393   6.489   6.458 -0.7918 -1.7511 -0.2537
 1483TIP3    H226085   3.368   6.390   6.570 -2.8860  1.9254  2.7718
 1484TIP3   OH226086   0.034   0.335   8.783 -0.3899  0.2630  0.5202
 1484TIP3    H126087   0.028   0.375   8.870 -1.3202  1.5375 -0.1050
 1484TIP3    H226088   0.108   0.379   8.741  0.2974 -0.6146  0.7642
 1485TIP3   OH226089   0.641   4.250   7.672  0.3668 -0.1673  0.5514
 1485TIP3    H126090   0.663   4.166   7.712  1.5204 -1.0777 -1.7754
 1485TIP3    H226091   0.616   4.228   7.582 -0.6045  1.8729  0.2649
 1486TIP3   OH226092   6.142   0.463   7.205 -0.1839  0.1915  0.2153
 1486TIP3    H126093   6.078   0.412   7.255  0.4409 -0.3050  0.5278
 1486TIP3    H226094   6.225   0.418   7.221  0.2358  0.8106 -0.2075
 1487TIP3   OH226095   2.200   4.789   2.359 -0.1878 -0.2511  0.0779
 1487TIP3    H126096   2.130   4.751   2.306 -0.5124  0.6115 -0.1242
 1487TIP3    H226097   2.155   4.845   2.422  0.2281 -0.8457  0.9402
 1488TIP3   OH226098   4.424   2.192   8.611  0.6952  0.5516 -0.3235
 1488TIP3    H126099   4.509   2.148   8.608  0.8007  0.7665 -0.5450
 1488TIP3    H226100   4.446   2.284   8.627  0.5873  0.8758 -1.9155
 1489TIP3   OH226101   1.060   5.686   7.361 -0.6422 -0.4597  0.3373
 1489TIP3    H126102   0.968   5.711   7.355 -0.3558  0.8419  0.9101
 1489TIP3    H226103   1.064   5.622   7.432 -0.7947  1.3764  2.0978
 1490TIP3   OH226104   2.285   1.419   0.038 -0.2569  0.1863 -0.9871
 1490TIP3    H126105   2.310   1.511   0.047  0.9833 -0.1986 -0.2749
 1490TIP3    H226106   2.340   1.385  -0.032 -0.2352 -0.1751 -0.7993
 1491TIP3   OH226107   4.534   5.957   7.934 -0.1343  0.4510 -0.2082
 1491TIP3    H126108   4.528   5.968   8.029 -0.4746  0.9510 -0.2864
 1491TIP3    H226109   4.530   6.047   7.899 -0.9458  0.2126 -0.7490
 1492TIP3   OH226110   0.769   5.162   7.450 -0.1920  0.4372  0.4153
 1492TIP3    H126111   0.853   5.118   7.462 -0.3924  0.1527  0.7627
 1492TIP3    H226112   0.792   5.247   7.412  0.1590 -0.1274 -0.6638
 1493TIP3   OH226113   2.823   6.478   8.464 -0.0778  0.3608  0.4889
 1493TIP3    H126114   2.730   6.456   8.452 -0.2051  0.4645  1.2127
 1493TIP3    H226115   2.824   6.573   8.464  0.2326  0.3794 -0.9039
 1494TIP3   OH226116   3.028   3.973   0.081 -0.0585 -0.3658 -0.1819
 1494TIP3    H126117   2.940   3.970   0.119  0.1140  0.8539  0.3445
 1494TIP3    H226118   3.083   3.929   0.147 -0.1058 -0.1720 -0.0112
 1495TIP3   OH226119   3.836   2.519   0.522  0.8213  0.7735  0.3327
 1495TIP3    H126120   3.760   2.571   0.546 -0.2010 -0.7267  0.5186
 1495TIP3    H226121   3.886   2.511   0.603  0.9816  1.4331  0.3033
 1496TIP3   OH226122   3.638   5.791   6.706  0.2982  0.1668  0.0812
 1496TIP3    H126123   3.605   5.866   6.756 -1.0306 -0.3220 -0.0275
 1496TIP3    H226124   3.601   5.802   6.619  0.9651 -0.0592 -0.2352
 1497TIP3   OH226125   3.867   0.973   7.146 -0.4336  0.4638 -0.2152
 1497TIP3    H126126   3.787   1.009   7.184 -1.4347 -0.2580 -1.5309
 1497TIP3    H226127   3.852   0.978   7.052  0.8373 -0.2250 -0.4665
 1498TIP3   OH226128   0.498   0.209   8.193 -0.1530  0.6157 -0.2709
 1498TIP3    H126129   0.456   0.273   8.250 -0.2504  0.5352 -0.2526
 1498TIP3    H226130   0.539   0.147   8.252 -0.6404  0.2765 -0.2868
 1499TIP3   OH226131   4.777   6.819   0.947  0.5694 -0.0273 -0.4341
 1499TIP3    H126132   4.756   6.830   1.040  2.1935 -1.3073  0.1395
 1499TIP3    H226133   4.715   6.752   0.917  1.0745 -0.7885  0.1696
 1500TIP3   OH226134   5.375   5.475   8.254  0.5309 -0.0344 -0.3414
 1500TIP3    H126135   5.398   5.566   8.272  1.1311 -0.4697  1.3451
 1500TIP3    H226136   5.336   5.444   8.336 -1.7566 -0.6893 -1.6097
 1501TIP3   OH226137   2.971   0.601   0.878 -0.2878 -0.6122  0.1986
 1501TIP3    H126138   2.973   0.591   0.973  2.7107  1.0386  0.4327
 1501TIP3    H226139   2.920   0.680   0.863 -0.1248 -0.4459  0.5134
 1502TIP3   OH226140   0.704   3.032   0.584 -0.0319  0.3014 -0.1492
 1502TIP3    H126141   0.621   3.007   0.623 -0.2151  0.6608 -0.3046
 1502TIP3    H226142   0.770   2.986   0.636 -0.2503  1.0043  0.7905
 1503TIP3   OH226143   4.453   4.186   1.251  0.4295 -0.1165 -0.3637
 1503TIP3    H126144   4.395   4.160   1.323  1.3231 -1.2396 -0.0141
 1503TIP3    H226145   4.521   4.118   1.249 -0.3162 -0.9212 -3.1519
 1504TIP3   OH226146   0.261   5.556   7.969  0.5570  0.0346 -0.4600
 1504TIP3    H126147   0.324   5.512   8.026 -2.4749 -1.3111  2.0999
 1504TIP3    H226148   0.277   5.518   7.882  1.5191 -2.2341  0.6257
 1505TIP3   OH226149   1.209   4.117   8.296  0.2896  0.2965  0.1112
 1505TIP3    H126150   1.265   4.040   8.286  1.5901  1.5351 -3.2393
 1505TIP3    H226151   1.141   4.106   8.229 -0.6508  1.1654  0.8934
 1506TIP3   OH226152   6.230   3.533   0.666 -0.4667 -0.3313 -0.1614
 1506TIP3    H126153   6.135   3.518   0.669 -0.4281 -0.5096  0.4802
 1506TIP3    H226154   6.257   3.531   0.758  0.0709  0.3081 -0.2968
 1507TIP3   OH226155   3.260   2.474   1.452  0.4433  0.1952 -0.4129
 1507TIP3    H126156   3.214   2.454   1.533 -1.5584 -0.3795 -1.6060
 1507TIP3    H226157   3.247   2.568   1.438 -2.5789 -0.3125 -1.8902
 1508TIP3   OH226158   5.950   5.120   8.225  0.7366 -0.2311  1.3672
 1508TIP3    H126159   5.910   5.048   8.273 -0.2190  0.0831  1.0683
 1508TIP3    H226160   5.933   5.197   8.279 -1.8832  0.4244 -0.1959
 1509TIP3   OH226161   0.891   1.464   0.718 -0.6030 -0.3175 -0.6264
 1509TIP3    H126162   0.923   1.543   0.762 -1.7163  0.4214 -1.0880
 1509TIP3    H226163   0.855   1.410   0.789 -1.2122  0.2831 -0.4647
 1510TIP3   OH226164   6.141   2.939   0.977 -0.3023 -0.0912  0.0355
 1510TIP3    H126165   6.223   2.922   0.930 -0.4605 -0.7897 -0.0108
 1510TIP3    H226166   6.147   2.884   1.056 -0.6336  0.0215  0.1416
 1511TIP3   OH226167   6.838   1.237   7.914  0.2978  0.3152  0.4618
 1511TIP3    H126168   6.798   1.307   7.966  1.8330  1.4092  0.2145
 1511TIP3    H226169   6.780   1.229   7.838 -0.3386  0.7476  0.8821
 1512TIP3   OH226170   2.642   6.511   2.735 -0.4326 -0.5032  0.0280
 1512TIP3    H126171   2.734   6.537   2.731 -0.0795 -1.7542 -0.2533
 1512TIP3    H226172   2.594   6.590   2.710  0.6330 -0.3164 -1.5388
 1513TIP3   OH226173   6.781   3.230   0.317  0.1991 -0.1230 -0.2220
 1513TIP3    H126174   6.750   3.146   0.283 -1.0932  0.0433  0.4947
 1513TIP3    H226175   6.819   3.209   0.402 -0.8004  0.1092  0.2916
 1514TIP3   OH226176   2.009   3.052   6.898  0.4084 -0.2336 -0.3194
 1514TIP3    H126177   1.994   2.957   6.897  2.3980 -0.5988 -0.4445
 1514TIP3    H226178   1.961   3.083   6.974  0.4591 -1.5042  0.2607
 1515TIP3   OH226179   4.243   4.547   6.738 -0.0418  0.0433  0.0665
 1515TIP3    H126180   4.233   4.459   6.702  1.3288 -0.3475  0.6037
 1515TIP3    H226181   4.191   4.603   6.680 -1.0582 -1.1284 -0.1877
 1516TIP3   OH226182   5.726   6.693   6.598  0.1600  0.4786 -0.0307
 1516TIP3    H126183   5.657   6.757   6.618  0.4535  0.2184  2.0055
 1516TIP3    H226184   5.686   6.634   6.534 -0.8017  1.4953 -0.4138
 1517TIP3   OH226185   0.383   6.109   7.616 -0.2485  0.1014  0.1916
 1517TIP3    H126186   0.477   6.101   7.637 -0.2439 -0.4942 -0.0255
 1517TIP3    H226187   0.373   6.199   7.586  0.4031 -0.0395 -0.4962
 1518TIP3   OH226188   3.876   0.129   1.175  0.2096  0.6657 -0.0765
 1518TIP3    H126189   3.864   0.224   1.178  0.1550  0.8431 -3.0061
 1518TIP3    H226190   3.791   0.096   1.146  0.8594 -0.0229 -1.2689
 1519TIP3   OH226191   1.164   1.706   8.408  0.1653 -0.1007 -0.3016
 1519TIP3    H126192   1.076   1.705   8.370  0.8651 -0.0649 -2.0344
 1519TIP3    H226193   1.204   1.626   8.375  0.2218 -1.0917  1.9900
 1520TIP3   OH226194   5.053   2.646   1.141 -0.4970 -0.2246 -0.2766
 1520TIP3    H126195   5.009   2.731   1.147 -0.3583 -0.1785  0.1384
 1520TIP3    H226196   5.145   2.668   1.132 -0.2616 -0.3231  1.5011
 1521TIP3   OH226197   5.275   2.953   6.737 -0.1330 -0.4128  0.0306
 1521TIP3    H126198   5.342   3.008   6.778 -1.5031  1.0594  0.4125
 1521TIP3    H226199   5.196   3.006   6.739 -1.0886 -1.6884 -1.3676
 1522TIP3   OH226200   4.306   1.190   8.703  0.1317 -0.5004  0.3040
 1522TIP3    H126201   4.344   1.232   8.780 -0.8552 -0.5691  0.8501
 1522TIP3    H226202   4.294   1.098   8.729 -0.1952 -0.5271  0.0653
 1523TIP3   OH226203   1.921   5.808   7.878 -0.2282  1.0905  0.0020
 1523TIP3    H126204   1.978   5.801   7.955 -1.5709  3.5012  1.3348
 1523TIP3    H226205   1.952   5.885   7.831 -0.7807  0.9205 -0.6616
 1524TIP3   OH226206   4.600   1.553   2.126 -0.1694 -0.4850 -0.0545
 1524TIP3    H126207   4.666   1.620   2.145 -0.5308  0.2214 -1.1539
 1524TIP3    H226208   4.603   1.494   2.201  2.2168 -0.8899 -0.3984
 1525TIP3   OH226209   4.277   6.119   7.329  0.1792  0.5768 -0.4261
 1525TIP3    H126210   4.223   6.194   7.303 -1.2818 -1.4478 -3.9180
 1525TIP3    H226211   4.242   6.092   7.413 -1.5124  1.8297 -0.6754
 1526TIP3   OH226212   2.643   5.081   2.246  0.2274 -0.6959 -0.3557
 1526TIP3    H126213   2.608   4.996   2.272 -0.7959 -0.4731 -0.9487
 1526TIP3    H226214   2.566   5.134   2.228  0.8449  0.4231  0.1791
 1527TIP3   OH226215   2.821   0.804   0.777  0.0326  0.6535  0.4994
 1527TIP3    H126216   2.859   0.856   0.706  1.5489  1.5035  1.8595
 1527TIP3    H226217   2.762   0.864   0.821 -1.1983  0.0131 -0.2272
 1528TIP3   OH226218   3.350   4.620   7.906  0.0337 -0.4085 -0.1972
 1528TIP3    H126219   3.387   4.624   7.994 -0.1359  0.0828 -0.1455
 1528TIP3    H226220   3.309   4.533   7.901  0.3867 -0.5918  0.0663
 1529TIP3   OH226221   0.537   1.319   7.960 -0.3835 -0.4206  0.1287
 1529TIP3    H126222   0.491   1.245   8.001 -0.5351 -0.2059  0.3435
 1529TIP3    H226223   0.476   1.392   7.966  0.4404  0.1893  1.4912
 1530TIP3   OH226224   2.987   1.240   6.567 -0.1255  0.1609 -0.0087
 1530TIP3    H126225   2.951   1.154   6.586 -0.0357  0.3461  1.0787
 1530TIP3    H226226   3.071   1.242   6.613  0.4305  0.4011 -1.0019
 1531TIP3   OH226227   2.805   3.618   7.239 -0.2130  0.1285 -0.0402
 1531TIP3    H126228   2.779   3.568   7.316  1.2063  0.1695  0.5024
 1531TIP3    H226229   2.793   3.559   7.166 -0.1167 -0.4432  0.4019
 1532TIP3   OH226230   6.166   6.708   7.690 -0.2878 -0.1359 -0.1612
 1532TIP3    H126231   6.097   6.644   7.708  1.1919 -1.2157  2.0708
 1532TIP3    H226232   6.203   6.680   7.607  0.0760 -1.9832  0.5944
 1533TIP3   OH226233   5.309   0.209   2.213 -0.4046 -0.8032  0.0339
 1533TIP3    H126234   5.217   0.231   2.231 -0.4851 -1.7591  0.9506
 1533TIP3    H226235   5.358   0.287   2.239 -0.7974 -1.0712  1.7566
 1534TIP3   OH226236   2.800   5.801   8.318 -0.8774  0.5237 -0.0119
 1534TIP3    H126237   2.802   5.705   8.319 -1.2533  0.4857  2.0181
 1534TIP3    H226238   2.854   5.825   8.243 -2.4621 -1.2753 -1.8656
 1535TIP3   OH226239   4.570   2.450   0.237  0.5873  0.3088 -0.0329
 1535TIP3    H126240   4.628   2.477   0.308  0.3367  0.7528  0.0032
 1535TIP3    H226241   4.547   2.359   0.258  1.5573  0.0025 -0.2401
 1536TIP3   OH226242   0.053   1.415   1.406 -0.0409 -0.6555 -0.0746
 1536TIP3    H126243   0.057   1.319   1.402  0.0202 -0.7190  1.1824
 1536TIP3    H226244  -0.040   1.435   1.419 -0.3314 -0.4336 -2.1832
 1537TIP3   OH226245   5.888   6.109   8.411 -0.2810  0.0140 -0.6327
 1537TIP3    H126246   5.935   6.084   8.331  0.2417  0.1094 -0.3604
 1537TIP3    H226247   5.929   6.057   8.480 -0.3455  0.3499 -0.3376
 1538TIP3   OH226248   3.521   4.632   8.149  0.0190  0.3583 -0.7266
 1538TIP3    H126249   3.476   4.712   8.175  0.8942  0.5706  0.1795
 1538TIP3    H226250   3.613   4.656   8.144  0.5217 -0.9168  1.1111
 1539TIP3   OH226251   5.324   3.959   1.250  0.6488  0.7535 -0.4477
 1539TIP3    H126252   5.274   3.910   1.315 -0.3240  0.5119 -1.3425
 1539TIP3    H226253   5.415   3.929   1.262  0.2252 -0.5658 -0.3323
 1540TIP3   OH226254   2.653   2.229   0.999  0.0162 -0.2899  0.3376
 1540TIP3    H126255   2.599   2.165   1.045  0.7469 -1.6470 -0.6477
 1540TIP3    H226256   2.597   2.260   0.928  0.1646 -0.9578 -0.0805
 1541TIP3   OH226257   2.587   6.863   2.081  0.1195 -0.0681 -0.0144
 1541TIP3    H126258   2.524   6.824   2.141 -0.3390 -0.0617 -0.4957
 1541TIP3    H226259   2.617   6.791   2.026  0.2407  0.0082 -0.0501
 1542TIP3   OH226260   5.503   6.458   8.326  0.5726 -0.1476 -0.1911
 1542TIP3    H126261   5.525   6.530   8.267 -0.1291 -0.6083 -1.0380
 1542TIP3    H226262   5.584   6.407   8.334  1.1963  0.9424  0.7514
 1543TIP3   OH226263   6.734   3.020   0.698 -0.1080 -0.4568 -0.3445
 1543TIP3    H126264   6.789   3.024   0.619  0.2629 -0.1811 -0.0743
 1543TIP3    H226265   6.719   2.926   0.712  1.0562 -0.5957  0.0964
 1544TIP3   OH226266   3.059   4.648   0.541 -0.0032  0.3023  0.0788
 1544TIP3    H126267   2.968   4.618   0.540  0.1884 -0.2974 -0.3815
 1544TIP3    H226268   3.062   4.716   0.608 -1.1843  1.5507 -1.0731
 1545TIP3   OH226269   3.318   6.261   1.250  0.0307  0.1990  0.2858
 1545TIP3    H126270   3.246   6.288   1.193  0.9677  1.5094 -0.3369
 1545TIP3    H226271   3.312   6.319   1.326  0.5966  0.5286  0.0871
 1546TIP3   OH226272   6.062   3.642   1.071  0.6485 -0.0021  0.0971
 1546TIP3    H126273   6.018   3.618   1.153  0.1385  0.9198  0.1086
 1546TIP3    H226274   6.078   3.736   1.079 -1.2801  0.5635 -1.6926
 1547TIP3   OH226275   2.622   1.860   0.547  0.2647 -0.4519 -0.2018
 1547TIP3    H126276   2.712   1.889   0.563  0.2892 -0.7013  0.1168
 1547TIP3    H226277   2.601   1.805   0.623 -2.0835  4.0011  2.8671
 1548TIP3   OH226278   6.353   5.541   7.720  0.2585 -1.0589  0.3142
 1548TIP3    H126279   6.384   5.490   7.795  1.3980 -0.9166 -0.0426
 1548TIP3    H226280   6.337   5.477   7.651 -1.2748 -1.2483  0.8023
 1549TIP3   OH226281   3.123   1.548   8.083 -0.0693  0.3228 -0.3688
 1549TIP3    H126282   3.040   1.559   8.036 -0.7126 -1.2450  0.3069
 1549TIP3    H226283   3.097   1.524   8.172  1.0814 -1.1610 -0.3884
 1550TIP3   OH226284   2.428   0.675   2.526  0.1443 -0.1180  0.1262
 1550TIP3    H126285   2.378   0.755   2.512  1.9274  1.7947  3.4207
 1550TIP3    H226286   2.372   0.620   2.580 -0.1205 -0.0207 -0.0477
 1551TIP3   OH226287   5.821   3.821   7.642  0.3140  0.6404 -0.0566
 1551TIP3    H126288   5.790   3.873   7.568  1.4399  0.7296 -0.4879
 1551TIP3    H226289   5.893   3.873   7.679 -0.2468  0.6162  1.1375
 1552TIP3   OH226290   2.524   0.376   7.868 -0.9692  0.0702  0.2068
 1552TIP3    H126291   2.584   0.428   7.921  0.4162 -0.3335 -0.8952
 1552TIP3    H226292   2.439   0.418   7.880 -0.1433  1.7738  0.3988
 1553TIP3   OH226293   3.562   6.867   7.889 -0.5433  0.8956 -0.3308
 1553TIP3    H126294   3.609   6.867   7.805  0.1515  0.7508  0.0452
 1553TIP3    H226295   3.622   6.822   7.949  0.9391  4.6167  1.3120
 1554TIP3   OH226296   1.929   3.814   7.225  0.6049  0.1220 -0.2590
 1554TIP3    H126297   1.975   3.867   7.290  1.5201  1.5618 -1.9884
 1554TIP3    H226298   1.837   3.841   7.233  0.8581  1.0037 -0.2213
 1555TIP3   OH226299   0.693   4.023   1.467 -0.8355  0.1003  0.0240
 1555TIP3    H126300   0.637   3.960   1.423 -0.5702  0.7297 -1.2592
 1555TIP3    H226301   0.712   4.089   1.401  0.5938  0.4377  0.7288
 1556TIP3   OH226302   4.882   5.484   1.854  0.6787  0.0402  0.5129
 1556TIP3    H126303   4.827   5.538   1.911  0.7949  0.5425  0.1523
 1556TIP3    H226304   4.953   5.542   1.827 -0.4852  0.4767 -1.8477
 1557TIP3   OH226305   2.169   5.391   8.104  0.0227 -0.1693  0.2844
 1557TIP3    H126306   2.195   5.300   8.111  2.5761  0.3922 -0.7338
 1557TIP3    H226307   2.204   5.432   8.183  0.7502  0.2682 -0.2429
 1558TIP3   OH226308   0.654   3.588   2.360  0.1263  0.6109 -0.1631
 1558TIP3    H126309   0.661   3.498   2.329 -0.7045 -0.4211  2.3379
 1558TIP3    H226310   0.568   3.617   2.330 -0.3907 -0.1248  0.5623
 1559TIP3   OH226311   6.509   4.745   1.841  0.2374 -0.1839  0.3736
 1559TIP3    H126312   6.540   4.817   1.787 -1.2449 -0.7894 -1.3724
 1559TIP3    H226313   6.585   4.688   1.851  1.0763  0.9505  0.7060
 1560TIP3   OH226314   4.010   4.111   1.318  0.1052  0.2045 -0.1038
 1560TIP3    H126315   3.944   4.049   1.288 -0.8982  0.5041  1.3733
 1560TIP3    H226316   4.075   4.058   1.363  0.6591 -0.0430 -1.1721
 1561TIP3   OH226317   6.102   3.930   0.863 -0.5999  0.4766  0.4024
 1561TIP3    H126318   6.018   3.898   0.828 -0.9010  1.8696 -0.2117
 1561TIP3    H226319   6.086   3.940   0.957 -0.3778 -1.4568  0.6883
 1562TIP3   OH226320   5.236   2.434   2.395  0.2257 -0.5559  0.0685
 1562TIP3    H126321   5.150   2.403   2.422  0.2032 -1.6753 -1.2072
 1562TIP3    H226322   5.245   2.520   2.438 -1.4731 -0.4603  0.2923
 1563TIP3   OH226323   3.598   2.531   6.704  0.0961  0.1732  0.4551
 1563TIP3    H126324   3.608   2.626   6.716  1.2644  0.3008 -1.2065
 1563TIP3    H226325   3.621   2.494   6.789 -0.7826  1.3770  1.2609
 1564TIP3   OH226326   4.017   2.699   7.063  0.2233  0.4562 -0.1964
 1564TIP3    H126327   4.022   2.723   6.970  1.3644 -0.5306 -0.4248
 1564TIP3    H226328   3.962   2.766   7.103 -2.7077 -0.6604 -2.0889
 1565TIP3   OH226329   2.079   1.375   1.711 -0.7247  0.0083  0.3677
 1565TIP3    H126330   2.173   1.371   1.729 -0.3203 -1.5484 -1.7099
 1565TIP3    H226331   2.044   1.295   1.750 -0.9219 -0.1418 -0.1136
 1566TIP3   OH226332   4.799   3.720   6.784  0.0106  0.2538 -0.3863
 1566TIP3    H126333   4.779   3.631   6.814 -2.1927  1.1760  1.1595
 1566TIP3    H226334   4.873   3.709   6.724 -0.1882 -2.5955 -0.2498
 1567TIP3   OH226335   2.149   1.246   0.382  0.3452  0.1397 -0.1480
 1567TIP3    H126336   2.090   1.275   0.312 -0.1883  0.2769  0.3492
 1567TIP3    H226337   2.154   1.320   0.442  1.0111  0.1174 -0.1765
 1568TIP3   OH226338   5.143   5.775   1.383 -0.4788 -0.3858  0.0001
 1568TIP3    H126339   5.149   5.687   1.346  3.1878 -0.0001 -0.7189
 1568TIP3    H226340   5.157   5.764   1.476  0.2595 -0.5815 -0.1276
 1569TIP3   OH226341   1.761   1.209   7.995  0.1053  0.1971 -0.4680
 1569TIP3    H126342   1.699   1.259   7.942 -0.4385  0.6956  0.6008
 1569TIP3    H226343   1.846   1.232   7.959 -0.0607  2.4522  0.3768
 1570TIP3   OH226344   4.321   1.782   8.119  0.0389  0.1857 -0.0658
 1570TIP3    H126345   4.352   1.827   8.041  0.0142 -0.8893 -0.7150
 1570TIP3    H226346   4.246   1.834   8.148 -0.0431  0.5156 -0.8483
 1571TIP3   OH226347   4.083   0.342   6.188  0.8080 -0.3451 -0.5710
 1571TIP3    H126348   4.028   0.376   6.258  1.2945 -0.2272 -0.2387
 1571TIP3    H226349   4.066   0.399   6.113 -1.6189 -1.9449 -1.3694
 1572TIP3   OH226350   6.449   3.795   1.081  0.9926 -0.1793  0.8014
 1572TIP3    H126351   6.441   3.797   0.985 -1.4771  1.2740  0.9252
 1572TIP3    H226352   6.480   3.883   1.104  2.7346 -0.9037  1.3014
 1573TIP3   OH226353   6.287   6.434   7.856 -0.3919 -0.5286  0.2171
 1573TIP3    H126354   6.219   6.371   7.834 -0.4682  0.3537 -2.5303
 1573TIP3    H226355   6.240   6.514   7.879 -0.2777 -0.7329  1.1935
 1574TIP3   OH226356   6.274   3.985   7.000 -0.1225 -0.1594  0.0738
 1574TIP3    H126357   6.315   3.917   7.053  4.7486  2.9422  1.0088
 1574TIP3    H226358   6.330   3.992   6.922 -0.6339  2.3919 -0.1545
 1575TIP3   OH226359   2.815   2.824   8.351  0.1897 -0.1375 -0.3837
 1575TIP3    H126360   2.873   2.880   8.403  1.5676 -0.0383 -1.9314
 1575TIP3    H226361   2.853   2.826   8.263  0.1828 -3.3238 -0.5773
 1576TIP3   OH226362   2.194   2.206   6.757  0.7614  0.5092 -1.0073
 1576TIP3    H126363   2.266   2.144   6.744  0.5439 -0.4495  1.7096
 1576TIP3    H226364   2.119   2.164   6.716  0.7931 -0.6914  0.1129
 1577TIP3   OH226365   1.793   2.742   7.049 -0.1757 -0.2617  0.3945
 1577TIP3    H126366   1.712   2.792   7.052 -1.1080 -1.6021 -0.9537
 1577TIP3    H226367   1.774   2.663   7.100  0.0364 -0.8918 -0.4842
 1578TIP3   OH226368   0.816   4.420   0.077 -0.4750 -0.4031 -0.0114
 1578TIP3    H126369   0.864   4.392   0.155 -0.0590  0.3243  0.0011
 1578TIP3    H226370   0.879   4.410   0.006 -0.7661 -0.8008 -0.2213
 1579TIP3   OH226371   3.293   2.017   1.550  0.5618  0.0568  0.8876
 1579TIP3    H126372   3.297   2.027   1.455 -3.1384 -0.4274  0.5132
 1579TIP3    H226373   3.297   1.922   1.564  0.3036  0.0731  1.0984
 1580TIP3   OH226374   0.263   0.451   8.622 -0.2232 -0.1248  0.3450
 1580TIP3    H126375   0.282   0.389   8.551 -0.6184  1.1538 -0.9215
 1580TIP3    H226376   0.205   0.515   8.583  0.7347  1.4545  1.3940
 1581TIP3   OH226377   2.917   3.256   0.946  0.2548 -0.3805  0.0023
 1581TIP3    H126378   2.968   3.310   0.887 -0.4499  0.7710  0.4113
 1581TIP3    H226379   2.913   3.306   1.028 -2.0441 -0.0661 -0.2095
 1582TIP3   OH226380   4.144   1.319   8.184  0.0154  0.6166 -0.3141
 1582TIP3    H126381   4.177   1.301   8.272 -0.1098  0.3657 -0.3184
 1582TIP3    H226382   4.165   1.240   8.134  1.8177  1.4924 -1.0124
 1583TIP3   OH226383   0.580   4.858   1.700  0.2527 -0.3750  0.0781
 1583TIP3    H126384   0.583   4.820   1.788 -1.5107 -0.1559  0.2786
 1583TIP3    H226385   0.672   4.871   1.676  0.8009  0.8714  2.4741
 1584TIP3   OH226386   4.886   5.127   7.828  0.2573  0.2520  0.2796
 1584TIP3    H126387   4.922   5.083   7.905  0.1812  1.6462  1.1619
 1584TIP3    H226388   4.955   5.189   7.801 -0.0928  0.4496 -0.1844
 1585TIP3   OH226389   6.338   5.828   1.948 -0.3059  0.5333  0.0152
 1585TIP3    H126390   6.339   5.866   1.860  0.1718  2.5288  0.8414
 1585TIP3    H226391   6.252   5.853   1.983  0.3869  1.7272  0.9142
 1586TIP3   OH226392   4.926   3.055   0.809  0.2998 -0.4847  0.1000
 1586TIP3    H126393   4.993   3.016   0.864 -1.3681 -2.4710  0.8386
 1586TIP3    H226394   4.857   3.082   0.870 -0.4547 -0.3107 -0.7959
 1587TIP3   OH226395   2.331   6.511   7.107  0.1649 -0.2123  0.3196
 1587TIP3    H126396   2.416   6.533   7.146  0.5323  2.2408 -1.6049
 1587TIP3    H226397   2.342   6.529   7.014 -1.7953 -2.1745 -0.3602
 1588TIP3   OH226398   5.266   1.365   7.583  0.3035  0.4463 -0.0767
 1588TIP3    H126399   5.322   1.287   7.587 -0.8468 -0.4326 -0.6671
 1588TIP3    H226400   5.314   1.425   7.525  0.2652 -0.6174 -1.2443
 1589TIP3   OH226401   3.828   5.120   8.052 -0.3267 -0.1962  0.2195
 1589TIP3    H126402   3.843   5.122   7.957 -0.2947 -0.1011  0.2267
 1589TIP3    H226403   3.752   5.063   8.063  2.1836 -3.9239  0.4276
 1590TIP3   OH226404   1.124   2.574   1.552 -0.3696  0.6219 -0.1718
 1590TIP3    H126405   1.219   2.584   1.560  0.1920 -3.2656  0.0463
 1590TIP3    H226406   1.109   2.562   1.458 -0.1247 -1.6435  0.0138
 1591TIP3   OH226407   6.783   4.160   7.749 -0.1363 -0.7279  0.1253
 1591TIP3    H126408   6.784   4.232   7.813 -1.0125 -0.8065  0.2411
 1591TIP3    H226409   6.704   4.110   7.771  1.0235 -2.3853  0.7564
 1592TIP3   OH226410   2.405   3.498   2.196  0.1271  0.1290  0.0540
 1592TIP3    H126411   2.311   3.480   2.195  0.0747  0.1838  1.7186
 1592TIP3    H226412   2.445   3.418   2.162 -0.5516  0.9050 -2.9240
 1593TIP3   OH226413   3.540   2.588   1.142  0.6516 -0.5853  0.4824
 1593TIP3    H126414   3.530   2.683   1.152  0.5814 -0.7445  2.3613
 1593TIP3    H226415   3.574   2.576   1.053 -2.8856  0.9257 -1.2684
 1594TIP3   OH226416   5.242   5.722   8.017 -0.0639 -0.6949  0.0289
 1594TIP3    H126417   5.189   5.802   8.023 -1.4708 -1.4571 -1.4730
 1594TIP3    H226418   5.292   5.720   8.099 -1.8788  0.4158  1.2228
 1595TIP3   OH226419   5.005   5.952   1.222 -0.2660 -0.4648 -0.0433
 1595TIP3    H126420   5.066   5.990   1.160 -0.7790  0.1985 -0.1521
 1595TIP3    H226421   5.059   5.901   1.282  0.1734 -1.8691 -1.5510
 1596TIP3   OH226422   4.347   2.756   1.748  0.5315 -0.0283  0.0616
 1596TIP3    H126423   4.359   2.794   1.834 -0.6495  2.1122 -0.6369
 1596TIP3    H226424   4.426   2.705   1.732  0.9542 -0.1051  2.2003
 1597TIP3   OH226425   3.601   6.256   0.015 -0.1956  0.0592  0.6609
 1597TIP3    H126426   3.560   6.205  -0.055 -1.7609  1.4766  0.4746
 1597TIP3    H226427   3.540   6.248   0.088  0.3127  0.4192  1.1261
 1598TIP3   OH226428   2.896   5.090   0.293  0.0150 -0.5436 -0.2592
 1598TIP3    H126429   2.977   5.140   0.291 -1.1426  1.4370 -2.2301
 1598TIP3    H226430   2.862   5.096   0.204 -1.5862 -2.5732  0.1406
 1599TIP3   OH226431   1.738   3.248   7.715  0.0686  0.1457  0.4196
 1599TIP3    H126432   1.653   3.240   7.671 -0.2406 -3.5418  1.2863
 1599TIP3    H226433   1.715   3.273   7.805  0.5628  5.6165 -0.6366
 1600TIP3   OH226434   2.762   0.095   2.297  0.3475  0.4208  0.0532
 1600TIP3    H126435   2.823   0.025   2.275  0.1315  0.0114  0.7445
 1600TIP3    H226436   2.692   0.086   2.232  0.2710 -0.0776  0.1952
 1601TIP3   OH226437   5.429   0.712   1.757 -0.0635  0.6376 -0.3291
 1601TIP3    H126438   5.520   0.685   1.745  0.2314  0.9230  1.0768
 1601TIP3    H226439   5.435   0.805   1.778 -0.8843  1.2808 -2.6090
 1602TIP3   OH226440   6.828   6.297   0.139  0.5956 -0.1436  0.4503
 1602TIP3    H126441   6.857   6.207   0.154 -0.9769 -0.8392 -0.4073
 1602TIP3    H226442   6.751   6.288   0.083  1.0589  1.8195 -0.5687
 1603TIP3   OH226443   5.196   2.419   1.739  0.5495 -0.2269  0.9827
 1603TIP3    H126444   5.197   2.492   1.677  0.7161 -0.9314  0.1347
 1603TIP3    H226445   5.225   2.457   1.821 -0.6358  0.9501  0.8961
 1604TIP3   OH226446   0.540   3.886   8.223 -0.6407  0.2544 -0.2897
 1604TIP3    H126447   0.606   3.922   8.164  1.2332 -0.4988  1.2755
 1604TIP3    H226448   0.491   3.963   8.253 -0.2160  0.8713 -1.1224
 1605TIP3   OH226449   0.257   6.837   1.272  0.1856  0.5875 -0.0168
 1605TIP3    H126450   0.310   6.900   1.321 -0.9428  1.1935  0.4667
 1605TIP3    H226451   0.189   6.809   1.334 -1.2727  1.3615 -1.1973
 1606TIP3   OH226452   3.083   4.384   8.701  0.2757  0.2631  0.3790
 1606TIP3    H126453   3.123   4.311   8.654  0.2650  0.2099  0.4526
 1606TIP3    H226454   3.105   4.368   8.793  0.7606  0.6571  0.3389
 1607TIP3   OH226455   3.024   3.763   0.514 -0.5371  0.4131  0.7236
 1607TIP3    H126456   3.085   3.786   0.443 -0.7186  0.0715  0.4520
 1607TIP3    H226457   3.038   3.670   0.528 -0.2600  0.5511  1.3776
 1608TIP3   OH226458   4.945   5.695   7.005  0.2293 -0.0616 -0.2896
 1608TIP3    H126459   4.970   5.613   6.962  3.0885 -0.1628  1.3364
 1608TIP3    H226460   4.990   5.763   6.954  1.0568  0.0976  0.6262
 1609TIP3   OH226461   0.732   0.347   8.336 -0.1657 -0.2849  0.4320
 1609TIP3    H126462   0.706   0.433   8.369  4.1023  0.8164  1.6522
 1609TIP3    H226463   0.753   0.362   8.244 -0.1895 -0.2118  0.4389
 1610TIP3   OH226464   0.741   6.064   0.450  0.3777 -1.1230  0.2622
 1610TIP3    H126465   0.764   6.157   0.456  2.2011 -1.3324 -2.0049
 1610TIP3    H226466   0.779   6.025   0.529 -0.2932 -0.0035  1.1722
 1611TIP3   OH226467   3.568   5.422   0.731 -0.2656  0.5028  0.2557
 1611TIP3    H126468   3.514   5.499   0.711 -0.2848  0.3013 -0.5071
 1611TIP3    H226469   3.649   5.436   0.681  0.4351  0.8360  1.4445
 1612TIP3   OH226470   3.625   5.964   7.708 -0.2838  0.0797 -0.1063
 1612TIP3    H126471   3.628   5.897   7.776  2.0345 -1.1766 -1.3334
 1612TIP3    H226472   3.579   5.923   7.636 -0.9804  0.6995 -0.0291
 1613TIP3   OH226473   6.276   0.449   8.363  0.1448  0.0574  0.2193
 1613TIP3    H126474   6.224   0.484   8.435  0.5795  1.2008 -0.0078
 1613TIP3    H226475   6.225   0.469   8.284  0.0023 -0.5729  0.1449
 1614TIP3   OH226476   4.875   0.710   7.833  0.1829  0.9120  0.8833
 1614TIP3    H126477   4.851   0.793   7.874 -0.5006 -0.5786  3.7295
 1614TIP3    H226478   4.962   0.691   7.868  0.7333  0.8404 -0.4804
 1615TIP3   OH226479   4.700   4.737   1.606  0.0262 -0.4870 -0.1446
 1615TIP3    H126480   4.761   4.753   1.533 -1.1768 -0.8614 -1.2615
 1615TIP3    H226481   4.753   4.691   1.671  1.1395 -0.1361 -0.7713
 1616TIP3   OH226482   5.980   3.000   8.273 -0.3450 -0.7093  0.4659
 1616TIP3    H126483   6.003   2.961   8.358 -1.8814 -0.0893  1.2254
 1616TIP3    H226484   5.945   2.927   8.222 -1.9249 -0.6397  1.3795
 1617TIP3   OH226485   6.849   6.159   7.221  0.2224 -0.2820  0.5172
 1617TIP3    H126486   6.756   6.155   7.242  0.2569 -0.7866  0.6000
 1617TIP3    H226487   6.894   6.148   7.305  0.3744  2.0538  0.7950
 1618TIP3   OH226488   1.114   6.153   2.189  0.0424 -0.5738  0.2430
 1618TIP3    H126489   1.098   6.070   2.234 -0.5110 -1.7814 -2.0089
 1618TIP3    H226490   1.194   6.138   2.139 -1.1688 -0.5711 -1.8359
 1619TIP3   OH226491   3.563   2.242   0.827 -0.2759  0.4540 -0.1154
 1619TIP3    H126492   3.525   2.197   0.903 -0.9273  0.5987 -0.3432
 1619TIP3    H226493   3.600   2.172   0.774  2.2180  0.5222  1.3954
 1620TIP3   OH226494   1.176   0.757   2.067  0.2200  0.8615  0.7583
 1620TIP3    H126495   1.242   0.826   2.065 -0.2908  1.3794 -1.9481
 1620TIP3    H226496   1.097   0.801   2.097  0.5983  0.6699  2.1253
 1621TIP3   OH226497   0.928   0.926   1.197  0.4624  0.1888  0.0739
 1621TIP3    H126498   0.905   1.013   1.164 -0.6865  0.1024  0.5928
 1621TIP3    H226499   0.883   0.920   1.281  0.7458 -0.8124  0.1639
 1622TIP3   OH226500   2.134   4.883   8.582  0.5935 -0.0846 -0.3111
 1622TIP3    H126501   2.085   4.804   8.556  0.2856 -0.2688  0.7828
 1622TIP3    H226502   2.117   4.892   8.676  2.1539  0.2134 -0.0235
 1623TIP3   OH226503   4.162   2.161   8.706  0.2571  0.1127  0.3120
 1623TIP3    H126504   4.238   2.144   8.651  0.6810  2.2736  0.1482
 1623TIP3    H226505   4.111   2.227   8.658 -1.1125 -0.4264  0.9668
 1624TIP3   OH226506   4.203   5.814   1.763 -0.0564  0.5680 -0.4620
 1624TIP3    H126507   4.186   5.882   1.828 -0.8558  1.7435 -1.8497
 1624TIP3    H226508   4.193   5.732   1.811  1.5308  1.4066  1.3955
 1625TIP3   OH226509   3.223   0.457   1.612  0.2379 -0.3030 -0.1654
 1625TIP3    H126510   3.200   0.418   1.528 -0.5440  0.6332 -0.4085
 1625TIP3    H226511   3.220   0.552   1.596 -0.1766 -0.1105  0.9692
 1626TIP3   OH226512   3.303   5.059   6.332 -0.6409  0.6399 -0.0422
 1626TIP3    H126513   3.362   4.990   6.301 -1.9279 -1.5530  2.0705
 1626TIP3    H226514   3.362   5.126   6.367  0.6481 -0.4442 -0.0413
 1627TIP3   OH226515   5.078   1.565   7.719 -0.6171 -0.0418  0.1616
 1627TIP3    H126516   5.170   1.544   7.707 -0.5802  0.6088 -0.9120
 1627TIP3    H226517   5.034   1.480   7.725  0.0490 -0.3542  0.6985
 1628TIP3   OH226518   2.418   5.940   0.689  0.6750  0.5210 -0.3074
 1628TIP3    H126519   2.323   5.950   0.698  0.3009 -1.9151 -0.8399
 1628TIP3    H226520   2.429   5.863   0.634  2.9662  2.5568 -3.0564
 1629TIP3   OH226521   3.889   0.252   6.557 -0.0341 -0.7276  0.3058
 1629TIP3    H126522   3.809   0.199   6.560 -1.3049  1.0875 -0.1247
 1629TIP3    H226523   3.886   0.303   6.638  1.2055 -1.3287  0.7459
 1630TIP3   OH226524   2.838   5.361   0.839  0.1317  0.0567  0.1448
 1630TIP3    H126525   2.786   5.437   0.812 -1.0253 -0.5375  0.6364
 1630TIP3    H226526   2.864   5.381   0.929 -0.1227 -0.1015  0.2538
 1631TIP3   OH226527   3.140   1.183   2.078  0.2709 -0.3143 -0.1951
 1631TIP3    H126528   3.088   1.102   2.079  0.1702 -0.2466  0.2451
 1631TIP3    H226529   3.085   1.247   2.124  0.5443 -0.1149 -0.1462
 1632TIP3   OH226530   0.939   3.265   8.070  0.5917  0.2783  0.2605
 1632TIP3    H126531   0.982   3.192   8.026  0.9536  0.8164 -0.2956
 1632TIP3    H226532   1.008   3.304   8.124  0.4687  0.3738  0.3504
 1633TIP3   OH226533   3.631   1.323   0.380  0.3154  0.5981 -0.1302
 1633TIP3    H126534   3.565   1.328   0.449 -0.1210  0.5703 -0.5458
 1633TIP3    H226535   3.620   1.405   0.331  1.2280  1.0405  0.3755
 1634TIP3   OH226536   2.352   5.823   0.238 -0.1455 -0.5322  0.0240
 1634TIP3    H126537   2.295   5.754   0.270 -1.4428  0.3448 -0.2854
 1634TIP3    H226538   2.428   5.778   0.203 -0.3586 -1.7030  1.0292
 1635TIP3   OH226539   1.199   0.670   2.878 -0.0243 -0.0096  0.5694
 1635TIP3    H126540   1.153   0.717   2.808 -0.3401 -1.7446 -0.4400
 1635TIP3    H226541   1.229   0.739   2.937 -0.1867  1.4780 -1.0052
 1636TIP3   OH226542   4.869   6.534   0.594 -0.0837  0.0774 -0.0349
 1636TIP3    H126543   4.863   6.514   0.688 -1.5873  0.5687 -0.0077
 1636TIP3    H226544   4.956   6.574   0.584  0.7336 -1.3558  0.8567
 1637TIP3   OH226545   5.429   6.740   7.549 -0.3657 -0.2712  0.0065
 1637TIP3    H126546   5.491   6.812   7.553 -0.6534 -0.0226  0.0703
 1637TIP3    H226547   5.368   6.758   7.620 -0.3488 -0.6616  0.1180
 1638TIP3   OH226548   0.718   0.325   7.600 -0.8936  0.5017 -0.2103
 1638TIP3    H126549   0.757   0.411   7.586 -0.2542  0.3896  0.7904
 1638TIP3    H226550   0.783   0.277   7.651 -2.0955  0.1205  1.0238
 1639TIP3   OH226551   4.100   4.945   1.068 -0.3323  0.2353  0.1510
 1639TIP3    H126552   4.049   5.026   1.077 -0.5550 -0.0706  2.1292
 1639TIP3    H226553   4.060   4.885   1.131  0.1208 -1.2837 -0.9544
 1640TIP3   OH226554   2.268   2.015   7.029 -0.4722 -0.0249 -0.0548
 1640TIP3    H126555   2.341   2.058   6.986 -1.9773  0.3209 -2.4815
 1640TIP3    H226556   2.193   2.073   7.014 -1.8194 -1.7185 -0.2619
 1641TIP3   OH226557   2.024   2.421   1.556 -0.1333  0.3545 -0.0211
 1641TIP3    H126558   1.997   2.513   1.550  0.7922  0.6092 -0.7064
 1641TIP3    H226559   2.083   2.409   1.481  2.5412  0.1866  1.9387
 1642TIP3   OH226560   2.570   5.025   0.649  0.0712  0.2943  0.2441
 1642TIP3    H126561   2.636   4.962   0.621 -0.2894 -0.0998  0.2591
 1642TIP3    H226562   2.519   5.042   0.570  0.0959  0.4811  0.2674
 1643TIP3   OH226563   3.756   6.601   0.309  0.2433  0.3939  0.5703
 1643TIP3    H126564   3.746   6.564   0.221  1.0213  1.3436  0.0675
 1643TIP3    H226565   3.842   6.644   0.308  0.4437  0.0781  1.9242
 1644TIP3   OH226566   0.206   2.147   0.424  0.3605 -0.1508 -0.2106
 1644TIP3    H126567   0.163   2.232   0.430 -0.1046 -0.3320 -0.8440
 1644TIP3    H226568   0.246   2.134   0.510  0.5382  0.7552 -0.1434
 1645TIP3   OH226569   6.067   3.905   7.502  0.1175  0.3806  0.3487
 1645TIP3    H126570   6.075   3.978   7.439 -0.9825  0.6983  0.5564
 1645TIP3    H226571   6.128   3.928   7.572  0.5959  0.5437 -0.1109
 1646TIP3   OH226572   5.463   4.379   0.576  0.7461  0.4936 -0.3580
 1646TIP3    H126573   5.371   4.352   0.576  1.2047 -1.1482 -0.1737
 1646TIP3    H226574   5.509   4.308   0.530  2.5714 -1.1344  3.5653
 1647TIP3   OH226575   3.298   4.826   7.740 -0.1285 -0.0337  0.1993
 1647TIP3    H126576   3.323   4.909   7.780 -3.6424  1.2007  0.1356
 1647TIP3    H226577   3.323   4.759   7.804  0.4510  1.2904  1.3920
 1648TIP3   OH226578   6.112   6.162   1.511 -0.4684  0.1025  0.2649
 1648TIP3    H126579   6.082   6.084   1.557  0.1969 -0.7554 -0.7197
 1648TIP3    H226580   6.031   6.209   1.489 -0.9861 -1.0414 -0.3726
 1649TIP3   OH226581   1.082   0.358   2.186  0.2282  0.0975 -0.0075
 1649TIP3    H126582   1.012   0.355   2.251 -0.0137  1.0847 -0.2139
 1649TIP3    H226583   1.140   0.429   2.215  0.3585  0.2522 -0.6247
 1650TIP3   OH226584   3.396   1.546   6.960 -0.5481  0.2826 -0.0121
 1650TIP3    H126585   3.339   1.560   7.035 -0.1305  0.6087  0.2488
 1650TIP3    H226586   3.342   1.569   6.884 -0.9725 -0.0549  0.1826
 1651TIP3   OH226587   1.178   4.463   2.375 -0.3505 -0.3051  0.6768
 1651TIP3    H126588   1.243   4.394   2.390  0.0712 -0.3909 -1.2261
 1651TIP3    H226589   1.216   4.541   2.416  0.3429 -0.6521  0.7100
 1652TIP3   OH226590   3.419   0.112   6.298  0.1124  0.1910 -0.1576
 1652TIP3    H126591   3.445   0.149   6.383 -0.0124  0.7841 -0.3753
 1652TIP3    H226592   3.500   0.107   6.248  0.5157 -1.8434  0.6063
 1653TIP3   OH226593   4.738   3.159   1.029 -0.6845 -0.4381  0.1949
 1653TIP3    H126594   4.791   3.215   1.086  0.1808 -0.6757 -0.3707
 1653TIP3    H226595   4.695   3.097   1.090 -0.9051  0.2190  0.7220
 1654TIP3   OH226596   1.543   3.970   0.412 -0.0889  0.0751 -0.3855
 1654TIP3    H126597   1.600   3.918   0.469 -1.8059 -2.4931 -0.8679
 1654TIP3    H226598   1.456   3.932   0.424 -1.2342  2.1070 -1.7206
 1655TIP3   OH226599   1.389   5.435   2.231 -0.4981 -0.3220 -0.7384
 1655TIP3    H126600   1.394   5.343   2.204 -2.7175 -1.0349  0.9990
 1655TIP3    H226601   1.299   5.461   2.210 -0.0361  1.3421 -0.7783
 1656TIP3   OH226602   6.588   2.175   7.044 -0.2291  0.1591  0.1433
 1656TIP3    H126603   6.523   2.224   7.095 -0.5330 -0.1551  0.0637
 1656TIP3    H226604   6.660   2.160   7.105  0.4036  1.7584 -0.1800
 1657TIP3   OH226605   6.071   0.616   0.970  0.6466 -0.1324  0.0166
 1657TIP3    H126606   5.978   0.601   0.951  0.7897 -0.0137 -0.8172
 1657TIP3    H226607   6.115   0.541   0.930  0.9939  0.3284 -0.4786
 1658TIP3   OH226608   5.388   3.728   8.024 -0.5706  0.0683  0.2265
 1658TIP3    H126609   5.451   3.683   8.081  0.4093  0.8229 -0.2249
 1658TIP3    H226610   5.441   3.791   7.975 -1.5029 -0.0629 -1.0021
 1659TIP3   OH226611   0.354   6.219   1.677 -0.6983 -0.3538 -0.0683
 1659TIP3    H126612   0.385   6.194   1.590 -1.3442 -1.6662  0.0578
 1659TIP3    H226613   0.261   6.239   1.664 -1.2042 -2.0880  0.5614
 1660TIP3   OH226614   4.378   0.335   1.618 -0.0942 -0.2755 -0.1623
 1660TIP3    H126615   4.375   0.258   1.676 -0.0274  2.4630  3.9118
 1660TIP3    H226616   4.470   0.361   1.619 -0.3448  0.6191 -0.3573
 1661TIP3   OH226617   5.841   0.735   1.246 -0.4117 -0.6877  0.3127
 1661TIP3    H126618   5.824   0.729   1.152 -0.7811  0.5164  0.2816
 1661TIP3    H226619   5.825   0.647   1.279  3.1646 -2.1455 -1.2668
 1662TIP3   OH226620   2.783   4.448   6.276  0.4437  0.0155  0.6263
 1662TIP3    H126621   2.696   4.421   6.244  0.2252  1.6881 -0.2910
 1662TIP3    H226622   2.844   4.399   6.220  0.1831 -2.3039  2.2316
 1663TIP3   OH226623   1.995   4.413   6.372  0.1055  0.1544  0.2750
 1663TIP3    H126624   1.946   4.387   6.294 -0.0695 -0.1800  0.4907
 1663TIP3    H226625   2.000   4.332   6.425  0.0499  0.4237  0.6981
 1664TIP3   OH226626   3.456   1.156   2.571  0.3363  0.2799  0.0155
 1664TIP3    H126627   3.392   1.155   2.500  0.0233 -1.1703  0.3043
 1664TIP3    H226628   3.413   1.112   2.644  0.7901  1.4324  1.0077
 1665TIP3   OH226629   3.174   4.960   0.422 -0.2151  0.5056 -0.0650
 1665TIP3    H126630   3.227   4.898   0.472  0.5306 -0.3954 -1.8904
 1665TIP3    H226631   3.194   5.046   0.461  0.2698 -0.1575  1.1907
 1666TIP3   OH226632   1.478   4.653   1.144  0.1221 -0.6730  0.5136
 1666TIP3    H126633   1.565   4.678   1.113 -0.3845  1.3655  0.5991
 1666TIP3    H226634   1.445   4.593   1.077  0.0544  1.6678 -1.7088
 1667TIP3   OH226635   1.420   1.905   0.495  0.7351  0.0191 -0.5200
 1667TIP3    H126636   1.509   1.891   0.528  0.6234  0.0944 -0.1810
 1667TIP3    H226637   1.423   1.992   0.454  0.6691  0.2722  0.0093
 1668TIP3   OH226638   3.268   1.613   6.721  0.4524  0.0666 -0.5025
 1668TIP3    H126639   3.332   1.675   6.687 -0.7393  1.9209  0.4367
 1668TIP3    H226640   3.183   1.648   6.693 -0.2483 -1.3005 -0.1767
 1669TIP3   OH226641   1.767   5.370   7.730  0.1639 -0.1302 -0.2359
 1669TIP3    H126642   1.775   5.281   7.696 -0.2968 -0.3373  0.2031
 1669TIP3    H226643   1.725   5.360   7.815 -0.9753  0.6119 -0.7005
 1670TIP3   OH226644   1.361   1.082   8.288  1.2264  0.4415 -0.6148
 1670TIP3    H126645   1.327   1.150   8.346 -0.2055 -0.0895 -0.7733
 1670TIP3    H226646   1.449   1.110   8.266  0.5135  2.5121 -1.0613
 1671TIP3   OH226647   5.174   3.865   6.913  0.3717  0.2832 -0.1343
 1671TIP3    H126648   5.189   3.859   7.007 -1.5872 -0.3423  0.1915
 1671TIP3    H226649   5.232   3.798   6.875  2.6428  1.8609  0.3742
 1672TIP3   OH226650   2.330   1.678   2.494  0.0814  0.9955  0.2396
 1672TIP3    H126651   2.280   1.600   2.517  0.0347  0.7740 -0.5778
 1672TIP3    H226652   2.263   1.744   2.473  0.1100  0.7508 -0.6845
 1673TIP3   OH226653   6.327   1.161   0.062 -0.7148 -0.6030  0.4701
 1673TIP3    H126654   6.347   1.079   0.017 -1.0603 -0.5366  0.1875
 1673TIP3    H226655   6.250   1.140   0.116  0.3288 -0.9725  1.8720
 1674TIP3   OH226656   1.461   6.467   2.867 -0.3199 -0.1906  0.8433
 1674TIP3    H126657   1.555   6.479   2.857 -0.5610  1.2100  0.0140
 1674TIP3    H226658   1.425   6.556   2.864 -2.0628 -0.8143 -3.1346
 1675TIP3   OH226659   4.125   6.185   8.757 -0.1585 -0.0435  0.3278
 1675TIP3    H126660   4.125   6.107   8.813  0.5622 -0.0520  0.3244
 1675TIP3    H226661   4.033   6.213   8.755 -0.1202  0.3821  2.1129
 1676TIP3   OH226662   1.331   0.221   1.128  0.2551 -0.1628  0.3587
 1676TIP3    H126663   1.283   0.139   1.126 -0.9426  0.4957  0.9510
 1676TIP3    H226664   1.416   0.201   1.089  0.3223 -1.8856  1.3230
 1677TIP3   OH226665   4.030   1.631   6.955 -0.3419 -0.4928  0.5332
 1677TIP3    H126666   4.027   1.611   7.048 -1.0691  0.0342  0.6289
 1677TIP3    H226667   4.115   1.598   6.926 -0.4288 -1.3603  1.2142
 1678TIP3   OH226668   4.118   6.827   8.172 -0.1168 -0.1812 -0.0046
 1678TIP3    H126669   4.117   6.872   8.087 -0.0860  0.3488  0.2753
 1678TIP3    H226670   4.149   6.738   8.151  1.6943  0.4741 -0.3034
 1679TIP3   OH226671   5.550   3.652   1.591 -0.4609  0.1966 -0.1389
 1679TIP3    H126672   5.624   3.695   1.633  0.4233  0.5424 -1.9381
 1679TIP3    H226673   5.489   3.633   1.662  0.9816  0.6532  1.2728
 1680TIP3   OH226674   5.651   6.279   1.719 -0.1107  0.1184  0.2569
 1680TIP3    H126675   5.690   6.225   1.787  0.1228  2.1522  1.8254
 1680TIP3    H226676   5.713   6.274   1.646  0.9407 -0.0868  1.1420
 1681TIP3   OH226677   5.405   6.550   2.797  0.0055 -0.2518 -0.4862
 1681TIP3    H126678   5.314   6.524   2.782  0.2674 -2.1181  0.7654
 1681TIP3    H226679   5.456   6.485   2.749  0.7483  1.8326 -2.7090
 1682TIP3   OH226680   0.955   0.221   0.219 -0.3841 -0.1344 -0.1288
 1682TIP3    H126681   0.898   0.258   0.287 -1.8159 -2.0665 -0.1892
 1682TIP3    H226682   1.026   0.181   0.268  0.4332  1.3859  0.0007
 1683TIP3   OH226683   3.406   5.741   0.530  0.0803  0.6385  0.6424
 1683TIP3    H126684   3.386   5.695   0.612 -1.1079  0.8381  0.4816
 1683TIP3    H226685   3.326   5.789   0.510  1.6183  3.7349  1.4081
 1684TIP3   OH226686   5.941   6.735   0.276 -0.3400  0.4455  0.4354
 1684TIP3    H126687   6.036   6.744   0.271 -0.3977  0.8366 -0.0851
 1684TIP3    H226688   5.919   6.759   0.366  0.3091 -2.3074  1.4222
 1685TIP3   OH226689   2.290   2.839   1.192  0.5838 -0.1373  0.1575
 1685TIP3    H126690   2.286   2.843   1.288 -0.6516  0.0084  0.1127
 1685TIP3    H226691   2.294   2.931   1.165 -1.5721 -0.0602  0.0006
 1686TIP3   OH226692   1.159   4.920   8.400 -0.2403  0.1201  0.3666
 1686TIP3    H126693   1.076   4.906   8.354  0.0888 -1.8384  0.2965
 1686TIP3    H226694   1.220   4.859   8.359  0.2101 -1.3253  2.9820
 1687TIP3   OH226695   2.602   1.145   1.084  0.3392 -0.0532  0.0875
 1687TIP3    H126696   2.520   1.108   1.117  0.3854 -0.3146 -0.0883
 1687TIP3    H226697   2.576   1.228   1.043  0.1623 -0.1306  0.0419
 1688TIP3   OH226698   4.822   0.675   6.254  0.4186 -0.2989  0.0901
 1688TIP3    H126699   4.885   0.607   6.230  0.4615 -0.1329 -0.2792
 1688TIP3    H226700   4.757   0.630   6.307  0.1042 -0.7751 -0.6779
 1689TIP3   OH226701   6.353   1.979   1.255  0.2070 -0.7701 -0.0456
 1689TIP3    H126702   6.437   1.965   1.211  0.9090  2.3043  0.0854
 1689TIP3    H226703   6.290   1.989   1.184  0.8221  1.2573 -0.3951
 1690TIP3   OH226704   6.160   6.222   7.496 -0.1398  0.3569  0.2161
 1690TIP3    H126705   6.171   6.165   7.420 -0.5491 -0.2193  0.5854
 1690TIP3    H226706   6.232   6.197   7.554 -0.1972  0.3594  0.2881
 1691TIP3   OH226707   1.526   0.498   0.151 -0.1478  0.4311 -0.1161
 1691TIP3    H126708   1.594   0.457   0.204 -1.0801  2.1433  2.5682
 1691TIP3    H226709   1.573   0.558   0.093  0.8550 -1.2520 -1.1436
 1692TIP3   OH226710   3.683   1.648   8.070 -0.5850  0.0441 -0.0512
 1692TIP3    H126711   3.652   1.677   8.155 -0.5032 -1.2844  0.4603
 1692TIP3    H226712   3.606   1.608   8.028 -0.6044  0.6081 -0.5695
 1693TIP3   OH226713   1.986   5.209   8.288 -0.1267 -0.3488 -0.7795
 1693TIP3    H126714   2.076   5.183   8.265 -0.6911 -1.0131 -2.4293
 1693TIP3    H226715   1.988   5.223   8.382  1.5490 -1.0066 -0.6829
 1694TIP3   OH226716   2.533   4.608   1.985 -0.0922  0.3073  0.1626
 1694TIP3    H126717   2.529   4.516   2.009 -0.2376 -0.4635 -2.5012
 1694TIP3    H226718   2.442   4.635   1.975 -0.0282 -0.1545 -1.9832
 1695TIP3   OH226719   1.611   4.732   7.692  0.5610 -0.2488 -0.4340
 1695TIP3    H126720   1.618   4.645   7.732 -0.4225 -1.2848 -2.3710
 1695TIP3    H226721   1.700   4.765   7.690  1.0409 -1.4686 -0.2108
 1696TIP3   OH226722   6.637   0.862   2.415 -0.1099 -0.5951  0.2940
 1696TIP3    H126723   6.594   0.928   2.469 -0.2605 -0.7996  0.4255
 1696TIP3    H226724   6.731   0.874   2.431 -0.1780 -1.0571  1.0799
 1697TIP3   OH226725   2.141   3.782   7.891 -0.5331 -0.0513 -0.0338
 1697TIP3    H126726   2.102   3.710   7.940  2.2947 -1.7287 -0.0167
 1697TIP3    H226727   2.213   3.742   7.843 -0.4824  2.3371 -2.1781
 1698TIP3   OH226728   5.727   3.691   6.676  0.0690  0.4004  0.3070
 1698TIP3    H126729   5.705   3.784   6.671 -0.6381  0.2180 -0.1962
 1698TIP3    H226730   5.661   3.648   6.621  1.5822 -0.1954 -1.1548
 1699TIP3   OH226731   4.064   0.908   7.769  0.1747 -0.0799 -0.3109
 1699TIP3    H126732   4.059   0.952   7.683  0.8095 -1.1014 -0.8821
 1699TIP3    H226733   3.981   0.862   7.776 -1.0068  2.0634  0.8053
 1700TIP3   OH226734   0.713   6.296   0.087 -0.0386  0.4329 -0.7172
 1700TIP3    H126735   0.738   6.289  -0.005  1.7513 -0.3102 -0.2173
 1700TIP3    H226736   0.710   6.206   0.119  0.2422  0.7220  0.1638
 1701TIP3   OH226737   5.072   4.948   1.330 -0.6606  0.2118  0.5751
 1701TIP3    H126738   5.083   5.040   1.355 -1.1360 -0.3268  2.9867
 1701TIP3    H226739   5.077   4.949   1.234  2.6781  2.3009  0.6087
 1702TIP3   OH226740   4.925   0.626   0.320  0.0485  0.1943 -0.4504
 1702TIP3    H126741   4.983   0.674   0.379 -0.5895  1.1659 -0.5771
 1702TIP3    H226742   4.843   0.618   0.368  0.1252 -0.7244 -0.4629
 1703TIP3   OH226743   2.949   1.595   0.598 -0.2609 -0.6865 -0.5752
 1703TIP3    H126744   2.881   1.547   0.646  0.5195 -0.4918  0.7855
 1703TIP3    H226745   2.915   1.684   0.592  0.4733 -0.2186  1.4433
 1704TIP3   OH226746   2.193   1.403   2.017 -0.0343 -0.2949  0.0476
 1704TIP3    H126747   2.119   1.365   2.063  0.6188  0.6815  2.0285
 1704TIP3    H226748   2.269   1.385   2.073  1.0163 -0.0658 -1.2301
 1705TIP3   OH226749   5.641   5.868   7.586 -0.2129  0.0102 -0.1196
 1705TIP3    H126750   5.710   5.933   7.571  1.5687 -1.3292  1.6931
 1705TIP3    H226751   5.593   5.901   7.662 -0.9172  0.4161 -0.7315
 1706TIP3   OH226752   5.476   1.131   0.086 -0.8136  0.2616 -0.0647
 1706TIP3    H126753   5.463   1.105   0.177  1.4439 -0.6141  0.0721
 1706TIP3    H226754   5.465   1.051   0.036  1.2267  0.0014 -0.1717
 1707TIP3   OH226755   1.514   4.229   7.284  0.6181 -0.0394 -0.0143
 1707TIP3    H126756   1.427   4.192   7.296  0.3122  1.2820  2.4875
 1707TIP3    H226757   1.567   4.156   7.253 -1.3191 -0.8865 -1.5176
 1708TIP3   OH226758   0.533   6.706   6.835  0.0755  0.0258  0.2439
 1708TIP3    H126759   0.609   6.651   6.817  1.5721  2.2789 -0.8544
 1708TIP3    H226760   0.568   6.778   6.888 -1.3031  1.0867 -0.2285
 1709TIP3   OH226761   2.819   1.853   0.098 -0.2776 -0.0411  0.4824
 1709TIP3    H126762   2.768   1.815   0.026  0.3630  0.2492 -0.1409
 1709TIP3    H226763   2.764   1.923   0.132 -0.0410  0.7131 -0.6238
 1710TIP3   OH226764   2.044   2.295   8.377 -0.4824  0.6580  0.5939
 1710TIP3    H126765   2.089   2.310   8.460 -1.2503 -1.0912  1.3591
 1710TIP3    H226766   1.997   2.213   8.389 -0.4360  0.2445 -1.6597
 1711TIP3   OH226767   1.110   0.721   0.693 -0.4667 -0.5244 -0.4088
 1711TIP3    H126768   1.057   0.778   0.749 -1.7422 -1.5201 -0.5455
 1711TIP3    H226769   1.200   0.745   0.713 -0.9393  1.9049 -0.8538
 1712TIP3   OH226770   0.870   0.364   1.405  0.1273 -0.1001  0.4525
 1712TIP3    H126771   0.917   0.436   1.364 -1.1165 -0.0725 -0.9872
 1712TIP3    H226772   0.823   0.404   1.478  0.7849  0.2130  0.7167
 1713TIP3   OH226773   6.095   3.303   1.072  0.2994  0.3594  0.2457
 1713TIP3    H126774   6.076   3.393   1.047  0.9981  0.1766 -1.0433
 1713TIP3    H226775   6.107   3.257   0.989 -0.9806 -1.1494  0.8538
 1714TIP3   OH226776   4.092   1.888   1.235 -0.2938 -0.2244 -0.0697
 1714TIP3    H126777   4.038   1.825   1.188 -0.3426  0.9973 -1.7615
 1714TIP3    H226778   4.036   1.920   1.306 -1.0061 -0.5483 -0.4809
 1715TIP3   OH226779   6.375   6.527   8.140 -1.0792  0.1774 -0.1514
 1715TIP3    H126780   6.378   6.508   8.046  0.3735  2.1596 -0.5726
 1715TIP3    H226781   6.380   6.441   8.182  1.0921 -0.6512 -1.8792
 1716TIP3   OH226782   6.649   2.452   8.652 -0.3266  0.3506  0.0871
 1716TIP3    H126783   6.579   2.511   8.624 -1.4166 -0.6160  0.6684
 1716TIP3    H226784   6.664   2.394   8.578  0.2195  0.8643 -0.2139
 1717TIP3   OH226785   4.545   2.644   2.305 -0.3378 -0.3140 -0.8050
 1717TIP3    H126786   4.580   2.731   2.287  0.0011 -0.2424  0.1028
 1717TIP3    H226787   4.506   2.615   2.223  1.9114 -0.4167 -1.9013
 1718TIP3   OH226788   2.736   2.185   8.171  0.0491 -0.2430  0.3324
 1718TIP3    H126789   2.813   2.199   8.116  1.0627 -1.9954  1.2367
 1718TIP3    H226790   2.662   2.192   8.110  0.9182  1.0864 -0.6218
 1719TIP3   OH226791   5.686   1.610   0.433  0.2939 -0.3027 -0.3035
 1719TIP3    H126792   5.731   1.660   0.364  0.8886 -0.4279 -0.0171
 1719TIP3    H226793   5.677   1.673   0.505  1.1037 -0.6117  0.0831
 1720TIP3   OH226794   2.078   2.442   0.098 -0.2238  0.0200 -0.1327
 1720TIP3    H126795   2.051   2.354   0.071  0.5828  0.3784 -2.2488
 1720TIP3    H226796   2.041   2.452   0.186  1.7918 -3.3682  1.2677
 1721TIP3   OH226797   1.191   0.589   1.715  0.2292  0.0039  0.3728
 1721TIP3    H126798   1.246   0.661   1.747  0.9226 -0.0143 -0.7316
 1721TIP3    H226799   1.102   0.622   1.723  0.5314  0.9294  0.0376
 1722TIP3   OH226800   5.759   0.427   1.290 -0.4934  0.3132 -0.1948
 1722TIP3    H126801   5.791   0.377   1.365  0.1164  1.5334  0.3934
 1722TIP3    H226802   5.676   0.385   1.267  0.7475 -2.0127 -0.8074
 1723TIP3   OH226803   1.711   0.963   7.896  0.0093  0.5386 -0.3022
 1723TIP3    H126804   1.618   0.958   7.917  0.2570 -0.2015  0.6872
 1723TIP3    H226805   1.738   1.050   7.927 -0.3419  0.7421 -0.5627
 1724TIP3   OH226806   0.682   5.445   1.082 -0.0235  0.3958 -0.4666
 1724TIP3    H126807   0.715   5.505   1.015 -1.1901  1.1303 -0.4101
 1724TIP3    H226808   0.693   5.492   1.165 -1.5702  0.8609 -0.4870
 1725TIP3   OH226809   1.041   5.795   0.454  0.1998 -0.1048 -0.4608
 1725TIP3    H126810   1.011   5.719   0.404  1.5722 -0.9817 -0.0352
 1725TIP3    H226811   1.116   5.762   0.504  0.1665  1.2719  0.5672
 1726TIP3   OH226812   2.708   6.473   6.946  0.0239  0.8586  0.1112
 1726TIP3    H126813   2.801   6.488   6.928  0.1214  1.0614  0.7542
 1726TIP3    H226814   2.707   6.409   7.017 -0.3084  1.5110  0.7102
 1727TIP3   OH226815   3.433   4.358   1.451 -0.4547 -0.4415  0.4218
 1727TIP3    H126816   3.438   4.394   1.540  1.0910 -2.2889  1.1614
 1727TIP3    H226817   3.418   4.434   1.395  0.8653  1.0978  2.0474
 1728TIP3   OH226818   5.656   4.632   1.569 -0.0513 -0.1926 -0.0718
 1728TIP3    H126819   5.609   4.606   1.490  0.0445 -0.7728  0.0615
 1728TIP3    H226820   5.621   4.719   1.591  0.5327  0.3594 -1.2332
 1729TIP3   OH226821   4.168   5.137   0.019 -0.1409 -0.1175  0.1060
 1729TIP3    H126822   4.182   5.231   0.013 -0.0836 -0.1643 -0.5818
 1729TIP3    H226823   4.200   5.103  -0.065 -1.6599 -0.5637 -0.3322
 1730TIP3   OH226824   2.788   2.761   1.123  0.4540  0.1304  0.4728
 1730TIP3    H126825   2.774   2.846   1.082 -0.8545 -0.6887 -0.8537
 1730TIP3    H226826   2.710   2.748   1.177 -0.9879 -1.6113 -1.8815
 1731TIP3   OH226827   3.151   5.677   0.181  0.6140  0.1321  0.0435
 1731TIP3    H126828   3.089   5.711   0.116  1.4281  1.3279 -0.1355
 1731TIP3    H226829   3.235   5.673   0.134  1.0347  0.1981  0.7797
 1732TIP3   OH226830   2.692   2.087   0.159  0.2698  0.2860  0.1804
 1732TIP3    H126831   2.611   2.097   0.208  0.5722  1.1740  0.5206
 1732TIP3    H226832   2.761   2.105   0.222  0.6718  1.2742 -0.5069
 1733TIP3   OH226833   3.045   6.393   0.820 -0.4491  0.3302  0.3958
 1733TIP3    H126834   2.986   6.378   0.894 -0.9066 -1.4085 -0.2627
 1733TIP3    H226835   3.008   6.339   0.749  0.2641  1.5442 -0.9446
 1734TIP3   OH226836   4.074   3.358   1.819 -0.4249 -0.2804 -0.4401
 1734TIP3    H126837   4.025   3.392   1.894 -0.1944 -1.3218  0.1953
 1734TIP3    H226838   4.146   3.308   1.857 -1.2873 -2.2966 -1.2999
 1735TIP3   OH226839   5.324   3.412   7.593  0.4285  0.1993 -0.4536
 1735TIP3    H126840   5.394   3.428   7.529  0.3433 -1.0443 -0.8985
 1735TIP3    H226841   5.323   3.317   7.604 -0.1990  0.3180  0.6961
 1736TIP3   OH226842   1.760   4.040   7.228 -0.6151  0.2947  0.4211
 1736TIP3    H126843   1.852   4.065   7.233 -1.1619  2.2877  1.6805
 1736TIP3    H226844   1.745   4.022   7.136  1.4397 -1.8888  0.4264
 1737TIP3   OH226845   1.897   6.287   8.511  0.0952 -0.1396 -0.3157
 1737TIP3    H126846   1.827   6.349   8.530  1.8088  1.2039  2.1823
 1737TIP3    H226847   1.869   6.206   8.553  0.0229  0.4077  0.7341
 1738TIP3   OH226848   4.705   1.417   8.061  0.4032  0.3408 -0.0897
 1738TIP3    H126849   4.625   1.445   8.106  1.8541  0.8906  2.3292
 1738TIP3    H226850   4.725   1.332   8.099  1.2458  0.4462 -0.2817
 1739TIP3   OH226851   2.325   0.902   7.340  0.4727  0.2153 -0.0101
 1739TIP3    H126852   2.330   0.888   7.434 -0.9710 -0.3758  0.0125
 1739TIP3    H226853   2.231   0.905   7.321  0.5708 -2.9813 -1.8451
 1740TIP3   OH226854   4.654   4.203   8.487 -0.4516 -0.0593  0.1500
 1740TIP3    H126855   4.699   4.288   8.489 -0.4186 -0.0262 -1.1922
 1740TIP3    H226856   4.622   4.195   8.397  1.4827 -2.4533 -0.4093
 1741TIP3   OH226857   1.863   1.522   1.828  0.3211  0.2514 -0.0831
 1741TIP3    H126858   1.896   1.492   1.913 -0.5989 -0.8206 -0.0899
 1741TIP3    H226859   1.917   1.476   1.763 -0.9083 -1.2635 -0.0898
 1742TIP3   OH226860   2.122   3.481   0.138  0.7669 -0.5137 -0.2649
 1742TIP3    H126861   2.109   3.467   0.044 -0.9557  1.2219 -0.3709
 1742TIP3    H226862   2.093   3.572   0.152 -1.4905 -1.4900  2.3359
 1743TIP3   OH226863   6.836   4.714   7.197 -0.8839  0.4277 -0.2095
 1743TIP3    H126864   6.929   4.736   7.200 -0.9960  0.8968 -0.1050
 1743TIP3    H226865   6.811   4.729   7.106 -1.0128  0.9622 -0.0893
 1744TIP3   OH226866   0.972   0.353   2.448 -0.3239  0.3902 -0.1932
 1744TIP3    H126867   1.002   0.440   2.472 -0.1494  0.9069 -2.0872
 1744TIP3    H226868   1.000   0.297   2.521 -1.3006  2.0288  1.5104
 1745TIP3   OH226869   6.820   4.664   1.093 -0.8451 -0.2242  0.2787
 1745TIP3    H126870   6.768   4.677   1.173  0.3988 -1.6476  1.3932
 1745TIP3    H226871   6.875   4.743   1.087  0.2030 -0.7923  1.7911
 1746TIP3   OH226872   4.571   1.198   8.603 -0.2156  0.0006 -0.1072
 1746TIP3    H126873   4.476   1.204   8.596 -0.2186  0.7515  0.4002
 1746TIP3    H226874   4.587   1.114   8.646 -0.6144 -0.3793 -0.6850
 1747TIP3   OH226875   1.601   3.759   6.406  0.4571 -0.5773  0.3544
 1747TIP3    H126876   1.605   3.824   6.336  0.2950 -1.5969 -0.6424
 1747TIP3    H226877   1.691   3.749   6.436  0.1865  1.8884  2.2741
 1748TIP3   OH226878   0.894   4.644   8.509 -0.6922 -0.0015 -0.3796
 1748TIP3    H126879   0.973   4.629   8.457  0.4706 -2.9799  1.9409
 1748TIP3    H226880   0.823   4.642   8.445  0.9243  0.4428 -2.2850
 1749TIP3   OH226881   4.731   0.631   1.530 -0.5715 -0.7918  0.2219
 1749TIP3    H126882   4.779   0.656   1.609 -0.7521 -0.2733  0.1740
 1749TIP3    H226883   4.798   0.619   1.463 -0.5963  1.7253 -0.3350
 1750TIP3   OH226884   3.889   3.078   8.064 -0.3132 -0.2515 -0.3390
 1750TIP3    H126885   3.905   3.023   7.987 -0.7327 -0.0848 -0.5429
 1750TIP3    H226886   3.824   3.141   8.036 -0.4124 -0.1405  0.1329
 1751TIP3   OH226887   0.433   1.179   2.080  0.0941  0.3868  0.1083
 1751TIP3    H126888   0.371   1.114   2.046  0.5166 -0.3624  0.7366
 1751TIP3    H226889   0.423   1.174   2.175  0.3385  1.0501  0.1722
 1752TIP3   OH226890   2.705   1.176   0.015  0.5658 -0.1788 -0.1224
 1752TIP3    H126891   2.708   1.242   0.084  0.8899  1.3914 -1.5626
 1752TIP3    H226892   2.796   1.167  -0.013  0.0669  2.8785 -3.5292
 1753TIP3   OH226893   2.677   5.575   1.214  0.2505  0.3283 -0.0517
 1753TIP3    H126894   2.758   5.578   1.265  0.4324 -0.4192 -0.2934
 1753TIP3    H226895   2.694   5.510   1.146 -0.6401 -0.0215  0.0496
 1754TIP3   OH226896   6.866   2.360   0.371 -0.2654 -0.3751  0.1841
 1754TIP3    H126897   6.848   2.402   0.287  0.8963  0.7549  0.4652
 1754TIP3    H226898   6.915   2.425   0.421 -0.2408 -1.3120  1.4550
 1755TIP3   OH226899   2.351   2.463   8.058  0.1206  0.0691 -0.1620
 1755TIP3    H126900   2.257   2.450   8.049 -0.4659  3.2599 -0.1066
 1755TIP3    H226901   2.387   2.445   7.971 -0.3297 -2.2122  0.0841
 1756TIP3   OH226902   4.394   5.261   7.362  0.5362 -0.2836  0.3889
 1756TIP3    H126903   4.326   5.201   7.331 -0.9536  1.1721  0.6562
 1756TIP3    H226904   4.395   5.331   7.297  0.8919  0.3242  1.0293
 1757TIP3   OH226905   1.193   5.050   7.297  0.5862 -0.0253  0.3091
 1757TIP3    H126906   1.164   4.968   7.257  0.4608  0.5340 -0.7984
 1757TIP3    H226907   1.287   5.036   7.313  1.1375  0.4231 -2.1276
 1758TIP3   OH226908   0.970   2.331   0.731  0.0592 -0.5192  0.4433
 1758TIP3    H126909   0.924   2.384   0.666 -0.0492 -1.1988 -0.0482
 1758TIP3    H226910   0.916   2.253   0.741  0.1529 -0.4854  1.2451
 1759TIP3   OH226911   0.411   1.619   7.830 -0.0928  0.8634 -0.5078
 1759TIP3    H126912   0.367   1.576   7.903  2.1868 -1.3517 -0.3032
 1759TIP3    H226913   0.347   1.682   7.797 -2.3470 -0.2897  1.3863
 1760TIP3   OH226914   1.696   3.085   7.957  0.0177  0.1536 -0.9009
 1760TIP3    H126915   1.759   3.071   7.887  1.6328 -0.6096  0.6293
 1760TIP3    H226916   1.628   3.020   7.942 -0.9340  1.5472 -3.0720
 1761TIP3   OH226917   5.742   6.723   8.501  0.1781 -0.2166  0.2495
 1761TIP3    H126918   5.829   6.727   8.461  0.1955  0.9506  0.3683
 1761TIP3    H226919   5.683   6.747   8.430  0.2163  1.9640  0.8878
 1762TIP3   OH226920   3.700   1.694   6.575 -0.1577 -0.1267 -0.0864
 1762TIP3    H126921   3.659   1.608   6.568 -1.1575  0.4476 -2.7750
 1762TIP3    H226922   3.794   1.676   6.572 -0.3495 -1.1572 -0.1433
 1763TIP3   OH226923   2.948   6.165   8.058  0.4644  0.4291 -0.0515
 1763TIP3    H126924   2.964   6.173   7.964 -0.2951  1.3803 -0.1156
 1763TIP3    H226925   3.005   6.231   8.098 -1.0128  1.7534 -0.0534
 1764TIP3   OH226926   4.794   1.426   8.753  0.0440 -0.4065  0.0223
 1764TIP3    H126927   4.707   1.418   8.714 -0.1749  1.7957 -0.0250
 1764TIP3    H226928   4.786   1.383   8.838 -1.0620 -0.3278 -0.0298
 1765TIP3   OH226929   0.477   0.377   1.653 -0.4918  0.4522  0.5490
 1765TIP3    H126930   0.439   0.394   1.567 -0.2430 -0.2641  0.2930
 1765TIP3    H226931   0.572   0.385   1.640 -0.3546 -1.0917  0.4069
 1766TIP3   OH226932   6.154   0.710   7.291  0.6103 -0.2386  0.4007
 1766TIP3    H126933   6.147   0.628   7.242 -0.2705 -0.4765  0.8853
 1766TIP3    H226934   6.245   0.713   7.321  0.3548 -1.7081  1.4733
 1767TIP3   OH226935   4.128   0.173   7.494 -0.2314  0.5944 -1.2800
 1767TIP3    H126936   4.154   0.245   7.552 -0.5345 -0.2478 -0.0862
 1767TIP3    H226937   4.041   0.197   7.463 -0.1070  0.9961 -1.3305
 1768TIP3   OH226938   5.964   4.667   1.116 -0.1327 -0.1547 -0.0158
 1768TIP3    H126939   5.980   4.599   1.182 -0.8586 -0.2664  0.0555
 1768TIP3    H226940   5.872   4.691   1.129  0.2213  1.1089  0.1983
 1769TIP3   OH226941   0.281   5.623   0.822 -0.6071  0.6632  0.1583
 1769TIP3    H126942   0.316   5.630   0.911  0.1110 -0.9851  0.0516
 1769TIP3    H226943   0.311   5.702   0.778  0.1315  0.8868  1.0319
 1770TIP3   OH226944   1.195   1.715   1.584 -0.3087  0.7685  0.4311
 1770TIP3    H126945   1.222   1.806   1.598  0.2340  0.5974  0.5135
 1770TIP3    H226946   1.274   1.664   1.600 -0.6328  0.2738  0.4635
 1771TIP3   OH226947   3.135   1.232   7.228 -0.2285  0.1732 -0.3453
 1771TIP3    H126948   3.070   1.302   7.236 -2.5550 -1.8456 -0.3117
 1771TIP3    H226949   3.162   1.214   7.318 -0.9299 -0.0798 -0.1762
 1772TIP3   OH226950   4.211   1.747   0.993 -0.2798  0.2146 -0.3857
 1772TIP3    H126951   4.278   1.789   1.047  1.6883 -3.2934  0.1494
 1772TIP3    H226952   4.167   1.686   1.051  0.2013 -1.8609 -2.0812
 1773TIP3   OH226953   3.220   5.976   1.145 -0.4553 -0.2620 -0.1388
 1773TIP3    H126954   3.142   5.983   1.200 -1.6094  0.7764 -1.7983
 1773TIP3    H226955   3.248   6.066   1.131 -0.5344 -0.4397 -1.6592
 1774TIP3   OH226956   0.143   0.922   1.597  0.5018  0.9916 -0.2789
 1774TIP3    H126957   0.120   1.004   1.641  0.1932 -0.2924  2.1466
 1774TIP3    H226958   0.230   0.900   1.630 -0.4526 -0.8886  1.2014
 1775TIP3   OH226959   6.671   4.838   1.596  0.4662 -0.7743  0.4808
 1775TIP3    H126960   6.705   4.753   1.566  2.0349 -0.0024 -0.0807
 1775TIP3    H226961   6.601   4.859   1.535  2.2325 -0.2006 -1.4586
 1776TIP3   OH226962   1.394   6.812   2.657 -0.0475  0.1532 -0.0828
 1776TIP3    H126963   1.375   6.777   2.744 -0.6071  0.3264 -0.1279
 1776TIP3    H226964   1.325   6.877   2.642  1.4698  1.9827  0.3987
 1777TIP3   OH226965   3.329   5.960   7.892 -0.3792  0.0102 -0.0487
 1777TIP3    H126966   3.375   6.033   7.933 -0.6564  0.4457 -0.5014
 1777TIP3    H226967   3.398   5.897   7.871 -0.2903 -0.4700  1.5632
 1778TIP3   OH226968   5.728   2.286   1.008 -0.3442  0.4070  0.0257
 1778TIP3    H126969   5.723   2.258   0.916  0.7993 -1.9489  0.6085
 1778TIP3    H226970   5.766   2.211   1.054 -1.6985  1.1738  2.5895
 1779TIP3   OH226971   6.196   2.482   7.136 -0.0561  0.0257  0.5266
 1779TIP3    H126972   6.187   2.577   7.145 -0.0430  0.1015 -0.2181
 1779TIP3    H226973   6.106   2.450   7.130 -0.0454  0.1718 -0.8630
 1780TIP3   OH226974   0.947   6.760   8.773  0.5678 -0.3218 -0.3543
 1780TIP3    H126975   1.029   6.729   8.812  1.0619  0.9457 -0.3477
 1780TIP3    H226976   0.879   6.719   8.827  1.2210  0.4028  1.0887
 1781TIP3   OH226977   1.016   6.061   6.639  0.4402 -0.2835 -0.2622
 1781TIP3    H126978   1.063   6.083   6.720  0.2122  1.4603 -0.5644
 1781TIP3    H226979   1.075   6.003   6.592  0.2862 -1.9356  1.4405
 1782TIP3   OH226980   5.157   1.971   1.666  0.0801 -0.7240 -0.4975
 1782TIP3    H126981   5.102   1.904   1.706 -1.5376  1.3914  1.0866
 1782TIP3    H226982   5.168   2.037   1.735  1.9918  0.4252 -1.8053
 1783TIP3   OH226983   5.041   3.635   6.664  0.1342 -0.2022  0.0935
 1783TIP3    H126984   5.127   3.656   6.702 -0.4198  0.6730  0.8905
 1783TIP3    H226985   5.056   3.553   6.615  1.4654  0.0525  0.0414
 1784TIP3   OH226986   5.521   0.461   7.723 -0.0062  0.4517 -0.1275
 1784TIP3    H126987   5.507   0.551   7.755  1.7283  0.2074  1.5332
 1784TIP3    H226988   5.591   0.470   7.659  2.2727  0.0528  2.1348
 1785TIP3   OH226989   5.721   2.526   7.162 -0.4975  0.2591 -0.2604
 1785TIP3    H126990   5.726   2.455   7.226  1.5693 -0.0794 -0.7349
 1785TIP3    H226991   5.643   2.506   7.110  0.0148 -1.6471 -0.3573
 1786TIP3   OH226992   5.375   1.840   0.693 -0.1462  0.9967  0.1663
 1786TIP3    H126993   5.397   1.818   0.783  0.0905  0.7290  0.0424
 1786TIP3    H226994   5.443   1.797   0.640  0.8389  2.6870 -0.0316
 1787TIP3   OH226995   4.542   5.795   8.687  0.0125 -0.3024  0.2560
 1787TIP3    H126996   4.474   5.760   8.630  1.2446  1.5112 -2.5108
 1787TIP3    H226997   4.506   5.877   8.721 -0.9345 -1.6249  2.7395
 1788TIP3   OH226998   2.698   1.892   8.504 -0.6027 -0.0979 -0.2684
 1788TIP3    H126999   2.709   1.824   8.439 -0.6842  0.8708 -1.3374
 1788TIP3    H227000   2.682   1.846   8.586 -0.0658 -1.3448 -0.8561
 1789TIP3   OH227001   3.613   2.060   1.521  0.6287 -0.3339  0.3141
 1789TIP3    H127002   3.557   2.108   1.582 -0.9856 -3.6762  1.7218
 1789TIP3    H227003   3.702   2.080   1.551  0.1299  2.0948  0.4425
 1790TIP3   OH227004   1.259   6.011   8.368 -0.5956 -0.3330  0.0905
 1790TIP3    H127005   1.317   6.000   8.443  1.1799  1.0230 -0.9965
 1790TIP3    H227006   1.272   5.932   8.315 -0.5059 -0.4867  0.3417
 1791TIP3   OH227007   3.619   4.940   0.409  0.2348  0.6015  0.0575
 1791TIP3    H127008   3.525   4.958   0.411  0.1827  0.3126  0.3587
 1791TIP3    H227009   3.655   5.004   0.347 -0.1253  0.8815  0.1343
 1792TIP3   OH227010   3.021   6.317   1.437  0.0692  0.0468 -0.2647
 1792TIP3    H127011   3.054   6.243   1.387  0.8035  0.1080  0.1076
 1792TIP3    H227012   2.994   6.381   1.371 -0.1494 -0.3701 -0.5830
 1793TIP3   OH227013   2.527   1.647   1.054  0.1039 -0.1524 -0.2108
 1793TIP3    H127014   2.529   1.704   1.130  0.0690  1.1524 -1.1440
 1793TIP3    H227015   2.568   1.698   0.984  1.0871 -1.6922 -0.8278
 1794TIP3   OH227016   2.167   4.660   0.686 -0.0771  0.0917  0.0240
 1794TIP3    H127017   2.082   4.617   0.679 -0.3497  0.6840 -0.4250
 1794TIP3    H227018   2.146   4.753   0.681  0.7488  0.2091 -1.9116
 1795TIP3   OH227019   6.265   0.570   7.647  0.4068 -0.6151  0.1021
 1795TIP3    H127020   6.358   0.579   7.623 -0.0577  0.2998 -1.5281
 1795TIP3    H227021   6.228   0.517   7.577 -0.2040 -1.4990  1.0765
 1796TIP3   OH227022   1.841   4.347   6.162  0.7136 -0.0622 -0.4273
 1796TIP3    H127023   1.768   4.285   6.161  1.5230 -1.0226 -1.0493
 1796TIP3    H227024   1.872   4.350   6.071  2.6908 -1.1870  0.1497
 1797TIP3   OH227025   4.778   0.099   2.093  0.7062  0.0839  0.0154
 1797TIP3    H127026   4.862   0.120   2.051  0.0102 -0.8212 -1.9580
 1797TIP3    H227027   4.731   0.183   2.093  0.9401  0.2233 -0.5052
 1798TIP3   OH227028   3.862   5.614   7.352 -0.4311 -0.1440 -0.8191
 1798TIP3    H127029   3.847   5.535   7.404 -0.9828  0.0659 -0.6430
 1798TIP3    H227030   3.896   5.583   7.268 -0.1793 -0.5320 -0.5697
 1799TIP3   OH227031   3.593   6.777   8.305  0.3987 -0.9022 -0.6524
 1799TIP3    H127032   3.641   6.700   8.334 -0.2046 -0.7131  0.9577
 1799TIP3    H227033   3.522   6.743   8.252 -1.5310 -1.7843  2.2667
 1800TIP3   OH227034   0.779   6.403   8.032  0.0434 -0.1457 -0.4608
 1800TIP3    H127035   0.816   6.437   8.113 -0.0660 -1.2476  0.0749
 1800TIP3    H227036   0.821   6.318   8.021 -1.3474 -0.8540 -0.5210
 1801TIP3   OH227037   6.099   2.971   7.906  0.3998  0.6147  0.4775
 1801TIP3    H127038   6.096   2.894   7.849  0.2317  0.6990  0.3725
 1801TIP3    H227039   6.141   2.940   7.986  0.3880  0.4290  0.4120
 1802TIP3   OH227040   3.407   0.958   0.645  0.4902  0.4934 -0.4511
 1802TIP3    H127041   3.320   0.926   0.669  0.0143  2.6569  0.9467
 1802TIP3    H227042   3.416   0.936   0.552 -1.3101 -0.2743 -0.4815
 1803TIP3   OH227043   1.461   2.083   2.070  0.4723  0.0830 -0.0543
 1803TIP3    H127044   1.499   2.118   1.990  2.7631 -0.4480  0.7476
 1803TIP3    H227045   1.386   2.031   2.040  0.6812  0.6966 -1.7346
 1804TIP3   OH227046   1.215   0.091   6.820  0.2176 -0.4538 -0.3574
 1804TIP3    H127047   1.245   0.097   6.910  0.6251  1.3331 -0.5640
 1804TIP3    H227048   1.292   0.066   6.769  0.3506 -0.0148 -0.3763
 1805TIP3   OH227049   4.818   0.247   0.495 -0.3707 -0.2273  1.3096
 1805TIP3    H127050   4.856   0.246   0.583  0.4915  0.7622  0.9698
 1805TIP3    H227051   4.724   0.260   0.510 -0.0777  1.2827  2.0714
 1806TIP3   OH227052   4.619   0.757   8.092  0.7630 -0.1945  0.3048
 1806TIP3    H127053   4.528   0.786   8.088  1.0993  0.7327 -1.8411
 1806TIP3    H227054   4.621   0.696   8.166 -0.8983  2.0794  2.4095
 1807TIP3   OH227055   2.297   4.362   2.276  0.0539  0.0194  0.0006
 1807TIP3    H127056   2.365   4.430   2.276  0.0920  0.0142 -1.2930
 1807TIP3    H227057   2.233   4.392   2.212  0.8704 -1.8815 -1.8413
 1808TIP3   OH227058   0.383   5.294   8.099  0.0210 -0.2862  0.1765
 1808TIP3    H127059   0.393   5.217   8.043 -1.1451 -0.5444  0.3005
 1808TIP3    H227060   0.413   5.264   8.185 -0.9719 -0.7929  0.3597
 1809TIP3   OH227061   6.662   1.653   2.331 -0.3728 -0.2121  0.6765
 1809TIP3    H127062   6.726   1.633   2.263 -0.1190 -0.5269  1.0088
 1809TIP3    H227063   6.587   1.596   2.311 -1.4907  1.7267 -1.0420
 1810TIP3   OH227064   2.698   3.122   7.716  0.3881  0.2460 -0.5290
 1810TIP3    H127065   2.629   3.073   7.671 -0.5181  0.5647  0.4718
 1810TIP3    H227066   2.775   3.066   7.708 -0.3173 -0.7722 -0.5046
 1811TIP3   OH227067   6.139   0.789   0.530 -0.2477  0.4319 -0.4550
 1811TIP3    H127068   6.219   0.737   0.521 -0.5169  0.0971 -0.9861
 1811TIP3    H227069   6.080   0.733   0.580 -0.3151  0.4877 -0.4717
 1812TIP3   OH227070   0.775   5.206   2.120  0.0542 -0.3487  0.1451
 1812TIP3    H127071   0.727   5.255   2.186  3.7306  0.7881  2.3089
 1812TIP3    H227072   0.782   5.118   2.155  0.4977 -0.2035  0.4333
 1813TIP3   OH227073   3.318   4.166   2.239  0.1335  0.4779 -0.0268
 1813TIP3    H127074   3.334   4.226   2.166 -0.2187  0.7428  0.1146
 1813TIP3    H227075   3.400   4.168   2.289  0.5382 -0.0365 -0.6410
 1814TIP3   OH227076   1.525   5.436   8.506  0.0966  0.0032  0.0802
 1814TIP3    H127077   1.438   5.470   8.488 -1.4586 -1.8152  3.1846
 1814TIP3    H227078   1.582   5.513   8.503 -1.6689  1.3379 -1.5510
 1815TIP3   OH227079   6.358   4.299   7.650 -0.3064  0.3732 -0.0890
 1815TIP3    H127080   6.411   4.344   7.715 -0.5338  2.5898 -1.3562
 1815TIP3    H227081   6.282   4.266   7.700  0.2594  0.6891  1.0081
 1816TIP3   OH227082   4.845   1.911   7.095 -0.1811  0.6366  0.4842
 1816TIP3    H127083   4.780   1.858   7.141 -2.0090  2.1388 -0.2330
 1816TIP3    H227084   4.883   1.851   7.031 -0.6614 -0.3459  1.0838
 1817TIP3   OH227085   5.142   6.134   1.737  1.0341  0.0480  0.0274
 1817TIP3    H127086   5.142   6.192   1.813 -1.3517  0.9391 -0.5359
 1817TIP3    H227087   5.093   6.057   1.766  3.0874 -1.1960  0.3777
 1818TIP3   OH227088   6.581   1.581   7.642  0.4496  0.5555 -0.7522
 1818TIP3    H127089   6.509   1.523   7.615  0.6870  0.4708 -1.2123
 1818TIP3    H227090   6.546   1.629   7.717  0.6519 -1.0596  0.4352
 1819TIP3   OH227091   6.657   3.395   0.815 -0.5787  0.1898 -0.1040
 1819TIP3    H127092   6.599   3.319   0.828  1.3792 -1.6665 -1.4421
 1819TIP3    H227093   6.740   3.369   0.854  1.0069  0.3524 -3.0422
 1820TIP3   OH227094   6.284   5.649   7.098 -0.6360  0.6623  0.6632
 1820TIP3    H127095   6.249   5.616   7.015  0.3264 -0.5354  0.7052
 1820TIP3    H227096   6.210   5.644   7.158 -1.2018  1.0510  0.0236
 1821TIP3   OH227097   2.123   2.616   6.776  0.0971  0.2027  0.1744
 1821TIP3    H127098   2.174   2.545   6.735  2.5499  1.4805  0.7854
 1821TIP3    H227099   2.044   2.573   6.809  0.2781 -1.7394 -1.6882
 1822TIP3   OH227100   4.164   1.941   0.072 -0.3236 -0.1943 -0.3188
 1822TIP3    H127101   4.175   2.009   0.007  2.3229  0.7638  0.9823
 1822TIP3    H227102   4.229   1.874   0.049  0.7930  0.2493  1.3550
 1823TIP3   OH227103   2.702   1.970   6.970 -0.6049  0.0903 -0.1390
 1823TIP3    H127104   2.778   1.921   6.939  1.1731  3.0406 -0.7940
 1823TIP3    H227105   2.648   1.905   7.014  2.5775 -2.0655  0.8944
 1824TIP3   OH227106   4.812   2.546   0.988  0.3020 -0.2114  0.6752
 1824TIP3    H127107   4.906   2.532   0.995  0.4427  0.0443 -0.4724
 1824TIP3    H227108   4.774   2.458   0.993  0.8621 -0.6991 -2.0948
 1825TIP3   OH227109   3.655   0.847   8.035 -0.0691 -0.3662 -0.2162
 1825TIP3    H127110   3.659   0.940   8.012  1.6398 -0.1491  0.7453
 1825TIP3    H227111   3.746   0.825   8.057 -0.6426 -1.9815  0.6357
 1826TIP3   OH227112   2.500   3.817   0.666  0.2448 -0.2102  0.3609
 1826TIP3    H127113   2.453   3.762   0.729  1.3964  0.0094  1.4748
 1826TIP3    H227114   2.588   3.779   0.663  0.3428  0.0665 -0.7965
 1827TIP3   OH227115   2.518   6.113   8.701 -0.7770 -0.7547  0.3401
 1827TIP3    H127116   2.481   6.045   8.645 -1.1619  0.5662 -1.0844
 1827TIP3    H227117   2.578   6.161   8.644 -1.6680  1.0421  0.8383
 1828TIP3   OH227118   1.148   3.055   0.142  0.7389 -0.1802 -0.0708
 1828TIP3    H127119   1.068   3.054   0.194  1.2853 -0.4448  0.7968
 1828TIP3    H227120   1.138   2.981   0.082 -1.2276  1.8899 -2.5154
 1829TIP3   OH227121   3.733   0.376   7.644 -0.1649  0.0116  0.1217
 1829TIP3    H127122   3.751   0.309   7.709  1.5494  0.4240  0.1196
 1829TIP3    H227123   3.819   0.400   7.610 -1.0071 -0.4694 -2.5870
 1830TIP3   OH227124   2.280   3.764   1.534  0.1749  0.5045 -0.4032
 1830TIP3    H127125   2.218   3.752   1.462  1.0028 -1.8643 -0.7895
 1830TIP3    H227126   2.260   3.693   1.596  1.3345  0.7913  0.3330
 1831TIP3   OH227127   3.879   2.318   7.368 -0.3032  0.4991  0.0701
 1831TIP3    H127128   3.949   2.338   7.431  1.4491  0.4267 -1.7723
 1831TIP3    H227129   3.816   2.389   7.379 -0.2913  0.2550  2.1942
 1832TIP3   OH227130   0.949   0.353   7.329  0.0318 -0.3576  0.0174
 1832TIP3    H127131   0.855   0.371   7.336 -0.1159 -1.5526  1.9388
 1832TIP3    H227132   0.954   0.259   7.309  0.7900 -0.5820  1.1614
 1833TIP3   OH227133   0.111   2.542   0.540 -0.1593  0.2835 -0.1983
 1833TIP3    H127134   0.136   2.625   0.581  0.8873  0.2792 -0.7959
 1833TIP3    H227135   0.191   2.511   0.498 -0.7929 -0.5352 -0.8292
 1834TIP3   OH227136   2.370   4.392   0.862  0.5996  0.0672 -0.5322
 1834TIP3    H127137   2.396   4.350   0.944  1.8321  1.5030 -0.1460
 1834TIP3    H227138   2.337   4.478   0.889  1.5308  0.7750 -1.5502
 1835TIP3   OH227139   2.217   0.212   1.734 -0.0833 -0.1434 -0.3047
 1835TIP3    H127140   2.170   0.242   1.656 -0.0778 -0.0737 -0.2813
 1835TIP3    H227141   2.305   0.248   1.725  0.0486 -0.5140 -0.4894
 1836TIP3   OH227142   2.741   1.487   0.721 -0.2622  0.5914  0.5670
 1836TIP3    H127143   2.787   1.502   0.804 -0.4695 -2.1155  1.2587
 1836TIP3    H227144   2.652   1.515   0.738 -0.4683 -0.5576  1.5359
 1837TIP3   OH227145   1.830   6.601   8.218 -0.4538  0.0486  0.2255
 1837TIP3    H127146   1.791   6.570   8.136 -1.2657 -1.0862  1.0210
 1837TIP3    H227147   1.818   6.696   8.215  1.1776  0.2639 -1.7891
 1838TIP3   OH227148   0.148   1.053   2.005 -0.0574  0.5121 -0.1643
 1838TIP3    H127149   0.125   0.961   1.993  0.9697  0.3691 -1.2648
 1838TIP3    H227150   0.144   1.066   2.100 -0.6380 -0.5469 -0.0225
 1839TIP3   OH227151   3.947   4.061   0.761 -0.2314  0.1615  0.3547
 1839TIP3    H127152   3.886   4.046   0.833 -0.5187  0.1142  0.1059
 1839TIP3    H227153   3.929   3.989   0.700 -2.9607  2.3973 -1.7799
 1840TIP3   OH227154   3.519   2.863   1.204 -0.2086  0.3412  0.3265
 1840TIP3    H127155   3.451   2.915   1.160 -0.7826 -0.4448  0.2695
 1840TIP3    H227156   3.477   2.832   1.284  0.0766 -0.1855  0.2716
 1841TIP3   OH227157   1.582   1.265   1.238  0.2390  0.4920 -0.1281
 1841TIP3    H127158   1.540   1.336   1.287  0.0054  0.4617 -0.2832
 1841TIP3    H227159   1.510   1.221   1.192  0.3284 -0.1109  0.2986
 1842TIP3   OH227160   2.948   4.129   0.469  0.6485 -0.2927 -0.1136
 1842TIP3    H127161   2.904   4.053   0.432  0.0977  0.5078 -1.1456
 1842TIP3    H227162   2.901   4.204   0.433  0.9949  0.5412  1.1083
 1843TIP3   OH227163   2.996   0.219   0.590 -0.2448 -0.7532  0.2769
 1843TIP3    H127164   2.981   0.194   0.499  1.8479  1.7414 -0.8964
 1843TIP3    H227165   3.031   0.140   0.631 -0.9125 -1.8301 -1.1468
 1844TIP3   OH227166   6.419   5.041   7.566 -0.3835  0.7438  0.5772
 1844TIP3    H127167   6.409   5.043   7.471 -0.1701  1.0808  0.5600
 1844TIP3    H227168   6.497   4.988   7.581 -0.9604 -0.1163  0.6140
 1845TIP3   OH227169   0.281   1.267   1.616 -0.1926  0.3437 -0.0575
 1845TIP3    H127170   0.296   1.307   1.702 -0.1981  0.3303 -0.0503
 1845TIP3    H227171   0.212   1.203   1.631  2.0096 -2.0675  0.6633
 1846TIP3   OH227172   2.899   0.720   0.465  0.0710 -0.1745 -0.2017
 1846TIP3    H127173   2.935   0.641   0.504 -1.7598 -1.0762 -0.2388
 1846TIP3    H227174   2.828   0.689   0.409 -2.2288  1.5912  1.5159
 1847TIP3   OH227175   2.744   4.839   0.592 -0.6910 -0.0654 -0.1458
 1847TIP3    H127176   2.736   4.801   0.505  1.2553 -0.1988 -0.3070
 1847TIP3    H227177   2.723   4.767   0.652 -1.0500 -0.2441 -0.4793
 1848TIP3   OH227178   2.585   6.440   8.762 -0.3072 -0.3123 -0.6408
 1848TIP3    H127179   2.588   6.529   8.797 -0.0149 -0.4823 -0.2291
 1848TIP3    H227180   2.611   6.385   8.835  2.0838 -0.5578 -1.5649
 1849TIP3   OH227181   4.622   4.185   7.202 -0.7642  0.0571  0.3486
 1849TIP3    H127182   4.621   4.118   7.133 -1.3374 -1.8845  2.1347
 1849TIP3    H227183   4.714   4.189   7.230 -0.6130  0.5179 -0.1942
 1850TIP3   OH227184   1.737   1.862   0.201 -0.1413 -0.0147 -0.3580
 1850TIP3    H127185   1.783   1.827   0.124  0.5685  2.3408 -1.0921
 1850TIP3    H227186   1.807   1.885   0.262 -0.2984  2.5292 -1.0130
 1851TIP3   OH227187   4.650   5.876   6.904  0.4179 -0.1750  0.2186
 1851TIP3    H127188   4.711   5.942   6.937  0.3737 -0.7382  1.4836
 1851TIP3    H227189   4.643   5.812   6.975 -1.8318 -0.0058  0.2279
 1852TIP3   OH227190   4.126   3.287   6.735  0.2296 -0.3108  0.1026
 1852TIP3    H127191   4.184   3.212   6.751 -1.0918 -1.4288 -0.1367
 1852TIP3    H227192   4.091   3.271   6.648 -1.2879 -0.2800  0.6771
 1853TIP3   OH227193   4.436   2.579   0.557 -0.3244  0.4670  0.4126
 1853TIP3    H127194   4.354   2.546   0.521 -0.4512 -1.4081  2.2115
 1853TIP3    H227195   4.409   2.649   0.617 -0.1838  2.9063 -2.1995
 1854TIP3   OH227196   3.093   2.421   7.521 -0.3477  0.3123  0.1095
 1854TIP3    H127197   3.040   2.360   7.469 -0.5527  2.1304 -1.9273
 1854TIP3    H227198   3.170   2.370   7.546 -1.7598 -1.5924  0.9039
 1855TIP3   OH227199   5.382   6.746   8.378 -0.3540  0.8645 -0.1463
 1855TIP3    H127200   5.442   6.674   8.359  0.4521  0.3652  3.5520
 1855TIP3    H227201   5.308   6.705   8.422  0.2291  2.1828  2.2524
 1856TIP3   OH227202   4.887   0.975   0.461  0.3527 -0.3947  0.0587
 1856TIP3    H127203   4.820   0.969   0.529  0.5419 -1.8723  0.1400
 1856TIP3    H227204   4.838   0.987   0.380  0.0258 -0.5099  0.2374
 1857TIP3   OH227205   6.800   6.475   0.348 -0.4540 -0.4002  0.2427
 1857TIP3    H127206   6.767   6.539   0.285 -1.3023 -0.3597  0.7087
 1857TIP3    H227207   6.796   6.391   0.302 -1.8158 -0.4894  0.4731
 1858TIP3   OH227208   6.563   1.496   8.783  0.8134 -0.1251  0.0394
 1858TIP3    H127209   6.483   1.452   8.811  1.2589 -1.6916 -1.0057
 1858TIP3    H227210   6.625   1.482   8.855  1.1185 -1.7724 -0.4951
 1859TIP3   OH227211   3.721   3.526   1.716 -0.0902  0.3517 -0.0389
 1859TIP3    H127212   3.796   3.522   1.656  0.2771  0.0031  0.4377
 1859TIP3    H227213   3.694   3.618   1.715  1.0039  0.6988  0.5816
 1860TIP3   OH227214   3.635   2.483   7.267  0.2584  0.3108  0.2949
 1860TIP3    H127215   3.559   2.430   7.241 -0.2107  1.1258 -0.0184
 1860TIP3    H227216   3.649   2.543   7.194  0.7812  0.6269  0.6487
 1861TIP3   OH227217   6.295   4.052   8.576 -0.7433 -0.4675  0.0110
 1861TIP3    H127218   6.207   4.076   8.605 -0.3086 -1.7016  2.7094
 1861TIP3    H227219   6.283   3.971   8.527 -1.1364 -0.4598  0.0894
 1862TIP3   OH227220   0.920   1.307   7.961 -0.3269  0.5834  0.2496
 1862TIP3    H127221   0.987   1.251   7.999  0.7924 -0.1198 -2.5563
 1862TIP3    H227222   0.851   1.247   7.932 -0.1226  0.8309 -0.8063
 1863TIP3   OH227223   5.722   2.320   6.862 -0.1697 -0.5831 -0.1006
 1863TIP3    H127224   5.666   2.389   6.897  1.0218  0.5320 -0.3131
 1863TIP3    H227225   5.676   2.239   6.881 -1.3424  0.2419  0.6497
 1864TIP3   OH227226   3.957   6.479   0.786 -0.1045  0.3900  0.3717
 1864TIP3    H127227   3.873   6.510   0.753  0.7853  1.4582 -0.9732
 1864TIP3    H227228   3.992   6.424   0.716 -0.2396 -1.1570  1.4612
 1865TIP3   OH227229   0.444   3.729   8.497  0.3437 -0.5373 -0.2288
 1865TIP3    H127230   0.388   3.710   8.572 -1.3755  2.1709 -0.6843
 1865TIP3    H227231   0.526   3.761   8.535  0.2561 -1.1432  0.4757
 1866TIP3   OH227232   1.327   1.302   8.524  0.0615  0.6359  0.1216
 1866TIP3    H127233   1.253   1.313   8.464  0.4115 -1.7540 -0.8766
 1866TIP3    H227234   1.378   1.383   8.515 -0.7670  1.0132 -1.5838
 1867TIP3   OH227235   1.963   2.410   6.587  0.1182  0.3541 -0.5052
 1867TIP3    H127236   1.984   2.317   6.587  0.5556  0.4501 -0.3669
 1867TIP3    H227237   1.872   2.414   6.616 -0.2020 -0.0881 -1.4301
 1868TIP3   OH227238   1.209   0.304   0.601  0.0397 -0.8524 -0.0405
 1868TIP3    H127239   1.258   0.362   0.543  0.1241 -0.6823  0.1974
 1868TIP3    H227240   1.191   0.358   0.678 -1.1492 -0.6888 -0.4212
 1869TIP3   OH227241   2.218   5.664   1.737 -0.3439  0.0607 -0.0071
 1869TIP3    H127242   2.164   5.620   1.672 -1.8713  0.1466  1.1461
 1869TIP3    H227243   2.277   5.597   1.769  1.6294  0.3936 -2.6027
 1870TIP3   OH227244   0.199   0.078   7.784 -0.1641  0.2439  0.3424
 1870TIP3    H127245   0.231   0.132   7.711 -0.3792 -1.0627 -0.7588
 1870TIP3    H227246   0.237  -0.008   7.769  0.9131  0.2652  2.5789
 1871TIP3   OH227247   0.515   3.577   0.985 -0.0226 -0.2898 -0.5441
 1871TIP3    H127248   0.508   3.595   0.892  1.0882 -1.1399 -0.8165
 1871TIP3    H227249   0.607   3.555   0.998  0.3118  1.7602  1.1137
 1872TIP3   OH227250   0.323   4.995   0.124  0.2751 -0.1414 -0.1176
 1872TIP3    H127251   0.347   4.922   0.067  0.3636  0.8359 -1.3678
 1872TIP3    H227252   0.368   5.071   0.086  0.9030  0.4358  1.6497
 1873TIP3   OH227253   4.439   0.010   6.201  0.1546  0.1184 -0.4641
 1873TIP3    H127254   4.365  -0.051   6.197  0.9947 -1.0143  0.6162
 1873TIP3    H227255   4.399   0.096   6.212 -1.0051 -0.4746  0.1048
 1874TIP3   OH227256   3.358   0.898   7.897  0.5632  0.1209 -0.3170
 1874TIP3    H127257   3.368   0.982   7.853 -1.2380  0.3883 -0.2849
 1874TIP3    H227258   3.270   0.900   7.934  0.2944 -1.9800 -0.7072
 1875TIP3   OH227259   0.336   4.808   8.709 -0.7118 -0.0475  0.1557
 1875TIP3    H127260   0.405   4.760   8.664 -0.3856 -0.2267  0.8363
 1875TIP3    H227261   0.259   4.797   8.654 -0.2678 -0.0745 -0.4700
 1876TIP3   OH227262   0.483   5.567   2.271 -0.0656 -0.3237 -0.4668
 1876TIP3    H127263   0.546   5.623   2.224  0.7629  0.4583  1.4656
 1876TIP3    H227264   0.402   5.619   2.273 -0.8724 -1.3394 -2.9759
 1877TIP3   OH227265   3.763   0.384   1.226 -0.1287  0.1256 -0.2663
 1877TIP3    H127266   3.742   0.325   1.299  1.5434 -1.1037 -0.7055
 1877TIP3    H227267   3.755   0.472   1.263 -1.6748 -0.3812  0.7102
 1878TIP3   OH227268   6.617   0.631   0.242  0.6999 -0.1287 -0.1875
 1878TIP3    H127269   6.538   0.591   0.278 -0.2971  1.6971 -0.2283
 1878TIP3    H227270   6.614   0.610   0.148 -0.8345  1.5643 -0.5666
 1879TIP3   OH227271   1.624   2.315   1.043 -0.1831  0.5278 -0.1450
 1879TIP3    H127272   1.651   2.405   1.022  0.8197  0.0429 -1.0676
 1879TIP3    H227273   1.586   2.282   0.962  0.3794 -0.1956 -0.1295
 1880TIP3   OH227274   5.174   5.588   1.589  0.4004 -0.2832  0.5116
 1880TIP3    H127275   5.108   5.520   1.580 -0.0417  0.2667 -0.5254
 1880TIP3    H227276   5.158   5.627   1.675  0.1672 -0.9647  0.7787
 1881TIP3   OH227277   6.477   2.138   0.797 -0.3938  0.6226 -0.0023
 1881TIP3    H127278   6.521   2.138   0.882 -0.2030 -1.5802 -0.0263
 1881TIP3    H227279   6.439   2.225   0.789  0.5766  1.2635  1.8134
 1882TIP3   OH227280   0.410   3.934   0.789 -0.0794 -0.2887  0.2129
 1882TIP3    H127281   0.333   3.927   0.732 -0.6361 -0.8336  1.0220
 1882TIP3    H227282   0.375   3.955   0.875  0.6797 -0.5523  0.5944
 1883TIP3   OH227283   1.333   2.422   8.665  0.0894  0.2109  0.4570
 1883TIP3    H127284   1.375   2.457   8.587  1.5201 -1.6486  0.3365
 1883TIP3    H227285   1.384   2.345   8.688 -1.3177 -0.2649  2.2583
 1884TIP3   OH227286   4.915   4.772   8.360 -0.2461  0.3578 -0.4265
 1884TIP3    H127287   4.822   4.776   8.385 -1.3526 -4.0916 -2.7705
 1884TIP3    H227288   4.947   4.691   8.398  3.2538  2.3116  1.3414
 1885TIP3   OH227289   4.740   5.385   0.054  0.4611  0.7740  0.0089
 1885TIP3    H127290   4.825   5.343   0.057 -0.2761 -0.7424  0.4416
 1885TIP3    H227291   4.702   5.357  -0.030 -0.7753 -0.9923  1.1014
 1886TIP3   OH227292   4.784   0.262   8.389  0.2187  0.6144 -0.5211
 1886TIP3    H127293   4.703   0.258   8.337 -0.1652  1.2011  0.0213
 1886TIP3    H227294   4.781   0.184   8.443 -0.0664  0.7088 -0.3949
 1887TIP3   OH227295   2.551   3.511   7.314  0.4219  0.3485  0.0402
 1887TIP3    H127296   2.535   3.471   7.229  0.2453  0.6227 -0.0571
 1887TIP3    H227297   2.562   3.604   7.295 -0.6749  0.5755  0.4264
 1888TIP3   OH227298   1.498   1.086   0.091 -0.1921  0.0564 -0.0478
 1888TIP3    H127299   1.578   1.105   0.042 -0.4627 -0.3748 -0.6725
 1888TIP3    H227300   1.477   0.996   0.067 -0.3621 -0.1476  0.8289
 1889TIP3   OH227301   3.197   6.466   7.301 -0.0453 -0.3757  0.3524
 1889TIP3    H127302   3.187   6.527   7.373  1.9301 -1.3317  1.5390
 1889TIP3    H227303   3.291   6.463   7.285 -0.0778 -2.8882  0.2029
 1890TIP3   OH227304   4.469   5.204   0.157 -0.2082  0.1993  0.0058
 1890TIP3    H127305   4.420   5.263   0.100  1.2941 -0.0552 -1.6237
 1890TIP3    H227306   4.554   5.246   0.169  0.5551 -1.1529 -0.4160
 1891TIP3   OH227307   5.260   1.464   8.042  0.0572 -0.1980  0.1912
 1891TIP3    H127308   5.319   1.407   8.090  0.6017  0.3369  0.1603
 1891TIP3    H227309   5.306   1.483   7.961 -1.2879 -1.9447 -1.0688
 1892TIP3   OH227310   0.135   0.239   1.133 -0.3122  0.1314  0.0936
 1892TIP3    H127311   0.070   0.308   1.151 -0.4620  0.0569 -0.1577
 1892TIP3    H227312   0.207   0.258   1.193  0.2411  1.3120 -0.8886
 1893TIP3   OH227313   5.480   1.810   0.303 -0.1514 -0.4955  0.0551
 1893TIP3    H127314   5.507   1.902   0.308  0.5609 -0.6802 -0.2935
 1893TIP3    H227315   5.541   1.770   0.241  0.2824 -1.4576  1.0526
 1894TIP3   OH227316   3.644   6.290   0.674  0.5722 -0.1224  0.2006
 1894TIP3    H127317   3.614   6.343   0.748  2.6056  0.9662  0.3222
 1894TIP3    H227318   3.694   6.351   0.620  0.9300 -1.3950 -0.9591
 1895TIP3   OH227319   1.600   3.629   7.486 -0.0887  0.1113  0.3003
 1895TIP3    H127320   1.582   3.641   7.393  0.1158 -2.9159 -0.2400
 1895TIP3    H227321   1.679   3.575   7.488  1.2634  2.0209  2.3407
 1896TIP3   OH227322   6.185   0.203   6.605  0.3551 -0.1548  0.8707
 1896TIP3    H127323   6.212   0.256   6.680 -0.2665 -0.2768  1.1901
 1896TIP3    H227324   6.129   0.261   6.553 -0.0618 -0.3950  1.0495
 1897TIP3   OH227325   3.413   5.982   0.126  0.2681  0.4822 -0.3151
 1897TIP3    H127326   3.476   5.985   0.198 -0.5691 -0.8050  0.5020
 1897TIP3    H227327   3.410   5.890   0.100  1.3115  1.0426 -2.7278
 1898TIP3   OH227328   1.921   3.843   8.343  0.7937  0.0680 -0.1092
 1898TIP3    H127329   1.857   3.881   8.404 -2.0914 -4.4409  0.0904
 1898TIP3    H227330   1.887   3.864   8.256  0.5075 -0.1260 -0.0442
 1899TIP3   OH227331   3.346   0.161   1.368 -0.3679 -0.1062 -0.3783
 1899TIP3    H127332   3.356   0.089   1.306  0.4716 -0.2652 -0.0677
 1899TIP3    H227333   3.380   0.237   1.322  0.3112 -0.2352 -0.1123
 1900TIP3   OH227334   1.182   1.571   0.254  0.2627 -0.0792  0.2768
 1900TIP3    H127335   1.269   1.563   0.291  0.4700  2.6643  0.5801
 1900TIP3    H227336   1.126   1.597   0.327 -0.6429 -0.8036 -0.1181
 1901TIP3   OH227337   1.021   6.183   8.461 -0.1273 -1.0405  0.0402
 1901TIP3    H127338   1.103   6.163   8.506  0.9083  0.6297 -0.9694
 1901TIP3    H227339   1.039   6.164   8.369  0.1636  1.9407 -0.6368
 1902TIP3   OH227340   6.213   0.385   0.607  0.7162  0.0422 -0.0593
 1902TIP3    H127341   6.232   0.378   0.701 -1.6681 -0.7699  0.4497
 1902TIP3    H227342   6.237   0.475   0.584  1.3886  0.2395  1.3293
 1903TIP3   OH227343   3.258   2.343   8.166  0.0218  0.4433 -0.7926
 1903TIP3    H127344   3.166   2.349   8.191 -0.2640  1.7702 -2.0262
 1903TIP3    H227345   3.303   2.406   8.223  0.3033 -0.7019  0.2873
 1904TIP3   OH227346   2.640   2.435   0.681  0.1370  0.1857 -0.1847
 1904TIP3    H127347   2.579   2.413   0.752 -1.5979  0.1104 -1.6369
 1904TIP3    H227348   2.696   2.503   0.719 -2.9007  2.6753  0.3349
 1905TIP3   OH227349   1.513   5.964   1.824  0.2877 -0.0597  0.4866
 1905TIP3    H127350   1.583   5.938   1.884 -0.0984  2.2115  2.0928
 1905TIP3    H227351   1.542   6.049   1.790 -1.2591  0.5192  0.5358
 1906TIP3   OH227352   3.194   2.261   1.692 -0.8016  0.5690 -0.0056
 1906TIP3    H127353   3.208   2.174   1.654 -1.8862 -0.6612  2.2289
 1906TIP3    H227354   3.218   2.251   1.784 -2.9612  2.0773  0.7879
 1907TIP3   OH227355   3.048   0.922   0.960  0.7533  0.4448  0.2917
 1907TIP3    H127356   3.058   0.859   1.032  0.5257 -1.8300 -1.5506
 1907TIP3    H227357   2.954   0.941   0.958  0.8270  0.9158  0.8722
 1908TIP3   OH227358   1.230   6.632   7.807 -0.0962 -0.4399 -0.2450
 1908TIP3    H127359   1.231   6.599   7.717 -0.8688  1.0975 -0.8560
 1908TIP3    H227360   1.247   6.555   7.861  0.3444 -1.4030 -1.7002
 1909TIP3   OH227361   1.469   0.850   7.605  0.5136  0.1150  0.1305
 1909TIP3    H127362   1.532   0.921   7.610 -0.1459  0.6567  0.8094
 1909TIP3    H227363   1.446   0.831   7.695  1.8469 -2.0409  0.0871
 1910TIP3   OH227364   2.777   3.060   0.545  0.3126  0.3841  0.7432
 1910TIP3    H127365   2.864   3.087   0.515 -0.1551  0.7660 -0.2936
 1910TIP3    H227366   2.757   3.120   0.617  1.1011 -0.0284  1.3341
 1911TIP3   OH227367   3.443   0.557   2.761  0.0691  1.0223  0.4517
 1911TIP3    H127368   3.525   0.525   2.800 -0.9968 -0.1538  1.8340
 1911TIP3    H227369   3.442   0.519   2.673  0.5215  0.1531  0.8042
 1912TIP3   OH227370   6.417   3.608   2.007  0.5460 -0.8648  0.3635
 1912TIP3    H127371   6.448   3.581   2.094 -0.6203 -2.0188  0.4462
 1912TIP3    H227372   6.358   3.681   2.024  0.6087 -0.8469  0.5074
 1913TIP3   OH227373   2.160   1.445   0.565  0.4308  0.0946 -0.1759
 1913TIP3    H127374   2.118   1.520   0.524  1.0128  0.1832 -0.6148
 1913TIP3    H227375   2.242   1.480   0.602  0.7128 -0.3215 -0.3983
 1914TIP3   OH227376   6.458   1.498   2.235  0.0979 -0.3640 -0.4451
 1914TIP3    H127377   6.453   1.408   2.268 -0.7894  0.1331  0.8625
 1914TIP3    H227378   6.367   1.526   2.227  0.2714 -0.2795 -3.0005
 1915TIP3   OH227379   0.781   1.625   1.467 -0.0529  0.3069  0.1957
 1915TIP3    H127380   0.689   1.650   1.478  0.0576  0.4217  0.9095
 1915TIP3    H227381   0.829   1.707   1.470  0.0511  0.2772 -0.5041
 1916TIP3   OH227382   3.554   1.392   1.168 -0.1002  0.1320 -0.8734
 1916TIP3    H127383   3.543   1.366   1.077  0.5713 -1.0330 -0.6363
 1916TIP3    H227384   3.542   1.487   1.167  3.4906  0.7418 -2.8237
 1917TIP3   OH227385   0.646   2.570   2.417  0.5848 -0.6809  0.8235
 1917TIP3    H127386   0.701   2.523   2.355  0.8577  0.0965  0.4666
 1917TIP3    H227387   0.577   2.508   2.440  0.4125 -0.9375 -0.3465
 1918TIP3   OH227388   5.640   2.022   8.150  0.1075  0.4764 -0.2892
 1918TIP3    H127389   5.641   2.106   8.196  1.0624 -1.1165  2.9340
 1918TIP3    H227390   5.556   1.983   8.174  0.8500 -0.6133  0.6627
 1919TIP3   OH227391   6.180   2.339   7.930  0.3909  0.4950 -0.2970
 1919TIP3    H127392   6.214   2.262   7.886  0.4362  0.7703 -0.7467
 1919TIP3    H227393   6.169   2.311   8.021  0.5208 -0.0019 -0.4293
 1920TIP3   OH227394   4.356   4.354   1.663  0.0638  0.1889 -0.4717
 1920TIP3    H127395   4.426   4.371   1.726  2.6043 -0.7628 -2.7912
 1920TIP3    H227396   4.374   4.414   1.591 -1.2361 -0.4102 -1.3336
 1921TIP3   OH227397   5.117   3.484   8.091  0.0915 -0.1770 -0.6518
 1921TIP3    H127398   5.204   3.480   8.131 -0.1431 -0.8553 -0.2010
 1921TIP3    H227399   5.113   3.408   8.033 -0.2604 -0.2390 -0.5465
 1922TIP3   OH227400   4.461   5.311   0.731 -0.1315  0.3578  0.1875
 1922TIP3    H127401   4.370   5.313   0.701  0.2027  1.5262 -0.8032
 1922TIP3    H227402   4.507   5.372   0.673  1.1381  0.3603  1.1626
 1923TIP3   OH227403   3.590   6.750   6.987 -0.1764  0.1434  0.0204
 1923TIP3    H127404   3.575   6.826   7.044 -2.2303  0.2814 -0.6051
 1923TIP3    H227405   3.510   6.698   6.995  1.4190 -2.3592  0.9244
 1924TIP3   OH227406   0.852   6.436   1.387 -0.5581 -0.0047  0.2038
 1924TIP3    H127407   0.898   6.452   1.305 -0.1862 -1.3165  0.1306
 1924TIP3    H227408   0.840   6.522   1.425  1.9397  0.4055  0.2162
 1925TIP3   OH227409   6.589   6.128   0.888 -0.6515 -0.4991 -0.5097
 1925TIP3    H127410   6.609   6.076   0.966 -0.1870 -0.5305 -0.6456
 1925TIP3    H227411   6.663   6.112   0.829 -1.8285 -1.8524 -1.6797
 1926TIP3   OH227412   6.033   5.294   7.810  0.2648  0.2166 -0.2984
 1926TIP3    H127413   6.080   5.287   7.727 -1.5839 -0.0598 -1.3795
 1926TIP3    H227414   6.043   5.208   7.851 -3.0586 -1.5301 -2.7169
 1927TIP3   OH227415   5.598   1.061   0.373 -0.0391  0.3119 -0.1044
 1927TIP3    H127416   5.668   1.033   0.315  0.3800 -1.0536  0.9872
 1927TIP3    H227417   5.621   1.151   0.398  1.2851 -0.0849  0.1639
 1928TIP3   OH227418   5.014   5.546   8.121 -0.3420  0.4509  0.5147
 1928TIP3    H127419   5.016   5.519   8.212 -1.0287  0.4715  0.5381
 1928TIP3    H227420   5.104   5.575   8.103  0.4015 -1.6143  0.5509
 1929TIP3   OH227421   5.763   3.642   7.449  0.0987 -0.0963 -0.1249
 1929TIP3    H127422   5.787   3.686   7.531  0.5406  1.8945 -1.2730
 1929TIP3    H227423   5.847   3.630   7.404 -0.0212 -2.0312  0.0449
 1930TIP3   OH227424   0.131   3.520   8.518 -0.0720 -0.6127  0.3298
 1930TIP3    H127425   0.188   3.550   8.588 -0.4843 -0.9781  0.8291
 1930TIP3    H227426   0.105   3.431   8.544 -0.2790 -0.7287 -0.2482
 1931TIP3   OH227427   2.405   0.078   7.943  0.4916  0.2621 -0.0677
 1931TIP3    H127428   2.500   0.086   7.958  0.6740 -1.2794 -0.1556
 1931TIP3    H227429   2.367   0.085   8.031  0.6553  1.1831 -0.0648
 1932TIP3   OH227430   6.740   0.089   7.715  0.2269  0.2032 -0.1792
 1932TIP3    H127431   6.703   0.089   7.804 -1.5785  0.0838 -0.8835
 1932TIP3    H227432   6.788   0.006   7.710 -1.4122 -0.8200  0.0429
 1933TIP3   OH227433   2.920   1.190   0.256  0.7190  0.4036 -0.3818
 1933TIP3    H127434   2.879   1.262   0.303  1.8281  1.2563 -0.6878
 1933TIP3    H227435   2.876   1.111   0.289  0.2128  1.1286  0.7080
 1934TIP3   OH227436   6.187   1.006   8.221 -0.5099 -0.2646 -0.5646
 1934TIP3    H127437   6.241   0.929   8.203  0.1794  0.0945 -0.0875
 1934TIP3    H227438   6.107   0.972   8.259  0.4483 -0.6686  1.1672
 1935TIP3   OH227439   5.227   5.287   7.582  0.3640 -0.4396 -0.5556
 1935TIP3    H127440   5.189   5.307   7.668 -0.4325  1.0466 -1.2035
 1935TIP3    H227441   5.243   5.193   7.584 -1.4630 -0.7832  0.5329
 1936TIP3   OH227442   2.008   1.733   0.151 -0.1651 -0.1836  0.5526
 1936TIP3    H127443   2.038   1.822   0.130  0.4822  0.0857  2.3624
 1936TIP3    H227444   2.089   1.681   0.152 -0.1986 -0.2524  1.8153
 1937TIP3   OH227445   1.072   1.952   0.690 -0.0697 -0.0447 -0.1227
 1937TIP3    H127446   0.990   1.998   0.703 -0.4828 -0.5986 -0.6995
 1937TIP3    H227447   1.115   1.999   0.618  0.7381  1.0495  1.0399
 1938TIP3   OH227448   2.996   5.473   7.572  0.0861 -0.1140 -0.5009
 1938TIP3    H127449   2.999   5.568   7.558  0.4051  0.1383  1.0939
 1938TIP3    H227450   3.025   5.435   7.489  2.0497  1.2408 -0.5032
 1939TIP3   OH227451   1.861   2.566   7.659 -0.1849 -0.0647  0.3950
 1939TIP3    H127452   1.881   2.564   7.565  1.4669  0.2836  0.7062
 1939TIP3    H227453   1.812   2.647   7.671 -1.1153 -0.5053 -0.2748
 1940TIP3   OH227454   3.759   3.974   1.269  0.0396 -0.4975 -0.0022
 1940TIP3    H127455   3.706   3.895   1.261  0.5789 -0.8809  0.1786
 1940TIP3    H227456   3.696   4.044   1.287 -0.3159 -1.0783  1.0257
 1941TIP3   OH227457   5.235   2.761   8.318 -0.0994 -0.5327  0.1131
 1941TIP3    H127458   5.241   2.816   8.240  0.0280  0.0850  0.5566
 1941TIP3    H227459   5.159   2.794   8.366 -0.4941 -1.2481 -0.0030
 1942TIP3   OH227460   4.515   6.061   1.977  0.2124 -0.3371  0.2758
 1942TIP3    H127461   4.593   6.095   1.933  0.8478 -0.5866  1.1836
 1942TIP3    H227462   4.442   6.104   1.933  0.8830  0.2532 -0.2821
 1943TIP3   OH227463   0.701   5.314   0.149  0.2363 -0.4118  0.0290
 1943TIP3    H127464   0.715   5.303   0.055 -0.4368 -0.1280 -0.1101
 1943TIP3    H227465   0.786   5.296   0.188  0.2727 -1.5913 -0.5469
 1944TIP3   OH227466   6.329   0.894   0.011  0.6576 -0.3081 -0.4538
 1944TIP3    H127467   6.363   0.806  -0.005  2.2964 -0.0125  1.0773
 1944TIP3    H227468   6.309   0.895   0.104  1.6518  1.2225 -0.2197
 1945TIP3   OH227469   3.049   2.838   1.736 -0.5651  0.3543  0.2184
 1945TIP3    H127470   2.987   2.883   1.679 -1.9018  0.5589  1.7845
 1945TIP3    H227471   3.099   2.909   1.777  0.5676  0.2004 -0.8037
 1946TIP3   OH227472   3.276   1.267   8.350 -0.0415  0.7020  0.6133
 1946TIP3    H127473   3.369   1.265   8.372  0.1178 -0.1500 -0.0685
 1946TIP3    H227474   3.259   1.358   8.325  1.0951  0.4567 -1.1997
 1947TIP3   OH227475   3.570   0.667   1.632 -0.3227  0.4821 -0.0930
 1947TIP3    H127476   3.531   0.734   1.577  1.4000  0.9182 -0.8616
 1947TIP3    H227477   3.553   0.696   1.722 -1.0191  1.0647 -0.4060
 1948TIP3   OH227478   5.233   4.701   8.406 -0.0411  0.3725  0.3639
 1948TIP3    H127479   5.282   4.636   8.356 -0.5852  0.5517 -0.4257
 1948TIP3    H227480   5.178   4.649   8.465 -0.7956  0.0838 -0.5677
 1949TIP3   OH227481   0.197   1.443   0.462 -0.1320 -0.1530 -0.0366
 1949TIP3    H127482   0.143   1.402   0.530 -0.0578 -0.8971 -0.4248
 1949TIP3    H227483   0.250   1.372   0.426 -0.2174  0.2178 -0.9234
 1950TIP3   OH227484   0.407   1.449   2.604 -0.1941  0.5768 -0.9426
 1950TIP3    H127485   0.464   1.386   2.649 -1.0214  0.9373  0.6901
 1950TIP3    H227486   0.468   1.509   2.560  0.6587  0.1978 -0.3064
 1951TIP3   OH227487   2.192   3.186   7.610 -0.4502  0.1357  0.7037
 1951TIP3    H127488   2.183   3.212   7.518 -1.5407 -1.6786  0.2643
 1951TIP3    H227489   2.112   3.217   7.652  0.0386  0.9455  1.0540
 1952TIP3   OH227490   0.070   4.560   2.496 -0.5400 -0.2766 -0.4654
 1952TIP3    H127491   0.131   4.535   2.427 -1.0196  1.0867 -1.4257
 1952TIP3    H227492   0.034   4.478   2.528  1.1750 -1.0478 -0.4427
 1953TIP3   OH227493   6.284   5.086   1.358 -0.2974  0.2580 -0.6184
 1953TIP3    H127494   6.206   5.141   1.361 -0.1096  0.4931  0.0429
 1953TIP3    H227495   6.356   5.145   1.378  0.0502  0.0226 -1.1305
 1954TIP3   OH227496   5.272   6.463   0.719  0.4005 -0.0843  0.4498
 1954TIP3    H127497   5.352   6.502   0.683  0.4304 -2.2178 -2.0948
 1954TIP3    H227498   5.202   6.522   0.690  0.8869  1.2959  1.9102
 1955TIP3   OH227499   6.278   0.665   1.797 -0.3145  0.0113 -0.0093
 1955TIP3    H127500   6.275   0.699   1.886  0.2634 -0.3066  0.1341
 1955TIP3    H227501   6.305   0.740   1.744  1.2113 -0.2537  0.3402
 1956TIP3   OH227502   1.150   0.718   6.604 -0.8116 -0.1634  0.0315
 1956TIP3    H127503   1.078   0.664   6.637 -1.4288  0.1908 -0.7046
 1956TIP3    H227504   1.162   0.689   6.513 -0.7897  0.5639 -0.2022
 1957TIP3   OH227505   3.196   6.370   0.543  0.1231  0.3946  0.2199
 1957TIP3    H127506   3.106   6.351   0.514 -0.1902 -0.6255  1.7382
 1957TIP3    H227507   3.240   6.285   0.540  0.3679  0.4519  1.6893
 1958TIP3   OH227508   3.761   5.260   1.840  0.3479 -0.5689 -0.0468
 1958TIP3    H127509   3.674   5.263   1.881 -0.2758 -1.9844 -1.1789
 1958TIP3    H227510   3.775   5.167   1.820  0.5849  0.0091 -3.0391
 1959TIP3   OH227511   1.336   3.828   0.511 -0.4820 -0.3046  0.4010
 1959TIP3    H127512   1.261   3.773   0.535 -0.9868  0.6689  1.1402
 1959TIP3    H227513   1.297   3.907   0.474  0.1691  0.2542  0.8800
 1960TIP3   OH227514   3.928   1.376   8.383 -0.4970 -0.2166 -0.3963
 1960TIP3    H127515   3.936   1.433   8.459 -0.3149 -1.0948  0.2606
 1960TIP3    H227516   4.012   1.384   8.338  0.3219 -1.5158  0.8266
 1961TIP3   OH227517   0.815   2.658   1.501 -0.2821  0.4275  0.6733
 1961TIP3    H127518   0.909   2.679   1.503  0.0027 -0.7411  0.7071
 1961TIP3    H227519   0.774   2.736   1.464  1.0938 -0.2538 -2.6841
 1962TIP3   OH227520   0.520   6.504   6.627 -0.1908  0.1489 -0.5420
 1962TIP3    H127521   0.614   6.497   6.637 -0.3749 -0.2391  1.2982
 1962TIP3    H227522   0.507   6.568   6.557  1.4253  1.7022  0.5250
 1963TIP3   OH227523   1.624   6.790   8.594  0.1571 -0.3201 -0.2663
 1963TIP3    H127524   1.621   6.875   8.551 -1.1598 -0.8496 -1.2738
 1963TIP3    H227525   1.534   6.775   8.624  0.6397 -0.8160  1.0028
 1964TIP3   OH227526   2.610   0.608   2.950 -0.5363 -0.4206  0.0133
 1964TIP3    H127527   2.535   0.666   2.942 -0.5631 -0.5610 -0.8983
 1964TIP3    H227528   2.594   0.539   2.885  0.2596 -0.5895 -0.0137
 1965TIP3   OH227529   4.495   2.364   1.396 -0.4129  0.1469  0.1214
 1965TIP3    H127530   4.531   2.333   1.479 -1.0286 -1.5474 -0.2151
 1965TIP3    H227531   4.400   2.362   1.408 -0.5061 -0.0161 -0.5859
 1966TIP3   OH227532   1.767   4.924   8.433 -0.5008 -0.2621  0.2728
 1966TIP3    H127533   1.777   4.880   8.517 -0.3959 -0.0667  0.3626
 1966TIP3    H227534   1.857   4.949   8.409 -0.5694 -0.0463  0.2471
 1967TIP3   OH227535   5.433   4.006   7.986  0.2034  0.4204 -0.0368
 1967TIP3    H127536   5.519   4.023   8.025  0.5572 -0.2643 -0.5094
 1967TIP3    H227537   5.441   4.038   7.896 -0.8918  2.8357  0.6365
 1968TIP3   OH227538   0.010   6.046   6.516  0.1517 -0.3883  0.5839
 1968TIP3    H127539   0.003   6.048   6.421  0.5426 -0.1610  0.5573
 1968TIP3    H227540   0.045   5.959   6.535  0.0705 -0.4349  0.5225
 1969TIP3   OH227541   1.719   5.302   2.040 -0.4728 -0.8590 -0.0981
 1969TIP3    H127542   1.651   5.321   2.105  0.4515 -0.0600  0.6669
 1969TIP3    H227543   1.793   5.269   2.091  0.4695  0.2915 -0.6516
 1970TIP3   OH227544   5.984   0.438   0.134 -0.0482 -0.1664  0.2942
 1970TIP3    H127545   6.013   0.397   0.215 -2.0808 -1.0302  0.6536
 1970TIP3    H227546   5.944   0.521   0.162  2.6616  1.4652 -0.2782
 1971TIP3   OH227547   2.942   4.007   0.738 -0.3138 -0.4805 -0.4694
 1971TIP3    H127548   3.036   3.987   0.741 -0.1927 -0.2808 -1.9122
 1971TIP3    H227549   2.929   4.045   0.651 -1.8425 -1.0760 -0.5403
 1972TIP3   OH227550   6.547   3.733   8.716  0.1060  0.2228  0.4726
 1972TIP3    H127551   6.501   3.688   8.787  0.7356 -2.1944 -0.5398
 1972TIP3    H227552   6.480   3.745   8.648  0.1784 -0.2099  0.3209
 1973TIP3   OH227553   3.964   1.743   8.368  0.2505  0.4319 -0.3481
 1973TIP3    H127554   4.047   1.783   8.392 -0.5658  1.8532  0.1746
 1973TIP3    H227555   3.936   1.698   8.448  0.6222 -0.2727 -0.6034
 1974TIP3   OH227556   1.285   4.108   7.065  0.3222 -0.0285  0.3987
 1974TIP3    H127557   1.282   4.173   7.135  0.0641  0.7095 -0.2837
 1974TIP3    H227558   1.218   4.043   7.090  0.0543  0.3634  0.7103
 1975TIP3   OH227559   4.889   1.521   7.478 -0.9521 -0.1185 -0.1232
 1975TIP3    H127560   4.934   1.603   7.459  0.0847 -0.5282  0.4673
 1975TIP3    H227561   4.866   1.527   7.571 -0.0396 -0.8753  0.1628
 1976TIP3   OH227562   3.909   2.478   7.835 -0.0299  0.5525  0.0820
 1976TIP3    H127563   3.980   2.539   7.814  0.9203 -1.1222 -2.0139
 1976TIP3    H227564   3.858   2.472   7.754 -0.3947 -1.0063  0.3916
 1977TIP3   OH227565   3.457   1.265   6.914 -0.7807 -0.5575 -0.4642
 1977TIP3    H127566   3.432   1.355   6.939  1.6218 -0.2063  0.9633
 1977TIP3    H227567   3.525   1.277   6.847 -0.1939 -1.3003 -0.0110
 1978TIP3   OH227568   0.235   6.625   1.103 -0.0952  0.6346  0.0044
 1978TIP3    H127569   0.290   6.553   1.133 -0.5050  0.8677  1.4092
 1978TIP3    H227570   0.275   6.703   1.141 -1.7676  0.7363  1.6972
 1979TIP3   OH227571   2.215   6.021   2.104  0.0361  0.2896 -0.0789
 1979TIP3    H127572   2.210   6.092   2.040 -0.7692  1.7577  1.5209
 1979TIP3    H227573   2.126   5.986   2.108  0.2305 -0.2327 -0.2123
 1980TIP3   OH227574   2.413   2.681   1.581 -0.0036 -0.0488  0.6109
 1980TIP3    H127575   2.431   2.769   1.546  2.2607  0.2308  2.2476
 1980TIP3    H227576   2.340   2.695   1.641 -0.3581  0.5192  0.0593
 1981TIP3   OH227577   0.330   3.316   0.378  0.4639 -0.2493  0.1935
 1981TIP3    H127578   0.294   3.335   0.291 -0.5491 -0.7876  0.4784
 1981TIP3    H227579   0.421   3.347   0.373  0.2484  0.2902 -0.8533
 1982TIP3   OH227580   3.592   4.755   6.539 -0.7274  0.3826  0.0035
 1982TIP3    H127581   3.517   4.712   6.580 -0.6497  0.3879  0.1513
 1982TIP3    H227582   3.567   4.847   6.534 -0.2557  0.5918  1.1447
 1983TIP3   OH227583   1.392   3.725   7.014  0.5137  0.2904  0.5343
 1983TIP3    H127584   1.399   3.642   6.967 -1.0872  0.8762 -0.8655
 1983TIP3    H227585   1.395   3.792   6.945 -0.1705  1.2910  1.4330
 1984TIP3   OH227586   5.148   0.367   1.324 -0.5665  0.3667 -0.1710
 1984TIP3    H127587   5.181   0.306   1.257 -1.0985 -0.7469  0.5653
 1984TIP3    H227588   5.227   0.410   1.357 -0.1631 -0.0173 -0.6107
 1985TIP3   OH227589   4.562   2.650   6.107 -0.0350 -0.3685  0.6690
 1985TIP3    H127590   4.504   2.576   6.089  0.8496 -0.8785 -0.1678
 1985TIP3    H227591   4.647   2.609   6.128  0.3569  0.3922  0.5942
 1986TIP3   OH227592   3.063   5.053   6.201 -0.3321  0.4157 -0.2853
 1986TIP3    H127593   3.018   4.968   6.195 -0.9758  0.8093 -1.2970
 1986TIP3    H227594   3.148   5.032   6.240  0.2861 -1.0090 -2.2044
 1987TIP3   OH227595   3.857   4.378   6.184 -0.0548 -0.3341 -0.9379
 1987TIP3    H127596   3.922   4.409   6.247 -1.8770 -1.1180  1.4645
 1987TIP3    H227597   3.805   4.456   6.162  0.9066  0.0471 -1.9471
 1988TIP3   OH227598   3.622   1.855   6.365 -0.0460 -0.3673  0.5240
 1988TIP3    H127599   3.656   1.798   6.434 -1.9090 -0.2479  1.5983
 1988TIP3    H227600   3.686   1.847   6.294  0.1496 -3.1909  0.9062
 1989TIP3   OH227601   1.868   2.421   8.584 -0.0961  0.1960 -0.0653
 1989TIP3    H127602   1.795   2.473   8.616  0.0153 -0.3776  1.2141
 1989TIP3    H227603   1.829   2.340   8.553 -0.0094 -0.2289  0.8837
 1990TIP3   OH227604   5.288   5.376   1.133 -0.2825 -0.3287  0.4774
 1990TIP3    H127605   5.321   5.351   1.219  0.1957 -0.4729  0.2589
 1990TIP3    H227606   5.349   5.444   1.103  0.1469 -0.9780 -0.1589
 1991TIP3   OH227607   0.956   4.856   8.192  0.5528 -0.3311 -0.2417
 1991TIP3    H127608   0.989   4.878   8.105 -1.0141 -1.8646 -1.3026
 1991TIP3    H227609   0.861   4.856   8.182  0.3384 -0.7426  1.4328
 1992TIP3   OH227610   3.066   1.644   0.087 -0.2615  0.6030 -0.6949
 1992TIP3    H127611   3.081   1.651   0.182  0.1264  1.8247 -0.8237
 1992TIP3    H227612   2.973   1.663   0.077 -0.2797  0.5850 -0.5708
 1993TIP3   OH227613   6.001   3.586   8.409  0.4402 -0.3044  0.3619
 1993TIP3    H127614   5.957   3.645   8.347  1.8032  0.2542 -0.0995
 1993TIP3    H227615   6.073   3.637   8.443  2.0424 -1.8761 -0.4994
 1994TIP3   OH227616   6.869   4.267   2.524  0.4640 -0.5426  0.8753
 1994TIP3    H127617   6.793   4.276   2.467  0.8204  2.3240  0.7217
 1994TIP3    H227618   6.916   4.191   2.490  0.4694  0.8181 -2.5207
 1995TIP3   OH227619   3.730   4.411   8.109  0.1299 -0.3669 -0.0580
 1995TIP3    H127620   3.815   4.383   8.142  0.3681  0.6148  0.1732
 1995TIP3    H227621   3.750   4.476   8.041 -0.4181 -0.7134 -0.5717
 1996TIP3   OH227622   4.385   3.919   1.940  0.0675 -0.0188 -0.4799
 1996TIP3    H127623   4.315   3.866   1.979 -0.1913  0.7909  0.1757
 1996TIP3    H227624   4.352   3.941   1.853 -1.5956  2.3087  0.6190
 1997TIP3   OH227625   0.808   4.085   6.771  0.1987  0.2328 -0.2244
 1997TIP3    H127626   0.811   4.013   6.708  0.0912 -0.8355  0.9551
 1997TIP3    H227627   0.869   4.059   6.840 -1.6798  0.0406  1.4655
 1998TIP3   OH227628   5.215   0.633   8.629 -0.2087  0.1619 -0.0579
 1998TIP3    H127629   5.120   0.625   8.644 -0.6888 -1.2905 -3.0262
 1998TIP3    H227630   5.224   0.706   8.568  0.5719  0.1270  0.0037
 1999TIP3   OH227631   2.265   4.652   6.858  0.1482 -0.4644 -0.4858
 1999TIP3    H127632   2.323   4.724   6.884 -1.1147  0.5181 -0.3230
 1999TIP3    H227633   2.285   4.638   6.766  0.6527 -0.1437 -0.4319
 2000TIP3   OH227634   1.020   2.374   7.651 -0.2705 -0.0213  0.0954
 2000TIP3    H127635   1.009   2.398   7.559  0.8209  0.8817  0.1804
 2000TIP3    H227636   1.070   2.292   7.649  1.7956  1.1612 -0.1295
 2001TIP3   OH227637   0.480   1.274   8.713  0.1596 -0.4068  0.1153
 2001TIP3    H127638   0.517   1.244   8.796 -0.6741  0.0410  0.6528
 2001TIP3    H227639   0.555   1.275   8.653  1.1294  0.8699  1.2774
 2002TIP3   OH227640   1.347   2.604   0.117 -0.6390  0.3293  0.4289
 2002TIP3    H127641   1.259   2.570   0.131 -0.5998 -0.4337 -1.0265
 2002TIP3    H227642   1.375   2.566   0.034  1.4738 -0.2620  1.3467
 2003TIP3   OH227643   1.500   0.671   1.071  0.0537 -0.2714  0.8283
 2003TIP3    H127644   1.557   0.606   1.113  1.6012  0.4363 -0.1015
 2003TIP3    H227645   1.557   0.719   1.012 -1.1768  1.5609  1.0303
 2004TIP3   OH227646   0.738   2.690   6.887 -0.2992 -0.2228 -0.5110
 2004TIP3    H127647   0.720   2.774   6.846 -0.2541 -0.3069 -0.7019
 2004TIP3    H227648   0.651   2.653   6.904 -0.3140 -0.5343 -1.2398
 2005TIP3   OH227649   0.706   3.703   7.724 -0.1109 -0.1739  0.3252
 2005TIP3    H127650   0.802   3.702   7.732 -0.2404 -0.0277  2.1224
 2005TIP3    H227651   0.691   3.681   7.632  1.6338 -0.7427  0.1253
 2006TIP3   OH227652   4.473   5.396   1.703 -0.0232  0.0231  0.3744
 2006TIP3    H127653   4.561   5.381   1.670  0.6414  0.5146  1.8197
 2006TIP3    H227654   4.416   5.383   1.628  1.4012  1.1717 -0.9601
 2007TIP3   OH227655   0.993   1.241   8.741  0.5287  0.3641 -0.4661
 2007TIP3    H127656   1.079   1.207   8.766 -0.1488 -0.3392  1.0178
 2007TIP3    H227657   0.967   1.296   8.815 -0.5706  0.0504 -0.6061
 2008TIP3   OH227658   0.266   6.062   8.459  0.4900  0.2499  0.2787
 2008TIP3    H127659   0.255   6.086   8.367  1.1769  2.1331  0.6481
 2008TIP3    H227660   0.219   6.129   8.508  1.7721  0.4112  1.3531
 2009TIP3   OH227661   3.187   1.894   1.305  0.4783 -0.4135 -0.6968
 2009TIP3    H127662   3.217   1.912   1.215 -0.0010 -2.7429 -1.3826
 2009TIP3    H227663   3.092   1.904   1.300  0.4388 -0.6887 -0.4927
 2010TIP3   OH227664   6.398   1.641   0.203 -0.1715  0.0057 -0.1325
 2010TIP3    H127665   6.423   1.728   0.235 -1.4233  1.1413 -2.0048
 2010TIP3    H227666   6.314   1.623   0.246  0.4201 -0.6159  0.7853
 2011TIP3   OH227667   2.172   2.508   6.436 -0.2412  0.3387 -0.0395
 2011TIP3    H127668   2.089   2.491   6.479  0.3763 -1.0913  0.6370
 2011TIP3    H227669   2.153   2.497   6.342 -0.7777 -0.1087  0.1182
 2012TIP3   OH227670   4.579   6.400   6.648 -0.1129 -0.0798  0.6906
 2012TIP3    H127671   4.654   6.354   6.686 -1.9975 -2.0978  2.1894
 2012TIP3    H227672   4.612   6.434   6.565  2.1906 -1.7585  0.8196
 2013TIP3   OH227673   6.305   5.307   0.867  0.8099 -0.7752  0.2404
 2013TIP3    H127674   6.331   5.343   0.782 -0.9762  0.7579  0.2822
 2013TIP3    H227675   6.385   5.266   0.900  1.9788 -0.0426 -1.4782
 2014TIP3   OH227676   3.162   0.883   0.718  0.0867 -0.0312  0.8542
 2014TIP3    H127677   3.089   0.919   0.667 -0.9227 -2.6307  0.2809
 2014TIP3    H227678   3.143   0.909   0.808 -0.2177  1.3388  0.4271
 2015TIP3   OH227679   1.537   6.651   7.462 -0.2804 -0.3789  0.2005
 2015TIP3    H127680   1.625   6.663   7.498  0.5377  0.5657 -1.9373
 2015TIP3    H227681   1.481   6.706   7.516  0.6084 -0.2105  0.9724
 2016TIP3   OH227682   0.460   0.443   7.377  0.4246  0.2230  0.0143
 2016TIP3    H127683   0.365   0.439   7.387  0.4546 -0.7321  0.0350
 2016TIP3    H227684   0.481   0.536   7.384 -0.5442  0.4817 -0.3461
 2017TIP3   OH227685   6.559   1.921   2.255 -0.2477  0.1391  0.6212
 2017TIP3    H127686   6.592   1.835   2.282 -0.0600  0.6255  2.0220
 2017TIP3    H227687   6.464   1.912   2.257 -0.2882 -0.6821 -1.5120
 2018TIP3   OH227688   5.763   2.318   7.350  0.3699  0.6912 -0.3160
 2018TIP3    H127689   5.787   2.243   7.295  0.2291  0.7314 -0.4342
 2018TIP3    H227690   5.802   2.299   7.435  0.7762  0.7310 -0.4903
 2019TIP3   OH227691   1.951   1.298   2.163 -0.0723 -0.5715  0.4426
 2019TIP3    H127692   1.923   1.235   2.229 -1.2938  0.1611  0.6610
 2019TIP3    H227693   1.929   1.384   2.201 -2.0409 -0.1710 -1.3885
 2020TIP3   OH227694   5.667   0.771   8.094 -0.1412  0.3779 -0.2086
 2020TIP3    H127695   5.680   0.817   8.177 -0.4726  0.5022 -0.2249
 2020TIP3    H227696   5.575   0.788   8.071  0.0869  0.7789 -0.8617
 2021TIP3   OH227697   2.518   6.555   7.908  0.1542  0.1628  0.1474
 2021TIP3    H127698   2.533   6.628   7.848 -0.7096  0.3600  0.1503
 2021TIP3    H227699   2.465   6.593   7.978 -0.7359 -0.5817 -0.1079
 2022TIP3   OH227700   0.049   4.525   8.262  0.4322  1.0187 -0.6138
 2022TIP3    H127701  -0.035   4.481   8.279  0.4667  1.4558  0.8006
 2022TIP3    H227702   0.114   4.455   8.268  0.2190  0.7575 -1.2739
 2023TIP3   OH227703   4.639   3.203   1.511 -0.5291  0.2756 -0.2330
 2023TIP3    H127704   4.661   3.283   1.463  2.7116  0.6303  1.5616
 2023TIP3    H227705   4.699   3.137   1.477 -0.9777 -0.5358  0.5031
 2024TIP3   OH227706   6.602   6.623   1.868  0.0205  0.1862 -0.2932
 2024TIP3    H127707   6.574   6.596   1.781  0.9311  1.0020 -0.8554
 2024TIP3    H227708   6.616   6.717   1.861 -1.4690  0.5693  1.1728
 2025TIP3   OH227709   0.177   0.287   0.417  0.3929 -0.3113 -0.1919
 2025TIP3    H127710   0.211   0.224   0.481 -3.2683  0.1416  2.5374
 2025TIP3    H227711   0.228   0.367   0.432  2.6109 -1.4788 -1.1351
 2026TIP3   OH227712   1.530   0.149   2.885  0.2107  0.5157  0.1801
 2026TIP3    H127713   1.613   0.178   2.922 -0.3536  0.4058  1.5946
 2026TIP3    H227714   1.464   0.176   2.949 -0.8118  0.2822 -0.7353
 2027TIP3   OH227715   2.940   1.093   8.126 -0.3126  0.1982  0.2081
 2027TIP3    H127716   2.937   1.126   8.036 -0.4225 -0.3070  0.0229
 2027TIP3    H227717   2.848   1.085   8.152 -0.2905  1.7767  0.9121
 2028TIP3   OH227718   6.030   6.823   7.350  0.1548 -0.5213  0.2999
 2028TIP3    H127719   5.989   6.829   7.436  1.0912  1.8785  0.6496
 2028TIP3    H227720   6.022   6.910   7.313  2.8759 -0.5140 -0.5465
 2029TIP3   OH227721   3.264   4.531   8.389  0.5020  0.5480  0.9195
 2029TIP3    H127722   3.274   4.555   8.481  0.1301 -0.5359  1.2594
 2029TIP3    H227723   3.276   4.436   8.388 -1.6548  0.2241  0.2057
 2030TIP3   OH227724   6.570   5.525   8.366  0.3765 -0.1935  0.1659
 2030TIP3    H127725   6.482   5.494   8.386 -0.6118  1.3650 -1.4637
 2030TIP3    H227726   6.615   5.448   8.332 -0.4560 -0.9191  0.6491
 2031TIP3   OH227727   4.898   2.317   6.795  0.2322 -0.2048  0.1148
 2031TIP3    H127728   4.826   2.306   6.731 -0.0389  1.6413  0.0592
 2031TIP3    H227729   4.892   2.408   6.822  2.4169 -0.0738  0.3160
 2032TIP3   OH227730   6.114   3.428   8.210 -0.1031  0.3063 -0.4272
 2032TIP3    H127731   6.191   3.400   8.260  0.3176 -1.6621 -2.0392
 2032TIP3    H227732   6.046   3.441   8.276  1.3207  1.1417  0.9491
 2033TIP3   OH227733   1.072   2.669   8.059 -0.0174 -0.1932  0.0618
 2033TIP3    H127734   1.077   2.653   8.153 -1.8686 -0.0920  0.2102
 2033TIP3    H227735   1.057   2.582   8.021  1.3257 -0.3207 -0.2183
 2034TIP3   OH227736   5.017   2.799   8.505  0.4186  0.1543 -0.5141
 2034TIP3    H127737   5.023   2.749   8.586 -1.2211  1.3908  0.4190
 2034TIP3    H227738   4.925   2.824   8.499  0.8983  1.7858 -1.7163
 2035TIP3   OH227739   0.771   1.386   1.168  0.2509  0.3375 -0.3481
 2035TIP3    H127740   0.794   1.478   1.181  1.1418  0.0129  0.4828
 2035TIP3    H227741   0.701   1.370   1.231 -0.5875  0.6840 -1.1684
 2036TIP3   OH227742   4.019   2.643   1.601  0.4434  0.2743 -0.7196
 2036TIP3    H127743   3.930   2.680   1.603  0.1156 -0.3914 -1.8815
 2036TIP3    H227744   4.076   2.718   1.587  0.0830  0.7219  0.1300
 2037TIP3   OH227745   0.951   5.102   1.115 -0.2869 -0.5297  0.2719
 2037TIP3    H127746   0.957   5.025   1.059 -1.3839 -1.0166  0.8017
 2037TIP3    H227747   0.921   5.069   1.200  0.3904  0.3269  0.8669
 2038TIP3   OH227748   3.463   5.121   7.463  0.1115 -0.5718  0.0546
 2038TIP3    H127749   3.482   5.135   7.370  1.0888  0.0774  0.3402
 2038TIP3    H227750   3.420   5.035   7.466  1.9594 -1.5869 -0.7664
 2039TIP3   OH227751   2.228   1.121   8.404  0.2753  0.2984 -0.1726
 2039TIP3    H127752   2.284   1.071   8.463 -0.5596 -0.2757  0.1551
 2039TIP3    H227753   2.279   1.199   8.383  1.7573 -0.8100 -0.9406
 2040TIP3   OH227754   5.263   4.328   8.761 -0.0812  0.1641  0.0769
 2040TIP3    H127755   5.319   4.251   8.756 -0.9028 -0.4769  0.5651
 2040TIP3    H227756   5.324   4.402   8.750  0.7633 -0.5277 -0.0325
 2041TIP3   OH227757   3.834   6.137   8.725  0.5504  0.2972  0.2557
 2041TIP3    H127758   3.752   6.177   8.755  0.3316  0.4976 -0.5782
 2041TIP3    H227759   3.816   6.043   8.725 -0.5754  0.4250 -2.3075
 2042TIP3   OH227760   3.558   0.085   7.527 -0.2885  0.9992 -0.2134
 2042TIP3    H127761   3.590   0.166   7.566  0.4223  1.2825 -1.3299
 2042TIP3    H227762   3.463   0.093   7.530 -0.3032  0.6449  2.1526
 2043TIP3   OH227763   5.071   5.187   1.147 -0.0846  0.3977 -0.4404
 2043TIP3    H127764   5.100   5.277   1.135 -1.7473  0.6761 -3.1101
 2043TIP3    H227765   4.980   5.187   1.117 -0.2536 -2.0952 -0.1335
 2044TIP3   OH227766   3.478   5.258   1.257  0.1862  0.1745  0.2287
 2044TIP3    H127767   3.464   5.350   1.282  0.6016  0.1881  0.4113
 2044TIP3    H227768   3.500   5.262   1.164 -2.3724  0.0421 -0.4565
 2045TIP3   OH227769   4.496   6.312   7.297  0.4964 -0.2950  0.1701
 2045TIP3    H127770   4.457   6.352   7.375  0.1949  0.1820 -0.2192
 2045TIP3    H227771   4.567   6.371   7.272  1.6664 -1.2989  1.0324
 2046TIP3   OH227772   6.420   5.240   6.675  0.1095 -0.0783 -0.0596
 2046TIP3    H127773   6.398   5.264   6.585  2.6058  0.8587 -0.4970
 2046TIP3    H227774   6.441   5.146   6.670  0.0621 -0.0691 -0.4256
 2047TIP3   OH227775   5.704   2.779   1.376  0.7075 -0.2313  0.1724
 2047TIP3    H127776   5.723   2.873   1.369  0.1956 -0.0694  0.8299
 2047TIP3    H227777   5.618   2.775   1.418  0.6894 -0.9959  0.0784
 2048TIP3   OH227778   1.065   1.107   1.426  0.3124  0.7142  0.7885
 2048TIP3    H127779   1.129   1.036   1.421 -0.5960 -0.1149  0.7153
 2048TIP3    H227780   1.063   1.145   1.338 -0.2894 -0.1560  0.4146
 2049TIP3   OH227781   5.459   2.340   8.181 -0.1479 -0.6700  0.4766
 2049TIP3    H127782   5.456   2.310   8.090 -2.8812 -0.5738  0.4553
 2049TIP3    H227783   5.537   2.298   8.217 -0.6296 -3.1427 -1.0943
 2050TIP3   OH227784   2.295   1.723   0.911 -0.1995  0.6342 -0.3073
 2050TIP3    H127785   2.338   1.683   0.986 -2.0249  1.8032  1.4741
 2050TIP3    H227786   2.206   1.688   0.912 -0.6099  1.5851 -1.2001
 2051TIP3   OH227787   4.383   2.829   2.007 -0.1494  0.5407 -0.2571
 2051TIP3    H127788   4.401   2.912   2.053  2.4726  0.2034 -0.4793
 2051TIP3    H227789   4.439   2.765   2.052  0.9000 -0.2489 -2.5288
 2052TIP3   OH227790   6.101   6.650   6.639 -0.1244  0.1149  0.2022
 2052TIP3    H127791   6.097   6.692   6.553 -3.4140  0.2539  0.2970
 2052TIP3    H227792   6.090   6.557   6.621 -1.3754  0.1969  0.4477
 2053TIP3   OH227793   3.294   4.272   6.780  0.1147 -0.1286  0.0609
 2053TIP3    H127794   3.229   4.206   6.759 -0.9078  0.3414  1.5541
 2053TIP3    H227795   3.267   4.350   6.731  1.0528 -0.6340 -1.3275
 2054TIP3   OH227796   6.718   1.708   7.439 -0.5778 -0.4180  0.0934
 2054TIP3    H127797   6.679   1.656   7.510 -0.9787  0.0589  0.2227
 2054TIP3    H227798   6.810   1.719   7.466 -0.8830  0.3267  0.8713
 2055TIP3   OH227799   4.698   6.791   2.486  0.7585 -0.2814 -0.1297
 2055TIP3    H127800   4.672   6.750   2.404 -2.1516  1.2171 -0.0853
 2055TIP3    H227801   4.721   6.881   2.462 -0.5219  0.2947  0.6917
 2056TIP3   OH227802   1.416   2.462   7.644 -0.1205 -0.6121 -0.2722
 2056TIP3    H127803   1.492   2.517   7.624 -0.5709 -0.7915 -2.8932
 2056TIP3    H227804   1.341   2.519   7.635 -0.3888 -0.6171  1.5791
 2057TIP3   OH227805   1.282   5.501   7.320  0.0318  0.2644 -0.0762
 2057TIP3    H127806   1.249   5.582   7.358 -0.5187  0.0160 -0.0072
 2057TIP3    H227807   1.204   5.446   7.311  0.1763  0.2446 -1.3786
 2058TIP3   OH227808   4.824   6.460   6.458  0.2817  0.5140  0.8106
 2058TIP3    H127809   4.875   6.396   6.409  1.8721  2.5285 -0.3129
 2058TIP3    H227810   4.776   6.508   6.391 -2.6221 -0.7948  1.7799
 2059TIP3   OH227811   6.373   5.068   7.002 -0.3817 -0.1758 -0.2991
 2059TIP3    H127812   6.435   5.057   7.074 -1.8621 -2.5875  0.6809
 2059TIP3    H227813   6.398   5.001   6.938 -2.3972 -1.7769  0.4884
 2060TIP3   OH227814   6.426   1.140   8.495  0.2342 -0.0620  0.3404
 2060TIP3    H127815   6.352   1.083   8.475  0.8008 -0.4199 -0.9264
 2060TIP3    H227816   6.489   1.083   8.540  0.2653 -0.1021  0.2471
 2061TIP3   OH227817   0.889   3.786   8.026  0.1361 -0.1747 -0.2067
 2061TIP3    H127818   0.862   3.710   7.975  1.7854 -0.0545 -1.3328
 2061TIP3    H227819   0.913   3.751   8.112 -0.4171 -0.7040 -0.2618
 2062TIP3   OH227820   6.292   6.116   6.681 -0.0110 -0.2551  0.6739
 2062TIP3    H127821   6.281   6.023   6.703 -0.1056 -0.5575 -0.5847
 2062TIP3    H227822   6.213   6.139   6.632  0.4778  0.2024  0.0777
 2063TIP3   OH227823   4.301   5.477   6.418  0.1479 -0.2800  0.1367
 2063TIP3    H127824   4.299   5.439   6.506 -1.5277 -1.7258 -0.4528
 2063TIP3    H227825   4.275   5.405   6.360 -0.6596  1.1178 -1.3346
 2064TIP3   OH227826   2.514   0.004   1.592  0.4099 -0.4656  0.0817
 2064TIP3    H127827   2.498   0.090   1.631 -1.0113 -1.0753  0.9382
 2064TIP3    H227828   2.448  -0.004   1.523 -0.9016 -1.6796  1.4034
 2065TIP3   OH227829   2.057   2.884   0.856 -0.3522 -0.3967  0.4405
 2065TIP3    H127830   2.123   2.906   0.791 -0.0482  0.4021  1.0142
 2065TIP3    H227831   2.005   2.964   0.867 -1.8177 -1.1680 -0.4421
 2066TIP3   OH227832   1.994   1.095   8.190 -0.1296 -0.1725  0.1968
 2066TIP3    H127833   1.937   1.158   8.233  0.6754  1.5171 -1.0824
 2066TIP3    H227834   2.081   1.114   8.226  0.7468  1.9583 -2.6889
 2067TIP3   OH227835   5.289   5.846   1.626  0.0939  0.1773 -0.2743
 2067TIP3    H127836   5.345   5.770   1.610 -1.0827 -0.5579 -1.1053
 2067TIP3    H227837   5.247   5.827   1.710 -2.2656 -1.5160 -1.6901
 2068TIP3   OH227838   2.135   2.429   7.609 -0.0764 -0.1492  0.3096
 2068TIP3    H127839   2.044   2.399   7.603 -0.1752 -0.2030  1.8035
 2068TIP3    H227840   2.129   2.516   7.649  0.5610 -0.3064  0.7525
 2069TIP3   OH227841   2.028   1.469   8.322 -0.1471 -0.5161  0.1197
 2069TIP3    H127842   2.108   1.462   8.375  0.0705 -0.5525 -0.2117
 2069TIP3    H227843   1.994   1.557   8.341  0.2951 -0.2757 -0.1943
 2070TIP3   OH227844   0.200   5.259   2.410 -0.5833 -0.1893  0.1398
 2070TIP3    H127845   0.254   5.299   2.478  0.2714 -0.4061 -0.3940
 2070TIP3    H227846   0.156   5.333   2.368 -0.7394 -0.0120  0.6105
 2071TIP3   OH227847   0.248   3.049   0.733 -0.1924 -0.0682 -0.2193
 2071TIP3    H127848   0.202   3.043   0.816 -1.3248 -0.0904 -0.8301
 2071TIP3    H227849   0.248   3.143   0.713  0.7791  0.0279  0.1741
 2072TIP3   OH227850   6.818   6.156   2.303 -0.3754 -0.3390  1.0347
 2072TIP3    H127851   6.799   6.066   2.278 -0.3881  0.0745 -0.5226
 2072TIP3    H227852   6.733   6.193   2.327 -0.9449  0.2076 -1.5905
 2073TIP3   OH227853   2.251   3.974   0.767 -0.7364  0.4420  0.4375
 2073TIP3    H127854   2.330   3.931   0.733  0.0945  2.8921 -0.9802
 2073TIP3    H227855   2.181   3.943   0.710 -0.1267  1.0644 -0.6811
 2074TIP3   OH227856   4.440   1.682   1.180 -0.6571  0.4018  0.4337
 2074TIP3    H127857   4.480   1.597   1.163  0.0997  0.6831  0.7284
 2074TIP3    H227858   4.392   1.671   1.262  0.7661  0.6623  1.3426
 2075TIP3   OH227859   4.453   2.062   7.646  0.3077 -0.3297  0.8248
 2075TIP3    H127860   4.405   2.032   7.724  1.6555 -1.8639  1.1180
 2075TIP3    H227861   4.537   2.016   7.650  1.3315  1.3303 -0.3340
 2076TIP3   OH227862   5.215   4.555   6.900 -0.1375  0.3091 -0.4045
 2076TIP3    H127863   5.119   4.560   6.900 -0.3028 -1.1035  1.7682
 2076TIP3    H227864   5.236   4.497   6.827 -1.1089 -0.6949  0.0808
 2077TIP3   OH227865   6.003   0.805   8.290  0.3226  0.1221 -0.3239
 2077TIP3    H127866   5.923   0.856   8.298 -0.7280 -1.1073 -2.1586
 2077TIP3    H227867   5.974   0.714   8.287  1.9238 -0.4605  0.3327
 2078TIP3   OH227868   0.654   5.772   7.757  0.4370 -1.0345  0.7830
 2078TIP3    H127869   0.731   5.735   7.714  1.0908  1.3303 -0.2962
 2078TIP3    H227870   0.584   5.760   7.694  0.3262 -1.6286  1.0169
 2079TIP3   OH227871   5.344   6.230   0.864  0.5475  0.4202  0.1091
 2079TIP3    H127872   5.341   6.305   0.805  1.6108  0.3012 -0.1311
 2079TIP3    H227873   5.430   6.191   0.847  0.0863 -0.7392  0.3644
 2080TIP3   OH227874   0.266   4.845   8.066  0.1106  0.4432  0.7788
 2080TIP3    H127875   0.280   4.841   8.161 -0.6655 -1.4203  0.8513
 2080TIP3    H227876   0.189   4.900   8.055 -2.5898 -2.7817  1.6706
 2081TIP3   OH227877   5.072   4.557   8.588  0.3212  0.1279  0.2838
 2081TIP3    H127878   5.063   4.473   8.544  0.0934  0.1539  0.2791
 2081TIP3    H227879   4.982   4.585   8.605  0.2522  1.6079 -2.0556
 2082TIP3   OH227880   2.162   6.047   7.429  0.4542 -0.3161  0.2953
 2082TIP3    H127881   2.085   6.070   7.376  0.7691 -0.8940 -0.4241
 2082TIP3    H227882   2.185   6.129   7.473 -1.0054 -0.2942  1.1159
 2083TIP3   OH227883   4.206   2.063   0.487 -0.4043 -0.4744  0.1603
 2083TIP3    H127884   4.191   1.992   0.425 -1.1075 -1.7429  1.7070
 2083TIP3    H227885   4.284   2.037   0.536 -0.6533 -0.1789  0.7297
 2084TIP3   OH227886   4.614   5.435   0.539  0.1089 -0.5846 -0.6109
 2084TIP3    H127887   4.543   5.476   0.490 -0.6423 -0.7343  0.3287
 2084TIP3    H227888   4.653   5.372   0.479 -0.0531  0.0499 -1.3868
 2085TIP3   OH227889   5.477   4.546   0.045  0.1473  0.4067  0.2529
 2085TIP3    H127890   5.545   4.599   0.086 -0.0877 -0.2802  1.5941
 2085TIP3    H227891   5.403   4.605   0.034  0.7576  1.0166 -0.7063
 2086TIP3   OH227892   4.916   4.193   7.239 -0.1576  0.4499 -0.1102
 2086TIP3    H127893   4.941   4.276   7.198  1.1031  0.3552  0.4251
 2086TIP3    H227894   4.925   4.128   7.168 -1.3165  0.7777 -0.5757
 2087TIP3   OH227895   3.854   3.669   8.046  0.3791  0.1181  0.6145
 2087TIP3    H127896   3.894   3.752   8.021  0.7164  0.2653  1.5858
 2087TIP3    H227897   3.894   3.647   8.130  1.7151 -1.9878 -0.4716
 2088TIP3   OH227898   4.018   4.920   8.376  0.0285  0.5272 -0.5887
 2088TIP3    H127899   4.065   4.894   8.455 -0.6890 -0.5319 -0.4857
 2088TIP3    H227900   3.972   5.000   8.401 -1.0606 -0.3787  0.4503
 2089TIP3   OH227901   6.606   4.416   7.709 -0.2703 -0.0521  0.2715
 2089TIP3    H127902   6.581   4.396   7.799  1.4753 -1.3571  0.5093
 2089TIP3    H227903   6.690   4.463   7.717 -0.4579  0.4769 -0.6586
 2090TIP3   OH227904   4.627   2.045   7.241  0.1513  0.5862 -0.2082
 2090TIP3    H127905   4.540   2.046   7.280  0.1872 -2.3662  0.1570
 2090TIP3    H227906   4.650   1.952   7.235  2.6886  1.2081 -1.6351
 2091TIP3   OH227907   4.074   3.378   0.244 -0.2815 -1.1374 -0.3744
 2091TIP3    H127908   4.051   3.312   0.179  2.3121 -0.9852 -1.5968
 2091TIP3    H227909   4.134   3.437   0.198 -1.0520  1.0194  1.2113
 2092TIP3   OH227910   3.482   6.153   8.042 -0.4476 -0.4430 -0.6371
 2092TIP3    H127911   3.560   6.098   8.053 -0.2764  0.1589  1.9894
 2092TIP3    H227912   3.452   6.169   8.132 -1.3170  2.5685 -1.3689
 2093TIP3   OH227913   5.362   3.735   8.601 -0.0470  0.8365 -0.8176
 2093TIP3    H127914   5.308   3.712   8.525 -0.2313  0.4344 -0.5718
 2093TIP3    H227915   5.395   3.651   8.632  0.4903  1.0550 -0.7918
 2094TIP3   OH227916   3.264   6.346   7.958  0.3802  0.4824  0.1215
 2094TIP3    H127917   3.320   6.424   7.954  0.5910  0.3188 -0.1674
 2094TIP3    H227918   3.325   6.274   7.977  0.0791  0.5020  1.2208
 2095TIP3   OH227919   0.640   2.965   8.454 -0.2454 -0.0044  0.1443
 2095TIP3    H127920   0.692   2.896   8.412  0.1183  0.6650 -0.5357
 2095TIP3    H227921   0.622   3.027   8.384 -0.7305  0.5011  0.7067
 2096TIP3   OH227922   5.402   4.508   1.021  0.4462  0.3407  0.1973
 2096TIP3    H127923   5.459   4.579   0.992 -0.0848  1.0280  0.7920
 2096TIP3    H227924   5.447   4.428   0.995  1.1074  0.8943 -0.3877
 2097TIP3   OH227925   1.214   1.543   8.774 -0.0075 -0.5095  0.2473
 2097TIP3    H127926   1.215   1.635   8.750  1.3847 -0.6634 -0.4021
 2097TIP3    H227927   1.225   1.542   8.869  1.7424  0.0018  0.0932
 2098TIP3   OH227928   4.855   6.208   1.604 -0.4771  0.1421  0.7634
 2098TIP3    H127929   4.805   6.161   1.671  2.3327 -0.5114  2.6167
 2098TIP3    H227930   4.859   6.298   1.636 -1.5265  0.5187 -0.0967
 2099TIP3   OH227931   1.904   3.161   7.115 -0.3908  0.2023  0.3129
 2099TIP3    H127932   1.826   3.211   7.093 -1.6262 -1.2127  1.2985
 2099TIP3    H227933   1.888   3.128   7.203 -0.9283 -4.0477 -1.1191
 2100TIP3   OH227934   5.753   6.821   1.465  0.2195  0.1263 -0.2119
 2100TIP3    H127935   5.815   6.789   1.399 -2.1857  0.2198 -2.7043
 2100TIP3    H227936   5.672   6.774   1.446 -0.5012 -0.1690  3.0667
 2101TIP3   OH227937   0.845   4.875   6.723  1.0097  0.1091  0.2661
 2101TIP3    H127938   0.750   4.869   6.717  0.7794  2.3205  0.9079
 2101TIP3    H227939   0.874   4.784   6.737 -1.1011 -0.4711  1.2537
 2102TIP3   OH227940   0.078   1.483   1.900 -0.1316  1.2584 -0.3371
 2102TIP3    H127941   0.144   1.416   1.883 -0.9865  0.5207 -0.8536
 2102TIP3    H227942   0.061   1.522   1.815 -2.1230 -0.2641 -0.7113
 2103TIP3   OH227943   6.520   0.027   2.449 -0.2657 -0.1091  0.3669
 2103TIP3    H127944   6.461   0.057   2.518 -0.0671  0.8209  0.1452
 2103TIP3    H227945   6.602   0.074   2.466 -0.2211  0.1324 -0.5064
 2104TIP3   OH227946   2.435   0.939   2.144  0.0120  0.4807 -0.4707
 2104TIP3    H127947   2.358   0.990   2.167  0.0214  0.3754 -0.1998
 2104TIP3    H227948   2.475   0.916   2.228 -1.1585 -1.7699 -0.4611
 2105TIP3   OH227949   6.460   1.219   7.951 -0.7794  0.2740  0.2347
 2105TIP3    H127950   6.475   1.161   8.025  0.8736  0.4556  0.0831
 2105TIP3    H227951   6.382   1.269   7.975  0.1357  0.8589  2.2023
 2106TIP3   OH227952   1.232   1.260   0.322  0.3220  0.0908  0.1248
 2106TIP3    H127953   1.293   1.190   0.347  0.6403  0.6924  1.1171
 2106TIP3    H227954   1.183   1.278   0.402 -2.0684 -1.2146 -0.9498
 2107TIP3   OH227955   2.506   6.457   1.846  0.6264  0.5056  0.4454
 2107TIP3    H127956   2.526   6.549   1.863  0.0569  0.7401 -0.1396
 2107TIP3    H227957   2.433   6.459   1.784  0.4888 -0.3405  0.5734
 2108TIP3   OH227958   3.952   0.005   1.827 -0.0023 -0.7079 -0.0469
 2108TIP3    H127959   3.941  -0.090   1.830 -0.4279 -0.6460  0.3850
 2108TIP3    H227960   3.937   0.035   1.916 -1.6449 -0.0519 -0.5042
 2109TIP3   OH227961   1.880   4.015   0.337  0.0208 -0.1047  0.1805
 2109TIP3    H127962   1.806   4.071   0.315  1.2399  0.5930 -2.5022
 2109TIP3    H227963   1.858   3.980   0.424 -3.3071  0.2386 -0.3896
 2110TIP3   OH227964   6.485   2.047   6.747 -0.3640  0.0082  0.6796
 2110TIP3    H127965   6.404   2.098   6.756  0.1413  0.5826  2.3775
 2110TIP3    H227966   6.459   1.957   6.769 -0.9716 -0.2654 -0.9900
 2111TIP3   OH227967   2.531   3.728   7.154  0.2798 -0.2176  0.3092
 2111TIP3    H127968   2.574   3.813   7.143  3.3768 -1.7196 -0.3389
 2111TIP3    H227969   2.573   3.672   7.089 -1.3860 -2.3714  0.9853
 2112TIP3   OH227970   6.302   2.793   8.703 -0.3889  0.7793 -0.0200
 2112TIP3    H127971   6.291   2.867   8.764  1.5808 -0.7071  2.3630
 2112TIP3    H227972   6.278   2.716   8.755  0.6580 -0.5089 -1.3713
 2113TIP3   OH227973   5.454   3.503   0.665  0.7657 -0.4145 -0.0901
 2113TIP3    H127974   5.380   3.561   0.680  1.1783 -0.0096  0.4459
 2113TIP3    H227975   5.507   3.510   0.745  1.3071 -0.7997 -0.4029
 2114TIP3   OH227976   4.463   4.670   7.163  0.4874  0.0861 -0.5496
 2114TIP3    H127977   4.401   4.700   7.097  0.6335  0.6528 -0.4346
 2114TIP3    H227978   4.422   4.593   7.201 -0.2534  0.5798 -0.3244
 2115TIP3   OH227979   3.564   4.248   1.037  0.2095  0.1089  0.4776
 2115TIP3    H127980   3.532   4.255   0.947  0.8625 -0.7384  0.1716
 2115TIP3    H227981   3.492   4.282   1.090 -0.3398  0.2451 -0.3341
 2116TIP3   OH227982   4.941   1.658   8.285  0.3402 -0.5523 -0.0456
 2116TIP3    H127983   4.901   1.744   8.270 -0.9260 -1.1462 -0.2345
 2116TIP3    H227984   4.968   1.628   8.199  0.2348 -0.6045 -0.0598
 2117TIP3   OH227985   0.680   2.784   2.184  0.1888  0.3721  0.2943
 2117TIP3    H127986   0.636   2.729   2.248 -0.7333  0.2701 -0.4032
 2117TIP3    H227987   0.755   2.733   2.155 -0.6647 -0.5469 -0.3574
 2118TIP3   OH227988   0.320   3.618   0.532  0.2208 -0.2590  0.5300
 2118TIP3    H127989   0.373   3.541   0.513 -0.0477 -1.0067  2.5753
 2118TIP3    H227990   0.231   3.594   0.507  0.1081 -0.6788  1.3368
 2119TIP3   OH227991   3.526   5.875   8.468  0.0470 -0.1120  0.5075
 2119TIP3    H127992   3.604   5.884   8.413 -0.6804 -0.7415 -0.6732
 2119TIP3    H227993   3.541   5.935   8.541  1.5658 -0.1119  0.2311
 2120TIP3   OH227994   4.617   6.517   2.194  0.1649  0.1114  0.1550
 2120TIP3    H127995   4.561   6.489   2.121  1.5957 -0.4682 -0.7644
 2120TIP3    H227996   4.617   6.612   2.190 -0.2380  0.0945 -0.2397
 2121TIP3   OH227997   5.089   6.278   1.963  0.3586 -0.0339  0.3419
 2121TIP3    H127998   5.030   6.350   1.939  0.3463 -0.3599 -0.6538
 2121TIP3    H227999   5.066   6.258   2.054 -0.6688  0.2315  0.1591
 2122TIP3   OH228000   0.897   4.263   7.806 -0.2277 -0.3618  0.2028
 2122TIP3    H128001   0.807   4.277   7.776 -1.0410 -0.6537  2.3298
 2122TIP3    H228002   0.908   4.168   7.804 -0.8508 -0.5181  2.1739
 2123TIP3   OH228003   1.926   1.298   0.227  0.2585 -0.3185 -0.0887
 2123TIP3    H128004   1.888   1.385   0.231  0.1400 -0.4051  1.0229
 2123TIP3    H228005   1.884   1.257   0.152 -0.5280  0.1995  0.0545
 2124TIP3   OH228006   2.973   5.279   1.557 -0.7398  0.7234 -0.3157
 2124TIP3    H128007   2.971   5.313   1.647  0.6131 -0.1309  0.0752
 2124TIP3    H228008   2.894   5.314   1.516 -1.3566  1.1791  1.1901
 2125TIP3   OH228009   2.761   3.250   7.299  0.1248 -0.0268 -0.4104
 2125TIP3    H128010   2.672   3.251   7.334  0.4369  1.4163  0.3895
 2125TIP3    H228011   2.817   3.271   7.374  1.1368 -0.6427 -0.9642
 2126TIP3   OH228012   1.741   3.702   1.680  1.3314 -0.4447  0.3876
 2126TIP3    H128013   1.654   3.730   1.650  1.0932 -2.4111 -0.9224
 2126TIP3    H228014   1.798   3.776   1.660 -0.0457  0.9902  1.4988
 2127TIP3   OH228015   3.609   0.058   1.126  0.4339 -0.2624  0.1258
 2127TIP3    H128016   3.570   0.005   1.195 -0.5170 -0.5345 -0.6122
 2127TIP3    H228017   3.541   0.120   1.101  1.1208  0.5188  0.1323
 2128TIP3   OH228018   3.351   4.917   0.205 -0.1224 -0.1269 -0.3833
 2128TIP3    H128019   3.347   4.922   0.109 -0.8350  2.1027 -0.3030
 2128TIP3    H228020   3.264   4.945   0.233  0.8760  1.9482  0.9164
 2129TIP3   OH228021   0.138   3.389   1.181  0.1971 -0.4388 -0.0219
 2129TIP3    H128022   0.198   3.459   1.158  0.4676 -0.0218  1.7564
 2129TIP3    H228023   0.077   3.429   1.242  1.1722 -1.9914  2.1164
 2130TIP3   OH228024   2.473   2.096   6.871 -0.9467  0.3563 -0.3420
 2130TIP3    H128025   2.449   2.098   6.778 -1.2229 -0.6787 -0.2955
 2130TIP3    H228026   2.553   2.043   6.874 -1.8591 -1.0154  0.2118
 2131TIP3   OH228027   0.549   4.399   8.631 -0.5065  0.2935  0.2449
 2131TIP3    H128028   0.628   4.354   8.661  0.4731  1.5515 -0.3556
 2131TIP3    H228029   0.547   4.383   8.537 -3.5059 -3.5534  0.7222
 2132TIP3   OH228030   6.254   5.685   7.405 -0.0540 -0.3424  0.1901
 2132TIP3    H128031   6.252   5.657   7.497  1.3768 -1.1002  0.0155
 2132TIP3    H228032   6.331   5.642   7.368 -0.1488  0.5843 -1.1705
 2133TIP3   OH228033   1.165   3.607   8.034  0.6189 -0.2787  0.1545
 2133TIP3    H128034   1.109   3.641   7.965 -1.4545 -1.0250  1.3739
 2133TIP3    H228035   1.177   3.681   8.094 -0.7940 -0.6019  0.8970
 2134TIP3   OH228036   0.980   3.919   8.483 -0.3948  0.0311  0.0014
 2134TIP3    H128037   0.912   3.986   8.486 -0.2526  0.1458  1.1293
 2134TIP3    H228038   0.947   3.854   8.422  0.2819  1.9821 -2.6070
 2135TIP3   OH228039   2.417   0.671   0.838 -0.4024 -0.5374  0.1460
 2135TIP3    H128040   2.375   0.750   0.805  1.8610  0.1974 -1.1779
 2135TIP3    H228041   2.467   0.699   0.914  1.6261 -0.3055 -1.2127
 2136TIP3   OH228042   6.616   3.439   8.504  0.2458  0.0419 -0.0221
 2136TIP3    H128043   6.679   3.461   8.573 -0.3021  1.3885  0.0790
 2136TIP3    H228044   6.661   3.464   8.423  0.5740 -0.7864 -0.1039
 2137TIP3   OH228045   4.545   0.269   0.551  0.4276  0.2272  0.4781
 2137TIP3    H128046   4.514   0.189   0.593  0.1995 -0.2291 -0.5516
 2137TIP3    H228047   4.500   0.272   0.467  2.6183 -0.0954 -0.7856
 2138TIP3   OH228048   3.847   5.646   0.823  0.4110 -0.2614  0.2546
 2138TIP3    H128049   3.787   5.667   0.751  0.6048 -2.1986 -0.5550
 2138TIP3    H228050   3.797   5.586   0.878  0.5338  0.6152  1.3569
 2139TIP3   OH228051   0.233   6.403   0.178  0.1389 -0.8819 -0.2611
 2139TIP3    H128052   0.146   6.385   0.143 -0.3719  1.5172 -0.4531
 2139TIP3    H228053   0.284   6.429   0.101  0.4974 -0.5524  0.0828
 2140TIP3   OH228054   0.904   0.985   7.275  0.5464  0.1256  0.0171
 2140TIP3    H128055   0.846   1.049   7.316  2.3151  2.6186 -1.1186
 2140TIP3    H228056   0.976   0.975   7.338 -0.1146 -1.4765  0.5666
 2141TIP3   OH228057   3.387   4.641   0.300  0.2579  0.3320 -0.2896
 2141TIP3    H128058   3.397   4.725   0.257  1.8757  0.3225  0.0275
 2141TIP3    H228059   3.310   4.602   0.258  0.2849  1.3877 -1.3667
 2142TIP3   OH228060   6.644   4.343   2.404  0.7940  0.0774 -0.5018
 2142TIP3    H128061   6.610   4.429   2.378  0.6372  0.2487  0.2454
 2142TIP3    H228062   6.567   4.287   2.406  0.3046  0.7362  2.3118
 2143TIP3   OH228063   5.226   0.435   6.337 -0.2195  0.3784 -0.3316
 2143TIP3    H128064   5.318   0.412   6.335  0.1068  1.6241 -1.8378
 2143TIP3    H228065   5.179   0.351   6.331  0.8440 -0.1502 -1.6649
 2144TIP3   OH228066   3.903   1.745   7.876  0.4629  0.0641  0.2494
 2144TIP3    H128067   3.909   1.654   7.846  2.7812 -0.0617  0.8829
 2144TIP3    H228068   3.841   1.786   7.816  1.9503 -1.1316 -2.2790
 2145TIP3   OH228069   0.114   2.844   7.977  0.2011  0.9853  0.4126
 2145TIP3    H128070   0.208   2.829   7.965 -0.0381  0.9211 -1.8270
 2145TIP3    H228071   0.076   2.756   7.972 -0.0616  1.1034  0.3311
 2146TIP3   OH228072   3.181   2.191   6.744  0.2314  0.4562  0.2494
 2146TIP3    H128073   3.151   2.207   6.833 -0.0611  0.1481  0.2061
 2146TIP3    H228074   3.170   2.097   6.731 -0.7239  0.6538 -0.4760
 2147TIP3   OH228075   2.296   3.996   8.029 -0.5773 -0.0109  0.7679
 2147TIP3    H128076   2.244   3.943   7.968  0.6122  1.7852 -2.0426
 2147TIP3    H228077   2.261   4.084   8.020  0.8437  0.6351  1.2768
 2148TIP3   OH228078   5.291   5.023   7.700  0.4618 -0.0158  0.3441
 2148TIP3    H128079   5.323   5.047   7.787 -1.0240  0.0629  0.9101
 2148TIP3    H228080   5.197   5.009   7.713  0.5814 -2.3583 -0.7440
 2149TIP3   OH228081   2.395   3.515   7.541 -0.3106  0.5553  0.0085
 2149TIP3    H128082   2.450   3.508   7.463 -0.0317  0.8737  0.1743
 2149TIP3    H228083   2.430   3.448   7.600 -0.3203  0.5260 -0.0190
 2150TIP3   OH228084   5.726   1.785   0.190 -0.4574 -0.0860  0.3662
 2150TIP3    H128085   5.790   1.814   0.254  1.6227 -0.2556 -1.5105
 2150TIP3    H228086   5.725   1.854   0.124 -1.2742 -0.6771 -0.2563
 2151TIP3   OH228087   0.598   3.111   1.569  0.2593  0.7001  0.2716
 2151TIP3    H128088   0.683   3.111   1.524 -0.0414  0.0691 -0.3193
 2151TIP3    H228089   0.616   3.076   1.656  0.0701 -2.9492 -0.9813
 2152TIP3   OH228090   4.343   6.052   0.208  0.1234  0.2636  0.4470
 2152TIP3    H128091   4.248   6.054   0.220 -0.1113 -3.0969  0.1482
 2152TIP3    H228092   4.379   6.062   0.297 -0.5173  1.2118  0.6045
 2153TIP3   OH228093   2.558   5.332   7.757 -0.8953  0.3830 -0.4331
 2153TIP3    H128094   2.525   5.250   7.722  0.1018 -0.5509  0.7296
 2153TIP3    H228095   2.653   5.324   7.752 -0.4391 -0.9351  4.5451
 2154TIP3   OH228096   3.342   6.050   0.523 -0.2661 -0.1524  0.5119
 2154TIP3    H128097   3.311   5.974   0.473  0.8134  0.3270 -0.9740
 2154TIP3    H228098   3.437   6.044   0.518 -0.1458  1.6388 -0.2544
 2155TIP3   OH228099   0.185   0.458   7.330 -1.0242  0.1663  0.5398
 2155TIP3    H128100   0.103   0.474   7.282 -1.1187 -0.2984  0.5481
 2155TIP3    H228101   0.183   0.521   7.402 -1.4677  0.0211  0.6579
 2156TIP3   OH228102   3.279   1.155   2.375 -0.0244 -0.1919 -0.4617
 2156TIP3    H128103   3.241   1.164   2.288  1.7789  1.6801 -1.1325
 2156TIP3    H228104   3.217   1.099   2.422 -2.5251  1.0167 -2.0739
 2157TIP3   OH228105   3.499   0.635   6.790  0.6885 -0.0845  0.0960
 2157TIP3    H128106   3.537   0.612   6.705  1.3306 -1.6544  0.7629
 2157TIP3    H228107   3.546   0.714   6.816  1.5459 -0.4277 -0.3514
 2158TIP3   OH228108   4.502   0.892   1.746  0.0216 -0.0962 -0.5563
 2158TIP3    H128109   4.469   0.863   1.661  3.0989  0.7751 -2.2178
 2158TIP3    H228110   4.424   0.905   1.799 -2.1063 -0.2071 -3.4160
 2159TIP3   OH228111   5.600   0.684   8.544 -0.1303  0.4901 -0.0586
 2159TIP3    H128112   5.568   0.639   8.622  0.4779  0.6113  0.2634
 2159TIP3    H228113   5.560   0.771   8.548  1.0649  1.0256  0.9187
 2160TIP3   OH228114   2.461   1.937   7.448 -0.4191  0.1726 -0.6184
 2160TIP3    H128115   2.445   2.012   7.506  0.1886 -1.0808  1.2925
 2160TIP3    H228116   2.398   1.947   7.377 -1.2571  1.7689  0.2837
 2161TIP3   OH228117   3.533   1.764   7.477 -0.6957 -0.1949 -0.0790
 2161TIP3    H128118   3.471   1.801   7.539 -0.1955 -0.1963  0.4335
 2161TIP3    H228119   3.586   1.838   7.448  0.8606 -0.5824  1.5895
 2162TIP3   OH228120   6.562   4.956   8.062  0.0988 -0.1814  0.2064
 2162TIP3    H128121   6.547   4.868   8.097 -2.1785 -0.7194 -1.7927
 2162TIP3    H228122   6.637   4.989   8.111 -0.7149 -2.1101  3.0333
 2163TIP3   OH228123   2.488   5.748   1.349  0.5259 -0.2519  0.0348
 2163TIP3    H128124   2.433   5.674   1.374 -2.1308  1.8818  0.8516
 2163TIP3    H228125   2.557   5.708   1.294 -0.4229 -3.3609  0.8942
 2164TIP3   OH228126   2.753   5.880   7.446 -0.6096  0.0505  0.2365
 2164TIP3    H128127   2.727   5.853   7.358  2.4412 -0.0075 -0.7793
 2164TIP3    H228128   2.804   5.960   7.432  0.4818 -0.3202  1.8658
 2165TIP3   OH228129   1.133   6.025   7.694 -0.3176 -0.1163 -0.0626
 2165TIP3    H128130   1.172   6.043   7.779  1.7482 -1.1623 -0.7176
 2165TIP3    H228131   1.145   5.930   7.682  0.5407  0.1895 -2.0027
 2166TIP3   OH228132   1.192   0.792   7.773 -0.1454 -0.5451  0.3002
 2166TIP3    H128133   1.112   0.743   7.792 -0.5783  0.4735  1.2012
 2166TIP3    H228134   1.164   0.858   7.709 -0.1672  0.1897  1.0629
 2167TIP3   OH228135   5.603   0.085   7.568  0.0597  0.4087  0.1475
 2167TIP3    H128136   5.667   0.035   7.619 -0.2672  1.4577  1.6714
 2167TIP3    H228137   5.647   0.103   7.485  0.8515 -0.8358  0.2727
 2168TIP3   OH228138   3.589   2.011   8.425 -0.1787  0.4025  0.1955
 2168TIP3    H128139   3.647   2.087   8.433  0.2040  0.1261  0.0662
 2168TIP3    H228140   3.598   1.965   8.509  0.0648  0.1643  0.0381
 2169TIP3   OH228141   5.828   0.462   1.008 -0.5678  0.1048 -0.5429
 2169TIP3    H128142   5.825   0.451   1.104  1.7296  0.4007 -0.3843
 2169TIP3    H228143   5.892   0.397   0.979 -0.5206  0.6816 -1.7745
 2170TIP3   OH228144   3.603   1.797   1.662  0.3546  0.0484 -0.1510
 2170TIP3    H128145   3.553   1.868   1.622  0.0102 -0.3849 -0.5021
 2170TIP3    H228146   3.683   1.838   1.694  0.2083  0.5700 -0.4579
 2171TIP3   OH228147   4.209   0.945   8.756 -0.4034 -0.1345 -0.4202
 2171TIP3    H128148   4.148   0.902   8.697  0.2796  0.1262 -1.3453
 2171TIP3    H228149   4.251   0.873   8.803  1.0030 -0.5964 -2.2267
 2172TIP3   OH228150   1.887   5.128   8.040 -0.5499  0.1052 -0.2738
 2172TIP3    H128151   1.948   5.161   8.106  0.2858  0.7859 -1.3472
 2172TIP3    H228152   1.838   5.059   8.084  0.2667  0.2758  0.9281
 2173TIP3   OH228153   5.926   4.614   8.758  0.4517  0.2757 -0.0913
 2173TIP3    H128154   6.010   4.652   8.734  2.3951 -1.2885  3.4541
 2173TIP3    H228155   5.877   4.686   8.799  0.0002  1.1763 -2.1246
 2174TIP3   OH228156   0.917   4.379   7.435 -0.2139  0.4448 -0.3349
 2174TIP3    H128157   0.952   4.434   7.364  1.2457  0.4202  0.3303
 2174TIP3    H228158   0.975   4.396   7.509  0.1193 -1.7681 -0.0171
 2175TIP3   OH228159   6.546   0.244   1.637  0.2795  0.3481  0.6347
 2175TIP3    H128160   6.556   0.178   1.705  0.4445  0.3679  0.6286
 2175TIP3    H228161   6.635   0.270   1.614  0.1979  1.0613  1.1130
 2176TIP3   OH228162   2.730   2.168   8.465  0.2390 -0.0318 -0.1509
 2176TIP3    H128163   2.732   2.196   8.373  0.3571 -0.8080 -0.3948
 2176TIP3    H228164   2.708   2.075   8.461  1.9463 -0.5074  0.4996
 2177TIP3   OH228165   3.865   0.435   6.374 -0.4984  0.3201 -0.0524
 2177TIP3    H128166   3.772   0.455   6.382 -0.6106  0.2442 -1.0476
 2177TIP3    H228167   3.877   0.355   6.424 -1.1484 -0.1656 -0.6674
 2178TIP3   OH228168   2.016   1.114   8.612  0.0435 -0.0022  0.6189
 2178TIP3    H128169   2.074   1.046   8.646  0.5543 -0.9968 -1.9491
 2178TIP3    H228170   2.039   1.121   8.519  0.3333  4.0497  0.7955
 2179TIP3   OH228171   6.756   4.384   0.008  0.1001  0.4437 -0.0896
 2179TIP3    H128172   6.829   4.349  -0.043  0.5743  1.4772 -0.1563
 2179TIP3    H228173   6.733   4.466  -0.037 -1.3284 -0.0174 -0.2589
 2180TIP3   OH228174   2.515   3.802   8.512 -0.0986 -0.1831  0.7377
 2180TIP3    H128175   2.560   3.722   8.483 -0.8092 -0.4068  0.2108
 2180TIP3    H228176   2.530   3.805   8.606  0.3765 -0.6606  0.6854
 2181TIP3   OH228177   1.354   1.522   8.336  0.3379 -0.2055 -0.3371
 2181TIP3    H128178   1.382   1.444   8.288  2.9950 -0.2104  0.9935
 2181TIP3    H228179   1.434   1.574   8.344 -0.9821  1.8490  0.3139
 2182TIP3   OH228180   6.631   4.368   1.202 -0.3915  0.1999 -0.2818
 2182TIP3    H128181   6.650   4.318   1.122 -0.5187 -0.1686 -0.0873
 2182TIP3    H228182   6.557   4.321   1.241  0.7532 -0.6572  0.9456
 2183TIP3   OH228183   6.113   4.389   8.537  0.4006 -0.0070  0.3927
 2183TIP3    H128184   6.115   4.340   8.619  0.5750 -0.2435  0.2498
 2183TIP3    H228185   6.066   4.469   8.558  0.6348  0.0326  0.7772
 2184TIP3   OH228186   2.698   4.265   0.661  0.1822 -0.2195  0.0654
 2184TIP3    H128187   2.728   4.241   0.573 -0.8601 -0.9522 -0.1135
 2184TIP3    H228188   2.663   4.353   0.652 -2.4568 -1.2786 -0.9339
 2185TIP3   OH228189   1.864   0.477   2.198 -0.0489 -0.2269  0.2292
 2185TIP3    H128190   1.810   0.398   2.186  0.4999 -0.5116 -0.4345
 2185TIP3    H228191   1.945   0.444   2.239  1.1209 -0.3901 -2.0672
 2186TIP3   OH228192   3.138   5.068   1.537  0.0067  0.1970  0.2297
 2186TIP3    H128193   3.181   5.137   1.588  0.8638 -0.3976  0.3369
 2186TIP3    H228194   3.085   5.115   1.474  1.5837  1.0016 -0.5648
 2187TIP3   OH228195   3.819   4.994   1.871  0.5695  0.3329  1.0290
 2187TIP3    H128196   3.771   4.945   1.939  0.2389 -0.9301 -0.0860
 2187TIP3    H228197   3.900   4.945   1.859  0.5411  0.4430  0.3828
 2188TIP3   OH228198   6.345   2.709   1.801 -0.2455  0.7486  0.0121
 2188TIP3    H128199   6.384   2.642   1.745 -1.3311 -0.3551  0.5252
 2188TIP3    H228200   6.250   2.700   1.787 -0.3987  2.4051 -0.1549
 2189TIP3   OH228201   0.257   1.906   2.951  0.9399 -0.4403  0.0384
 2189TIP3    H128202   0.213   1.839   2.899  0.1572  0.9843 -1.2013
 2189TIP3    H228203   0.342   1.918   2.909  0.1888  0.9278 -1.1614
 2190TIP3   OH228204   4.269   4.568   1.090 -0.4515  0.1708  0.2939
 2190TIP3    H128205   4.296   4.479   1.069  0.7679 -0.1251  2.7034
 2190TIP3    H228206   4.246   4.607   1.006 -2.4703 -2.8342 -0.7121
 2191TIP3   OH228207   1.464   2.083   7.212  0.3125  0.2803 -0.0296
 2191TIP3    H128208   1.430   2.135   7.284  1.2207  1.3076 -0.3192
 2191TIP3    H228209   1.392   2.078   7.149  0.2989  1.4546 -0.1277
 2192TIP3   OH228210   4.470   6.707   1.285 -0.2455  0.0279 -0.4351
 2192TIP3    H128211   4.507   6.654   1.356 -0.6118 -1.1491 -1.1015
 2192TIP3    H228212   4.541   6.767   1.261 -0.2123  0.6479  1.0977
 2193TIP3   OH228213   4.339   4.075   7.216 -0.1521  0.5817  0.3112
 2193TIP3    H128214   4.410   4.136   7.234 -0.8977  1.1423  1.4077
 2193TIP3    H228215   4.336   4.018   7.293 -0.3159 -0.0140 -0.1295
 2194TIP3   OH228216   3.727   5.110   7.528 -0.6097  0.2234 -0.2226
 2194TIP3    H128217   3.635   5.132   7.519 -0.8101 -1.1176 -2.1021
 2194TIP3    H228218   3.729   5.016   7.541  0.4998  0.2396 -0.1138
 2195TIP3   OH228219   4.296   4.941   2.029 -0.0000 -0.6424 -0.1754
 2195TIP3    H128220   4.303   4.986   1.944  0.5705  1.5278  0.9600
 2195TIP3    H228221   4.209   4.966   2.061  0.8898  0.9530  1.1199
 2196TIP3   OH228222   0.899   4.900   0.749  0.1384  0.3086  0.0543
 2196TIP3    H128223   0.974   4.959   0.752 -1.5178  2.5270  0.7246
 2196TIP3    H228224   0.850   4.927   0.672 -0.6984 -0.1399  0.4118
 2197TIP3   OH228225   2.569   1.236   7.537  0.5609 -0.4291  0.1092
 2197TIP3    H128226   2.578   1.324   7.575  2.6172 -0.7195  0.4514
 2197TIP3    H228227   2.650   1.224   7.488  1.4729 -3.0039  1.9954
 2198TIP3   OH228228   1.519   6.682   8.312 -0.4358  0.1606  0.7709
 2198TIP3    H128229   1.561   6.737   8.379  0.8097  0.3457 -0.1181
 2198TIP3    H228230   1.464   6.621   8.362 -2.9257  2.9705  1.7627
 2199TIP3   OH228231   4.594   1.019   1.225 -0.5544 -0.3101 -0.4307
 2199TIP3    H128232   4.686   1.015   1.251 -0.6848  0.3393  0.1784
 2199TIP3    H228233   4.585   0.954   1.155  0.3861 -0.3026 -0.5648
 2200TIP3   OH228234   3.013   5.158   0.844 -0.1990 -0.7133  0.1594
 2200TIP3    H128235   2.946   5.223   0.826  0.0901 -0.5194 -0.2370
 2200TIP3    H228236   3.029   5.166   0.938 -0.1114 -0.1524  0.1030
 2201TIP3   OH228237   4.992   5.177   8.492  0.3718  0.2557  0.1576
 2201TIP3    H128238   5.021   5.193   8.581  0.2038 -0.7624  0.4089
 2201TIP3    H228239   5.039   5.098   8.465  1.1945  1.1039 -1.0282
 2202TIP3   OH228240   0.969   0.921   0.817 -0.0506 -0.2126 -0.1825
 2202TIP3    H128241   0.984   0.880   0.902 -0.8063 -0.7252 -0.2823
 2202TIP3    H228242   0.878   0.950   0.820  0.2045  0.6622 -0.4570
 2203TIP3   OH228243   0.127   4.080   1.173  0.0126  0.1233 -0.7033
 2203TIP3    H128244   0.156   4.154   1.226  1.5171 -1.4778  0.8085
 2203TIP3    H228245   0.034   4.071   1.193  0.4567 -0.1905  1.3947
 2204TIP3   OH228246   4.187   5.406   0.041 -0.2820  0.8953  0.5292
 2204TIP3    H128247   4.233   5.483   0.007 -2.1850  1.1830 -1.5820
 2204TIP3    H228248   4.094   5.425   0.028 -0.9372 -0.6651  2.4449
 2205TIP3   OH228249   5.045   5.286   8.737 -0.4253  0.5379  0.3346
 2205TIP3    H128250   5.084   5.239   8.811  0.9496 -0.7635 -1.1458
 2205TIP3    H228251   5.080   5.375   8.745  0.9814  0.0102  0.4020
 2206TIP3   OH228252   4.699   5.010   8.764  0.0408  0.2430  0.1714
 2206TIP3    H128253   4.729   4.988   8.676 -1.0107  0.3524 -0.2331
 2206TIP3    H228254   4.774   5.052   8.806 -0.3575  3.2744 -1.8190
 2207TIP3   OH228255   5.419   2.016   1.583 -0.6949 -0.0528  0.0787
 2207TIP3    H128256   5.476   1.947   1.548  0.7026  1.1499 -0.1082
 2207TIP3    H228257   5.355   1.969   1.636  0.6133 -1.4594  0.4913
 2208TIP3   OH228258   2.763   3.581   0.304  0.5613  0.5543 -0.3729
 2208TIP3    H128259   2.673   3.553   0.318  0.4732  0.5054 -1.0350
 2208TIP3    H228260   2.811   3.501   0.285  0.2939  0.8173 -2.3551
 2209TIP3   OH228261   3.639   6.745   1.991 -0.4870  0.4019 -0.1923
 2209TIP3    H128262   3.549   6.734   2.022 -0.6892 -1.3232 -1.2121
 2209TIP3    H228263   3.692   6.739   2.070 -1.1882 -0.1142  0.2543
 2210TIP3   OH228264   3.665   6.298   0.300 -0.7014  0.3476 -0.6046
 2210TIP3    H128265   3.734   6.336   0.246 -1.9861  1.7663 -1.3217
 2210TIP3    H228266   3.711   6.245   0.364  1.1382  2.2104 -0.2842
 2211TIP3   OH228267   2.934   0.441   2.270 -0.4468 -0.0730  0.0978
 2211TIP3    H128268   2.964   0.374   2.209 -0.8586 -1.9681  1.8594
 2211TIP3    H228269   3.014   0.482   2.301 -0.1506 -0.0690 -0.6565
 2212TIP3   OH228270   6.538   0.231   7.561  0.7892  0.1216  0.0855
 2212TIP3    H128271   6.564   0.319   7.589  0.0038  0.1415  0.7961
 2212TIP3    H228272   6.585   0.172   7.620 -0.4447  0.1467  1.1227
 2213TIP3   OH228273   1.835   1.944   2.181 -0.2431 -0.2302 -0.2599
 2213TIP3    H128274   1.840   1.904   2.094 -0.2359 -0.0585 -0.3377
 2213TIP3    H228275   1.925   1.968   2.201 -0.0966 -1.1000  0.1842
 2214TIP3   OH228276   4.393   4.102   2.356  0.0133  0.6452  0.0494
 2214TIP3    H128277   4.320   4.104   2.417 -0.3829  0.4529 -0.4072
 2214TIP3    H228278   4.470   4.124   2.409 -0.2113 -0.2322  0.7659
 2215TIP3   OH228279   4.335   5.840   7.372 -0.2563  0.6966 -0.3956
 2215TIP3    H128280   4.369   5.912   7.319  2.4445 -0.4250 -0.3796
 2215TIP3    H228281   4.395   5.835   7.446 -0.5454 -1.3493 -0.2519
 2216TIP3   OH228282   6.841   0.314   1.583  0.2743  0.3051  0.1795
 2216TIP3    H128283   6.827   0.328   1.489  0.3979 -0.5586  0.0239
 2216TIP3    H228284   6.863   0.401   1.617 -0.5372  0.7722 -0.4494
 2217TIP3   OH228285   3.927   3.883   1.703  0.1555 -0.2722 -0.0154
 2217TIP3    H128286   4.011   3.839   1.711  0.6334  0.2604 -1.7405
 2217TIP3    H228287   3.877   3.852   1.779  0.8269 -2.9834 -0.5704
 2218TIP3   OH228288   5.458   2.735   1.518  0.1309 -0.3969  0.2772
 2218TIP3    H128289   5.532   2.687   1.555 -0.2459 -0.2609  1.2411
 2218TIP3    H228290   5.380   2.690   1.553 -0.2509  1.6137  2.2484
 2219TIP3   OH228291   2.849   5.057   7.131  0.0917  0.1481 -0.4073
 2219TIP3    H128292   2.919   4.992   7.123 -0.9364 -0.8855 -1.4927
 2219TIP3    H228293   2.791   5.039   7.057 -1.4440  0.8143  0.5714
 2220TIP3   OH228294   4.262   1.069   8.145 -0.2754 -0.1614  0.6043
 2220TIP3    H128295   4.215   1.057   8.063 -0.5669 -1.3742  0.9212
 2220TIP3    H228296   4.274   0.980   8.179  0.7651  0.2448  1.3546
 2221TIP3   OH228297   4.213   5.708   2.526 -0.1112 -0.1528  0.0053
 2221TIP3    H128298   4.304   5.698   2.498 -1.0328 -1.9772 -2.7007
 2221TIP3    H228299   4.206   5.652   2.604  1.2044  0.6269  0.7287
 2222TIP3   OH228300   5.172   3.488   0.368 -0.0824  0.0843  0.0140
 2222TIP3    H128301   5.117   3.536   0.430  0.6649  0.9791  0.0115
 2222TIP3    H228302   5.206   3.414   0.418 -1.7724 -0.8634 -0.1693
 2223TIP3   OH228303   1.072   4.932   6.914  0.1873 -0.3470  0.1800
 2223TIP3    H128304   1.124   4.881   6.852 -0.3952 -0.8148  0.0725
 2223TIP3    H228305   1.004   4.872   6.943  1.0244 -0.4650  2.0459
 2224TIP3   OH228306   1.683   5.321   7.219  0.3935  0.0347 -0.2262
 2224TIP3    H128307   1.747   5.370   7.167  0.9810  0.7642  1.1496
 2224TIP3    H228308   1.734   5.280   7.289 -0.6914  1.1326  1.2609
 2225TIP3   OH228309   3.098   5.671   6.883  0.2767 -0.2987 -0.1786
 2225TIP3    H128310   3.162   5.734   6.851 -1.6243  2.0986  0.4447
 2225TIP3    H228311   3.057   5.636   6.804  0.3900  0.3073 -0.5104
 2226TIP3   OH228312   0.193   6.293   2.332  0.1950  0.1126  0.0455
 2226TIP3    H128313   0.116   6.239   2.316  0.5010  0.0651 -1.4522
 2226TIP3    H228314   0.160   6.371   2.376 -0.3311 -0.9958  1.6946
 2227TIP3   OH228315   0.920   2.270   8.215  0.1554 -0.3076  0.3558
 2227TIP3    H128316   0.869   2.350   8.204  1.6006  0.7495  1.1241
 2227TIP3    H228317   0.866   2.215   8.271 -1.1972 -0.2298 -0.8021
 2228TIP3   OH228318   2.927   1.865   1.251  0.8934  0.0892 -0.1254
 2228TIP3    H128319   2.929   1.887   1.158 -1.2986 -2.9468 -1.0748
 2228TIP3    H228320   2.844   1.901   1.282  1.3884  0.6669  0.5500
 2229TIP3   OH228321   1.160   2.768   6.363 -0.2926  0.1871  0.1396
 2229TIP3    H128322   1.169   2.862   6.347  0.5915  0.3065  1.1685
 2229TIP3    H228323   1.232   2.747   6.422 -0.5729 -1.1138  0.0546
 2230TIP3   OH228324   1.327   4.558   0.343  0.2917  0.3134  0.0259
 2230TIP3    H128325   1.412   4.536   0.304  0.6058  0.7996  0.4144
 2230TIP3    H228326   1.314   4.491   0.411 -0.3907 -0.7040 -1.0659
 2231TIP3   OH228327   5.569   5.300   7.307  0.0569  0.3757 -0.6264
 2231TIP3    H128328   5.515   5.380   7.307  0.1027  0.4101 -0.0769
 2231TIP3    H228329   5.546   5.256   7.225 -1.2094  0.1198 -0.1612
 2232TIP3   OH228330   2.464   6.173   1.556 -0.3059  0.2105  0.3555
 2232TIP3    H128331   2.391   6.217   1.513  0.3432  0.6837 -0.2702
 2232TIP3    H228332   2.509   6.243   1.605 -0.2029 -0.0571  0.6498
 2233TIP3   OH228333   1.993   0.481   1.205  0.5751  0.2688 -0.3646
 2233TIP3    H128334   1.994   0.449   1.115  0.2537  0.7562 -0.5459
 2233TIP3    H228335   1.959   0.571   1.199 -0.5560 -0.0795  0.3526
 2234TIP3   OH228336   6.163   3.519   2.214 -0.1008  0.2843 -0.8472
 2234TIP3    H128337   6.125   3.449   2.160 -0.4815 -0.4609  0.3496
 2234TIP3    H228338   6.106   3.524   2.291  1.1847  0.4027  0.1234
 2235TIP3   OH228339   6.047   4.068   8.684 -0.2679  0.1981  0.2242
 2235TIP3    H128340   6.042   4.148   8.736 -0.7329  0.1567  0.2440
 2235TIP3    H228341   5.962   4.063   8.639  0.0054  0.0671 -0.2901
 2236TIP3   OH228342   3.672   3.356   1.930  0.3948 -0.3692 -0.9850
 2236TIP3    H128343   3.679   3.416   1.856  1.0611 -0.2456 -0.8293
 2236TIP3    H228344   3.736   3.388   1.993  0.4769 -1.0080 -0.7315
 2237TIP3   OH228345   4.911   4.475   7.177 -0.3540  0.6085 -0.0064
 2237TIP3    H128346   4.817   4.488   7.190 -0.2250  2.3119 -0.5043
 2237TIP3    H228347   4.930   4.518   7.093  0.5741 -1.2715 -0.8234
 2238TIP3   OH228348   0.647   4.847   8.179  0.2240 -0.3029  0.1377
 2238TIP3    H128349   0.575   4.877   8.234  3.2227  0.6198  3.9544
 2238TIP3    H228350   0.633   4.892   8.095 -2.8795  0.7463  1.0795
 2239TIP3   OH228351   2.148   3.065   6.585  0.1103 -0.7151 -0.4524
 2239TIP3    H128352   2.114   3.091   6.500  0.3969 -2.5586 -1.1878
 2239TIP3    H228353   2.223   3.008   6.565  1.6996  0.6747  1.0764
 2240TIP3   OH228354   3.845   3.158   8.418  0.0428  0.2572 -0.2746
 2240TIP3    H128355   3.819   3.206   8.497 -1.8087  1.5023 -1.5652
 2240TIP3    H228356   3.914   3.212   8.379 -1.1770  1.2818 -1.0769
 2241TIP3   OH228357   1.357   0.044   0.795 -0.4900 -0.0048  0.6005
 2241TIP3    H128358   1.330   0.133   0.773 -0.9533 -0.0627  0.9333
 2241TIP3    H228359   1.344   0.037   0.890  2.3371  0.5492  1.1371
 2242TIP3   OH228360   6.026   2.340   0.286 -0.2746 -0.1410  0.2790
 2242TIP3    H128361   5.987   2.278   0.225  0.1365  0.1869 -0.3318
 2242TIP3    H228362   5.992   2.426   0.259  1.9500  0.3432 -1.2041
 2243TIP3   OH228363   2.984   0.222   0.306 -0.0916 -0.3256 -0.1882
 2243TIP3    H128364   3.053   0.223   0.240  2.3541  0.3511  2.1855
 2243TIP3    H228365   2.967   0.129   0.322 -1.1063 -0.5033 -2.0389
 2244TIP3   OH228366   1.017   5.068   7.529  0.5910  0.0059  0.2029
 2244TIP3    H128367   1.078   5.026   7.469 -0.8160  1.5429 -2.5241
 2244TIP3    H228368   1.063   5.146   7.560  0.3206  0.8656 -1.4099
 2245TIP3   OH228369   2.253   5.622   7.507 -0.0753 -0.1744 -0.2627
 2245TIP3    H128370   2.183   5.679   7.475 -0.1221  0.3694  0.7463
 2245TIP3    H228371   2.292   5.670   7.580 -1.9762 -2.5082  2.5774
 2246TIP3   OH228372   5.343   6.393   8.543 -0.5787 -0.4611 -0.6163
 2246TIP3    H128373   5.391   6.407   8.461  1.7103  1.4455  0.9005
 2246TIP3    H228374   5.296   6.475   8.556 -1.3964 -0.9770 -0.2874
 2247TIP3   OH228375   3.604   2.225   7.473 -0.3388 -0.5427  0.5099
 2247TIP3    H128376   3.651   2.307   7.460  0.3848 -0.8737  0.9611
 2247TIP3    H228377   3.528   2.231   7.416  1.0559 -0.6202 -1.4605
 2248TIP3   OH228378   2.491   2.421   0.444  0.2647 -0.4122 -0.2495
 2248TIP3    H128379   2.497   2.512   0.415  0.6341 -0.9347 -1.9067
 2248TIP3    H228380   2.520   2.423   0.535 -1.0525  1.3271  0.1938
 2249TIP3   OH228381   0.632   2.182   1.636  0.1006 -0.2502 -0.2175
 2249TIP3    H128382   0.583   2.200   1.716 -1.1703  0.0472 -1.0331
 2249TIP3    H228383   0.663   2.267   1.607 -0.6204 -0.1746 -0.7741
 2250TIP3   OH228384   3.248   0.631   7.126  1.1398  0.0884 -0.0427
 2250TIP3    H128385   3.337   0.596   7.136  0.8650 -0.2190  1.7116
 2250TIP3    H228386   3.241   0.699   7.192  0.0987  0.1723 -0.2192
 2251TIP3   OH228387   3.357   2.132   6.235  0.1756  0.0048  0.7362
 2251TIP3    H128388   3.411   2.169   6.166 -0.5522 -0.7212 -0.2501
 2251TIP3    H228389   3.296   2.202   6.259 -1.0065 -0.4094 -0.9150
 2252TIP3   OH228390   5.414   0.959   8.292 -0.3695  0.4533  0.1025
 2252TIP3    H128391   5.381   1.021   8.357  2.8831  1.8606  0.6171
 2252TIP3    H228392   5.460   1.013   8.227  0.4480 -1.2246 -0.8172
 2253TIP3   OH228393   6.169   3.264   8.704 -0.2688  0.1484 -0.1054
 2253TIP3    H128394   6.097   3.290   8.646  0.0120  1.2346  0.0166
 2253TIP3    H228395   6.230   3.338   8.701  0.3865 -0.3573  0.5390
 2254TIP3   OH228396   2.696   6.450   0.412  0.3824  0.1343  0.3470
 2254TIP3    H128397   2.605   6.421   0.401  1.2181 -1.8105 -2.3813
 2254TIP3    H228398   2.689   6.543   0.432 -2.2090 -0.1492  1.1952
 2255TIP3   OH228399   2.997   6.697   1.540 -0.5640 -0.1199 -0.0294
 2255TIP3    H128400   2.932   6.761   1.509 -0.4933  0.2259  0.5159
 2255TIP3    H228401   3.079   6.747   1.544 -0.5301 -0.2125  0.5034
 2256TIP3   OH228402   3.411   1.714   8.310 -0.3810 -0.1568 -0.4777
 2256TIP3    H128403   3.352   1.780   8.346 -0.8830 -1.6981  1.7191
 2256TIP3    H228404   3.477   1.700   8.378  0.0301 -1.5123 -1.1089
 2257TIP3   OH228405   4.925   3.832   1.860  0.4139  0.1599  0.2340
 2257TIP3    H128406   4.879   3.782   1.794  0.3851 -0.2256  0.5435
 2257TIP3    H228407   4.951   3.768   1.926  0.1212  0.5938  0.7790
 2258TIP3   OH228408   6.493   5.526   1.655  0.1094  0.1478 -0.0931
 2258TIP3    H128409   6.410   5.499   1.695  1.8412 -0.8781  3.2349
 2258TIP3    H228410   6.535   5.580   1.722  1.8162  1.3427 -2.0183
 2259TIP3   OH228411   5.318   5.136   8.474  0.8792  0.3279  0.0011
 2259TIP3    H128412   5.390   5.081   8.444  0.3140  0.6860 -2.2241
 2259TIP3    H228413   5.240   5.083   8.459  0.5248  0.7517  0.3255
 2260TIP3   OH228414   4.253   1.290   8.448  0.2824 -0.3696 -0.2801
 2260TIP3    H128415   4.268   1.258   8.537 -3.2098 -1.4093  0.0842
 2260TIP3    H228416   4.255   1.385   8.456 -0.9378 -0.4203  1.2002
 2261TIP3   OH228417   1.984   3.146   8.706 -0.0728 -0.0111  0.3427
 2261TIP3    H128418   1.990   3.151   8.801 -1.8069  1.4048  0.4396
 2261TIP3    H228419   2.008   3.234   8.676 -2.1457  0.3779 -0.3072
 2262TIP3   OH228420   4.064   5.978   0.174  0.1711  0.1415  0.4349
 2262TIP3    H128421   4.110   5.894   0.168  0.6062  0.4856 -2.3022
 2262TIP3    H228422   3.979   5.961   0.134 -0.4728  0.5896  1.5628
 2263TIP3   OH228423   0.481   0.640   1.112 -0.8648 -0.0815  0.2252
 2263TIP3    H128424   0.530   0.637   1.194 -2.1254 -0.5749  0.9905
 2263TIP3    H228425   0.482   0.550   1.080  1.4095  0.4421 -1.4529
 2264TIP3   OH228426   2.705   2.169   7.200  0.1219  0.3119  0.0715
 2264TIP3    H128427   2.676   2.229   7.132  1.3692  1.4907  0.5283
 2264TIP3    H228428   2.733   2.090   7.152 -0.3348  0.5736 -0.6409
 2265TIP3   OH228429   2.514   3.569   1.525  0.4045  0.2094  0.8994
 2265TIP3    H128430   2.435   3.522   1.499  0.3900  1.0526 -0.7457
 2265TIP3    H228431   2.563   3.507   1.578 -0.4388 -1.0310  0.2741
 2266TIP3   OH228432   0.951   0.955   6.661 -1.1061  0.0039  0.1929
 2266TIP3    H128433   0.979   1.029   6.606 -0.2836  0.4665  1.2068
 2266TIP3    H228434   1.018   0.888   6.646 -2.0970 -0.7356 -1.0771
 2267TIP3   OH228435   5.959   4.065   8.269  0.0272  0.0060  0.3299
 2267TIP3    H128436   5.906   4.084   8.346 -0.7153 -0.6115 -0.0069
 2267TIP3    H228437   5.925   4.123   8.201 -0.4182 -0.5890  0.0368
 2268TIP3   OH228438   4.224   0.845   1.294 -0.1129 -0.3731  0.0196
 2268TIP3    H128439   4.227   0.926   1.242  0.3440 -0.1456  0.3917
 2268TIP3    H228440   4.290   0.788   1.254 -2.2009 -1.6107 -1.9018
 2269TIP3   OH228441   2.732   3.750   1.822 -0.3316 -0.4624 -0.0117
 2269TIP3    H128442   2.758   3.805   1.895 -0.3943 -0.5397  0.0688
 2269TIP3    H228443   2.707   3.666   1.862  1.6658 -1.2371 -0.2904
 2270TIP3   OH228444   1.794   1.677   0.639 -0.3391  0.1552 -0.5295
 2270TIP3    H128445   1.797   1.730   0.718  0.2359 -1.5874  0.6802
 2270TIP3    H228446   1.712   1.628   0.646  0.2099 -0.7826 -0.4683
 2271TIP3   OH228447   2.545   2.696   0.457 -0.2156 -0.3216 -0.1939
 2271TIP3    H128448   2.585   2.774   0.494  1.3156 -0.6740 -1.0197
 2271TIP3    H228449   2.525   2.720   0.366 -1.1058 -0.4333 -0.0380
 2272TIP3   OH228450   6.733   5.603   0.520 -0.2019  0.5766 -0.2680
 2272TIP3    H128451   6.653   5.634   0.563  0.3760 -0.8749  1.9854
 2272TIP3    H228452   6.726   5.508   0.519  1.2704  0.4404 -0.5209
 2273TIP3   OH228453   2.525   3.225   7.110  0.2888 -0.8597  0.0172
 2273TIP3    H128454   2.550   3.172   7.035 -0.0215 -2.7648  1.2104
 2273TIP3    H228455   2.429   3.220   7.113  0.2478 -0.1651  0.1199
 2274TIP3   OH228456   4.684   4.637   7.455  0.2550  0.1310 -0.4074
 2274TIP3    H128457   4.645   4.585   7.384  0.6253 -0.9540  0.1702
 2274TIP3    H228458   4.668   4.586   7.534  0.5350  0.9584  0.1975
 2275TIP3   OH228459   4.469   2.803   8.689  0.0523  0.7347  0.0451
 2275TIP3    H128460   4.550   2.799   8.740 -0.6143  1.2101  1.1762
 2275TIP3    H228461   4.416   2.869   8.733 -0.4585  1.3408 -1.4303
 2276TIP3   OH228462   0.818   6.827   7.289 -0.0571 -0.2495 -0.0853
 2276TIP3    H128463   0.845   6.860   7.203 -1.2011 -0.2939 -0.4821
 2276TIP3    H228464   0.888   6.855   7.348  0.5634  0.1142 -0.9655
 2277TIP3   OH228465   0.669   0.097   0.364  0.0047  0.0472  0.5513
 2277TIP3    H128466   0.629   0.161   0.306  0.4104 -0.1597  0.0395
 2277TIP3    H228467   0.711   0.149   0.433  1.2792  0.4009 -0.4562
 2278TIP3   OH228468   2.725   1.368   6.496  0.0003  0.4152 -0.7530
 2278TIP3    H128469   2.818   1.349   6.508 -0.2857 -0.0197  1.1772
 2278TIP3    H228470   2.688   1.287   6.463  0.4035  0.8320 -2.3049
 2279TIP3   OH228471   3.213   3.730   6.321 -0.4457 -0.1809  0.0213
 2279TIP3    H128472   3.185   3.788   6.392 -0.3446 -0.7829  0.5615
 2279TIP3    H228473   3.256   3.788   6.258 -1.6736  0.5494 -0.1698
 2280TIP3   OH228474   4.882   3.249   1.699 -0.0354  0.4598 -0.0712
 2280TIP3    H128475   4.793   3.251   1.663 -0.1771  2.3676  0.2825
 2280TIP3    H228476   4.932   3.308   1.644  0.8109  0.0824  0.2721
 2281TIP3   OH228477   3.038   3.900   1.499 -0.6775 -0.1174 -0.6003
 2281TIP3    H128478   3.117   3.908   1.552 -0.0991  1.0282 -1.5796
 2281TIP3    H228479   2.982   3.972   1.528 -1.0958 -0.5470 -0.3411
 2282TIP3   OH228480   5.151   1.448   8.716 -0.3112  0.4319 -0.5233
 2282TIP3    H128481   5.243   1.424   8.732 -0.5033 -0.0837 -0.1472
 2282TIP3    H228482   5.144   1.451   8.620  0.1234  0.5856 -0.5558
 2283TIP3   OH228483   0.095   1.608   1.643 -0.1702  0.5624 -0.0667
 2283TIP3    H128484   0.098   1.535   1.581 -1.6716 -0.5401  1.1129
 2283TIP3    H228485   0.132   1.682   1.593  1.3290 -0.9345 -1.3024
 2284TIP3   OH228486   6.291   3.565   0.929  0.0009 -0.1409 -0.1874
 2284TIP3    H128487   6.341   3.493   0.968 -0.4688 -1.2828 -1.6149
 2284TIP3    H228488   6.224   3.585   0.995 -0.1163 -1.3053  0.0702
 2285TIP3   OH228489   3.464   2.349   1.275  0.0904 -0.5676  0.1616
 2285TIP3    H128490   3.394   2.397   1.319 -1.4234 -1.7218 -0.8658
 2285TIP3    H228491   3.511   2.416   1.224  0.4493  0.3959  1.6866
 2286TIP3   OH228492   4.374   2.006   7.392 -0.3588 -0.0885  0.3497
 2286TIP3    H128493   4.412   2.026   7.477 -0.5555 -1.0984  0.6888
 2286TIP3    H228494   4.293   2.056   7.389  0.1162  0.6936  0.3528
 2287TIP3   OH228495   3.581   3.766   1.783 -0.1690 -0.2513  0.8672
 2287TIP3    H128496   3.636   3.751   1.861  0.6127  0.3176  0.4448
 2287TIP3    H228497   3.544   3.853   1.797  0.4224  0.0907  0.3528
 2288TIP3   OH228498   3.762   4.942   6.358  0.1241 -0.5239  0.5759
 2288TIP3    H128499   3.854   4.946   6.385 -0.1262  0.9619  1.3401
 2288TIP3    H228500   3.714   4.972   6.435 -0.7405  2.2742 -0.8856
 2289TIP3   OH228501   0.547   2.139   8.055  0.0788 -0.1622  0.0096
 2289TIP3    H128502   0.571   2.047   8.049  0.5440 -0.2553  2.1998
 2289TIP3    H228503   0.457   2.139   8.086 -0.4043  0.1487 -1.3531
 2290TIP3   OH228504   5.989   4.566   1.865 -0.0575 -0.0423 -0.8654
 2290TIP3    H128505   5.992   4.625   1.940 -0.8360  0.1015 -0.9371
 2290TIP3    H228506   6.064   4.591   1.811 -0.3691  0.8759 -0.8835
 2291TIP3   OH228507   1.223   0.208   2.657 -0.1150  0.1391 -0.2766
 2291TIP3    H128508   1.157   0.197   2.726  0.1667  1.8789  0.3282
 2291TIP3    H228509   1.221   0.302   2.637  3.5369  0.7242  1.2525
 2292TIP3   OH228510   3.684   4.065   1.546  0.1471 -0.2973 -0.0062
 2292TIP3    H128511   3.649   4.117   1.473  0.2179 -1.5678 -0.9744
 2292TIP3    H228512   3.774   4.096   1.556 -0.2276  0.7121  0.3381
 2293TIP3   OH228513   4.658   2.311   1.173 -0.2824  0.4308  0.5421
 2293TIP3    H128514   4.633   2.345   1.259  1.2703  3.0708  0.0700
 2293TIP3    H228515   4.582   2.329   1.117 -0.9942 -0.5760  1.1506
 2294TIP3   OH228516   4.165   0.524   8.440  0.2274 -0.2038  0.4064
 2294TIP3    H128517   4.197   0.434   8.442  2.1779  0.3402 -1.7415
 2294TIP3    H228518   4.096   0.523   8.374 -0.6120 -0.3179  1.2585
 2295TIP3   OH228519   3.308   1.682   0.934  0.0386  0.2614 -0.2829
 2295TIP3    H128520   3.254   1.606   0.954 -0.9175  1.0188  0.0685
 2295TIP3    H228521   3.331   1.672   0.842 -0.6269 -0.1126 -0.4142
 2296TIP3   OH228522   6.271   6.361   1.649  1.1071  0.0264  0.5643
 2296TIP3    H128523   6.259   6.367   1.744 -0.0707  0.0184  0.4253
 2296TIP3    H228524   6.239   6.273   1.627  2.6082 -0.4943  0.3195
 2297TIP3   OH228525   2.353   2.649   7.163  0.1719  0.2118  0.1856
 2297TIP3    H128526   2.304   2.612   7.089  2.8523 -0.3436 -1.4494
 2297TIP3    H228527   2.327   2.741   7.165 -1.1050 -0.1133 -0.4578
 2298TIP3   OH228528   2.016   5.466   7.444 -0.0063 -0.0196 -0.0517
 2298TIP3    H128529   2.076   5.532   7.410  0.5265  0.2691  1.3582
 2298TIP3    H228530   1.989   5.500   7.530 -0.1046 -1.3975  0.4897
 2299TIP3   OH228531   2.579   1.418   0.443 -0.6493  0.6892 -0.3217
 2299TIP3    H128532   2.674   1.405   0.449 -0.8080  0.0005  1.9914
 2299TIP3    H228533   2.550   1.420   0.535 -2.8398  1.2062 -0.9664
 2300TIP3   OH228534   5.563   0.156   6.853  0.4138 -0.5038 -0.3303
 2300TIP3    H128535   5.547   0.189   6.941 -2.0694  1.6387 -1.4388
 2300TIP3    H228536   5.644   0.199   6.826  0.3260  0.0997  0.3344
 2301TIP3   OH228537   0.426   5.847   7.328  0.0099 -0.2895 -0.3022
 2301TIP3    H128538   0.399   5.938   7.314  0.5036 -0.1258 -0.2070
 2301TIP3    H228539   0.344   5.799   7.340 -0.3558 -0.1544 -2.0770
 2302TIP3   OH228540   2.281   3.563   8.161  0.3595  0.3052  0.0024
 2302TIP3    H128541   2.284   3.500   8.233  2.1342  0.0759 -0.2349
 2302TIP3    H228542   2.340   3.633   8.188  1.6158 -0.1238 -1.4976
 2303TIP3   OH228543   2.128   0.184   1.285 -0.2111 -0.1296 -0.0435
 2303TIP3    H128544   2.077   0.242   1.341  1.1551  1.9236 -0.8185
 2303TIP3    H228545   2.127   0.225   1.199  0.0633 -1.7561 -0.8649
 2304TIP3   OH228546   3.560   2.298   0.344 -0.2490 -0.2605  0.6372
 2304TIP3    H128547   3.483   2.316   0.291  0.0392  0.5975  0.4939
 2304TIP3    H228548   3.546   2.347   0.425 -0.0506 -0.4496  0.7902
 2305TIP3   OH228549   2.600   6.253   0.186 -0.2091 -0.8167 -0.2714
 2305TIP3    H128550   2.648   6.211   0.258 -1.0683  0.1361  0.8923
 2305TIP3    H228551   2.629   6.206   0.108  2.1607 -0.6910  0.4434
 2306TIP3   OH228552   6.236   0.793   2.022  0.3065 -0.0666 -0.4445
 2306TIP3    H128553   6.152   0.806   2.067  0.2048 -1.9070 -0.0129
 2306TIP3    H228554   6.301   0.829   2.082 -0.0940  0.4337 -0.3082
 2307TIP3   OH228555   1.229   0.480   2.670  0.3124 -0.2453  0.3698
 2307TIP3    H128556   1.229   0.561   2.620  1.2051 -1.4372 -1.6829
 2307TIP3    H228557   1.222   0.508   2.761  0.6319  2.1120 -0.2710
 2308TIP3   OH228558   1.009   0.833   2.724 -0.4565  0.0232 -0.3028
 2308TIP3    H128559   0.964   0.911   2.758  0.2600  0.0896  0.5104
 2308TIP3    H228560   1.073   0.869   2.662  0.5827  0.1897  0.8285
 2309TIP3   OH228561   0.175   3.418   1.582 -0.2671  0.5350  0.3114
 2309TIP3    H128562   0.097   3.440   1.531 -0.3132  1.2675  0.6843
 2309TIP3    H228563   0.221   3.501   1.594  0.5370  0.1228  0.1615
 2310TIP3   OH228564   1.056   2.277   6.914  0.2599  0.5457 -0.2621
 2310TIP3    H128565   1.119   2.215   6.876  0.5676 -0.9083  2.3890
 2310TIP3    H228566   1.107   2.326   6.978 -1.1111 -0.2027  1.4747
 2311TIP3   OH228567   5.580   3.856   6.971 -0.0217 -0.0068 -0.3173
 2311TIP3    H128568   5.550   3.765   6.974  2.5527 -0.9286  0.4649
 2311TIP3    H228569   5.581   3.878   6.878  0.6890 -1.3250 -0.6518
 2312TIP3   OH228570   4.827   5.686   2.320 -0.4187 -0.1126  0.3482
 2312TIP3    H128571   4.754   5.649   2.371 -0.8995  0.3056 -0.0247
 2312TIP3    H228572   4.871   5.610   2.282  0.2829 -0.4801  1.8101
 2313TIP3   OH228573   1.610   6.313   7.568 -0.4248  0.4220  0.0892
 2313TIP3    H128574   1.679   6.309   7.502  0.1418  0.4553  0.6779
 2313TIP3    H228575   1.553   6.239   7.547  1.0568 -1.0439  0.9755
 2314TIP3   OH228576   0.775   2.920   2.478 -0.1174 -0.3183 -0.6700
 2314TIP3    H128577   0.761   2.849   2.540 -2.2972  0.1174 -0.6103
 2314TIP3    H228578   0.782   2.999   2.532 -1.7263  0.0211 -0.9071
 2315TIP3   OH228579   5.491   2.621   8.131  0.5138  0.1311  0.1037
 2315TIP3    H128580   5.542   2.657   8.204 -0.2103 -1.5132  1.4850
 2315TIP3    H228581   5.467   2.533   8.159  0.1028 -0.5182 -2.1043
 2316TIP3   OH228582   4.598   4.983   1.163  0.4165  0.1446  0.2357
 2316TIP3    H128583   4.608   5.031   1.081 -1.4858  1.0668  0.5131
 2316TIP3    H228584   4.658   5.027   1.223  2.5823 -1.1509 -0.8426
 2317TIP3   OH228585   6.635   2.253   8.023 -0.2827 -0.3091  0.3583
 2317TIP3    H128586   6.689   2.221   7.951 -1.9135 -1.4434 -0.4227
 2317TIP3    H228587   6.600   2.336   7.992  1.1409  0.5423  0.9572
 2318TIP3   OH228588   2.403   1.154   0.509  0.3395  0.3973 -0.2272
 2318TIP3    H128589   2.499   1.162   0.512  0.3138  1.1356 -1.0391
 2318TIP3    H228590   2.377   1.211   0.437 -0.9355  2.5366  1.7965
 2319TIP3   OH228591   3.045   0.249   2.095 -0.3453  0.2446  0.0937
 2319TIP3    H128592   3.097   0.184   2.143 -0.0008  0.6060  0.2167
 2319TIP3    H228593   2.984   0.197   2.042 -0.6786 -0.1653  0.8590
 2320TIP3   OH228594   4.092   4.301   8.563 -0.2413  0.1015 -0.1296
 2320TIP3    H128595   4.136   4.260   8.489 -0.9125  0.5474 -0.7847
 2320TIP3    H228596   4.100   4.237   8.634 -0.0383 -0.5501 -0.7298
 2321TIP3   OH228597   4.309   1.337   7.848 -0.0220  0.6067 -0.4701
 2321TIP3    H128598   4.404   1.337   7.841  0.1088 -0.7309  0.8517
 2321TIP3    H228599   4.290   1.413   7.903  0.4023  0.1725  0.2982
 2322TIP3   OH228600   3.260   5.229   1.747  1.0574 -0.3725 -0.3062
 2322TIP3    H128601   3.280   5.305   1.692  1.1941 -0.7932 -0.8504
 2322TIP3    H228602   3.262   5.263   1.837 -2.1229  1.0226 -0.6391
 2323TIP3   OH228603   5.421   1.800   0.967  0.4457 -0.2294 -0.0509
 2323TIP3    H128604   5.505   1.833   0.936  0.5759  1.2346  1.7155
 2323TIP3    H228605   5.420   1.820   1.060 -0.7534 -2.6489  0.5506
 2324TIP3   OH228606   1.774   3.985   8.542 -0.0853  0.4882 -0.2019
 2324TIP3    H128607   1.777   3.928   8.619  0.3631  1.9089  0.8784
 2324TIP3    H228608   1.703   4.047   8.562 -1.1787 -0.2199 -1.7564
 2325TIP3   OH228609   6.088   6.252   8.085 -0.0479  0.3896  0.3754
 2325TIP3    H128610   6.012   6.194   8.096  0.6543 -0.2655  2.2123
 2325TIP3    H228611   6.104   6.253   7.991 -0.8250 -1.4742  0.1810
 2326TIP3   OH228612   1.521   4.975   7.558  0.2718  0.7629 -0.4898
 2326TIP3    H128613   1.471   4.949   7.481  0.2141  0.9150 -0.5039
 2326TIP3    H228614   1.537   4.892   7.605 -0.8478  0.8137  0.0267
 2327TIP3   OH228615   0.298   0.661   7.754  0.1358 -0.5077 -0.7208
 2327TIP3    H128616   0.378   0.609   7.749 -0.2255 -1.0848 -0.6011
 2327TIP3    H228617   0.240   0.621   7.690 -0.2835 -0.4858 -0.3590
 2328TIP3   OH228618   1.029   3.045   7.116  0.1495  0.0066  0.4841
 2328TIP3    H128619   1.079   2.965   7.135  0.5179  0.5725  2.0185
 2328TIP3    H228620   1.025   3.048   7.020  0.5588 -1.5818  0.3840
 2329TIP3   OH228621   0.972   2.233   7.944  0.4147 -0.3944 -0.5573
 2329TIP3    H128622   0.939   2.278   8.021 -0.6341 -0.2186 -1.0841
 2329TIP3    H228623   0.914   2.261   7.873  0.8182 -1.2102 -1.2347
 2330TIP3   OH228624   1.536   2.840   8.210 -0.3321 -0.0914 -0.2280
 2330TIP3    H128625   1.594   2.903   8.254  0.5995 -1.0909  0.0097
 2330TIP3    H228626   1.448   2.867   8.237  0.1503  0.0052  1.3796
 2331TIP3   OH228627   0.099   1.896   8.439  0.4258 -0.0553  0.1849
 2331TIP3    H128628   0.086   1.857   8.353 -1.7493 -1.9799  1.2768
 2331TIP3    H228629   0.165   1.841   8.480 -0.6745 -1.0138  0.7434
 2332TIP3   OH228630   0.319   5.904   0.794  0.2914 -0.2183 -0.3074
 2332TIP3    H128631   0.244   5.931   0.846  1.3736  1.6551  0.3856
 2332TIP3    H228632   0.395   5.925   0.848  1.3516 -2.6026 -0.7281
 2333TIP3   OH228633   0.564   4.353   0.204  0.2614 -0.1907  0.2386
 2333TIP3    H128634   0.571   4.258   0.199 -0.5671 -0.2203 -0.8823
 2333TIP3    H228635   0.642   4.385   0.158  1.7449 -0.2643  2.5747
 2334TIP3   OH228636   5.035   1.280   7.496  0.3817 -0.2630  0.3747
 2334TIP3    H128637   4.982   1.360   7.486  0.3369 -0.4484 -1.0859
 2334TIP3    H228638   5.110   1.308   7.547  0.1017  0.6014  0.3349
 2335TIP3   OH228639   0.584   0.437   0.657 -0.0679 -0.3133  0.4014
 2335TIP3    H128640   0.654   0.446   0.592 -0.0463  0.7288  0.5525
 2335TIP3    H228641   0.549   0.349   0.642  1.4622 -0.9808  0.5235
 2336TIP3   OH228642   1.701   2.628   8.409  0.1242 -1.0339  0.2298
 2336TIP3    H128643   1.752   2.564   8.359 -2.1645 -1.6303 -1.5251
 2336TIP3    H228644   1.612   2.620   8.375 -1.4128 -0.6611  3.7178
 2337TIP3   OH228645   2.976   4.366   6.605  0.2905  0.2677  0.2105
 2337TIP3    H128646   3.017   4.290   6.562 -0.4405 -0.9951  1.6227
 2337TIP3    H228647   3.049   4.425   6.625  1.3803 -1.4854  1.8148
 2338TIP3   OH228648   2.599   4.522   0.101  0.1930 -0.3811 -0.4169
 2338TIP3    H128649   2.537   4.449   0.103 -0.3190 -0.0600 -2.3312
 2338TIP3    H228650   2.641   4.515   0.015  2.4516 -0.2612  0.6095
 2339TIP3   OH228651   1.462   2.271   7.857 -0.4456  0.0037 -0.6717
 2339TIP3    H128652   1.464   2.340   7.923  0.0156 -1.1457  0.5781
 2339TIP3    H228653   1.434   2.315   7.777  0.6580  1.7993 -0.1382
 2340TIP3   OH228654   5.082   3.961   6.637 -0.4595 -0.4032 -0.6341
 2340TIP3    H128655   5.065   3.892   6.573  0.8407  1.1113 -2.7272
 2340TIP3    H228656   5.153   3.927   6.691 -0.8459 -1.2874 -0.6710
 2341TIP3   OH228657   6.270   1.861   0.459 -0.3983 -0.6067 -0.6923
 2341TIP3    H128658   6.343   1.918   0.484 -1.8911  0.0393  2.8082
 2341TIP3    H228659   6.214   1.916   0.404  0.3144 -0.1552 -0.9811
 2342TIP3   OH228660   1.933   5.940   2.058  0.2865  0.1775 -0.5430
 2342TIP3    H128661   1.976   5.894   1.986  1.7438  1.2556 -0.4114
 2342TIP3    H228662   1.862   5.989   2.016  1.0260  0.6760 -1.2481
 2343TIP3   OH228663   4.815   4.928   7.107 -0.5055  0.3989 -0.1897
 2343TIP3    H128664   4.898   4.953   7.147 -0.4369 -1.8422  1.2045
 2343TIP3    H228665   4.840   4.886   7.024 -0.3455  0.7517 -0.3241
 2344TIP3   OH228666   2.483   4.907   0.328  0.3404 -0.1752 -0.0990
 2344TIP3    H128667   2.457   4.896   0.237  1.3499 -3.0129 -0.1383
 2344TIP3    H228668   2.548   4.838   0.343  2.3769  1.9798  1.9898
 2345TIP3   OH228669   0.057   1.773   7.718  0.5895  0.3534  0.4154
 2345TIP3    H128670   0.042   1.838   7.650  1.9322 -0.2843 -0.5443
 2345TIP3    H228671   0.132   1.806   7.767 -1.0758  1.4023  2.4138
 2346TIP3   OH228672   4.215   0.311   8.189  0.4224  0.0481  0.0109
 2346TIP3    H128673   4.310   0.321   8.194  1.3031 -5.1852 -0.3455
 2346TIP3    H228674   4.189   0.287   8.278  0.3085 -2.6406 -0.6568
 2347TIP3   OH228675   0.798   0.695   1.069  0.0484 -0.1034 -0.1915
 2347TIP3    H128676   0.858   0.768   1.084  0.0144  0.0767 -0.9069
 2347TIP3    H228677   0.749   0.720   0.991 -1.0907 -0.1742  0.4854
 2348TIP3   OH228678   6.694   2.870   7.856  0.0397  0.0692 -0.4503
 2348TIP3    H128679   6.645   2.832   7.783 -2.1618  0.7569  0.5916
 2348TIP3    H228680   6.750   2.799   7.887 -1.8144 -1.4469 -0.4048
 2349TIP3   OH228681   1.581   3.820   1.126  0.4265  0.4593 -0.5838
 2349TIP3    H128682   1.636   3.880   1.075  0.0286 -0.3302 -1.9926
 2349TIP3    H228683   1.608   3.834   1.217  0.6991  2.3909 -0.9149
 2350TIP3   OH228684   2.903   3.498   8.280 -0.2987 -0.0788  0.2039
 2350TIP3    H128685   2.997   3.487   8.292 -0.3027 -1.8828 -1.0309
 2350TIP3    H228686   2.873   3.539   8.361  1.3511 -0.6694  1.1586
 2351TIP3   OH228687   3.930   5.185   1.164  0.0176  0.1223 -0.1444
 2351TIP3    H128688   3.840   5.214   1.147  0.4725  0.9756 -1.2465
 2351TIP3    H228689   3.956   5.232   1.243 -0.2676  0.4225 -0.2261
 2352TIP3   OH228690   6.592   1.575   1.852 -0.3953 -0.3302  0.4687
 2352TIP3    H128691   6.508   1.580   1.805 -0.4410  2.5833  0.6461
 2352TIP3    H228692   6.567   1.566   1.944 -0.4580 -1.0180  0.3864
 2353TIP3   OH228693   5.588   1.260   7.557 -0.2631 -0.3336  0.0032
 2353TIP3    H128694   5.531   1.185   7.539  2.1018 -2.0290 -0.9617
 2353TIP3    H228695   5.642   1.231   7.631  1.4231 -0.0492 -1.0775
 2354TIP3   OH228696   4.503   3.561   0.596 -0.0217  0.4582  0.1098
 2354TIP3    H128697   4.492   3.549   0.690 -1.4479 -3.2629 -0.3569
 2354TIP3    H228698   4.563   3.491   0.570 -0.2864  0.9107 -1.8512
 2355TIP3   OH228699   5.476   6.044   7.220 -0.2285  0.1416  0.4367
 2355TIP3    H128700   5.431   6.023   7.301  0.7568 -0.5642  0.8214
 2355TIP3    H228701   5.536   5.971   7.205  1.0756  1.2060  0.1690
 2356TIP3   OH228702   2.011   5.727   8.599 -0.2378  0.9656  0.5964
 2356TIP3    H128703   2.106   5.743   8.607  0.0120  0.2627 -0.6273
 2356TIP3    H228704   2.004   5.664   8.528 -1.7482  2.3525 -0.5608
 2357TIP3   OH228705   4.265   5.833   8.575  0.1872 -0.3352  0.1516
 2357TIP3    H128706   4.301   5.795   8.494  2.3941  1.1111  0.3608
 2357TIP3    H228707   4.245   5.924   8.552  0.8064  0.0808  1.2024
 2358TIP3   OH228708   2.952   6.051   7.393  0.0870 -0.3486 -0.3498
 2358TIP3    H128709   2.926   6.142   7.406 -0.4882 -0.8192  2.4029
 2358TIP3    H228710   3.045   6.055   7.369  0.3958  0.9379  0.9747
 2359TIP3   OH228711   3.307   6.245   0.911 -0.5554 -0.5477 -0.6752
 2359TIP3    H128712   3.239   6.306   0.881 -0.0306  0.0298 -0.7145
 2359TIP3    H228713   3.365   6.299   0.966 -0.4022 -1.1444 -0.2478
 2360TIP3   OH228714   1.127   5.948   0.236 -0.8372 -0.8749 -0.1149
 2360TIP3    H128715   1.206   5.896   0.246  0.7927  0.7260 -3.2479
 2360TIP3    H228716   1.078   5.933   0.317  1.7613 -3.3725  1.1687
 2361TIP3   OH228717   5.460   4.962   1.263 -0.0078  0.2214  0.1985
 2361TIP3    H128718   5.393   4.941   1.328  1.2586 -1.6174  1.0063
 2361TIP3    H228719   5.473   5.057   1.271 -2.1932  0.5554  0.2788
 2362TIP3   OH228720   5.720   1.634   7.478 -0.4846 -0.1042 -0.3394
 2362TIP3    H128721   5.637   1.682   7.468 -0.1196  0.4912 -0.5253
 2362TIP3    H228722   5.787   1.702   7.478  0.1621 -0.6930 -2.0817
 2363TIP3   OH228723   3.213   3.111   7.823  0.9062 -0.3664 -0.0142
 2363TIP3    H128724   3.199   3.046   7.892 -0.2546  0.4510  0.5579
 2363TIP3    H228725   3.300   3.146   7.841 -0.7387  2.6437  3.5953
 2364TIP3   OH228726   5.918   1.987   8.373 -0.1523 -0.3976  0.1201
 2364TIP3    H128727   5.841   1.947   8.333  0.3816 -1.8929  0.5258
 2364TIP3    H228728   5.991   1.962   8.317 -0.0930  2.6423 -1.3941
 2365TIP3   OH228729   3.319   1.780   7.661 -0.0298  0.0191  0.2977
 2365TIP3    H128730   3.280   1.844   7.720 -0.4511  1.3935 -1.3823
 2365TIP3    H228731   3.314   1.697   7.709  0.0820  1.1337  2.3421
 2366TIP3   OH228732   5.242   3.442   1.327 -0.0850 -0.1994  0.2296
 2366TIP3    H128733   5.212   3.386   1.399 -0.6193  1.0848  1.0280
 2366TIP3    H228734   5.162   3.482   1.292  0.3629  0.7080  0.2178
 2367TIP3   OH228735   1.249   4.954   1.364  0.6152  0.2581  0.1599
 2367TIP3    H128736   1.316   5.010   1.326  2.9765 -1.8527  0.9536
 2367TIP3    H228737   1.243   4.879   1.304 -2.6263  1.2557 -1.0038
 2368TIP3   OH228738   2.769   4.000   6.448 -0.0364 -0.5210  0.0466
 2368TIP3    H128739   2.715   3.976   6.372 -1.0695 -0.9403  0.8890
 2368TIP3    H228740   2.858   4.009   6.412 -0.8611  1.6405 -1.6689
 2369TIP3   OH228741   4.277   6.840   7.758  0.0779  0.2165 -0.3520
 2369TIP3    H128742   4.303   6.764   7.707  0.5587  0.5125 -0.5561
 2369TIP3    H228743   4.328   6.912   7.722 -1.1845  0.8715 -0.9294
 2370TIP3   OH228744   1.856   6.423   7.465 -0.3384 -0.1876  0.2917
 2370TIP3    H128745   1.817   6.444   7.380 -0.6444  0.2210  0.5260
 2370TIP3    H228746   1.892   6.506   7.496 -0.7305 -0.2094  0.8154
 2371TIP3   OH228747   3.065   5.332   2.043 -0.1398  0.0521 -0.0108
 2371TIP3    H128748   3.025   5.283   2.115 -1.8107  1.9332  0.4311
 2371TIP3    H228749   3.159   5.315   2.052 -0.3677 -0.3075  2.2335
 2372TIP3   OH228750   4.630   4.296   1.528 -0.0688  0.4810  0.3522
 2372TIP3    H128751   4.655   4.335   1.444 -0.4135  1.1472  0.5580
 2372TIP3    H228752   4.563   4.354   1.562  1.1873  1.0972  1.8587
 2373TIP3   OH228753   2.678   0.523   8.030 -0.0839  0.1568 -0.0716
 2373TIP3    H128754   2.766   0.505   7.999 -0.1917  0.2027 -0.4028
 2373TIP3    H228755   2.680   0.615   8.057 -0.0828  0.2094 -0.2533
 2374TIP3   OH228756   3.203   1.871   8.421  0.1507 -0.4302  0.1570
 2374TIP3    H128757   3.123   1.887   8.371  0.3034 -0.6233 -0.1489
 2374TIP3    H228758   3.178   1.889   8.511  0.0767  0.6571 -0.0743
 2375TIP3   OH228759   4.430   1.455   6.407  0.5423  0.2067  0.2942
 2375TIP3    H128760   4.504   1.427   6.460  1.1977  0.8043 -0.2907
 2375TIP3    H228761   4.452   1.544   6.379 -0.2194  0.2519 -0.1952
 2376TIP3   OH228762   0.801   5.789   8.398  0.3110 -0.4214  0.1575
 2376TIP3    H128763   0.779   5.881   8.389  0.4549 -0.2801  1.1962
 2376TIP3    H228764   0.792   5.754   8.309 -1.0787  0.2919 -0.0075
 2377TIP3   OH228765   3.094   1.845   7.911  0.1168 -0.7203  0.4486
 2377TIP3    H128766   3.152   1.793   7.967  0.4707 -0.1487  0.6202
 2377TIP3    H228767   3.009   1.841   7.955  0.2812 -0.6756  0.7735
 2378TIP3   OH228768   0.909   5.342   7.739  0.0921 -0.1202 -0.2601
 2378TIP3    H128769   0.815   5.331   7.725  0.0959 -0.1042 -0.2990
 2378TIP3    H228770   0.926   5.298   7.822  0.6545 -3.1607 -1.8383
 2379TIP3   OH228771   1.187   1.770   0.442  0.3322 -0.0378  0.4113
 2379TIP3    H128772   1.201   1.846   0.498  2.5891 -0.0732 -0.0187
 2379TIP3    H228773   1.251   1.705   0.472 -1.4915 -1.7983  0.7324
 2380TIP3   OH228774   0.384   2.669   8.675  0.2784  0.6911 -0.4481
 2380TIP3    H128775   0.335   2.702   8.750 -2.6268 -2.2896 -0.7693
 2380TIP3    H228776   0.384   2.574   8.686  0.3642  0.1679 -3.8006
 2381TIP3   OH228777   2.753   1.420   1.104 -0.0249  0.0907 -0.1793
 2381TIP3    H128778   2.706   1.410   1.187  0.5605  2.9714  0.5931
 2381TIP3    H228779   2.690   1.393   1.038 -1.0327 -0.7928  1.0784
 2382TIP3   OH228780   6.631   1.441   8.006 -0.0018 -0.0000 -0.3989
 2382TIP3    H128781   6.575   1.383   7.954  0.2313 -1.3330  0.7799
 2382TIP3    H228782   6.615   1.415   8.096  0.9070  1.0831  0.0935
 2383TIP3   OH228783   6.718   5.312   1.962 -0.0883 -0.0065  0.6666
 2383TIP3    H128784   6.729   5.253   1.887 -0.0708  1.0575 -0.1906
 2383TIP3    H228785   6.676   5.258   2.029 -2.9253 -0.2530 -1.1279
 2384TIP3   OH228786   1.269   6.358   1.567 -0.4654 -0.1305 -0.2871
 2384TIP3    H128787   1.289   6.385   1.657 -0.3404 -1.7702  0.2117
 2384TIP3    H228788   1.347   6.310   1.538 -0.8622 -0.4024 -0.9381
 2385TIP3   OH228789   3.218   3.605   0.979 -0.2395  0.0352 -0.1971
 2385TIP3    H128790   3.263   3.686   1.004  2.1712 -1.2684 -0.0191
 2385TIP3    H228791   3.137   3.635   0.938 -0.2300  2.4837  1.3396
 2386TIP3   OH228792   5.637   4.285   7.995  0.3332 -0.1385  0.2044
 2386TIP3    H128793   5.581   4.256   8.067 -1.1831 -0.9771 -1.2339
 2386TIP3    H228794   5.582   4.347   7.946  1.1596  0.0542 -0.4938
 2387TIP3   OH228795   4.991   6.533   8.771 -0.2306 -0.7457  0.0542
 2387TIP3    H128796   5.030   6.449   8.747 -0.7792 -0.9664 -0.0780
 2387TIP3    H228797   4.985   6.530   8.866 -0.4675 -0.9583  0.0341
 2388TIP3   OH228798   5.788   4.919   7.944 -0.3014  0.0365  0.3415
 2388TIP3    H128799   5.734   4.966   8.007  0.2003 -0.1386  0.9108
 2388TIP3    H228800   5.727   4.859   7.900 -1.2037  2.0540 -1.2864
 2389TIP3   OH228801   2.659   3.568   0.790 -0.5862 -0.5732 -0.4862
 2389TIP3    H128802   2.725   3.605   0.732 -1.7466  1.4692 -0.6374
 2389TIP3    H228803   2.596   3.526   0.732 -0.3079 -1.0090 -0.4750
 2390TIP3   OH228804   2.851   5.736   7.830  0.3684 -0.6295 -0.5727
 2390TIP3    H128805   2.854   5.650   7.872 -1.0701 -0.2917  0.3023
 2390TIP3    H228806   2.931   5.779   7.860  0.0166 -0.8774  0.8301
 2391TIP3   OH228807   4.278   5.757   0.216 -0.0349  0.4479 -0.3360
 2391TIP3    H128808   4.316   5.845   0.218 -1.1783  0.9515  0.1957
 2391TIP3    H228809   4.341   5.703   0.265 -0.1951  1.3613  0.9394
 2392TIP3   OH228810   0.702   1.473   0.328 -0.1458  0.7253 -0.1364
 2392TIP3    H128811   0.725   1.411   0.397 -1.6835  0.4231  0.1264
 2392TIP3    H228812   0.627   1.521   0.362 -1.2150  0.2907 -1.7392
 2393TIP3   OH228813   1.003   3.043   0.735  0.4983  0.2182 -0.1467
 2393TIP3    H128814   1.097   3.025   0.737  0.4266 -0.6629 -2.2011
 2393TIP3    H228815   0.962   2.957   0.723 -0.6563  0.4954  1.4421
 2394TIP3   OH228816   2.611   3.476   7.918  0.5408  0.4393 -0.1267
 2394TIP3    H128817   2.560   3.457   7.839 -0.5742  0.7894  0.4787
 2394TIP3    H228818   2.650   3.392   7.941  0.7935  0.3100 -0.9784
 2395TIP3   OH228819   6.589   5.947   0.430 -0.2711 -0.0333 -0.7126
 2395TIP3    H128820   6.526   5.875   0.435  0.1897 -0.5312 -1.7595
 2395TIP3    H228821   6.664   5.918   0.482 -0.3455 -0.0193 -0.5955
 2396TIP3   OH228822   3.474   4.107   7.536 -0.4170 -0.5396  0.2554
 2396TIP3    H128823   3.509   4.034   7.484 -0.3971 -0.4081  0.0810
 2396TIP3    H228824   3.401   4.069   7.585 -0.2995 -0.7158  0.2926
 2397TIP3   OH228825   0.337   2.475   0.382  0.4658 -0.0919  0.0922
 2397TIP3    H128826   0.374   2.563   0.383  0.8702 -0.2496 -0.5281
 2397TIP3    H228827   0.410   2.418   0.404  0.1473 -0.2597  0.7427
 2398TIP3   OH228828   6.242   5.940   7.298 -0.3781 -0.3261  0.8772
 2398TIP3    H128829   6.217   5.884   7.224 -0.2807 -1.2295  1.5158
 2398TIP3    H228830   6.253   5.880   7.371  1.3227  0.3279  1.2038
 2399TIP3   OH228831   5.598   2.184   7.644  0.2590 -0.0909 -0.0397
 2399TIP3    H128832   5.563   2.251   7.703  0.2657  0.4880 -0.6779
 2399TIP3    H228833   5.615   2.231   7.563  1.4187 -0.6189 -0.1123
 2400TIP3   OH228834   1.960   2.879   1.285  0.4570  0.8972  0.3675
 2400TIP3    H128835   2.002   2.818   1.224  1.4395  1.0593  0.8560
 2400TIP3    H228836   1.922   2.946   1.229 -0.0271  0.2107 -0.1390
 2401TIP3   OH228837   5.058   1.085   1.090 -1.0103 -0.1149 -0.0751
 2401TIP3    H128838   4.975   1.094   1.043 -1.6323 -2.5938  0.3948
 2401TIP3    H228839   5.125   1.094   1.023 -1.7505 -0.2632 -0.8507
 2402TIP3   OH228840   5.479   3.203   8.660  0.5020 -0.0913 -0.2519
 2402TIP3    H128841   5.419   3.131   8.681  0.4437  0.0211 -0.0319
 2402TIP3    H228842   5.472   3.263   8.734  1.5453 -0.4952  0.1897
 2403TIP3   OH228843   5.868   2.977   0.096 -0.6133  0.5059 -0.5603
 2403TIP3    H128844   5.839   3.011   0.011  0.2542  3.1790  0.1206
 2403TIP3    H228845   5.789   2.977   0.150 -0.8715  0.1943 -0.9270
 2404TIP3   OH228846   4.238   6.008   1.278  0.0530 -0.1721 -0.1595
 2404TIP3    H128847   4.160   6.029   1.328 -0.4899 -0.5810 -0.8174
 2404TIP3    H228848   4.306   6.067   1.313 -0.8759  1.1411 -0.4863
 2405TIP3   OH228849   5.998   6.456   1.770  0.0621 -0.1139 -0.5561
 2405TIP3    H128850   6.009   6.527   1.832 -1.0048 -0.4682  0.0661
 2405TIP3    H228851   5.946   6.391   1.816  0.9948 -1.3052 -1.1220
 2406TIP3   OH228852   3.219   4.668   7.254 -0.0652 -0.3064  0.1184
 2406TIP3    H128853   3.249   4.610   7.184  3.6352  0.3348  0.9514
 2406TIP3    H228854   3.125   4.678   7.239  0.3162 -1.1945 -3.9880
 2407TIP3   OH228855   4.968   3.469   1.537  0.5133 -0.1307 -0.3074
 2407TIP3    H128856   5.043   3.527   1.550 -0.1849  1.3483 -2.3787
 2407TIP3    H228857   4.945   3.480   1.444 -2.3635 -0.3652  0.2897
 2408TIP3   OH228858   0.764   0.774   7.945 -0.3155  0.1310 -0.4976
 2408TIP3    H128859   0.855   0.752   7.928 -0.4396 -0.3756 -0.5408
 2408TIP3    H228860   0.739   0.715   8.017 -0.6452  0.1679 -0.5806
 2409TIP3   OH228861   6.706   4.454   2.729 -0.4176  0.3419 -0.0768
 2409TIP3    H128862   6.631   4.397   2.711  0.5458 -0.7741 -0.6746
 2409TIP3    H228863   6.772   4.428   2.664  0.3859  1.5056  0.2443
 2410TIP3   OH228864   1.238   6.732   7.430  0.1990 -0.2051 -0.1073
 2410TIP3    H128865   1.256   6.643   7.461 -3.1126 -1.1282 -0.3918
 2410TIP3    H228866   1.292   6.742   7.352  1.7678 -1.3652  0.7732
 2411TIP3   OH228867   3.857   3.445   0.384  0.2221 -0.3604 -0.4259
 2411TIP3    H128868   3.929   3.429   0.323  0.8882  2.2735 -0.4521
 2411TIP3    H228869   3.778   3.425   0.333  0.8504 -0.5264 -1.3634
 2412TIP3   OH228870   5.790   1.476   8.645 -0.4270  0.0762 -0.2375
 2412TIP3    H128871   5.854   1.482   8.716 -1.5196 -0.8224  0.8757
 2412TIP3    H228872   5.712   1.521   8.678 -0.1986  1.7727 -1.8500
 2413TIP3   OH228873   2.139   5.968   0.713 -0.8472 -0.3436  0.3542
 2413TIP3    H128874   2.093   6.039   0.668 -0.5361  0.7851  1.7264
 2413TIP3    H228875   2.073   5.930   0.771 -0.5048  0.1287  1.0560
 2414TIP3   OH228876   1.212   6.425   7.160  0.1081 -0.8516  0.3091
 2414TIP3    H128877   1.126   6.442   7.198 -0.8759 -1.7334 -1.4302
 2414TIP3    H228878   1.237   6.507   7.118 -0.5151 -0.9968 -0.3529
 2415TIP3   OH228879   5.880   3.680   0.881  0.1278 -0.0573 -0.4444
 2415TIP3    H128880   5.891   3.605   0.822  0.6489  0.6604 -1.2938
 2415TIP3    H228881   5.945   3.666   0.950  0.2226 -0.3881 -0.6005
 2416TIP3   OH228882   1.361   3.553   1.788 -0.0917  0.1549 -0.9020
 2416TIP3    H128883   1.444   3.506   1.776 -0.2382 -0.7627  1.1918
 2416TIP3    H228884   1.369   3.593   1.874 -1.1256  1.6143 -1.4627
 2417TIP3   OH228885   3.212   1.539   0.561  0.3672 -0.0318 -0.2581
 2417TIP3    H128886   3.258   1.619   0.584  0.9834 -0.4937  0.1318
 2417TIP3    H228887   3.120   1.558   0.578  0.7293 -0.1944  2.1851
 2418TIP3   OH228888   0.539   3.778   0.008  0.0795 -0.0989  0.3136
 2418TIP3    H128889   0.622   3.822   0.021  1.1383 -1.8404 -0.1628
 2418TIP3    H228890   0.536   3.712   0.077 -1.8235  1.1477  1.5069
 2419TIP3   OH228891   0.318   3.586   8.713 -0.2524 -0.3012  0.6561
 2419TIP3    H128892   0.338   3.524   8.783  1.6049 -0.1337  0.3073
 2419TIP3    H228893   0.351   3.670   8.745 -1.2081  0.1831  0.4047
 2420TIP3   OH228894   6.068   6.294   7.772  0.2633  0.5268 -0.0411
 2420TIP3    H128895   5.975   6.270   7.776  0.2343  0.7815  2.1135
 2420TIP3    H228896   6.097   6.264   7.686 -1.2228 -1.7204  0.1611
 2421TIP3   OH228897   6.791   1.796   8.610 -0.3225  0.1199  0.2782
 2421TIP3    H128898   6.859   1.769   8.673  0.3336 -1.6440 -1.0939
 2421TIP3    H228899   6.837   1.854   8.549 -0.5541  0.5478  0.5131
 2422TIP3   OH228900   3.383   1.248   6.405 -0.0618 -0.1891 -0.5708
 2422TIP3    H128901   3.313   1.194   6.368  1.6636 -2.0734 -1.2972
 2422TIP3    H228902   3.434   1.188   6.459  0.8836  1.1741  0.1299
 2423TIP3   OH228903   5.076   2.589   7.106 -0.0220 -0.1149  0.0557
 2423TIP3    H128904   5.066   2.498   7.133 -0.8972 -0.0547 -0.0366
 2423TIP3    H228905   5.147   2.588   7.041  1.1225 -0.4679  1.2699
 2424TIP3   OH228906   0.665   3.990   7.397  0.7100 -0.6278 -0.0755
 2424TIP3    H128907   0.678   4.077   7.360  2.2308 -0.9466 -0.3505
 2424TIP3    H228908   0.590   4.000   7.455  1.9292  1.3066  1.2754
 2425TIP3   OH228909   4.467   6.001   0.524 -0.8515 -0.0594 -1.0306
 2425TIP3    H128910   4.422   6.077   0.560  2.3176  1.7171 -0.3762
 2425TIP3    H228911   4.422   5.925   0.561 -2.4814  1.5543  0.4562
 2426TIP3   OH228912   6.129   6.410   0.972 -0.4817  0.5101  0.3596
 2426TIP3    H128913   6.223   6.417   0.953 -0.3478 -2.6474 -0.5951
 2426TIP3    H228914   6.103   6.500   0.992  2.7023  1.5248  0.5764
 2427TIP3   OH228915   3.285   1.557   0.267 -0.1587 -0.2174  0.1047
 2427TIP3    H128916   3.232   1.561   0.347 -0.5892 -1.1005 -0.1247
 2427TIP3    H228917   3.259   1.475   0.225 -0.6463  0.6868 -1.4337
 2428TIP3   OH228918   1.339   2.385   2.088 -0.0458  0.1844  0.3394
 2428TIP3    H128919   1.391   2.451   2.135 -0.0660  1.4448 -1.3189
 2428TIP3    H228920   1.398   2.311   2.077  0.0829  0.0016  1.9632
 2429TIP3   OH228921   5.161   3.837   7.208 -0.0432  0.1499 -0.5297
 2429TIP3    H128922   5.216   3.903   7.251  1.0252  0.6109 -2.4686
 2429TIP3    H228923   5.149   3.769   7.274  1.6078  0.7538  0.4565
 2430TIP3   OH228924   1.376   2.277   7.418  0.1460  0.1397  0.2488
 2430TIP3    H128925   1.311   2.257   7.485 -0.9709  1.1738 -0.4901
 2430TIP3    H228926   1.411   2.362   7.443  1.9507 -0.7954  1.1525
 2431TIP3   OH228927   2.084   5.529   0.828 -0.1420  0.3509  0.1583
 2431TIP3    H128928   2.126   5.463   0.774 -0.3555  0.6125 -0.3410
 2431TIP3    H228929   2.003   5.488   0.857 -1.1718  0.9793 -1.6351
 2432TIP3   OH228930   0.813   4.151   1.693 -0.1052  0.2294  0.5229
 2432TIP3    H128931   0.773   4.126   1.610 -0.4965  1.2044  0.4066
 2432TIP3    H228932   0.816   4.070   1.744 -0.7112 -0.1879 -0.0913
 2433TIP3   OH228933   0.263   5.459   7.408 -0.3884 -0.0276  0.6167
 2433TIP3    H128934   0.338   5.399   7.407 -0.0376  0.3995  0.7565
 2433TIP3    H228935   0.263   5.500   7.322  2.0403  2.9729  1.8321
 2434TIP3   OH228936   2.480   1.819   8.322 -0.1937  0.8475 -0.2934
 2434TIP3    H128937   2.551   1.757   8.311  1.4091  2.4330  0.5931
 2434TIP3    H228938   2.447   1.803   8.411 -1.7469 -0.6218 -1.0851
 2435TIP3   OH228939   4.292   2.405   8.016  0.3719 -0.3229 -0.0359
 2435TIP3    H128940   4.305   2.485   7.965  2.6662 -1.0343 -0.7200
 2435TIP3    H228941   4.363   2.406   8.081 -0.1535 -1.3347  0.5922
 2436TIP3   OH228942   2.573   3.985   7.898  0.2918  0.3608 -0.4155
 2436TIP3    H128943   2.502   3.930   7.929  1.3311 -0.2602  0.9682
 2436TIP3    H228944   2.630   3.926   7.849 -0.1749  0.8783 -1.6255
 2437TIP3   OH228945   6.371   1.419   8.545 -0.1160  0.4143  0.3557
 2437TIP3    H128946   6.390   1.326   8.532  1.1622  0.4669  1.6268
 2437TIP3    H228947   6.457   1.459   8.559 -0.8469  1.3102  2.6969
 2438TIP3   OH228948   0.973   4.962   8.630  0.2786  0.4583 -0.1722
 2438TIP3    H128949   1.039   4.912   8.582 -0.3120  0.4263 -0.9603
 2438TIP3    H228950   1.002   5.053   8.625  0.4229  0.4075 -0.2430
 2439TIP3   OH228951   0.525   5.908   0.442  0.2446  0.2709 -0.1672
 2439TIP3    H128952   0.566   5.850   0.507  1.4531  0.5451 -0.6694
 2439TIP3    H228953   0.582   5.984   0.437 -0.3697  0.7066 -0.8402
 2440TIP3   OH228954   5.121   0.805   7.092  0.0363  0.0817 -0.0904
 2440TIP3    H128955   5.196   0.750   7.070  1.1344  1.1436  0.8110
 2440TIP3    H228956   5.122   0.875   7.026 -1.1113 -0.7186 -0.9946
 2441TIP3   OH228957   2.003   1.303   7.534 -0.2358 -0.1834  1.0514
 2441TIP3    H128958   2.061   1.372   7.566 -0.2465  0.1934  0.2768
 2441TIP3    H228959   1.916   1.327   7.568 -0.1010 -0.2594  1.4558
 2442TIP3   OH228960   2.470   3.331   8.154 -0.2804 -0.3825 -0.4975
 2442TIP3    H128961   2.386   3.313   8.111 -1.3793  0.5458  1.1446
 2442TIP3    H228962   2.534   3.334   8.083 -1.6196 -1.1781 -1.7822
 2443TIP3   OH228963   2.047   2.213   0.644  0.0692 -0.0865 -0.2389
 2443TIP3    H128964   2.109   2.285   0.635  1.4259 -1.0789  0.8205
 2443TIP3    H228965   1.971   2.252   0.687  0.6775  0.7645  0.0950
 2444TIP3   OH228966   0.329   1.346   1.868 -0.9914  0.4631  0.3977
 2444TIP3    H128967   0.376   1.306   1.941 -0.1092  2.3545  0.9309
 2444TIP3    H228968   0.335   1.440   1.885 -1.6686  0.9044 -1.5839
 2445TIP3   OH228969   4.183   5.484   1.564  0.0926 -0.7434  0.1977
 2445TIP3    H128970   4.249   5.553   1.553 -0.5261  0.1771  1.8802
 2445TIP3    H228971   4.119   5.522   1.624 -0.4087 -2.6957  0.9755
 2446TIP3   OH228972   3.909   3.225   0.087  0.2189  0.0111  0.3669
 2446TIP3    H128973   3.883   3.189   0.003  0.1975 -0.0459  0.3977
 2446TIP3    H228974   3.827   3.253   0.128  0.1241 -0.8398  0.7731
 2447TIP3   OH228975   1.992   1.058   2.984 -0.5983 -0.1024 -0.3388
 2447TIP3    H128976   1.945   1.142   2.987  0.1489  0.3441 -0.7559
 2447TIP3    H228977   1.949   1.004   3.050  0.8639  1.6696  2.2962
 2448TIP3   OH228978   2.393   4.008   1.258 -0.0853  0.1809  0.8254
 2448TIP3    H128979   2.315   3.954   1.243  0.4020 -0.3916  0.2663
 2448TIP3    H228980   2.372   4.061   1.334 -0.6028 -0.7732  1.3675
 2449TIP3   OH228981   4.949   5.084   8.084  0.2479 -0.7870 -0.0303
 2449TIP3    H128982   4.897   5.005   8.074  0.3811 -0.7752 -0.9432
 2449TIP3    H228983   5.038   5.052   8.101  0.1958 -0.8261  0.1691
 2450TIP3   OH228984   5.619   2.436   1.225  0.1468  0.3151  0.1408
 2450TIP3    H128985   5.627   2.532   1.231  2.4499  0.0821  2.4207
 2450TIP3    H228986   5.650   2.416   1.136 -0.5775  1.6522 -0.4618
 2451TIP3   OH228987   2.805   3.781   0.096  0.0946  0.3062 -0.9164
 2451TIP3    H128988   2.792   3.696   0.137  0.2229  0.4739 -0.5196
 2451TIP3    H228989   2.863   3.764   0.022  0.7492  0.1651 -0.3794
 2452TIP3   OH228990   3.014   6.158   7.760 -0.6771 -0.3219 -0.0533
 2452TIP3    H128991   3.056   6.243   7.748 -0.6374 -0.5108 -1.3511
 2452TIP3    H228992   3.071   6.096   7.716 -1.5900 -0.7749 -0.6367
 2453TIP3   OH228993   1.014   0.233   2.842  0.5526  0.1185  0.0914
 2453TIP3    H128994   0.957   0.169   2.885 -0.4947  0.9059 -0.0780
 2453TIP3    H228995   0.992   0.316   2.883  0.6889  0.6289 -0.8366
 2454TIP3   OH228996   0.022   4.628   0.493  0.0122  0.3663 -0.3316
 2454TIP3    H128997   0.012   4.539   0.460  0.7552 -0.0047  0.3875
 2454TIP3    H228998  -0.045   4.678   0.448  0.1083 -0.3857 -1.3590
 2455TIP3   OH228999   0.046   3.604   0.479  0.2239 -0.0643  0.4775
 2455TIP3    H129000   0.003   3.524   0.509  0.0952 -0.3578 -0.4457
 2455TIP3    H229001  -0.024   3.653   0.434  0.5861 -0.0381 -0.0740
 2456TIP3   OH229002   4.205   3.875   0.530 -0.1379 -0.3625  0.8859
 2456TIP3    H129003   4.116   3.853   0.558  0.3481 -1.0846  1.9302
 2456TIP3    H229004   4.232   3.801   0.476  0.5111 -1.0849  2.1588
 2457TIP3   OH229005   0.678   0.982   6.514 -0.5752  0.0442 -0.4642
 2457TIP3    H129006   0.766   0.998   6.548 -1.7035  0.6334  2.4952
 2457TIP3    H229007   0.687   0.993   6.420  2.4524  0.3414 -0.2524
 2458TIP3   OH229008   0.411   3.301   2.653  0.3582 -0.2973  0.2373
 2458TIP3    H129009   0.370   3.281   2.737 -0.5237 -0.8962 -0.3141
 2458TIP3    H229010   0.376   3.387   2.629  1.9295  0.6783  1.2565
 2459TIP3   OH229011   1.917   0.169   0.133 -0.3620 -0.8807  0.1779
 2459TIP3    H129012   1.921   0.075   0.114  0.5955 -0.8395  0.1061
 2459TIP3    H229013   1.906   0.174   0.228 -1.8777 -1.0607  0.0385
 2460TIP3   OH229014   5.057   5.978   0.274  0.0938  0.2471  0.3729
 2460TIP3    H129015   4.975   5.956   0.231  0.6929 -2.1038  0.3159
 2460TIP3    H229016   5.090   6.054   0.225  0.7244 -2.2133 -3.4843
 2461TIP3   OH229017   0.391   0.022   1.613 -1.1552  0.0954 -0.3026
 2461TIP3    H129018   0.344   0.093   1.569 -2.7458 -1.1848 -0.7992
 2461TIP3    H229019   0.328  -0.051   1.613  0.1898 -1.1148  0.7364
 2462TIP3   OH229020   6.560   5.415   1.107  0.2737 -0.3087 -0.5586
 2462TIP3    H129021   6.625   5.462   1.160 -1.3085 -1.3803  2.5733
 2462TIP3    H229022   6.521   5.483   1.052  0.8294  1.2508  0.8911
 2463TIP3   OH229023   5.794   5.142   7.730 -0.0289 -0.1958  0.1245
 2463TIP3    H129024   5.728   5.192   7.683 -0.0701  0.4164  0.8215
 2463TIP3    H229025   5.758   5.131   7.818  0.2181 -0.9906  0.1339
 2464TIP3   OH229026   1.488   1.505   8.674  0.0057 -0.0490 -0.1587
 2464TIP3    H129027   1.404   1.514   8.718 -0.3820 -4.4299  0.4872
 2464TIP3    H229028   1.553   1.507   8.745  0.3990  2.0175 -0.5187
 2465TIP3   OH229029   5.744   2.546   0.947  0.0198 -0.5354 -0.4406
 2465TIP3    H129030   5.740   2.451   0.937 -0.6905 -0.4250 -1.3693
 2465TIP3    H229031   5.683   2.580   0.882 -2.4681  0.4372  2.1801
 2466TIP3   OH229032   5.137   1.973   0.665  0.2073 -0.3843 -0.0623
 2466TIP3    H129033   5.096   1.888   0.647 -0.3541  0.1155 -1.2506
 2466TIP3    H229034   5.230   1.953   0.674  0.2670 -0.9978 -1.6042
 2467TIP3   OH229035   5.664   1.802   0.646  0.1198  0.5631 -0.0995
 2467TIP3    H129036   5.703   1.878   0.603 -0.1736  0.8856  0.2023
 2467TIP3    H229037   5.661   1.825   0.738 -0.3582  0.3513 -0.0599
 2468TIP3   OH229038   4.257   1.806   7.733 -0.2747  0.1830  0.2522
 2468TIP3    H129039   4.183   1.852   7.772 -1.0838 -1.0454  0.2243
 2468TIP3    H229040   4.225   1.778   7.647 -0.0793 -1.0657  0.5614
 2469TIP3   OH229041   6.459   5.835   0.915  0.0030 -0.2319  0.4028
 2469TIP3    H129042   6.459   5.926   0.885  0.8574 -0.0056  1.0557
 2469TIP3    H229043   6.401   5.836   0.991  1.4922  0.1984  1.5843
 2470TIP3   OH229044   1.369   1.098   7.749 -0.0818  0.5544 -0.3085
 2470TIP3    H129045   1.302   1.061   7.692  2.7883 -0.6243 -3.1691
 2470TIP3    H229046   1.339   1.187   7.766 -2.1775  0.1904 -1.7061
 2471TIP3   OH229047   3.139   5.371   7.341 -0.1225  0.4948  0.1145
 2471TIP3    H129048   3.127   5.278   7.322 -3.4654  0.4056  1.8286
 2471TIP3    H229049   3.119   5.415   7.258  1.3372 -0.2497 -0.6647
 2472TIP3   OH229050   3.452   4.495   1.683  0.2584  0.1493  0.7863
 2472TIP3    H129051   3.505   4.574   1.676  0.5264  0.1024  2.1550
 2472TIP3    H229052   3.389   4.513   1.753 -1.0229 -0.0993 -0.2604
 2473TIP3   OH229053   3.208   4.865   8.518 -0.2577  0.1889  0.4069
 2473TIP3    H129054   3.276   4.898   8.577  0.4378 -0.8783  0.2387
 2473TIP3    H229055   3.197   4.774   8.543 -0.1243 -0.2248 -0.9385
 2474TIP3   OH229056   5.318   5.439   7.955  0.2409 -0.5623  0.3012
 2474TIP3    H129057   5.323   5.530   7.927 -0.5268 -0.6286 -0.0821
 2474TIP3    H229058   5.312   5.443   8.050  2.9334 -0.3296  0.5563
 2475TIP3   OH229059   0.735   0.206   1.223  0.5162  0.1554  0.2007
 2475TIP3    H129060   0.714   0.275   1.160 -0.1176 -0.9975 -0.8960
 2475TIP3    H229061   0.780   0.251   1.294  1.2981  1.4909 -1.0946
 2476TIP3   OH229062   3.416   3.892   2.235 -0.4661  0.1968  0.6094
 2476TIP3    H129063   3.392   3.979   2.204 -0.0604  0.3943  0.8365
 2476TIP3    H229064   3.348   3.869   2.298 -1.7916 -0.5730 -1.0111
 2477TIP3   OH229065   3.891   0.844   8.223  0.1541  0.1412  0.4220
 2477TIP3    H129066   3.807   0.838   8.268 -0.6542  1.4225 -0.8223
 2477TIP3    H229067   3.930   0.926   8.256  0.7958 -0.2925  0.7705
 2478TIP3   OH229068   2.798   3.802   7.770  0.3285  0.0950  0.2413
 2478TIP3    H129069   2.786   3.758   7.854  0.5125 -0.7703 -0.1684
 2478TIP3    H229070   2.749   3.748   7.708  1.4512 -0.1563 -0.4575
 2479TIP3   OH229071   3.811   2.080   7.191  0.3116  0.5848 -0.5391
 2479TIP3    H129072   3.827   2.166   7.229  0.2495 -0.0405  0.9947
 2479TIP3    H229073   3.849   2.019   7.254 -1.1035 -0.5779 -0.7596
 2480TIP3   OH229074   2.685   1.137   8.175  0.0207 -0.5242 -0.3979
 2480TIP3    H129075   2.601   1.135   8.128 -1.6866 -1.8560  2.4129
 2480TIP3    H229076   2.693   1.228   8.204  0.4345 -0.0013 -2.0618
 2481TIP3   OH229077   6.344   0.417   1.497  0.0742 -0.0346 -0.1717
 2481TIP3    H129078   6.428   0.395   1.538  0.9905  1.2954 -1.2454
 2481TIP3    H229079   6.362   0.416   1.403 -1.1561  0.1473 -0.4248
 2482TIP3   OH229080   4.487   2.516   1.716  0.0301  0.2232  0.0759
 2482TIP3    H129081   4.525   2.437   1.678  0.1088 -0.1580  0.9221
 2482TIP3    H229082   4.514   2.513   1.808  0.9030  1.7482 -0.0887
 2483TIP3   OH229083   2.154   2.912   7.190 -0.3573  0.7546  0.0003
 2483TIP3    H129084   2.096   2.888   7.262 -0.5873  2.1238  0.3033
 2483TIP3    H229085   2.113   2.874   7.112 -0.9828  0.6253  0.3891
 2484TIP3   OH229086   4.568   2.310   7.159  0.4866 -0.2021 -0.3189
 2484TIP3    H129087   4.560   2.229   7.209 -0.2968  1.1177  1.8336
 2484TIP3    H229088   4.478   2.334   7.137  0.4604  1.3992  1.3669
 2485TIP3   OH229089   1.681   5.074   0.583 -0.1967 -0.0844 -0.2243
 2485TIP3    H129090   1.705   5.029   0.501 -2.8334 -2.9037  0.3576
 2485TIP3    H229091   1.617   5.140   0.556 -0.4094 -0.4237 -0.5741
 2486TIP3   OH229092   4.372   4.000   1.034 -0.1748  0.3582 -0.2478
 2486TIP3    H129093   4.295   3.985   0.979  0.3344 -0.0853 -0.8535
 2486TIP3    H229094   4.382   4.096   1.035  1.7736  0.3637 -3.7669
 2487TIP3   OH229095   0.056   1.832   1.038 -0.1177 -0.5790 -0.3014
 2487TIP3    H129096   0.044   1.749   1.083 -0.0389 -0.7821 -0.6568
 2487TIP3    H229097   0.083   1.893   1.107  0.1934 -0.9345 -0.1040
 2488TIP3   OH229098   1.368   3.464   2.104 -0.1052  0.1800 -0.0047
 2488TIP3    H129099   1.392   3.549   2.141  0.5968 -0.1463  0.3049
 2488TIP3    H229100   1.307   3.426   2.167  1.0030 -0.3280  0.8040
 2489TIP3   OH229101   2.129   2.663   7.805 -0.1394  0.2705 -0.6861
 2489TIP3    H129102   2.096   2.753   7.801 -1.1560 -0.0751 -0.2298
 2489TIP3    H229103   2.054   2.610   7.831  1.0818 -0.3192  2.0507
 2490TIP3   OH229104   2.431   1.356   0.687  0.5037  0.1179  0.2983
 2490TIP3    H129105   2.409   1.288   0.623 -2.8282  1.1603  0.1753
 2490TIP3    H229106   2.356   1.359   0.747  1.8161  1.7917  1.9978
 2491TIP3   OH229107   5.960   2.200   0.527  0.3454  0.2057  0.7783
 2491TIP3    H129108   6.051   2.198   0.556 -0.1331  0.6580  2.4139
 2491TIP3    H229109   5.964   2.232   0.437  1.9820 -2.1635 -0.1007
 2492TIP3   OH229110   4.478   6.781   0.247  0.0809 -0.1514  0.0303
 2492TIP3    H129111   4.404   6.721   0.256  0.3437 -0.4436  0.2407
 2492TIP3    H229112   4.438   6.868   0.244 -0.2754 -0.3137  0.0616
 2493TIP3   OH229113   1.762   2.042   7.171 -0.5989 -0.5534  0.6073
 2493TIP3    H129114   1.761   1.952   7.204 -1.3198 -1.1212 -0.8914
 2493TIP3    H229115   1.687   2.048   7.113  0.1865  0.6287 -0.3484
 2494TIP3   OH229116   6.531   0.893   6.894  0.3002 -0.0547  0.1949
 2494TIP3    H129117   6.592   0.967   6.900 -0.5476  0.6353  0.5134
 2494TIP3    H229118   6.566   0.840   6.822  1.4950  0.1050  0.6221
 2495TIP3   OH229119   5.637   0.890   1.516 -0.2675 -0.5408  0.0551
 2495TIP3    H129120   5.733   0.886   1.509 -0.2517 -0.2661  0.1036
 2495TIP3    H229121   5.605   0.835   1.444 -0.0851  0.0445 -0.4771
 2496TIP3   OH229122   5.472   6.645   6.816 -0.4813 -0.0449  0.3152
 2496TIP3    H129123   5.480   6.722   6.760 -0.1403  1.0045  1.7409
 2496TIP3    H229124   5.412   6.587   6.769 -2.5098  2.0263  0.1852
 2497TIP3   OH229125   1.773   5.777   6.821 -0.0886 -0.5311  0.0594
 2497TIP3    H129126   1.781   5.793   6.727 -0.5194 -0.4044  0.0439
 2497TIP3    H229127   1.839   5.710   6.839 -1.2556 -1.9279 -0.6738
 2498TIP3   OH229128   0.470   6.399   7.526  0.5716  0.7252 -0.5324
 2498TIP3    H129129   0.540   6.422   7.587 -0.1364 -0.8028  0.9286
 2498TIP3    H229130   0.514   6.351   7.456  0.8744 -1.8085  1.2601
 2499TIP3   OH229131   4.606   5.800   8.336  0.4028  0.0572 -0.1108
 2499TIP3    H129132   4.668   5.760   8.398 -0.0051  0.6780  0.7210
 2499TIP3    H229133   4.530   5.743   8.338  0.8444 -0.5873 -0.9702
 2500TIP3   OH229134   1.641   0.290   1.477  0.2776 -0.4072 -0.0988
 2500TIP3    H129135   1.691   0.328   1.550 -0.1821  0.6944 -0.3377
 2500TIP3    H229136   1.552   0.284   1.509  0.4205 -1.7616  0.0939
 2501TIP3   OH229137   1.076   6.251   0.575 -0.0512 -0.4481 -0.0207
 2501TIP3    H129138   1.074   6.281   0.484 -1.9888  1.2830  0.5217
 2501TIP3    H229139   1.007   6.301   0.619  1.0110 -1.0176  2.4907
 2502TIP3   OH229140   3.704   6.639   6.411 -0.2952  0.1828  0.0516
 2502TIP3    H129141   3.674   6.661   6.500 -0.4750  1.9764 -0.4168
 2502TIP3    H229142   3.793   6.673   6.407 -0.1836 -0.1540 -0.3723
 2503TIP3   OH229143   3.136   6.716   1.229 -0.8601  0.1827  0.3634
 2503TIP3    H129144   3.149   6.790   1.170 -0.3657 -0.9946 -1.0638
 2503TIP3    H229145   3.058   6.672   1.196 -0.7334 -0.3452  0.7475
 2504TIP3   OH229146   1.376   1.868   8.439 -0.2554 -0.1829  0.1246
 2504TIP3    H129147   1.450   1.808   8.452  0.3963 -0.0211 -2.2806
 2504TIP3    H229148   1.302   1.811   8.420  0.6163 -0.4154 -3.3878
 2505TIP3   OH229149   2.738   6.794   7.224  0.1535 -0.0105  0.0686
 2505TIP3    H129150   2.667   6.729   7.232 -0.7625  0.8391 -0.8660
 2505TIP3    H229151   2.769   6.784   7.133  1.1017 -0.2193  0.4011
 2506TIP3   OH229152   1.966   3.363   6.924 -0.3621  0.3125  0.2458
 2506TIP3    H129153   1.976   3.402   7.011  0.7637  2.3361 -0.7095
 2506TIP3    H229154   1.872   3.362   6.909 -0.5634  0.0885  1.3909
 2507TIP3   OH229155   4.358   2.105   8.114  0.4074 -0.0585 -0.2670
 2507TIP3    H129156   4.309   2.118   8.032 -1.2894 -2.4309  0.2539
 2507TIP3    H229157   4.442   2.068   8.086  0.0273 -0.4060 -0.9776
 2508TIP3   OH229158   2.608   2.969   1.528  0.0938  0.3888  0.3420
 2508TIP3    H129159   2.668   2.906   1.568  0.6904 -0.6302 -1.9914
 2508TIP3    H229160   2.661   3.047   1.512 -0.2638  0.9751  1.8638
 2509TIP3   OH229161   4.654   4.477   7.185  0.3090  0.0362 -0.5527
 2509TIP3    H129162   4.631   4.387   7.162  1.1967 -0.3438 -0.0105
 2509TIP3    H229163   4.620   4.529   7.113 -0.3553 -0.7138 -0.8016
 2510TIP3   OH229164   1.399   3.355   7.078 -0.1864 -0.2367  0.1084
 2510TIP3    H129165   1.419   3.421   7.011 -0.7930  0.8283  0.9663
 2510TIP3    H229166   1.439   3.275   7.044  0.7424  0.6034 -0.8553
 2511TIP3   OH229167   2.509   2.391   8.278 -0.6560 -0.1963 -0.4900
 2511TIP3    H129168   2.463   2.433   8.205  0.5278  1.2580 -0.4575
 2511TIP3    H229169   2.511   2.298   8.255  0.7607  0.3555 -2.9931
 2512TIP3   OH229170   4.479   1.227   1.497 -0.4703 -0.0594  0.4350
 2512TIP3    H129171   4.434   1.154   1.540 -2.4230  1.1376  0.5409
 2512TIP3    H229172   4.547   1.253   1.559 -1.4930 -0.0845  1.5837
 2513TIP3   OH229173   2.900   2.081   1.077  0.0660 -0.2757 -0.1528
 2513TIP3    H129174   2.829   2.141   1.054  0.8957  1.0004  0.4802
 2513TIP3    H229175   2.957   2.079   1.000  0.7116  0.8003  0.2717
 2514TIP3   OH229176   2.247   0.368   7.079  0.1630  0.3317  0.0811
 2514TIP3    H129177   2.153   0.354   7.077  0.2647 -0.3250 -0.9488
 2514TIP3    H229178   2.258   0.462   7.098 -0.6717  0.2757  0.8600
 2515TIP3   OH229179   4.891   0.491   8.626 -0.3792  0.4498  0.2623
 2515TIP3    H129180   4.873   0.414   8.679 -1.8840  1.2443  0.9792
 2515TIP3    H229181   4.874   0.463   8.536  0.4672 -0.4193  0.3542
 2516TIP3   OH229182   5.042   6.419   5.911 -0.1601 -0.3269 -0.0339
 2516TIP3    H129183   5.080   6.335   5.937  0.1760 -0.5529 -1.1851
 2516TIP3    H229184   5.100   6.451   5.843 -0.3899  0.7652  0.2727
 2517TIP3   OH229185   5.880   2.113   1.534 -0.6681 -0.1227 -0.1531
 2517TIP3    H129186   5.864   2.099   1.628 -0.2711  0.7508  0.0514
 2517TIP3    H229187   5.976   2.115   1.526 -0.6932 -0.7076 -0.6604
 2518TIP3   OH229188   2.191   4.398   7.765 -0.4149  0.2666  0.1006
 2518TIP3    H129189   2.255   4.371   7.699  0.9473  0.2386  1.3957
 2518TIP3    H229190   2.132   4.457   7.718 -1.0172 -1.7056 -1.7734
 2519TIP3   OH229191   2.194   0.756   8.783 -0.2738 -0.1219 -0.6142
 2519TIP3    H129192   2.220   0.711   8.703  0.6807 -2.0761  0.7163
 2519TIP3    H229193   2.218   0.847   8.768  2.3800 -0.8975 -1.5789
 2520TIP3   OH229194   4.475   4.201   7.693 -0.0651 -0.0103 -0.7568
 2520TIP3    H129195   4.504   4.152   7.616  0.1715 -1.2015  0.0660
 2520TIP3    H229196   4.450   4.134   7.757 -0.8960  0.9583 -0.0240
 2521TIP3   OH229197   3.764   0.075   8.664 -0.3746  0.2218 -0.6988
 2521TIP3    H129198   3.687   0.029   8.629  0.5035 -1.2920 -0.7609
 2521TIP3    H229199   3.743   0.093   8.755 -0.5103 -0.9237 -0.4892
 2522TIP3   OH229200   5.395   2.868   7.728 -0.0870 -0.2559  0.1064
 2522TIP3    H129201   5.385   2.775   7.749 -0.7947 -0.3552 -0.6008
 2522TIP3    H229202   5.429   2.868   7.638  2.6738  0.1498  1.0659
 2523TIP3   OH229203   1.564   5.656   7.249 -0.4266 -0.2552 -0.5931
 2523TIP3    H129204   1.641   5.703   7.279  0.9009 -1.1446 -2.3779
 2523TIP3    H229205   1.577   5.645   7.155 -2.4548 -0.9669 -0.8600
 2524TIP3   OH229206   1.960   6.195   7.283 -0.0367  0.0096  0.2604
 2524TIP3    H129207   2.032   6.253   7.256  1.8043 -2.2222  0.0321
 2524TIP3    H229208   1.911   6.246   7.348  3.0139  0.9616  2.0385
 2525TIP3   OH229209   2.589   3.610   1.054  0.0236  0.1104 -0.2498
 2525TIP3    H129210   2.602   3.689   1.107  2.5307 -0.7565  0.5372
 2525TIP3    H229211   2.638   3.627   0.974  0.7362 -0.6884  0.0002
 2526TIP3   OH229212   2.990   3.131   0.015  0.4424 -0.8316  0.0295
 2526TIP3    H129213   3.084   3.143   0.030  0.1249 -1.0411  2.5818
 2526TIP3    H229214   2.978   3.037   0.008  0.2103 -0.9622  1.7654
 2527TIP3   OH229215   0.980   0.815   0.439  0.6514 -0.1528 -0.1463
 2527TIP3    H129216   1.026   0.787   0.518 -2.2032  0.0552  1.7591
 2527TIP3    H229217   1.003   0.908   0.429  1.4531 -0.3193  0.1274
 2528TIP3   OH229218   2.398   4.305   7.584  0.2046  0.1488  0.2475
 2528TIP3    H129219   2.483   4.268   7.608  1.2313  2.6048  0.7759
 2528TIP3    H229220   2.362   4.245   7.519  2.5598 -0.7371 -0.3221
 2529TIP3   OH229221   5.466   5.514   1.855  0.6092 -0.1961  1.1415
 2529TIP3    H129222   5.469   5.590   1.913 -0.4930  1.4484 -0.8191
 2529TIP3    H229223   5.554   5.509   1.817  0.0102  1.7930 -0.6667
 2530TIP3   OH229224   5.420   1.399   0.003  0.0132  0.0850 -0.5340
 2530TIP3    H129225   5.415   1.304   0.018 -1.7545  0.4046  1.3112
 2530TIP3    H229226   5.489   1.429   0.063 -1.5783  0.2989  1.3141
 2531TIP3   OH229227   1.818   6.060   0.756 -0.2651  0.1989 -0.1185
 2531TIP3    H129228   1.886   6.104   0.704 -1.6597  3.3827  0.4713
 2531TIP3    H229229   1.838   6.084   0.846 -1.6311  0.4378  0.1423
 2532TIP3   OH229230   6.173   4.113   1.403 -0.1588  1.1187  0.0320
 2532TIP3    H129231   6.084   4.135   1.373 -0.2559 -0.5506 -1.0399
 2532TIP3    H229232   6.224   4.104   1.322  0.0907 -1.4372  0.4007
 2533TIP3   OH229233   0.259   5.085   6.943 -0.5747 -0.0487 -0.3781
 2533TIP3    H129234   0.342   5.049   6.913 -0.9086 -0.5960 -0.6735
 2533TIP3    H229235   0.222   5.129   6.866  0.2172  1.7191  0.1905
 2534TIP3   OH229236   1.121   0.968   0.185 -0.3953 -0.1582 -0.7822
 2534TIP3    H129237   1.055   1.025   0.224  0.8181  1.9704 -1.6300
 2534TIP3    H229238   1.075   0.922   0.115 -1.2906  0.1631 -0.4199
 2535TIP3   OH229239   0.985   1.221   6.567 -0.0795 -0.7825 -0.5788
 2535TIP3    H129240   0.945   1.307   6.582 -2.2780 -1.6276 -1.1773
 2535TIP3    H229241   1.076   1.241   6.543 -0.8368  1.4655 -1.9633
 2536TIP3   OH229242   2.636   0.217   0.468  0.6399 -0.1929  0.1587
 2536TIP3    H129243   2.596   0.245   0.551 -1.4025 -3.2242  0.3779
 2536TIP3    H229244   2.726   0.247   0.474  0.3782  0.3835  3.1626
 2537TIP3   OH229245   1.341   5.595   7.698 -0.6723  0.2227 -0.0444
 2537TIP3    H129246   1.313   5.505   7.678  0.7255 -0.3437  0.4087
 2537TIP3    H229247   1.405   5.585   7.768 -0.4335  1.5842 -0.0375
 2538TIP3   OH229248   4.838   3.002   8.156  0.1309  0.1484 -0.3825
 2538TIP3    H129249   4.758   2.999   8.208  0.5000  0.3023  0.2042
 2538TIP3    H229250   4.887   3.075   8.192  1.2849 -0.9607  0.3844
 2539TIP3   OH229251   2.170   3.314   0.951 -0.1206  0.4345  0.2684
 2539TIP3    H129252   2.262   3.331   0.972  0.4687 -1.3220 -0.6347
 2539TIP3    H229253   2.125   3.395   0.972  1.6267  1.3212  0.8033
 2540TIP3   OH229254   2.619   0.786   7.222 -0.2245  0.3709  0.1276
 2540TIP3    H129255   2.632   0.854   7.288  3.0950  0.3089 -0.2980
 2540TIP3    H229256   2.667   0.817   7.145 -1.2535 -1.0531 -1.1551
 2541TIP3   OH229257   6.034   1.946   7.597 -0.1237 -0.2263  0.3633
 2541TIP3    H129258   6.121   1.906   7.603  0.2426  0.4963 -0.0659
 2541TIP3    H229259   6.013   1.943   7.504  0.8581  2.5194 -0.0256
 2542TIP3   OH229260   6.326   3.390   8.355 -0.2654 -0.2062  0.3467
 2542TIP3    H129261   6.410   3.433   8.342  0.0882 -1.1824 -0.8910
 2542TIP3    H229262   6.326   3.363   8.447  1.6033 -1.7675 -0.0396
 2543TIP3   OH229263   3.734   6.085   0.881  0.0549 -0.4269 -0.4307
 2543TIP3    H129264   3.704   6.170   0.850 -0.3108 -1.0320 -1.8475
 2543TIP3    H229265   3.820   6.102   0.919 -0.7494  0.8440  0.9222
 2544TIP3   OH229266   3.365   6.596   7.031 -0.3652  0.0601 -0.6066
 2544TIP3    H129267   3.308   6.519   7.026  0.2620 -0.6910  1.9200
 2544TIP3    H229268   3.306   6.670   7.036 -1.2021 -0.6647  1.5211
 2545TIP3   OH229269   4.403   3.785   1.225  0.4051  0.0492  0.7094
 2545TIP3    H129270   4.424   3.859   1.168  1.7479 -1.7168 -1.2951
 2545TIP3    H229271   4.464   3.793   1.298  2.3870 -0.3682 -0.7926
 2546TIP3   OH229272   4.217   2.851   0.537 -0.3756  0.4680  0.4301
 2546TIP3    H129273   4.153   2.909   0.496  0.0533  0.5897 -0.0624
 2546TIP3    H229274   4.234   2.891   0.622 -0.5492  0.7270  0.3442
 2547TIP3   OH229275   3.152   0.407   8.653  0.5650  0.2252 -0.0411
 2547TIP3    H129276   3.243   0.424   8.674  0.5238  1.3736 -0.6766
 2547TIP3    H229277   3.104   0.478   8.696  0.0271 -0.0794 -0.1334
 2548TIP3   OH229278   6.109   1.409   1.766 -0.0768  0.1013  0.0267
 2548TIP3    H129279   6.078   1.460   1.841 -0.5810 -1.3360  0.8295
 2548TIP3    H229280   6.035   1.410   1.704  0.4418  1.5266 -0.6167
 2549TIP3   OH229281   1.362   1.973   1.031  0.1986 -0.0468  0.1872
 2549TIP3    H129282   1.373   2.015   0.946 -0.0524  0.7922  0.5565
 2549TIP3    H229283   1.269   1.985   1.052  0.2666 -0.2092  0.6018
 2550TIP3   OH229284   2.849   0.737   8.541  0.3521  0.3641  0.0142
 2550TIP3    H129285   2.819   0.785   8.463 -0.1769  2.0994  1.2098
 2550TIP3    H229286   2.944   0.732   8.532  0.3289  0.8794 -0.5687
 2551TIP3   OH229287   0.232   0.650   2.019  0.1672  0.2448  0.2838
 2551TIP3    H129288   0.157   0.690   1.974  0.5804 -0.0546 -0.6979
 2551TIP3    H229289   0.287   0.724   2.045  0.8346  0.3790 -1.3540
 2552TIP3   OH229290   0.910   3.650   1.442  0.4449  0.3722  0.4035
 2552TIP3    H129291   0.937   3.730   1.397  0.0051  1.0652  1.3173
 2552TIP3    H229292   0.832   3.677   1.492 -1.8321 -1.4369 -1.8779
 2553TIP3   OH229293   4.054   3.828   8.448 -0.0326 -0.0574 -0.6628
 2553TIP3    H129294   4.105   3.871   8.517 -0.0138  0.7154 -1.1482
 2553TIP3    H229295   3.964   3.832   8.479  0.0707 -0.4767 -0.2948
 2554TIP3   OH229296   2.904   6.504   1.243 -0.4722 -0.1436 -0.3179
 2554TIP3    H129297   2.876   6.589   1.208  0.8270  1.8407  2.9991
 2554TIP3    H229298   2.828   6.473   1.292 -0.4876 -0.2086 -0.3834
 2555TIP3   OH229299   2.340   3.695   0.970 -0.1303 -0.9737 -0.6376
 2555TIP3    H129300   2.404   3.651   1.026  1.1364 -1.0848 -2.1065
 2555TIP3    H229301   2.371   3.785   0.964 -0.1672 -0.9976 -1.2620
 2556TIP3   OH229302   3.173   1.213   1.448  0.3181 -0.1673 -0.1903
 2556TIP3    H129303   3.136   1.268   1.379  0.9535  0.8097  0.2256
 2556TIP3    H229304   3.098   1.191   1.504  0.2749  1.5852  0.5112
 2557TIP3   OH229305   6.631   1.665   0.853  0.1813  0.1479  0.5930
 2557TIP3    H129306   6.656   1.753   0.828  0.6033  0.1161  0.8956
 2557TIP3    H229307   6.707   1.611   0.832 -0.1812 -0.1934  0.1357
 2558TIP3   OH229308   2.357   0.478   6.677  0.3411 -0.1553 -0.1644
 2558TIP3    H129309   2.421   0.471   6.607  1.0422  0.3793  0.4037
 2558TIP3    H229310   2.359   0.392   6.720  1.0303  0.0101  0.1435
 2559TIP3   OH229311   3.439   5.310   0.974  0.3708  0.1268  0.6612
 2559TIP3    H129312   3.477   5.308   0.886  2.1995 -0.8767  1.4132
 2559TIP3    H229313   3.362   5.254   0.969  1.2758 -1.0984  0.0172
 2560TIP3   OH229314   4.854   1.776   7.787  0.5170  0.3683  0.1279
 2560TIP3    H129315   4.942   1.791   7.753  0.7093 -0.6272  0.1641
 2560TIP3    H229316   4.867   1.748   7.877  0.1862 -0.0943  0.0355
 2561TIP3   OH229317   5.266   0.505   1.745 -0.3606 -0.5154  0.1913
 2561TIP3    H129318   5.320   0.440   1.700 -0.0663 -2.0422  2.5498
 2561TIP3    H229319   5.316   0.586   1.739 -0.0455 -0.7908 -1.5818
 2562TIP3   OH229320   5.222   2.888   0.394  0.3917  0.3585  0.0402
 2562TIP3    H129321   5.246   2.858   0.306  3.0039  1.1746  0.3649
 2562TIP3    H229322   5.170   2.967   0.379 -1.2577 -0.8471 -0.7547
 2563TIP3   OH229323   1.009   1.243   7.162 -0.0271  0.7405  0.6926
 2563TIP3    H129324   0.971   1.157   7.181  0.6512  0.6336  1.5903
 2563TIP3    H229325   0.992   1.295   7.240  1.0725  0.9024  0.8383
 2564TIP3   OH229326   5.727   4.565   8.418  0.0789  0.5853  0.2609
 2564TIP3    H129327   5.767   4.649   8.438 -1.5556  1.4535  0.1222
 2564TIP3    H229328   5.722   4.519   8.501  1.6064  0.3199  0.2222
 2565TIP3   OH229329   6.787   4.547   0.221 -0.3717 -0.3806  0.0091
 2565TIP3    H129330   6.776   4.476   0.158 -0.7086  0.4022 -0.8457
 2565TIP3    H229331   6.745   4.622   0.179  1.8924  0.8919 -0.1122
 2566TIP3   OH229332   0.594   5.531   0.338  0.2968 -0.4930  0.2406
 2566TIP3    H129333   0.528   5.573   0.283  0.9581  0.0692 -0.1365
 2566TIP3    H229334   0.607   5.444   0.300 -0.1587 -0.5723  0.2673
 2567TIP3   OH229335   6.479   0.481   1.860 -0.4872  0.2399  0.6792
 2567TIP3    H129336   6.534   0.554   1.890  0.6287 -0.0894 -0.4562
 2567TIP3    H229337   6.397   0.522   1.833 -0.8440  0.7464  2.4377
 2568TIP3   OH229338   5.145   1.144   7.306 -0.0341 -0.0999 -0.0062
 2568TIP3    H129339   5.110   1.200   7.376  1.0958 -0.4063  0.8322
 2568TIP3    H229340   5.235   1.174   7.295 -0.1069 -0.2686 -1.1336
 2569TIP3   OH229341   3.185   2.498   1.177  0.3245 -0.3256  0.1215
 2569TIP3    H129342   3.169   2.593   1.183  2.1502  0.0515 -0.6101
 2569TIP3    H229343   3.169   2.466   1.266 -0.3310  0.6520  0.3721
 2570TIP3   OH229344   3.047   4.723   7.630  0.2878  0.0899 -0.2290
 2570TIP3    H129345   2.998   4.722   7.712 -0.1956 -1.2554 -0.5117
 2570TIP3    H229346   3.138   4.740   7.656  0.0803  0.0601  0.5349
 2571TIP3   OH229347   4.231   1.084   0.395 -0.5430  0.1857 -0.2620
 2571TIP3    H129348   4.148   1.084   0.346 -0.5532  0.6291 -0.2462
 2571TIP3    H229349   4.220   1.153   0.461  0.1856  0.8727 -0.8418
 2572TIP3   OH229350   0.299   6.458   1.917 -0.1959 -0.3150  0.1633
 2572TIP3    H129351   0.273   6.494   2.002  0.3827 -0.6598  0.4939
 2572TIP3    H229352   0.217   6.452   1.867 -0.3764  1.0057  0.2614
 2573TIP3   OH229353   5.511   2.143   6.867 -0.7729  0.5064  0.0240
 2573TIP3    H129354   5.446   2.211   6.883 -0.9981  0.2203  0.3612
 2573TIP3    H229355   5.474   2.089   6.797  0.4509  2.0657 -1.9294
 2574TIP3   OH229356   0.911   0.511   0.680  0.6322  0.1220  0.6096
 2574TIP3    H129357   0.832   0.550   0.718  0.3395  0.4344 -0.2842
 2574TIP3    H229358   0.976   0.581   0.682  0.7795 -0.0259  1.0209
 2575TIP3   OH229359   5.366   3.980   2.654 -0.4273 -0.4395  0.3937
 2575TIP3    H129360   5.457   4.010   2.666 -0.6377  0.2226  0.4082
 2575TIP3    H229361   5.316   4.061   2.646 -0.8738 -0.8000 -0.6898
 2576TIP3   OH229362   2.521   0.929   7.940  0.5196  0.2755  0.4836
 2576TIP3    H129363   2.485   1.001   7.889  1.9044  0.2805 -0.5391
 2576TIP3    H229364   2.451   0.864   7.943  1.1879 -0.8894 -3.7292
 2577TIP3   OH229365   4.189   6.585   8.079  0.5487  0.0697 -0.5675
 2577TIP3    H129366   4.118   6.543   8.030  1.4901 -2.3755  0.0178
 2577TIP3    H229367   4.222   6.517   8.137  2.0190  1.7515  0.6896
 2578TIP3   OH229368   4.116   1.472   8.631 -0.2674  0.1698 -0.1676
 2578TIP3    H129369   4.180   1.520   8.578  0.3498  0.1040  0.5133
 2578TIP3    H229370   4.154   1.468   8.718 -0.7859 -0.6650  0.0342
 2579TIP3   OH229371   4.283   5.032   7.255 -0.1041  0.2959  0.5598
 2579TIP3    H129372   4.237   4.961   7.299  0.0303 -1.1169 -1.4254
 2579TIP3    H229373   4.358   4.989   7.212  0.3256  1.7308 -0.1828
 2580TIP3   OH229374   1.657   3.639   8.421  0.1363  0.1297  0.0834
 2580TIP3    H129375   1.667   3.682   8.506  0.9775  1.3948 -0.6132
 2580TIP3    H229376   1.648   3.711   8.358  2.1854 -0.6393 -1.2163
 2581TIP3   OH229377   1.484   1.211   6.833  0.0211 -0.3130 -0.5946
 2581TIP3    H129378   1.511   1.139   6.776  0.6174 -0.8873  0.3852
 2581TIP3    H229379   1.507   1.290   6.785 -0.4670 -0.7700 -1.6071
 2582TIP3   OH229380   0.515   2.610   8.444 -0.1742  0.1571  0.4115
 2582TIP3    H129381   0.486   2.661   8.520 -0.0398  0.6678  0.1220
 2582TIP3    H229382   0.448   2.542   8.435 -0.9291  0.9056  0.1763
 2583TIP3   OH229383   5.468   4.114   7.739 -0.6846  0.5940 -0.4810
 2583TIP3    H129384   5.474   4.050   7.668 -0.5508 -0.3396  0.3479
 2583TIP3    H229385   5.402   4.177   7.709  0.5245  1.1560 -2.1364
 2584TIP3   OH229386   3.420   6.203   2.193  1.0374 -0.2436  0.1573
 2584TIP3    H129387   3.369   6.282   2.177 -2.8902 -2.8213 -2.0167
 2584TIP3    H229388   3.394   6.174   2.280 -0.1695 -0.7225 -0.3301
 2585TIP3   OH229389   4.447   4.724   8.182  0.2824 -0.0414  0.1852
 2585TIP3    H129390   4.386   4.720   8.255  0.3979 -0.0001  0.2852
 2585TIP3    H229391   4.416   4.658   8.120  1.0341 -1.1308  0.9306
 2586TIP3   OH229392   0.627   2.193   0.546 -0.1784  0.3693 -0.1852
 2586TIP3    H129393   0.605   2.231   0.632 -0.1983 -0.1496  0.0392
 2586TIP3    H229394   0.581   2.110   0.544  0.6404 -0.0937 -0.2820
 2587TIP3   OH229395   3.423   2.978   7.252  0.1030  0.1410  0.1050
 2587TIP3    H129396   3.456   3.049   7.307 -0.4476  0.4373  0.0597
 2587TIP3    H229397   3.368   3.022   7.187 -0.9415 -0.3959  0.6032
 2588TIP3   OH229398   6.204   1.263   7.024  0.6605  0.5070  0.1735
 2588TIP3    H129399   6.221   1.186   6.970  0.7619 -0.2428  1.2548
 2588TIP3    H229400   6.227   1.236   7.113 -0.6138  1.3396  0.7836
 2589TIP3   OH229401   4.716   2.482   0.450  0.2431  0.4687 -0.7171
 2589TIP3    H129402   4.666   2.460   0.528 -2.1619  1.7157 -1.7872
 2589TIP3    H229403   4.747   2.571   0.466 -2.0974  1.5834 -1.9406
 2590TIP3   OH229404   6.144   3.987   0.180  0.3220 -0.8962  0.1281
 2590TIP3    H129405   6.157   4.080   0.161  1.4715 -0.5168  2.4190
 2590TIP3    H229406   6.219   3.944   0.139  0.7317 -0.5766  0.5293
 2591TIP3   OH229407   4.358   1.511   1.673  0.2589 -0.0167  0.5123
 2591TIP3    H129408   4.296   1.446   1.639  0.0216  0.5340 -0.1432
 2591TIP3    H229409   4.416   1.462   1.730 -0.4777 -0.6364  0.7425
 2592TIP3   OH229410   3.236   3.492   7.940  0.5616  0.2555  0.4307
 2592TIP3    H129411   3.215   3.547   7.864 -0.4933  0.0881  0.5881
 2592TIP3    H229412   3.161   3.433   7.948  1.2571 -0.5880  0.8289
 2593TIP3   OH229413   6.807   0.430   0.255 -0.0348 -0.6318  0.1669
 2593TIP3    H129414   6.782   0.523   0.255  0.2424 -0.5390  1.4589
 2593TIP3    H229415   6.743   0.387   0.311  1.2062 -0.7952  1.5356
 2594TIP3   OH229416   2.290   0.805   8.316  0.2504 -0.4089 -0.3241
 2594TIP3    H129417   2.334   0.729   8.277  0.5338 -0.7755  0.6861
 2594TIP3    H229418   2.229   0.835   8.248 -0.4806 -2.0519 -0.4220
 2595TIP3   OH229419   3.756   1.766   1.302 -0.0940 -0.3095 -0.3307
 2595TIP3    H129420   3.821   1.793   1.368  0.0430 -0.9061 -0.2166
 2595TIP3    H229421   3.808   1.747   1.224 -0.4029  2.2236 -1.2581
 2596TIP3   OH229422   1.853   3.502   6.582 -0.0078 -0.3724 -0.1539
 2596TIP3    H129423   1.858   3.581   6.527 -3.0606 -0.4888 -0.7546
 2596TIP3    H229424   1.809   3.531   6.661  2.4687 -0.6921  1.4654
 2597TIP3   OH229425   2.683   4.653   8.204 -0.0002 -0.5571 -0.3197
 2597TIP3    H129426   2.650   4.648   8.114 -1.7022 -0.6842  0.2829
 2597TIP3    H229427   2.675   4.564   8.237  1.9131 -0.8182 -0.4311
 2598TIP3   OH229428   0.010   4.541   7.695  0.3714  0.5843  0.0265
 2598TIP3    H129429   0.062   4.461   7.688 -0.2430 -0.0228  1.8821
 2598TIP3    H229430  -0.030   4.551   7.608  1.1782 -0.6118 -0.5122
 2599TIP3   OH229431   1.553   2.816   8.736 -0.5743 -0.2974  0.9940
 2599TIP3    H129432   1.485   2.849   8.795  0.2881 -0.0997  1.9111
 2599TIP3    H229433   1.583   2.894   8.688 -1.9839 -0.6206 -0.5045
 2600TIP3   OH229434   1.622   2.698   7.575  0.2594  0.4153  0.2848
 2600TIP3    H129435   1.589   2.757   7.508 -0.9703 -0.3065  0.2270
 2600TIP3    H229436   1.646   2.618   7.528  1.3242  0.6223  0.4467
 2601TIP3   OH229437   1.279   6.631   1.233 -0.3399 -0.0463  0.0345
 2601TIP3    H129438   1.364   6.590   1.252 -0.2156  0.4855  0.6493
 2601TIP3    H229439   1.216   6.560   1.244  0.0672 -0.5851 -0.9641
 2602TIP3   OH229440   4.950   3.728   0.778  0.0763 -0.5414 -0.4540
 2602TIP3    H129441   4.995   3.711   0.861 -0.9240 -0.2044  0.1644
 2602TIP3    H229442   4.873   3.779   0.802 -0.6588 -1.1359 -1.4937
 2603TIP3   OH229443   0.476   1.451   6.256 -0.2700 -0.3438 -0.3556
 2603TIP3    H129444   0.400   1.451   6.198 -0.5934  1.8581 -0.0145
 2603TIP3    H229445   0.447   1.405   6.334 -0.6109 -1.1809 -0.9539
 2604TIP3   OH229446   4.859   5.452   8.494  0.2832  0.0006  0.3178
 2604TIP3    H129447   4.855   5.378   8.555 -0.2437  0.0291  0.3172
 2604TIP3    H229448   4.888   5.413   8.412  0.6915 -0.0892  0.5017
 2605TIP3   OH229449   6.800   5.881   8.153 -0.0466 -0.0756  0.1824
 2605TIP3    H129450   6.720   5.838   8.120  0.4549  0.5954 -2.0638
 2605TIP3    H229451   6.769   5.937   8.224 -1.6167  0.2293 -0.6838
 2606TIP3   OH229452   2.079   0.345   7.750  0.2763 -0.9315 -0.2782
 2606TIP3    H129453   2.134   0.268   7.740  0.8228 -0.6824  0.6676
 2606TIP3    H229454   1.990   0.310   7.760  0.3384 -1.3631 -1.1282
 2607TIP3   OH229455   3.194   1.237   0.214 -0.5696 -0.0138 -0.1634
 2607TIP3    H129456   3.217   1.209   0.302 -0.4219  1.4381  0.2863
 2607TIP3    H229457   3.099   1.232   0.211 -0.6989  1.4961  0.6602
 2608TIP3   OH229458   2.224   2.138   1.264 -0.0759  0.1559 -0.3701
 2608TIP3    H129459   2.188   2.226   1.270 -3.2215 -0.8826 -1.9109
 2608TIP3    H229460   2.211   2.101   1.351 -1.1455  0.3898 -0.4240
 2609TIP3   OH229461   5.044   0.742   1.067  0.0911  1.1313 -0.1656
 2609TIP3    H129462   5.055   0.783   1.152  0.2471 -0.2369  0.4975
 2609TIP3    H229463   5.130   0.750   1.025  1.0456 -1.0846  1.1706
 2610TIP3   OH229464   3.171   3.679   7.007 -0.0184  0.0747  0.6844
 2610TIP3    H129465   3.260   3.648   6.988 -0.1414  0.1545 -0.0761
 2610TIP3    H229466   3.115   3.628   6.948 -0.1750  2.0246 -0.9881
 2611TIP3   OH229467   5.704   3.448   2.298 -0.5052  0.3346 -0.5531
 2611TIP3    H129468   5.755   3.421   2.222  0.3646  0.2553  0.0493
 2611TIP3    H229469   5.701   3.543   2.293  0.3438  0.3840 -0.1862
 2612TIP3   OH229470   0.325   2.764   1.534 -0.1351 -0.2016 -0.1666
 2612TIP3    H129471   0.403   2.787   1.585 -0.7599  2.0213 -0.1147
 2612TIP3    H229472   0.259   2.826   1.562 -1.2822 -0.6015 -1.8331
 2613TIP3   OH229473   4.716   5.563   8.004 -0.3016 -0.6212 -0.0586
 2613TIP3    H129474   4.809   5.578   8.023 -0.2097 -2.5795  1.4415
 2613TIP3    H229475   4.694   5.485   8.055 -2.2612 -1.4400 -1.9989
 2614TIP3   OH229476   5.551   2.049   0.574 -0.4966  0.2959  0.0831
 2614TIP3    H129477   5.488   2.015   0.510 -1.1925  0.8933  0.4453
 2614TIP3    H229478   5.510   2.032   0.659 -1.3535  2.8924  0.2712
 2615TIP3   OH229479   4.999   3.756   7.479  0.7921  0.1505  0.5815
 2615TIP3    H129480   4.905   3.743   7.469  0.6961  1.3299 -0.2739
 2615TIP3    H229481   5.007   3.841   7.524  1.4424  0.2729  0.2502
 2616TIP3   OH229482   3.597   4.420   1.947 -0.2333  0.1906 -0.1612
 2616TIP3    H129483   3.558   4.424   1.859 -0.0086 -0.3687 -0.2934
 2616TIP3    H229484   3.691   4.408   1.931 -0.4805 -3.1222  0.0716
 2617TIP3   OH229485   1.585   1.784   1.650 -0.3900 -0.0461  0.7578
 2617TIP3    H129486   1.529   1.833   1.710  0.3087 -0.5198  1.8226
 2617TIP3    H229487   1.632   1.851   1.600 -2.1564  0.3611 -0.4347
 2618TIP3   OH229488   0.649   3.088   0.119  0.3833  0.0611 -0.2891
 2618TIP3    H129489   0.714   3.143   0.163  1.7520 -0.9049 -1.0129
 2618TIP3    H229490   0.619   3.028   0.186  0.6789  0.1334 -0.0917
 2619TIP3   OH229491   3.769   6.755   0.732 -0.1769 -0.2583  0.4507
 2619TIP3    H129492   3.704   6.822   0.709  1.0679  0.4036 -1.4798
 2619TIP3    H229493   3.804   6.783   0.816 -0.9331  0.5184  0.5200
 2620TIP3   OH229494   4.598   2.380   6.266  0.0267  0.1223  0.0891
 2620TIP3    H129495   4.533   2.390   6.196  0.4097  0.4542 -0.2214
 2620TIP3    H229496   4.674   2.429   6.235  0.6180 -0.7027  0.2165
 2621TIP3   OH229497   0.590   0.945   8.155  0.0152  0.1847 -0.1249
 2621TIP3    H129498   0.568   0.854   8.133 -0.2757  0.0512  0.6817
 2621TIP3    H229499   0.685   0.949   8.147  0.5002 -1.1809  3.1810
 2622TIP3   OH229500   0.709   0.989   0.921 -0.2085 -0.4974 -0.1096
 2622TIP3    H129501   0.665   1.060   0.874 -0.9142 -1.3908 -0.8178
 2622TIP3    H229502   0.668   0.987   1.007  0.2746  0.3718  0.1562
 2623TIP3   OH229503   2.781   4.329   0.384  0.5179  0.3384 -0.1939
 2623TIP3    H129504   2.807   4.313   0.293 -1.5629 -0.1685 -0.7549
 2623TIP3    H229505   2.772   4.425   0.390  0.9546  0.3940 -0.4376
 2624TIP3   OH229506   5.751   4.225   6.977 -0.0537 -0.5998  0.6152
 2624TIP3    H129507   5.731   4.145   7.027  4.0034 -0.6685  2.5068
 2624TIP3    H229508   5.791   4.193   6.896 -2.0667 -0.3891 -0.5488
 2625TIP3   OH229509   2.718   1.561   2.215 -0.2787  0.9862 -0.1078
 2625TIP3    H129510   2.687   1.535   2.302  0.8452  0.6950  0.2234
 2625TIP3    H229511   2.648   1.616   2.180 -1.2863  0.1399  0.4867
 2626TIP3   OH229512   0.041   3.319   7.447  0.0268  0.2349  0.3425
 2626TIP3    H129513   0.052   3.243   7.504  0.8513  0.9582  1.1826
 2626TIP3    H229514   0.003   3.284   7.367  1.1156 -1.1968  0.4155
 2627TIP3   OH229515   0.370   1.240   0.516  0.1548 -0.4965 -0.8814
 2627TIP3    H129516   0.302   1.219   0.580  1.0385 -0.9018 -0.0353
 2627TIP3    H229517   0.450   1.204   0.554  1.5605  3.0613  0.0180
 2628TIP3   OH229518   1.763   5.960   1.672 -0.2827  0.1062  0.0038
 2628TIP3    H129519   1.808   5.880   1.646  0.4331  0.2996  0.5686
 2628TIP3    H229520   1.822   5.999   1.738 -1.4596  0.1933  1.0418
 2629TIP3   OH229521   2.985   2.454   0.976  0.0977  0.5512 -0.5566
 2629TIP3    H129522   3.059   2.491   1.023  0.2150  1.3342 -1.3125
 2629TIP3    H229523   3.024   2.401   0.907 -0.0705 -0.5724  0.1911
 2630TIP3   OH229524   2.259   3.028   8.113  0.3139 -0.6886 -0.4101
 2630TIP3    H129525   2.185   3.089   8.117  0.7500 -0.1491 -0.3900
 2630TIP3    H229526   2.219   2.941   8.110 -0.3553 -0.3711 -1.4156
 2631TIP3   OH229527   4.150   5.773   8.145 -0.4406 -0.1841  0.5467
 2631TIP3    H129528   4.178   5.802   8.058 -2.1126 -0.2073 -0.0298
 2631TIP3    H229529   4.098   5.694   8.128 -0.9562 -0.0685  1.5524
 2632TIP3   OH229530   3.688   0.904   0.610 -0.0096 -0.2489 -0.2637
 2632TIP3    H129531   3.605   0.944   0.637 -0.2725 -0.8067 -0.2314
 2632TIP3    H229532   3.750   0.977   0.608 -0.3300  0.0560  0.4304
 2633TIP3   OH229533   2.418   1.339   1.360 -0.1563 -0.5301 -0.3640
 2633TIP3    H129534   2.476   1.283   1.413 -0.6308 -1.2009 -0.5420
 2633TIP3    H229535   2.473   1.413   1.335  1.5323 -2.4456 -2.8192
 2634TIP3   OH229536   5.826   1.698   1.529 -0.2050  0.5138  0.3259
 2634TIP3    H129537   5.909   1.729   1.491 -0.3687  1.1491  0.4897
 2634TIP3    H229538   5.840   1.604   1.542  0.5562  0.6491  0.5234
 2635TIP3   OH229539   2.053   2.781   6.969  0.0619 -0.0075  0.0208
 2635TIP3    H129540   2.070   2.730   6.890 -2.2434 -1.1606  0.1744
 2635TIP3    H229541   1.960   2.766   6.988 -0.2605  2.7154  1.2023
 2636TIP3   OH229542   2.394   2.396   7.782  0.4560 -0.2423  0.4644
 2636TIP3    H129543   2.456   2.463   7.754 -0.1175  0.6659  1.3247
 2636TIP3    H229544   2.329   2.393   7.712  0.8816 -0.4253  0.0752
 2637TIP3   OH229545   2.280   3.809   7.464  0.1027 -0.7015  0.2569
 2637TIP3    H129546   2.247   3.728   7.501  1.0511 -1.2235 -0.0075
 2637TIP3    H229547   2.367   3.820   7.502 -0.4156  0.7716  1.1267
 2638TIP3   OH229548   1.166   2.955   7.523 -0.4205  0.2725  0.5431
 2638TIP3    H129549   1.108   3.030   7.540  0.2956  0.7645  0.8497
 2638TIP3    H229550   1.143   2.892   7.591  0.0686  0.8581  1.2692
 2639TIP3   OH229551   2.314   2.955   2.071  0.1439  0.1584 -0.3762
 2639TIP3    H129552   2.220   2.969   2.081 -0.1746 -1.1848 -1.2475
 2639TIP3    H229553   2.350   2.967   2.159 -0.9229  0.0525  0.0880
 2640TIP3   OH229554   5.132   2.701   6.767  0.0549 -0.6174 -0.3537
 2640TIP3    H129555   5.208   2.656   6.803 -0.1939 -0.3819  0.4899
 2640TIP3    H229556   5.162   2.790   6.749  0.4845 -1.0384 -1.8061
 2641TIP3   OH229557   2.917   6.222   8.426  0.0685  0.0367  0.3228
 2641TIP3    H129558   2.875   6.306   8.446  0.3161 -0.1087  1.5037
 2641TIP3    H229559   2.859   6.181   8.361 -0.0463  1.1135 -0.2740
 2642TIP3   OH229560   2.316   1.147   6.823 -0.1642  0.1767  0.2334
 2642TIP3    H129561   2.326   1.059   6.786  0.3295  0.5045 -0.4332
 2642TIP3    H229562   2.226   1.149   6.857  0.2495 -1.0480  1.5154
 2643TIP3   OH229563   4.332   6.579   7.700 -0.3109  0.1718  0.1574
 2643TIP3    H129564   4.268   6.550   7.635 -0.2469  0.4095 -0.0107
 2643TIP3    H229565   4.338   6.506   7.762 -0.7188  0.1342  0.1549
 2644TIP3   OH229566   2.752   2.393   0.269  0.1586 -0.5329  0.8383
 2644TIP3    H129567   2.660   2.377   0.287  0.1093  0.6541  1.7928
 2644TIP3    H229568   2.796   2.375   0.352  0.8529 -1.4673  0.2835
 2645TIP3   OH229569   5.438   2.376   0.522  0.3664  0.0400 -0.2430
 2645TIP3    H129570   5.533   2.362   0.527  0.7190  2.3387  0.7876
 2645TIP3    H229571   5.401   2.288   0.525  2.4929 -1.2383 -4.0212
 2646TIP3   OH229572   0.987   0.711   8.098 -0.5031  0.0952 -0.0962
 2646TIP3    H129573   1.069   0.759   8.111 -0.9209  0.6061  0.7314
 2646TIP3    H229574   0.920   0.765   8.141 -1.2239 -0.4730 -0.4800
 2647TIP3   OH229575   5.646   6.677   8.240  0.3980  0.2312  0.2240
 2647TIP3    H129576   5.711   6.653   8.174  0.3789 -0.8069  0.5628
 2647TIP3    H229577   5.608   6.759   8.209  2.0228  0.9804  0.1338
 2648TIP3   OH229578   4.470   3.496   0.898  0.2126  0.5544  0.3446
 2648TIP3    H129579   4.390   3.476   0.947  0.9127 -0.6502  1.0181
 2648TIP3    H229580   4.522   3.550   0.958  0.6302 -0.0706  0.5473
 2649TIP3   OH229581   2.895   3.815   1.056 -0.8929 -0.1410  0.3285
 2649TIP3    H129582   2.802   3.829   1.070 -1.0227 -0.0999 -0.5334
 2649TIP3    H229583   2.931   3.800   1.144 -1.9453 -1.6424  0.5419
 2650TIP3   OH229584   5.954   1.163   1.394  0.4385 -0.0039  0.0864
 2650TIP3    H129585   6.008   1.156   1.315  0.2922 -2.0910  0.1148
 2650TIP3    H229586   5.878   1.215   1.366 -1.5397 -3.7191 -2.4159
 2651TIP3   OH229587   6.162   0.868   1.621 -0.0528 -0.0598 -0.3296
 2651TIP3    H129588   6.081   0.917   1.637  0.5139  0.5972  0.6063
 2651TIP3    H229589   6.132   0.781   1.596 -1.0516  0.3016 -0.4640
 2652TIP3   OH229590   2.684   5.056   1.133 -0.1555  0.0528 -0.5039
 2652TIP3    H129591   2.670   4.966   1.163 -0.4430  0.5062  0.8219
 2652TIP3    H229592   2.668   5.053   1.039 -1.6283 -1.0017 -0.2633
 2653TIP3   OH229593   0.349   2.746   7.998 -0.3491 -0.4935 -0.1458
 2653TIP3    H129594   0.397   2.825   7.973 -1.1585  0.0325 -0.0370
 2653TIP3    H229595   0.413   2.675   7.985 -0.3142 -0.1124 -2.4323
 2654TIP3   OH229596   2.192   4.943   0.675 -0.6072 -0.5027 -0.2668
 2654TIP3    H129597   2.109   4.986   0.697 -0.8227 -1.3076  0.5513
 2654TIP3    H229598   2.225   4.992   0.600 -1.3242  0.4687  0.0292
 2655TIP3   OH229599   0.529   6.317   1.390  0.4567  0.7916  0.2262
 2655TIP3    H129600   0.484   6.359   1.316 -0.1579  1.5663  1.0303
 2655TIP3    H229601   0.466   6.252   1.422  0.8327  0.2596 -0.0804
 2656TIP3   OH229602   1.451   4.089   7.707  1.1438 -0.4785  0.8212
 2656TIP3    H129603   1.426   4.014   7.760 -1.5683 -0.0521  0.2855
 2656TIP3    H229604   1.544   4.075   7.689  0.9354 -3.2621  1.4022
 2657TIP3   OH229605   2.657   2.425   7.087 -0.1542  0.0088 -0.4382
 2657TIP3    H129606   2.617   2.425   7.000  2.2753 -0.2478 -1.6436
 2657TIP3    H229607   2.623   2.504   7.129  0.0312  1.1675 -2.3370
 2658TIP3   OH229608   0.759   1.980   1.788 -0.1259 -0.0913 -0.8956
 2658TIP3    H129609   0.802   2.056   1.827  0.5163 -0.4937 -0.7993
 2658TIP3    H229610   0.681   2.015   1.746 -1.4410  0.2571  1.6247
 2659TIP3   OH229611   3.780   5.709   6.288 -0.1657  0.3012  0.0554
 2659TIP3    H129612   3.697   5.707   6.334  0.6930  0.7074  1.7104
 2659TIP3    H229613   3.758   5.694   6.196 -1.7569 -2.5984  0.8118
 2660TIP3   OH229614   1.525   3.736   0.725 -0.1315 -0.0603  0.4297
 2660TIP3    H129615   1.610   3.770   0.752  0.5768 -0.0430 -1.6537
 2660TIP3    H229616   1.506   3.781   0.642 -1.5208 -1.0579  0.1616
 2661TIP3   OH229617   2.425   3.567   0.048 -0.2331 -0.5768  0.4282
 2661TIP3    H129618   2.344   3.546   0.000 -1.4534  1.6308  1.3911
 2661TIP3    H229619   2.495   3.536  -0.010 -1.6858  0.3434 -1.9696
 2662TIP3   OH229620   1.871   4.811   7.641  0.0077 -0.1302  0.4688
 2662TIP3    H129621   1.882   4.822   7.546 -0.4381 -0.3223  0.3906
 2662TIP3    H229622   1.929   4.739   7.664  4.4401  3.2745  1.2926
 2663TIP3   OH229623   0.490   4.530   1.938  0.1168 -0.2672 -0.0596
 2663TIP3    H129624   0.514   4.623   1.945  1.7379 -0.7216  0.8606
 2663TIP3    H229625   0.538   4.499   1.861 -1.6025 -0.0426 -1.2862
 2664TIP3   OH229626   3.477   0.563   8.320  0.0830  0.5714 -0.0938
 2664TIP3    H129627   3.429   0.628   8.270 -1.2530 -0.8695 -0.7796
 2664TIP3    H229628   3.443   0.571   8.410 -2.4252 -1.1468 -0.7592
 2665TIP3   OH229629   6.102   3.668   8.678 -0.0987 -0.0862  0.1315
 2665TIP3    H129630   6.009   3.686   8.688 -0.9120 -2.3467 -2.0413
 2665TIP3    H229631   6.121   3.601   8.743 -0.7197 -1.4940 -1.0726
 2666TIP3   OH229632   4.209   0.419   1.404 -0.0646 -0.7508  0.0523
 2666TIP3    H129633   4.171   0.497   1.362 -0.6281 -0.7502  0.5554
 2666TIP3    H229634   4.257   0.454   1.480  0.3748 -0.8214 -0.1862
 2667TIP3   OH229635   0.491   2.586   7.726 -0.1521  0.1245 -0.3741
 2667TIP3    H129636   0.400   2.598   7.752 -0.3479 -0.8232 -0.5856
 2667TIP3    H229637   0.491   2.504   7.677  0.6305  0.6609 -1.2891
 2668TIP3   OH229638   1.494   4.411   7.514 -0.1248 -0.7470  0.2731
 2668TIP3    H129639   1.483   4.343   7.447 -1.3159 -1.1031  0.8125
 2668TIP3    H229640   1.454   4.489   7.476  5.6828  1.4118 -2.6487
 2669TIP3   OH229641   4.322   4.571   0.130  0.0104  0.4221  0.0691
 2669TIP3    H129642   4.411   4.604   0.139  0.3816 -1.0954  2.6231
 2669TIP3    H229643   4.275   4.604   0.207 -1.0231 -0.6160 -0.0779
 2670TIP3   OH229644   3.908   2.449   0.878 -0.0580  0.2236 -0.0555
 2670TIP3    H129645   3.949   2.417   0.798 -0.8643  0.6509 -0.6410
 2670TIP3    H229646   3.897   2.370   0.932  1.5277  0.0957  0.1358
 2671TIP3   OH229647   5.877   5.982   7.427  0.1251 -0.2153 -0.1490
 2671TIP3    H129648   5.905   5.926   7.355  0.1196 -0.1545 -0.1988
 2671TIP3    H229649   5.934   5.960   7.500  0.0646 -0.3493 -0.1420
 2672TIP3   OH229650   4.195   1.281   0.872  0.1440  0.0662 -0.5483
 2672TIP3    H129651   4.120   1.221   0.869  0.1838  0.0268 -0.7634
 2672TIP3    H229652   4.168   1.357   0.822 -0.3710  0.7681  0.7516
 2673TIP3   OH229653   3.450   6.393   1.954  0.3414 -0.0324 -0.3403
 2673TIP3    H129654   3.406   6.415   2.036  1.8522  1.0400  0.2324
 2673TIP3    H229655   3.388   6.338   1.907 -0.6105 -0.5849  1.4782
 2674TIP3   OH229656   2.971   0.115   7.054 -0.4438 -0.4963 -0.4623
 2674TIP3    H129657   2.930   0.168   7.122 -0.4379 -1.1117  0.0335
 2674TIP3    H229658   2.903   0.053   7.027 -0.2511 -0.6606 -0.5770
 2675TIP3   OH229659   4.575   6.017   1.593 -0.5141 -0.3858  0.3385
 2675TIP3    H129660   4.560   5.946   1.656 -1.3155 -0.3836  0.1646
 2675TIP3    H229661   4.614   5.974   1.517 -1.7743 -0.8018 -0.0987
 2676TIP3   OH229662   1.828   2.803   0.084  0.1704  0.4430 -0.4471
 2676TIP3    H129663   1.888   2.845   0.022  0.0771 -0.5394 -1.2204
 2676TIP3    H229664   1.742   2.813   0.044  0.0117  0.4201 -0.1198
 2677TIP3   OH229665   2.949   6.478   1.681 -0.5905  0.0807  0.3700
 2677TIP3    H129666   2.972   6.548   1.620  1.9411  0.0253  1.1412
 2677TIP3    H229667   2.953   6.398   1.628 -3.1157  0.4058 -0.4228
 2678TIP3   OH229668   3.449   5.694   0.122 -0.3946  0.4366  0.6138
 2678TIP3    H129669   3.473   5.649   0.203 -1.8623 -1.0288  0.2812
 2678TIP3    H229670   3.479   5.636   0.052 -0.6412  0.8838  0.1323
 2679TIP3   OH229671   0.026   1.388   7.321 -0.1496  0.3943  0.8786
 2679TIP3    H129672   0.007   1.326   7.392 -0.8292  0.8210  1.0820
 2679TIP3    H229673   0.076   1.458   7.362 -1.9686  1.4887  1.3476
 2680TIP3   OH229674   5.865   3.662   2.121 -0.1021 -0.1349  0.0797
 2680TIP3    H129675   5.899   3.656   2.211 -0.5016  1.3499  0.3616
 2680TIP3    H229676   5.917   3.599   2.072  0.5186 -0.5696  1.2443
 2681TIP3   OH229677   6.285   3.441   6.927 -0.2811  0.1952 -0.2090
 2681TIP3    H129678   6.240   3.522   6.952  0.1194  0.0138  1.2044
 2681TIP3    H229679   6.222   3.371   6.945  0.0825  0.0454  0.5358
 2682TIP3   OH229680   4.547   0.450   0.973 -0.3266 -0.1809 -0.3492
 2682TIP3    H129681   4.625   0.412   1.012  1.3998 -0.8936 -4.0944
 2682TIP3    H229682   4.485   0.377   0.965  0.0707 -0.4739 -0.7419
 2683TIP3   OH229683   3.022   1.121   2.796  0.0771  0.3748  0.5498
 2683TIP3    H129684   3.008   1.177   2.721 -0.9998  0.8092  1.0583
 2683TIP3    H229685   3.115   1.098   2.792  0.2783  1.2884 -0.2801
 2684TIP3   OH229686   1.930   1.698   7.626  0.1061 -0.2016 -0.5593
 2684TIP3    H129687   1.919   1.754   7.549 -1.4252 -0.5175 -0.6195
 2684TIP3    H229688   1.965   1.756   7.694  0.5525  0.3088 -1.2167
 2685TIP3   OH229689   5.357   5.170   7.917 -0.4733  0.1366 -0.7294
 2685TIP3    H129690   5.443   5.162   7.958 -0.1169  1.4838 -1.1806
 2685TIP3    H229691   5.332   5.261   7.930 -1.4603 -0.0280 -1.3382
 2686TIP3   OH229692   4.880   3.304   8.012  0.2460 -0.1731 -0.5953
 2686TIP3    H129693   4.795   3.293   7.972  0.4547  0.3710 -1.1961
 2686TIP3    H229694   4.896   3.221   8.058 -2.0324  0.8481  2.3081
 2687TIP3   OH229695   4.014   4.781   1.256 -0.8676 -0.0383 -0.3898
 2687TIP3    H129696   3.983   4.842   1.322  1.2736  2.4184 -1.4832
 2687TIP3    H229697   4.082   4.730   1.301 -1.3694 -0.3570  0.0197
 2688TIP3   OH229698   4.300   6.716   0.628 -0.5672  0.5869  0.1420
 2688TIP3    H129699   4.307   6.655   0.555  0.6687  2.8820 -1.7852
 2688TIP3    H229700   4.207   6.740   0.631 -0.7033  0.1316 -0.3446
 2689TIP3   OH229701   4.808   5.392   6.433 -0.5452  0.4361 -0.0204
 2689TIP3    H129702   4.817   5.465   6.495 -0.2706  0.5604 -0.1995
 2689TIP3    H229703   4.793   5.435   6.349  2.3782  0.4492 -0.6491
 2690TIP3   OH229704   5.850   6.342   1.544  0.0473 -0.7160  0.2745
 2690TIP3    H129705   5.839   6.417   1.486  1.4621 -1.0028 -0.4143
 2690TIP3    H229706   5.906   6.373   1.615 -2.1639 -0.1974  1.9013
 2691TIP3   OH229707   6.649   1.961   1.992 -0.3651  0.0422  0.3351
 2691TIP3    H129708   6.610   1.939   2.077  0.4113 -0.0460  0.6858
 2691TIP3    H229709   6.692   2.045   2.008  0.5220 -0.3897  0.2806
 2692TIP3   OH229710   3.938   1.217   2.297  0.2422  0.0698  0.3518
 2692TIP3    H129711   4.002   1.151   2.325  1.1732 -0.4370 -2.6245
 2692TIP3    H229712   3.990   1.283   2.250 -1.2927 -0.1538 -1.8268
 2693TIP3   OH229713   4.534   1.969   0.614  0.9747 -0.1177 -0.2302
 2693TIP3    H129714   4.468   2.001   0.675  0.1588 -1.4908 -0.3576
 2693TIP3    H229715   4.610   2.025   0.630  0.0740  0.9481  0.5117
 2694TIP3   OH229716   3.396   0.572   1.044 -0.4819 -0.2953 -0.0548
 2694TIP3    H129717   3.406   0.667   1.041 -2.1805 -0.0877  0.0353
 2694TIP3    H229718   3.425   0.542   0.958 -0.0668  0.3080 -0.1310
 2695TIP3   OH229719   2.819   0.130   8.655  0.2717  0.3009  0.4820
 2695TIP3    H129720   2.906   0.153   8.686  0.6762 -0.0359 -0.3566
 2695TIP3    H229721   2.780   0.213   8.626  0.5079  0.3763  0.3843
 2696TIP3   OH229722   2.244   0.517   1.269  0.2054 -0.2627  0.9514
 2696TIP3    H129723   2.152   0.498   1.248 -0.6735 -1.1658  4.7873
 2696TIP3    H229724   2.294   0.454   1.217 -1.7784 -3.2170  2.2978
 2697TIP3   OH229725   3.178   6.027   8.284  0.1667 -0.4408 -0.4720
 2697TIP3    H129726   3.164   6.118   8.257  2.6270 -0.3402 -1.7301
 2697TIP3    H229727   3.112   5.977   8.236 -1.1473  0.6364  0.1560
 2698TIP3   OH229728   2.495   4.363   1.638  0.2210 -0.2894 -0.3192
 2698TIP3    H129729   2.445   4.419   1.579  0.1229 -1.2182 -1.1571
 2698TIP3    H229730   2.462   4.383   1.725  0.8168  1.5785 -0.4930
 2699TIP3   OH229731   0.419   2.402   1.642 -0.4680  0.3304  0.4970
 2699TIP3    H129732   0.385   2.322   1.682 -0.5930 -0.3211 -0.8301
 2699TIP3    H229733   0.353   2.425   1.576 -0.0942  1.1341  0.3956
 2700TIP3   OH229734   0.369   6.173   0.298  0.4600 -0.5016  0.4176
 2700TIP3    H129735   0.345   6.265   0.289 -1.8024 -1.0977 -0.1238
 2700TIP3    H229736   0.461   6.170   0.270  0.6219  1.5710  0.5226
 2701TIP3   OH229737   5.221   6.588   1.436  0.1578 -0.1163  0.8483
 2701TIP3    H129738   5.193   6.508   1.479 -2.0054  0.3626  0.4583
 2701TIP3    H229739   5.279   6.631   1.499  0.9064 -1.7042  1.2700
 2702TIP3   OH229740   6.604   5.225   7.366 -0.4193  0.3476  0.0143
 2702TIP3    H129741   6.527   5.175   7.339  0.8407 -0.6250 -2.0876
 2702TIP3    H229742   6.662   5.160   7.406  0.6295  0.3348 -1.4163
 2703TIP3   OH229743   3.609   1.391   0.879  0.5730  0.3349 -0.2522
 2703TIP3    H129744   3.664   1.452   0.830  0.6571  0.9971  0.6327
 2703TIP3    H229745   3.604   1.314   0.824  1.3644  0.7367 -0.9149
 2704TIP3   OH229746   4.349   3.561   6.273 -0.2147 -0.0905 -0.0279
 2704TIP3    H129747   4.425   3.505   6.255 -0.6329 -0.2971 -1.2415
 2704TIP3    H229748   4.276   3.516   6.231 -0.7277  0.8781 -0.2012
 2705TIP3   OH229749   4.619   0.493   6.333 -0.1581  0.1276 -0.5459
 2705TIP3    H129750   4.626   0.449   6.249  3.7979 -0.5704 -0.0566
 2705TIP3    H229751   4.526   0.516   6.341 -1.3194 -2.7601 -3.4998
 2706TIP3   OH229752   4.120   2.751   8.669 -0.2518 -0.7570  0.4783
 2706TIP3    H129753   4.103   2.829   8.615 -1.1544 -0.7191  0.8073
 2706TIP3    H229754   4.117   2.783   8.759  0.5688 -0.9567  0.5857
 2707TIP3   OH229755   5.194   5.557   0.520  0.2110  0.4736 -0.1128
 2707TIP3    H129756   5.148   5.640   0.510  0.6464  1.1091  2.3762
 2707TIP3    H229757   5.285   5.582   0.537  0.7017 -0.6007 -1.0324
 2708TIP3   OH229758   5.758   2.163   0.304 -0.3631  0.1183  0.1068
 2708TIP3    H129759   5.813   2.191   0.230 -0.8711  0.3056 -0.2028
 2708TIP3    H229760   5.682   2.123   0.263 -0.9873  0.8592  0.5161
 2709TIP3   OH229761   6.478   5.299   1.368 -0.3709 -0.3279  0.8667
 2709TIP3    H129762   6.407   5.361   1.386  0.2049  0.6304 -0.0394
 2709TIP3    H229763   6.512   5.326   1.282  0.6348 -1.2018  0.9690
 2710TIP3   OH229764   0.435   2.490   7.180  0.2017 -0.6785 -0.6081
 2710TIP3    H129765   0.507   2.516   7.237 -0.2957 -1.3849  0.3905
 2710TIP3    H229766   0.461   2.517   7.092  1.5930 -0.7766 -0.2358
 2711TIP3   OH229767   2.786   1.068   2.604 -0.5662  0.2763 -0.0872
 2711TIP3    H129768   2.743   0.988   2.573 -0.2507  0.6014 -1.4184
 2711TIP3    H229769   2.804   1.051   2.697  0.2496 -1.5349 -0.5426
 2712TIP3   OH229770   4.122   1.333   1.609 -0.7241 -0.3256 -0.0148
 2712TIP3    H129771   4.046   1.389   1.594 -2.3355 -2.7690 -1.5209
 2712TIP3    H229772   4.095   1.246   1.581  2.0257 -1.7069  1.2008
 2713TIP3   OH229773   6.859   4.489   2.132 -0.1741  0.3149 -0.2202
 2713TIP3    H129774   6.923   4.421   2.152 -0.2556  0.5605  0.9577
 2713TIP3    H229775   6.883   4.562   2.189 -1.3852  0.4727  0.1237
 2714TIP3   OH229776   5.844   6.320   1.975  0.1358 -0.2214  0.2455
 2714TIP3    H129777   5.875   6.236   2.009 -0.8111 -0.5763  0.2476
 2714TIP3    H229778   5.855   6.381   2.048 -0.8876 -0.7470  0.8519
 2715TIP3   OH229779   3.567   1.340   7.524 -0.0626 -0.2876  0.7821
 2715TIP3    H129780   3.555   1.372   7.434  2.6784  0.1102  0.4517
 2715TIP3    H229781   3.555   1.417   7.579  1.5119  0.2747  0.4117
 2716TIP3   OH229782   4.776   6.469   1.659 -0.4713  0.7589 -0.0154
 2716TIP3    H129783   4.684   6.461   1.683 -0.4810 -0.0681 -0.3059
 2716TIP3    H229784   4.821   6.495   1.740 -0.8560  0.4661  0.2897
 2717TIP3   OH229785   2.353   6.195   0.241 -0.2004  0.7025  0.2683
 2717TIP3    H129786   2.326   6.202   0.150 -1.3670  2.3451  0.7016
 2717TIP3    H229787   2.441   6.233   0.244  0.9965 -1.8051 -0.5958
 2718TIP3   OH229788   1.499   5.554   7.914  0.0567 -0.4838  0.0976
 2718TIP3    H129789   1.558   5.479   7.904  1.4207  0.5224  0.2583
 2718TIP3    H229790   1.553   5.630   7.891 -0.5805  0.6859  2.2284
 2719TIP3   OH229791   1.886   5.470   1.857 -0.6252 -0.2345  0.1888
 2719TIP3    H129792   1.828   5.457   1.932 -0.9986 -1.2505 -0.2663
 2719TIP3    H229793   1.973   5.448   1.890 -0.7656 -0.5341  0.3602
 2720TIP3   OH229794   6.404   5.308   8.413 -0.3226  0.2240  0.5051
 2720TIP3    H129795   6.327   5.292   8.358 -0.9071  0.9492  1.0878
 2720TIP3    H229796   6.424   5.222   8.452 -1.4134  0.2026  1.0651
 2721TIP3   OH229797   3.232   2.409   7.910  1.3008 -0.1613  0.3538
 2721TIP3    H129798   3.235   2.331   7.855 -0.5691  0.7368 -1.1524
 2721TIP3    H229799   3.274   2.383   7.991 -0.3418 -3.1671  0.3932
 2722TIP3   OH229800   6.486   0.672   1.099  0.0674  0.0337 -0.0426
 2722TIP3    H129801   6.505   0.587   1.059  1.5354  1.6651 -3.1344
 2722TIP3    H229802   6.571   0.705   1.128 -0.6461  0.0276  2.2410
 2723TIP3   OH229803   0.079   5.391   1.340  0.2979 -0.1196 -0.3812
 2723TIP3    H129804   0.020   5.445   1.288 -0.3045  1.6766  1.9910
 2723TIP3    H229805   0.045   5.302   1.330 -2.3619  0.7428  0.2242
 2724TIP3   OH229806   1.072   1.768   1.120  0.4947  0.2465  0.6297
 2724TIP3    H129807   1.132   1.782   1.193  1.1576 -0.6443  0.2665
 2724TIP3    H229808   1.077   1.674   1.102  0.3158  0.4462 -0.5398
 2725TIP3   OH229809   3.219   3.731   6.674 -0.1118 -0.2970 -0.3901
 2725TIP3    H129810   3.159   3.662   6.645  0.5497 -0.8057 -0.5850
 2725TIP3    H229811   3.213   3.797   6.606  0.1098 -0.6890 -0.7959
 2726TIP3   OH229812   4.496   5.053   2.211  0.4574  0.3644  0.6347
 2726TIP3    H129813   4.407   5.025   2.188  1.5815 -1.0982 -2.4259
 2726TIP3    H229814   4.511   5.131   2.158  1.0797  0.5163  1.0243
 2727TIP3   OH229815   0.386   4.518   7.598 -0.3340  0.7777  0.6571
 2727TIP3    H129816   0.459   4.473   7.640  0.7140  0.7131 -1.1006
 2727TIP3    H229817   0.363   4.589   7.657  0.4269  0.1414  1.7475
 2728TIP3   OH229818   5.654   2.488   2.017  0.5579  0.0436 -0.2456
 2728TIP3    H129819   5.649   2.570   2.066  0.1113  0.0776 -0.3379
 2728TIP3    H229820   5.676   2.516   1.928  2.2960 -0.0901  0.1180
 2729TIP3   OH229821   4.127   1.436   2.219 -0.3487 -0.3013  0.1078
 2729TIP3    H129822   4.177   1.501   2.171 -0.5218 -1.0646 -1.1298
 2729TIP3    H229823   4.190   1.366   2.239 -0.4912 -0.4107  0.1789
 2730TIP3   OH229824   5.827   2.425   7.696 -0.2536  0.3082  0.0796
 2730TIP3    H129825   5.827   2.372   7.775 -0.7277  0.4645  0.1896
 2730TIP3    H229826   5.878   2.374   7.632 -1.4384 -0.6874 -0.0964
 2731TIP3   OH229827   1.245   6.407   0.066  0.1176  0.2993 -0.1681
 2731TIP3    H129828   1.159   6.386   0.031  0.9668 -0.4875 -1.8958
 2731TIP3    H229829   1.300   6.420  -0.011  1.5861  0.6542  0.8966
 2732TIP3   OH229830   2.552   0.874   2.384 -0.4262  0.6007  0.0854
 2732TIP3    H129831   2.536   0.945   2.447  2.0872 -0.6735  2.3821
 2732TIP3    H229832   2.508   0.798   2.422  0.7949 -0.1005  0.1574
 2733TIP3   OH229833   2.080   4.812   7.027 -0.3730 -0.2098  0.3252
 2733TIP3    H129834   2.127   4.768   6.956 -0.3383  1.6661 -0.8810
 2733TIP3    H229835   2.001   4.845   6.986 -0.1959  1.2013  1.0599
 2734TIP3   OH229836   6.384   2.484   8.300  0.1229 -0.1373 -0.0716
 2734TIP3    H129837   6.432   2.429   8.238  0.3135  0.1702 -0.1953
 2734TIP3    H229838   6.451   2.520   8.358  0.4844  2.6048 -1.9759
 2735TIP3   OH229839   2.836   4.558   1.003 -0.1690  0.3798  0.0308
 2735TIP3    H129840   2.849   4.620   1.074 -2.9957  0.3070  0.7073
 2735TIP3    H229841   2.922   4.517   0.991  0.6792  1.2426  2.5745
 2736TIP3   OH229842   4.607   4.881   0.624 -0.4363 -0.2195 -0.4412
 2736TIP3    H129843   4.574   4.969   0.610  1.3977  0.6474  0.3366
 2736TIP3    H229844   4.665   4.864   0.550 -0.1141 -0.4186 -0.1486
 2737TIP3   OH229845   6.266   1.505   8.787  0.2995 -0.0074  0.2008
 2737TIP3    H129846   6.326   1.554   8.844  1.0839 -0.8528  0.1324
 2737TIP3    H229847   6.320   1.484   8.710 -0.2796 -0.2388 -0.1451
 2738TIP3   OH229848   2.690   6.216   8.133 -0.6473 -0.3486 -0.1502
 2738TIP3    H129849   2.677   6.307   8.106 -0.6851  0.6025  2.8176
 2738TIP3    H229850   2.782   6.199   8.112  0.3301  1.5292  2.1471
 2739TIP3   OH229851   5.895   5.788   1.196 -0.0852  0.4786 -0.4030
 2739TIP3    H129852   5.944   5.721   1.148  1.2241  1.1058  0.0208
 2739TIP3    H229853   5.888   5.754   1.285 -2.1702 -0.4995 -0.8628
 2740TIP3   OH229854   1.152   2.990   6.585  0.5277 -0.4066 -0.0993
 2740TIP3    H129855   1.240   2.992   6.622  0.0134 -2.0855  1.3239
 2740TIP3    H229856   1.108   3.066   6.624  1.4614  0.7770 -1.2580
 2741TIP3   OH229857   3.831   6.644   1.267 -0.4833 -0.4112  0.1604
 2741TIP3    H129858   3.883   6.724   1.257 -0.1191 -0.7165 -0.4302
 2741TIP3    H229859   3.847   6.595   1.187  0.4286 -1.7408  1.1078
 2742TIP3   OH229860   4.250   5.821   1.057  0.0956  0.4081  0.2872
 2742TIP3    H129861   4.240   5.895   1.118 -3.0646  0.6759 -0.3707
 2742TIP3    H229862   4.246   5.743   1.112 -2.6780  0.6508  0.5703
 2743TIP3   OH229863   4.634   0.424   1.660  0.2788 -0.4896 -0.3524
 2743TIP3    H129864   4.659   0.497   1.603  0.8398 -0.4287 -0.0270
 2743TIP3    H229865   4.715   0.375   1.674  0.0893 -0.6547  0.1818
 2744TIP3   OH229866   4.712   3.460   6.851  0.4109  0.1290  0.4943
 2744TIP3    H129867   4.781   3.400   6.822 -0.5594 -0.9220  0.2629
 2744TIP3    H229868   4.690   3.429   6.939  0.6105  0.8063  0.7839
 2745TIP3   OH229869   2.788   4.160   0.903  0.1464  0.4563  0.6884
 2745TIP3    H129870   2.740   4.177   0.821  0.0342 -0.7793  0.4781
 2745TIP3    H229871   2.854   4.094   0.879 -0.6920 -0.8664  1.8317
 2746TIP3   OH229872   0.442   3.192   6.660  0.4891  0.2638  0.2003
 2746TIP3    H129873   0.491   3.200   6.579  0.4701 -1.7707 -0.0473
 2746TIP3    H229874   0.353   3.218   6.637  0.3363 -0.9228 -0.6111
 2747TIP3   OH229875   1.725   4.324   6.943  0.5148 -0.5522 -0.4007
 2747TIP3    H129876   1.689   4.244   6.982  0.3640 -0.7942 -1.0292
 2747TIP3    H229877   1.659   4.391   6.961  1.3615 -0.1714  1.5540
 2748TIP3   OH229878   0.111   1.557   8.418  0.3720 -0.0720 -0.1632
 2748TIP3    H129879   0.172   1.609   8.471  1.9394 -0.8218 -1.1872
 2748TIP3    H229880   0.074   1.494   8.480 -1.4714  2.0527  1.0810
 2749TIP3   OH229881   2.512   4.965   7.401  0.3830 -0.2814 -0.6226
 2749TIP3    H129882   2.605   4.955   7.422 -0.0740 -0.3599  1.6553
 2749TIP3    H229883   2.478   4.875   7.399  0.2177 -0.2167 -0.7429
 2750TIP3   OH229884   4.338   3.520   0.173 -0.3173  0.8376 -0.5565
 2750TIP3    H129885   4.310   3.554   0.257 -1.9734  0.8975 -1.1025
 2750TIP3    H229886   4.321   3.590   0.111 -0.6904  0.1931 -1.1960
 2751TIP3   OH229887   4.472   1.515   8.178 -0.3560  0.1480  0.6444
 2751TIP3    H129888   4.413   1.565   8.122 -1.4289 -1.4574  0.2866
 2751TIP3    H229889   4.414   1.472   8.242  0.7494  1.1592  2.3989
 2752TIP3   OH229890   2.544   2.456   1.924 -0.5868 -0.0526 -0.3587
 2752TIP3    H129891   2.573   2.547   1.935  1.5899 -0.6173 -0.8372
 2752TIP3    H229892   2.572   2.414   2.005 -0.1664 -0.6132 -0.7933
 2753TIP3   OH229893   0.085   3.390   0.200 -0.0757 -0.5815 -0.5850
 2753TIP3    H129894   0.036   3.322   0.247  1.9334 -1.0140  1.0024
 2753TIP3    H229895   0.050   3.472   0.234 -0.8716 -0.8362 -0.7639
 2754TIP3   OH229896   1.250   1.294   7.904 -0.4082 -0.2175 -0.4459
 2754TIP3    H129897   1.197   1.350   7.960 -1.0982 -0.7710 -0.5324
 2754TIP3    H229898   1.340   1.324   7.918 -0.6012 -0.1592  0.7297
 2755TIP3   OH229899   4.070   2.946   8.218  0.6724  0.0820 -0.2198
 2755TIP3    H129900   3.998   2.989   8.172  1.1071 -1.5264 -2.6205
 2755TIP3    H229901   4.060   2.853   8.197  2.5926 -0.3584  0.5988
 2756TIP3   OH229902   5.897   3.445   8.043 -0.0218 -0.4732  0.1662
 2756TIP3    H129903   5.889   3.359   8.003 -1.6532 -0.7536  0.9784
 2756TIP3    H229904   5.951   3.430   8.121 -2.2181 -1.3438  1.6392
 2757TIP3   OH229905   0.332   3.210   1.663  0.0446 -0.0109  0.0133
 2757TIP3    H129906   0.384   3.158   1.601 -0.6598  1.1751 -1.6522
 2757TIP3    H229907   0.324   3.295   1.621 -4.2750 -0.4431 -0.4677
 2758TIP3   OH229908   6.414   6.588   6.462 -0.5233 -0.6217 -0.0236
 2758TIP3    H129909   6.393   6.681   6.472  0.7040 -0.4802  1.5299
 2758TIP3    H229910   6.345   6.555   6.404 -1.5121  1.0500  0.1147
 2759TIP3   OH229911   4.860   5.224   1.892 -0.3189 -0.1980  0.0503
 2759TIP3    H129912   4.888   5.315   1.883  1.4511 -0.6351  0.6811
 2759TIP3    H229913   4.858   5.209   1.986 -0.1798 -0.9116 -0.0560
 2760TIP3   OH229914   2.444   6.105   7.619  0.0758 -0.3722 -0.1169
 2760TIP3    H129915   2.394   6.126   7.698 -0.0374 -0.5802 -0.1341
 2760TIP3    H229916   2.508   6.176   7.613  0.7990 -0.9216  0.7664
 2761TIP3   OH229917   1.621   6.444   1.523  0.2918 -0.0305 -0.4183
 2761TIP3    H129918   1.593   6.441   1.431 -0.0277  2.1295 -0.4415
 2761TIP3    H229919   1.714   6.467   1.519  0.1698  0.5143 -0.2126
 2762TIP3   OH229920   1.700   3.268   6.916 -0.8086  0.1029 -0.2695
 2762TIP3    H129921   1.702   3.209   6.841 -1.8784  0.5694 -0.6815
 2762TIP3    H229922   1.636   3.335   6.893 -1.0250  0.3592  0.9870
 2763TIP3   OH229923   0.024   2.307   1.067 -0.4414 -0.4187  0.2114
 2763TIP3    H129924   0.081   2.286   1.141 -0.0978 -0.5073 -0.0762
 2763TIP3    H229925  -0.043   2.364   1.104  2.1614  3.2349 -0.2420
 2764TIP3   OH229926   5.618   3.508   0.889 -0.1408  0.2634  0.5336
 2764TIP3    H129927   5.641   3.452   0.963 -0.2871 -0.2961  0.1622
 2764TIP3    H229928   5.669   3.588   0.902 -1.7608  1.0678  2.3800
 2765TIP3   OH229929   1.576   1.525   8.096 -0.2661  0.6947 -0.3843
 2765TIP3    H129930   1.665   1.491   8.087 -0.4841 -0.0459  0.1143
 2765TIP3    H229931   1.583   1.593   8.162 -0.3133 -0.3972  0.7862
 2766TIP3   OH229932   0.414   2.728   0.465 -0.0521 -0.2920  0.0160
 2766TIP3    H129933   0.381   2.743   0.554  0.7210 -0.1829  0.2933
 2766TIP3    H229934   0.340   2.750   0.408  0.1070  1.7551  0.5257
 2767TIP3   OH229935   3.072   6.473   2.225  0.5884  0.0719  0.1327
 2767TIP3    H129936   3.091   6.551   2.173 -0.1668  0.2999  0.1911
 2767TIP3    H229937   2.995   6.435   2.183 -0.8190  0.9347  1.7862
 2768TIP3   OH229938   4.556   6.216   7.822 -1.0777  0.5770 -0.2168
 2768TIP3    H129939   4.539   6.212   7.728 -0.1284 -0.6982 -0.3600
 2768TIP3    H229940   4.638   6.264   7.830 -0.1511 -0.9418 -0.2138
 2769TIP3   OH229941   1.250   4.161   7.978  0.4100 -0.3699 -0.5528
 2769TIP3    H129942   1.277   4.077   7.940 -0.0899 -0.0715 -1.5883
 2769TIP3    H229943   1.161   4.146   8.008  1.1685 -0.9341  1.5784
 2770TIP3   OH229944   5.784   5.348   1.446 -0.2584  0.2956  0.0886
 2770TIP3    H129945   5.769   5.337   1.540  0.3079 -1.6650 -0.0105
 2770TIP3    H229946   5.697   5.339   1.407 -0.3053 -0.3991  0.3322
 2771TIP3   OH229947   3.726   3.584   2.105 -0.4147 -0.1336 -0.2430
 2771TIP3    H129948   3.668   3.547   2.171  0.1923 -1.0559 -0.2056
 2771TIP3    H229949   3.725   3.679   2.122 -0.0488 -0.3688  1.2808
 2772TIP3   OH229950   5.363   0.685   0.378 -0.1143 -0.4183  0.0023
 2772TIP3    H129951   5.269   0.697   0.393  0.0683  1.5851 -0.1990
 2772TIP3    H229952   5.368   0.646   0.291 -0.7465  1.7335 -1.0836
 2773TIP3   OH229953   0.777   3.959   8.758 -0.5056 -0.0408 -0.0557
 2773TIP3    H129954   0.797   3.974   8.666  0.2829 -0.5013  0.0396
 2773TIP3    H229955   0.822   3.878   8.780 -0.6325  0.1039  0.7605
 2774TIP3   OH229956   2.805   4.338   7.878 -0.3572  0.3706  0.2594
 2774TIP3    H129957   2.758   4.388   7.944 -0.6042 -0.7109  0.9283
 2774TIP3    H229958   2.884   4.389   7.859 -1.5976  2.0564 -0.6345
 2775TIP3   OH229959   4.529   6.618   7.110  0.0496 -0.7678  0.2125
 2775TIP3    H129960   4.581   6.542   7.135  0.5593  0.0179  1.6359
 2775TIP3    H229961   4.582   6.662   7.043  0.0272 -1.3151 -0.1755
 2776TIP3   OH229962   2.496   0.610   2.058  0.3792  0.1545  0.7120
 2776TIP3    H129963   2.455   0.694   2.035 -0.3024  0.5069  2.9557
 2776TIP3    H229964   2.578   0.635   2.101  0.6260 -0.3674  0.5449
 2777TIP3   OH229965   6.651   1.519   2.569 -0.4809 -0.8826 -0.3748
 2777TIP3    H129966   6.670   1.589   2.507  0.3641  2.5132  3.3144
 2777TIP3    H229967   6.736   1.478   2.585  0.1398  0.8484  1.2030
 2778TIP3   OH229968   0.622   2.265   0.274  0.8921 -0.5846  0.2024
 2778TIP3    H129969   0.657   2.235   0.358  1.9133  0.1270  0.0555
 2778TIP3    H229970   0.615   2.186   0.221 -0.4239 -1.1518  1.1630
 2779TIP3   OH229971   2.275   5.210   8.749  0.2135  0.4588 -0.0166
 2779TIP3    H129972   2.221   5.194   8.826  0.7134  1.0450  0.4649
 2779TIP3    H229973   2.361   5.232   8.784  0.9055 -0.8999 -0.7804
 2780TIP3   OH229974   2.323   3.763   6.208 -0.0617  0.5603  0.0126
 2780TIP3    H129975   2.307   3.851   6.172  0.4402  1.1563  1.2020
 2780TIP3    H229976   2.417   3.752   6.203 -0.0461  0.4136  0.5949
 2781TIP3   OH229977   6.347   5.594   2.533  0.2850 -0.0404  0.4501
 2781TIP3    H129978   6.439   5.603   2.511 -0.6540  3.0107 -3.3111
 2781TIP3    H229979   6.320   5.682   2.560 -2.1250 -0.0036 -1.7218
 2782TIP3   OH229980   2.917   5.865   1.926 -0.1691  0.3271 -0.4603
 2782TIP3    H129981   2.829   5.842   1.957 -0.2580 -0.7644 -1.4481
 2782TIP3    H229982   2.905   5.948   1.879 -0.7676 -0.0823 -1.0349
 2783TIP3   OH229983   0.733   1.933   8.199 -0.0209  0.0427 -0.1006
 2783TIP3    H129984   0.743   2.011   8.254  0.8917  0.6440 -1.0660
 2783TIP3    H229985   0.670   1.878   8.245 -0.9994  1.5305  0.4062
 2784TIP3   OH229986   3.981   5.184   6.440 -0.1448 -0.0974 -0.1449
 2784TIP3    H129987   4.014   5.095   6.448 -3.0617 -1.1698  1.9366
 2784TIP3    H229988   3.961   5.194   6.347  1.3337 -1.1379 -0.6083
 2785TIP3   OH229989   5.482   0.942   8.612 -0.0603  0.9301  0.2427
 2785TIP3    H129990   5.564   0.988   8.593  1.2282 -0.4544  2.1200
 2785TIP3    H229991   5.419   1.012   8.630  1.2377  2.0147  0.7793
 2786TIP3   OH229992   6.432   6.660   2.350  0.0896  0.8889 -0.1003
 2786TIP3    H129993   6.423   6.603   2.426  0.6133 -0.2271 -0.8331
 2786TIP3    H229994   6.443   6.748   2.386 -2.9355  0.8910  1.0287
 2787TIP3   OH229995   5.728   5.840   0.411 -0.0509 -0.1224 -0.6017
 2787TIP3    H129996   5.819   5.811   0.404  0.3953  1.2572 -0.7467
 2787TIP3    H229997   5.732   5.935   0.403 -1.4818 -0.0121 -0.2939
 2788TIP3   OH229998   6.455   5.043   8.503  0.4917 -0.5230 -0.2815
 2788TIP3    H129999   6.421   5.035   8.592 -0.6258  1.3984 -0.4896
 2788TIP3    H230000   6.428   4.961   8.460  1.6310 -1.7780  1.2733
 2789TIP3   OH230001   0.396   6.296   8.657  0.0167  1.0138 -0.0713
 2789TIP3    H130002   0.310   6.257   8.670  0.6525 -0.0321  1.1113
 2789TIP3    H230003   0.393   6.329   8.567 -0.2324 -2.6055 -1.5612
 2790TIP3   OH230004   6.538   2.431   7.494  0.0121  0.2664  0.0882
 2790TIP3    H130005   6.446   2.439   7.519  0.1131 -0.4305  0.7162
 2790TIP3    H230006   6.553   2.502   7.431 -0.8280  0.6729  0.3478
 2791TIP3   OH230007   2.010   4.931   2.045 -0.5229  0.9070  0.1962
 2791TIP3    H130008   2.005   4.850   2.096  0.0176  1.2151  0.7358
 2791TIP3    H230009   2.101   4.960   2.054 -0.4735  1.0793 -0.7613
 2792TIP3   OH230010   6.027   5.616   8.529 -0.3499  0.0396 -0.1983
 2792TIP3    H130011   5.946   5.610   8.478  0.1066 -1.5873 -0.7957
 2792TIP3    H230012   6.000   5.654   8.612 -1.8940 -1.1900 -0.0947
 2793TIP3   OH230013   6.302   0.899   6.595  0.6842  0.3611  0.3773
 2793TIP3    H130014   6.223   0.877   6.546  0.4645  0.3382  0.7345
 2793TIP3    H230015   6.370   0.907   6.529  0.7189 -1.1553  0.1955
 2794TIP3   OH230016   5.666   6.174   7.559  0.2097  0.7783 -0.2174
 2794TIP3    H130017   5.579   6.201   7.530  0.2953 -0.6002 -1.9150
 2794TIP3    H230018   5.727   6.225   7.505  0.3750 -1.0894 -1.9245
 2795TIP3   OH230019   4.041   2.893   7.606 -0.1794 -0.1246  0.0577
 2795TIP3    H130020   4.002   2.977   7.584  0.1043  0.1437  0.5638
 2795TIP3    H230021   4.012   2.834   7.537  0.3906  0.6101 -0.8261
 2796TIP3   OH230022   6.573   5.894   1.546  0.1392 -0.1209  0.4692
 2796TIP3    H130023   6.553   5.813   1.499 -0.4760  0.8484 -1.0230
 2796TIP3    H230024   6.491   5.918   1.588  0.4021 -0.4126  1.1631
 2797TIP3   OH230025   4.022   5.763   8.428 -0.0177 -0.2471  0.1692
 2797TIP3    H130026   4.022   5.738   8.335  0.1477 -0.7809  0.3055
 2797TIP3    H230027   4.107   5.732   8.460  0.0119  0.1307  0.4483
 2798TIP3   OH230028   2.769   0.982   7.704 -0.0893  0.2491 -0.6867
 2798TIP3    H130029   2.784   0.911   7.766 -1.0721  0.6873  0.0759
 2798TIP3    H230030   2.694   0.953   7.652 -0.4655  0.7015 -0.4031
 2799TIP3   OH230031   0.443   0.233   7.905 -0.1245  0.3025 -0.5434
 2799TIP3    H130032   0.443   0.213   7.998  0.9915 -2.9505 -1.1192
 2799TIP3    H230033   0.351   0.222   7.879  0.0025 -1.7241 -0.2896
 2800TIP3   OH230034   4.072   2.153   0.858 -0.3166 -0.3356  0.3314
 2800TIP3    H130035   4.105   2.076   0.904  1.2676  1.0530  1.6752
 2800TIP3    H230036   4.022   2.201   0.924 -0.1322  0.4559 -0.0855
 2801TIP3   OH230037   5.497   3.051   8.230 -0.3902 -0.0532 -0.2344
 2801TIP3    H130038   5.500   2.996   8.308  3.1776 -0.7420 -0.6856
 2801TIP3    H230039   5.485   3.140   8.264 -0.2407 -0.4808  0.9718
 2802TIP3   OH230040   3.254   3.018   0.013 -0.0029  0.0675  0.3823
 2802TIP3    H130041   3.209   2.940   0.044  0.5155  0.4415  2.2098
 2802TIP3    H230042   3.341   2.988  -0.014 -0.4426 -0.2524 -0.7513
 2803TIP3   OH230043   0.140   1.737   0.021  0.1536 -0.1317 -0.0884
 2803TIP3    H130044   0.143   1.818   0.073 -1.2004  0.4557 -0.8784
 2803TIP3    H230045   0.114   1.669   0.083 -1.9340  0.6454 -0.0274
 2804TIP3   OH230046   6.839   0.597   6.555 -0.0598 -0.2009 -0.2672
 2804TIP3    H130047   6.898   0.545   6.609  0.2211 -2.6461 -2.6536
 2804TIP3    H230048   6.790   0.531   6.504 -0.1602  1.8327 -3.0593
 2805TIP3   OH230049   5.510   3.273   8.390 -0.1109 -0.1665  0.4603
 2805TIP3    H130050   5.483   3.266   8.481  0.0978 -1.9737  0.4160
 2805TIP3    H230051   5.596   3.316   8.393 -0.9379  1.5092  0.9389
 2806TIP3   OH230052   1.853   0.904   1.056  0.6393  0.0368  0.2895
 2806TIP3    H130053   1.809   0.849   1.121 -1.7738  1.4394 -0.0483
 2806TIP3    H230054   1.854   0.991   1.096 -0.5506  0.8494 -1.3480
 2807TIP3   OH230055   2.318   5.123   0.975 -0.2920 -0.2692  0.2946
 2807TIP3    H130056   2.352   5.160   0.893  0.1926  1.0582  1.0601
 2807TIP3    H230057   2.239   5.173   0.993 -0.0788 -0.1599  0.9352
 2808TIP3   OH230058   5.550   2.793   7.219 -0.0032 -0.3519  0.4601
 2808TIP3    H130059   5.493   2.795   7.143  1.6259 -1.5733 -0.8649
 2808TIP3    H230060   5.626   2.743   7.191  0.0772 -2.0630  3.3110
 2809TIP3   OH230061   2.350   3.245   7.850  0.2488 -0.4445 -0.0924
 2809TIP3    H130062   2.307   3.207   7.773 -0.3725 -0.7921  0.4107
 2809TIP3    H230063   2.402   3.173   7.886 -0.7675 -0.7848  0.7463
 2810TIP3   OH230064   4.638   3.980   0.116  0.3025 -0.4071  0.4578
 2810TIP3    H130065   4.670   3.999   0.028  0.4023 -0.4840  0.4774
 2810TIP3    H230066   4.698   4.028   0.174  0.0571 -0.1155  0.4700
 2811TIP3   OH230067   4.322   0.431   6.994  0.0690  0.0686 -0.0974
 2811TIP3    H130068   4.305   0.382   6.913 -0.9971  0.0300  0.1299
 2811TIP3    H230069   4.354   0.516   6.964 -1.0929  0.3478 -0.6069
 2812TIP3   OH230070   3.453   4.226   0.780 -0.7720  0.0541 -0.1025
 2812TIP3    H130071   3.469   4.305   0.728  0.7189  0.1189  0.4165
 2812TIP3    H230072   3.498   4.157   0.732 -1.6601 -0.3971 -0.2933
 2813TIP3   OH230073   3.943   3.799   0.633  0.5959  0.0586 -0.2503
 2813TIP3    H130074   3.953   3.715   0.678 -3.8213  0.7996  2.8674
 2813TIP3    H230075   3.891   3.778   0.555 -0.7161 -0.2059  0.6500
 2814TIP3   OH230076   4.672   5.716   7.788 -0.1162 -0.0941  1.1245
 2814TIP3    H130077   4.686   5.700   7.881  1.0938 -0.2720  0.9163
 2814TIP3    H230078   4.632   5.636   7.755 -1.3440  0.2746  1.6350
 2815TIP3   OH230079   1.436   1.944   1.819 -0.0793  0.2750 -0.2942
 2815TIP3    H130080   1.422   2.033   1.786 -0.0844 -0.2741 -1.8658
 2815TIP3    H230081   1.360   1.927   1.874  1.2179  2.1766  2.2676
 2816TIP3   OH230082   4.021   1.183   1.209 -0.0595  0.0208 -0.7043
 2816TIP3    H130083   3.936   1.167   1.168 -0.3200 -0.4777 -0.0052
 2816TIP3    H230084   4.082   1.128   1.161 -0.2404 -0.0553 -0.8470
 2817TIP3   OH230085   2.446   5.813   7.642 -0.0400  0.1097 -1.0598
 2817TIP3    H130086   2.413   5.902   7.633 -0.2361  0.0988 -0.4523
 2817TIP3    H230087   2.426   5.788   7.732  1.9272  0.2186 -0.5403
 2818TIP3   OH230088   6.435   1.359   1.520 -0.4473  0.1988  0.1973
 2818TIP3    H130089   6.476   1.297   1.580  0.4469  0.2837 -0.3019
 2818TIP3    H230090   6.387   1.304   1.458  0.1468 -0.0021 -0.1005
 2819TIP3   OH230091   5.966   4.879   1.297 -0.0166 -0.0583 -0.4893
 2819TIP3    H130092   5.987   4.868   1.204 -0.6323  0.9579 -0.7601
 2819TIP3    H230093   5.914   4.959   1.300 -1.6619 -1.1178  0.4963
 2820TIP3   OH230094   0.035   0.571   1.676 -0.5665 -0.2425  0.0639
 2820TIP3    H130095   0.112   0.552   1.728 -0.4455  1.7755  0.7075
 2820TIP3    H230096  -0.025   0.615   1.736 -1.5785 -0.3735 -0.8130
 2821TIP3   OH230097   5.701   1.824   1.196 -0.2374 -0.3151 -0.5206
 2821TIP3    H130098   5.760   1.877   1.142  0.5526 -0.7559 -0.1146
 2821TIP3    H230099   5.732   1.734   1.184  0.1694 -0.3853  0.9063
 2822TIP3   OH230100   1.162   0.851   1.322  0.3794 -0.4751  0.0505
 2822TIP3    H130101   1.241   0.846   1.268  1.1069 -1.1922  1.1366
 2822TIP3    H230102   1.090   0.856   1.259  1.2047 -1.1481 -0.9862
 2823TIP3   OH230103   3.149   0.597   0.293 -0.0184  0.2566  0.1695
 2823TIP3    H130104   3.195   0.670   0.335  0.6639  0.6698 -1.2450
 2823TIP3    H230105   3.088   0.566   0.360  1.8077  0.1379  1.8695
 2824TIP3   OH230106   2.532   5.954   8.236 -0.4376 -0.4441 -0.3928
 2824TIP3    H130107   2.626   5.938   8.248 -0.5089 -0.2117  0.4987
 2824TIP3    H230108   2.524   5.975   8.143  0.4421 -0.1360 -0.4113
 2825TIP3   OH230109   4.531   3.843   1.481 -0.0114  0.5857 -0.0879
 2825TIP3    H130110   4.626   3.831   1.485 -0.0622  0.4573  2.6318
 2825TIP3    H230111   4.520   3.938   1.489 -0.1070  0.4036  2.8719
 2826TIP3   OH230112   3.259   0.748   2.664 -0.1025 -0.8598 -0.4734
 2826TIP3    H130113   3.189   0.699   2.622  0.5082 -0.9198 -1.4444
 2826TIP3    H230114   3.323   0.681   2.690  0.3861 -0.6644 -1.1382
 2827TIP3   OH230115   0.228   0.448   0.873  0.9999  0.7343  0.5237
 2827TIP3    H130116   0.184   0.467   0.956 -1.3151  1.0003 -0.6816
 2827TIP3    H230117   0.316   0.421   0.899 -0.2477 -1.3587  3.2522
 2828TIP3   OH230118   6.659   6.338   1.695 -0.2182  0.3974  0.1770
 2828TIP3    H130119   6.595   6.410   1.696 -0.1974  0.4183  1.0295
 2828TIP3    H230120   6.676   6.322   1.602 -0.9153  0.8794 -0.0411
 2829TIP3   OH230121   3.528   1.275   8.479  0.2208 -0.1021 -0.3983
 2829TIP3    H130122   3.572   1.356   8.456 -2.4458  1.7259  0.5009
 2829TIP3    H230123   3.561   1.254   8.567 -0.5124  1.1430  0.1953
 2830TIP3   OH230124   2.368   1.986   0.884  0.6179  0.4348  0.1680
 2830TIP3    H130125   2.330   1.899   0.899 -1.6320  1.5181  1.3226
 2830TIP3    H230126   2.425   2.000   0.960  0.2223  0.3361  0.4883
 2831TIP3   OH230127   4.602   2.921   0.601 -0.4240  0.7761 -0.5149
 2831TIP3    H130128   4.592   2.889   0.511  2.1470  1.7114 -1.2345
 2831TIP3    H230129   4.668   2.864   0.640 -2.1094 -0.1516  1.1381
 2832TIP3   OH230130   5.460   5.472   0.388  0.0276 -0.3802  0.9909
 2832TIP3    H130131   5.425   5.426   0.312  0.6676  0.7565 -0.0185
 2832TIP3    H230132   5.431   5.563   0.378 -1.0212 -0.4499  2.8276
 2833TIP3   OH230133   6.259   5.780   7.800 -0.3390  0.1917 -0.1785
 2833TIP3    H130134   6.350   5.799   7.821  0.0285 -1.8726  0.2908
 2833TIP3    H230135   6.263   5.708   7.737 -1.6383 -0.6267  0.6227
 2834TIP3   OH230136   1.242   4.268   0.993 -0.0376  0.0017  0.5366
 2834TIP3    H130137   1.255   4.237   0.903 -1.5917 -1.2534  0.7031
 2834TIP3    H230138   1.262   4.192   1.048 -1.3890  0.0394  1.1028
 2835TIP3   OH230139   6.784   6.855   0.870  0.0082  0.2102 -0.0494
 2835TIP3    H130140   6.778   6.895   0.956 -2.7705 -0.7018  0.2601
 2835TIP3    H230141   6.833   6.774   0.885 -0.1431  0.2351  0.6186
 2836TIP3   OH230142   5.518   4.449   7.163 -0.3445 -0.2622  0.6935
 2836TIP3    H130143   5.438   4.407   7.133  0.4155 -1.4554  0.2845
 2836TIP3    H230144   5.492   4.539   7.181 -1.4254 -0.1789 -1.0166
 2837TIP3   OH230145   0.640   3.665   7.439 -0.2835  0.8748  0.1571
 2837TIP3    H130146   0.608   3.582   7.403 -0.3625  1.0806 -0.2558
 2837TIP3    H230147   0.629   3.728   7.367 -0.7975  1.3756  0.6625
 2838TIP3   OH230148   1.853   2.121   2.908  0.3165 -0.1223  0.1967
 2838TIP3    H130149   1.897   2.188   2.857 -0.1775 -1.0349 -1.5002
 2838TIP3    H230150   1.776   2.097   2.856 -0.5664 -0.6670  1.6744
 2839TIP3   OH230151   5.619   3.361   8.052  0.3282  0.4772  0.2791
 2839TIP3    H130152   5.680   3.397   7.987  1.2065 -1.4621 -0.0502
 2839TIP3    H230153   5.675   3.335   8.126 -0.4485  1.0663  1.0964
 2840TIP3   OH230154   2.166   6.144   8.511  0.1411 -0.6746 -0.0975
 2840TIP3    H130155   2.095   6.208   8.499  1.2204  0.6021  0.0403
 2840TIP3    H230156   2.122   6.060   8.514 -1.3756  0.0796 -0.0370
 2841TIP3   OH230157   5.765   3.369   1.386  0.0907  0.3532  0.1337
 2841TIP3    H130158   5.695   3.409   1.437 -0.4805  0.6715 -0.8831
 2841TIP3    H230159   5.726   3.350   1.301  0.4616 -1.9818  0.4159
 2842TIP3   OH230160   3.103   0.316   0.872 -0.3606 -0.4938  0.3155
 2842TIP3    H130161   3.147   0.237   0.840  0.8021  0.9693 -1.9767
 2842TIP3    H230162   3.046   0.343   0.801 -2.0228 -0.1423  1.7224
 2843TIP3   OH230163   1.511   5.959   0.168 -0.9219  0.0750  0.8362
 2843TIP3    H130164   1.451   5.992   0.235 -2.4920 -0.7336 -0.1211
 2843TIP3    H230165   1.573   5.905   0.217 -0.5843  1.3736  1.9163
 2844TIP3   OH230166   3.639   6.488   0.888  0.3632 -0.3129  0.0345
 2844TIP3    H130167   3.641   6.579   0.858 -3.4468 -0.2439 -0.4294
 2844TIP3    H230168   3.661   6.493   0.981 -0.6552  1.2496  0.2287
 2845TIP3   OH230169   3.430   3.579   0.156 -0.3907  0.0329  0.2789
 2845TIP3    H130170   3.482   3.499   0.162  0.4944  0.1440 -3.2181
 2845TIP3    H230171   3.475   3.642   0.212  0.6706 -1.0819  0.7241
 2846TIP3   OH230172   2.652   6.732   0.511  0.0921  0.1452 -0.3304
 2846TIP3    H130173   2.735   6.764   0.546 -0.3110  0.5321  0.2806
 2846TIP3    H230174   2.609   6.809   0.474  0.5746 -0.2749 -1.8463
 2847TIP3   OH230175   0.510   1.920   7.324  0.0285 -0.2217 -0.0016
 2847TIP3    H130176   0.528   1.899   7.416 -2.9045 -0.4221  0.6509
 2847TIP3    H230177   0.529   2.014   7.318  0.5923 -0.2781  0.7182
 2848TIP3   OH230178   2.723   0.590   6.889 -0.1521 -0.5228 -0.3779
 2848TIP3    H130179   2.759   0.663   6.839 -1.6505  0.7005  0.2396
 2848TIP3    H230180   2.788   0.572   6.957 -0.4963  1.4336  0.5414
 2849TIP3   OH230181   0.797   3.629   0.254  0.0263 -0.2801 -0.0801
 2849TIP3    H130182   0.817   3.692   0.185  0.2558  0.6615  0.8098
 2849TIP3    H230183   0.877   3.623   0.306  0.1289 -1.6054 -0.3485
 2850TIP3   OH230184   5.699   6.059   1.888 -0.7598  1.0156 -0.4788
 2850TIP3    H130185   5.614   6.023   1.916  0.5487 -0.9087  1.2805
 2850TIP3    H230186   5.746   6.074   1.969  1.8696 -1.2908 -1.4292
 2851TIP3   OH230187   2.716   5.525   8.370 -0.2745 -0.2389 -0.0844
 2851TIP3    H130188   2.631   5.567   8.354  0.3828  0.0420 -3.6734
 2851TIP3    H230189   2.732   5.538   8.463 -2.3198  3.3074 -0.0466
 2852TIP3   OH230190   4.457   4.763   0.845  0.1056 -0.0339 -0.3381
 2852TIP3    H130191   4.385   4.710   0.812 -0.4432  1.0138 -0.8546
 2852TIP3    H230192   4.492   4.808   0.768  1.7077 -0.9557 -0.2004
 2853TIP3   OH230193   6.439   3.534   7.651 -0.0528  0.3208 -0.2895
 2853TIP3    H130194   6.395   3.472   7.593  1.1345 -0.8292 -0.0096
 2853TIP3    H230195   6.526   3.495   7.666 -0.0842  0.9149  1.7098
 2854TIP3   OH230196   3.181   3.046   1.836  0.4304 -0.6845  0.5451
 2854TIP3    H130197   3.241   3.015   1.904  1.1451  0.8528  0.6754
 2854TIP3    H230198   3.128   3.112   1.880 -0.2664 -0.8897  0.0169
 2855TIP3   OH230199   6.552   0.372   6.683  0.6728 -0.0172 -0.1315
 2855TIP3    H130200   6.610   0.379   6.607 -0.9266 -2.7772 -1.7498
 2855TIP3    H230201   6.555   0.280   6.708 -0.6255  0.3786  1.7049
 2856TIP3   OH230202   0.841   4.465   7.995 -0.1824 -0.1642 -0.4120
 2856TIP3    H130203   0.888   4.383   7.979 -1.7679 -1.5495  1.5721
 2856TIP3    H230204   0.777   4.470   7.925  1.3750  0.6044 -1.8519
 2857TIP3   OH230205   5.066   0.280   1.757  0.2659  0.7117  0.1122
 2857TIP3    H130206   5.154   0.318   1.765  0.4371  0.1548  1.3137
 2857TIP3    H230207   5.033   0.279   1.847 -1.6847  2.4498 -0.5115
 2858TIP3   OH230208   1.959   6.220   0.927 -0.3903 -0.0011 -0.0814
 2858TIP3    H130209   1.963   6.218   1.023  1.3783 -0.5435 -0.1251
 2858TIP3    H230210   2.012   6.296   0.903 -0.1089 -0.3721 -0.6423
 2859TIP3   OH230211   3.231   4.759   1.320 -0.1897 -0.1418  0.5125
 2859TIP3    H130212   3.149   4.740   1.273 -0.2270  1.0774  0.0362
 2859TIP3    H230213   3.249   4.851   1.300 -0.2417  0.4688  2.9660
 2860TIP3   OH230214   0.929   1.723   1.793 -0.3850  0.0609 -0.1093
 2860TIP3    H130215   0.888   1.802   1.830 -0.7982 -0.5765  0.8255
 2860TIP3    H230216   0.929   1.739   1.698 -0.3211  1.2446  0.0669
 2861TIP3   OH230217   3.384   5.026   6.923  0.2833 -0.4085 -0.1458
 2861TIP3    H130218   3.385   4.931   6.912 -2.6567 -0.5990  0.2477
 2861TIP3    H230219   3.395   5.061   6.835  0.7370 -1.1336 -0.3820
 2862TIP3   OH230220   4.633   6.657   1.830 -0.2818 -0.2620  0.0615
 2862TIP3    H130221   4.580   6.737   1.831 -1.1163 -0.7266  2.9415
 2862TIP3    H230222   4.573   6.588   1.856  0.9140 -1.4814 -0.2852
 2863TIP3   OH230223   0.576   4.512   7.404  0.3423  0.2391  0.2586
 2863TIP3    H130224   0.503   4.523   7.466 -1.1522 -0.5580 -1.2748
 2863TIP3    H230225   0.570   4.420   7.377 -0.7927  1.1395 -3.0473
 2864TIP3   OH230226   1.911   1.508   8.076  0.4869  0.4171 -0.4068
 2864TIP3    H130227   1.991   1.491   8.028  0.4460 -0.6957 -0.1099
 2864TIP3    H230228   1.933   1.490   8.167 -0.2390 -0.4402 -0.3887
 2865TIP3   OH230229   6.785   0.299   1.962 -0.0308  0.1358 -0.5784
 2865TIP3    H130230   6.837   0.260   2.032 -1.7209 -1.0799  0.0644
 2865TIP3    H230231   6.814   0.254   1.883  1.6230  1.2528 -0.6691
 2866TIP3   OH230232   6.490   4.518   0.578 -0.4603 -0.3621 -0.6805
 2866TIP3    H130233   6.405   4.517   0.623 -0.5591  1.4204 -0.7582
 2866TIP3    H230234   6.476   4.575   0.503  1.0387  0.6290 -0.2333
 2867TIP3   OH230235   3.804   0.757   7.772  0.2290  0.1989  0.1816
 2867TIP3    H130236   3.712   0.755   7.800  0.2878  0.1451  0.3735
 2867TIP3    H230237   3.800   0.780   7.679  0.0557  0.8588  0.3479
 2868TIP3   OH230238   1.781   2.026   7.965 -0.6549  0.0610 -0.0827
 2868TIP3    H130239   1.713   1.964   7.989 -1.6158  0.2637 -2.0340
 2868TIP3    H230240   1.862   1.986   7.995 -1.5378 -0.5441  1.6213
 2869TIP3   OH230241   2.791   5.824   6.808 -0.0339 -0.2982 -0.0415
 2869TIP3    H130242   2.871   5.852   6.763 -0.7644  1.8151 -0.0975
 2869TIP3    H230243   2.782   5.885   6.880 -2.3817  0.4258 -0.8860
 2870TIP3   OH230244   4.580   0.851   7.122 -0.4618 -0.5153  0.3204
 2870TIP3    H130245   4.662   0.877   7.164  2.0564 -5.1250 -1.1298
 2870TIP3    H230246   4.580   0.900   7.040  1.4803 -1.1423 -0.1204
 2871TIP3   OH230247   3.142   2.310   0.494 -0.1393  0.2477  0.6664
 2871TIP3    H130248   3.158   2.323   0.587 -0.2555  1.7726  0.5064
 2871TIP3    H230249   3.202   2.371   0.451 -0.0407 -0.4878 -0.2553
 2872TIP3   OH230250   5.668   1.358   8.417 -0.6437  0.0729  0.3369
 2872TIP3    H130251   5.747   1.312   8.386 -1.0417  1.6616 -3.4957
 2872TIP3    H230252   5.693   1.391   8.504  2.1657 -1.1991  0.1307
 2873TIP3   OH230253   3.286   4.234   8.358 -0.1854 -0.9326 -0.5338
 2873TIP3    H130254   3.205   4.185   8.340 -1.3263  0.0838  1.4065
 2873TIP3    H230255   3.317   4.262   8.272 -2.8376  0.0071 -1.3004
 2874TIP3   OH230256   2.557   6.065   2.070 -0.5225 -0.1165  0.2115
 2874TIP3    H130257   2.593   6.071   2.159  0.3239 -0.3878 -0.1028
 2874TIP3    H230258   2.498   6.140   2.063 -1.2631 -0.5661  1.2941
 2875TIP3   OH230259   6.173   4.300   7.431 -0.5446  0.1604  1.0461
 2875TIP3    H130260   6.110   4.257   7.489  0.1737 -0.0959  1.6448
 2875TIP3    H230261   6.245   4.325   7.488 -0.3556  0.9820  0.4708
 2876TIP3   OH230262   0.455   0.174   1.348  0.5963  0.5547  0.2266
 2876TIP3    H130263   0.395   0.249   1.359  1.1697  0.9130  0.9637
 2876TIP3    H230264   0.528   0.210   1.298 -1.0256 -0.5534 -3.2908
 2877TIP3   OH230265   1.632   2.053   1.129 -0.1249  0.0180  0.3121
 2877TIP3    H130266   1.655   2.144   1.110 -0.6035  0.0984  0.1108
 2877TIP3    H230267   1.540   2.046   1.107 -0.4241 -0.1709  1.5556
 2878TIP3   OH230268   3.170   4.331   7.432 -0.3383  0.7253  0.6274
 2878TIP3    H130269   3.140   4.345   7.343 -0.4849 -1.0868  0.3563
 2878TIP3    H230270   3.262   4.356   7.430  0.2621 -1.3397 -0.6408
 2879TIP3   OH230271   4.267   6.450   1.083  0.2719 -0.1927  0.3348
 2879TIP3    H130272   4.213   6.385   1.127 -0.5882  0.2649 -0.0348
 2879TIP3    H230273   4.293   6.511   1.152 -0.6920  0.2626  0.3141
 2880TIP3   OH230274   4.943   2.682   1.651  0.0958 -0.1380  0.5381
 2880TIP3    H130275   4.886   2.618   1.609  3.0216 -1.1900 -2.1763
 2880TIP3    H230276   4.917   2.766   1.613  0.6097 -0.6722 -1.0717
 2881TIP3   OH230277   6.114   5.705   1.035 -0.6526 -0.7482 -0.6365
 2881TIP3    H130278   6.198   5.680   1.073 -0.6365  0.7250  0.3688
 2881TIP3    H230279   6.103   5.645   0.961  1.2266 -1.0492 -0.7360
 2882TIP3   OH230280   0.543   1.227   7.251  0.3876  0.1323 -0.0368
 2882TIP3    H130281   0.453   1.251   7.270  0.0999 -1.7679  1.3779
 2882TIP3    H230282   0.540   1.188   7.164 -0.2180 -0.1438  0.1024
 2883TIP3   OH230283   0.715   5.862   7.463  0.3012 -0.1449 -0.1716
 2883TIP3    H130284   0.631   5.828   7.432 -0.8999 -0.4861  3.0635
 2883TIP3    H230285   0.765   5.783   7.487  1.3096  0.0893 -1.3855
 2884TIP3   OH230286   3.567   0.780   7.110 -0.5390 -0.0220 -0.0115
 2884TIP3    H130287   3.596   0.770   7.020 -0.0961 -1.3105  0.2539
 2884TIP3    H230288   3.625   0.847   7.147 -0.6105  0.3822 -0.6211
 2885TIP3   OH230289   6.078   1.393   6.402  0.5719  0.0993  0.0106
 2885TIP3    H130290   6.145   1.450   6.439 -0.2301  1.9016 -1.1275
 2885TIP3    H230291   5.996   1.440   6.417 -0.2749 -1.3402  0.0620
 2886TIP3   OH230292   6.067   1.740   1.392 -0.1867  0.1275  0.7311
 2886TIP3    H130293   6.138   1.683   1.363 -0.0191  0.2274  0.9413
 2886TIP3    H230294   6.108   1.826   1.399 -0.7998  0.6293 -1.1624
 2887TIP3   OH230295   4.619   1.178   7.106  0.0045 -0.2619  0.0252
 2887TIP3    H130296   4.701   1.226   7.094  0.1164 -0.7875 -1.4875
 2887TIP3    H230297   4.581   1.173   7.019  0.7761 -4.3170 -0.2847
 2888TIP3   OH230298   5.502   5.400   8.674  0.3178  0.2786 -0.0491
 2888TIP3    H130299   5.440   5.399   8.602 -0.8501  1.2453  0.8924
 2888TIP3    H230300   5.493   5.314   8.715  0.4272  0.0077 -0.5853
 2889TIP3   OH230301   3.193   6.763   6.715 -0.2360 -0.1199 -1.0147
 2889TIP3    H130302   3.110   6.716   6.722  0.4744 -1.2715 -0.0007
 2889TIP3    H230303   3.217   6.754   6.623  0.3214 -2.5767 -0.6896
 2890TIP3   OH230304   1.081   6.417   8.169  0.0994  0.1069  0.4431
 2890TIP3    H130305   1.116   6.435   8.081  0.3931 -2.4412 -0.0477
 2890TIP3    H230306   1.146   6.359   8.208 -1.1734 -0.6765  1.4555
 2891TIP3   OH230307   0.485   4.981   6.866 -0.0113 -0.2748 -0.0392
 2891TIP3    H130308   0.566   5.031   6.880  0.4433 -0.9727 -0.1206
 2891TIP3    H230309   0.509   4.913   6.804 -0.8019 -0.1767 -0.4687
 2892TIP3   OH230310   4.018   6.426   0.385 -0.1257 -0.4361  0.1553
 2892TIP3    H130311   3.971   6.413   0.303  1.6245 -1.3853 -0.7767
 2892TIP3    H230312   4.025   6.521   0.395 -0.2888 -0.3144 -0.8541
 2893TIP3   OH230313   4.860   6.151   7.298 -0.6737  0.1486  0.0945
 2893TIP3    H130314   4.803   6.101   7.355 -1.2402  1.0646  0.3437
 2893TIP3    H230315   4.944   6.154   7.344 -0.4034 -1.1763 -0.2637
 2894TIP3   OH230316   3.949   5.453   7.759 -0.3562 -0.3652  0.1787
 2894TIP3    H130317   3.855   5.470   7.765 -0.6357 -1.0749 -1.6892
 2894TIP3    H230318   3.974   5.487   7.673  0.9186 -1.0165  0.2718
 2895TIP3   OH230319   2.296   4.759   2.078 -0.4413 -0.3063  0.0276
 2895TIP3    H130320   2.322   4.762   2.170  1.7699  1.3703 -0.5622
 2895TIP3    H230321   2.251   4.675   2.069  0.6683 -1.2443  2.2944
 2896TIP3   OH230322   2.820   2.895   8.723 -0.3552 -0.0621  0.0506
 2896TIP3    H130323   2.853   2.932   8.641 -0.7270 -0.4499 -0.2758
 2896TIP3    H230324   2.778   2.970   8.767 -1.9326 -0.2506 -1.0317
 2897TIP3   OH230325   6.423   5.447   0.647  0.1090  0.0733 -0.1593
 2897TIP3    H130326   6.456   5.393   0.576 -1.0160  0.8075 -1.2811
 2897TIP3    H230327   6.435   5.537   0.617 -2.4569  0.3797 -0.4676
 2898TIP3   OH230328   3.627   4.496   0.340 -0.0723 -0.0825  0.3970
 2898TIP3    H130329   3.536   4.525   0.335 -0.0197  0.1320  0.6224
 2898TIP3    H230330   3.678   4.571   0.307  0.2105  1.0087  3.0469
 2899TIP3   OH230331   1.632   2.557   8.648  0.0440  0.5410  0.8686
 2899TIP3    H130332   1.630   2.635   8.704 -0.1735  0.5418  0.8603
 2899TIP3    H230333   1.617   2.591   8.559  1.8096  0.7186  0.6007
 2900TIP3   OH230334   6.164   0.483   8.120 -0.3418 -0.1631 -0.0791
 2900TIP3    H130335   6.073   0.455   8.111 -0.2042 -0.0008 -2.7011
 2900TIP3    H230336   6.183   0.529   8.039  1.9923  0.1381  0.5690
 2901TIP3   OH230337   3.118   1.211   0.602 -0.2953  0.3456  0.1577
 2901TIP3    H130338   3.199   1.250   0.572  0.1200 -0.8221 -0.2981
 2901TIP3    H230339   3.098   1.255   0.685  1.9490 -0.8306  1.3965
 2902TIP3   OH230340   0.253   1.860   7.948 -0.5150 -0.3242  0.9735
 2902TIP3    H130341   0.255   1.908   7.865  0.7454 -0.6270  0.8130
 2902TIP3    H230342   0.248   1.929   8.015  2.9619  0.2344  0.8349
 2903TIP3   OH230343   5.955   4.003   7.018 -0.2105  0.3394 -0.2357
 2903TIP3    H130344   6.038   4.038   7.051 -0.6395 -0.5313  1.9262
 2903TIP3    H230345   5.947   4.040   6.930  3.4342 -1.0852 -1.3735
 2904TIP3   OH230346   2.103   3.720   6.422  0.0456  0.1564  0.3940
 2904TIP3    H130347   2.154   3.706   6.501  0.8429 -3.3745 -0.5737
 2904TIP3    H230348   2.169   3.725   6.352 -0.7617 -0.3625 -0.4202
 2905TIP3   OH230349   6.297   1.419   8.118  0.0553 -0.2267 -0.1833
 2905TIP3    H130350   6.321   1.504   8.156 -0.5549  0.1774 -0.6902
 2905TIP3    H230351   6.342   1.355   8.173  0.4466  0.4185  0.2633
 2906TIP3   OH230352   2.560   2.750   1.266  0.0378  0.1847  0.9460
 2906TIP3    H130353   2.480   2.801   1.278  1.1625  2.1363  0.5696
 2906TIP3    H230354   2.545   2.669   1.316 -2.6464 -0.1109 -0.1713
 2907TIP3   OH230355   4.278   1.599   7.938 -0.8987 -0.5072 -0.8320
 2907TIP3    H130356   4.301   1.685   7.974 -1.5858 -0.0386 -1.4802
 2907TIP3    H230357   4.248   1.618   7.849  1.0955 -1.6697 -1.8087
 2908TIP3   OH230358   4.402   5.375   6.662  0.2560  0.3705 -0.1169
 2908TIP3    H130359   4.467   5.321   6.619 -0.2176 -0.0196 -0.3540
 2908TIP3    H230360   4.431   5.381   6.753 -0.5091 -1.6133  0.3036
 2909TIP3   OH230361   6.364   0.276   7.344 -0.5920  0.8305  0.0675
 2909TIP3    H130362   6.388   0.213   7.276  0.2571  2.2736 -1.0282
 2909TIP3    H230363   6.418   0.252   7.419 -0.0575  0.4247 -0.4375
 2910TIP3   OH230364   5.875   2.608   6.876 -0.4292 -0.4236 -0.2403
 2910TIP3    H130365   5.857   2.576   6.964 -0.7398 -1.9611 -0.8315
 2910TIP3    H230366   5.876   2.704   6.885  2.0220 -0.5396  1.8844
 2911TIP3   OH230367   4.840   1.435   8.418  0.1092 -0.0794  0.5895
 2911TIP3    H130368   4.817   1.457   8.508 -0.7279  0.0897  0.3447
 2911TIP3    H230369   4.864   1.518   8.378 -1.2981  0.1570  0.1657
 2912TIP3   OH230370   4.354   2.046   1.361  0.0079  0.1218  0.2967
 2912TIP3    H130371   4.302   2.111   1.409 -0.5496  2.2279 -2.8229
 2912TIP3    H230372   4.291   1.980   1.333  0.0157 -0.1760  0.9780
 2913TIP3   OH230373   5.481   5.914   1.968 -0.0311 -0.3402  0.5666
 2913TIP3    H130374   5.400   5.892   1.920 -0.7709  1.1862  1.0742
 2913TIP3    H230375   5.499   5.836   2.021 -1.0772 -0.7686  0.3129
 2914TIP3   OH230376   4.977   1.785   7.420 -0.4124 -0.1978  0.4596
 2914TIP3    H130377   5.004   1.773   7.329  0.9496  1.7713  0.5281
 2914TIP3    H230378   5.060   1.791   7.468 -1.0660  0.8575  1.5018
 2915TIP3   OH230379   1.790   6.310   8.081 -0.1913  0.3822 -0.1948
 2915TIP3    H130380   1.780   6.261   8.000  0.5328 -0.6096  0.3021
 2915TIP3    H230381   1.878   6.288   8.111 -0.3320  1.0040  0.6927
 2916TIP3   OH230382   2.821   3.604   6.322  1.0463 -0.4517 -0.4104
 2916TIP3    H130383   2.842   3.644   6.238  0.8346 -0.7142 -0.5884
 2916TIP3    H230384   2.731   3.574   6.313 -0.1588  2.3718  0.9899
 2917TIP3   OH230385   5.791   5.575   7.653 -0.9623 -0.3496  0.0432
 2917TIP3    H130386   5.783   5.664   7.687  0.6543 -0.8773  1.9694
 2917TIP3    H230387   5.703   5.539   7.660 -1.3622  0.6704  0.4766
 2918TIP3   OH230388   5.004   3.124   7.416  0.5611 -0.0518  0.0928
 2918TIP3    H130389   5.029   3.217   7.425  1.8202 -0.4328  0.8490
 2918TIP3    H230390   4.977   3.099   7.505 -0.1972 -0.3000 -0.2066
 2919TIP3   OH230391   1.420   0.148   2.141 -0.1847  0.3649 -0.2001
 2919TIP3    H130392   1.447   0.070   2.093 -0.2337  0.4731 -0.4085
 2919TIP3    H230393   1.465   0.142   2.225 -0.8032 -0.2809  0.0881
 2920TIP3   OH230394   4.431   2.606   6.834  0.5703 -0.0832 -0.1130
 2920TIP3    H130395   4.414   2.631   6.924  2.8530 -0.9939  0.6612
 2920TIP3    H230396   4.427   2.688   6.785  1.3935  0.7894  1.2130
 2921TIP3   OH230397   3.357   4.027   7.948 -0.4444  0.2277  0.0418
 2921TIP3    H130398   3.443   4.049   7.912  0.6957 -1.5427  1.5186
 2921TIP3    H230399   3.326   3.954   7.895  0.3254 -1.0437  1.2647
 2922TIP3   OH230400   4.337   1.563   8.497 -0.1025  0.4167  0.2553
 2922TIP3    H130401   4.334   1.649   8.454  1.0455  0.4047  0.1243
 2922TIP3    H230402   4.430   1.548   8.513 -0.4305 -0.0939  1.7470
 2923TIP3   OH230403   4.912   1.197   7.132  0.5490 -0.4286 -0.1944
 2923TIP3    H130404   4.984   1.163   7.186  0.6271 -0.1208 -0.1021
 2923TIP3    H230405   4.935   1.288   7.116  1.7598 -1.1151 -2.8176
 2924TIP3   OH230406   5.138   5.980   6.923 -0.2736  0.6296 -0.2602
 2924TIP3    H130407   5.228   5.946   6.923 -0.1512  0.7318  2.6941
 2924TIP3    H230408   5.148   6.075   6.933 -0.6912  0.5891  0.6297
 2925TIP3   OH230409   5.494   3.146   2.118  0.6204 -0.3918  0.4403
 2925TIP3    H130410   5.412   3.178   2.156 -1.0430 -2.9198 -0.7512
 2925TIP3    H230411   5.554   3.142   2.192 -0.5054  0.9176  1.4857
 2926TIP3   OH230412   5.542   6.594   1.403  0.3817 -0.3874  0.3514
 2926TIP3    H130413   5.550   6.571   1.496  0.8352 -0.3137  0.3363
 2926TIP3    H230414   5.625   6.564   1.364  0.2996 -0.1911  0.0217
 2927TIP3   OH230415   2.708   6.728   1.839 -0.6668 -0.2234 -0.0207
 2927TIP3    H130416   2.718   6.744   1.745 -0.4592 -1.4531 -0.2296
 2927TIP3    H230417   2.797   6.712   1.870 -0.9983 -2.7962 -0.2267
 2928TIP3   OH230418   3.574   4.663   2.090  0.2606 -0.6391  0.1838
 2928TIP3    H130419   3.508   4.641   2.156 -1.6473  0.5459 -1.2345
 2928TIP3    H230420   3.592   4.579   2.046 -1.0011 -0.8192 -0.0115
 2929TIP3   OH230421   6.240   5.766   8.709  0.1288  0.4260 -0.1629
 2929TIP3    H130422   6.287   5.847   8.691 -0.1144  1.1326  2.1065
 2929TIP3    H230423   6.159   5.774   8.659  0.7990  0.8495 -1.2043
 2930TIP3   OH230424   5.523   0.234   1.298 -1.0176  0.9844  0.2350
 2930TIP3    H130425   5.514   0.143   1.327 -1.0102  0.8237 -0.2529
 2930TIP3    H230426   5.483   0.236   1.211 -0.9797  1.4389  0.2234
 2931TIP3   OH230427   4.747   4.940   7.670 -0.1849  0.3402 -0.0767
 2931TIP3    H130428   4.728   4.931   7.577  1.3867  1.2073 -0.5172
 2931TIP3    H230429   4.797   5.021   7.677  0.3587 -0.0817  1.4154
 2932TIP3   OH230430   0.508   4.164   6.873  0.4198 -0.0885 -0.0787
 2932TIP3    H130431   0.531   4.080   6.915  0.1776 -0.7455 -1.2214
 2932TIP3    H230432   0.511   4.145   6.779 -0.2162  1.0422 -0.3373
 2933TIP3   OH230433   3.289   5.552   1.830  0.5114 -0.0434  0.3500
 2933TIP3    H130434   3.340   5.616   1.879 -1.0661  0.1260  1.8802
 2933TIP3    H230435   3.205   5.549   1.875 -0.4859 -1.0587 -1.4546
 2934TIP3   OH230436   4.199   2.443   0.008 -0.4107 -0.3717  0.3107
 2934TIP3    H130437   4.107   2.466   0.022 -0.5596 -1.8497  2.0809
 2934TIP3    H230438   4.217   2.376   0.073  1.5471 -1.1354 -0.9411
 2935TIP3   OH230439   2.148   6.830   1.799  0.5128 -0.1072 -0.6202
 2935TIP3    H130440   2.156   6.920   1.770 -0.9159  0.3728  0.3811
 2935TIP3    H230441   2.214   6.820   1.868  0.0801  0.4534 -0.1173
 2936TIP3   OH230442   6.328   3.260   1.347  0.1829 -0.5610 -0.0622
 2936TIP3    H130443   6.267   3.301   1.409 -0.5961  1.5283 -2.0553
 2936TIP3    H230444   6.329   3.167   1.372 -3.1688 -0.5375  0.6042
 2937TIP3   OH230445   3.029   1.758   7.218  0.7722 -0.0581 -0.3796
 2937TIP3    H130446   3.086   1.832   7.200  0.6405  0.6199  1.7301
 2937TIP3    H230447   2.941   1.789   7.194  0.7709  0.3409  0.1266
 2938TIP3   OH230448   1.702   1.529   0.940  0.3418 -0.4989 -0.0871
 2938TIP3    H130449   1.684   1.622   0.954  0.6916 -0.4612  0.1362
 2938TIP3    H230450   1.740   1.499   1.023 -0.6730 -1.0758  0.1768
 2939TIP3   OH230451   5.018   2.356   7.339 -0.0637 -0.1614  0.0117
 2939TIP3    H130452   5.014   2.317   7.426 -0.7931  0.1763  0.1412
 2939TIP3    H230453   4.974   2.293   7.282 -0.9352  0.2865  0.1615
 2940TIP3   OH230454   2.993   0.957   2.109  0.0572 -0.4629  0.2598
 2940TIP3    H130455   2.929   0.957   2.180 -0.3984 -0.8662 -0.1479
 2940TIP3    H230456   3.031   0.869   2.111  1.0654 -0.0362  0.9055
 2941TIP3   OH230457   3.277   5.553   6.562  0.1899  0.4203  0.8041
 2941TIP3    H130458   3.255   5.465   6.591  1.3577  1.0657  3.9857
 2941TIP3    H230459   3.193   5.592   6.537 -1.0678 -0.1627  3.7395
 2942TIP3   OH230460   4.264   5.871   7.930 -0.9182 -0.0018 -0.3300
 2942TIP3    H130461   4.357   5.893   7.923 -0.8785 -0.2337 -0.5624
 2942TIP3    H230462   4.219   5.955   7.924 -0.6811  0.2225  0.8457
 2943TIP3   OH230463   3.117   6.532   8.592 -0.0306  0.0152  0.2243
 2943TIP3    H130464   3.148   6.622   8.586  1.3547 -0.5386 -2.4238
 2943TIP3    H230465   3.023   6.539   8.575  0.1908  0.9147 -0.7712
 2944TIP3   OH230466   1.095   0.122   8.263  0.0520 -0.2505 -0.1007
 2944TIP3    H130467   1.189   0.112   8.282  0.0974 -1.5081 -0.8573
 2944TIP3    H230468   1.091   0.128   8.168 -0.7623 -2.3659 -0.2584
 2945TIP3   OH230469   1.895   4.891   0.935 -0.1719  0.5395  0.4062
 2945TIP3    H130470   1.854   4.808   0.910 -0.2672  1.3378 -2.2991
 2945TIP3    H230471   1.951   4.867   1.010 -2.3991 -1.3449  1.6187
 2946TIP3   OH230472   4.653   1.796   0.416 -0.4616 -0.4251 -0.0255
 2946TIP3    H130473   4.668   1.739   0.492 -1.2879 -1.4206 -0.5787
 2946TIP3    H230474   4.586   1.857   0.444 -0.3199 -0.3900  0.2405
 2947TIP3   OH230475   0.262   5.193   8.571 -0.5940 -0.2645 -0.1673
 2947TIP3    H130476   0.197   5.126   8.550  0.2903 -1.4691  0.8069
 2947TIP3    H230477   0.342   5.144   8.590  0.4538  1.1484 -0.7173
 2948TIP3   OH230478   5.884   5.099   1.620 -0.5171 -0.1390  0.3623
 2948TIP3    H130479   5.789   5.097   1.617 -0.6216 -0.1410  2.4186
 2948TIP3    H230480   5.912   5.041   1.549 -2.0377 -0.4090 -0.0454
 2949TIP3   OH230481   3.312   3.538   0.422 -0.1012  0.9975  0.2552
 2949TIP3    H130482   3.343   3.625   0.397 -0.6206  1.5212  1.3739
 2949TIP3    H230483   3.391   3.493   0.451  0.3912  0.6255 -1.5158
 2950TIP3   OH230484   0.657   1.343   2.674  0.2878 -0.2232 -0.0223
 2950TIP3    H130485   0.715   1.419   2.679  1.6815 -1.1967 -0.6591
 2950TIP3    H230486   0.710   1.275   2.632 -1.2263 -1.2635 -0.3438
 2951TIP3   OH230487   5.786   3.183   8.342  0.2065 -0.0020  0.1134
 2951TIP3    H130488   5.863   3.128   8.326  0.8205  1.3566 -2.0638
 2951TIP3    H230489   5.712   3.124   8.332  0.8893 -0.9032  0.2018
 2952TIP3   OH230490   0.207   3.841   0.628  0.0729  0.1360 -0.4429
 2952TIP3    H130491   0.254   3.768   0.587 -0.2479 -0.9311  0.9884
 2952TIP3    H230492   0.116   3.827   0.603 -0.1584 -0.6496  0.7337
 2953TIP3   OH230493   0.318   1.469   1.408 -0.0493  0.3846  0.8992
 2953TIP3    H130494   0.312   1.412   1.485  0.1990 -0.1136  0.5558
 2953TIP3    H230495   0.239   1.450   1.357  0.0699  0.2891  0.7481
 2954TIP3   OH230496   2.427   1.622   8.095  0.8366  0.0190 -0.1376
 2954TIP3    H130497   2.422   1.704   8.144  0.1319  0.6220 -1.1773
 2954TIP3    H230498   2.401   1.646   8.006 -2.8211 -1.9567  0.2159
 2955TIP3   OH230499   1.266   1.021   2.101  0.3426 -0.5741 -0.1384
 2955TIP3    H130500   1.230   1.073   2.029  0.9062  0.2156  0.1371
 2955TIP3    H230501   1.199   1.026   2.170  0.7171  0.4284  0.1671
 2956TIP3   OH230502   5.918   2.197   0.089 -0.0824  0.3347  0.3658
 2956TIP3    H130503   5.985   2.222   0.025 -0.0743 -0.4463  0.0524
 2956TIP3    H230504   5.870   2.126   0.046 -0.3672  0.1105  1.0470
 2957TIP3   OH230505   5.058   3.119   0.309 -0.0324  0.3792 -0.6125
 2957TIP3    H130506   5.013   3.086   0.387  0.3327  0.1013 -0.5173
 2957TIP3    H230507   5.093   3.203   0.335  0.5343  0.0551 -0.3099
 2958TIP3   OH230508   2.609   0.936   0.892 -0.2081 -0.7499 -0.1378
 2958TIP3    H130509   2.582   0.877   0.963 -0.8173  0.2283  0.4710
 2958TIP3    H230510   2.640   1.015   0.937  0.7042 -0.6357 -0.9370
 2959TIP3   OH230511   2.672   5.911   0.102  0.4105  0.3985 -0.2458
 2959TIP3    H130512   2.629   5.968   0.038 -1.4146  0.2442  0.8015
 2959TIP3    H230513   2.681   5.827   0.056 -0.8871  0.2852 -0.3245
 2960TIP3   OH230514   1.799   3.072   1.111 -0.0622 -0.1310 -0.1604
 2960TIP3    H130515   1.832   3.089   1.023 -0.7799  0.0751 -0.3974
 2960TIP3    H230516   1.707   3.100   1.109 -0.1282 -0.2461  0.6143
 2961TIP3   OH230517   3.155   2.086   0.297 -0.1020  0.2423  0.5361
 2961TIP3    H130518   3.162   2.089   0.202  0.4869  0.0560  0.5695
 2961TIP3    H230519   3.183   2.172   0.326 -0.0765  0.2279  0.5536
 2962TIP3   OH230520   4.479   6.291   1.650  0.0342 -0.0534 -0.3845
 2962TIP3    H130521   4.495   6.198   1.634 -1.4652 -0.5756  0.8711
 2962TIP3    H230522   4.487   6.301   1.745  0.6616  1.2252 -0.5433
 2963TIP3   OH230523   3.145   3.922   8.297 -0.3392  0.0748 -0.5464
 2963TIP3    H130524   3.070   3.883   8.252 -2.4236  2.5152  0.5406
 2963TIP3    H230525   3.204   3.949   8.227 -0.9646 -0.9113 -1.4944
 2964TIP3   OH230526   0.832   2.919   1.169 -0.1684  0.5380  0.4569
 2964TIP3    H130527   0.897   2.852   1.149  1.1777  1.8349  0.2756
 2964TIP3    H230528   0.786   2.886   1.247  0.7931 -0.3642  0.6655
 2965TIP3   OH230529   6.179   3.143   7.665  0.4618  0.1140 -0.2587
 2965TIP3    H130530   6.227   3.163   7.745  1.9020  1.1395 -1.3160
 2965TIP3    H230531   6.165   3.228   7.623  0.6482 -0.4774 -1.5825
 2966TIP3   OH230532   5.130   5.067   1.999 -0.3552 -0.5408 -0.5563
 2966TIP3    H130533   5.120   4.983   2.043  0.1628  0.1762  1.0171
 2966TIP3    H230534   5.074   5.127   2.049  0.5439  0.3935 -0.6414
 2967TIP3   OH230535   2.840   6.347   2.146 -0.5660  0.6072 -0.0841
 2967TIP3    H130536   2.828   6.342   2.051 -0.0457  1.2552 -0.1914
 2967TIP3    H230537   2.759   6.387   2.178 -1.8579 -1.9175  0.0611
 2968TIP3   OH230538   2.153   4.015   0.292  0.5199  0.3139  0.4374
 2968TIP3    H130539   2.172   4.104   0.263 -1.9717  0.8228  0.1906
 2968TIP3    H230540   2.058   4.006   0.284  0.3597 -1.4682  3.0160
 2969TIP3   OH230541   5.859   6.588   7.607  0.2525 -0.3470  0.6540
 2969TIP3    H130542   5.770   6.566   7.579  0.5180 -0.7048  0.0680
 2969TIP3    H230543   5.915   6.553   7.538  0.7706  1.0297  0.3414
 2970TIP3   OH230544   6.558   3.992   7.876  0.5089  0.5219  0.0692
 2970TIP3    H130545   6.472   4.031   7.892  0.8031  0.8545  0.9235
 2970TIP3    H230546   6.598   3.987   7.963 -0.0196 -2.9077  0.2775
 2971TIP3   OH230547   4.509   5.837   1.297 -0.6499  0.4937 -0.3101
 2971TIP3    H130548   4.415   5.822   1.303 -0.1982 -2.6023  0.8009
 2971TIP3    H230549   4.549   5.756   1.329  2.4224  1.8384 -0.3370
 2972TIP3   OH230550   6.012   5.953   8.129 -0.3680  0.1027 -0.5092
 2972TIP3    H130551   6.005   5.858   8.117 -0.5524 -0.2128  1.7185
 2972TIP3    H230552   6.075   5.981   8.063 -0.4199 -1.5422 -1.3091
 2973TIP3   OH230553   4.804   6.399   1.985 -0.4318 -0.0691 -0.2994
 2973TIP3    H130554   4.860   6.462   2.031  0.1284 -1.0976  0.4715
 2973TIP3    H230555   4.722   6.447   1.968 -0.4197  0.5305  1.2258
 2974TIP3   OH230556   6.295   5.965   1.672  0.2338 -0.0668  0.0938
 2974TIP3    H130557   6.201   5.979   1.683 -0.2747 -0.9100 -2.4018
 2974TIP3    H230558   6.334   6.051   1.683 -0.8933  0.4040  0.5709
 2975TIP3   OH230559   5.100   0.375   6.598  0.3680 -0.2728  0.8090
 2975TIP3    H130560   5.171   0.390   6.659  0.3909 -1.7405  1.1851
 2975TIP3    H230561   5.127   0.421   6.518  1.8274 -0.9216  0.8892
 2976TIP3   OH230562   6.450   0.236   2.641  0.1426 -0.0514 -0.4554
 2976TIP3    H130563   6.492   0.297   2.582  0.7461  0.4167  0.4318
 2976TIP3    H230564   6.493   0.251   2.726 -0.7770 -0.6045  0.1311
 2977TIP3   OH230565   5.124   3.944   7.667 -0.1559  0.1026 -0.4120
 2977TIP3    H130566   5.165   4.021   7.628  2.6777 -1.2477 -0.3352
 2977TIP3    H230567   5.154   3.944   7.758 -1.3966 -0.3026  0.0317
 2978TIP3   OH230568   5.986   6.715   7.096  0.4877 -0.0503  0.1119
 2978TIP3    H130569   6.073   6.743   7.070  0.6071 -0.5975 -0.0997
 2978TIP3    H230570   5.983   6.729   7.190  1.1697 -0.9645  0.2815
 2979TIP3   OH230571   0.255   3.856   6.580  0.0234 -0.0718 -0.1793
 2979TIP3    H130572   0.209   3.933   6.612 -0.5179 -0.4218 -0.0978
 2979TIP3    H230573   0.288   3.881   6.494 -0.8073 -0.0005 -0.4806
 2980TIP3   OH230574   5.351   5.933   1.344  0.8025 -0.2279 -0.2350
 2980TIP3    H130575   5.290   5.860   1.357  0.2079  0.2895 -0.0724
 2980TIP3    H230576   5.360   5.940   1.249  0.7872 -0.4507 -0.2541
 2981TIP3   OH230577   3.698   1.932   7.000  0.0719  0.3000 -0.0742
 2981TIP3    H130578   3.603   1.934   7.014 -0.1336  2.5489 -1.2755
 2981TIP3    H230579   3.732   1.996   7.063  1.1571 -2.2327  2.0934
 2982TIP3   OH230580   3.657   0.979   8.620 -0.2197 -0.1073  0.0264
 2982TIP3    H130581   3.587   0.926   8.658 -0.4555  1.0207  1.2371
 2982TIP3    H230582   3.663   0.950   8.529 -1.3604 -1.1416  0.2657
 2983TIP3   OH230583   3.957   6.781   6.437 -0.0300 -0.1894 -0.4742
 2983TIP3    H130584   3.943   6.863   6.391 -1.9108 -0.2268 -0.0431
 2983TIP3    H230585   4.029   6.739   6.390  0.7520  1.5370 -0.8900
 2984TIP3   OH230586   3.442   1.235   1.474  0.5282  0.2595 -0.0824
 2984TIP3    H130587   3.349   1.241   1.452  0.8432 -1.0466 -2.1420
 2984TIP3    H230588   3.447   1.167   1.541 -0.0065  0.3171  0.0154
 2985TIP3   OH230589   5.662   5.853   7.932 -0.6890 -0.7620 -0.1144
 2985TIP3    H130590   5.750   5.863   7.894 -1.7197  0.1151 -2.4261
 2985TIP3    H230591   5.654   5.759   7.950  1.3408 -0.6464  1.9135
 2986TIP3   OH230592   5.315   4.009   8.549  0.1965  0.5788  0.5401
 2986TIP3    H130593   5.338   4.045   8.635  0.4532  1.4362  0.1235
 2986TIP3    H230594   5.328   3.915   8.559  0.9590  0.7392  1.2327
 2987TIP3   OH230595   4.403   0.210   7.702 -0.5103  0.0281  0.5313
 2987TIP3    H130596   4.427   0.245   7.616 -2.7479  0.9017  0.1808
 2987TIP3    H230597   4.338   0.272   7.736 -0.1461 -0.6451  2.5856
 2988TIP3   OH230598   0.576   4.843   0.981 -0.0464  0.1885  0.1232
 2988TIP3    H130599   0.560   4.752   0.956  0.3477  0.1912 -0.1578
 2988TIP3    H230600   0.552   4.848   1.074 -2.4410  0.3948 -0.4293
 2989TIP3   OH230601   1.162   5.353   0.429  0.0256 -0.2236 -0.0335
 2989TIP3    H130602   1.166   5.362   0.524  0.0751  0.0824 -0.0645
 2989TIP3    H230603   1.201   5.267   0.411  0.6206  0.0008  0.1702
 2990TIP3   OH230604   0.652   3.081   8.160 -0.4289 -0.0599 -0.4200
 2990TIP3    H130605   0.613   3.014   8.104  1.0650 -0.4323 -1.0651
 2990TIP3    H230606   0.746   3.072   8.146 -0.1630  1.7743 -0.0430
 2991TIP3   OH230607   0.432   5.879   8.561  0.1322 -0.9947  0.9257
 2991TIP3    H130608   0.372   5.936   8.513  1.0190 -0.9453 -0.1585
 2991TIP3    H230609   0.475   5.936   8.624 -0.1846 -0.8105  0.9748
 2992TIP3   OH230610   4.206   1.879   1.601 -0.0278 -0.3327  0.3195
 2992TIP3    H130611   4.187   1.967   1.570 -1.7509 -0.1721  1.6763
 2992TIP3    H230612   4.223   1.889   1.695 -0.7251 -1.4699  0.5925
 2993TIP3   OH230613   5.729   4.065   7.859 -0.1236  0.3657 -0.2993
 2993TIP3    H130614   5.676   4.094   7.785 -0.2361  0.8755 -0.0215
 2993TIP3    H230615   5.711   4.128   7.928  0.5939  0.3568 -0.0969
 2994TIP3   OH230616   4.435   3.298   0.309 -0.2617  0.2598 -0.3435
 2994TIP3    H130617   4.429   3.211   0.270  1.1291 -0.5131  1.0772
 2994TIP3    H230618   4.401   3.356   0.241 -1.1363 -1.3657 -1.3600
 2995TIP3   OH230619   1.212   1.730   7.671 -0.6403 -0.0791 -0.3055
 2995TIP3    H130620   1.183   1.639   7.678  0.5330 -0.3833  0.9509
 2995TIP3    H230621   1.136   1.782   7.698 -0.7153 -0.7763  0.8891
 2996TIP3   OH230622   5.896   1.624   7.273  0.0032  0.0921 -0.3444
 2996TIP3    H130623   5.826   1.604   7.335 -0.6728  0.1550 -1.0827
 2996TIP3    H230624   5.943   1.541   7.264  1.5256  0.6095  1.9666
 2997TIP3   OH230625   6.783   5.886   8.538  0.4052 -0.4959  0.3728
 2997TIP3    H130626   6.779   5.791   8.547 -0.4966 -0.6903 -1.6340
 2997TIP3    H230627   6.795   5.918   8.627  2.6423 -2.5620  0.9158
 2998TIP3   OH230628   5.051   3.774   8.155 -0.4154 -0.2687 -0.5242
 2998TIP3    H130629   5.077   3.682   8.157  0.0034 -0.1664 -0.9791
 2998TIP3    H230630   5.122   3.821   8.199  0.2711  0.0256 -1.8788
 2999TIP3   OH230631   2.226   4.890   7.627 -0.0685 -0.8661 -0.4635
 2999TIP3    H130632   2.153   4.870   7.569 -0.5680  0.1622 -0.1946
 2999TIP3    H230633   2.209   4.978   7.659  0.8785 -0.9170  0.2289
 3000TIP3   OH230634   6.037   1.890   7.329 -0.0591 -0.4537  0.1633
 3000TIP3    H130635   6.005   1.803   7.304 -0.9853 -0.2051  0.4457
 3000TIP3    H230636   6.090   1.918   7.254 -1.0209 -0.6229 -0.6000
 3001TIP3   OH230637   1.704   3.438   1.611 -0.0880  0.8237  0.3321
 3001TIP3    H130638   1.736   3.498   1.678 -1.0495  0.1087  1.4793
 3001TIP3    H230639   1.625   3.480   1.577  0.8090  1.5524 -0.9458
 3002TIP3   OH230640   6.428   0.554   7.302 -0.0559  0.3327 -0.3872
 3002TIP3    H130641   6.443   0.554   7.397 -3.5310  0.2282  0.3177
 3002TIP3    H230642   6.458   0.468   7.273  2.2056  0.8199  0.3242
 3003TIP3   OH230643   4.272   4.567   6.184 -0.5820  0.3451  0.1237
 3003TIP3    H130644   4.222   4.640   6.222 -0.8014  0.2316  0.0576
 3003TIP3    H230645   4.231   4.489   6.219 -0.0016  0.2573  0.6188
 3004TIP3   OH230646   4.971   3.666   7.023  0.0581  0.5956  0.5511
 3004TIP3    H130647   4.950   3.693   6.933  0.8939  0.0211  0.1713
 3004TIP3    H230648   5.006   3.745   7.064  0.3404  0.6903  0.1413
 3005TIP3   OH230649   3.424   3.963   8.205 -0.0075 -0.3154 -0.5873
 3005TIP3    H130650   3.406   4.004   8.120 -0.6593 -1.1695 -0.8804
 3005TIP3    H230651   3.513   3.929   8.196  1.0774  2.1105  0.1295
 3006TIP3   OH230652   4.011   3.508   6.561  0.3053  0.2836 -0.1179
 3006TIP3    H130653   4.026   3.423   6.520  0.9310 -0.2589  1.1864
 3006TIP3    H230654   4.082   3.517   6.624  0.3970  1.9000 -0.4081
 3007TIP3   OH230655   0.888   4.858   1.022 -0.4487  0.3207  0.0444
 3007TIP3    H130656   0.958   4.814   0.974  0.5933  0.7500  1.0984
 3007TIP3    H230657   0.819   4.872   0.958 -0.4250 -1.9603 -0.5627
 3008TIP3   OH230658   5.454   6.692   0.041  0.3456  0.1659 -0.9689
 3008TIP3    H130659   5.518   6.739  -0.013  0.7952 -0.8197 -1.3196
 3008TIP3    H230660   5.476   6.600   0.028 -0.8180 -0.1606 -0.6746
 3009TIP3   OH230661   2.960   3.713   1.301  0.0911  0.0231 -0.2706
 3009TIP3    H130662   3.005   3.628   1.303 -1.0587 -0.6619 -1.4306
 3009TIP3    H230663   3.000   3.763   1.372  0.0476 -1.8716  1.1736
 3010TIP3   OH230664   2.711   4.979   0.874 -0.1487 -0.0711 -0.2595
 3010TIP3    H130665   2.660   4.995   0.794 -1.8113  0.0832  0.7775
 3010TIP3    H230666   2.707   4.884   0.886 -2.7434  0.1430  1.3353
 3011TIP3   OH230667   6.672   2.760   7.585  0.3347 -1.0554  0.4404
 3011TIP3    H130668   6.740   2.800   7.531 -0.7172 -2.2003 -1.8887
 3011TIP3    H230669   6.694   2.667   7.586 -2.0154 -1.7465 -1.8524
 3012TIP3   OH230670   2.692   4.158   8.238 -0.0298 -0.3396  0.6563
 3012TIP3    H130671   2.706   4.233   8.297  0.5716  0.2733 -0.2327
 3012TIP3    H230672   2.609   4.120   8.266  0.3588 -0.2165  2.0580
 3013TIP3   OH230673   5.030   5.198   0.566  0.5820 -0.1859 -0.3038
 3013TIP3    H130674   5.071   5.284   0.567 -1.1284  0.6824  1.2913
 3013TIP3    H230675   5.034   5.168   0.656 -1.3679 -0.4784 -0.2751
 3014TIP3   OH230676   3.567   6.490   1.168 -0.2525  0.2800 -0.1499
 3014TIP3    H130677   3.522   6.456   1.246 -0.7881  1.1684 -0.0595
 3014TIP3    H230678   3.617   6.565   1.201 -0.6278  0.7745 -0.6780
 3015TIP3   OH230679   0.292   0.917   0.487  0.1657  0.3763  0.3763
 3015TIP3    H130680   0.377   0.947   0.454 -0.2431  2.0790  0.7978
 3015TIP3    H230681   0.285   0.827   0.455  0.4148  1.4053 -2.9697
 3016TIP3   OH230682   0.856   4.611   6.758 -0.6302  0.0923 -0.4461
 3016TIP3    H130683   0.924   4.606   6.691  1.0786 -0.9410  1.2583
 3016TIP3    H230684   0.828   4.521   6.772 -0.0628  0.1128  1.0448
 3017TIP3   OH230685   4.293   1.855   8.383  0.2667  0.1121 -0.2051
 3017TIP3    H130686   4.337   1.863   8.299 -0.0586  2.3730 -0.2357
 3017TIP3    H230687   4.362   1.869   8.448 -0.2085  3.7611 -0.2538
 3018TIP3   OH230688   1.763   1.421   6.892  0.0694 -0.1248  0.0379
 3018TIP3    H130689   1.787   1.357   6.959 -1.0888 -1.1381 -0.4853
 3018TIP3    H230690   1.706   1.483   6.937 -1.4328 -1.2997 -0.1691
 3019TIP3   OH230691   0.756   0.206   0.841 -0.3163 -0.2099  0.1112
 3019TIP3    H130692   0.742   0.294   0.805 -1.6535 -0.4552 -0.0275
 3019TIP3    H230693   0.823   0.167   0.785  0.6804  0.9001  0.5006
 3020TIP3   OH230694   1.544   4.666   2.275 -0.1556 -0.2677  0.0373
 3020TIP3    H130695   1.494   4.683   2.355  0.8888  0.4821  0.5558
 3020TIP3    H230696   1.548   4.570   2.269  0.4429 -0.3362  1.3356
 3021TIP3   OH230697   1.451   4.361   0.051  0.1243  0.2645  0.3179
 3021TIP3    H130698   1.356   4.359   0.061 -0.0695 -1.6394 -1.4327
 3021TIP3    H230699   1.482   4.285   0.100  0.8360  1.2323  1.4107
 3022TIP3   OH230700   3.608   4.873   1.214  0.9766  0.6479  0.1508
 3022TIP3    H130701   3.684   4.848   1.163 -2.0235 -2.1374 -3.5101
 3022TIP3    H230702   3.559   4.932   1.157 -0.3265  1.2634  1.8224
 3023TIP3   OH230703   4.266   3.758   0.301  0.2114 -0.4235  0.2017
 3023TIP3    H130704   4.197   3.749   0.235  0.4289  1.3460 -0.3093
 3023TIP3    H230705   4.320   3.830   0.269  0.8481 -0.1364  1.8706
 3024TIP3   OH230706   1.596   4.027   1.566  0.1383  0.2494 -0.3721
 3024TIP3    H130707   1.624   4.092   1.630  0.6827  0.8704 -1.2344
 3024TIP3    H230708   1.578   3.949   1.619  3.5699 -0.2599  0.2929
 3025TIP3   OH230709   1.493   1.046   2.234  0.6988  0.1763 -0.2639
 3025TIP3    H130710   1.425   1.028   2.168  0.3601  1.1183 -0.1902
 3025TIP3    H230711   1.457   1.117   2.287  1.4493  0.2025  0.2274
 3026TIP3   OH230712   4.923   1.669   0.412 -0.2359 -0.3177  0.5803
 3026TIP3    H130713   4.950   1.720   0.489 -2.3739  1.9354 -0.0490
 3026TIP3    H230714   4.838   1.633   0.436 -0.5337 -0.2941 -0.3985
 3027TIP3   OH230715   6.474   1.434   0.770  0.0895  0.6109 -0.5869
 3027TIP3    H130716   6.527   1.355   0.760  1.0808  1.3029 -0.8724
 3027TIP3    H230717   6.537   1.506   0.769 -0.7890  1.4012 -0.1618
 3028TIP3   OH230718   4.703   1.933   0.861  0.7509 -0.3193  0.4318
 3028TIP3    H130719   4.699   2.017   0.816  0.2931 -0.7290 -0.3265
 3028TIP3    H230720   4.653   1.946   0.942  1.0566  0.2519  0.5317
 3029TIP3   OH230721   1.104   3.465   7.427  0.1324  0.9958  0.4203
 3029TIP3    H130722   1.117   3.516   7.347  2.1870  0.3764  0.3028
 3029TIP3    H230723   1.161   3.389   7.417 -2.1399 -0.9370  0.9966
 3030TIP3   OH230724   0.203   4.302   8.312 -0.1418  0.1623 -0.4675
 3030TIP3    H130725   0.217   4.292   8.217  1.2384  0.7470 -0.3426
 3030TIP3    H230726   0.277   4.353   8.342 -1.5890  1.7272  0.6367
 3031TIP3   OH230727   4.842   5.255   2.507 -0.3665 -0.0999  0.2334
 3031TIP3    H130728   4.922   5.259   2.454 -1.2275  0.1048 -1.1202
 3031TIP3    H230729   4.870   5.279   2.595  0.6787  2.3440 -0.6750
 3032TIP3   OH230730   3.552   1.545   0.234  0.5472 -0.1610 -0.3078
 3032TIP3    H130731   3.457   1.540   0.240  0.6557 -0.2551  2.6612
 3032TIP3    H230732   3.575   1.622   0.286  2.1528 -0.9334  0.1869
 3033TIP3   OH230733   1.590   4.858   1.392 -0.4408  0.1799 -0.0716
 3033TIP3    H130734   1.564   4.921   1.459  1.8628  0.5501  0.5659
 3033TIP3    H230735   1.615   4.780   1.441  2.5784  0.9136 -0.2859
 3034TIP3   OH230736   5.915   0.052   6.698  0.0829 -0.0536  0.0403
 3034TIP3    H130737   5.865   0.019   6.623  1.6569  0.1957 -1.1486
 3034TIP3    H230738   6.003   0.066   6.664  0.4989  1.3527  1.6011
 3035TIP3   OH230739   0.154   6.545   2.147  0.4639  0.3713 -0.2240
 3035TIP3    H130740   0.158   6.513   2.237  0.8409 -1.5629 -0.8722
 3035TIP3    H230741   0.070   6.591   2.141  0.2788  0.2282  1.0177
 3036TIP3   OH230742   1.094   2.712   0.842  0.3757  0.1462 -0.1373
 3036TIP3    H130743   1.166   2.759   0.801  1.0796 -0.1005  0.7866
 3036TIP3    H230744   1.105   2.726   0.936  1.0136 -2.3416  0.2471
 3037TIP3   OH230745   1.588   5.814   2.068 -0.3452  0.3390  0.4174
 3037TIP3    H130746   1.601   5.735   2.120  3.2084  0.3015 -0.2501
 3037TIP3    H230747   1.623   5.885   2.122 -0.4143  0.9241 -0.2836
 3038TIP3   OH230748   4.252   0.617   1.609  0.1773 -0.0343 -0.2861
 3038TIP3    H130749   4.329   0.661   1.574  1.0362 -0.9921  0.3373
 3038TIP3    H230750   4.281   0.582   1.694 -1.2300  0.4274  0.4175
 3039TIP3   OH230751   3.310   4.563   2.278  0.5813  0.5711 -0.1467
 3039TIP3    H130752   3.259   4.513   2.341  2.1117 -0.5598  0.2303
 3039TIP3    H230753   3.257   4.561   2.198  0.3344 -1.1503  0.0334
 3040TIP3   OH230754   6.588   6.354   2.347  0.0815 -0.3180  0.2382
 3040TIP3    H130755   6.545   6.374   2.430 -0.0755  0.7094 -0.0761
 3040TIP3    H230756   6.652   6.424   2.335  0.7199 -0.9479 -0.0815
 3041TIP3   OH230757   3.895   0.932   1.950  0.3662 -0.6386  0.2186
 3041TIP3    H130758   3.937   1.006   1.906  0.5644 -1.9822 -2.0329
 3041TIP3    H230759   3.962   0.863   1.950 -1.1646 -2.2766 -1.9389
 3042TIP3   OH230760   3.433   5.755   1.505 -0.6257  0.2023  0.3291
 3042TIP3    H130761   3.491   5.736   1.578  1.1458  2.2812 -0.4167
 3042TIP3    H230762   3.398   5.842   1.524 -0.5470  0.5497 -1.0128
 3043TIP3   OH230763   2.912   3.221   8.355 -0.0483  0.0892 -0.5509
 3043TIP3    H130764   2.818   3.213   8.370 -0.1658  1.5924 -0.3432
 3043TIP3    H230765   2.921   3.301   8.303  1.1797  0.3861  0.0831
 3044TIP3   OH230766   1.912   2.689   6.202 -0.4681  0.5578  0.3261
 3044TIP3    H130767   1.891   2.598   6.182 -0.7356  0.2459  1.9243
 3044TIP3    H230768   1.839   2.739   6.166 -1.7126 -0.1205  1.7810
 3045TIP3   OH230769   1.344   3.528   0.642 -0.9402  0.1872  0.5830
 3045TIP3    H130770   1.398   3.595   0.684 -1.7439  3.1359 -2.6021
 3045TIP3    H230771   1.384   3.516   0.556 -3.0941 -0.5045 -0.3839
 3046TIP3   OH230772   6.681   0.633   8.049 -0.0399 -0.1689  0.3128
 3046TIP3    H130773   6.599   0.651   8.002  0.1046 -0.1002  0.0889
 3046TIP3    H230774   6.659   0.559   8.106 -0.3606  0.0843  0.5219
 3047TIP3   OH230775   6.615   6.422   6.412 -0.2510 -0.0303  0.3222
 3047TIP3    H130776   6.584   6.332   6.416 -0.4541 -0.1126 -1.8487
 3047TIP3    H230777   6.536   6.475   6.418 -0.1828  0.0010  1.0430
 3048TIP3   OH230778   1.934   0.224   0.411  0.5353  0.4116 -0.4156
 3048TIP3    H130779   1.911   0.245   0.501  2.0116 -0.8037  0.2792
 3048TIP3    H230780   2.029   0.233   0.407  0.6911 -1.1849 -1.3806
 3049TIP3   OH230781   6.452   5.109   0.249 -0.3184 -0.0297  0.1351
 3049TIP3    H130782   6.415   5.061   0.175  0.2229 -0.2571  0.0001
 3049TIP3    H230783   6.545   5.084   0.249 -0.4830 -0.7445  1.4330
 3050TIP3   OH230784   0.368   5.478   1.396 -0.1943  0.4910  0.0095
 3050TIP3    H130785   0.421   5.415   1.445  0.7730 -0.3200 -1.9791
 3050TIP3    H230786   0.291   5.429   1.369  0.1730  0.3772 -0.8553
 3051TIP3   OH230787   2.329   1.193   0.207  0.0534  0.3047  0.0241
 3051TIP3    H130788   2.270   1.202   0.282 -0.4269  0.0765 -0.3159
 3051TIP3    H230789   2.313   1.270   0.154 -1.0643 -0.4765 -0.8285
 3052TIP3   OH230790   1.342   1.262   2.382 -0.1495  0.0652  0.2526
 3052TIP3    H130791   1.374   1.335   2.328 -0.9934 -0.5581 -1.1483
 3052TIP3    H230792   1.392   1.269   2.463 -0.1565  2.1736  0.1458
 3053TIP3   OH230793   3.636   2.991   7.525  0.6798 -0.0577  0.4489
 3053TIP3    H130794   3.626   3.032   7.611  1.9652 -0.0667  0.6259
 3053TIP3    H230795   3.589   3.049   7.466  2.2418  1.5885  0.7372
 3054TIP3   OH230796   1.495   4.391   8.555 -0.5141  0.1216  0.2012
 3054TIP3    H130797   1.497   4.361   8.646 -1.7004  2.2686  1.0017
 3054TIP3    H230798   1.545   4.473   8.555  0.0164 -0.1633 -1.2367
 3055TIP3   OH230799   3.117   2.449   8.497 -0.0434 -0.3388 -0.0954
 3055TIP3    H130800   3.024   2.441   8.474 -0.4535  0.2489  1.2161
 3055TIP3    H230801   3.128   2.541   8.520  0.9046 -0.3845 -0.3548
 3056TIP3   OH230802   5.631   1.194   6.430 -0.3534  0.0600 -0.2021
 3056TIP3    H130803   5.571   1.220   6.500 -0.2661  1.7007 -0.7000
 3056TIP3    H230804   5.605   1.105   6.409 -1.5115  0.1414  0.7381
 3057TIP3   OH230805   4.626   5.004   8.239 -0.8927  0.1634 -0.2981
 3057TIP3    H130806   4.637   4.909   8.230 -0.7444  0.2327 -0.8298
 3057TIP3    H230807   4.656   5.040   8.156  1.6819  0.8884  0.8525
 3058TIP3   OH230808   4.463   2.938   7.773 -0.0427 -0.2373  0.6395
 3058TIP3    H130809   4.523   2.905   7.706 -0.4710  1.0790 -0.4470
 3058TIP3    H230810   4.412   3.005   7.728 -0.9792  0.0468  2.0625
 3059TIP3   OH230811   3.457   2.639   8.709  0.0616  0.7365  0.0658
 3059TIP3    H130812   3.376   2.672   8.671 -0.0570  1.2429  0.7429
 3059TIP3    H230813   3.448   2.544   8.706 -0.0337  0.7657 -0.9619
 3060TIP3   OH230814   3.047   0.933   8.502 -0.3232  0.5413  0.2816
 3060TIP3    H130815   3.097   1.014   8.490  0.0900  0.2382 -0.0927
 3060TIP3    H230816   2.956   0.957   8.486  0.0528  0.4012 -2.5654
 3061TIP3   OH230817   5.030   5.685   6.576 -0.1654 -0.0908  0.4933
 3061TIP3    H130818   4.940   5.680   6.544 -0.2176  0.6797  0.4932
 3061TIP3    H230819   5.041   5.607   6.629 -0.7237 -0.3683  0.2078
 3062TIP3   OH230820   2.632   2.481   6.605  0.0085  0.7683 -0.3708
 3062TIP3    H130821   2.641   2.476   6.510 -2.0726  0.1580 -0.6027
 3062TIP3    H230822   2.538   2.497   6.619 -0.9841 -4.6773  1.6351
 3063TIP3   OH230823   3.573   3.545   1.356  0.1292  0.5514 -0.0655
 3063TIP3    H130824   3.583   3.630   1.313  1.0212  0.9193  0.8387
 3063TIP3    H230825   3.522   3.564   1.435  2.4521  0.7348  1.4718
 3064TIP3   OH230826   3.157   3.491   8.358  0.2737  0.4841 -0.1012
 3064TIP3    H130827   3.216   3.564   8.343 -0.1477  1.3735  2.2138
 3064TIP3    H230828   3.204   3.434   8.418 -0.6609  0.5100  0.6843
 3065TIP3   OH230829   6.363   4.274   6.728 -0.1200  0.3182 -0.3015
 3065TIP3    H130830   6.279   4.228   6.732  0.2367 -0.3095  0.1641
 3065TIP3    H230831   6.427   4.206   6.707  0.4363  0.5776  0.5023
 3066TIP3   OH230832   2.897   6.750   8.563  0.6994  0.4178  0.0301
 3066TIP3    H130833   2.871   6.831   8.606  0.9645  1.5116 -1.7685
 3066TIP3    H230834   2.883   6.766   8.469 -0.7630 -2.1731 -0.3103
 3067TIP3   OH230835   0.880   5.180   7.122  0.1558  0.7986  0.1314
 3067TIP3    H130836   0.787   5.179   7.096  0.4540  1.5701 -1.0463
 3067TIP3    H230837   0.918   5.251   7.070  2.0238 -1.3786 -1.6377
 3068TIP3   OH230838   2.612   5.359   0.635  0.6264 -0.0918  0.1229
 3068TIP3    H130839   2.555   5.361   0.558  1.6273 -0.6756 -0.6691
 3068TIP3    H230840   2.668   5.282   0.620  0.2115 -0.7739  1.9031
 3069TIP3   OH230841   5.085   5.970   8.018 -0.8321  0.1688  0.3331
 3069TIP3    H130842   4.994   5.950   7.995 -1.6925  2.0065  1.7877
 3069TIP3    H230843   5.078   6.045   8.078  1.6671  0.4619  0.3589
 3070TIP3   OH230844   1.480   0.061   7.802 -0.0211  0.1324 -0.0651
 3070TIP3    H130845   1.444   0.036   7.887 -0.2261  1.1321  0.1528
 3070TIP3    H230846   1.513   0.150   7.815 -1.0751  0.7430 -1.3225
 3071TIP3   OH230847   2.941   0.747   8.218  0.1776 -0.1221 -0.2212
 3071TIP3    H130848   3.016   0.805   8.228  0.6664 -0.9165  1.0788
 3071TIP3    H230849   2.879   0.796   8.165  0.5475  1.6116  0.8689
 3072TIP3   OH230850   1.115   5.547   2.240  0.2505 -0.0496  0.4695
 3072TIP3    H130851   1.145   5.526   2.328 -0.6907 -0.1460  0.7844
 3072TIP3    H230852   1.048   5.481   2.221 -0.7521  0.9480  0.3630
 3073TIP3   OH230853   3.903   2.882   7.216 -0.2430  0.4840 -0.3917
 3073TIP3    H130854   3.821   2.832   7.225 -0.0825  0.1705 -0.6358
 3073TIP3    H230855   3.875   2.968   7.186 -0.6945  1.1560  1.7520
 3074TIP3   OH230856   6.803   4.379   0.682 -0.4566 -0.1680  0.7314
 3074TIP3    H130857   6.882   4.433   0.683  0.1059 -0.9139 -0.6645
 3074TIP3    H230858   6.743   4.423   0.743  1.0345  0.3821  1.8619
 3075TIP3   OH230859   2.677   0.079   7.956 -0.0911 -0.0311  0.5159
 3075TIP3    H130860   2.709   0.001   8.001  0.7980 -0.7031 -1.1918
 3075TIP3    H230861   2.724   0.152   7.997  2.4463 -0.8422 -0.7259
 3076TIP3   OH230862   1.449   2.897   7.937 -0.5404 -0.1433 -0.3014
 3076TIP3    H130863   1.389   2.825   7.919  1.6772 -1.9046 -1.1059
 3076TIP3    H230864   1.493   2.873   8.019 -0.1725  0.5935 -0.2664
 3077TIP3   OH230865   0.457   3.083   2.130  0.1389  0.6225 -0.3399
 3077TIP3    H130866   0.413   3.127   2.058  0.1705 -1.1305 -1.4634
 3077TIP3    H230867   0.414   3.117   2.209 -2.6191 -0.3386 -1.3417
 3078TIP3   OH230868   4.820   6.800   7.159  0.1260 -0.3671  0.2453
 3078TIP3    H130869   4.746   6.856   7.184 -0.8469 -0.8109 -1.5059
 3078TIP3    H230870   4.837   6.823   7.068  0.0237 -2.5636 -0.3688
 3079TIP3   OH230871   6.475   0.217   1.945 -0.6563 -0.1489 -0.3431
 3079TIP3    H130872   6.400   0.191   1.890 -2.2740  0.6868  1.3447
 3079TIP3    H230873   6.488   0.309   1.925 -1.0734  0.0870  0.4137
 3080TIP3   OH230874   3.073   3.037   0.891 -0.1578  0.2950  0.0612
 3080TIP3    H130875   3.026   3.118   0.909 -2.7463 -0.8714 -0.9035
 3080TIP3    H230876   3.132   3.026   0.966 -0.8452  2.2442  0.9567
 3081TIP3   OH230877   6.006   3.372   6.262  0.0755 -0.0760 -0.2942
 3081TIP3    H130878   5.941   3.318   6.307  0.3430 -0.1604 -0.0025
 3081TIP3    H230879   5.959   3.411   6.189 -0.6339  0.8582  0.6398
 3082TIP3   OH230880   2.927   2.306   7.964 -0.4386 -0.0402  0.4728
 3082TIP3    H130881   2.969   2.263   7.890  1.9782 -0.0099  1.7110
 3082TIP3    H230882   2.902   2.392   7.931  1.3405  0.2793 -0.1344
 3083TIP3   OH230883   3.842   1.745   7.179  0.3606 -0.1843  0.1792
 3083TIP3    H130884   3.791   1.664   7.186  0.6470 -0.5068 -1.2754
 3083TIP3    H230885   3.818   1.782   7.095  1.1916  0.5893  0.2668
 3084TIP3   OH230886   2.943   6.844   2.525  0.0715 -0.5327  0.2112
 3084TIP3    H130887   2.854   6.861   2.494  0.3570 -0.9029 -0.8689
 3084TIP3    H230888   2.991   6.925   2.505  0.0462 -0.4378  0.5312
 3085TIP3   OH230889   3.495   1.432   7.886  0.3431  0.5429 -0.0568
 3085TIP3    H130890   3.416   1.486   7.885 -1.4585 -1.8651  0.6501
 3085TIP3    H230891   3.545   1.461   7.810 -1.5011  1.8359 -0.8590
 3086TIP3   OH230892   5.936   2.278   2.433  0.4811 -0.2083  0.6271
 3086TIP3    H130893   5.956   2.229   2.354 -0.1357  0.4346  0.0570
 3086TIP3    H230894   5.995   2.242   2.500  0.4653 -1.2938  0.0789
 3087TIP3   OH230895   1.267   4.400   1.619 -0.3649  0.6005 -0.0645
 3087TIP3    H130896   1.310   4.348   1.687  0.1937  0.8720 -0.2008
 3087TIP3    H230897   1.299   4.489   1.633 -0.5845  0.7375 -0.4109
 3088TIP3   OH230898   4.721   2.839   1.366  0.3881 -0.6251 -0.3706
 3088TIP3    H130899   4.672   2.769   1.410 -0.4790 -0.2323 -0.6835
 3088TIP3    H230900   4.801   2.848   1.418 -0.4682 -0.3921  0.9601
 3089TIP3   OH230901   1.960   5.045   0.477  0.3153 -0.2228  0.4241
 3089TIP3    H130902   1.968   5.135   0.445  1.8473 -0.6354 -0.4544
 3089TIP3    H230903   1.967   5.052   0.572  0.1795  0.5972  0.3790
 3090TIP3   OH230904   5.100   6.173   7.804 -0.6374 -0.0268 -0.4560
 3090TIP3    H130905   5.066   6.089   7.836 -0.8670 -0.0398 -0.7302
 3090TIP3    H230906   5.079   6.173   7.711 -0.4785  0.2588 -0.4904
 3091TIP3   OH230907   0.606   3.455   1.879  0.2873  0.8065 -0.1710
 3091TIP3    H130908   0.601   3.423   1.969 -0.2278 -0.2717 -0.5704
 3091TIP3    H230909   0.524   3.502   1.865 -0.0891  0.0865 -0.4031
 3092TIP3   OH230910   3.066   0.650   8.780 -0.2121  0.0408 -0.6074
 3092TIP3    H130911   3.102   0.647   8.868  1.0292 -1.2570 -1.1169
 3092TIP3    H230912   2.985   0.699   8.789  1.0572  2.0004  0.8079
 3093TIP3   OH230913   2.887   0.072   1.958  0.5195 -0.0886  0.3512
 3093TIP3    H130914   2.926  -0.015   1.963 -0.5767 -0.5233  2.3037
 3093TIP3    H230915   2.802   0.063   2.000  0.0663  1.7683 -0.0742
 3094TIP3   OH230916   2.300   6.495   1.021 -0.0963 -0.3312  0.1926
 3094TIP3    H130917   2.215   6.475   0.981 -0.7756  2.2213  0.2269
 3094TIP3    H230918   2.341   6.558   0.961  1.0238 -0.1915  1.0633
 3095TIP3   OH230919   2.028   0.578   0.720  0.1070 -0.6265 -0.5763
 3095TIP3    H130920   2.031   0.618   0.633  2.1514 -1.5159 -0.9756
 3095TIP3    H230921   2.109   0.527   0.725 -0.1060 -0.8159  1.7570
 3096TIP3   OH230922   6.682   1.088   0.330 -0.5168  0.5631  0.0473
 3096TIP3    H130923   6.614   1.151   0.353 -1.0880  0.0132 -0.1468
 3096TIP3    H230924   6.692   1.098   0.235  1.8705  2.8675  0.4176
 3097TIP3   OH230925   6.651   3.603   2.357 -0.7848 -0.4893  0.1854
 3097TIP3    H130926   6.568   3.561   2.332 -1.0902 -0.1978  0.7086
 3097TIP3    H230927   6.625   3.678   2.410 -0.1931 -0.2355  0.1205
 3098TIP3   OH230928   1.284   2.092   1.306  0.0249  0.5412 -0.4157
 3098TIP3    H130929   1.227   2.136   1.244 -1.6655 -0.4374  0.3526
 3098TIP3    H230930   1.363   2.147   1.311 -0.6834  1.7361 -1.7963
 3099TIP3   OH230931   1.869   2.550   1.178  0.1972  0.6195  0.6087
 3099TIP3    H130932   1.871   2.481   1.244  0.5430 -1.0350 -1.0403
 3099TIP3    H230933   1.962   2.573   1.165  0.3706 -0.6624 -0.8046
 3100TIP3   OH230934   1.780   4.827   2.298 -0.0839 -0.0007  0.2195
 3100TIP3    H130935   1.693   4.788   2.286  0.0406 -1.1466  2.5197
 3100TIP3    H230936   1.835   4.785   2.232 -1.3014  1.0591 -1.5600
 3101TIP3   OH230937   3.518   0.477   8.011 -0.0087  0.1731 -0.1605
 3101TIP3    H130938   3.520   0.468   8.106  2.5918 -0.5905 -0.2151
 3101TIP3    H230939   3.477   0.397   7.980  0.6345 -0.3291  0.2704
 3102TIP3   OH230940   5.181   6.430   2.696  0.4648 -0.1810  0.3231
 3102TIP3    H130941   5.102   6.470   2.660  1.1948 -0.7525 -2.0956
 3102TIP3    H230942   5.209   6.368   2.629  2.4322 -0.7164  1.5621
 3103TIP3   OH230943   1.725   4.322   7.633 -0.1934  0.0109  0.3941
 3103TIP3    H130944   1.638   4.354   7.610 -0.7208 -0.6526  1.3940
 3103TIP3    H230945   1.713   4.228   7.646  0.5971 -0.0231  0.9173
 3104TIP3   OH230946   4.567   6.776   2.219 -0.9256  0.1255 -0.5403
 3104TIP3    H130947   4.602   6.828   2.147 -0.1216  0.8975  0.3704
 3104TIP3    H230948   4.484   6.817   2.242 -1.2411 -0.1952 -1.0920
 3105TIP3   OH230949   6.767   4.308   8.004  0.8239 -0.1031 -0.2111
 3105TIP3    H130950   6.788   4.400   7.988  2.3636 -0.2426  0.8127
 3105TIP3    H230951   6.727   4.307   8.091  0.2710 -0.3509 -0.4578
 3106TIP3   OH230952   1.550   0.713   8.418 -0.5520  0.2522  0.0416
 3106TIP3    H130953   1.607   0.773   8.369  0.4467  0.6607  1.6221
 3106TIP3    H230954   1.551   0.747   8.508 -0.9756 -1.4153  0.7095
 3107TIP3   OH230955   3.335   0.169   0.431  0.3848  0.1717  0.9522
 3107TIP3    H130956   3.430   0.182   0.425  0.4193  0.1018  1.3486
 3107TIP3    H230957   3.301   0.257   0.449  0.3633  0.2128  0.7202
 3108TIP3   OH230958   0.030   5.628   0.281  0.5287 -0.0647 -0.1516
 3108TIP3    H130959  -0.022   5.623   0.361  1.8204  0.6245  0.7759
 3108TIP3    H230960   0.118   5.653   0.311  1.1469 -0.1859 -1.7500
 3109TIP3   OH230961   5.102   4.724   0.264 -0.2402 -0.4648  0.3194
 3109TIP3    H130962   5.173   4.671   0.298 -0.5428 -1.2918 -0.2884
 3109TIP3    H230963   5.075   4.779   0.337  0.5362 -0.6683  0.7640
 3110TIP3   OH230964   0.799   4.127   8.518 -0.3076 -0.8100 -0.1812
 3110TIP3    H130965   0.837   4.212   8.540 -2.4966 -0.0871  1.2082
 3110TIP3    H230966   0.724   4.149   8.462  0.5103 -2.0711 -1.8555
 3111TIP3   OH230967   2.116   2.398   1.277  0.2976  0.2038  0.2809
 3111TIP3    H130968   2.118   2.387   1.182 -0.9979 -0.6699  0.3339
 3111TIP3    H230969   2.200   2.440   1.298  0.7124  0.1700 -1.2048
 3112TIP3   OH230970   3.534   1.899   1.277  0.4777 -1.2192 -0.5407
 3112TIP3    H130971   3.618   1.858   1.298  1.9976  1.7477 -0.1900
 3112TIP3    H230972   3.520   1.962   1.349 -2.3329 -1.9491 -0.3426
 3113TIP3   OH230973   4.480   2.171   6.394  0.1102 -0.3159 -0.6916
 3113TIP3    H130974   4.457   2.097   6.338  1.1792  0.0424 -1.6280
 3113TIP3    H230975   4.488   2.245   6.334  3.9111 -0.4304 -0.5875
 3114TIP3   OH230976   2.096   1.205   1.122  0.1687  0.9352  0.1643
 3114TIP3    H130977   2.002   1.209   1.106  0.1609  0.0193 -0.0566
 3114TIP3    H230978   2.104   1.186   1.215  0.1544  1.6302  0.3160
 3115TIP3   OH230979   3.317   3.465   2.209 -0.5118  0.0007 -0.6145
 3115TIP3    H130980   3.320   3.371   2.227 -1.5287  0.2486  1.1436
 3115TIP3    H230981   3.225   3.489   2.224 -0.4235  1.1725 -1.7316
 3116TIP3   OH230982   1.175   6.499   0.930  0.1646 -0.2945  0.6198
 3116TIP3    H130983   1.162   6.583   0.886  0.8276 -0.6570 -0.3176
 3116TIP3    H230984   1.264   6.504   0.965 -0.2323 -0.1499  1.6429
 3117TIP3   OH230985   5.020   6.864   0.289  0.2239 -0.1995 -0.0228
 3117TIP3    H130986   5.065   6.840   0.208  1.6957 -0.3949  0.8143
 3117TIP3    H230987   4.937   6.817   0.286 -0.8207  1.5922 -2.4824
 3118TIP3   OH230988   2.886   4.832   1.833 -0.5372 -0.2284  0.6249
 3118TIP3    H130989   2.896   4.851   1.740 -1.5145  1.3148  0.8100
 3118TIP3    H230990   2.975   4.809   1.862  0.1270  1.0628 -0.3061
 3119TIP3   OH230991   0.782   2.127   8.393  0.4578 -0.2140  0.3847
 3119TIP3    H130992   0.815   2.132   8.483 -0.0352 -1.0381  0.6302
 3119TIP3    H230993   0.713   2.193   8.389 -0.8249 -1.4364  1.2194
 3120TIP3   OH230994   3.916   1.472   1.508 -0.4281 -0.1261  0.4273
 3120TIP3    H130995   3.870   1.403   1.460  0.0438  0.8962 -1.5786
 3120TIP3    H230996   3.949   1.531   1.441  0.2317  1.4269  2.0238
 3121TIP3   OH230997   6.698   6.389   7.698 -0.5187 -0.7692 -0.0925
 3121TIP3    H130998   6.678   6.417   7.787  0.2343 -0.9121  0.1293
 3121TIP3    H230999   6.755   6.313   7.709 -1.0137 -1.2402 -0.6990
 3122TIP3   OH231000   4.690   1.928   7.642  0.0733  0.2545  0.3057
 3122TIP3    H131001   4.742   1.872   7.700 -0.5745  0.3248  0.9690
 3122TIP3    H231002   4.754   1.972   7.587  0.8523  1.4401  2.0636
 3123TIP3   OH231003   2.551   1.953   2.441 -0.6738 -0.6569  0.0651
 3123TIP3    H131004   2.487   1.922   2.505 -0.9311  0.4121  0.3386
 3123TIP3    H231005   2.539   2.048   2.438  2.7658  0.0472  2.2640
 3124TIP3   OH231006   6.284   4.178   8.318 -0.3943  0.2878 -0.0432
 3124TIP3    H131007   6.317   4.120   8.387  0.7692 -0.2290 -0.9954
 3124TIP3    H231008   6.190   4.160   8.315 -0.6327  0.9138  1.9247
 3125TIP3   OH231009   1.883   0.777   1.375  0.3493  0.2713  0.0301
 3125TIP3    H131010   1.978   0.775   1.365  0.4482 -1.6585  1.0016
 3125TIP3    H231011   1.861   0.871   1.374  1.9387  0.7158 -2.5294
 3126TIP3   OH231012   2.876   3.325   8.663 -0.6242 -0.1649 -0.3108
 3126TIP3    H131013   2.915   3.412   8.656  0.3342 -0.6142 -0.6796
 3126TIP3    H231014   2.920   3.284   8.737 -0.9565 -0.3930 -0.2343
 3127TIP3   OH231015   1.427   5.691   1.632 -0.5891  0.5530  0.2983
 3127TIP3    H131016   1.516   5.683   1.664 -0.6946  2.7885  1.3907
 3127TIP3    H231017   1.378   5.725   1.707 -2.5069 -1.1425 -0.1027
 3128TIP3   OH231018   6.064   6.060   0.497 -0.1500 -0.1796 -0.0756
 3128TIP3    H131019   6.125   6.013   0.553 -0.7475 -1.0247 -0.1207
 3128TIP3    H231020   6.026   6.127   0.555 -1.7663 -1.9027  0.9497
 3129TIP3   OH231021   3.624   5.329   0.083 -0.0354  0.4958  0.3659
 3129TIP3    H131022   3.612   5.248   0.034 -0.1980  0.7171  0.0390
 3129TIP3    H231023   3.575   5.395   0.034  1.9603  1.3090 -0.6450
 3130TIP3   OH231024   3.096   4.916   7.114  0.7444 -0.1278 -0.6363
 3130TIP3    H131025   3.189   4.905   7.093  0.8705  1.4207 -1.0098
 3130TIP3    H231026   3.057   4.831   7.092  2.2201 -1.1700  0.5543
 3131TIP3   OH231027   1.446   6.788   0.041 -0.2129 -0.7168 -0.0457
 3131TIP3    H131028   1.507   6.855   0.075  1.0878 -1.6054 -0.5320
 3131TIP3    H231029   1.390   6.766   0.115 -0.0734  0.2727  0.3656
 3132TIP3   OH231030   5.585   3.220   0.287 -0.2567  0.3767  0.3307
 3132TIP3    H131031   5.654   3.156   0.271 -1.9990 -1.0813 -2.0298
 3132TIP3    H231032   5.547   3.194   0.371 -0.7490 -1.6022 -0.4552
 3133TIP3   OH231033   5.860   6.500   7.331 -0.1338  0.1095  0.0927
 3133TIP3    H131034   5.951   6.503   7.359 -0.4648 -0.3616  1.2805
 3133TIP3    H231035   5.842   6.407   7.318 -0.2394  0.2588 -0.8619
 3134TIP3   OH231036   2.274   1.694   7.874  0.0075 -0.3162  0.7711
 3134TIP3    H131037   2.302   1.705   7.783 -1.4174 -1.3326  0.1784
 3134TIP3    H231038   2.221   1.772   7.892 -0.5753 -0.6128  0.3714
 3135TIP3   OH231039   2.146   2.482   0.642  0.7788  0.9149  0.2604
 3135TIP3    H131040   2.079   2.522   0.698  0.1879  2.4495 -1.4455
 3135TIP3    H231041   2.224   2.537   0.655  0.8019  0.9479 -0.0176
 3136TIP3   OH231042   5.638   0.389   7.471  0.8714 -0.1016 -0.4339
 3136TIP3    H131043   5.633   0.307   7.421 -0.6608 -0.2763 -0.0394
 3136TIP3    H231044   5.693   0.367   7.546 -0.1779 -1.0309  0.0943
 3137TIP3   OH231045   3.136   4.097   7.639 -0.0894  0.3199 -0.5325
 3137TIP3    H131046   3.049   4.100   7.679  0.6886 -1.5946  1.5132
 3137TIP3    H231047   3.122   4.123   7.548 -3.1989 -2.1045 -0.9109
 3138TIP3   OH231048   3.714   1.758   0.290 -0.1658 -0.4110  0.2533
 3138TIP3    H131049   3.681   1.831   0.343  0.4266 -0.0243  0.0929
 3138TIP3    H231050   3.757   1.800   0.216  2.0399 -0.8357  1.2288
 3139TIP3   OH231051   3.486   0.820   1.846 -0.4447  0.5799  0.4641
 3139TIP3    H131052   3.413   0.781   1.893 -0.7264  2.8649  2.0796
 3139TIP3    H231053   3.562   0.808   1.903 -0.3216  1.4038  0.4884
 3140TIP3   OH231054   6.043   1.051   8.557  0.4431 -0.5063 -0.2404
 3140TIP3    H131055   6.035   1.128   8.614 -0.9253 -0.1856 -0.8263
 3140TIP3    H231056   6.086   0.985   8.612 -0.7080 -0.1665  1.1468
 3141TIP3   OH231057   6.281   1.586   0.926 -0.8084 -0.2564  0.3141
 3141TIP3    H131058   6.254   1.654   0.864  0.0002  0.2515  0.5042
 3141TIP3    H231059   6.344   1.533   0.877 -0.0430  0.2430  0.7220
 3142TIP3   OH231060   2.820   5.138   0.015  0.3155  0.3296  0.0399
 3142TIP3    H131061   2.900   5.191   0.011 -0.7628  2.0922  0.4213
 3142TIP3    H231062   2.819   5.088  -0.066  0.4590  2.3910 -1.3001
 3143TIP3   OH231063   0.295   0.723   0.106  0.0615 -0.2644  0.3113
 3143TIP3    H131064   0.365   0.756   0.050 -0.4158  0.5849  0.1820
 3143TIP3    H231065   0.233   0.796   0.111 -0.1336 -0.4953  1.5631
 3144TIP3   OH231066   3.493   5.280   8.028 -0.0056  0.4037 -0.3670
 3144TIP3    H131067   3.480   5.374   8.042  1.5984  0.5751  0.1100
 3144TIP3    H231068   3.573   5.259   8.075 -1.1765 -1.5516  0.9013
 3145TIP3   OH231069   1.365   3.354   8.784  0.1641  0.2868 -0.0178
 3145TIP3    H131070   1.315   3.296   8.726  1.0352  1.2051 -1.7397
 3145TIP3    H231071   1.452   3.357   8.746 -0.3750  4.4454 -1.3563
 3146TIP3   OH231072   1.462   6.807   1.968 -0.1143 -0.6031 -0.0087
 3146TIP3    H131073   1.465   6.846   1.880 -0.7341  1.0025  0.6324
 3146TIP3    H231074   1.551   6.775   1.984  0.5940  1.0562 -0.4056
 3147TIP3   OH231075   3.906   4.373   1.401  0.1405 -0.2115 -0.0975
 3147TIP3    H131076   3.983   4.390   1.454  0.5299 -0.6601 -0.5153
 3147TIP3    H231077   3.919   4.285   1.366 -1.4043 -1.0688  1.3053
 3148TIP3   OH231078   2.167   3.228   0.572 -1.0222 -0.2816  0.0239
 3148TIP3    H131079   2.207   3.254   0.489  0.7673 -0.1531  0.8774
 3148TIP3    H231080   2.150   3.311   0.617 -0.2449 -0.3802  0.5312
 3149TIP3   OH231081   6.804   0.740   6.918  0.0141 -0.6886  0.2630
 3149TIP3    H131082   6.750   0.747   6.839  0.0701  1.3675  0.3509
 3149TIP3    H231083   6.741   0.744   6.990  0.1787  1.0599  0.3526
 3150TIP3   OH231084   1.758   5.735   0.272 -0.0722 -0.1751 -0.2794
 3150TIP3    H131085   1.689   5.683   0.231 -0.6156 -0.0659  0.4689
 3150TIP3    H231086   1.728   5.747   0.362  1.6059 -1.3542  0.4912
 3151TIP3   OH231087   5.769   6.716   1.793  0.3642 -0.4193  0.7822
 3151TIP3    H131088   5.788   6.723   1.887 -0.1408  1.2086  0.7800
 3151TIP3    H231089   5.832   6.773   1.751 -0.0705 -0.3544  0.2044
 3152TIP3   OH231090   3.288   2.959   2.081 -0.2369  0.5734 -0.1993
 3152TIP3    H131091   3.334   2.959   2.165 -0.3624 -1.9473 -0.0459
 3152TIP3    H231092   3.195   2.965   2.104 -0.3015 -0.5860 -0.0779
 3153TIP3   OH231093   3.688   2.885   0.868  0.5577  0.1286  0.4053
 3153TIP3    H131094   3.693   2.980   0.878 -1.2249  0.2020  1.1069
 3153TIP3    H231095   3.595   2.865   0.882  1.0127 -1.7933  0.9995
 3154TIP3   OH231096   3.622   6.260   7.662 -0.2260  0.1912 -0.0863
 3154TIP3    H131097   3.661   6.182   7.701 -0.5166 -0.3736 -0.9026
 3154TIP3    H231098   3.589   6.231   7.577  0.8401  1.4968 -0.9922
 3155TIP3   OH231099   3.540   6.707   8.680  0.7249  0.1353  0.0799
 3155TIP3    H131100   3.539   6.703   8.776  2.7948 -0.7678  0.1154
 3155TIP3    H231101   3.483   6.781   8.659 -0.6445 -0.3261  1.9424
 3156TIP3   OH231102   4.618   2.847   7.354  0.0526 -0.0661  0.5996
 3156TIP3    H131103   4.545   2.896   7.316 -0.4084  0.4362  2.0605
 3156TIP3    H231104   4.694   2.873   7.303 -0.2164  2.0367  1.1879
 3157TIP3   OH231105   3.689   2.101   6.603  0.1270  0.1455  0.2988
 3157TIP3    H131106   3.782   2.106   6.581  0.0066  0.0400 -0.2447
 3157TIP3    H231107   3.688   2.070   6.694  0.6855  2.9976  1.3635
 3158TIP3   OH231108   0.984   5.525   0.150  0.5923  0.1750 -0.4534
 3158TIP3    H131109   0.936   5.482   0.220  1.4033 -0.5762 -0.3359
 3158TIP3    H231110   0.926   5.524   0.075 -0.3940  1.2220  0.2574
 3159TIP3   OH231111   5.182   3.204   8.787 -0.4085 -0.3314  0.7213
 3159TIP3    H131112   5.133   3.164   8.715  0.2900  0.8287 -0.4493
 3159TIP3    H231113   5.124   3.272   8.821  0.1090  0.6274 -0.2572
 3160TIP3   OH231114   6.133   2.021   1.480  0.4413  0.2542  0.6451
 3160TIP3    H131115   6.213   1.970   1.466 -1.0612 -2.0212 -0.1971
 3160TIP3    H231116   6.120   2.069   1.399  1.3254  1.2624  1.0725
 3161TIP3   OH231117   6.061   3.892   1.155  0.2046 -0.3481 -0.1563
 3161TIP3    H131118   6.106   3.976   1.159 -1.2780  0.4590  0.4651
 3161TIP3    H231119   6.025   3.880   1.243 -0.6837 -1.0033 -0.5930
 3162TIP3   OH231120   0.452   2.670   1.862 -0.2136 -0.6872 -0.1662
 3162TIP3    H131121   0.536   2.706   1.892 -0.0020  0.1328 -1.6394
 3162TIP3    H231122   0.475   2.616   1.787 -1.0869  0.5149 -1.3473
 3163TIP3   OH231123   2.473   2.115   8.288 -0.0021 -0.2829  0.1354
 3163TIP3    H131124   2.565   2.119   8.313  0.1682  2.1827 -0.5673
 3163TIP3    H231125   2.432   2.059   8.354  1.7149 -0.0535  1.4667
 3164TIP3   OH231126   0.866   1.835   7.970 -0.5512  0.3773 -0.9450
 3164TIP3    H131127   0.826   1.890   8.037 -0.2831  0.1948 -0.6297
 3164TIP3    H231128   0.803   1.766   7.954 -0.0829 -0.3205  0.0714
 3165TIP3   OH231129   5.069   6.564   1.827  0.0414 -0.1010  0.1504
 3165TIP3    H131130   5.070   6.547   1.733  1.5908 -0.1254  0.1493
 3165TIP3    H231131   5.008   6.637   1.838 -1.4038 -1.1392 -0.6632
 3166TIP3   OH231132   5.985   2.216   7.540 -0.0404  0.3289 -0.4868
 3166TIP3    H131133   5.975   2.127   7.573 -1.1214  1.0707  1.3933
 3166TIP3    H231134   6.054   2.210   7.474 -0.1819 -1.9031 -0.5122
 3167TIP3   OH231135   3.834   5.381   6.933  0.5343 -0.1631  0.2197
 3167TIP3    H131136   3.872   5.413   6.851  0.0175  1.2450  0.4999
 3167TIP3    H231137   3.787   5.302   6.907 -1.0619  1.1603 -1.2267
 3168TIP3   OH231138   6.262   2.963   7.430 -1.0454  0.2601  0.0587
 3168TIP3    H131139   6.200   2.977   7.358  0.2684  3.1335 -0.6707
 3168TIP3    H231140   6.259   3.044   7.480  2.8107  1.0204 -0.6442
 3169TIP3   OH231141   5.391   3.308   1.133 -0.2877  0.0269 -0.1671
 3169TIP3    H131142   5.322   3.323   1.197  0.6082 -0.7159  1.0152
 3169TIP3    H231143   5.352   3.332   1.049 -1.2555  1.7251  0.7301
 3170TIP3   OH231144   3.228   0.330   0.174  0.3626  0.7499  0.3945
 3170TIP3    H131145   3.319   0.305   0.190 -0.1630 -0.4631  1.7222
 3170TIP3    H231146   3.227   0.425   0.188  1.3220  0.7067  0.8976
 3171TIP3   OH231147   1.227   1.013   6.586  0.4144  0.1173 -0.1436
 3171TIP3    H131148   1.311   1.059   6.576  0.4272 -0.0472 -0.8013
 3171TIP3    H231149   1.250   0.934   6.635  0.7562 -0.2304 -0.8484
 3172TIP3   OH231150   4.459   0.123   1.793 -0.2505 -0.4904  0.0620
 3172TIP3    H131151   4.392   0.055   1.795 -0.2960 -0.4433  1.6316
 3172TIP3    H231152   4.514   0.101   1.718 -1.3907 -1.1363 -0.6071
 3173TIP3   OH231153   2.871   6.258   1.026 -0.2128  0.5195 -0.0101
 3173TIP3    H131154   2.787   6.293   1.057  0.3961  0.1935  2.1690
 3173TIP3    H231155   2.857   6.164   1.020  0.5909  0.1309  2.7409
 3174TIP3   OH231156   1.689   1.317   2.369  0.0941 -0.0990  0.3744
 3174TIP3    H131157   1.735   1.235   2.351 -0.2715  0.0226 -1.2124
 3174TIP3    H231158   1.616   1.291   2.425  0.0540 -0.8454 -0.0096
 3175TIP3   OH231159   3.832   3.099   0.586  0.2764  0.1085 -0.2278
 3175TIP3    H131160   3.781   3.102   0.506  1.4801 -0.9685 -1.0841
 3175TIP3    H231161   3.874   3.185   0.591 -1.1659  0.8275  0.2309
 3176TIP3   OH231162   1.930   5.987   8.572 -0.1483 -0.5905  0.5310
 3176TIP3    H131163   1.844   5.974   8.531  0.4166 -0.5995 -0.6674
 3176TIP3    H231164   1.956   5.900   8.601  0.4168 -0.9770 -1.0593
 3177TIP3   OH231165   3.963   2.547   8.606  0.3856 -0.6698  0.5009
 3177TIP3    H131166   4.011   2.629   8.619 -0.3602  0.1917 -1.5957
 3177TIP3    H231167   3.920   2.531   8.690  2.6131 -0.3673  1.7819
 3178TIP3   OH231168   5.001   4.521   1.462  0.0507  0.5627 -0.5028
 3178TIP3    H131169   4.920   4.471   1.460 -0.1613  0.8777 -0.0775
 3178TIP3    H231170   4.972   4.612   1.466  0.4112  0.6531  0.3024
 3179TIP3   OH231171   5.893   0.012   0.504  0.3121  0.0371 -0.0107
 3179TIP3    H131172   5.928   0.100   0.491 -0.3157  0.3630  0.4608
 3179TIP3    H231173   5.931  -0.018   0.586  0.3661 -0.0582 -0.0697
 3180TIP3   OH231174   3.886   2.148   6.907 -0.0237 -0.3035 -0.2480
 3180TIP3    H131175   3.978   2.173   6.901  0.3633 -1.5419  0.3189
 3180TIP3    H231176   3.867   2.149   7.001 -0.1145 -1.6819 -0.2356
 3181TIP3   OH231177   1.610   4.477   0.324  0.1301  0.2980 -0.1622
 3181TIP3    H131178   1.614   4.496   0.230 -2.0363 -0.6873 -0.5106
 3181TIP3    H231179   1.642   4.387   0.331  0.0113  0.2685 -0.0051
 3182TIP3   OH231180   5.934   1.291   7.889  0.6078 -0.6180 -0.4443
 3182TIP3    H131181   5.999   1.222   7.906  1.2879 -0.2257 -1.3776
 3182TIP3    H231182   5.865   1.248   7.839 -0.2170 -1.1971  1.1159
 3183TIP3   OH231183   4.145   1.657   1.810  0.6923 -0.3924  0.3170
 3183TIP3    H131184   4.224   1.605   1.797  0.9796 -0.6219  2.6757
 3183TIP3    H231185   4.176   1.741   1.842  0.0320 -0.1280  0.2725
 3184TIP3   OH231186   3.750   5.900   6.058  0.3151  0.0149  0.1244
 3184TIP3    H131187   3.791   5.868   6.138 -1.7675  0.1631  1.2971
 3184TIP3    H231188   3.779   5.991   6.051  0.4774  0.0134  0.7151
 3185TIP3   OH231189   5.747   0.006   0.119 -0.5812 -0.3055 -0.5487
 3185TIP3    H131190   5.666   0.044   0.153 -0.1275 -0.1262  0.3348
 3185TIP3    H231191   5.795  -0.024   0.196  0.9555  1.0717 -0.9231
 3186TIP3   OH231192   4.958   1.923   1.014 -0.1115  0.2042  0.1061
 3186TIP3    H131193   4.935   2.004   1.061  2.4466  0.9854  0.1906
 3186TIP3    H231194   4.892   1.915   0.946 -1.9541  0.9124  1.7202
 3187TIP3   OH231195   2.232   1.289   0.898 -0.6459 -0.3355  0.0853
 3187TIP3    H131196   2.192   1.223   0.955 -1.9576  0.9768  0.7583
 3187TIP3    H231197   2.160   1.350   0.878  0.6563  1.2295 -0.0119
 3188TIP3   OH231198   1.241   3.775   2.184 -0.2130 -0.3986 -0.0847
 3188TIP3    H131199   1.204   3.833   2.117  1.1184  1.6513  0.8328
 3188TIP3    H231200   1.202   3.805   2.266  0.3552 -0.9486  0.3961
 3189TIP3   OH231201   4.325   0.080   7.119  0.3432 -0.3392 -0.8657
 3189TIP3    H131202   4.395   0.129   7.076  0.2326 -0.7471 -1.5366
 3189TIP3    H231203   4.324   0.112   7.209  1.2620 -0.1951 -0.8991
 3190TIP3   OH231204   3.038   0.188   0.029  0.4025  0.2276 -0.6646
 3190TIP3    H131205   3.046   0.273  -0.016 -1.2141  1.2862  0.9246
 3190TIP3    H231206   3.121   0.180   0.078  2.6477 -1.4137 -4.3402
 3191TIP3   OH231207   2.889   0.922   7.374  0.0440  0.1130  0.1666
 3191TIP3    H131208   2.906   0.975   7.296  0.7427 -0.0453  0.2038
 3191TIP3    H231209   2.798   0.942   7.397 -0.2022  0.0793 -0.7447
 3192TIP3   OH231210   5.317   4.562   0.384  0.1513 -0.3756  0.1722
 3192TIP3    H131211   5.336   4.490   0.323  1.4749 -0.0603  0.1870
 3192TIP3    H231212   5.351   4.531   0.468  0.3885  0.1209  0.2593
 3193TIP3   OH231213   0.954   4.134   0.078  0.0987 -0.4190  0.2371
 3193TIP3    H131214   0.881   4.102   0.025 -0.0017 -1.2960  0.8977
 3193TIP3    H231215   0.941   4.096   0.165  1.5469 -0.9257  0.2725
 3194TIP3   OH231216   5.885   4.172   1.380  0.4697 -0.6389 -0.5430
 3194TIP3    H131217   5.869   4.175   1.474  0.3427  0.5844 -0.5878
 3194TIP3    H231218   5.859   4.083   1.354 -2.1375 -0.1410  0.1067
 3195TIP3   OH231219   3.805   5.821   1.852 -0.5754 -0.2133 -0.0691
 3195TIP3    H131220   3.731   5.873   1.885 -1.2645 -0.4984 -1.1317
 3195TIP3    H231221   3.765   5.743   1.815  0.3112 -0.6204 -0.1901
 3196TIP3   OH231222   1.316   4.408   7.814 -0.3117  0.2464  0.3646
 3196TIP3    H131223   1.281   4.333   7.863 -1.5475  0.4811 -0.1048
 3196TIP3    H231224   1.348   4.369   7.732 -0.0752  0.1131  0.5189
 3197TIP3   OH231225   0.273   1.942   2.118 -0.2705 -0.0441 -0.9982
 3197TIP3    H131226   0.249   1.940   2.025 -0.1274 -0.3714 -1.0299
 3197TIP3    H231227   0.299   1.852   2.138  0.2201  0.1428 -0.7815
 3198TIP3   OH231228   1.768   4.938   1.663 -0.0881  1.0017 -0.0999
 3198TIP3    H131229   1.725   4.855   1.684  1.6292  0.1658  0.3198
 3198TIP3    H231230   1.708   5.005   1.696 -1.3439 -0.0620 -0.1140
 3199TIP3   OH231231   5.188   3.548   8.455  0.1694 -0.0387  0.5681
 3199TIP3    H131232   5.118   3.612   8.444  1.7023  1.7801  0.7523
 3199TIP3    H231233   5.165   3.500   8.534 -1.1429  0.1106  0.2965
 3200TIP3   OH231234   5.637   4.179   0.731 -0.3442 -0.2570  0.5028
 3200TIP3    H131235   5.700   4.154   0.798  0.7994  0.5126 -0.2489
 3200TIP3    H231236   5.567   4.223   0.779  0.3716  0.1145  1.2258
 3201TIP3   OH231237   5.004   5.292   0.897 -0.2210  0.0533  0.0134
 3201TIP3    H131238   5.093   5.260   0.883 -0.4624  0.1139 -1.8388
 3201TIP3    H231239   5.012   5.388   0.890 -0.3954  0.0766  0.1248
 3202TIP3   OH231240   2.344   2.074   8.770  0.2375 -0.3328  0.2352
 3202TIP3    H131241   2.269   2.052   8.825 -0.8864 -0.1216 -1.1621
 3202TIP3    H231242   2.360   1.995   8.719  0.4116 -0.0997 -0.0764
 3203TIP3   OH231243   4.401   3.260   8.636  0.3876  0.0811 -0.2088
 3203TIP3    H131244   4.449   3.333   8.675 -0.2790  0.6266 -0.3767
 3203TIP3    H231245   4.468   3.194   8.617  0.8956  0.3344  0.6480
 3204TIP3   OH231246   3.424   1.943   7.043 -0.5375 -0.0354  0.2405
 3204TIP3    H131247   3.368   1.904   6.976 -1.1673 -0.2560  0.8724
 3204TIP3    H231248   3.393   1.903   7.125  1.0042 -0.6690  0.5338
 3205TIP3   OH231249   4.403   4.933   8.016  0.1203 -0.2661  0.1295
 3205TIP3    H131250   4.437   4.860   8.066 -1.2282 -1.1010 -0.1393
 3205TIP3    H231251   4.436   4.918   7.927  1.5939  0.6267  0.4783
 3206TIP3   OH231252   2.653   0.846   1.403 -0.5391 -0.6701  0.3095
 3206TIP3    H131253   2.644   0.759   1.440 -2.7349 -1.0339 -0.8859
 3206TIP3    H231254   2.636   0.905   1.476 -1.2053 -1.2947  0.6741
 3207TIP3   OH231255   2.092   4.075   2.047  0.3673 -0.0032  0.7354
 3207TIP3    H131256   2.042   3.997   2.024 -1.0705  1.3571 -1.1180
 3207TIP3    H231257   2.059   4.101   2.133 -0.6591 -0.2930  0.4384
 3208TIP3   OH231258   2.732   1.723   8.282 -0.0477  0.4103 -0.1134
 3208TIP3    H131259   2.806   1.678   8.322 -2.8284 -3.7296  0.9931
 3208TIP3    H231260   2.737   1.699   8.189  1.2029  2.1399 -0.5338
 3209TIP3   OH231261   0.607   3.333   1.262 -0.1268  0.0516 -0.0765
 3209TIP3    H131262   0.647   3.342   1.176  0.1705  0.9662  0.1482
 3209TIP3    H231263   0.669   3.281   1.313  0.5656  1.0347  0.1172
 3210TIP3   OH231264   6.346   3.823   0.397  0.2038 -0.0887 -0.3497
 3210TIP3    H131265   6.275   3.760   0.394  0.2541 -0.1584 -0.0914
 3210TIP3    H231266   6.347   3.855   0.487  2.0612 -1.8938  0.3528
 3211TIP3   OH231267   4.341   2.549   2.117  0.6901  0.1903 -0.7992
 3211TIP3    H131268   4.278   2.528   2.186  1.7362 -1.1383 -0.2110
 3211TIP3    H231269   4.287   2.576   2.042 -0.5833 -0.9837 -0.3379
 3212TIP3   OH231270   1.078   5.317   0.993 -0.6637  0.3904 -0.4516
 3212TIP3    H131271   1.051   5.259   1.063 -1.0897  0.4277 -0.5837
 3212TIP3    H231272   1.034   5.400   1.011 -1.1167  0.2722 -0.9980
 3213TIP3   OH231273   1.429   2.543   7.974 -1.0843  0.4379  0.4025
 3213TIP3    H131274   1.515   2.584   7.968 -0.1468 -1.2695  1.3835
 3213TIP3    H231275   1.369   2.607   7.935  0.6707  1.4877 -0.7145
 3214TIP3   OH231276   3.337   5.561   7.445  0.2403 -0.1904 -0.0329
 3214TIP3    H131277   3.410   5.515   7.405  0.8951 -0.0334  0.9540
 3214TIP3    H231278   3.264   5.500   7.439  0.1181  0.0699 -2.0334
 3215TIP3   OH231279   1.062   4.697   1.603 -0.0649 -0.4040 -0.3909
 3215TIP3    H131280   1.154   4.698   1.578 -0.4015  0.9335 -1.7256
 3215TIP3    H231281   1.059   4.752   1.682  0.2041  0.0288 -0.6768
 3216TIP3   OH231282   0.999   4.214   7.136  0.5249 -0.5890  0.0592
 3216TIP3    H131283   0.938   4.167   7.194  3.0280 -1.3992  2.2638
 3216TIP3    H231284   1.021   4.150   7.068  1.0288 -1.3319  0.8921
 3217TIP3   OH231285   5.812   4.195   1.914 -0.5801 -0.2015 -0.4177
 3217TIP3    H131286   5.858   4.249   1.978  0.9541  1.5025 -2.7947
 3217TIP3    H231287   5.733   4.246   1.891 -0.4003 -0.1198 -0.8750
 3218TIP3   OH231288   6.248   2.620   6.277  0.3630  0.3149  0.0837
 3218TIP3    H131289   6.308   2.553   6.308 -0.3554  0.0923  1.0515
 3218TIP3    H231290   6.244   2.684   6.349 -0.9342  0.0575  0.2688
 3219TIP3   OH231291   6.275   4.503   6.854  1.0191 -0.2691  0.0783
 3219TIP3    H131292   6.294   4.422   6.808 -0.2734 -1.0099  0.7979
 3219TIP3    H231293   6.360   4.531   6.889  1.4524 -1.3680 -0.0628
 3220TIP3   OH231294   6.795   2.124   7.865  0.2373 -0.0555 -0.2958
 3220TIP3    H131295   6.873   2.149   7.817 -0.5668  0.9440 -1.1406
 3220TIP3    H231296   6.725   2.126   7.800 -0.5139 -0.8169  0.4636
 3221TIP3   OH231297   2.984   2.807   0.347  0.4340  0.0180 -0.2032
 3221TIP3    H131298   2.939   2.849   0.420 -1.2167 -0.5159 -0.8645
 3221TIP3    H231299   2.916   2.754   0.305  1.6108 -0.5236 -1.4807
 3222TIP3   OH231300   2.167   2.910   0.187 -0.0297  0.0290 -0.0233
 3222TIP3    H131301   2.134   2.999   0.189 -0.7585 -0.1655 -1.8801
 3222TIP3    H231302   2.130   2.869   0.265 -1.6413  0.7012 -0.3923
 3223TIP3   OH231303   0.670   6.081   7.634  0.0253 -0.3497 -0.0033
 3223TIP3    H131304   0.700   6.017   7.569 -1.3042  1.4768 -2.6198
 3223TIP3    H231305   0.739   6.147   7.635 -1.4372  1.3804 -2.3497
 3224TIP3   OH231306   4.150   1.370   0.231  0.0375 -0.0977 -0.4963
 3224TIP3    H131307   4.108   1.286   0.247  1.3389 -0.7135 -0.1378
 3224TIP3    H231308   4.112   1.428   0.297 -0.0979 -0.6874 -0.0394
 3225TIP3   OH231309   3.448   1.083   1.721  0.1268 -0.1365 -0.0173
 3225TIP3    H131310   3.434   1.024   1.795 -2.4920  2.1079  1.4921
 3225TIP3    H231311   3.484   1.162   1.761 -0.8398  0.9351 -1.1836
 3226TIP3   OH231312   1.340   0.888   1.137 -0.2994  0.0345  0.3886
 3226TIP3    H131313   1.339   0.981   1.112  1.2510  1.2515  4.1998
 3226TIP3    H231314   1.421   0.854   1.099 -0.8433  0.2078 -0.9797
 3227TIP3   OH231315   1.557   1.883   7.048  0.2580  0.3259 -0.3494
 3227TIP3    H131316   1.484   1.848   6.997  0.2790 -1.9826  1.0495
 3227TIP3    H231317   1.518   1.953   7.100 -0.5456  0.3277 -0.9294
 3228TIP3   OH231318   4.096   1.146   7.928  0.5888 -0.0077  0.3393
 3228TIP3    H131319   4.142   1.209   7.872  0.2566  0.6227  0.7680
 3228TIP3    H231320   4.083   1.070   7.871  2.1065 -0.1868  0.1993
 3229TIP3   OH231321   0.065   5.317   0.701  0.7302 -0.0267  0.0059
 3229TIP3    H131322   0.075   5.239   0.754 -0.1113  0.3192  0.6992
 3229TIP3    H231323   0.029   5.383   0.761 -1.1176  0.1056 -1.1637
 3230TIP3   OH231324   2.824   0.632   1.120 -0.6575 -0.5235 -0.2721
 3230TIP3    H131325   2.787   0.583   1.194 -1.4403  0.5060  0.0386
 3230TIP3    H231326   2.818   0.724   1.147 -2.5047  0.0097 -2.2705
 3231TIP3   OH231327   2.221   1.172   7.514  0.2829 -0.0740 -0.0414
 3231TIP3    H131328   2.239   1.111   7.586  0.9092  0.2744  0.1068
 3231TIP3    H231329   2.129   1.196   7.526 -0.2228 -1.6028 -0.5784
 3232TIP3   OH231330   2.914   4.744   1.215  0.3001  0.2087  0.1370
 3232TIP3    H131331   2.832   4.767   1.258 -2.3163 -0.2034 -4.1300
 3232TIP3    H231332   2.938   4.822   1.164  1.2340 -0.4855 -0.5267
 3233TIP3   OH231333   3.915   5.800   7.063 -0.5292 -0.1675 -0.2005
 3233TIP3    H131334   3.953   5.805   6.976  1.0191 -0.1545  0.4479
 3233TIP3    H231335   3.990   5.786   7.122 -1.4623  0.4153  1.1892
 3234TIP3   OH231336   6.792   2.419   0.741 -0.1660 -0.5070 -0.0325
 3234TIP3    H131337   6.770   2.334   0.780  0.8209 -0.9103 -0.3348
 3234TIP3    H231338   6.868   2.401   0.686  0.3494  0.6715  0.2658
 3235TIP3   OH231339   6.550   2.988   2.482 -0.1686 -0.0620 -0.4226
 3235TIP3    H131340   6.488   2.917   2.465 -0.0942  0.1042 -1.4089
 3235TIP3    H231341   6.634   2.955   2.452 -0.1575  0.4804 -1.0050
 3236TIP3   OH231342   2.337   0.238   6.860  0.3382 -0.2811 -0.2363
 3236TIP3    H131343   2.306   0.272   6.944  0.6179  2.6194 -1.2124
 3236TIP3    H231344   2.277   0.166   6.840 -0.1974 -0.5581  2.0621
 3237TIP3   OH231345   3.140   0.074   8.490 -0.3253 -0.6581  0.1044
 3237TIP3    H131346   3.209   0.074   8.556  0.3059  1.1919 -0.4911
 3237TIP3    H231347   3.066   0.029   8.532  0.1894  0.0888  1.9127
 3238TIP3   OH231348   4.389   2.854   8.041 -0.3903 -0.2478  0.1106
 3238TIP3    H131349   4.426   2.903   7.968  0.7703 -1.5955 -0.2332
 3238TIP3    H231350   4.343   2.921   8.093  1.4766  1.2940 -0.1052
 3239TIP3   OH231351   2.082   3.752   8.547  0.4099 -0.0686  0.1158
 3239TIP3    H131352   2.032   3.760   8.466  1.4348  0.5340 -0.4814
 3239TIP3    H231353   2.079   3.659   8.568  0.9153 -0.3857 -1.1353
 3240TIP3   OH231354   1.463   1.820   6.444  0.4904 -0.2851 -0.1178
 3240TIP3    H131355   1.505   1.904   6.427  0.4700 -0.3272 -0.3768
 3240TIP3    H231356   1.373   1.831   6.413 -0.2600  0.4047  2.0611
 3241TIP3   OH231357   6.687   6.584   2.254 -0.2835 -0.0280 -0.4390
 3241TIP3    H131358   6.613   6.638   2.283  0.0202 -0.2507  0.8167
 3241TIP3    H231359   6.744   6.645   2.208  0.0339  0.7565  0.9242
 3242TIP3   OH231360   4.913   3.868   0.489  0.1407  0.2603 -0.2466
 3242TIP3    H131361   4.909   3.946   0.432  0.8226  0.8001  0.4268
 3242TIP3    H231362   4.841   3.813   0.458  0.4347  0.5747 -1.5832
 3243TIP3   OH231363   3.021   2.088   1.955 -0.3024 -0.2639  0.2520
 3243TIP3    H131364   2.963   2.036   1.899  0.8867 -0.3975 -0.9165
 3243TIP3    H231365   3.069   2.023   2.006 -1.2353 -0.1487  1.3267
 3244TIP3   OH231366   6.028   5.819   7.613 -0.0435  0.4913  0.0029
 3244TIP3    H131367   6.038   5.726   7.593 -1.7731  0.4803 -1.0042
 3244TIP3    H231368   6.097   5.838   7.677 -0.3372 -1.7364  1.0480
 3245TIP3   OH231369   6.678   3.652   7.829  0.5860 -0.1008  0.1178
 3245TIP3    H131370   6.667   3.570   7.782 -0.9248  0.4389 -0.5535
 3245TIP3    H231371   6.772   3.669   7.828  0.6704 -0.4177 -2.2046
 3246TIP3   OH231372   3.387   1.864   8.078  0.3978  0.0407 -0.4264
 3246TIP3    H131373   3.385   1.817   8.162  0.9595  3.2947  1.5978
 3246TIP3    H231374   3.315   1.927   8.085  0.6375  0.5683 -2.3139
 3247TIP3   OH231375   2.563   6.424   8.469  0.0234  0.0494  0.3675
 3247TIP3    H131376   2.472   6.443   8.445 -0.1447  0.1346  1.0558
 3247TIP3    H231377   2.565   6.432   8.564  0.7250 -0.0823  0.3695
 3248TIP3   OH231378   3.696   1.118   7.960  0.1717  0.4617 -0.2862
 3248TIP3    H131379   3.785   1.154   7.961  1.0242 -1.5112  1.4120
 3248TIP3    H231380   3.648   1.173   8.022  0.6861  0.4374  0.1456
 3249TIP3   OH231381   2.248   3.317   0.315 -0.2190  1.0577 -0.2054
 3249TIP3    H131382   2.212   3.369   0.243  0.1790 -0.2705 -1.4241
 3249TIP3    H231383   2.342   3.313   0.297 -0.2098  0.1244 -0.0273
 3250TIP3   OH231384   1.474   2.745   0.375 -0.3965 -0.0625  0.5880
 3250TIP3    H131385   1.430   2.830   0.370 -1.0600 -0.4770 -1.5419
 3250TIP3    H231386   1.416   2.691   0.428 -2.0238 -0.2833 -1.2854
 3251TIP3   OH231387   3.249   1.624   8.628  0.1613 -0.0676 -0.3647
 3251TIP3    H131388   3.233   1.555   8.693  0.7423 -1.6654 -1.8413
 3251TIP3    H231389   3.187   1.693   8.651 -1.4971 -1.6925  0.3125
 3252TIP3   OH231390   5.284   5.408   8.511  0.2696 -0.2969  0.4943
 3252TIP3    H131391   5.301   5.314   8.503  0.7774 -0.0766 -1.3955
 3252TIP3    H231392   5.242   5.417   8.596 -1.0566 -2.4229  0.1372
 3253TIP3   OH231393   2.947   2.348   7.109 -0.2429 -0.4302 -0.4777
 3253TIP3    H131394   2.946   2.291   7.032  0.2727 -1.4533  0.2515
 3253TIP3    H231395   2.855   2.366   7.126 -0.4242 -1.2081 -0.6054
 3254TIP3   OH231396   5.454   5.762   0.412 -0.2101  0.0352  0.2549
 3254TIP3    H131397   5.533   5.793   0.457  0.6426  2.5554 -2.6598
 3254TIP3    H231398   5.393   5.835   0.417 -1.1371 -0.6710 -0.3285
 3255TIP3   OH231399   2.947   1.974   8.284  0.3210  0.3992  0.5870
 3255TIP3    H131400   2.873   1.914   8.282  0.7700 -0.2131  1.7857
 3255TIP3    H231401   2.907   2.061   8.273 -0.3946 -0.0371 -0.4356
 3256TIP3   OH231402   6.309   2.373   0.519  0.5989 -0.3651  0.9007
 3256TIP3    H131403   6.282   2.372   0.428  0.4723 -1.7985  0.9302
 3256TIP3    H231404   6.396   2.413   0.518 -0.4139  1.9738  0.5056
 3257TIP3   OH231405   0.333   5.551   8.337  0.1776  0.2080  0.0612
 3257TIP3    H131406   0.405   5.559   8.275  0.2981  0.3303  0.2178
 3257TIP3    H231407   0.290   5.637   8.334 -0.0846  0.0711 -0.1818
 3258TIP3   OH231408   3.813   5.088   8.496 -0.2792 -0.0670 -0.0750
 3258TIP3    H131409   3.754   5.013   8.486  0.0099 -0.5508  1.4609
 3258TIP3    H231410   3.839   5.085   8.588 -0.7303  2.2968  0.1895
 3259TIP3   OH231411   0.060   1.120   1.741  0.0801 -0.5056 -0.7003
 3259TIP3    H131412   0.094   1.093   1.826  2.3816 -0.1764 -1.4455
 3259TIP3    H231413   0.019   1.205   1.758 -1.1261 -1.2680  0.3745
 3260TIP3   OH231414   0.412   4.947   8.307  0.0181  0.2285 -0.4821
 3260TIP3    H131415   0.365   5.019   8.265  0.8441  0.4172 -1.1015
 3260TIP3    H231416   0.344   4.883   8.328 -0.3651 -0.1869 -2.7481
 3261TIP3   OH231417   4.275   3.564   1.096  0.6138 -0.4781 -0.4728
 3261TIP3    H131418   4.294   3.499   1.164 -0.6200 -0.3177  0.0379
 3261TIP3    H231419   4.314   3.645   1.128 -2.4038  0.3448  1.5394
 3262TIP3   OH231420   2.929   2.884   1.439  0.5757  0.5737  0.0795
 3262TIP3    H131421   2.954   2.958   1.495  1.6800  1.1430 -1.1251
 3262TIP3    H231422   2.869   2.922   1.375  2.1576  0.7453 -1.3471
 3263TIP3   OH231423   6.298   6.796   7.134 -0.1389  0.4237  0.0477
 3263TIP3    H131424   6.301   6.891   7.134  1.5146  0.4161 -0.9471
 3263TIP3    H231425   6.283   6.773   7.042 -1.8064 -0.2932  0.4547
 3264TIP3   OH231426   6.426   6.094   7.471  0.5958 -0.5835 -0.1797
 3264TIP3    H131427   6.381   6.056   7.396  0.6491  1.7233 -1.4801
 3264TIP3    H231428   6.517   6.101   7.443  0.6583  0.0775  0.1725
 3265TIP3   OH231429   4.861   4.618   1.799  0.2442 -0.1200  0.0912
 3265TIP3    H131430   4.889   4.535   1.760 -0.2744 -1.4670  2.4057
 3265TIP3    H231431   4.809   4.592   1.875  0.1023  2.3392  0.9005
 3266TIP3   OH231432   0.485   4.872   1.246  0.2980 -0.0490  0.2837
 3266TIP3    H131433   0.561   4.922   1.275 -0.8047  1.6466  0.3872
 3266TIP3    H231434   0.453   4.829   1.325 -0.3153  1.2899  0.7974
 3267TIP3   OH231435   2.517   4.755   1.607 -0.0648 -0.0146 -0.0350
 3267TIP3    H131436   2.423   4.736   1.616 -0.6196  1.7316 -1.5304
 3267TIP3    H231437   2.552   4.744   1.696 -1.9010  0.3135  0.7875
 3268TIP3   OH231438   2.818   4.573   0.632  1.2800 -0.1796  0.1572
 3268TIP3    H131439   2.726   4.550   0.630  0.9087  1.2408 -0.3301
 3268TIP3    H231440   2.849   4.545   0.718  0.2842 -0.2378  0.4994
 3269TIP3   OH231441   3.513   4.900   6.267  0.2272 -0.0303 -0.1966
 3269TIP3    H131442   3.577   4.969   6.286  0.1592 -0.1054  0.3185
 3269TIP3    H231443   3.563   4.819   6.276  0.0421 -0.0925  0.2841
 3270TIP3   OH231444   3.433   1.671   0.649  0.0428 -0.2112  0.4177
 3270TIP3    H131445   3.516   1.628   0.669  0.7314  1.1844  0.6494
 3270TIP3    H231446   3.457   1.749   0.599 -1.1007  0.3941  0.7686
 3271TIP3   OH231447   5.319   2.010   7.666 -0.3347 -0.2555  0.2116
 3271TIP3    H131448   5.288   2.065   7.594 -0.9389 -0.9428 -0.0688
 3271TIP3    H231449   5.245   1.953   7.686  0.1805 -0.7649  0.6951
 3272TIP3   OH231450   5.279   1.462   6.341 -0.6177  0.4516 -0.4816
 3272TIP3    H131451   5.222   1.536   6.362 -0.9792  0.5664 -1.7811
 3272TIP3    H231452   5.258   1.396   6.406 -0.1306  1.5577  0.8379
 3273TIP3   OH231453   0.354   5.754   0.322 -0.7575  0.2086  0.1893
 3273TIP3    H131454   0.326   5.700   0.396 -2.4761  0.2455 -0.4108
 3273TIP3    H231455   0.403   5.826   0.362 -0.5000 -0.4924  1.1756
 3274TIP3   OH231456   4.396   4.758   1.244  0.0356 -0.3270 -0.1131
 3274TIP3    H131457   4.335   4.742   1.315  1.9908 -0.4590  1.6390
 3274TIP3    H231458   4.375   4.691   1.179 -3.4434  1.3670 -0.9111
 3275TIP3   OH231459   0.174   0.568   0.335  0.5682 -0.0119  0.1934
 3275TIP3    H131460   0.142   0.492   0.288  0.2558  0.6429 -0.6813
 3275TIP3    H231461   0.207   0.627   0.267  0.4577  0.7965  0.8161
 3276TIP3   OH231462   2.862   5.617   7.299 -0.3453  0.4834 -0.0006
 3276TIP3    H131463   2.931   5.648   7.240  0.1156  0.4919  0.5392
 3276TIP3    H231464   2.801   5.691   7.305  0.1425  0.8683  0.3486
 3277TIP3   OH231465   1.965   5.562   0.507  0.1728  0.2428 -0.0409
 3277TIP3    H131466   2.004   5.604   0.583 -1.7550 -2.6041  2.7822
 3277TIP3    H231467   1.892   5.619   0.482  0.9139  1.2757  0.1081
 3278TIP3   OH231468   0.678   5.066   2.633 -0.1082 -0.5268 -0.2088
 3278TIP3    H131469   0.737   5.114   2.576  1.1048  0.4968  1.7927
 3278TIP3    H231470   0.702   4.974   2.621  0.6226 -0.2614 -0.7926
 3279TIP3   OH231471   2.264   0.631   1.710  0.4209 -0.2507 -0.5499
 3279TIP3    H131472   2.325   0.687   1.758  0.9377 -1.4482  0.2426
 3279TIP3    H231473   2.182   0.681   1.707  0.9609  0.6784 -0.1635
 3280TIP3   OH231474   0.850   3.818   1.043  0.2250 -0.0442  0.0453
 3280TIP3    H131475   0.787   3.889   1.055 -1.2023 -0.9745 -1.5247
 3280TIP3    H231476   0.816   3.747   1.099  1.0135  0.1049  0.7311
 3281TIP3   OH231477   1.219   4.038   0.362 -0.7530  0.0446 -0.3231
 3281TIP3    H131478   1.178   3.973   0.305  0.3440  0.4215 -1.5790
 3281TIP3    H231479   1.154   4.107   0.370 -1.4120 -0.5929 -0.0567
 3282TIP3   OH231480   6.809   1.899   0.516 -0.1089 -1.1141 -0.3443
 3282TIP3    H131481   6.859   1.838   0.462 -0.3731 -1.1635 -0.5328
 3282TIP3    H231482   6.866   1.915   0.592  1.0605  0.3499 -1.4664
 3283TIP3   OH231483   3.317   2.392   0.251  0.6109 -0.6320  0.0465
 3283TIP3    H131484   3.274   2.413   0.168 -1.1274 -3.4614  0.1102
 3283TIP3    H231485   3.290   2.462   0.310  1.0011  0.8510 -1.4380
 3284TIP3   OH231486   5.056   1.485   0.228  0.2427  0.2556  0.0784
 3284TIP3    H131487   4.998   1.540   0.281  1.2555 -0.7609  2.3874
 3284TIP3    H231488   5.124   1.544   0.197 -0.5559  0.9370 -0.4328
 3285TIP3   OH231489   5.437   5.211   0.553  0.2691 -0.3743  0.6455
 3285TIP3    H131490   5.499   5.209   0.626  0.1705 -0.7838  0.7196
 3285TIP3    H231491   5.425   5.304   0.535  1.8807 -0.2834 -0.2040
 3286TIP3   OH231492   3.894   0.292   7.294 -0.5023  0.1264 -0.4771
 3286TIP3    H131493   3.818   0.275   7.238 -0.4665  1.2215 -0.8841
 3286TIP3    H231494   3.901   0.388   7.297  0.1603  0.0677  0.5147
 3287TIP3   OH231495   1.989   0.709   1.650  0.5779 -0.4409  0.8425
 3287TIP3    H131496   1.920   0.706   1.716  0.5362  0.2808  0.8400
 3287TIP3    H231497   1.942   0.725   1.567  0.4475 -3.0334  0.3255
 3288TIP3   OH231498   4.006   4.339   0.682 -0.1906 -0.5967  0.9388
 3288TIP3    H131499   4.026   4.392   0.759 -0.3070 -0.6140  0.9813
 3288TIP3    H231500   3.998   4.250   0.715 -0.0306 -0.6361  0.8725
 3289TIP3   OH231501   2.068   6.715   7.861  0.6375 -0.7586 -0.0285
 3289TIP3    H131502   2.118   6.756   7.932 -0.0989 -0.0338  0.0857
 3289TIP3    H231503   2.073   6.621   7.880 -0.3565 -0.5396  1.5604
 3290TIP3   OH231504   5.665   4.261   0.067 -0.7947 -0.7574 -0.5284
 3290TIP3    H131505   5.717   4.237  -0.009  1.0351 -1.9978  0.9875
 3290TIP3    H231506   5.725   4.311   0.123 -1.7591 -0.7265  0.5331
 3291TIP3   OH231507   3.998   3.746   6.444 -0.1436 -0.0659  0.7889
 3291TIP3    H131508   3.915   3.784   6.471 -0.1049  0.0360  0.7651
 3291TIP3    H231509   3.995   3.656   6.476  0.3841  0.3849  2.1897
 3292TIP3   OH231510   4.559   1.589   8.681  0.0725  0.2502 -0.2590
 3292TIP3    H131511   4.633   1.645   8.656 -0.1545  0.3714 -0.6723
 3292TIP3    H231512   4.572   1.573   8.774 -0.2450  1.5643  0.0331
 3293TIP3   OH231513   2.665   2.869   7.234  0.0873 -0.1332  0.1377
 3293TIP3    H131514   2.654   2.851   7.141  1.5983 -2.4212  0.3141
 3293TIP3    H231515   2.578   2.894   7.264 -0.4491  0.5903 -1.8467
 3294TIP3   OH231516   2.294   6.829   7.499 -0.0845 -0.0913 -0.4012
 3294TIP3    H131517   2.338   6.846   7.583  2.0401 -1.9515 -1.0625
 3294TIP3    H231518   2.327   6.897   7.440 -2.3493  1.8576  0.4027
 3295TIP3   OH231519   4.812   3.635   1.713 -0.3938 -0.3899 -0.0090
 3295TIP3    H131520   4.802   3.675   1.627 -3.0911 -0.2147  0.3035
 3295TIP3    H231521   4.862   3.555   1.696 -1.1121 -0.5153 -1.8165
 3296TIP3   OH231522   4.725   6.417   7.222  0.2006 -0.3045 -0.1590
 3296TIP3    H131523   4.775   6.497   7.236  1.5780 -1.3127  0.8998
 3296TIP3    H231524   4.781   6.347   7.256 -1.4388 -1.6114 -0.0432
 3297TIP3   OH231525   6.408   2.389   1.213  0.5402  0.2159  0.4124
 3297TIP3    H131526   6.407   2.460   1.148  0.3213 -1.0378 -1.0044
 3297TIP3    H231527   6.346   2.418   1.280  0.1546  1.1970 -0.3398
 3298TIP3   OH231528   4.612   5.683   0.727  0.1959 -0.1598  0.0805
 3298TIP3    H131529   4.658   5.746   0.671 -0.7768  0.4628 -0.0480
 3298TIP3    H231530   4.585   5.733   0.804 -0.9272 -0.2959 -0.1967
 3299TIP3   OH231531   3.228   0.914   7.254 -0.2279 -0.3029 -0.5565
 3299TIP3    H131532   3.265   0.981   7.197  1.2694 -0.5198  0.1044
 3299TIP3    H231533   3.136   0.937   7.262  0.3108  1.9323 -0.0045
 3300TIP3   OH231534   1.258   0.146   1.426 -0.0384 -0.5493  0.8897
 3300TIP3    H131535   1.313   0.220   1.402 -0.2338  0.4638  3.2835
 3300TIP3    H231536   1.174   0.164   1.384  0.1812  0.1633  0.7404
 3301TIP3   OH231537   0.592   6.005   8.344 -0.1148 -0.0682  0.0740
 3301TIP3    H131538   0.519   6.013   8.282 -0.9322  1.3989  1.1493
 3301TIP3    H231539   0.551   5.983   8.427  0.7442 -0.0147  0.5241
 3302TIP3   OH231540   3.730   4.422   0.850  0.1033 -0.2732  0.1694
 3302TIP3    H131541   3.780   4.340   0.842 -1.3619 -1.2805  0.9508
 3302TIP3    H231542   3.665   4.416   0.780  1.2089  1.1833 -1.0497
 3303TIP3   OH231543   5.349   0.338   8.320  0.2424  0.0458 -0.2336
 3303TIP3    H131544   5.285   0.300   8.260 -1.0356  1.9963 -0.1793
 3303TIP3    H231545   5.338   0.288   8.401 -0.5205 -0.2924 -0.5337
 3304TIP3   OH231546   4.003   2.670   1.013 -0.3195  0.0819 -0.1938
 3304TIP3    H131547   3.959   2.747   0.977 -0.7559 -0.0550  0.0325
 3304TIP3    H231548   3.950   2.596   0.983 -1.3244  0.0323  1.6004
 3305TIP3   OH231549   5.357   1.692   6.923 -0.7253  0.0877  0.4834
 3305TIP3    H131550   5.346   1.622   6.859 -1.8089 -0.9197  1.7261
 3305TIP3    H231551   5.285   1.753   6.905 -0.2017  0.5410 -0.1351
 3306TIP3   OH231552   1.633   5.112   8.698  0.4288  0.3781  0.0980
 3306TIP3    H131553   1.715   5.067   8.717 -0.8856 -1.2340  2.4111
 3306TIP3    H231554   1.583   5.049   8.645 -0.9619 -0.5571  2.3779
 3307TIP3   OH231555   3.538   0.395   0.836  0.4105  0.6919 -0.2691
 3307TIP3    H131556   3.626   0.370   0.807  0.0125 -2.1836  0.7179
 3307TIP3    H231557   3.504   0.317   0.879 -1.9076  2.3576  1.1243
 3308TIP3   OH231558   6.384   3.436   8.634 -0.4821 -0.1141 -0.0779
 3308TIP3    H131559   6.473   3.430   8.598 -0.3256  0.6016  0.1602
 3308TIP3    H231560   6.394   3.490   8.713 -1.2839  0.8895 -0.6377
 3309TIP3   OH231561   5.286   1.579   0.554 -0.4351  0.4289  0.3639
 3309TIP3    H131562   5.304   1.554   0.644  0.9676  0.9909  0.2570
 3309TIP3    H231563   5.228   1.655   0.561  1.8732  2.2279  0.9028
 3310TIP3   OH231564   5.022   2.404   8.090 -0.1578 -0.0033  0.3023
 3310TIP3    H131565   4.952   2.465   8.068 -0.2966 -0.6683 -1.2194
 3310TIP3    H231566   5.081   2.408   8.015  2.1110  1.4124  2.0353
 3311TIP3   OH231567   3.665   1.583   7.042  0.1233  0.0338  0.1516
 3311TIP3    H131568   3.578   1.574   7.004  0.4710 -1.3037 -0.3875
 3311TIP3    H231569   3.725   1.564   6.969  0.8442  0.1380  0.7058
 3312TIP3   OH231570   0.666   6.595   2.196 -0.2049 -0.1213  0.3478
 3312TIP3    H131571   0.601   6.547   2.247  0.0177 -0.4174  0.3548
 3312TIP3    H231572   0.744   6.597   2.251 -0.3776  0.7115  0.5674
 3313TIP3   OH231573   6.477   3.205   2.299 -0.3019  0.2382 -0.2716
 3313TIP3    H131574   6.391   3.167   2.281  0.0507  0.4453 -2.6514
 3313TIP3    H231575   6.526   3.135   2.343 -1.1854 -0.3940 -0.2759
 3314TIP3   OH231576   1.328   0.332   1.947 -0.3826  0.5043  0.1429
 3314TIP3    H131577   1.361   0.271   2.014 -0.2916  0.4946  0.0892
 3314TIP3    H231578   1.234   0.340   1.966 -0.6871 -0.7474 -0.7017
 3315TIP3   OH231579   3.710   5.453   1.001 -0.3949 -0.7321  0.3387
 3315TIP3    H131580   3.622   5.416   1.006 -0.4289 -0.5729  1.0046
 3315TIP3    H231581   3.706   5.533   1.053  0.2846 -1.0098  0.8357
 3316TIP3   OH231582   6.549   3.508   6.810 -0.6787 -0.1699 -0.2200
 3316TIP3    H131583   6.526   3.578   6.748 -0.8607  1.5180  1.6659
 3316TIP3    H231584   6.465   3.467   6.830 -0.9117  0.5784  0.3840
 3317TIP3   OH231585   3.821   4.025   0.428  0.7205 -0.2104 -0.2349
 3317TIP3    H131586   3.880   3.976   0.371 -1.1714 -0.4163 -2.1510
 3317TIP3    H231587   3.866   4.108   0.444  1.8167 -0.6341 -1.0422
 3318TIP3   OH231588   3.449   5.022   1.063 -0.2102 -0.3418 -0.5399
 3318TIP3    H131589   3.403   5.067   0.993  0.4163  2.1360  0.5314
 3318TIP3    H231590   3.395   5.036   1.141  1.0084  0.3954  0.2198
 3319TIP3   OH231591   3.082   4.229   7.111  0.2415 -0.6624 -0.4519
 3319TIP3    H131592   2.990   4.221   7.139  1.1844 -1.5139  2.8643
 3319TIP3    H231593   3.098   4.149   7.061 -0.4966 -1.2191  0.1626
 3320TIP3   OH231594   5.016   2.538   6.305 -0.3304 -0.5817  0.0990
 3320TIP3    H131595   5.099   2.494   6.291 -1.0477 -1.2345 -2.7839
 3320TIP3    H231596   4.978   2.494   6.382  2.8264  1.3121  3.0469
 3321TIP3   OH231597   3.251   3.564   8.718  0.3264 -0.0636 -0.1499
 3321TIP3    H131598   3.313   3.586   8.788 -1.0848  1.0704  0.8054
 3321TIP3    H231599   3.280   3.479   8.686  2.6611  0.6509 -0.0857
 3322TIP3   OH231600   5.432   2.262   2.343 -0.1450 -0.0417 -0.3692
 3322TIP3    H131601   5.356   2.308   2.378 -0.3925 -1.4346  1.0699
 3322TIP3    H231602   5.506   2.301   2.390 -0.1329  0.2562 -0.6332
 3323TIP3   OH231603   6.630   0.909   1.306 -0.5236  0.0329 -0.5412
 3323TIP3    H131604   6.668   0.834   1.353  0.1977  1.8303  1.9453
 3323TIP3    H231605   6.543   0.920   1.343 -1.1862 -0.3935 -1.9159
 3324TIP3   OH231606   1.544   3.047   8.576 -0.4374  0.2675  0.3515
 3324TIP3    H131607   1.450   3.066   8.571 -0.4406  0.1046 -0.3758
 3324TIP3    H231608   1.583   3.125   8.616 -0.9789 -0.0078  1.4531
 3325TIP3   OH231609   2.799   0.384   0.196 -0.1539 -0.4952  0.0793
 3325TIP3    H131610   2.746   0.315   0.156 -0.9130  0.0614  0.1126
 3325TIP3    H231611   2.865   0.337   0.247 -1.1042 -1.2009  0.6931
 3326TIP3   OH231612   2.744   2.547   7.511  0.3492  0.4186 -0.2684
 3326TIP3    H131613   2.729   2.454   7.493  0.0634  0.2860  0.6018
 3326TIP3    H231614   2.839   2.558   7.507  0.4516 -0.1177  0.5508
 3327TIP3   OH231615   4.942   0.898   7.549 -0.4710  0.2356  0.9705
 3327TIP3    H131616   4.919   0.805   7.544  2.3666 -0.6311  1.8422
 3327TIP3    H231617   5.037   0.899   7.554 -0.3441  3.2832  0.1966
 3328TIP3   OH231618   0.452   3.692   0.255 -1.1247 -0.9843  0.2679
 3328TIP3    H131619   0.437   3.641   0.335 -3.4429 -3.1447 -1.3924
 3328TIP3    H231620   0.384   3.759   0.257  1.6335  2.0191  2.2127
 3329TIP3   OH231621   0.651   2.881   0.328  0.8626  0.2347 -0.4273
 3329TIP3    H131622   0.576   2.841   0.374 -0.8282  1.1496 -2.2308
 3329TIP3    H231623   0.683   2.948   0.389  0.5421 -0.4964  0.5810
 3330TIP3   OH231624   2.695   0.263   8.175 -0.5924 -0.9151 -0.0828
 3330TIP3    H131625   2.725   0.337   8.228  1.1694 -1.3200 -0.4778
 3330TIP3    H231626   2.624   0.300   8.122 -1.1419 -0.0483  1.1975
 3331TIP3   OH231627   3.818   6.198   2.153  0.1015 -0.2543 -0.7324
 3331TIP3    H131628   3.831   6.291   2.168 -0.4491 -0.1377 -0.9617
 3331TIP3    H231629   3.840   6.156   2.236 -0.3905  0.1480 -0.3966
 3332TIP3   OH231630   1.625   2.730   6.122  0.5634 -0.3129  0.2984
 3332TIP3    H131631   1.594   2.639   6.116 -0.3570 -0.0604  1.0369
 3332TIP3    H231632   1.561   2.781   6.073 -0.3457  0.2375  1.9783
 3333TIP3   OH231633   0.288   2.472   8.394 -0.1823 -0.7701  0.2278
 3333TIP3    H131634   0.274   2.412   8.468 -0.9996 -2.7075 -1.4066
 3333TIP3    H231635   0.228   2.440   8.326 -0.9085  2.1519 -0.6272
 3334TIP3   OH231636   0.848   1.728   0.930 -1.0565  0.6220 -0.0714
 3334TIP3    H131637   0.929   1.744   0.882 -1.1575 -0.2407 -0.5421
 3334TIP3    H231638   0.865   1.764   1.017 -0.6062  1.5312 -0.5202
 3335TIP3   OH231639   5.821   4.074   8.492  0.7872  0.1640  0.3138
 3335TIP3    H131640   5.794   4.000   8.546 -1.3875 -0.1135 -1.0425
 3335TIP3    H231641   5.740   4.120   8.471  1.8763  1.8468 -0.4562
 3336TIP3   OH231642   4.409   3.984   0.242  0.3720 -0.4340 -0.1332
 3336TIP3    H131643   4.369   4.056   0.193 -0.9810 -0.2158  1.2251
 3336TIP3    H231644   4.502   3.987   0.218  0.7164  2.8926  1.1956
 3337TIP3   OH231645   6.031   4.747   7.404  0.1835 -0.2617  0.2355
 3337TIP3    H131646   5.972   4.672   7.393  1.2341 -1.8642  3.9268
 3337TIP3    H231647   5.973   4.821   7.420 -0.8433 -0.3650 -2.4353
 3338TIP3   OH231648   1.620   3.218   0.842 -0.5894 -0.3305 -0.4127
 3338TIP3    H131649   1.644   3.305   0.809  1.1737 -0.7722 -0.3976
 3338TIP3    H231650   1.570   3.178   0.771  1.3523 -0.4658 -1.7871
 3339TIP3   OH231651   0.312   5.162   1.440 -0.4112  0.0109  0.1376
 3339TIP3    H131652   0.362   5.167   1.359 -0.3643  0.4661  0.1890
 3339TIP3    H231653   0.221   5.154   1.413 -0.2429 -2.1695  0.0277
 3340TIP3   OH231654   2.414   5.280   6.939 -0.8908 -0.1053 -0.1586
 3340TIP3    H131655   2.499   5.282   6.983 -1.3698  0.9210  0.7738
 3340TIP3    H231656   2.359   5.341   6.989 -2.1539 -0.6693 -0.7924
 3341TIP3   OH231657   3.194   0.471   1.977 -0.0065 -0.4942  0.2876
 3341TIP3    H131658   3.165   0.516   1.898 -1.3068  0.4497  1.2597
 3341TIP3    H231659   3.124   0.410   1.997 -0.0141 -0.2307  1.0877
 3342TIP3   OH231660   5.610   1.510   7.701 -0.1719 -0.1664 -0.0160
 3342TIP3    H131661   5.561   1.428   7.705 -0.1558 -0.2004 -0.5151
 3342TIP3    H231662   5.656   1.507   7.617  1.3824 -0.5278  0.8044
 3343TIP3   OH231663   2.071   5.013   7.856  0.3439 -0.0318  0.0445
 3343TIP3    H131664   2.006   5.076   7.887  0.6729 -0.4589  1.7419
 3343TIP3    H231665   2.044   4.929   7.895  0.5918 -0.7050 -1.1738
 3344TIP3   OH231666   4.089   5.748   0.021  0.5135  0.8136  0.3203
 3344TIP3    H131667   4.146   5.759   0.097  1.7162  3.7379 -0.8832
 3344TIP3    H231668   4.148   5.749  -0.054 -0.8199 -0.0450 -0.7899
 3345TIP3   OH231669   5.899   3.878   0.147  0.0540  0.1930 -0.1216
 3345TIP3    H131670   5.989   3.907   0.134  0.2726 -0.4001 -0.0035
 3345TIP3    H231671   5.900   3.787   0.118 -0.0160 -0.4299  1.6940
 3346TIP3   OH231672   0.319   3.306   0.074  0.1646 -0.3494 -0.3252
 3346TIP3    H131673   0.327   3.293  -0.020 -0.1052 -0.0285 -0.3948
 3346TIP3    H231674   0.225   3.318   0.088  0.3530  1.1414 -0.2203
 3347TIP3   OH231675   0.588   6.397   7.273  0.2598  0.3483 -0.0778
 3347TIP3    H131676   0.589   6.492   7.268 -2.0597  0.5107  1.2615
 3347TIP3    H231677   0.679   6.373   7.292  0.6441  2.3771  0.9108
 3348TIP3   OH231678   6.012   3.793   2.543 -0.1146  0.1889  0.1183
 3348TIP3    H131679   6.103   3.818   2.531 -0.2018  0.9721  0.9339
 3348TIP3    H231680   5.969   3.872   2.576 -0.8858 -0.4229  0.6363
 3349TIP3   OH231681   0.858   2.264   2.018  0.1190 -0.8053 -0.3738
 3349TIP3    H131682   0.904   2.187   1.987  1.5613  0.7677 -2.4417
 3349TIP3    H231683   0.927   2.323   2.049 -0.7519  0.3321 -0.4991
 3350TIP3   OH231684   3.748   2.933   8.563 -0.0069 -0.2839 -0.1724
 3350TIP3    H131685   3.767   2.909   8.654 -0.4630 -0.1904 -0.0506
 3350TIP3    H231686   3.828   2.974   8.532  0.5602 -1.3453 -0.1732
 3351TIP3   OH231687   1.774   4.191   0.600 -0.4175  0.1561 -0.2917
 3351TIP3    H131688   1.829   4.220   0.673 -1.4520  1.9301 -0.1346
 3351TIP3    H231689   1.779   4.096   0.602  0.7129  0.2087  1.2047
 3352TIP3   OH231690   3.510   3.889   7.313 -0.1410  0.7471  0.0438
 3352TIP3    H131691   3.591   3.931   7.287  1.3826 -2.1768 -0.3936
 3352TIP3    H231692   3.475   3.851   7.232 -1.7430  1.5923  0.3027
 3353TIP3   OH231693   5.691   3.530   0.341 -0.0229 -0.0605 -0.5306
 3353TIP3    H131694   5.662   3.613   0.381  1.9960 -0.2340  1.4755
 3353TIP3    H231695   5.631   3.464   0.376 -0.1889  0.2251 -0.2756
 3354TIP3   OH231696   4.332   0.846   7.783 -0.1796  0.4602  0.1717
 3354TIP3    H131697   4.241   0.872   7.771 -0.5346 -0.8486 -0.0701
 3354TIP3    H231698   4.381   0.929   7.783 -1.1911  1.0870 -1.2318
 3355TIP3   OH231699   4.174   3.432   7.436  0.1780 -0.4666 -0.5785
 3355TIP3    H131700   4.131   3.380   7.504  2.0640  0.4343  1.3830
 3355TIP3    H231701   4.219   3.367   7.382  0.1685 -1.0861  0.1405
 3356TIP3   OH231702   6.838   6.686   1.115  0.1035 -0.3376  0.7582
 3356TIP3    H131703   6.837   6.775   1.150 -0.2921  0.0209 -0.1360
 3356TIP3    H231704   6.931   6.664   1.109  0.2837  0.6675 -0.5789
 3357TIP3   OH231705   1.010   2.448   0.096  0.2496 -0.3084 -0.4244
 3357TIP3    H131706   0.975   2.476   0.011 -1.6484  1.3630  0.8166
 3357TIP3    H231707   0.963   2.367   0.116  0.7459 -0.7384 -0.9757
 3358TIP3   OH231708   2.704   0.531   7.295 -0.2176  0.8998  0.1393
 3358TIP3    H131709   2.643   0.474   7.342  0.2370 -0.0241 -0.3557
 3358TIP3    H231710   2.650   0.602   7.261 -1.3566 -0.7134 -1.6311
 3359TIP3   OH231711   0.919   5.846   1.382  0.3981  0.1281  0.2748
 3359TIP3    H131712   0.944   5.870   1.472  0.3212  0.5732  0.1782
 3359TIP3    H231713   0.849   5.906   1.360  3.1069  2.8902 -1.5767
 3360TIP3   OH231714   6.408   1.913   8.238 -0.2744 -0.0765  0.3636
 3360TIP3    H131715   6.392   2.002   8.267 -1.8444 -0.0275 -0.5520
 3360TIP3    H231716   6.497   1.915   8.203 -0.8487  1.5576 -1.1347
 3361TIP3   OH231717   4.877   2.090   2.384 -0.4235  0.3902  1.0874
 3361TIP3    H131718   4.845   2.007   2.348 -0.0241  0.5913  0.2396
 3361TIP3    H231719   4.822   2.106   2.461 -0.8859 -0.3695  0.9217
 3362TIP3   OH231720   4.013   5.706   7.873  0.2732 -0.4984 -0.6171
 3362TIP3    H131721   4.078   5.725   7.804 -1.1814 -1.6578 -2.4192
 3362TIP3    H231722   3.975   5.621   7.847 -0.9943 -0.5246  1.1381
 3363TIP3   OH231723   4.404   5.420   8.336 -0.0781  0.1154  0.4285
 3363TIP3    H131724   4.491   5.418   8.298  0.2282 -1.6893  1.1426
 3363TIP3    H231725   4.354   5.356   8.285 -0.4016 -0.3405  1.2972
 3364TIP3   OH231726   0.401   5.047   1.021 -0.6823 -0.6012  0.4152
 3364TIP3    H131727   0.453   5.108   0.968 -1.1222 -0.3513  0.2652
 3364TIP3    H231728   0.455   5.031   1.098 -1.2658  1.3210  1.2782
 3365TIP3   OH231729   1.376   5.503   1.433 -0.6623 -0.1296  0.4585
 3365TIP3    H131730   1.407   5.569   1.495 -0.0891  1.1683 -1.1550
 3365TIP3    H231731   1.282   5.518   1.425 -0.3884  1.1825 -0.6337
 3366TIP3   OH231732   5.005   1.886   8.105 -0.3112 -0.1103  0.1576
 3366TIP3    H131733   5.072   1.955   8.109 -2.6221  2.2368  0.9105
 3366TIP3    H231734   4.925   1.932   8.082 -1.9354 -2.6335  0.4225
 3367TIP3   OH231735   1.919   6.166   2.734  0.6917 -0.0436  0.3591
 3367TIP3    H131736   1.924   6.173   2.639 -1.1800  0.9182  0.2805
 3367TIP3    H231737   1.884   6.078   2.750  1.0853 -0.2358  0.1712
 3368TIP3   OH231738   2.752   6.032   7.731  0.4023 -0.5800 -0.3544
 3368TIP3    H131739   2.832   6.078   7.753 -0.8037  0.5911  2.0222
 3368TIP3    H231740   2.703   6.093   7.675  1.1685 -1.3456 -1.9107
 3369TIP3   OH231741   3.584   1.477   1.546  0.2458  0.1121  0.7725
 3369TIP3    H131742   3.536   1.433   1.475  1.6972 -1.2877  0.5880
 3369TIP3    H231743   3.673   1.442   1.540  1.2690  2.4407  1.2370
 3370TIP3   OH231744   3.583   4.759   7.827  0.1046 -0.5733  0.9190
 3370TIP3    H131745   3.662   4.716   7.860  0.1813 -0.2280  1.1954
 3370TIP3    H231746   3.527   4.687   7.796  1.2052 -0.7216 -0.8285
 3371TIP3   OH231747   6.143   3.485   2.575  0.0926 -0.3197 -0.1526
 3371TIP3    H131748   6.225   3.448   2.608 -0.1285  1.3296  2.5545
 3371TIP3    H231749   6.166   3.574   2.549 -0.6012 -0.2380 -0.4991
 3372TIP3   OH231750   3.136   4.883   1.080 -0.9770 -0.1930 -0.0214
 3372TIP3    H131751   3.114   4.976   1.077  0.7524  0.3966  2.2698
 3372TIP3    H231752   3.190   4.869   1.002 -0.5685  0.9370  0.0371
 3373TIP3   OH231753   0.206   3.766   8.242 -0.1271  0.0257  0.8727
 3373TIP3    H131754   0.157   3.754   8.161 -0.0626 -2.4385  1.1236
 3373TIP3    H231755   0.141   3.756   8.312  0.3992 -1.7499  1.1657
 3374TIP3   OH231756   1.749   1.462   8.782  0.5540  0.3621  0.5608
 3374TIP3    H131757   1.835   1.444   8.744  1.0022  3.7246 -0.3458
 3374TIP3    H231758   1.766   1.525   8.852 -1.1012  0.4555  0.9313
 3375TIP3   OH231759   0.572   4.255   8.386  0.0852 -0.5974 -0.3466
 3375TIP3    H131760   0.509   4.183   8.380  0.4629 -0.8820 -1.1337
 3375TIP3    H231761   0.578   4.288   8.296  0.7640 -0.3220 -0.2056
 3376TIP3   OH231762   5.340   6.458   7.772 -0.2072 -0.2402 -0.3789
 3376TIP3    H131763   5.273   6.525   7.783  0.6188  0.5182  0.0880
 3376TIP3    H231764   5.358   6.457   7.677 -2.8330 -2.4057 -0.9721
 3377TIP3   OH231765   4.430   6.356   0.546 -0.0662  0.3535  0.7208
 3377TIP3    H131766   4.497   6.404   0.498 -0.9495  1.5989  0.6968
 3377TIP3    H231767   4.472   6.334   0.629  1.0023 -0.6026 -0.0253
 3378TIP3   OH231768   3.173   6.129   7.210 -0.2490 -0.3638  0.2505
 3378TIP3    H131769   3.232   6.103   7.139  1.9218  0.0605  1.7727
 3378TIP3    H231770   3.093   6.159   7.166 -0.3607 -3.3069 -1.8300
 3379TIP3   OH231771   2.341   0.435   2.656 -0.2257  0.2115 -0.5119
 3379TIP3    H131772   2.372   0.363   2.603 -0.6353  0.2681 -0.8353
 3379TIP3    H231773   2.245   0.426   2.656 -0.2583  0.5091 -0.2117
 3380TIP3   OH231774   5.116   4.678   0.659  0.2217 -0.3878 -0.7885
 3380TIP3    H131775   5.100   4.583   0.663 -2.6017  0.0293 -0.1616
 3380TIP3    H231776   5.134   4.702   0.749 -0.8216 -0.1176 -0.6342
 3381TIP3   OH231777   4.942   5.046   6.553 -0.3844  0.4832  0.5351
 3381TIP3    H131778   5.014   4.983   6.551  1.8743  2.8910  0.1838
 3381TIP3    H231779   4.960   5.105   6.480 -1.9097  2.0174  1.3216
 3382TIP3   OH231780   3.771   3.527   6.679 -0.3091  0.2004  0.1417
 3382TIP3    H131781   3.863   3.514   6.653 -0.4595 -0.1319 -0.2323
 3382TIP3    H231782   3.726   3.550   6.598 -0.5725  0.2872  0.3129
 3383TIP3   OH231783   2.045   4.503   1.392  0.1737  0.1749  0.3776
 3383TIP3    H131784   1.998   4.575   1.350  1.5443  0.1579 -1.3276
 3383TIP3    H231785   1.978   4.437   1.410 -0.4058 -0.2606 -2.8138
 3384TIP3   OH231786   1.346   4.652   2.501  0.4123  0.0129 -0.0564
 3384TIP3    H131787   1.429   4.656   2.549 -0.0696  0.6912  0.7333
 3384TIP3    H231788   1.285   4.702   2.554 -0.2166  0.5286 -1.2263
 3385TIP3   OH231789   4.917   1.611   1.974 -0.3091 -0.5418 -0.1913
 3385TIP3    H131790   4.884   1.648   2.055 -1.8713  0.2369 -1.1315
 3385TIP3    H231791   4.839   1.581   1.927  0.6073 -1.5866 -1.1231
 3386TIP3   OH231792   4.065   6.448   7.850  0.2043  0.3091  0.1384
 3386TIP3    H131793   4.071   6.474   7.758  0.2891  0.0806  0.0802
 3386TIP3    H231794   4.146   6.401   7.867  0.4638  0.8687  0.4954
 3387TIP3   OH231795   3.186   5.987   7.581  0.5240  0.3728  0.0595
 3387TIP3    H131796   3.267   5.944   7.608  0.1546 -0.9290 -0.8008
 3387TIP3    H231797   3.214   6.067   7.537  1.3358  0.0005 -0.1139
 3388TIP3   OH231798   4.822   3.924   8.086 -0.2083  0.2754 -0.0147
 3388TIP3    H131799   4.849   3.935   7.995 -0.2057 -0.0048 -0.0488
 3388TIP3    H231800   4.892   3.871   8.125  0.4217  1.4167  0.4600
 3389TIP3   OH231801   2.386   1.741   2.195 -0.1630  0.1044  0.1211
 3389TIP3    H131802   2.323   1.691   2.144  0.3735 -1.0586  0.5788
 3389TIP3    H231803   2.390   1.696   2.280 -0.3541  1.4564  0.8856
 3390TIP3   OH231804   4.555   1.653   7.652 -0.1382  0.0992 -0.3323
 3390TIP3    H131805   4.512   1.641   7.568 -0.3967  0.2073 -0.2160
 3390TIP3    H231806   4.608   1.732   7.641  0.1866 -0.1415 -0.5357
 3391TIP3   OH231807   6.105   3.813   1.683  0.2597 -0.9873  0.2727
 3391TIP3    H131808   6.114   3.892   1.629  0.5826 -0.6500  0.8053
 3391TIP3    H231809   6.095   3.846   1.772 -0.3892 -1.5354  0.4111
 3392TIP3   OH231810   6.604   0.395   7.782  0.1722  0.1240  0.0537
 3392TIP3    H131811   6.610   0.324   7.846 -1.3983  0.6392  0.8379
 3392TIP3    H231812   6.675   0.455   7.805  0.2473 -0.1927  0.6735
 3393TIP3   OH231813   5.401   3.844   0.500  0.2977 -0.5830 -0.3494
 3393TIP3    H131814   5.323   3.843   0.556  0.2982 -1.7105 -0.3439
 3393TIP3    H231815   5.367   3.835   0.411  0.4297 -1.5323 -0.3146
 3394TIP3   OH231816   0.193   2.577   7.769  0.0771 -0.0459  0.9353
 3394TIP3    H131817   0.219   2.525   7.693 -0.1063  1.1564  0.0173
 3394TIP3    H231818   0.177   2.665   7.733 -0.6709  0.3765  2.2520
 3395TIP3   OH231819   3.681   5.757   7.222  0.0138 -0.4470  0.3021
 3395TIP3    H131820   3.744   5.780   7.154 -1.3873 -0.6082 -1.0792
 3395TIP3    H231821   3.732   5.703   7.284  0.7830 -2.2767 -1.8072
 3396TIP3   OH231822   5.608   4.769   7.758  0.1709  0.2649  0.4711
 3396TIP3    H131823   5.555   4.791   7.682 -1.6371 -0.2120  1.5206
 3396TIP3    H231824   5.668   4.701   7.726  0.1566  0.8039 -0.7554
 3397TIP3   OH231825   1.351   3.575   8.355  0.0292 -0.4668 -0.3059
 3397TIP3    H131826   1.320   3.498   8.402 -0.0803 -0.0931  0.2493
 3397TIP3    H231827   1.444   3.582   8.379 -0.0936 -0.1159  0.0972
 3398TIP3   OH231828   3.560   6.152   8.403 -0.9328 -0.2393 -0.1307
 3398TIP3    H131829   3.484   6.111   8.361 -1.4990 -0.7871  1.3695
 3398TIP3    H231830   3.566   6.110   8.489 -0.3812  1.4750  0.7192
 3399TIP3   OH231831   3.504   4.064   8.432  0.1388  0.5791  0.6853
 3399TIP3    H131832   3.487   4.036   8.341 -0.3224  0.7446  0.7176
 3399TIP3    H231833   3.553   4.146   8.423  0.1658  0.5527  0.5844
 3400TIP3   OH231834   0.483   5.416   8.596  0.2113 -0.5505 -0.3711
 3400TIP3    H131835   0.558   5.365   8.627  0.1097 -0.9625 -0.7946
 3400TIP3    H231836   0.519   5.503   8.578  0.6454 -0.8189 -0.8175
 3401TIP3   OH231837   5.760   4.274   0.475 -0.4189 -0.1913 -0.8076
 3401TIP3    H131838   5.774   4.184   0.503 -3.1337  0.1697  2.3341
 3401TIP3    H231839   5.742   4.322   0.556  0.7963  3.2078 -2.3428
 3402TIP3   OH231840   2.031   0.667   0.194  0.3349  0.0731  0.1056
 3402TIP3    H131841   2.023   0.572   0.186  1.5864 -0.2190  1.8643
 3402TIP3    H231842   2.100   0.691   0.133  0.8203 -0.3193  0.4958
 3403TIP3   OH231843   1.288   0.861   7.151 -0.7942 -0.2906 -0.2386
 3403TIP3    H131844   1.333   0.781   7.126 -1.5399 -1.2433  1.3007
 3403TIP3    H231845   1.238   0.886   7.074  1.5602  0.2762 -1.6697
 3404TIP3   OH231846   5.175   3.653   1.633 -0.1780  0.2612  0.3000
 3404TIP3    H131847   5.116   3.620   1.700 -0.1369  1.9811  1.2203
 3404TIP3    H231848   5.261   3.621   1.659 -0.4461 -0.9008 -0.1658
 3405TIP3   OH231849   4.783   3.885   8.352 -0.2860 -0.0257 -0.1025
 3405TIP3    H131850   4.755   3.913   8.264 -0.3212  0.7520  0.1562
 3405TIP3    H231851   4.734   3.804   8.367  0.3758 -0.6414 -1.1553
 3406TIP3   OH231852   1.426   5.173   1.279  0.3667  0.0378 -0.4126
 3406TIP3    H131853   1.363   5.231   1.322 -0.3798 -0.7690 -0.4092
 3406TIP3    H231854   1.509   5.222   1.283 -0.3701  1.3793 -0.9816
 3407TIP3   OH231855   5.970   0.624   7.482  0.1996 -0.6108  0.7235
 3407TIP3    H131856   5.941   0.563   7.415 -1.1022 -0.8307  1.4478
 3407TIP3    H231857   6.047   0.667   7.444 -0.3657 -0.8811 -0.8013
 3408TIP3   OH231858   3.081   4.462   0.949  0.1294  1.0392 -0.0871
 3408TIP3    H131859   3.123   4.377   0.935  0.0673  0.3781  2.9909
 3408TIP3    H231860   3.137   4.525   0.903 -0.1787 -0.6325 -3.0139
 3409TIP3   OH231861   3.403   5.986   7.274  0.1480  0.5428  0.2104
 3409TIP3    H131862   3.392   5.917   7.209  1.7061  1.1595 -0.7518
 3409TIP3    H231863   3.317   5.994   7.316  0.0415 -2.3047  0.7105
 3410TIP3   OH231864   2.103   2.834   7.584  0.0826  0.5395  0.6554
 3410TIP3    H131865   2.169   2.768   7.606  0.9433  0.3867 -2.0951
 3410TIP3    H231866   2.057   2.799   7.508 -1.8196  1.6045  1.2253
 3411TIP3   OH231867   3.372   0.555   8.593 -0.1998 -0.2401  0.3667
 3411TIP3    H131868   3.319   0.626   8.558  0.4454  0.6773  1.1828
 3411TIP3    H231869   3.422   0.596   8.664  1.3529 -1.1331 -0.1653
 3412TIP3   OH231870   1.698   4.721   7.387 -0.4829 -0.0282  0.0399
 3412TIP3    H131871   1.654   4.712   7.472  0.4040  0.6964  0.6043
 3412TIP3    H231872   1.747   4.640   7.377 -0.6072 -0.1254  0.2136
 3413TIP3   OH231873   0.505   1.267   1.278 -0.9113 -0.6957  0.1490
 3413TIP3    H131874   0.450   1.210   1.225  0.3147 -0.4644 -1.4608
 3413TIP3    H231875   0.448   1.340   1.303 -1.2402 -0.1386 -1.9981
 3414TIP3   OH231876   2.984   4.873   0.737 -0.0796 -0.2524 -0.4447
 3414TIP3    H131877   2.912   4.834   0.688  0.7753 -2.0535 -0.3355
 3414TIP3    H231878   2.944   4.948   0.781 -1.9897 -1.3696 -0.1174
 3415TIP3   OH231879   6.423   0.162   7.089  0.1695  0.3410  0.4833
 3415TIP3    H131880   6.513   0.130   7.093 -0.2263 -1.2783 -1.6556
 3415TIP3    H231881   6.418   0.211   7.006 -1.0223  0.0169  0.3372
 3416TIP3   OH231882   0.618   3.243   7.334 -0.1523  0.5999 -0.4888
 3416TIP3    H131883   0.600   3.332   7.304 -0.3267  0.4894 -0.7099
 3416TIP3    H231884   0.713   3.234   7.325 -0.1630  0.6821 -0.6884
 3417TIP3   OH231885   3.365   3.196   2.282 -0.3457 -0.3348  0.1306
 3417TIP3    H131886   3.306   3.167   2.351  1.6909  0.1396  2.1796
 3417TIP3    H231887   3.411   3.117   2.255 -0.3640 -0.3266  0.0744
 3418TIP3   OH231888   6.405   2.725   1.448  0.4365  0.5888  0.0619
 3418TIP3    H131889   6.368   2.671   1.518  2.4225 -0.8751  0.0819
 3418TIP3    H231890   6.399   2.814   1.481  0.3903  0.0325  1.6579
 3419TIP3   OH231891   2.520   4.648   1.194 -0.3445  0.2291 -0.1992
 3419TIP3    H131892   2.511   4.698   1.112 -0.3623 -0.7730 -0.8222
 3419TIP3    H231893   2.442   4.671   1.244 -1.2152 -0.4435 -1.1960
 3420TIP3   OH231894   1.426   2.166   0.374 -0.2003 -0.1783 -0.8068
 3420TIP3    H131895   1.462   2.123   0.296  1.5986 -0.8988  0.3673
 3420TIP3    H231896   1.456   2.256   0.368 -0.9556  0.0467 -1.4476
 3421TIP3   OH231897   2.906   0.454   1.903 -0.3837  0.2613  1.0590
 3421TIP3    H131898   2.815   0.464   1.875  0.1509  0.8928 -0.5408
 3421TIP3    H231899   2.908   0.494   1.990 -1.7001 -0.1011  1.2927
 3422TIP3   OH231900   3.799   6.219   8.279  0.1948 -0.0733 -0.3236
 3422TIP3    H131901   3.725   6.169   8.315 -1.4270  1.1272 -1.8242
 3422TIP3    H231902   3.759   6.298   8.243  1.6115 -1.0496 -4.6317
 3423TIP3   OH231903   3.967   4.546   0.230 -0.3119 -0.4103 -0.2882
 3423TIP3    H131904   3.922   4.628   0.251 -0.4534  0.1890 -2.6158
 3423TIP3    H231905   4.058   4.561   0.255 -0.5545 -0.0177  0.4027
 3424TIP3   OH231906   1.500   0.276   8.164 -0.0037 -0.0635 -0.5348
 3424TIP3    H131907   1.539   0.326   8.237  0.8447 -1.9894  0.4106
 3424TIP3    H231908   1.480   0.191   8.202 -0.2153 -0.8895 -2.4017
 3425TIP3   OH231909   0.153   0.684   1.465 -0.5466  0.3316 -0.1915
 3425TIP3    H131910   0.159   0.767   1.511 -1.0139  1.1043 -1.4670
 3425TIP3    H231911   0.117   0.623   1.529 -1.0634  1.3341  0.4912
 3426TIP3   OH231912   6.543   5.837   2.579  0.0864 -0.5543  0.0779
 3426TIP3    H131913   6.637   5.851   2.587 -0.0836 -0.2220  2.2658
 3426TIP3    H231914   6.510   5.846   2.669 -2.0222 -0.7380 -0.6179
 3427TIP3   OH231915   2.606   3.485   7.035 -0.1562  0.1005  1.0212
 3427TIP3    H131916   2.629   3.484   6.942  0.0596 -1.4242  1.0717
 3427TIP3    H231917   2.599   3.393   7.059  0.9359  0.4309  2.7978
 3428TIP3   OH231918   0.792   6.290   8.616  0.1182 -0.5048  0.6015
 3428TIP3    H131919   0.731   6.295   8.543  0.4195 -0.4333  0.3538
 3428TIP3    H231920   0.877   6.269   8.576  0.5253  0.6822  0.8030
 3429TIP3   OH231921   1.131   2.441   8.332 -0.2661  0.5046  0.0063
 3429TIP3    H131922   1.062   2.380   8.307 -1.0095  1.5904 -0.6705
 3429TIP3    H231923   1.212   2.396   8.307 -0.8433  0.2288 -1.5003
 3430TIP3   OH231924   5.973   4.256   1.026  0.2948  0.3179 -0.6722
 3430TIP3    H131925   5.903   4.318   1.046  0.4879  0.1811  0.5325
 3430TIP3    H231926   5.987   4.265   0.932 -0.4750  1.2532 -0.7165
 3431TIP3   OH231927   4.470   0.250   2.404 -0.5261 -0.4177  0.2548
 3431TIP3    H131928   4.392   0.301   2.382 -0.7819 -0.4428  1.0655
 3431TIP3    H231929   4.439   0.159   2.406 -1.1609 -0.2168  3.2828
 3432TIP3   OH231930   4.570   5.166   1.889  0.2240  0.2646  0.0099
 3432TIP3    H131931   4.543   5.255   1.910 -1.3233  0.3022 -1.8219
 3432TIP3    H231932   4.666   5.167   1.896  0.2660  2.1699 -0.3119
 3433TIP3   OH231933   1.711   2.015   8.385  0.1594  0.7806  0.2772
 3433TIP3    H131934   1.642   2.053   8.331 -0.3677  0.3766  0.6507
 3433TIP3    H231935   1.706   1.921   8.367  2.5470  0.9706 -1.9267
 3434TIP3   OH231936   3.695   0.231   1.450  0.5249 -0.0446 -0.5704
 3434TIP3    H131937   3.680   0.139   1.473  1.3560  0.2065  1.1728
 3434TIP3    H231938   3.646   0.280   1.516 -0.8023  0.8123 -2.1310
 3435TIP3   OH231939   4.405   2.856   8.353 -0.5352  0.2098  0.2133
 3435TIP3    H131940   4.347   2.922   8.314 -1.3262 -1.3729 -1.4134
 3435TIP3    H231941   4.491   2.898   8.353 -0.8296  0.9331 -1.6921
 3436TIP3   OH231942   5.040   4.890   0.487  0.2303 -0.0986 -0.4150
 3436TIP3    H131943   5.048   4.816   0.548  0.1417 -1.4706 -1.9687
 3436TIP3    H231944   5.112   4.948   0.510  1.0873 -1.3083  0.0739
 3437TIP3   OH231945   0.550   0.252   1.917 -0.6247 -0.0587 -0.4051
 3437TIP3    H131946   0.563   0.332   1.866 -1.0949  0.0692 -0.3302
 3437TIP3    H231947   0.625   0.249   1.977 -0.0748 -0.2078 -1.0980
 3438TIP3   OH231948   1.496   6.185   8.782  0.0365 -0.1170 -0.0301
 3438TIP3    H131949   1.542   6.123   8.838  0.4834  0.8773  0.7250
 3438TIP3    H231950   1.436   6.232   8.841 -1.4127 -0.8438 -0.8501
 3439TIP3   OH231951   1.692   1.818   1.315 -0.2850 -0.1638  0.0712
 3439TIP3    H131952   1.694   1.873   1.238 -2.3036 -1.2277 -0.8306
 3439TIP3    H231953   1.664   1.877   1.386 -1.1275  0.2642 -0.5969
 3440TIP3   OH231954   5.628   3.235   0.672 -0.0442  0.1560  0.5598
 3440TIP3    H131955   5.601   3.326   0.664 -0.9179 -0.1011  0.5317
 3440TIP3    H231956   5.559   3.193   0.722 -0.9257 -1.0233 -1.4860
 3441TIP3   OH231957   1.935   5.311   0.904  0.3339 -0.6097  0.2953
 3441TIP3    H131958   1.948   5.239   0.843 -0.2464  0.7465 -1.5274
 3441TIP3    H231959   1.841   5.310   0.923  0.4790 -0.8999  1.0349
 3442TIP3   OH231960   3.694   1.271   6.775 -0.3246 -0.0570  0.5950
 3442TIP3    H131961   3.752   1.205   6.812  1.1664  1.8438  1.8380
 3442TIP3    H231962   3.743   1.353   6.781 -0.8340  0.8075 -3.6573
 3443TIP3   OH231963   2.359   1.765   6.795  0.0991  0.4788  0.6828
 3443TIP3    H131964   2.391   1.744   6.708  0.1512  0.6102  0.6711
 3443TIP3    H231965   2.310   1.687   6.822  0.2836  0.3467  0.6314
 3444TIP3   OH231966   2.920   5.375   1.800 -0.0385  0.5491 -0.0813
 3444TIP3    H131967   2.971   5.340   1.874 -0.9714 -1.2510 -0.2318
 3444TIP3    H231968   2.950   5.465   1.791  2.3587 -0.1122  0.5107
 3445TIP3   OH231969   2.566   1.586   2.434 -0.0046  0.1354  0.2594
 3445TIP3    H131970   2.483   1.631   2.422 -0.8911 -1.5967 -0.4775
 3445TIP3    H231971   2.578   1.582   2.529 -2.3752 -2.2416  0.5905
 3446TIP3   OH231972   1.353   0.483   1.454 -0.1516 -0.3741 -0.1478
 3446TIP3    H131973   1.304   0.532   1.520  1.8644  0.1328  1.0862
 3446TIP3    H231974   1.328   0.523   1.371  0.2942  1.8292  0.6924
 3447TIP3   OH231975   5.055   4.871   1.619 -0.4331 -0.0167  0.3165
 3447TIP3    H131976   5.055   4.904   1.529 -2.1382  0.7295  0.5388
 3447TIP3    H231977   5.089   4.943   1.671  1.2485 -0.7097  0.2190
 3448TIP3   OH231978   0.746   6.225   2.570 -0.4985  0.1821 -0.5277
 3448TIP3    H131979   0.789   6.241   2.486 -0.7802 -0.7692 -0.8598
 3448TIP3    H231980   0.814   6.243   2.635  0.6163 -1.8653 -1.0566
 3449TIP3   OH231981   4.429   6.204   1.369 -0.4194 -0.0812 -0.5587
 3449TIP3    H131982   4.470   6.215   1.455 -0.2107  0.2624 -0.6987
 3449TIP3    H231983   4.492   6.242   1.307 -0.6457 -0.1668 -0.8448
 3450TIP3   OH231984   5.542   0.149   0.282 -0.9900  0.3568  0.4401
 3450TIP3    H131985   5.451   0.148   0.311 -1.8511  0.1613 -2.0939
 3450TIP3    H231986   5.564   0.242   0.276 -0.7048  0.4083  1.8186
 3451TIP3   OH231987   4.441   1.128   0.909  0.4802  0.0687  0.0766
 3451TIP3    H131988   4.361   1.176   0.888 -0.3402 -1.0881  0.4727
 3451TIP3    H231989   4.512   1.187   0.881 -0.4997  0.8038 -0.9710
 3452TIP3   OH231990   0.177   5.961   0.258  0.1690  0.9096  0.0272
 3452TIP3    H131991   0.249   6.023   0.262  0.4331  0.7139 -1.1676
 3452TIP3    H231992   0.211   5.881   0.299  0.4577  0.9769 -0.0787
 3453TIP3   OH231993   4.222   6.727   8.549  0.1992  0.1524  0.1541
 3453TIP3    H131994   4.257   6.762   8.468  1.1179 -0.1655  0.4038
 3453TIP3    H231995   4.209   6.634   8.532 -1.8505  0.4814 -0.3766
 3454TIP3   OH231996   2.972   3.037   7.716 -0.5965  0.0163  0.1671
 3454TIP3    H131997   3.052   3.081   7.743 -0.0597 -0.0025 -1.3013
 3454TIP3    H231998   2.987   3.014   7.625 -1.8952 -0.8790  0.1508
 3455TIP3   OH231999   1.629   3.064   0.605 -0.1665 -0.2951 -0.1866
 3455TIP3    H132000   1.709   3.104   0.639 -0.9656  1.5464 -0.3861
 3455TIP3    H232001   1.637   3.070   0.510  0.1615 -1.6066 -0.2648
 3456TIP3   OH232002   4.862   6.280   0.452 -0.5695  0.4872  0.5292
 3456TIP3    H132003   4.869   6.235   0.536 -3.3898 -0.1696  0.5115
 3456TIP3    H232004   4.870   6.373   0.474  0.2866  0.2446  1.2841
 3457TIP3   OH232005   5.327   1.250   0.388  0.2480  0.1162 -0.5485
 3457TIP3    H132006   5.365   1.332   0.356 -1.1081  1.3938  0.9379
 3457TIP3    H232007   5.373   1.233   0.471  0.1179 -0.3093 -0.5624
 3458TIP3   OH232008   3.230   4.835   0.806  0.3785 -0.2926  0.3563
 3458TIP3    H132009   3.275   4.826   0.722 -1.1188 -2.3278 -0.3204
 3458TIP3    H232010   3.137   4.844   0.783  0.0533  0.2921  1.7722
 3459TIP3   OH232011   0.666   0.636   1.313  0.2739  0.2230 -0.0491
 3459TIP3    H132012   0.683   0.722   1.350  1.0039  0.1271 -0.1456
 3459TIP3    H232013   0.710   0.638   1.227  0.5801 -0.3552  0.0900
 3460TIP3   OH232014   6.121   6.622   8.020  0.0657  0.2327 -0.2162
 3460TIP3    H132015   6.167   6.621   8.104 -2.1776 -0.5298  1.0800
 3460TIP3    H232016   6.124   6.714   7.993 -0.8027  0.8880  1.6926
 3461TIP3   OH232017   0.944   2.947   8.073  0.3061  0.3742 -0.0244
 3461TIP3    H132018   0.999   2.969   7.998  0.4315  0.3674  0.0661
 3461TIP3    H232019   0.934   2.852   8.069 -1.6235  0.5722 -1.3997
 3462TIP3   OH232020   6.134   0.202   7.007 -0.2152  0.0530 -0.0735
 3462TIP3    H132021   6.224   0.235   7.011  0.4933 -1.4385 -1.8911
 3462TIP3    H232022   6.091   0.257   6.941  0.3575 -1.2109 -1.5667
 3463TIP3   OH232023   0.416   3.192   1.394 -0.8203 -0.0339 -0.3162
 3463TIP3    H132024   0.456   3.244   1.324  0.9612 -0.4788  0.3327
 3463TIP3    H232025   0.486   3.178   1.457 -1.5052 -2.3857  0.0195
 3464TIP3   OH232026   2.894   3.682   1.601 -0.5117 -0.2141  0.0682
 3464TIP3    H132027   2.846   3.706   1.680  1.9472 -1.1807  1.9779
 3464TIP3    H232028   2.954   3.755   1.586  0.2973 -0.8444  0.1955
 3465TIP3   OH232029   3.775   5.219   7.202 -0.5971 -0.6468  0.3571
 3465TIP3    H132030   3.813   5.254   7.122 -2.9762 -0.9516 -1.0054
 3465TIP3    H232031   3.849   5.186   7.252  1.4037  3.1298  0.1667
 3466TIP3   OH232032   2.032   3.386   1.807 -0.4770  0.1506  0.2416
 3466TIP3    H132033   2.009   3.303   1.849 -1.7986  0.0215 -0.6781
 3466TIP3    H232034   2.027   3.451   1.877 -0.3875 -0.3967  0.7600
 3467TIP3   OH232035   2.765   3.707   0.561  0.0910 -0.1353 -0.1813
 3467TIP3    H132036   2.769   3.660   0.478 -0.7762  1.6100 -1.2679
 3467TIP3    H232037   2.839   3.768   0.558 -0.2417  0.2908  0.0991
 3468TIP3   OH232038   4.240   0.401   7.797  0.0306  0.4815 -0.2570
 3468TIP3    H132039   4.292   0.477   7.772 -1.2045  0.9500 -1.5748
 3468TIP3    H232040   4.158   0.438   7.829 -0.2593 -0.2715 -0.1123
 3469TIP3   OH232041   0.925   4.909   7.258 -0.0908  0.2601 -0.3503
 3469TIP3    H132042   0.906   4.864   7.176 -1.0791  0.8139 -0.4451
 3469TIP3    H232043   0.925   5.002   7.234 -1.6978  0.5069  0.4994
 3470TIP3   OH232044   5.571   4.831   8.712 -0.2448 -0.3022  0.2604
 3470TIP3    H132045   5.555   4.799   8.623  0.3329 -2.2786  0.8035
 3470TIP3    H232046   5.665   4.848   8.715 -0.4923  1.2717  0.0784
 3471TIP3   OH232047   2.006   5.793   8.246  0.4777 -0.0940 -0.0256
 3471TIP3    H132048   1.991   5.824   8.335 -0.0154  0.6273 -0.3474
 3471TIP3    H232049   2.030   5.701   8.256 -0.7243 -0.3496  0.7822
 3472TIP3   OH232050   3.050   4.104   6.810  0.6735 -0.3013  0.0728
 3472TIP3    H132051   2.958   4.129   6.820  1.2123  1.0667  2.4034
 3472TIP3    H232052   3.063   4.100   6.716 -1.8670 -0.9881 -0.3397
 3473TIP3   OH232053   1.733   3.749   8.712 -0.1506  0.0269 -0.3253
 3473TIP3    H132054   1.647   3.721   8.745 -0.5288 -0.3555 -1.5844
 3473TIP3    H232055   1.778   3.783   8.790 -0.2042 -2.7514  1.0473
 3474TIP3   OH232056   4.821   2.972   7.245  0.2668  0.6563 -0.1118
 3474TIP3    H132057   4.854   3.049   7.291 -1.3075  1.5521 -0.4119
 3474TIP3    H232058   4.888   2.906   7.258  2.2832  2.4219 -0.8762
 3475TIP3   OH232059   6.017   2.546   7.956 -0.7337 -0.0811 -0.2609
 3475TIP3    H132060   6.025   2.597   7.875 -0.0215 -0.3841 -0.3862
 3475TIP3    H232061   6.084   2.478   7.948 -2.6946 -2.0534 -0.8401
 3476TIP3   OH232062   3.644   6.383   8.143 -0.6153 -0.3306  0.0351
 3476TIP3    H132063   3.595   6.328   8.082  0.8277 -1.2835 -0.3191
 3476TIP3    H232064   3.670   6.460   8.091  1.2378 -1.4781 -0.8383
 3477TIP3   OH232065   0.913   3.367   6.996  0.2135 -0.3015  0.6045
 3477TIP3    H132066   0.887   3.275   6.992  1.1492 -0.5670  0.3687
 3477TIP3    H232067   0.835   3.416   6.971 -0.2271 -1.0406  0.5203
 3478TIP3   OH232068   4.796   5.913   2.171  0.2180 -0.6475 -0.1306
 3478TIP3    H132069   4.797   5.829   2.219 -2.0837 -0.7929 -0.2664
 3478TIP3    H232070   4.732   5.966   2.217  1.2294  0.8657 -0.4124
 3479TIP3   OH232071   6.583   6.138   7.242  0.1119  0.1094  0.0972
 3479TIP3    H132072   6.556   6.120   7.152  1.8211 -1.2287 -0.2063
 3479TIP3    H232073   6.548   6.225   7.261 -1.7914 -0.3030 -1.2249
 3480TIP3   OH232074   2.208   3.475   1.278  0.6389 -0.4713  0.0738
 3480TIP3    H132075   2.123   3.463   1.321  0.6895 -3.4811 -0.4530
 3480TIP3    H232076   2.187   3.485   1.185  0.8266  0.3072  0.1052
 3481TIP3   OH232077   3.769   3.890   8.442 -0.0539 -0.2383  0.3827
 3481TIP3    H132078   3.713   3.813   8.442  0.5362 -0.7306 -1.6830
 3481TIP3    H232079   3.743   3.938   8.363 -0.7108  1.9387  1.8511
 3482TIP3   OH232080   3.062   2.960   7.467  0.0046  0.4555 -0.0152
 3482TIP3    H132081   3.135   2.906   7.436  0.7464  0.6452  1.3143
 3482TIP3    H232082   3.015   2.984   7.387 -0.9254 -2.8945 -0.6205
 3483TIP3   OH232083   3.817   5.172   1.536 -0.0375  0.1341 -0.0251
 3483TIP3    H132084   3.788   5.240   1.597 -0.6281  1.9204 -2.1619
 3483TIP3    H232085   3.736   5.127   1.511  0.1154 -0.1421 -0.0293
 3484TIP3   OH232086   1.955   4.462   7.172 -0.5893  0.5366 -0.2034
 3484TIP3    H132087   2.026   4.490   7.231  1.1039 -2.0132 -0.8537
 3484TIP3    H232088   1.877   4.462   7.227  0.3415  1.1798  1.1950
 3485TIP3   OH232089   6.188   5.420   8.014 -0.1403 -0.1289 -0.2021
 3485TIP3    H132090   6.131   5.402   7.939 -1.5892  3.4928 -0.1784
 3485TIP3    H232091   6.276   5.425   7.977 -0.7986  1.3842 -1.7147
 3486TIP3   OH232092   6.443   1.708   6.492 -0.1868 -0.2013 -0.1514
 3486TIP3    H132093   6.497   1.631   6.474 -0.2252 -0.4077  0.5870
 3486TIP3    H232094   6.470   1.772   6.427 -0.9570 -1.2199 -1.5299
 3487TIP3   OH232095   5.608   5.201   0.753  0.2982  0.2430 -0.3228
 3487TIP3    H132096   5.610   5.224   0.846 -0.5663  1.4260 -0.5742
 3487TIP3    H232097   5.692   5.156   0.738  0.2286 -0.4538  1.1282
 3488TIP3   OH232098   3.671   6.174   1.509  0.3339  0.2792  0.3898
 3488TIP3    H132099   3.727   6.101   1.538  0.5062  0.8449  1.5259
 3488TIP3    H232100   3.716   6.210   1.433  1.1523  0.2791  0.8647
 3489TIP3   OH232101   3.391   3.877   1.041 -0.1129 -0.5791 -0.3312
 3489TIP3    H132102   3.425   3.871   0.952  2.3136  1.5015  0.3274
 3489TIP3    H232103   3.314   3.933   1.033  1.1093  1.1099 -0.9786
 3490TIP3   OH232104   3.788   6.519   0.577 -0.0392 -0.3827 -0.3810
 3490TIP3    H132105   3.779   6.609   0.608 -3.3511 -1.0079  0.8708
 3490TIP3    H232106   3.776   6.524   0.482 -0.9210  0.4261 -0.2346
 3491TIP3   OH232107   4.250   5.744   6.917  0.3391  0.2659  0.5663
 3491TIP3    H132108   4.211   5.690   6.848 -1.8504  2.6313 -0.1978
 3491TIP3    H232109   4.240   5.692   6.997  0.4111 -1.3680 -0.4298
 3492TIP3   OH232110   1.172   0.044   8.721 -0.1480  0.1833 -0.1937
 3492TIP3    H132111   1.217   0.009   8.797  1.4818  2.7697  0.1620
 3492TIP3    H232112   1.095  -0.012   8.710  1.1213 -2.0637  1.5073
 3493TIP3   OH232113   5.676   4.852   7.398 -0.4546 -0.1243  0.2259
 3493TIP3    H132114   5.747   4.857   7.462 -0.3882 -1.3719  0.2666
 3493TIP3    H232115   5.600   4.888   7.445  0.1288  1.2568  0.1646
 3494TIP3   OH232116   4.986   5.954   1.915 -0.1630 -0.1512  0.0389
 3494TIP3    H132117   5.073   5.920   1.893 -0.1181 -0.5755  0.8389
 3494TIP3    H232118   4.930   5.877   1.920 -0.0039 -0.1930  2.1496
 3495TIP3   OH232119   6.094   0.051   7.982  0.2825  0.1141 -0.0961
 3495TIP3    H132120   6.015   0.063   8.035  0.1471  1.1299 -0.4976
 3495TIP3    H232121   6.162   0.101   8.027  1.2730 -2.3321  1.3386
 3496TIP3   OH232122   0.410   5.207   2.587 -0.1401  0.1168  0.3026
 3496TIP3    H132123   0.449   5.292   2.609  0.6796 -0.3496  0.6814
 3496TIP3    H232124   0.481   5.144   2.600 -1.1366 -0.8071  1.4562
 3497TIP3   OH232125   5.256   5.789   7.168  0.6664 -0.2924  0.2792
 3497TIP3    H132126   5.177   5.833   7.138 -0.0631 -2.2741 -0.9569
 3497TIP3    H232127   5.327   5.828   7.118  0.1966  0.1890 -0.0106
 3498TIP3   OH232128   4.132   4.358   7.608 -0.3010  0.4043  0.1936
 3498TIP3    H132129   4.073   4.393   7.542  2.8772  0.8439 -2.7104
 3498TIP3    H232130   4.142   4.266   7.585  1.5876  0.7813 -0.6628
 3499TIP3   OH232131   2.576   6.575   7.511  0.2442 -0.6585  0.1096
 3499TIP3    H132132   2.501   6.625   7.544  1.2296  0.2578  1.0498
 3499TIP3    H232133   2.651   6.615   7.555  1.2222 -1.9367 -0.3788
 3500TIP3   OH232134   0.560   6.370   2.368 -0.1567 -0.2050  0.0199
 3500TIP3    H132135   0.640   6.387   2.418  0.1791 -0.6497 -0.3586
 3500TIP3    H232136   0.490   6.371   2.433  0.5089 -3.1059  0.9168
 3501TIP3   OH232137   1.375   6.121   2.037 -0.0551 -0.2531 -0.4627
 3501TIP3    H132138   1.407   6.031   2.023 -0.6638 -0.8554  1.6033
 3501TIP3    H232139   1.454   6.172   2.054  0.1272 -0.9791  1.0152
 3502TIP3   OH232140   3.810   0.455   7.989  1.0313 -0.5623  0.3334
 3502TIP3    H132141   3.718   0.484   7.989  1.7299  1.9039 -0.0954
 3502TIP3    H232142   3.809   0.375   8.041 -1.0619  0.5520  2.2181
 3503TIP3   OH232143   2.266   4.861   8.100  0.1469 -0.5444 -0.2276
 3503TIP3    H132144   2.228   4.780   8.065 -1.7111  1.5726 -3.6777
 3503TIP3    H232145   2.352   4.866   8.060  0.2862 -0.8116  0.0316
 3504TIP3   OH232146   5.079   1.786   8.750  0.3443 -0.6223 -0.1643
 3504TIP3    H132147   5.103   1.747   8.666  1.6635  0.0834 -0.1449
 3504TIP3    H232148   5.146   1.755   8.811  0.6826  0.6232  0.1256
 3505TIP3   OH232149   3.327   4.591   0.882  0.0985  0.4176 -0.4111
 3505TIP3    H132150   3.279   4.674   0.884 -1.7173 -0.5853  1.2818
 3505TIP3    H232151   3.399   4.604   0.944 -0.3214  0.6529  0.0356
 3506TIP3   OH232152   3.729   1.613   0.041  0.1918 -0.2295  0.0665
 3506TIP3    H132153   3.653   1.598   0.097 -0.3191 -1.4791 -0.9199
 3506TIP3    H232154   3.781   1.679   0.088 -1.1293  0.1120  1.0987
 3507TIP3   OH232155   0.584   2.206   1.903 -0.0602  0.2968 -0.3989
 3507TIP3    H132156   0.636   2.261   1.962  0.4120  0.2024 -0.7219
 3507TIP3    H232157   0.514   2.171   1.958  0.6061 -0.1109  0.2023
 3508TIP3   OH232158   1.432   0.866   7.876  0.0562 -0.5501  0.1726
 3508TIP3    H132159   1.348   0.827   7.854  0.8664 -2.4339  0.1404
 3508TIP3    H232160   1.425   0.957   7.849 -1.8125 -0.7763 -0.2168
 3509TIP3   OH232161   1.681   5.024   1.951  0.0940 -0.4247  0.0288
 3509TIP3    H132162   1.693   5.119   1.956  2.0356 -0.5904 -0.4973
 3509TIP3    H232163   1.768   4.989   1.972 -0.9465 -2.1536  1.7729
 3510TIP3   OH232164   3.798   3.838   0.143 -0.1249 -0.1265  0.0339
 3510TIP3    H132165   3.802   3.882   0.058  0.3787  2.6095  1.3439
 3510TIP3    H232166   3.715   3.868   0.181  0.6074  0.3773  1.2993
 3511TIP3   OH232167   1.814   3.449   0.709 -0.0542 -0.2111 -0.3896
 3511TIP3    H132168   1.884   3.506   0.678 -0.2623 -0.4439 -1.3259
 3511TIP3    H232169   1.842   3.361   0.683 -0.6955 -0.3021 -0.7928
 3512TIP3   OH232170   5.611   6.548   7.555 -0.4164  0.1195  0.1844
 3512TIP3    H132171   5.556   6.473   7.532 -0.6177  0.3828 -0.1893
 3512TIP3    H232172   5.555   6.624   7.540 -0.3656  0.3273  0.9956
 3513TIP3   OH232173   1.422   2.638   1.540  0.5754 -0.3383 -0.0277
 3513TIP3    H132174   1.463   2.646   1.626  1.1956 -0.4419 -0.3096
 3513TIP3    H232175   1.437   2.547   1.514  0.4885 -0.2777 -0.2950
 3514TIP3   OH232176   2.358   2.932   1.432  0.1103 -0.1877  0.1822
 3514TIP3    H132177   2.328   3.016   1.397  0.7117 -0.4923 -1.1477
 3514TIP3    H232178   2.451   2.946   1.449  0.5487 -0.9548 -1.3834
 3515TIP3   OH232179   4.183   5.746   7.653  0.2422 -0.5269  1.1106
 3515TIP3    H132180   4.275   5.739   7.679  0.6205 -0.7837 -0.2581
 3515TIP3    H232181   4.174   5.689   7.577 -1.3633 -1.4861  1.9696
 3516TIP3   OH232182   0.027   4.131   0.871 -0.6114 -0.1825  0.3687
 3516TIP3    H132183   0.042   4.039   0.892 -2.4756 -0.2522  1.5917
 3516TIP3    H232184   0.097   4.178   0.917 -0.2263 -0.9129  0.5390
 3517TIP3   OH232185   5.427   4.872   0.349 -0.5186 -0.4818 -0.1056
 3517TIP3    H132186   5.414   4.779   0.331 -2.9172 -0.4972  1.2423
 3517TIP3    H232187   5.374   4.888   0.427 -1.3602  2.3000 -1.1356
 3518TIP3   OH232188   5.602   5.683   1.269  0.0744 -0.2139  0.4702
 3518TIP3    H132189   5.520   5.656   1.312  0.2888 -0.5478  0.6766
 3518TIP3    H232190   5.669   5.630   1.312  0.2431 -0.8665 -0.5740
 3519TIP3   OH232191   4.154   5.536   2.716  0.0568  0.0476  0.4247
 3519TIP3    H132192   4.081   5.511   2.659 -1.5683  2.8791  1.0329
 3519TIP3    H232193   4.196   5.454   2.740 -2.0158 -1.5877 -1.1771
 3520TIP3   OH232194   5.146   5.531   8.746  0.0289  0.4124 -0.2523
 3520TIP3    H132195   5.205   5.573   8.809  0.0661 -1.6460  1.1964
 3520TIP3    H232196   5.115   5.602   8.691  2.4428  1.8538  0.0903
 3521TIP3   OH232197   0.865   3.752   2.421  0.6310  0.9175  0.2173
 3521TIP3    H132198   0.794   3.692   2.398  1.7660 -0.5797  0.4941
 3521TIP3    H232199   0.832   3.839   2.397 -1.1111  0.2114 -0.0514
 3522TIP3   OH232200   3.835   3.713   0.415 -0.2037 -0.0111  0.2746
 3522TIP3    H132201   3.818   3.621   0.395 -0.0304 -0.2609  1.2184
 3522TIP3    H232202   3.894   3.742   0.346  0.8458 -1.0074  0.7146
 3523TIP3   OH232203   3.942   1.895   1.486  0.0936  0.5038  0.3959
 3523TIP3    H132204   4.028   1.876   1.522  0.5987  1.2756 -0.3726
 3523TIP3    H232205   3.907   1.963   1.544  0.2287  0.5874  0.3803
 3524TIP3   OH232206   0.888   0.854   2.122 -0.0559 -0.0677 -0.1670
 3524TIP3    H132207   0.852   0.908   2.052  0.7633  1.3137  0.4301
 3524TIP3    H232208   0.873   0.764   2.093 -0.6166  0.4647 -1.6440
 3525TIP3   OH232209   4.311   1.668   1.429 -0.1933  0.1022 -0.1612
 3525TIP3    H132210   4.336   1.614   1.503 -0.8399 -1.3339 -0.9595
 3525TIP3    H232211   4.259   1.739   1.467  1.2316  0.5762  0.9715
 3526TIP3   OH232212   5.062   3.985   0.696 -0.2443  0.5312  0.5703
 3526TIP3    H132213   5.012   3.926   0.641 -1.2021  1.7267  0.1051
 3526TIP3    H232214   5.076   3.937   0.778  0.8148 -1.0973 -0.5036
 3527TIP3   OH232215   4.801   2.133   7.468 -0.9245  0.6294 -0.2083
 3527TIP3    H132216   4.727   2.190   7.487  0.3211  2.6899 -1.1559
 3527TIP3    H232217   4.786   2.102   7.379 -1.3541 -0.1252  0.1243
 3528TIP3   OH232218   0.020   6.544   1.862  0.3295 -0.1111 -0.7914
 3528TIP3    H132219  -0.042   6.473   1.846  0.4037  0.2211 -2.8308
 3528TIP3    H232220  -0.028   6.606   1.917  0.3029 -1.7291  1.1234
 3529TIP3   OH232221   2.657   3.776   2.476 -0.1003 -0.2613  0.4319
 3529TIP3    H132222   2.685   3.784   2.384  0.2718  1.3571  0.6536
 3529TIP3    H232223   2.625   3.863   2.499 -1.9208 -1.1090  1.3207
 3530TIP3   OH232224   1.508   1.482   0.738 -0.3895 -0.1486 -0.0804
 3530TIP3    H132225   1.443   1.544   0.771  0.5450  1.1731 -0.6161
 3530TIP3    H232226   1.575   1.480   0.806  0.0292  0.1559 -0.4805
 3531TIP3   OH232227   0.139   4.371   7.227  0.1834 -0.1320  0.3813
 3531TIP3    H132228   0.116   4.461   7.204 -0.8280 -0.4783 -0.0304
 3531TIP3    H232229   0.218   4.352   7.176  0.8082  0.7336  0.9926
 3532TIP3   OH232230   3.734   2.237   8.183  0.1496 -0.5047 -0.0761
 3532TIP3    H132231   3.658   2.279   8.222 -0.1930 -1.3214  0.1562
 3532TIP3    H232232   3.807   2.260   8.242 -0.1458 -0.7447  0.3908
 3533TIP3   OH232233   3.969   2.587   0.300  0.2950 -0.4103  0.4533
 3533TIP3    H132234   3.918   2.533   0.359  1.0819 -1.1306  0.5011
 3533TIP3    H232235   3.968   2.674   0.339 -0.0546 -0.6504  0.9781
 3534TIP3   OH232236   6.184   4.775   0.176 -0.0127  0.4583  0.1183
 3534TIP3    H132237   6.264   4.803   0.131  0.8679 -0.9924  0.7325
 3534TIP3    H232238   6.187   4.679   0.174 -3.4029  0.1999 -2.8076
 3535TIP3   OH232239   0.947   0.884   8.730 -0.3856 -0.3007 -0.0964
 3535TIP3    H132240   0.885   0.826   8.773 -0.7081 -0.8114 -1.2177
 3535TIP3    H232241   0.933   0.869   8.637  1.5955 -0.6056 -0.3791
 3536TIP3   OH232242   5.008   3.256   2.249 -0.2970 -0.3570  0.1562
 3536TIP3    H132243   4.932   3.294   2.295 -0.3007 -0.8383  0.5548
 3536TIP3    H232244   4.980   3.251   2.157 -0.9493 -1.0118  0.3772
 3537TIP3   OH232245   0.909   6.494   1.730  1.0184 -0.1589 -0.2448
 3537TIP3    H132246   0.837   6.552   1.754  0.3587 -0.5141 -1.3377
 3537TIP3    H232247   0.905   6.424   1.795  0.4111 -0.1574 -0.2777
 3538TIP3   OH232248   0.122   3.009   1.019  0.1668  0.0990 -0.2288
 3538TIP3    H132249   0.102   3.097   0.988  0.0877  0.4149  0.6800
 3538TIP3    H232250   0.161   3.022   1.105  0.7016 -0.7248 -0.3293
 3539TIP3   OH232251   2.592   3.998   0.433  0.5697 -0.5683  0.0494
 3539TIP3    H132252   2.679   3.961   0.416  1.1424  0.7946 -0.1457
 3539TIP3    H232253   2.555   3.943   0.502  2.5066  0.1757  1.7532
 3540TIP3   OH232254   6.078   0.819   8.711  0.2737  0.1933  0.0985
 3540TIP3    H132255   6.155   0.821   8.768  0.2192 -0.5317  0.2100
 3540TIP3    H232256   6.007   0.790   8.767  0.4782 -1.8036 -0.5917
 3541TIP3   OH232257   3.806   2.789   0.021 -0.5102  0.2421  0.6830
 3541TIP3    H132258   3.813   2.701   0.057  2.7567 -0.0607 -0.3885
 3541TIP3    H232259   3.882   2.836   0.057  0.6467  1.0905 -2.5713
 3542TIP3   OH232260   4.955   2.205   0.600 -0.1683  0.3499 -0.3914
 3542TIP3    H132261   5.021   2.138   0.616 -1.3678 -0.1971  3.0573
 3542TIP3    H232262   4.995   2.286   0.633 -0.6063  0.3264  0.2045
 3543TIP3   OH232263   0.692   0.648   8.216  0.4846 -0.0181  0.1973
 3543TIP3    H132264   0.700   0.586   8.143 -0.8417 -0.2350  0.2060
 3543TIP3    H232265   0.609   0.625   8.258  0.6613  0.8577  1.0739
 3544TIP3   OH232266   2.359   1.186   1.882  0.6228 -0.2176 -0.1755
 3544TIP3    H132267   2.437   1.196   1.938  1.7700  1.0486 -1.8836
 3544TIP3    H232268   2.367   1.257   1.818 -2.5710  0.6681  0.2598
 3545TIP3   OH232269   2.580   5.439   2.688  0.0180  0.0132 -0.3664
 3545TIP3    H132270   2.584   5.359   2.740  2.2029 -0.1694 -0.7074
 3545TIP3    H232271   2.619   5.414   2.604  2.9363  1.8954  0.2717
 3546TIP3   OH232272   0.627   2.571   1.695  0.5287 -0.4467  0.6863
 3546TIP3    H132273   0.583   2.487   1.683  0.5138 -0.2732 -0.5642
 3546TIP3    H232274   0.684   2.580   1.619  0.1650  0.8983  0.5397
 3547TIP3   OH232275   0.724   6.644   0.143  0.1905 -0.0331  0.3821
 3547TIP3    H132276   0.681   6.660   0.227 -0.1097  0.9532  0.0613
 3547TIP3    H232277   0.655   6.609   0.087  0.3030 -0.3478  0.4375
 3548TIP3   OH232278   2.674   2.425   8.564  0.1853 -0.2701 -0.5279
 3548TIP3    H132279   2.686   2.344   8.515 -1.6136 -0.5609 -0.5390
 3548TIP3    H232280   2.627   2.399   8.643  2.4303  0.3057  1.0908
 3549TIP3   OH232281   4.464   5.549   2.301  0.1428  0.7830  0.1401
 3549TIP3    H132282   4.467   5.644   2.293  1.9709  0.6981 -0.5622
 3549TIP3    H232283   4.516   5.530   2.379  0.8154  0.3073 -0.4127
 3550TIP3   OH232284   1.137   1.033   8.620  0.2036 -0.3255 -0.2357
 3550TIP3    H132285   1.084   1.060   8.545 -0.2815  0.0631  0.2318
 3550TIP3    H232286   1.073   1.006   8.686  0.5653  0.4641  0.4579
 3551TIP3   OH232287   4.940   1.177   8.666  0.4934 -0.0277 -0.0001
 3551TIP3    H132288   4.903   1.181   8.578  0.1731 -0.0860  0.1308
 3551TIP3    H232289   4.942   1.084   8.687 -0.1542  0.0328  0.3552
 3552TIP3   OH232290   4.400   0.219   0.921 -0.0192  0.1032 -0.5542
 3552TIP3    H132291   4.404   0.177   0.834 -2.2741  1.4814 -1.4227
 3552TIP3    H232292   4.346   0.159   0.973  0.3736 -0.1651 -0.4531
 3553TIP3   OH232293   2.119   4.331   0.163 -0.4355 -0.5458 -0.4426
 3553TIP3    H132294   2.099   4.305   0.073 -0.9313  0.7692 -0.7356
 3553TIP3    H232295   2.180   4.404   0.154 -1.6039  0.5549  0.2147
 3554TIP3   OH232296   4.981   0.904   8.757 -0.4983  0.1077 -0.0582
 3554TIP3    H132297   5.039   0.882   8.829 -1.4139 -0.5207  0.5195
 3554TIP3    H232298   4.921   0.829   8.751 -1.5389  0.9260 -0.3040
 3555TIP3   OH232299   1.754   4.661   1.117 -0.4924 -0.6309  0.0989
 3555TIP3    H132300   1.758   4.567   1.134  0.9118 -0.6317 -0.1529
 3555TIP3    H232301   1.757   4.668   1.022 -2.3683 -0.3705  0.0097
 3556TIP3   OH232302   1.260   5.906   0.975  0.5146 -0.2209 -0.0616
 3556TIP3    H132303   1.208   5.832   1.005 -2.0805  1.1111 -0.9684
 3556TIP3    H232304   1.280   5.955   1.055  0.8569 -1.0188  0.3533
 3557TIP3   OH232305   5.690   4.091   1.008  0.6093  0.4397  0.2843
 3557TIP3    H132306   5.773   4.134   1.031  0.7789 -0.2711  1.0446
 3557TIP3    H232307   5.701   4.001   1.037  0.3844 -0.2447 -1.5932
 3558TIP3   OH232308   3.522   4.697   8.717  0.0738 -0.1391  0.8518
 3558TIP3    H132309   3.614   4.670   8.721  0.3187  0.5510  0.2221
 3558TIP3    H232310   3.472   4.615   8.723  0.7677 -0.6789 -0.2991
 3559TIP3   OH232311   6.382   6.782   7.901 -0.0259  0.2562 -0.0765
 3559TIP3    H132312   6.448   6.727   7.858 -1.1167 -0.7819 -0.5205
 3559TIP3    H232313   6.324   6.809   7.830 -0.4435  0.5984  0.3882
 3560TIP3   OH232314   2.079   1.980   0.789  0.9724  0.0398 -0.3654
 3560TIP3    H132315   2.107   2.010   0.876  3.2276  0.6608 -1.2454
 3560TIP3    H232316   2.047   2.059   0.746 -2.3842 -0.6475  0.6054
 3561TIP3   OH232317   6.682   3.947   8.134  0.0570  0.3938 -0.0842
 3561TIP3    H132318   6.643   3.873   8.180 -1.4056  1.3514  0.2971
 3561TIP3    H232319   6.745   3.983   8.196 -0.6170  0.5919  0.5089
 3562TIP3   OH232320   5.011   4.073   8.426  0.9497 -0.1814  0.2448
 3562TIP3    H132321   4.948   4.004   8.403  1.4229 -0.4229 -0.3759
 3562TIP3    H232322   5.093   4.044   8.386  0.7503  1.6285 -1.6541
 3563TIP3   OH232323   6.670   1.750   0.130  0.8108  0.5219 -0.7240
 3563TIP3    H132324   6.638   1.660   0.128  1.7387  0.1832 -0.7289
 3563TIP3    H232325   6.765   1.742   0.124  0.8371  1.5666 -2.0151
 3564TIP3   OH232326   3.704   6.040   1.172 -0.7844  0.2281 -0.7007
 3564TIP3    H132327   3.629   5.987   1.201 -0.4757  0.5258  0.7285
 3564TIP3    H232328   3.691   6.050   1.078 -0.5566 -2.8277 -1.1456
 3565TIP3   OH232329   3.354   4.778   0.562 -0.1766 -0.1383  0.1182
 3565TIP3    H132330   3.449   4.770   0.567 -0.1191 -1.2029 -1.7238
 3565TIP3    H232331   3.327   4.710   0.500 -1.9392  1.3446 -0.8542
 3566TIP3   OH232332   5.908   4.614   0.385 -0.1541  0.4821  0.1803
 3566TIP3    H132333   5.952   4.698   0.383  0.4724  0.1792  0.9050
 3566TIP3    H232334   5.837   4.625   0.448 -0.1691  0.5121  0.1582
 3567TIP3   OH232335   3.189   6.011   8.582  0.4915  0.0164 -0.0893
 3567TIP3    H132336   3.157   6.097   8.612 -1.5672 -0.4588 -0.7291
 3567TIP3    H232337   3.171   6.011   8.488 -1.8316 -1.9527  0.2460
 3568TIP3   OH232338   1.816   4.159   7.944  0.0415 -0.0491 -0.2885
 3568TIP3    H132339   1.732   4.201   7.962 -0.1008 -1.1862  1.9824
 3568TIP3    H232340   1.806   4.121   7.857 -1.3872  0.7464 -0.4960
 3569TIP3   OH232341   3.084   0.166   8.147  0.5991 -0.7650  0.1073
 3569TIP3    H132342   3.167   0.132   8.178  0.7094 -0.4061  0.2105
 3569TIP3    H232343   3.065   0.240   8.204 -0.0051 -1.1030  0.3627
 3570TIP3   OH232344   1.960   5.710   1.163  0.2803  0.1597 -0.1950
 3570TIP3    H132345   1.983   5.732   1.254  0.9015  0.9088 -0.5185
 3570TIP3    H232346   1.881   5.762   1.146 -1.1581 -1.6666  0.6021
 3571TIP3   OH232347   0.789   2.267   6.797 -0.0614 -0.0888 -0.0259
 3571TIP3    H132348   0.877   2.269   6.832 -0.2937 -1.7000  0.7408
 3571TIP3    H232349   0.801   2.248   6.704  0.4387  1.5585 -0.3379
 3572TIP3   OH232350   4.613   5.605   0.126 -0.4891 -0.4329 -0.2335
 3572TIP3    H132351   4.602   5.662   0.050  0.9388  2.0421  1.2931
 3572TIP3    H232352   4.667   5.532   0.094 -2.8787 -1.4337 -2.3851
 3573TIP3   OH232353   5.690   1.138   2.433  0.1254  0.0267  0.1026
 3573TIP3    H132354   5.646   1.140   2.518  1.8146  0.8316  1.0111
 3573TIP3    H232355   5.647   1.068   2.385 -3.2516  1.8105  0.2496
 3574TIP3   OH232356   0.033   5.042   8.544  0.4210 -0.0695 -0.5984
 3574TIP3    H132357  -0.026   4.984   8.592  2.7173  0.0742  2.7710
 3574TIP3    H232358  -0.009   5.128   8.549 -1.5085 -0.7743 -2.9255
 3575TIP3   OH232359   6.425   0.496   7.986 -0.3795  0.7245  0.2434
 3575TIP3    H132360   6.330   0.507   7.982 -0.2377  1.5579 -1.6851
 3575TIP3    H232361   6.451   0.479   7.896  1.1977 -0.7333  0.9096
 3576TIP3   OH232362   5.245   4.769   7.066 -0.3146  0.6236  0.2182
 3576TIP3    H132363   5.237   4.709   6.992  0.3118  1.1536 -0.2947
 3576TIP3    H232364   5.278   4.850   7.028  0.0499  0.8983  1.0844
 3577TIP3   OH232365   6.023   5.955   1.689 -0.9805  0.0210  0.0902
 3577TIP3    H132366   6.033   5.960   1.784 -2.5019 -1.0617  0.3362
 3577TIP3    H232367   5.938   5.914   1.675 -0.6581 -0.1269 -1.7470
 3578TIP3   OH232368   6.415   0.816   0.865 -0.0167 -0.3297  0.3505
 3578TIP3    H132369   6.384   0.903   0.890  1.2043  0.4057 -0.5714
 3578TIP3    H232370   6.436   0.774   0.948  1.4398  1.0853  0.7718
 3579TIP3   OH232371   0.535   4.913   7.752 -0.7023 -0.2977  0.1263
 3579TIP3    H132372   0.561   4.937   7.663  0.8450  1.6183  1.0193
 3579TIP3    H232373   0.471   4.842   7.740 -0.7374  0.0742 -2.4950
 3580TIP3   OH232374   6.795   0.100   7.341 -0.0765  0.2040 -0.5944
 3580TIP3    H132375   6.844   0.035   7.391 -1.3621 -1.5984 -1.5865
 3580TIP3    H232376   6.725   0.128   7.401 -0.9505 -1.1287 -0.9632
 3581TIP3   OH232377   0.911   6.319   7.619 -0.5340  0.1866  0.2312
 3581TIP3    H132378   0.940   6.242   7.571 -1.6741  0.2599 -0.6281
 3581TIP3    H232379   0.891   6.286   7.707 -1.1164 -0.5349 -0.1598
 3582TIP3   OH232380   3.331   5.076   7.911 -0.6912 -0.2343  0.2538
 3582TIP3    H132381   3.346   5.139   7.980  1.3916 -1.5452  1.0976
 3582TIP3    H232382   3.390   5.102   7.840 -2.0568  0.4950 -0.6698
 3583TIP3   OH232383   4.160   3.854   1.346  0.0937 -0.3645 -0.2592
 3583TIP3    H132384   4.116   3.769   1.356 -0.4712 -0.1365 -0.7402
 3583TIP3    H232385   4.244   3.833   1.305  0.5213 -0.8233  0.8077
 3584TIP3   OH232386   4.200   4.933   1.396 -0.1137 -0.0973  0.1704
 3584TIP3    H132387   4.155   4.983   1.465 -1.7236  0.1906 -1.0298
 3584TIP3    H232388   4.187   4.842   1.421  2.5119 -0.0498  2.1693
 3585TIP3   OH232389   1.888   5.501   7.141  0.0551  0.4868 -0.5001
 3585TIP3    H132390   1.898   5.548   7.224  0.7597  1.8675 -1.3253
 3585TIP3    H232391   1.963   5.529   7.088  0.1368 -1.0893 -1.2746
 3586TIP3   OH232392   5.101   3.579   0.955  0.4442 -0.4756  0.3970
 3586TIP3    H132393   5.141   3.492   0.965  0.0858 -0.5704  1.0749
 3586TIP3    H232394   5.044   3.587   1.031 -0.1160  0.0412 -0.0758
 3587TIP3   OH232395   5.553   2.498   1.605 -0.3439 -0.3208 -0.2236
 3587TIP3    H132396   5.494   2.425   1.583  0.9577 -1.3103 -0.5243
 3587TIP3    H232397   5.638   2.471   1.570  0.3305  1.0122  0.3489
 3588TIP3   OH232398   0.039   6.130   7.480 -0.0928 -0.4525  0.0116
 3588TIP3    H132399  -0.020   6.122   7.555 -1.9490  0.3154 -1.2856
 3588TIP3    H232400   0.099   6.201   7.504 -0.4331 -0.4535  0.8959
 3589TIP3   OH232401   4.359   5.613   7.982 -0.3738  0.3993 -0.0271
 3589TIP3    H132402   4.347   5.708   7.989 -0.1234  0.3891  0.5721
 3589TIP3    H232403   4.441   5.603   7.933 -0.4487  0.4871 -0.1739
 3590TIP3   OH232404   2.636   6.389   1.391  0.3342  0.4409  0.6153
 3590TIP3    H132405   2.579   6.338   1.334  1.3285 -2.3572  1.9468
 3590TIP3    H232406   2.598   6.477   1.390 -0.2824  0.3587 -3.4903
 3591TIP3   OH232407   3.929   0.044   2.145  0.0253  0.1179 -0.0572
 3591TIP3    H132408   4.016   0.036   2.185  0.2111  0.1634 -0.4540
 3591TIP3    H232409   3.881  -0.032   2.178  1.2967 -1.9108 -2.5449
 3592TIP3   OH232410   2.836   5.509   0.053  0.4029 -0.3405  0.3378
 3592TIP3    H132411   2.898   5.501   0.125  1.7531  0.3802 -0.6934
 3592TIP3    H232412   2.807   5.419   0.036  1.2653 -0.7030  0.7530
 3593TIP3   OH232413   5.861   6.857   8.111  0.2155  0.6288 -0.4894
 3593TIP3    H132414   5.807   6.927   8.075 -0.9888 -0.1677 -0.2515
 3593TIP3    H232415   5.822   6.776   8.078  1.1500  0.0278 -0.1672
 3594TIP3   OH232416   0.091   3.797   1.991 -0.4912 -0.2635 -0.0183
 3594TIP3    H132417   0.055   3.729   2.047 -0.0070 -1.0666 -0.6684
 3594TIP3    H232418   0.062   3.879   2.032 -0.3068 -0.8234  1.2889
 3595TIP3   OH232419   2.825   4.109   8.650  0.3699  0.1445  0.0919
 3595TIP3    H132420   2.750   4.049   8.653  0.1080  0.3290 -1.5585
 3595TIP3    H232421   2.901   4.053   8.658  0.1315 -0.4782 -1.6027
 3596TIP3   OH232422   0.130   3.048   6.592 -0.6887 -0.1730 -0.5029
 3596TIP3    H132423   0.140   3.142   6.607  1.5202 -0.6759  1.8053
 3596TIP3    H232424   0.190   3.028   6.520  0.5241 -0.1171  0.4642
 3597TIP3   OH232425   3.934   3.127   2.164 -0.3636 -1.1260  0.0773
 3597TIP3    H132426   4.022   3.122   2.127  0.1386 -1.3504  1.2576
 3597TIP3    H232427   3.944   3.177   2.245 -0.5521 -4.2515  2.2399
 3598TIP3   OH232428   4.443   2.617   7.327 -0.0646 -0.1637  0.4009
 3598TIP3    H132429   4.463   2.603   7.419  1.0397 -1.7962 -0.0256
 3598TIP3    H232430   4.478   2.704   7.307  0.8933 -0.3452  1.2279
 3599TIP3   OH232431   6.308   5.646   8.108 -0.2211 -0.2680 -0.0922
 3599TIP3    H132432   6.251   5.716   8.141 -0.5735 -0.8939  0.6249
 3599TIP3    H232433   6.249   5.573   8.092  0.2629 -0.6488 -0.1355
 3600TIP3   OH232434   1.769   2.673   0.632 -0.1563  0.1058  0.7206
 3600TIP3    H132435   1.807   2.657   0.546  1.7881  1.2813  1.3089
 3600TIP3    H232436   1.674   2.665   0.618  0.2184 -3.0576 -0.7702
 3601TIP3   OH232437   5.535   0.236   0.705 -0.2448  0.1803  0.0539
 3601TIP3    H132438   5.529   0.299   0.632 -2.8836  1.6606  1.3819
 3601TIP3    H232439   5.558   0.290   0.781  0.4721 -1.0116  0.7079
 3602TIP3   OH232440   5.453   3.293   1.847  0.4285 -0.3425 -0.4677
 3602TIP3    H132441   5.445   3.243   1.929 -0.9921  3.5101  2.0506
 3602TIP3    H232442   5.368   3.283   1.804  0.6575 -1.1764 -0.7495
 3603TIP3   OH232443   6.756   1.119   0.702 -0.3818 -0.3882 -0.5997
 3603TIP3    H132444   6.712   1.105   0.786  0.7064  1.0670  0.2576
 3603TIP3    H232445   6.688   1.104   0.636 -1.1542 -2.0043  0.4935
 3604TIP3   OH232446   4.134   4.092   7.548 -0.5677 -0.0661 -0.1679
 3604TIP3    H132447   4.136   4.043   7.630  0.4100 -0.8407 -0.6353
 3604TIP3    H232448   4.109   4.027   7.482 -1.7543  0.6436 -0.4337
 3605TIP3   OH232449   6.537   2.535   8.068 -0.1803  0.4408 -0.1601
 3605TIP3    H132450   6.483   2.511   7.993 -0.5084  0.5405  0.0441
 3605TIP3    H232451   6.533   2.630   8.071 -0.1549  0.4382 -0.0275
 3606TIP3   OH232452   1.254   0.435   8.156 -0.6528 -0.2259 -0.1879
 3606TIP3    H132453   1.269   0.519   8.200  0.1010 -1.0469  1.2157
 3606TIP3    H232454   1.324   0.379   8.188 -2.0511 -1.8573  0.1488
 3607TIP3   OH232455   6.180   0.214   8.655 -0.3323  0.1944 -0.0656
 3607TIP3    H132456   6.188   0.126   8.692 -0.5227 -0.1075 -0.7294
 3607TIP3    H232457   6.195   0.201   8.561  0.7695  1.0304 -0.0252
 3608TIP3   OH232458   2.161   0.777   1.360  0.2140 -0.3094 -0.2505
 3608TIP3    H132459   2.178   0.683   1.364 -0.6412 -0.4481  0.5766
 3608TIP3    H232460   2.181   0.801   1.269 -0.8007 -1.5557 -0.8459
 3609TIP3   OH232461   6.471   1.266   0.272  0.2007  0.0801 -0.0720
 3609TIP3    H132462   6.437   1.210   0.202 -1.9615  1.3393 -0.1092
 3609TIP3    H232463   6.394   1.310   0.307  1.2605 -0.2085  2.8797
 3610TIP3   OH232464   4.260   3.360   1.303 -0.5239 -0.4101  0.4476
 3610TIP3    H132465   4.174   3.324   1.284 -1.5429 -0.0599  3.8011
 3610TIP3    H232466   4.321   3.300   1.259 -2.3856 -2.1885  0.1501
 3611TIP3   OH232467   2.049   5.011   7.214 -0.2395  0.4424 -0.4370
 3611TIP3    H132468   2.071   4.949   7.145 -1.0509  0.6078 -0.8541
 3611TIP3    H232469   2.130   5.058   7.231  0.2198 -0.2991 -0.5610
 3612TIP3   OH232470   5.538   0.915   6.892 -0.5757 -0.4953 -0.0814
 3612TIP3    H132471   5.482   0.838   6.904  0.0769 -1.1307 -1.0513
 3612TIP3    H232472   5.525   0.941   6.801  1.6405 -1.4448 -0.7442
 3613TIP3   OH232473   1.740   2.019   1.564 -0.4010  0.2755  0.1078
 3613TIP3    H132474   1.709   2.100   1.604  0.3992 -0.0662  1.5006
 3613TIP3    H232475   1.835   2.028   1.560 -0.3655 -0.2502 -0.5201
 3614TIP3   OH232476   6.594   4.030   8.676  0.3302 -0.8651  0.6006
 3614TIP3    H132477   6.607   3.936   8.668 -0.7432 -0.8642 -2.0648
 3614TIP3    H232478   6.499   4.041   8.673  0.4157  0.2833  1.4759
 3615TIP3   OH232479   6.051   3.333   1.486 -0.1631 -0.2663  0.2252
 3615TIP3    H132480   6.104   3.406   1.454  0.0089 -0.4495  0.0888
 3615TIP3    H232481   5.961   3.355   1.461 -0.1227 -0.0616  0.2605
 3616TIP3   OH232482   1.825   6.514   0.744  0.4684  0.0553  0.4476
 3616TIP3    H132483   1.756   6.467   0.790  0.5196 -0.4719  0.0106
 3616TIP3    H232484   1.857   6.451   0.679  0.5929  0.6757 -0.1033
 3617TIP3   OH232485   3.792   3.740   1.442 -1.0623  0.3422  0.2862
 3617TIP3    H132486   3.817   3.806   1.377 -2.9640 -0.1107 -0.9735
 3617TIP3    H232487   3.805   3.784   1.526  0.9195  1.1382 -0.3676
 3618TIP3   OH232488   5.130   2.287   1.353  0.0143  0.4658 -0.5736
 3618TIP3    H132489   5.085   2.353   1.301 -0.5348  1.8218  1.5024
 3618TIP3    H232490   5.222   2.313   1.349 -0.1853  1.3488  0.1494
 3619TIP3   OH232491   2.268   6.411   1.684  0.0137 -0.0210 -0.0891
 3619TIP3    H132492   2.244   6.488   1.634 -0.1122  0.5508  0.8311
 3619TIP3    H232493   2.231   6.338   1.635 -0.4353  0.5567 -0.6186
 3620TIP3   OH232494   0.118   0.658   7.547  0.3151 -0.3517  0.3842
 3620TIP3    H132495   0.130   0.743   7.505  2.0284 -1.2515 -1.0824
 3620TIP3    H232496   0.030   0.631   7.523  0.8019 -0.2724 -1.6650
 3621TIP3   OH232497   2.745   1.740   7.125  0.1575 -0.0397 -0.4256
 3621TIP3    H132498   2.737   1.693   7.209 -2.4148  0.9080 -0.0231
 3621TIP3    H232499   2.655   1.742   7.091  1.0701  0.0125 -3.0156
 3622TIP3   OH232500   5.998   3.992   7.890 -0.2002  0.4954  0.5609
 3622TIP3    H132501   5.903   4.003   7.886 -0.1852  0.3105 -0.5632
 3622TIP3    H232502   6.010   3.901   7.916 -0.3140  0.8654  2.0007
 3623TIP3   OH232503   0.398   6.668   7.383  0.3545  0.5647  0.2980
 3623TIP3    H132504   0.445   6.745   7.352  2.6165 -0.5919  0.5797
 3623TIP3    H232505   0.449   6.638   7.458 -1.0542 -0.6145  0.8229
 3624TIP3   OH232506   1.009   0.433   8.056  0.0782 -0.3207 -0.5131
 3624TIP3    H132507   1.101   0.419   8.079  0.1343 -0.1597 -0.6400
 3624TIP3    H232508   0.991   0.524   8.081 -0.1025 -0.4148 -0.2990
 3625TIP3   OH232509   5.203   4.589   7.777 -0.3271 -0.0520  0.2355
 3625TIP3    H132510   5.222   4.636   7.696  2.0182  0.2001  0.8539
 3625TIP3    H232511   5.110   4.567   7.771 -0.1040 -0.6684 -2.8320
 3626TIP3   OH232512   4.507   1.202   6.829  0.1215  0.1071  0.2513
 3626TIP3    H132513   4.497   1.242   6.743 -0.3417  2.4910  1.3330
 3626TIP3    H232514   4.602   1.187   6.837  0.2422  0.4562 -0.4140
 3627TIP3   OH232515   0.202   2.954   8.655 -0.3899  0.2361 -0.1280
 3627TIP3    H132516   0.174   2.896   8.727  0.2526 -2.0737 -1.6143
 3627TIP3    H232517   0.295   2.967   8.671 -0.3924  0.2934 -0.1629
 3628TIP3   OH232518   4.398   2.204   6.648  0.4773 -0.2427  0.1922
 3628TIP3    H132519   4.457   2.266   6.689  1.4376 -0.7782 -0.3508
 3628TIP3    H232520   4.416   2.212   6.554 -2.2828  1.6090 -0.2966
 3629TIP3   OH232521   1.947   3.904   1.548  0.4680 -0.2767  0.3793
 3629TIP3    H132522   1.938   3.999   1.559 -0.2200 -0.4019  1.0649
 3629TIP3    H232523   2.000   3.877   1.623  1.2235 -0.3551 -0.1803
 3630TIP3   OH232524   5.809   1.387   6.473 -0.6152  0.0938  0.4578
 3630TIP3    H132525   5.754   1.464   6.460 -0.2422  0.2309 -0.3899
 3630TIP3    H232526   5.748   1.313   6.466 -0.7418  0.2556 -0.2061
 3631TIP3   OH232527   6.397   3.279   6.659 -0.3951  0.2245 -0.1080
 3631TIP3    H132528   6.343   3.243   6.730 -0.1365  0.1243  0.0377
 3631TIP3    H232529   6.381   3.373   6.662 -0.6825  0.1813 -0.1663
 3632TIP3   OH232530   1.399   4.797   7.349  0.3290 -0.8290 -0.2491
 3632TIP3    H132531   1.370   4.792   7.258 -2.6708 -0.6516  0.5826
 3632TIP3    H232532   1.404   4.706   7.378  3.7290 -1.0561 -1.1573
 3633TIP3   OH232533   0.088   6.529   8.463  0.1555 -1.2468 -0.3042
 3633TIP3    H132534   0.091   6.585   8.541 -1.4668  0.1373 -1.1471
 3633TIP3    H232535   0.179   6.506   8.446  0.6908 -0.3538  1.1366
 3634TIP3   OH232536   5.715   4.633   7.003 -0.1323 -0.5861 -0.0268
 3634TIP3    H132537   5.722   4.692   6.927 -0.6253 -1.9046 -1.1320
 3634TIP3    H232538   5.660   4.681   7.065 -2.2164 -0.6512 -1.7175
 3635TIP3   OH232539   6.067   3.090   1.247 -0.3920  0.0420  0.0044
 3635TIP3    H132540   6.091   3.177   1.215  2.4039  0.4827  2.7778
 3635TIP3    H232541   6.130   3.032   1.204  0.5963  0.0563  1.3820
 3636TIP3   OH232542   3.195   3.685   7.374 -0.1950 -0.6758 -0.1512
 3636TIP3    H132543   3.159   3.719   7.292  1.1237 -1.4484 -1.0972
 3636TIP3    H232544   3.122   3.691   7.436 -2.2876 -2.9780 -2.1540
 3637TIP3   OH232545   1.041   6.392   2.125 -0.2982  0.1492  0.1009
 3637TIP3    H132546   1.012   6.394   2.033  2.9893  0.2755 -1.0888
 3637TIP3    H232547   1.064   6.301   2.141  0.3725  0.3606  0.3527
 3638TIP3   OH232548   6.516   2.746   0.646 -0.0406 -0.2653 -0.2567
 3638TIP3    H132549   6.566   2.694   0.709  0.1725 -0.6696 -0.7461
 3638TIP3    H232550   6.583   2.789   0.593 -0.1823 -1.1429 -1.1923
 3639TIP3   OH232551   6.196   5.351   6.887 -0.6123  0.0591 -0.1339
 3639TIP3    H132552   6.233   5.263   6.897  2.4382  1.2781  0.4392
 3639TIP3    H232553   6.182   5.360   6.792 -2.5266 -1.5187 -0.0770
 3640TIP3   OH232554   6.800   5.754   0.057 -0.0122  0.3867 -0.5990
 3640TIP3    H132555   6.831   5.715   0.139 -0.2684  0.8655 -0.2687
 3640TIP3    H232556   6.795   5.681  -0.004 -1.8744 -0.3879  0.3916
 3641TIP3   OH232557   1.102   3.550   0.154  0.5501 -0.2331  0.2125
 3641TIP3    H132558   1.196   3.555   0.168  0.4402 -0.1665  0.9689
 3641TIP3    H232559   1.065   3.533   0.241  0.0529 -3.0576 -0.4473
 3642TIP3   OH232560   6.061   4.867   2.546  0.2347 -0.3756  0.1130
 3642TIP3    H132561   6.011   4.820   2.612 -0.2660  1.1121  0.8395
 3642TIP3    H232562   6.141   4.895   2.591  0.5190 -0.5044 -0.3003
 3643TIP3   OH232563   1.120   1.056   7.938  0.3111  0.1922 -0.8468
 3643TIP3    H132564   1.114   1.033   7.845  0.9975  0.6082 -0.9927
 3643TIP3    H232565   1.157   1.144   7.940  1.4215 -0.2691 -0.1448
 3644TIP3   OH232566   3.923   1.352   7.315 -0.4080  0.1962  0.0860
 3644TIP3    H132567   3.950   1.342   7.407 -1.1370  0.8429  0.3772
 3644TIP3    H232568   3.837   1.310   7.311 -0.2533 -0.0888 -0.3826
 3645TIP3   OH232569   5.861   2.097   7.254  0.0995 -0.1093  0.0874
 3645TIP3    H132570   5.781   2.060   7.218 -0.3843  0.3363  0.6829
 3645TIP3    H232571   5.901   2.025   7.303 -0.2620 -0.1563  0.3155
 3646TIP3   OH232572   2.226   5.183   7.686  0.0177 -0.4084 -0.2332
 3646TIP3    H132573   2.256   5.261   7.733  1.0970 -2.0409  1.9784
 3646TIP3    H232574   2.163   5.142   7.745  1.0279 -2.2751 -0.3699
 3647TIP3   OH232575   0.500   1.831   8.310  0.0528 -0.4088  0.2058
 3647TIP3    H132576   0.423   1.777   8.328  0.4272 -0.6916  0.9645
 3647TIP3    H232577   0.478   1.917   8.346 -0.1515 -0.3114 -0.1395
 3648TIP3   OH232578   1.816   1.200   1.101 -0.4639 -0.0401  0.0938
 3648TIP3    H132579   1.759   1.203   1.025  0.6112  0.6830 -0.7222
 3648TIP3    H232580   1.760   1.224   1.175 -1.3764 -0.1348 -0.5545
 3649TIP3   OH232581   4.950   3.454   7.716 -0.1560 -0.1629  0.2794
 3649TIP3    H132582   4.977   3.366   7.743 -0.6252 -0.0438  1.1588
 3649TIP3    H232583   5.019   3.511   7.749 -1.0550  0.0583  1.8830
 3650TIP3   OH232584   3.490   0.234   0.164  0.1585 -0.2075 -0.0115
 3650TIP3    H132585   3.512   0.286   0.086 -0.1107  0.7373  0.5296
 3650TIP3    H232586   3.574   0.220   0.208  0.2784 -0.5443 -0.3345
 3651TIP3   OH232587   6.709   4.520   0.888  0.1179  0.3463  0.7510
 3651TIP3    H132588   6.748   4.564   0.963  0.3578 -0.5020  1.1384
 3651TIP3    H232589   6.636   4.576   0.862 -0.1400  0.5066  1.7973
 3652TIP3   OH232590   6.240   4.589   0.732  0.0474 -0.9591 -0.2938
 3652TIP3    H132591   6.192   4.658   0.687  0.0960 -0.6413  0.1284
 3652TIP3    H232592   6.253   4.623   0.821  0.0240 -1.5361 -0.0654
 3653TIP3   OH232593   0.514   5.100   0.758  0.0728 -0.3160  0.7959
 3653TIP3    H132594   0.572   5.143   0.821 -0.5536  1.1581  0.4122
 3653TIP3    H232595   0.565   5.026   0.725  2.1966  1.5173 -0.3094
 3654TIP3   OH232596   1.290   0.501   1.190 -0.4004 -0.1090 -0.0278
 3654TIP3    H132597   1.363   0.554   1.157  1.0664 -1.2326  1.2701
 3654TIP3    H232598   1.302   0.415   1.149 -1.4082 -0.1372 -0.3065
 3655TIP3   OH232599   2.512   5.718   6.984 -0.3931 -0.2365 -0.0760
 3655TIP3    H132600   2.444   5.764   6.935 -1.1085 -1.4187 -0.2367
 3655TIP3    H232601   2.475   5.631   7.000  0.1950 -0.1943  1.7462
 3656TIP3   OH232602   6.458   4.150   0.758  0.2256  0.6151 -0.8949
 3656TIP3    H132603   6.367   4.180   0.762  0.4605  1.3592 -1.0601
 3656TIP3    H232604   6.504   4.204   0.822  0.3123 -0.6699  0.1686
 3657TIP3   OH232605   4.937   6.585   2.196  0.0087  0.0560  0.4069
 3657TIP3    H132606   4.960   6.649   2.129  0.5079 -0.9138 -0.3780
 3657TIP3    H232607   4.995   6.605   2.269  0.8956 -0.1409 -0.2244
 3658TIP3   OH232608   3.283   2.019   2.103 -0.4237  0.5331 -0.0973
 3658TIP3    H132609   3.237   1.946   2.062 -0.9137  0.7792  0.0143
 3658TIP3    H232610   3.374   2.008   2.075 -0.3430 -0.5419  0.5008
 3659TIP3   OH232611   1.780   6.721   0.024  0.0846 -0.3261  0.1034
 3659TIP3    H132612   1.735   6.770  -0.046 -0.8414 -1.2415  0.0311
 3659TIP3    H232613   1.873   6.727   0.002 -0.0164  1.2063 -0.0243
 3660TIP3   OH232614   5.877   2.601   0.542 -0.3225  0.5885  0.2279
 3660TIP3    H132615   5.955   2.620   0.594  0.4020  0.1392 -0.6507
 3660TIP3    H232616   5.894   2.641   0.457 -1.8274  1.9895  0.5334
 3661TIP3   OH232617   0.848   2.095   0.775  0.2475 -0.0078 -0.0953
 3661TIP3    H132618   0.847   2.063   0.865  3.1252  0.0828  0.0643
 3661TIP3    H232619   0.784   2.040   0.729 -2.4340  0.9250  2.2025
 3662TIP3   OH232620   4.707   3.927   6.677  0.0319 -0.0995  0.2656
 3662TIP3    H132621   4.627   3.895   6.636 -0.5109  1.1253  0.3104
 3662TIP3    H232622   4.753   3.848   6.705 -1.1022 -0.8370  0.1266
 3663TIP3   OH232623   0.137   6.561   8.742  0.4906  0.1219  0.1379
 3663TIP3    H132624   0.178   6.635   8.787  1.0672  0.5304 -1.0431
 3663TIP3    H232625   0.045   6.565   8.770  0.4986  1.3196  0.0400
 3664TIP3   OH232626   0.839   5.223   7.997 -0.2421  0.0992 -0.0615
 3664TIP3    H132627   0.805   5.137   7.971 -1.2999  0.8379 -1.2735
 3664TIP3    H232628   0.762   5.272   8.025  0.4278  0.4969  1.1601
 3665TIP3   OH232629   0.253   3.678   7.516  0.1733  0.2292 -0.7237
 3665TIP3    H132630   0.293   3.690   7.429  1.4244  1.6632  0.0003
 3665TIP3    H232631   0.186   3.746   7.521  0.1908  0.2310 -0.5223
 3666TIP3   OH232632   5.954   3.339   8.516  0.6276 -0.1168 -0.0739
 3666TIP3    H132633   5.991   3.423   8.486  0.1729  0.2946  0.5012
 3666TIP3    H232634   5.883   3.321   8.454  0.8242 -0.1578 -0.2903
 3667TIP3   OH232635   1.978   3.971   6.765  0.1077 -0.2467 -0.0584
 3667TIP3    H132636   1.989   3.913   6.840 -0.4757  0.3254  0.4862
 3667TIP3    H232637   1.978   4.059   6.803  2.2393  0.2216 -1.0035
 3668TIP3   OH232638   4.415   4.646   2.108 -1.0549 -0.1650  0.0446
 3668TIP3    H132639   4.494   4.652   2.054 -1.0976  1.0953  0.1093
 3668TIP3    H232640   4.385   4.736   2.118 -3.2198 -0.7132 -1.0045
 3669TIP3   OH232641   1.486   3.816   1.700  0.2922 -0.0354 -0.3960
 3669TIP3    H132642   1.490   3.760   1.776  0.7473  0.0207 -0.3762
 3669TIP3    H232643   1.397   3.850   1.700 -0.0448 -0.8985 -0.5160
 3670TIP3   OH232644   0.117   1.807   7.430 -0.1788  0.3755  0.2841
 3670TIP3    H132645   0.168   1.881   7.463  0.8168 -0.1551 -0.0425
 3670TIP3    H232646   0.055   1.847   7.369 -1.0818  1.1869  1.6621
 3671TIP3   OH232647   2.909   5.455   6.437 -0.5905  0.6135  0.4124
 3671TIP3    H132648   2.991   5.423   6.402  0.7606  1.5556  2.4965
 3671TIP3    H232649   2.853   5.469   6.360  1.4033  0.5544 -1.1118
 3672TIP3   OH232650   5.603   6.701   7.040  0.8646  0.1567  0.6137
 3672TIP3    H132651   5.554   6.671   6.963 -0.5154  1.0390  1.1042
 3672TIP3    H232652   5.668   6.762   7.005  0.3001  0.4914  0.1226
 3673TIP3   OH232653   3.368   2.388   8.600 -0.0826  0.4058  0.5160
 3673TIP3    H132654   3.283   2.407   8.561  0.6103 -0.3015 -1.4623
 3673TIP3    H232655   3.367   2.293   8.613  1.1260  0.0388 -1.5491
 3674TIP3   OH232656   3.113   0.593   7.763 -0.5094 -0.2562  0.2096
 3674TIP3    H132657   3.072   0.511   7.789  0.3512 -0.9515 -0.5339
 3674TIP3    H232658   3.159   0.571   7.682 -1.4757  1.3214 -0.8265
 3675TIP3   OH232659   0.446   6.432   1.070 -0.3540  0.1099 -0.2717
 3675TIP3    H132660   0.505   6.367   1.109  0.9436  1.7862  0.6999
 3675TIP3    H232661   0.450   6.413   0.976  1.1870 -0.2936 -0.1663
 3676TIP3   OH232662   5.434   0.184   6.491  0.3426  0.0734  0.3472
 3676TIP3    H132663   5.430   0.127   6.414  2.5818  1.1700 -0.6994
 3676TIP3    H232664   5.478   0.263   6.459  2.9926 -0.1242  3.0771
 3677TIP3   OH232665   3.238   6.020   2.019 -0.2289  0.7693  0.0812
 3677TIP3    H132666   3.317   6.031   2.072 -0.2753 -1.8432  0.8526
 3677TIP3    H232667   3.172   6.076   2.061  1.3127  3.6745 -1.0788
 3678TIP3   OH232668   6.649   5.100   0.741 -0.4754  0.0893 -0.0182
 3678TIP3    H132669   6.674   5.190   0.718  0.2390  0.3127  1.4943
 3678TIP3    H232670   6.594   5.110   0.819  0.1216 -0.8047  0.5352
 3679TIP3   OH232671   2.537   0.323   0.715 -1.0581 -0.4641 -0.1471
 3679TIP3    H132672   2.598   0.396   0.729 -0.9645 -0.5640 -0.0362
 3679TIP3    H232673   2.451   0.365   0.711 -1.2643 -0.5729  2.1690
 3680TIP3   OH232674   5.154   3.938   2.424  0.2438  0.7074 -0.0132
 3680TIP3    H132675   5.068   3.897   2.414  0.3694 -0.0092  1.6113
 3680TIP3    H232676   5.210   3.868   2.457  1.2098  1.4330 -0.0763
 3681TIP3   OH232677   2.650   1.697   7.404  1.1253 -0.2102  0.9082
 3681TIP3    H132678   2.614   1.698   7.493  0.1158  1.4055  0.5316
 3681TIP3    H232679   2.627   1.783   7.368  0.5602 -1.1942 -1.2718
 3682TIP3   OH232680   0.543   0.959   0.365  0.3344 -0.0186 -0.6145
 3682TIP3    H132681   0.562   0.922   0.279  0.6679  1.3318 -1.1409
 3682TIP3    H232682   0.619   0.935   0.419  0.0581 -0.9884 -0.6416
 3683TIP3   OH232683   2.365   2.660   0.659 -0.2875 -0.4932  0.6527
 3683TIP3    H132684   2.416   2.651   0.579  0.0203 -0.7904  0.8772
 3683TIP3    H232685   2.430   2.676   0.727 -0.6897  1.7813  0.5532
 3684TIP3   OH232686   2.976   2.390   1.580 -0.0409  0.3929  0.2579
 3684TIP3    H132687   3.038   2.326   1.615 -0.1584  0.0763 -0.1015
 3684TIP3    H232688   3.009   2.475   1.611  1.4917  0.3981 -1.1857
 3685TIP3   OH232689   2.002   6.364   2.109 -0.2248  0.2312 -0.6057
 3685TIP3    H132690   1.933   6.357   2.175  0.5487 -1.0769  0.1043
 3685TIP3    H232691   2.075   6.405   2.155 -1.0353  3.3374 -1.8280
 3686TIP3   OH232692   1.240   6.104   7.936 -0.5749 -0.1479  0.3182
 3686TIP3    H132693   1.229   6.009   7.947  0.5451 -0.3806 -0.3923
 3686TIP3    H232694   1.333   6.119   7.950 -0.4608  0.6241 -1.0996
 3687TIP3   OH232695   6.165   1.184   7.290 -0.2933 -0.1328  0.7263
 3687TIP3    H132696   6.228   1.142   7.349  0.3695  0.7169  0.6395
 3687TIP3    H232697   6.098   1.117   7.274  0.3648 -0.9000  1.1624
 3688TIP3   OH232698   1.764   5.350   0.231 -0.0039  0.5896  0.5965
 3688TIP3    H132699   1.698   5.395   0.179  0.7985  0.9784 -0.1134
 3688TIP3    H232700   1.772   5.264   0.190 -0.4711  0.3338  1.0348
 3689TIP3   OH232701   5.797   5.913   8.757 -0.6137 -0.0142 -0.5667
 3689TIP3    H132702   5.747   5.845   8.802 -1.9431  0.7061 -0.9089
 3689TIP3    H232703   5.748   5.993   8.773  0.9468  0.8923 -0.1443
 3690TIP3   OH232704   2.658   5.147   2.751  0.2899  0.8068 -0.2978
 3690TIP3    H132705   2.716   5.127   2.678 -1.2062 -1.0518 -1.0861
 3690TIP3    H232706   2.574   5.107   2.726 -0.5934  1.1399  1.9129
 3691TIP3   OH232707   0.399   3.729   7.781  0.2039 -0.3416  0.0913
 3691TIP3    H132708   0.493   3.715   7.792  0.0942 -0.8675  0.4575
 3691TIP3    H232709   0.388   3.750   7.689  0.6217 -0.8589 -0.0846
 3692TIP3   OH232710   3.352   2.137   8.521  0.5634 -0.3465 -0.2026
 3692TIP3    H132711   3.399   2.057   8.496  0.9208 -0.4264  0.6965
 3692TIP3    H232712   3.321   2.173   8.438  0.7973 -1.1730 -0.6611
 3693TIP3   OH232713   4.960   6.571   1.091 -0.2030 -0.0226 -0.3386
 3693TIP3    H132714   4.934   6.636   1.156  0.0607  0.2511 -0.5049
 3693TIP3    H232715   5.052   6.552   1.111 -0.2004 -0.1433 -0.4607
 3694TIP3   OH232716   0.131   0.717   0.811 -0.6027  0.3039 -0.1231
 3694TIP3    H132717   0.065   0.741   0.746 -0.0292  1.6759 -0.2284
 3694TIP3    H232718   0.161   0.631   0.783 -2.7270 -0.6372  0.2451
 3695TIP3   OH232719   3.775   1.974   1.778  0.4853 -0.4438 -0.4278
 3695TIP3    H132720   3.844   2.028   1.741  0.1008 -0.4094 -1.1081
 3695TIP3    H232721   3.808   1.949   1.865  0.4811  1.2319  0.0913
 3696TIP3   OH232722   4.707   0.376   2.141  1.0108  0.1617 -0.0701
 3696TIP3    H132723   4.679   0.419   2.060  1.6178 -0.1275 -0.4457
 3696TIP3    H232724   4.675   0.433   2.211 -1.7666 -0.8814 -0.3908
 3697TIP3   OH232725   4.694   3.573   1.099 -0.1501 -0.3393  0.0764
 3697TIP3    H132726   4.779   3.565   1.142 -0.7016 -1.0827  1.0650
 3697TIP3    H232727   4.632   3.534   1.161 -1.2458  0.4045 -0.5198
 3698TIP3   OH232728   6.270   5.160   0.506 -0.2481 -0.2217  0.1608
 3698TIP3    H132729   6.312   5.075   0.500  1.1004  0.3609  0.9413
 3698TIP3    H232730   6.342   5.222   0.515 -1.2213  0.6797  3.1455
 3699TIP3   OH232731   4.889   1.998   8.788  0.8188  0.1611  0.2187
 3699TIP3    H132732   4.962   1.937   8.781  1.0196  0.2725  1.1733
 3699TIP3    H232733   4.857   1.986   8.877  2.6677  3.4434  1.4772
 3700TIP3   OH232734   3.203   6.333   1.814  0.6952 -0.3496 -0.0905
 3700TIP3    H132735   3.138   6.400   1.793  1.3910  0.7098  0.9559
 3700TIP3    H232736   3.169   6.253   1.775 -0.5476  0.4537 -0.7283
 3701TIP3   OH232737   4.499   6.532   1.497  0.1216  0.4511  0.0538
 3701TIP3    H132738   4.593   6.512   1.497  0.3515  1.4277 -0.7782
 3701TIP3    H232739   4.457   6.452   1.527  1.3427  0.6370  2.4673
 3702TIP3   OH232740   3.345   5.586   1.042 -0.2536 -1.0550 -0.0636
 3702TIP3    H132741   3.345   5.500   1.001 -0.1589 -1.3719  0.5857
 3702TIP3    H232742   3.382   5.571   1.129 -0.7434 -0.4514  0.2543
 3703TIP3   OH232743   0.861   5.171   6.428 -0.2983 -0.3532  0.2744
 3703TIP3    H132744   0.811   5.230   6.485  0.9650 -0.1805  1.2596
 3703TIP3    H232745   0.952   5.184   6.454  0.1436 -1.7180 -0.4664
 3704TIP3   OH232746   4.523   5.508   7.653  0.3178 -0.1347 -0.3549
 3704TIP3    H132747   4.582   5.474   7.586  0.3434 -0.6523 -0.0796
 3704TIP3    H232748   4.450   5.445   7.654  0.5591 -0.4047  0.4448
 3705TIP3   OH232749   5.297   3.000   1.843 -0.1543  0.1045 -0.1580
 3705TIP3    H132750   5.216   3.037   1.878 -0.2658  0.3734 -0.6944
 3705TIP3    H232751   5.298   2.910   1.876 -0.3985  0.2653  0.2979
 3706TIP3   OH232752   4.350   3.236   0.597 -0.3167 -0.0546  0.1776
 3706TIP3    H132753   4.425   3.193   0.639 -1.3142 -2.2453 -0.1546
 3706TIP3    H232754   4.382   3.262   0.511  0.2632 -0.3700  0.2924
 3707TIP3   OH232755   1.757   6.031   1.352  0.0425  0.1123  0.5277
 3707TIP3    H132756   1.806   6.042   1.433  0.9885 -2.5622  0.3948
 3707TIP3    H232757   1.762   5.938   1.332 -1.4890  0.4251 -1.7969
 3708TIP3   OH232758   3.038   3.287   6.514  0.3967  0.0860 -0.3754
 3708TIP3    H132759   2.980   3.291   6.590  0.2892  0.6297 -0.4791
 3708TIP3    H232760   2.979   3.276   6.440  0.3415  1.4592 -0.5677
 3709TIP3   OH232761   4.045   6.807   0.663  0.1957 -0.3523 -0.0751
 3709TIP3    H132762   3.961   6.777   0.698 -1.1231 -0.1950 -2.8000
 3709TIP3    H232763   4.045   6.901   0.679 -1.0376 -0.0486 -1.5488
 3710TIP3   OH232764   4.955   1.954   2.142 -0.0511  0.5654 -0.0912
 3710TIP3    H132765   4.889   1.980   2.077  0.6565  0.4033 -0.8856
 3710TIP3    H232766   5.038   1.985   2.107  0.1182  2.6435  1.8919
 3711TIP3   OH232767   6.558   6.689   1.067 -0.1893 -0.1287  0.5013
 3711TIP3    H132768   6.637   6.740   1.085 -0.3066  0.4397 -0.5481
 3711TIP3    H232769   6.575   6.645   0.984 -0.9109 -0.1435  0.3506
 3712TIP3   OH232770   4.616   6.010   7.212 -0.5068 -0.5987  0.2618
 3712TIP3    H132771   4.614   5.916   7.196  0.8060 -0.3842 -1.3745
 3712TIP3    H232772   4.707   6.030   7.231 -0.4576  0.5737 -1.0656
 3713TIP3   OH232773   1.688   4.219   0.357 -0.0251  0.4570  0.3814
 3713TIP3    H132774   1.636   4.139   0.347 -1.3277  1.3293 -0.0470
 3713TIP3    H232775   1.716   4.218   0.448  1.6164 -1.4326 -0.0661
 3714TIP3   OH232776   6.022   4.733   8.023 -0.2945  0.4242  0.3715
 3714TIP3    H132777   5.970   4.795   7.971  0.2569 -0.5952 -1.4657
 3714TIP3    H232778   5.965   4.711   8.097 -1.4097  1.3591 -0.1682
 3715TIP3   OH232779   0.950   5.984   0.632 -0.1253 -0.0613  0.1035
 3715TIP3    H132780   0.952   5.927   0.555  0.7033  1.3695 -0.9927
 3715TIP3    H232781   1.003   6.060   0.607  1.6197 -0.2796  2.6901
 3716TIP3   OH232782   0.611   1.781   0.380  0.0126  0.3349  0.2295
 3716TIP3    H132783   0.645   1.765   0.292  1.2026 -0.1150  0.7516
 3716TIP3    H232784   0.539   1.718   0.390  0.7267 -0.5345  0.0494
 3717TIP3   OH232785   3.410   4.839   8.309 -0.3726 -0.6663  0.2492
 3717TIP3    H132786   3.372   4.926   8.297  2.2081  0.8235  1.9587
 3717TIP3    H232787   3.366   4.803   8.386 -1.4249 -0.9284 -0.4470
 3718TIP3   OH232788   3.462   4.038   8.709 -0.1505 -0.1719 -0.6880
 3718TIP3    H132789   3.464   4.036   8.613 -1.1470  0.6683 -0.7387
 3718TIP3    H232790   3.389   3.981   8.733  0.0213 -0.2865 -0.4316
 3719TIP3   OH232791   3.543   1.063   8.293  0.1253  0.0375  0.5496
 3719TIP3    H132792   3.555   1.138   8.236  2.4744 -0.1098  0.7389
 3719TIP3    H232793   3.520   1.101   8.378 -2.3445  0.2972 -0.1480
 3720TIP3   OH232794   3.132   5.523   8.101  0.0457 -0.0183 -0.4646
 3720TIP3    H132795   3.115   5.596   8.161 -0.5198  0.1769 -0.8564
 3720TIP3    H232796   3.063   5.529   8.035  0.4768 -0.4187 -0.9659
 3721TIP3   OH232797   4.318   5.692   8.340  0.0538  0.1815 -0.3162
 3721TIP3    H132798   4.263   5.698   8.262 -1.7114 -1.9462  0.6667
 3721TIP3    H232799   4.326   5.598   8.356  2.5037  0.4879  0.6710
 3722TIP3   OH232800   0.778   1.287   0.913  0.1325 -0.5174 -0.4326
 3722TIP3    H132801   0.809   1.200   0.936  0.4247 -0.4617 -0.6139
 3722TIP3    H232802   0.749   1.325   0.996  0.6676 -0.5229 -0.2385
 3723TIP3   OH232803   4.479   3.448   8.185 -0.3876 -0.2181 -0.2670
 3723TIP3    H132804   4.386   3.427   8.185 -0.3347 -0.4633 -0.8937
 3723TIP3    H232805   4.492   3.502   8.107 -0.2658  1.0201  0.5905
 3724TIP3   OH232806   4.866   0.714   7.097 -0.2869 -0.1857  0.2743
 3724TIP3    H132807   4.953   0.750   7.113 -0.8563  0.8277  1.2632
 3724TIP3    H232808   4.840   0.676   7.181 -1.0540  0.1030  0.1781
 3725TIP3   OH232809   2.547   1.258   1.591 -0.3304  0.1570  0.0560
 3725TIP3    H132810   2.562   1.266   1.686 -3.2368 -1.3463  0.7673
 3725TIP3    H232811   2.545   1.164   1.575 -0.2294  0.3873 -1.4659
 3726TIP3   OH232812   4.879   4.860   1.947 -0.1139  0.2092  0.8316
 3726TIP3    H132813   4.899   4.779   1.901 -1.0440 -0.8368  2.2068
 3726TIP3    H232814   4.931   4.927   1.902  0.4185 -1.0794 -0.5267
 3727TIP3   OH232815   5.210   1.002   6.893  0.0445 -0.1787 -0.4664
 3727TIP3    H132816   5.253   1.017   6.809 -0.6647  0.1613 -0.7783
 3727TIP3    H232817   5.156   1.080   6.906 -2.6054 -1.7178 -1.4183
 3728TIP3   OH232818   2.272   5.759   8.623  0.4832 -0.0738 -0.3916
 3728TIP3    H132819   2.281   5.687   8.685  0.9872  0.4618  0.1775
 3728TIP3    H232820   2.362   5.791   8.610  0.3368  0.0736 -1.0912
 3729TIP3   OH232821   2.194   4.180   8.234  0.2376 -0.2517 -0.1215
 3729TIP3    H132822   2.151   4.172   8.148 -0.4526 -0.8618  0.2601
 3729TIP3    H232823   2.125   4.157   8.296  0.6870  0.3562  0.6090
 3730TIP3   OH232824   2.251   4.633   0.973  0.0145  0.6927  0.0384
 3730TIP3    H132825   2.224   4.687   0.899 -0.2684  1.1805  0.4910
 3730TIP3    H232826   2.280   4.696   1.039  1.1752  0.2274 -0.0045
 3731TIP3   OH232827   2.187   4.590   7.997 -0.0992  0.8090  0.0438
 3731TIP3    H132828   2.203   4.571   7.905  1.2166  0.1553  0.3918
 3731TIP3    H232829   2.245   4.531   8.045 -1.6969  0.1976  1.3462
 3732TIP3   OH232830   4.533   3.473   8.740 -0.0681 -0.7579  0.4187
 3732TIP3    H132831   4.497   3.499   8.824 -1.4025 -0.6569 -0.1544
 3732TIP3    H232832   4.611   3.529   8.728 -2.2768  2.4545 -0.3446
 3733TIP3   OH232833   2.386   0.552   7.593 -0.2556 -0.0024 -1.2355
 3733TIP3    H132834   2.305   0.523   7.551  0.1376  0.5721 -2.4325
 3733TIP3    H232835   2.443   0.475   7.591 -0.5478 -0.2266 -0.9616
 3734TIP3   OH232836   5.455   0.686   0.630 -0.6318 -0.3332  0.3241
 3734TIP3    H132837   5.484   0.596   0.641  1.8250  0.4976  1.2942
 3734TIP3    H232838   5.433   0.694   0.538  0.3282 -1.6062 -0.0357
 3735TIP3   OH232839   4.104   2.945   5.993 -0.1481 -0.2250 -0.3505
 3735TIP3    H132840   4.155   2.868   5.967  0.7112  0.4387 -0.7083
 3735TIP3    H232841   4.169   3.016   5.998 -0.8128  0.3395  0.6073
 3736TIP3   OH232842   0.636   6.685   0.396  0.1722 -0.1401 -0.5148
 3736TIP3    H132843   0.557   6.704   0.446  1.8854  1.2766  1.8389
 3736TIP3    H232844   0.689   6.765   0.402  2.8004 -1.7809  0.0323
 3737TIP3   OH232845   2.810   4.317   2.037 -0.1029 -0.0948  0.6177
 3737TIP3    H132846   2.796   4.258   2.111  0.6936  0.1541  0.9719
 3737TIP3    H232847   2.881   4.276   1.987  0.0795  0.2747  0.5676
 3738TIP3   OH232848   4.532   3.414   7.712 -0.6448 -0.2715 -0.0883
 3738TIP3    H132849   4.550   3.453   7.627 -1.5491  3.1298  1.1076
 3738TIP3    H232850   4.611   3.365   7.734  1.1435  1.8747 -1.3037
 3739TIP3   OH232851   5.507   1.206   1.778 -0.1170  0.6282 -0.1249
 3739TIP3    H132852   5.464   1.121   1.789 -0.4710  0.8493  0.2360
 3739TIP3    H232853   5.460   1.247   1.706 -1.1394  1.2391  0.8415
 3740TIP3   OH232854   1.791   1.769   8.734  0.0720 -0.3146 -0.6269
 3740TIP3    H132855   1.756   1.723   8.657 -1.0315  0.4688 -0.6094
 3740TIP3    H232856   1.874   1.725   8.751 -0.4131 -1.5710 -1.2925
 3741TIP3   OH232857   1.703   0.196   2.021  0.1655 -0.0011  0.6373
 3741TIP3    H132858   1.740   0.124   1.969  1.8990  0.3622  1.2852
 3741TIP3    H232859   1.698   0.160   2.110  0.1978  0.3910  0.7978
 3742TIP3   OH232860   6.402   4.954   1.143 -0.4607  0.2807 -0.7041
 3742TIP3    H132861   6.330   4.918   1.091  0.4739 -0.8519 -1.2382
 3742TIP3    H232862   6.358   4.995   1.218 -1.6600 -0.4271 -0.9859
 3743TIP3   OH232863   3.615   1.009   7.260  0.3779 -0.4737  0.1256
 3743TIP3    H132864   3.625   1.088   7.312  0.1647 -1.0329  1.0433
 3743TIP3    H232865   3.522   1.006   7.237  0.6782  0.3789 -1.3074
 3744TIP3   OH232866   2.003   4.439   1.674 -0.3740 -0.2021 -0.1590
 3744TIP3    H132867   2.080   4.447   1.730 -0.3150 -0.4582 -0.2061
 3744TIP3    H232868   2.025   4.491   1.596  0.3547 -1.4678 -0.8323
 3745TIP3   OH232869   4.374   4.082   8.001 -0.3399  0.0199  0.2939
 3745TIP3    H132870   4.391   4.022   8.074 -1.3008 -0.3009  0.2640
 3745TIP3    H232871   4.461   4.099   7.964 -0.0090 -1.0502  0.5387
 3746TIP3   OH232872   3.908   6.132   1.873 -0.7007 -0.1239  0.0344
 3746TIP3    H132873   3.848   6.110   1.945  1.1047 -1.7461  1.1309
 3746TIP3    H232874   3.994   6.134   1.913  0.3383 -0.7487 -2.0451
 3747TIP3   OH232875   4.197   6.082   1.940 -0.2226 -0.2751  0.4790
 3747TIP3    H132876   4.174   6.108   2.029 -3.6176  2.4404 -0.9566
 3747TIP3    H232877   4.256   6.150   1.909 -1.0046  0.1845 -0.0536
 3748TIP3   OH232878   4.693   3.706   0.428  0.3780 -0.3488 -0.0486
 3748TIP3    H132879   4.609   3.752   0.421 -0.0824 -1.2285 -0.5155
 3748TIP3    H232880   4.670   3.620   0.462  1.3014 -0.0493  1.4273
 3749TIP3   OH232881   3.389   4.755   6.931 -0.4113  0.2034  0.7206
 3749TIP3    H132882   3.343   4.690   6.984  0.1252 -0.5481  0.2836
 3749TIP3    H232883   3.394   4.715   6.844 -2.0034  1.7493 -0.1413
 3750TIP3   OH232884   0.838   2.429   2.286 -0.3797  0.1022 -0.0075
 3750TIP3    H132885   0.887   2.457   2.210 -1.6054 -0.3025 -0.9761
 3750TIP3    H232886   0.904   2.413   2.353  0.7468  0.1430 -1.0855
 3751TIP3   OH232887   4.504   6.082   0.852 -0.4867  0.0234 -0.1355
 3751TIP3    H132888   4.434   6.037   0.805  0.1019 -0.9232 -0.1191
 3751TIP3    H232889   4.462   6.161   0.887 -1.4651 -0.3652 -0.3993
 3752TIP3   OH232890   6.684   2.488   1.226 -0.5479  0.4838  0.8663
 3752TIP3    H132891   6.594   2.470   1.199 -0.7380 -2.5975  2.9607
 3752TIP3    H232892   6.677   2.562   1.285 -1.6388  0.6375  0.5731
 3753TIP3   OH232893   4.144   4.837   7.411  0.0377  0.0698 -0.6377
 3753TIP3    H132894   4.071   4.802   7.360 -0.1392 -0.7520  0.1488
 3753TIP3    H232895   4.103   4.892   7.478  0.2016  0.3016 -0.7248
 3754TIP3   OH232896   2.831   2.339   0.516 -0.4215 -0.3626 -0.2622
 3754TIP3    H132897   2.771   2.381   0.577 -0.2425  0.1767 -0.4578
 3754TIP3    H232898   2.908   2.318   0.569 -0.7013 -0.8942 -0.0528
 3755TIP3   OH232899   6.457   5.363   7.925 -0.2399  0.2865 -0.0671
 3755TIP3    H132900   6.505   5.317   7.855 -2.7036 -0.5863 -1.2848
 3755TIP3    H232901   6.521   5.370   7.996  1.6403 -0.9406 -1.5206
 3756TIP3   OH232902   4.799   6.468   6.952  0.4545  0.3094  0.2222
 3756TIP3    H132903   4.795   6.401   6.884 -0.2385 -0.3753  0.9234
 3756TIP3    H232904   4.780   6.422   7.034 -1.3564  1.5646  0.5646
 3757TIP3   OH232905   0.055   0.062   0.273  0.2681 -0.1894  0.1843
 3757TIP3    H132906   0.071   0.155   0.290  1.0080 -0.5056  1.2693
 3757TIP3    H232907   0.051   0.022   0.360 -0.4308 -1.1213 -0.2600
 3758TIP3   OH232908   3.770   4.024   7.620  0.2233  0.2120 -0.4984
 3758TIP3    H132909   3.810   4.100   7.662 -0.7212  0.7623 -0.5645
 3758TIP3    H232910   3.775   4.043   7.527 -0.6557  0.5308 -0.4853
 3759TIP3   OH232911   5.091   2.653   8.739  0.5101  0.2012  0.1108
 3759TIP3    H132912   5.085   2.572   8.791 -0.0685 -0.4745 -0.9694
 3759TIP3    H232913   5.174   2.647   8.693  0.5700  0.3344  0.1995
 3760TIP3   OH232914   5.244   4.613   2.204  0.7108  0.5293 -0.5286
 3760TIP3    H132915   5.279   4.553   2.138  1.8548  1.6844 -1.0211
 3760TIP3    H232916   5.267   4.574   2.288  2.4783  0.8008 -0.8413
 3761TIP3   OH232917   1.882   0.628   0.998 -0.5395  0.5732  0.3953
 3761TIP3    H132918   1.881   0.584   0.913  1.0895  1.0085  0.1279
 3761TIP3    H232919   1.895   0.720   0.976 -0.0999  0.6841  1.1224
 3762TIP3   OH232920   0.209   2.139   1.754  0.3076  0.0092 -0.1550
 3762TIP3    H132921   0.199   2.198   1.828 -3.0160 -1.7864  1.0261
 3762TIP3    H232922   0.141   2.166   1.692 -0.4372 -1.6906 -0.1447
 3763TIP3   OH232923   4.874   0.132   7.368 -0.0120  0.1695  0.0051
 3763TIP3    H132924   4.901   0.040   7.377 -0.8288 -0.0610  0.1770
 3763TIP3    H232925   4.795   0.128   7.314  1.1641  0.9606 -1.8735
 3764TIP3   OH232926   3.865   6.836   7.289  0.1129  0.1174  0.5935
 3764TIP3    H132927   3.902   6.802   7.370 -0.2026  0.2382  0.7930
 3764TIP3    H232928   3.879   6.930   7.294 -0.5461  0.2071  0.8455
 3765TIP3   OH232929   3.839   0.424   8.721  0.2432 -0.1160  0.2665
 3765TIP3    H132930   3.870   0.483   8.791  3.3867  0.3668 -1.3527
 3765TIP3    H232931   3.808   0.483   8.653 -1.5261 -0.5572  0.6405
 3766TIP3   OH232932   1.828   1.456   7.276  0.0266 -0.7073 -0.0162
 3766TIP3    H132933   1.892   1.412   7.221  0.7991 -1.4436  1.4029
 3766TIP3    H232934   1.881   1.503   7.341 -0.8630 -0.5593  0.6230
 3767TIP3   OH232935   3.336   3.841   8.475  0.0891  0.2818  0.5612
 3767TIP3    H132936   3.370   3.930   8.471  0.0836  0.4545  3.0036
 3767TIP3    H232937   3.274   3.836   8.403  2.4498  1.1513 -1.7280
 3768TIP3   OH232938   2.242   2.189   8.140 -0.1621  0.5897  0.3452
 3768TIP3    H132939   2.325   2.186   8.187  0.7944 -0.2668 -1.3063
 3768TIP3    H232940   2.182   2.232   8.201  1.2282  0.3692  1.9623
 3769TIP3   OH232941   4.308   6.859   1.006 -0.0199 -0.1594 -0.1648
 3769TIP3    H132942   4.261   6.884   1.086 -0.8261  0.0254 -0.6917
 3769TIP3    H232943   4.264   6.780   0.976  1.5993 -1.4464  0.6866
 3770TIP3   OH232944   0.394   0.848   2.087 -0.4888 -0.4712 -0.5584
 3770TIP3    H132945   0.412   0.809   2.172 -2.3101 -0.3862 -0.0870
 3770TIP3    H232946   0.437   0.934   2.090 -3.1300  0.9599  1.6321
 3771TIP3   OH232947   0.239   4.636   1.807 -0.1050  0.0217 -0.0549
 3771TIP3    H132948   0.204   4.548   1.792  0.9658 -0.1009 -2.2431
 3771TIP3    H232949   0.330   4.632   1.778  0.2317  1.6331  0.6383
 3772TIP3   OH232950   6.844   5.837   0.563  0.3296 -0.4437 -0.2954
 3772TIP3    H132951   6.938   5.828   0.547  0.2541  1.4149 -2.4455
 3772TIP3    H232952   6.812   5.748   0.573  2.3262 -1.1057  0.7012
 3773TIP3   OH232953   3.636   1.543   7.670 -0.2662 -0.3507  0.0121
 3773TIP3    H132954   3.641   1.616   7.608 -0.0233  0.4914  1.0024
 3773TIP3    H232955   3.718   1.548   7.720 -1.0317 -0.1908  1.3025
 3774TIP3   OH232956   2.565   4.041   7.064  0.8025 -0.1866  0.4719
 3774TIP3    H132957   2.544   4.106   7.131 -1.6215  1.2068 -1.4985
 3774TIP3    H232958   2.581   4.093   6.985  1.1227 -1.8953 -0.6288
 3775TIP3   OH232959   3.733   4.325   7.475 -0.0533  0.2094 -0.1784
 3775TIP3    H132960   3.717   4.235   7.444  1.8537  0.3492 -1.8117
 3775TIP3    H232961   3.654   4.373   7.451 -0.1360 -0.5387 -1.5123
 3776TIP3   OH232962   2.991   1.931   7.546 -0.4888  0.3483  0.2320
 3776TIP3    H132963   2.955   1.845   7.571 -2.6537  1.2292  0.3100
 3776TIP3    H232964   2.916   1.990   7.547  1.1070  2.4732  1.0572
 3777TIP3   OH232965   5.590   2.709   1.118  0.4994 -0.0964 -0.2005
 3777TIP3    H132966   5.647   2.728   1.193  0.5171  0.6533 -0.3990
 3777TIP3    H232967   5.645   2.655   1.060 -0.5114 -3.4237  1.7112
 3778TIP3   OH232968   4.286   6.114   8.480  0.4796 -0.1065 -0.7612
 3778TIP3    H132969   4.220   6.146   8.541 -0.8298 -0.2194 -2.0617
 3778TIP3    H232970   4.370   6.138   8.520 -0.2404 -1.6665  1.9016
 3779TIP3   OH232971   2.865   2.115   8.730  0.4195 -0.9848  0.1774
 3779TIP3    H132972   2.783   2.095   8.774 -0.0284 -0.2739 -0.3001
 3779TIP3    H232973   2.838   2.157   8.648  1.2614 -0.5064  0.1354
 3780TIP3   OH232974   2.484   2.689   2.259  0.5345  0.7509  0.2114
 3780TIP3    H132975   2.458   2.597   2.260  0.1384  0.8497 -0.5497
 3780TIP3    H232976   2.411   2.735   2.300  0.4385  0.7998 -0.0148
 3781TIP3   OH232977   6.672   1.273   2.079 -0.1958  0.1749  0.3608
 3781TIP3    H132978   6.630   1.274   1.993  0.2176 -0.3715  0.1480
 3781TIP3    H232979   6.646   1.190   2.118 -2.3681  1.4190  1.7861
 3782TIP3   OH232980   3.591   3.897   7.801 -0.1254 -0.6277 -0.4019
 3782TIP3    H132981   3.648   3.940   7.737  0.8198 -2.9921 -1.2580
 3782TIP3    H232982   3.536   3.838   7.748 -1.3174 -0.5607  0.7094
 3783TIP3   OH232983   5.179   0.289   7.805 -0.0388  0.1775  0.4189
 3783TIP3    H132984   5.099   0.284   7.753 -0.2921 -0.0499  0.8254
 3783TIP3    H232985   5.239   0.341   7.752  0.2942 -1.4502 -0.8925
 3784TIP3   OH232986   5.596   6.095   0.076 -0.5786  0.2379 -0.7483
 3784TIP3    H132987   5.663   6.155   0.111  0.5400 -0.7764 -1.0723
 3784TIP3    H232988   5.529   6.091   0.144  0.5222 -0.0489  0.3531
 3785TIP3   OH232989   6.840   1.590   1.144 -0.0961 -0.0050  0.4444
 3785TIP3    H132990   6.841   1.495   1.132  1.8464  0.1603 -1.0924
 3785TIP3    H232991   6.749   1.609   1.170 -0.8746 -2.1302 -0.4564
 3786TIP3   OH232992   3.961   1.575   6.548 -0.5057  0.1103  0.0348
 3786TIP3    H132993   3.960   1.488   6.507 -0.5002 -0.5706  1.4395
 3786TIP3    H232994   4.054   1.592   6.565 -0.5330  0.2573  0.0361
 3787TIP3   OH232995   0.941   1.807   7.370  0.4902 -0.3660  0.1245
 3787TIP3    H132996   0.920   1.760   7.450  0.0284  0.6952  0.6468
 3787TIP3    H232997   0.923   1.899   7.390  0.2381 -0.0915 -1.2393
 3788TIP3   OH232998   5.752   6.816   7.772 -0.3729  0.3568 -0.1029
 3788TIP3    H132999   5.690   6.777   7.834 -0.8611 -0.1062 -0.8550
 3788TIP3    H233000   5.793   6.741   7.729  0.0319  0.6662 -0.2615
 3789TIP3   OH233001   5.424   0.245   8.668 -0.3934  0.4469  0.0710
 3789TIP3    H133002   5.481   0.189   8.616  2.1211  0.8882  2.1526
 3789TIP3    H233003   5.374   0.185   8.723 -1.4346  0.0971 -1.1984
 3790TIP3   OH233004   6.692   0.112   7.090  0.3069  0.5680  0.0811
 3790TIP3    H133005   6.743   0.121   7.009  0.8794 -3.0177 -0.1123
 3790TIP3    H233006   6.756   0.125   7.160  0.5633  0.3645 -0.1114
 3791TIP3   OH233007   2.140   5.448   6.435 -0.3968 -0.1456  0.1582
 3791TIP3    H133008   2.142   5.352   6.440 -0.7884 -0.1824 -0.4037
 3791TIP3    H233009   2.075   5.474   6.499  0.7101 -0.1685  1.3466
 3792TIP3   OH233010   1.414   2.772   6.537  0.6707 -0.4037 -0.4623
 3792TIP3    H133011   1.404   2.829   6.613  0.2929 -0.0206 -0.7993
 3792TIP3    H233012   1.480   2.708   6.564  1.1691  0.2463 -0.1156
 3793TIP3   OH233013   2.990   0.328   8.388 -0.3680 -0.1831 -0.2481
 3793TIP3    H133014   3.054   0.315   8.458 -1.1684 -1.9268  0.2304
 3793TIP3    H233015   2.907   0.342   8.433 -0.8534 -1.0939 -0.8215
 3794TIP3   OH233016   2.336   5.949   6.369 -0.0521  0.1995 -0.3193
 3794TIP3    H133017   2.314   5.920   6.280  0.8588 -1.0400 -0.1676
 3794TIP3    H233018   2.323   5.872   6.423 -2.4685  1.4201  1.0102
 3795TIP3   OH233019   6.780   3.572   7.407  0.1318 -0.1358  0.2703
 3795TIP3    H133020   6.846   3.505   7.425  0.2050  0.2457  1.4759
 3795TIP3    H233021   6.783   3.630   7.483 -0.1654  1.0515 -0.5868
 3796TIP3   OH233022   6.100   3.155   1.701 -0.1461  0.3320 -0.3142
 3796TIP3    H133023   6.079   3.238   1.657 -0.4343  0.2948 -0.2463
 3796TIP3    H233024   6.069   3.167   1.791 -1.2715 -0.2817 -0.6025
 3797TIP3   OH233025   1.662   2.674   8.011 -0.0750  0.3675 -0.8004
 3797TIP3    H133026   1.710   2.736   7.956 -0.7825  1.3790 -0.3045
 3797TIP3    H233027   1.658   2.716   8.097 -2.0485  0.4247 -0.8932
 3798TIP3   OH233028   3.555   0.042   7.198 -0.3395 -0.3941  0.0120
 3798TIP3    H133029   3.587   0.004   7.280  0.7454 -2.2560 -1.2284
 3798TIP3    H233030   3.585   0.133   7.201 -0.1249 -0.4844  1.5615
 3799TIP3   OH233031   5.525   1.590   8.613 -0.5277  0.1413  0.9446
 3799TIP3    H133032   5.487   1.564   8.529  2.1558 -1.8299  0.2082
 3799TIP3    H233033   5.485   1.531   8.677  0.1542 -0.9191  0.4191
 3800TIP3   OH233034   6.476   0.204   0.601  0.1276 -0.2602 -0.0974
 3800TIP3    H133035   6.399   0.257   0.581 -0.5436 -1.3578 -0.5398
 3800TIP3    H233036   6.526   0.256   0.664 -1.0220  0.4443  0.2582
 3801TIP3   OH233037   2.202   1.687   2.760 -0.1127  0.2406  0.4105
 3801TIP3    H133038   2.278   1.732   2.722  0.0477 -0.5716 -0.2762
 3801TIP3    H233039   2.204   1.600   2.720 -1.2634  0.1223  0.5874
 3802TIP3   OH233040   2.062   0.708   2.062  0.0409 -0.3628  0.0193
 3802TIP3    H133041   2.037   0.800   2.058 -0.0823 -0.2824  1.7506
 3802TIP3    H233042   2.018   0.675   2.141  1.3083 -1.5143  0.2702
 3803TIP3   OH233043   6.105   3.650   7.003  0.2622 -0.4637  0.0239
 3803TIP3    H133044   6.086   3.662   7.096  1.6556  1.6956  0.1039
 3803TIP3    H233045   6.108   3.738   6.967 -2.1691 -1.2864 -2.5644
 3804TIP3   OH233046   6.259   2.185   1.057  0.5816  0.1191  0.9049
 3804TIP3    H133047   6.287   2.251   1.121 -0.6371  1.3886  0.1571
 3804TIP3    H233048   6.290   2.218   0.973  0.8208 -0.7751  0.6289
 3805TIP3   OH233049   2.050   4.624   6.544  0.1228 -0.0153 -0.6803
 3805TIP3    H133050   2.030   4.553   6.483 -0.5792 -0.0061 -0.4732
 3805TIP3    H233051   2.146   4.628   6.546  0.1663 -0.7511 -0.9251
 3806TIP3   OH233052   3.027   1.182   8.382  0.0488 -0.7272  0.6718
 3806TIP3    H133053   3.117   1.214   8.382 -0.4611  0.7949  1.0133
 3806TIP3    H233054   3.011   1.154   8.292 -0.1030  1.9691 -0.2342
 3807TIP3   OH233055   6.484   2.188   2.603  0.4148 -0.1309  0.3499
 3807TIP3    H133056   6.453   2.108   2.561 -0.5445  0.7690 -0.7491
 3807TIP3    H233057   6.548   2.159   2.667  0.5955 -1.7163 -0.5040
 3808TIP3   OH233058   6.665   5.336   8.107  0.4747 -0.1685 -0.1983
 3808TIP3    H133059   6.741   5.394   8.100  0.8457 -0.4907  0.9381
 3808TIP3    H233060   6.690   5.272   8.174 -1.4465  0.7498  1.5181
 3809TIP3   OH233061   6.066   1.290   8.172  0.5334 -0.0000 -0.5844
 3809TIP3    H133062   6.092   1.199   8.161  0.6282  0.0856 -1.0766
 3809TIP3    H233063   6.147   1.340   8.163  0.9789 -0.0192  2.2849
 3810TIP3   OH233064   6.661   2.530   7.247  0.3546 -0.1423 -0.0084
 3810TIP3    H133065   6.684   2.622   7.262 -0.3296 -0.2316  1.7227
 3810TIP3    H233066   6.730   2.480   7.290  0.2034 -0.4500 -0.1203
 3811TIP3   OH233067   4.352   2.843   6.228  0.3195 -0.1089  0.2759
 3811TIP3    H133068   4.370   2.865   6.137 -3.3389 -0.3406 -0.6606
 3811TIP3    H233069   4.298   2.916   6.261 -0.5588 -1.2213  1.4190
 3812TIP3   OH233070   3.190   5.104   7.297  0.7955  0.2134 -0.0710
 3812TIP3    H133071   3.227   5.050   7.367  0.0245 -0.0601  0.1356
 3812TIP3    H233072   3.163   5.041   7.231 -0.6173  0.2884  0.4098
 3813TIP3   OH233073   4.438   0.745   8.652  0.3508 -0.1268  0.1313
 3813TIP3    H133074   4.343   0.744   8.659  0.3601  1.2581  0.6705
 3813TIP3    H233075   4.456   0.790   8.569  0.5465 -0.6468 -0.1166
 3814TIP3   OH233076   3.765   2.036   7.742  0.6399  0.0873  0.1087
 3814TIP3    H133077   3.714   2.023   7.822  1.5539 -2.7074  0.3338
 3814TIP3    H233078   3.821   2.111   7.762 -1.1563  1.2758  0.9611
 3815TIP3   OH233079   3.778   3.889   6.912  0.1568 -0.1697 -0.3557
 3815TIP3    H133080   3.738   3.827   6.851 -0.8798 -0.9303  1.0575
 3815TIP3    H233081   3.733   3.971   6.895  0.0392 -0.3133 -0.7630
 3816TIP3   OH233082   2.101   5.763   7.340 -0.7818  0.4101  0.3042
 3816TIP3    H133083   2.116   5.856   7.359  0.4398  0.5425 -1.0953
 3816TIP3    H233084   2.068   5.762   7.250 -1.8727 -0.4625  0.6874
 3817TIP3   OH233085   5.916   5.349   1.160 -0.0297  0.3334  0.8247
 3817TIP3    H133086   5.906   5.257   1.137  0.5902 -0.0412  1.9686
 3817TIP3    H233087   6.010   5.362   1.166 -0.1102  0.4552  2.7593
 3818TIP3   OH233088   4.518   2.569   8.145  0.3586  0.0941 -0.1782
 3818TIP3    H133089   4.485   2.658   8.132  0.4450  0.0573 -0.6603
 3818TIP3    H233090   4.598   2.566   8.094  1.3862  0.3252  1.3504
 3819TIP3   OH233091   0.891   2.595   0.319  0.4677 -0.4066 -0.6940
 3819TIP3    H133092   0.798   2.600   0.299  0.3802 -0.5519 -0.3423
 3819TIP3    H233093   0.929   2.548   0.245  0.3945  0.3584 -1.2301
 3820TIP3   OH233094   2.626   3.199   8.657 -0.7298  0.1152 -0.0084
 3820TIP3    H133095   2.592   3.211   8.568  0.0504 -1.0267 -0.4804
 3820TIP3    H233096   2.714   3.237   8.654 -0.8404  0.4206  0.4010
 3821TIP3   OH233097   4.384   2.421   6.076 -0.5389  0.2195 -0.1812
 3821TIP3    H133098   4.313   2.448   6.135  0.0806 -0.1016  0.7414
 3821TIP3    H233099   4.339   2.390   5.997 -1.3535  1.6615 -0.3259
 3822TIP3   OH233100   3.428   3.544   1.613 -0.2443  0.0956 -0.0897
 3822TIP3    H133101   3.427   3.621   1.671 -0.7698 -0.5375  0.7701
 3822TIP3    H233102   3.494   3.487   1.651  0.5582  0.3600 -1.0647
 3823TIP3   OH233103   0.460   0.473   2.201 -0.1861  0.2833  0.4808
 3823TIP3    H133104   0.544   0.432   2.221  0.2509 -0.4615 -2.4395
 3823TIP3    H233105   0.397   0.401   2.202  0.0587 -0.0467 -1.6365
 3824TIP3   OH233106   4.836   2.224   1.471 -0.1346  0.1269  0.0800
 3824TIP3    H133107   4.883   2.282   1.411  0.1710  3.0496  2.8870
 3824TIP3    H233108   4.893   2.218   1.548 -0.3721 -3.6836  0.1432
 3825TIP3   OH233109   3.486   2.994   8.238  0.1635  0.1663  0.2575
 3825TIP3    H133110   3.557   3.056   8.218 -1.6396  1.6259 -2.1358
 3825TIP3    H233111   3.437   3.035   8.309  1.0736 -0.3660  1.2243
 3826TIP3   OH233112   4.858   6.110   6.995  0.1882 -0.2650 -0.2638
 3826TIP3    H133113   4.950   6.134   7.005  0.2160 -0.2276 -0.6275
 3826TIP3    H233114   4.815   6.150   7.071  0.1922  1.2170 -1.0034
 3827TIP3   OH233115   4.534   4.913   0.195  0.1679  0.0376  0.2549
 3827TIP3    H133116   4.525   4.996   0.150 -0.4070 -1.0535 -1.7347
 3827TIP3    H233117   4.592   4.861   0.139 -0.5992 -1.3812  0.7283
 3828TIP3   OH233118   0.464   2.131   2.160  0.1050 -0.2804  0.5123
 3828TIP3    H133119   0.397   2.064   2.143  0.4255 -0.3226 -0.6573
 3828TIP3    H233120   0.414   2.210   2.181 -0.3554 -0.2385 -0.6259
 3829TIP3   OH233121   1.957   4.212   8.471  0.1696  0.6924 -0.0511
 3829TIP3    H133122   1.920   4.123   8.476  0.8298  0.2859 -1.5470
 3829TIP3    H233123   1.925   4.246   8.387  1.8751  0.9188 -0.6423
 3830TIP3   OH233124   1.237   0.948   0.454  0.3998 -0.2841 -0.2395
 3830TIP3    H133125   1.212   0.961   0.363 -1.4401  0.3284  0.3076
 3830TIP3    H233126   1.330   0.928   0.451  1.0720  2.5075 -2.0577
 3831TIP3   OH233127   2.831   5.986   0.985 -0.1873 -0.1404  0.1973
 3831TIP3    H133128   2.742   5.971   0.955 -0.3696  1.1487  0.0303
 3831TIP3    H233129   2.855   5.905   1.031 -1.4309 -0.5050  0.2411
 3832TIP3   OH233130   1.254   2.723   7.862  0.0218  0.3802 -0.1846
 3832TIP3    H133131   1.224   2.746   7.774 -2.3232 -2.8111 -0.3962
 3832TIP3    H233132   1.176   2.733   7.917  0.8281  0.0076  1.0753
 3833TIP3   OH233133   0.513   5.937   1.215  0.0261  0.4382  0.1127
 3833TIP3    H133134   0.543   5.932   1.306 -1.3480 -2.4373  0.5150
 3833TIP3    H233135   0.418   5.936   1.221 -0.0872 -0.4895 -1.3504
 3834TIP3   OH233136   4.541   6.042   8.211 -0.3300  0.2383 -0.3010
 3834TIP3    H133137   4.447   6.055   8.225 -0.2783  0.3625 -0.0656
 3834TIP3    H233138   4.563   5.965   8.263 -0.6405 -0.8462 -1.7181
 3835TIP3   OH233139   4.309   4.490   7.292 -0.5137  0.4315  0.5574
 3835TIP3    H133140   4.278   4.411   7.247  1.3164  0.8461 -1.6174
 3835TIP3    H233141   4.309   4.466   7.384 -2.5455 -1.1739  0.2142
 3836TIP3   OH233142   1.779   4.948   7.215 -0.2566  0.0657  0.1816
 3836TIP3    H133143   1.772   4.884   7.286 -1.6227  2.5542  2.5294
 3836TIP3    H233144   1.863   4.991   7.230 -0.5710  0.6315  0.3680
 3837TIP3   OH233145   2.799   1.396   8.212 -0.4173  0.7626  0.1044
 3837TIP3    H133146   2.802   1.460   8.141 -2.1570  0.5520 -0.2160
 3837TIP3    H233147   2.880   1.410   8.260  0.2865  1.6601 -1.2759
 3838TIP3   OH233148   2.550   6.682   8.209 -0.1135 -0.1722  0.4118
 3838TIP3    H133149   2.514   6.729   8.285 -0.9365  0.4420 -0.3280
 3838TIP3    H233150   2.474   6.640   8.169 -0.3643  2.2570 -1.9773
 3839TIP3   OH233151   3.380   3.545   7.589  0.3163 -0.1257  0.1164
 3839TIP3    H133152   3.434   3.620   7.562  1.0432 -0.4954  0.4934
 3839TIP3    H233153   3.324   3.580   7.659  0.7358  0.0411  0.3752
 3840TIP3   OH233154   0.746   3.990   7.741  0.0913  0.6149  0.4238
 3840TIP3    H133155   0.682   3.921   7.730 -0.0304  0.6742  0.7451
 3840TIP3    H233156   0.827   3.945   7.763  0.1372  0.5459  0.1157
 3841TIP3   OH233157   1.372   1.139   1.016  0.6210  0.4780 -0.2696
 3841TIP3    H133158   1.320   1.219   1.002  1.9788  2.0844  2.8863
 3841TIP3    H233159   1.458   1.160   0.979  0.6273 -0.0615 -0.5703
 3842TIP3   OH233160   3.379   0.417   0.612 -0.3677 -0.1957  0.1091
 3842TIP3    H133161   3.442   0.411   0.684 -0.2994 -0.1932  0.0499
 3842TIP3    H233162   3.315   0.482   0.641 -0.5583 -0.4831  0.3328
 3843TIP3   OH233163   0.495   6.287   0.835 -0.1807  0.5477 -0.1261
 3843TIP3    H133164   0.493   6.202   0.878 -0.1791  0.7707  0.3230
 3843TIP3    H233165   0.481   6.268   0.743 -2.5055  0.2481  0.2340
 3844TIP3   OH233166   2.017   6.753   0.396  0.8690  0.1907 -0.0326
 3844TIP3    H133167   1.970   6.750   0.479  0.2505  0.4699 -0.3661
 3844TIP3    H233168   1.966   6.812   0.341  1.4883  0.3234 -0.4809
 3845TIP3   OH233169   0.628   4.799   0.356 -0.0859 -0.2439 -0.0631
 3845TIP3    H133170   0.561   4.730   0.360 -2.5418  2.0588  1.7868
 3845TIP3    H233171   0.594   4.862   0.293  0.4152  0.8763  0.7599
 3846TIP3   OH233172   3.558   1.387   8.768 -0.0906  0.2081 -0.0662
 3846TIP3    H133173   3.595   1.470   8.798 -0.5868  0.1630  0.7122
 3846TIP3    H233174   3.625   1.322   8.789  0.9484  0.5838 -2.0693
 3847TIP3   OH233175   3.526   3.637   8.456 -0.2952 -0.3172 -0.0339
 3847TIP3    H133176   3.479   3.719   8.439  0.9560  0.5186  0.3757
 3847TIP3    H233177   3.478   3.597   8.529  0.6221  1.4372  1.6577
 3848TIP3   OH233178   2.676   1.509   1.379 -0.3649 -0.6444  0.3711
 3848TIP3    H133179   2.677   1.580   1.442 -0.3817  0.0861 -0.4271
 3848TIP3    H233180   2.691   1.430   1.431  1.1854  0.0841  1.1129
 3849TIP3   OH233181   4.024   4.560   7.126 -0.0267 -0.4807 -0.3515
 3849TIP3    H133182   3.929   4.551   7.118  0.0401 -1.9825  0.1726
 3849TIP3    H233183   4.040   4.561   7.220  0.4030  0.9076 -0.4247
 3850TIP3   OH233184   0.452   5.637   0.105  0.0724  0.7899  0.0270
 3850TIP3    H133185   0.382   5.654   0.043 -1.4082  1.0358  1.6949
 3850TIP3    H233186   0.425   5.681   0.186  1.1172 -0.8607  1.3634
 3851TIP3   OH233187   6.364   0.855   1.429  0.2218 -0.5231 -0.0529
 3851TIP3    H133188   6.316   0.881   1.508  1.2617 -0.5647  0.6143
 3851TIP3    H233189   6.295   0.839   1.364 -0.6480 -0.2436  0.7617
 3852TIP3   OH233190   5.354   0.464   0.859  0.5019 -0.5348  0.4716
 3852TIP3    H133191   5.447   0.485   0.849  0.6711 -1.2033  0.5960
 3852TIP3    H233192   5.320   0.532   0.917  1.5115 -1.7379  2.6068
 3853TIP3   OH233193   3.520   5.138   1.525 -0.4023 -0.0006 -0.1650
 3853TIP3    H133194   3.456   5.174   1.587 -0.1559  0.5863 -0.2486
 3853TIP3    H233195   3.501   5.182   1.443 -2.1518 -2.3028 -1.1390
 3854TIP3   OH233196   4.330   0.263   6.264  0.2829  0.0613  0.3900
 3854TIP3    H133197   4.323   0.292   6.354 -1.8443  2.8346 -0.5216
 3854TIP3    H233198   4.243   0.280   6.227  1.7160  1.3218 -2.7607
 3855TIP3   OH233199   1.646   5.211   6.869 -0.0547  0.0030 -0.4232
 3855TIP3    H133200   1.550   5.200   6.870 -0.1213  0.5646  0.2325
 3855TIP3    H233201   1.679   5.130   6.907 -0.3343  0.3207  0.5156
 3856TIP3   OH233202   1.290   1.573   0.882  0.1754  0.5082  0.4216
 3856TIP3    H133203   1.310   1.591   0.974 -0.3920 -1.1678  0.8997
 3856TIP3    H233204   1.234   1.496   0.884  1.5502 -0.6098 -1.4365
 3857TIP3   OH233205   5.495   6.397   8.781  0.1694  0.0354  0.2227
 3857TIP3    H133206   5.453   6.372   8.699 -0.3050  0.1401  0.4350
 3857TIP3    H233207   5.579   6.351   8.780 -1.6416 -3.6848  1.7817
 3858TIP3   OH233208   2.640   1.725   8.728 -0.5800  0.1429  0.1036
 3858TIP3    H133209   2.662   1.632   8.724 -2.8643 -0.4212 -1.0120
 3858TIP3    H233210   2.548   1.729   8.700 -0.7181  2.6745  0.7105
 3859TIP3   OH233211   1.656   6.093   2.497 -0.0301  0.5324  0.3146
 3859TIP3    H133212   1.644   6.040   2.575 -0.2005  1.3755  0.8782
 3859TIP3    H233213   1.745   6.127   2.504  0.1486  0.1703 -0.1440
 3860TIP3   OH233214   2.816   0.789   0.022  0.2552 -0.4399 -0.0745
 3860TIP3    H133215   2.808   0.764  -0.070 -0.6920  0.0246 -0.1263
 3860TIP3    H233216   2.799   0.883   0.022  0.0288 -0.4812  0.6103
 3861TIP3   OH233217   3.772   6.512   6.863 -0.0775  0.1555  0.0702
 3861TIP3    H133218   3.815   6.534   6.780  0.9261  2.1864  1.0446
 3861TIP3    H233219   3.805   6.577   6.925 -1.5428 -0.6968  1.8505
 3862TIP3   OH233220   3.486   5.716   7.828  0.1752 -0.5274 -0.5471
 3862TIP3    H133221   3.467   5.658   7.902  0.8668 -0.6722 -0.4709
 3862TIP3    H233222   3.412   5.704   7.769  0.5522 -1.9151 -0.7838
 3863TIP3   OH233223   0.507   3.836   6.406 -0.2117  0.3752 -0.4023
 3863TIP3    H133224   0.541   3.797   6.325 -2.2169 -1.2689 -0.5414
 3863TIP3    H233225   0.467   3.918   6.379  0.1932  0.4186 -0.8707
 3864TIP3   OH233226   0.846   2.484   7.848 -0.4460 -0.2689 -0.2847
 3864TIP3    H133227   0.908   2.448   7.785 -2.1830 -1.9389 -1.1206
 3864TIP3    H233228   0.803   2.556   7.801  0.1091  0.2176 -0.0597
 3865TIP3   OH233229   2.914   6.842   8.313 -0.4159 -0.5961  0.1020
 3865TIP3    H133230   2.959   6.925   8.297 -0.0634 -0.8090 -0.0195
 3865TIP3    H233231   2.887   6.812   8.227 -0.4651 -0.6522  0.1375
 3866TIP3   OH233232   5.359   0.715   8.116 -0.0076 -0.3702  0.2013
 3866TIP3    H133233   5.269   0.685   8.127  0.2300 -0.5915  1.7739
 3866TIP3    H233234   5.403   0.691   8.198  1.0181  1.3572  0.2134
 3867TIP3   OH233235   4.806   3.959   7.490 -0.3494 -0.2617  0.6324
 3867TIP3    H133236   4.859   3.944   7.412 -0.4845  0.1869  0.4480
 3867TIP3    H233237   4.798   4.055   7.495 -0.5823 -0.3003  1.0326
 3868TIP3   OH233238   5.339   2.398   7.656  0.0980  0.3220 -0.3252
 3868TIP3    H133239   5.250   2.377   7.687  0.9813 -1.5233  1.1951
 3868TIP3    H233240   5.391   2.405   7.737  1.5740  0.0919 -1.2205
 3869TIP3   OH233241   1.627   5.067   8.207 -0.6433 -0.3616  0.3825
 3869TIP3    H133242   1.597   5.149   8.247 -1.2065 -0.1797 -0.3839
 3869TIP3    H233243   1.663   5.017   8.279 -1.6887 -0.0625  1.1308
 3870TIP3   OH233244   1.796   4.021   1.812  0.1010 -0.2514  0.3495
 3870TIP3    H133245   1.721   4.072   1.844 -0.3873 -0.3170 -0.6537
 3870TIP3    H233246   1.866   4.086   1.804 -0.1096 -0.0075  0.4385
 3871TIP3   OH233247   5.443   1.127   7.172 -0.1335  0.3605  0.2224
 3871TIP3    H133248   5.417   1.188   7.104 -2.2744 -1.6769 -0.9271
 3871TIP3    H233249   5.402   1.044   7.148  2.3671 -1.5245  1.8295
 3872TIP3   OH233250   4.734   4.357   0.032  0.2973  0.7979  0.4344
 3872TIP3    H133251   4.751   4.273   0.074 -0.4296  0.8554  0.8616
 3872TIP3    H233252   4.772   4.348  -0.056  1.9291  0.7081  1.1074
 3873TIP3   OH233253   0.856   3.688   8.780 -0.9767 -0.1967  0.3402
 3873TIP3    H133254   0.829   3.612   8.729 -0.8802  0.2670 -0.4151
 3873TIP3    H233255   0.951   3.682   8.784 -0.9723 -0.1417  0.3207
 3874TIP3   OH233256   6.527   4.600   8.545  0.1998 -0.3836  0.3727
 3874TIP3    H133257   6.561   4.680   8.504 -0.0680  0.3125  1.4559
 3874TIP3    H233258   6.486   4.552   8.474 -1.3484  1.3854  0.0057
 3875TIP3   OH233259   4.856   3.528   8.171  0.4412  0.2769  0.1142
 3875TIP3    H133260   4.948   3.548   8.190 -0.0427  2.1501  0.6716
 3875TIP3    H233261   4.857   3.492   8.082  1.5709  1.6584 -0.4653
 3876TIP3   OH233262   3.808   0.878   7.535  0.5689 -0.2951 -0.0664
 3876TIP3    H133263   3.713   0.868   7.528  0.5794 -1.1069  0.7028
 3876TIP3    H233264   3.824   0.971   7.521 -0.3941 -0.0572  0.3274
 3877TIP3   OH233265   6.506   0.976   0.621  0.3540  0.5644  0.6451
 3877TIP3    H133266   6.419   0.975   0.661  0.6223  1.9076  1.3076
 3877TIP3    H233267   6.496   0.923   0.541 -1.2709  1.3471  0.2909
 3878TIP3   OH233268   0.189   4.593   0.897  0.0831  0.3141  0.3461
 3878TIP3    H133269   0.208   4.561   0.809  0.8590  1.0375  0.2323
 3878TIP3    H233270   0.145   4.677   0.883  0.2395  0.4484  0.6463
 3879TIP3   OH233271   0.957   6.112   7.159 -0.1313  0.2879  0.4976
 3879TIP3    H133272   0.897   6.096   7.086 -0.3126 -0.8128  0.8747
 3879TIP3    H233273   1.010   6.033   7.165  0.5527  0.7675  0.9397
 3880TIP3   OH233274   6.252   2.994   0.477 -0.5908 -0.1837 -0.0575
 3880TIP3    H133275   6.286   2.915   0.435 -0.8043 -0.7659  0.8308
 3880TIP3    H233276   6.208   3.042   0.407 -0.3690 -0.8009 -0.6263
 3881TIP3   OH233277   5.968   2.385   1.712  0.6521 -0.1419  0.5896
 3881TIP3    H133278   5.927   2.379   1.626  0.4650  0.3494  0.6404
 3881TIP3    H233279   5.959   2.298   1.749  1.0887 -0.4722 -0.0497
 3882TIP3   OH233280   2.430   2.891   1.838 -0.1653  0.0836 -0.7136
 3882TIP3    H133281   2.405   2.889   1.931  1.0857  0.7855 -0.3389
 3882TIP3    H233282   2.474   2.808   1.823 -1.8691 -0.7844 -1.1546
 3883TIP3   OH233283   1.142   2.217   1.805  0.0053  0.0470 -0.5364
 3883TIP3    H133284   1.090   2.296   1.822  0.8693  0.9111 -1.7332
 3883TIP3    H233285   1.097   2.148   1.853 -0.0906  1.4826  1.5829
 3884TIP3   OH233286   3.127   2.586   1.662  0.3727 -0.1203 -0.3532
 3884TIP3    H133287   3.087   2.671   1.680  0.0426 -0.1759 -0.8075
 3884TIP3    H233288   3.217   2.594   1.695  0.3019  0.3578 -0.2717
 3885TIP3   OH233289   6.088   1.704   8.224  0.5964  0.0982 -0.2489
 3885TIP3    H133290   6.016   1.653   8.260  0.4629  0.3272 -0.1900
 3885TIP3    H233291   6.164   1.678   8.277  0.4059  0.4153  0.1846
 3886TIP3   OH233292   3.054   2.132   0.824 -0.2182 -0.3737 -0.3720
 3886TIP3    H133293   3.102   2.101   0.900 -2.2612 -0.6152  0.8975
 3886TIP3    H233294   3.095   2.216   0.802 -0.3823  0.3518  1.8361
 3887TIP3   OH233295   1.917   3.147   7.449 -0.1590 -0.4924 -0.3920
 3887TIP3    H133296   1.995   3.194   7.421 -0.6091  0.2786 -0.3753
 3887TIP3    H233297   1.860   3.214   7.487 -0.7978 -1.0502 -0.3395
 3888TIP3   OH233298   1.068   5.473   7.560 -0.5671 -0.2612  0.3584
 3888TIP3    H133299   1.095   5.422   7.483  0.5675  0.9933 -0.1364
 3888TIP3    H233300   1.033   5.409   7.621  1.3360 -1.7342  0.0188
 3889TIP3   OH233301   2.262   3.681   7.223 -0.0052  0.0883  0.0013
 3889TIP3    H133302   2.268   3.714   7.312  0.9370  0.3220 -0.1375
 3889TIP3    H233303   2.347   3.701   7.184 -0.5943  0.4812 -1.1190
 3890TIP3   OH233304   2.081   3.579   1.620 -0.1336  0.2769 -0.1405
 3890TIP3    H133305   2.063   3.634   1.696 -2.1734 -0.5406  0.0334
 3890TIP3    H233306   2.057   3.490   1.648  1.0121 -0.3681 -1.1018
 3891TIP3   OH233307   0.798   1.999   7.018  0.2340  0.0781  0.5579
 3891TIP3    H133308   0.866   2.037   7.074  1.1127 -0.7771  0.0900
 3891TIP3    H233309   0.843   1.979   6.936 -0.8088  0.3699 -0.0982
 3892TIP3   OH233310   4.283   2.686   7.042  0.1923 -0.1700 -0.0190
 3892TIP3    H133311   4.315   2.762   7.091 -0.0373  1.2005 -1.8910
 3892TIP3    H233312   4.191   2.677   7.068  1.0534 -2.0646  2.8509
 3893TIP3   OH233313   6.035   2.465   1.113 -0.1042 -0.3294 -0.3385
 3893TIP3    H133314   5.946   2.471   1.079  0.2589 -1.6188 -1.6107
 3893TIP3    H233315   6.090   2.507   1.046  0.4964 -1.8912 -0.8771
 3894TIP3   OH233316   3.907   6.700   6.696 -0.5146 -0.2832  0.1574
 3894TIP3    H133317   3.924   6.747   6.615  0.8658  1.8025  1.5314
 3894TIP3    H233318   3.969   6.628   6.696  1.1566  1.0921  0.3612
 3895TIP3   OH233319   6.371   6.859   6.545 -0.0154 -0.3709 -0.3061
 3895TIP3    H133320   6.457   6.881   6.582 -0.2832 -0.8216  0.6321
 3895TIP3    H233321   6.312   6.925   6.582 -0.6908 -2.0941  1.9517
 3896TIP3   OH233322   6.497   4.533   7.471 -0.1584  0.4468  0.2591
 3896TIP3    H133323   6.411   4.572   7.460 -0.3863 -0.3073 -0.8568
 3896TIP3    H233324   6.491   4.483   7.553 -0.6693  0.6524  0.3494
 3897TIP3   OH233325   6.730   5.790   7.296 -0.2417  0.3836 -0.0732
 3897TIP3    H133326   6.777   5.721   7.249 -2.5603 -2.2900  1.2431
 3897TIP3    H233327   6.659   5.816   7.237 -0.1355  0.7024 -0.0609
 3898TIP3   OH233328   3.587   4.706   7.336  0.4330 -0.1070 -0.3432
 3898TIP3    H133329   3.597   4.767   7.410 -0.3939 -0.1859 -0.1527
 3898TIP3    H233330   3.492   4.699   7.324  0.4929 -1.6897 -0.0817
 3899TIP3   OH233331   2.905   5.951   8.543 -0.3541 -0.1503 -0.3502
 3899TIP3    H133332   2.864   5.935   8.458 -1.2423 -0.1147  0.0587
 3899TIP3    H233333   2.959   6.029   8.531  0.6795 -0.9744 -1.2579
 3900TIP3   OH233334   5.398   4.231   6.865 -0.1791 -0.7318  0.6069
 3900TIP3    H133335   5.404   4.164   6.797 -2.1143  0.3939 -0.7913
 3900TIP3    H233336   5.343   4.299   6.826  0.1374  0.7953  2.6735
 3901TIP3   OH233337   4.435   6.499   6.385  0.0549 -0.2766  0.3599
 3901TIP3    H133338   4.476   6.426   6.339  1.2655  0.1499  0.6937
 3901TIP3    H233339   4.489   6.575   6.360  0.2667  0.0953  1.8269
 3902TIP3   OH233340   1.874   2.082   1.278 -0.5368 -0.4117  1.2099
 3902TIP3    H133341   1.877   2.171   1.313 -0.4204 -0.1528  0.5440
 3902TIP3    H233342   1.793   2.079   1.227  0.9464  0.2893 -1.3359
 3903TIP3   OH233343   3.349   2.765   1.493 -0.0788 -0.1487 -0.9227
 3903TIP3    H133344   3.298   2.837   1.531 -0.1522  0.2284 -1.7145
 3903TIP3    H233345   3.367   2.707   1.567 -0.1534  0.6021 -0.2966
 3904TIP3   OH233346   5.848   1.496   8.120  0.3592  0.2712  0.3763
 3904TIP3    H133347   5.848   1.491   8.216  0.3229 -1.5934  0.3194
 3904TIP3    H233348   5.905   1.425   8.092 -1.5447 -0.8202 -1.0062
 3905TIP3   OH233349   1.198   4.616   8.753  0.4565  0.1292 -0.2686
 3905TIP3    H133350   1.163   4.625   8.664  1.5305 -0.4069 -0.7588
 3905TIP3    H233351   1.202   4.521   8.768  0.7153  0.2073  0.1833
 3906TIP3   OH233352   1.936   2.530   7.379 -0.2209 -0.1304  0.7777
 3906TIP3    H133353   1.851   2.490   7.395 -0.0227 -0.1213  1.9613
 3906TIP3    H233354   1.987   2.461   7.335 -0.4555 -0.5654  1.1737
 3907TIP3   OH233355   1.689   2.470   7.447 -0.7687  0.4729  0.3435
 3907TIP3    H133356   1.719   2.409   7.514 -2.5278  1.5590  2.2195
 3907TIP3    H233357   1.674   2.416   7.370  0.5587 -0.9363  1.0267
 3908TIP3   OH233358   4.538   5.838   7.539 -0.4991  0.1374 -0.5892
 3908TIP3    H133359   4.588   5.920   7.543 -1.4606  0.7221 -0.0224
 3908TIP3    H233360   4.582   5.780   7.600 -0.5632  0.6836 -0.0124
 3909TIP3   OH233361   5.734   4.478   1.804  0.3618 -0.7087  0.7809
 3909TIP3    H133362   5.819   4.514   1.829  0.1828 -0.4986  1.0915
 3909TIP3    H233363   5.720   4.509   1.715 -0.6122  1.5619  1.6375
 3910TIP3   OH233364   4.726   2.759   8.539 -0.2236  0.0509  0.4084
 3910TIP3    H133365   4.705   2.679   8.491  0.6683  0.1374 -0.1465
 3910TIP3    H233366   4.677   2.752   8.621 -0.8808 -0.6230 -0.0399
 3911TIP3   OH233367   2.281   4.591   8.646  0.2385  0.1859  0.1211
 3911TIP3    H133368   2.353   4.550   8.694  0.0885 -1.7997 -1.2252
 3911TIP3    H233369   2.325   4.647   8.582  0.5825 -0.1914  0.0165
 3912TIP3   OH233370   3.687   0.752   8.388  0.1031  0.2950 -0.7608
 3912TIP3    H133371   3.626   0.686   8.354  3.3037 -2.2158 -2.1132
 3912TIP3    H233372   3.721   0.713   8.469 -0.3762  1.8700  0.2328
 3913TIP3   OH233373   4.937   3.980   2.143 -0.3344 -0.3092  0.7972
 3913TIP3    H133374   4.996   4.030   2.199  0.1284 -0.8411  0.7970
 3913TIP3    H233375   4.982   3.896   2.130  0.7674  0.6031 -2.3088
 3914TIP3   OH233376   6.444   2.089   0.522  0.0552  0.2924  0.2279
 3914TIP3    H133377   6.387   2.163   0.500  0.1532  0.4500  0.5037
 3914TIP3    H233378   6.485   2.113   0.605 -1.9809 -1.2180  1.7862
 3915TIP3   OH233379   3.520   4.033   1.779 -0.1722 -0.6009 -0.1448
 3915TIP3    H133380   3.572   4.039   1.699 -1.3690 -1.7103 -1.0341
 3915TIP3    H233381   3.574   4.077   1.845  1.9949 -1.8688 -0.9662
 3916TIP3   OH233382   2.765   6.367   1.881  0.5489  0.5730  0.0983
 3916TIP3    H133383   2.677   6.403   1.870  0.5742  1.3994  2.1624
 3916TIP3    H233384   2.817   6.409   1.813 -0.3097  1.3354 -0.1054
 3917TIP3   OH233385   5.342   0.992   0.293  0.3885  0.6227  0.2566
 3917TIP3    H133386   5.427   0.970   0.330  0.4104  1.5460  0.8107
 3917TIP3    H233387   5.320   1.077   0.333  0.6932  2.0263 -2.3355
 3918TIP3   OH233388   4.895   2.153   1.131  0.5686 -0.2754  0.0354
 3918TIP3    H133389   4.804   2.169   1.158  0.6452  1.1739 -0.4820
 3918TIP3    H233390   4.946   2.164   1.211  0.3711 -0.3607  0.1754
 3919TIP3   OH233391   1.771   5.101   2.342 -0.7276  0.4385 -0.3484
 3919TIP3    H133392   1.809   5.104   2.430 -0.8835  0.7984 -0.2924
 3919TIP3    H233393   1.769   5.008   2.320  0.0795  0.4026 -0.3058
 3920TIP3   OH233394   4.506   0.702   0.191  0.6930 -0.3561  0.7508
 3920TIP3    H133395   4.511   0.796   0.174  0.5853 -0.7463 -1.7595
 3920TIP3    H233396   4.544   0.662   0.113 -1.1209 -2.4421  0.8661
 3921TIP3   OH233397   2.671   2.015   1.394  0.1469  0.0460 -0.4769
 3921TIP3    H133398   2.705   2.091   1.347  1.1198 -0.1469 -0.1115
 3921TIP3    H233399   2.693   2.031   1.486  0.7249 -0.8401 -0.4392
 3922TIP3   OH233400   3.464   3.846   6.770  0.3062 -0.3792  0.2843
 3922TIP3    H133401   3.500   3.870   6.685 -0.4613 -0.9056 -0.2032
 3922TIP3    H233402   3.383   3.798   6.750 -0.2416  0.0638  1.3176
 3923TIP3   OH233403   5.524   3.401   0.089 -0.0209  0.4981 -0.7494
 3923TIP3    H133404   5.612   3.420   0.056  0.3013 -0.3990 -0.4468
 3923TIP3    H233405   5.539   3.344   0.165 -0.8153  1.2640 -0.0027
 3924TIP3   OH233406   3.850   5.902   7.422 -0.2324  0.4999 -0.4256
 3924TIP3    H133407   3.757   5.899   7.398 -0.3053  0.1540 -0.1062
 3924TIP3    H233408   3.883   5.815   7.400 -0.3496  0.0986  0.9029
 3925TIP3   OH233409   3.849   1.475   6.844  0.3671  0.3666 -0.9090
 3925TIP3    H133410   3.898   1.555   6.822 -1.8115  2.2947  0.7458
 3925TIP3    H233411   3.909   1.425   6.900  1.9631  0.5168 -2.3715
 3926TIP3   OH233412   5.354   1.102   7.535 -0.5066  1.1973 -0.2252
 3926TIP3    H133413   5.280   1.073   7.589 -1.2791  1.7334 -0.9907
 3926TIP3    H233414   5.362   1.035   7.468  0.7399  0.2925  0.7655
 3927TIP3   OH233415   2.262   3.124   8.698  0.4261 -0.1887  0.0977
 3927TIP3    H133416   2.287   3.146   8.608 -1.5227 -0.7476 -0.6305
 3927TIP3    H233417   2.167   3.115   8.695  0.4693 -1.8974  1.8498
 3928TIP3   OH233418   1.326   5.160   1.956  0.0290 -0.1418 -0.2809
 3928TIP3    H133419   1.242   5.117   1.972 -1.0719  0.7424 -3.0639
 3928TIP3    H233420   1.390   5.088   1.953 -0.9753 -1.0623 -0.2031
 3929TIP3   OH233421   4.401   1.294   7.214 -0.3322  0.1050  1.0249
 3929TIP3    H133422   4.475   1.247   7.175 -1.6445 -1.6653  0.4867
 3929TIP3    H233423   4.439   1.344   7.286  1.7744  1.4193 -0.8910
 3930TIP3   OH233424   0.637   0.525   8.511  0.2009 -0.3289  0.1338
 3930TIP3    H133425   0.541   0.522   8.506  0.1031 -2.3321  2.0037
 3930TIP3    H233426   0.659   0.611   8.475 -2.2233 -0.0946 -1.0349
 3931TIP3   OH233427   2.981   5.353   0.591 -0.5790  0.5614 -0.6214
 3931TIP3    H133428   2.962   5.390   0.677  4.2253 -0.7019  1.2852
 3931TIP3    H233429   2.936   5.268   0.592 -1.5945  1.0883  0.0901
 3932TIP3   OH233430   1.370   0.828   0.117  0.4774  0.1031  0.2366
 3932TIP3    H133431   1.284   0.870   0.124 -0.0159 -1.0918  1.8409
 3932TIP3    H233432   1.394   0.806   0.207  2.4688  0.3700 -0.1761
 3933TIP3   OH233433   2.424   0.520   0.279 -0.2910 -0.6664  0.0877
 3933TIP3    H133434   2.517   0.510   0.299 -0.0645 -2.7512 -1.6169
 3933TIP3    H233435   2.415   0.610   0.249  0.5411  0.5162  3.0087
 3934TIP3   OH233436   5.561   1.424   1.031 -0.2765 -0.2901  0.4352
 3934TIP3    H133437   5.580   1.498   0.973 -0.5403  0.8947  1.7933
 3934TIP3    H233438   5.638   1.368   1.024  0.5980  0.8604  0.4737
 3935TIP3   OH233439   0.544   4.210   1.837  0.2012  0.4132 -0.0464
 3935TIP3    H133440   0.458   4.230   1.875  0.3786 -0.7718  1.0794
 3935TIP3    H233441   0.529   4.132   1.783  0.4029  0.7178 -0.5415
 3936TIP3   OH233442   4.118   2.898   2.008 -0.1311 -0.0861 -0.5520
 3936TIP3    H133443   4.210   2.893   1.981 -0.3804 -0.3460 -1.3711
 3936TIP3    H233444   4.116   2.966   2.075  0.6910 -0.2001 -0.4060
 3937TIP3   OH233445   4.989   2.244   7.621 -0.3808 -0.0355  0.5347
 3937TIP3    H133446   5.059   2.179   7.618  0.7419  1.1566  0.0576
 3937TIP3    H233447   4.921   2.208   7.564  1.3563  0.4140 -1.9917
 3938TIP3   OH233448   1.122   3.312   7.672  0.1471  0.3973  0.0787
 3938TIP3    H133449   1.139   3.371   7.598  0.1578 -0.5064 -0.6624
 3938TIP3    H233450   1.209   3.285   7.700  0.1072 -0.5392 -0.6551
 3939TIP3   OH233451   3.335   6.572   1.034 -0.2620  0.3990 -0.3336
 3939TIP3    H133452   3.256   6.532   1.069  1.1039  0.0899  2.7231
 3939TIP3    H233453   3.406   6.534   1.086  1.8333  1.3025 -2.3617
 3940TIP3   OH233454   1.909   1.789   8.049 -0.0327 -0.3861 -0.0187
 3940TIP3    H133455   1.899   1.800   8.143  1.4392 -0.5682  0.1811
 3940TIP3    H233456   1.893   1.696   8.033 -1.1922 -0.1866 -0.0971
 3941TIP3   OH233457   4.758   5.717   8.542 -0.2741 -0.0212 -0.1675
 3941TIP3    H133458   4.772   5.622   8.543  0.8621  0.1160  1.9887
 3941TIP3    H233459   4.695   5.733   8.613  0.7884  0.9812  0.5748
 3942TIP3   OH233460   6.498   3.716   1.457  0.1892  0.4722  0.1341
 3942TIP3    H133461   6.585   3.683   1.482 -0.2755  0.0004  1.2109
 3942TIP3    H233462   6.467   3.654   1.391  1.0239  1.1507 -0.9203
 3943TIP3   OH233463   1.904   0.896   0.115 -0.1292 -0.1326 -0.6161
 3943TIP3    H133464   1.909   0.801   0.104 -0.9961 -0.4409  1.2326
 3943TIP3    H233465   1.974   0.917   0.177 -1.6371 -0.0178  1.1416
 3944TIP3   OH233466   5.865   3.196   7.026 -0.1520 -0.2236 -0.0364
 3944TIP3    H133467   5.838   3.283   7.058 -2.9664 -1.3006  0.7953
 3944TIP3    H233468   5.792   3.166   6.973  1.4605 -1.5006 -1.6561
 3945TIP3   OH233469   0.629   5.682   8.046 -0.2341  0.3121  0.1511
 3945TIP3    H133470   0.629   5.694   7.951 -2.7862  2.2627  0.2949
 3945TIP3    H233471   0.656   5.766   8.081  3.5069 -1.1476  1.2871
 3946TIP3   OH233472   4.727   0.095   1.661  0.1225  0.3073  0.0329
 3946TIP3    H133473   4.819   0.090   1.689  0.0691 -2.1049  0.0059
 3946TIP3    H233474   4.731   0.111   1.567  0.5911 -1.4117 -0.2636
 3947TIP3   OH233475   2.150   1.519   7.602  0.3825  0.3382 -0.0918
 3947TIP3    H133476   2.088   1.584   7.635  1.7179  0.6934  1.8836
 3947TIP3    H233477   2.192   1.562   7.527 -1.3513  0.2679 -1.1527
 3948TIP3   OH233478   1.392   5.855   8.045 -0.3984 -0.0191  0.0837
 3948TIP3    H133479   1.376   5.847   8.139  0.4001  2.7568  0.5337
 3948TIP3    H233480   1.482   5.822   8.033 -0.4618 -0.2695  0.2831
 3949TIP3   OH233481   4.527   6.735   0.857 -0.2941  0.2329 -0.4429
 3949TIP3    H133482   4.494   6.797   0.921  0.6599 -0.9212  1.2470
 3949TIP3    H233483   4.449   6.697   0.817 -1.0231 -0.7949  1.8268
 3950TIP3   OH233484   5.216   6.537   1.178 -0.2859 -0.0387 -0.0424
 3950TIP3    H133485   5.288   6.595   1.154  1.8425 -2.0882  1.0160
 3950TIP3    H233486   5.198   6.557   1.270 -0.2929 -0.2866  0.0112
 3951TIP3   OH233487   1.845   1.060   1.383  0.1052 -0.1187 -0.5360
 3951TIP3    H133488   1.757   1.076   1.417  1.0588  1.4092  1.3756
 3951TIP3    H233489   1.897   1.135   1.413  2.3960 -1.6714 -0.3716
 3952TIP3   OH233490   3.222   4.247   0.940 -0.0729 -0.0148  0.6487
 3952TIP3    H133491   3.201   4.157   0.965  1.0421 -0.3784  0.3519
 3952TIP3    H233492   3.298   4.238   0.881 -1.0352  0.9777 -0.8205
 3953TIP3   OH233493   2.960   3.482   6.925  0.2513  0.3312 -0.1576
 3953TIP3    H133494   2.934   3.406   6.977  0.6508 -0.6804 -1.3832
 3953TIP3    H233495   3.023   3.447   6.862  1.3564  1.9132  0.0064
 3954TIP3   OH233496   5.516   4.136   1.506  0.5960 -0.1718  0.0038
 3954TIP3    H133497   5.567   4.184   1.571  0.1189  0.9220 -0.4064
 3954TIP3    H233498   5.430   4.123   1.547  0.5308 -0.1305 -0.1168
 3955TIP3   OH233499   0.525   0.476   7.812  0.3296  0.1704  0.2124
 3955TIP3    H133500   0.509   0.392   7.855 -1.1137  0.7459  0.8416
 3955TIP3    H233501   0.513   0.457   7.718 -1.0474 -0.1110  0.4267
 3956TIP3   OH233502   1.523   5.224   7.462  0.6975  0.2758 -0.5226
 3956TIP3    H133503   1.599   5.257   7.509 -0.2105 -0.5663  1.6380
 3956TIP3    H233504   1.515   5.133   7.488 -0.4102  0.0300 -1.5889
 3957TIP3   OH233505   1.395   5.504   0.800  0.3297  0.7039  0.6575
 3957TIP3    H133506   1.481   5.534   0.831  1.0668 -0.8048  0.1344
 3957TIP3    H233507   1.339   5.511   0.878  1.7942 -1.6146  2.0228
 3958TIP3   OH233508   2.023   2.086   7.248 -0.7650 -0.1371  0.1086
 3958TIP3    H133509   1.928   2.078   7.239 -0.8089 -0.0249  0.4308
 3958TIP3    H233510   2.046   2.161   7.193 -1.1236  1.0059  1.4464
 3959TIP3   OH233511   1.034   2.016   7.194  0.4069 -0.6778 -0.4189
 3959TIP3    H133512   1.051   1.927   7.223  1.2488 -0.0446  1.1737
 3959TIP3    H233513   1.114   2.041   7.147  0.5099 -0.5117 -0.1623
 3960TIP3   OH233514   2.940   3.332   7.510 -0.7362  0.3516  0.0916
 3960TIP3    H133515   2.949   3.375   7.595 -1.5201  1.3546 -0.3099
 3960TIP3    H233516   3.017   3.359   7.460  0.1199 -0.8447  0.7070
 3961TIP3   OH233517   0.651   4.256   7.340  0.5053 -0.0785  0.3359
 3961TIP3    H133518   0.663   4.221   7.252  1.9450  0.3459  0.3297
 3961TIP3    H233519   0.737   4.294   7.362  0.2119 -0.3155  1.9745
 3962TIP3   OH233520   2.265   0.911   1.591  0.6372  0.1594  0.5133
 3962TIP3    H133521   2.215   0.992   1.581 -1.3132 -1.1260 -0.6360
 3962TIP3    H233522   2.226   0.850   1.529  1.8089 -1.8071  1.6013
 3963TIP3   OH233523   2.051   1.508   1.386  0.5637 -0.0245 -0.4129
 3963TIP3    H133524   2.075   1.549   1.468  0.6233 -0.8815  0.0166
 3963TIP3    H233525   2.122   1.530   1.326  0.4510  0.7180 -0.2735
 3964TIP3   OH233526   2.981   3.632   8.693  0.5518 -0.2096  0.5641
 3964TIP3    H133527   2.989   3.703   8.629 -0.9164  1.2976  1.9360
 3964TIP3    H233528   3.070   3.602   8.707  0.9914  0.0169 -1.5041
 3965TIP3   OH233529   3.381   0.813   0.373 -0.5873  0.0032 -0.4378
 3965TIP3    H133530   3.309   0.865   0.337  0.4700  1.1467 -0.9740
 3965TIP3    H233531   3.440   0.800   0.299  0.6024  0.6004  0.3833
 3966TIP3   OH233532   1.388   2.243   6.854 -0.1581  0.2752  0.8029
 3966TIP3    H133533   1.391   2.330   6.815 -0.4010  0.8515  2.0358
 3966TIP3    H233534   1.479   2.215   6.858  0.0090  0.8975  1.3316
 3967TIP3   OH233535   2.778   2.632   0.870  0.0098 -0.3624 -0.2109
 3967TIP3    H133536   2.747   2.677   0.948 -2.3251  0.6249 -1.6347
 3967TIP3    H233537   2.860   2.591   0.898 -0.6201  0.1287  2.6745
 3968TIP3   OH233538   1.885   6.676   1.791  1.0372 -0.2329 -0.2746
 3968TIP3    H133539   1.969   6.723   1.797  0.3045  1.3080 -1.4149
 3968TIP3    H233540   1.820   6.745   1.779 -0.5237 -1.3485  1.3177
 3969TIP3   OH233541   2.184   1.461   8.006  0.2027 -0.4980  0.7026
 3969TIP3    H133542   2.233   1.496   8.080 -0.5666 -0.4944  1.2237
 3969TIP3    H233543   2.206   1.519   7.932 -1.1476  1.2272  1.5693
 3970TIP3   OH233544   4.701   2.166   0.693  0.1586 -0.1800  0.2031
 3970TIP3    H133545   4.790   2.164   0.659  0.1002 -0.9316  0.0737
 3970TIP3    H233546   4.669   2.253   0.671  0.2230 -0.5289 -1.4401
 3971TIP3   OH233547   2.254   0.906   2.443  0.2074 -0.2712 -0.5446
 3971TIP3    H133548   2.271   0.984   2.390 -0.4621 -0.4153 -0.9737
 3971TIP3    H233549   2.164   0.881   2.422  0.4065 -1.1463 -0.3846
 3972TIP3   OH233550   4.289   4.411   8.272  0.2695  1.1695 -0.3086
 3972TIP3    H133551   4.215   4.469   8.291  0.9289  1.5524  1.2705
 3972TIP3    H233552   4.326   4.445   8.190 -0.1036  2.2275 -0.0615
 3973TIP3   OH233553   5.576   2.693   1.800  0.0264  0.1200 -0.6665
 3973TIP3    H133554   5.500   2.735   1.841  0.4140  1.4095 -1.2153
 3973TIP3    H233555   5.540   2.615   1.759 -0.7415 -0.0640  0.2980
 3974TIP3   OH233556   5.571   6.555   1.666 -0.4023 -0.9870  0.0681
 3974TIP3    H133557   5.635   6.609   1.711 -0.4124 -1.3942  0.5885
 3974TIP3    H233558   5.594   6.465   1.691 -1.0408 -1.1487  0.0858
 3975TIP3   OH233559   4.927   1.737   6.901 -0.1453 -0.1501  0.1442
 3975TIP3    H133560   4.993   1.683   6.857  0.7484  0.3554  0.8527
 3975TIP3    H233561   4.845   1.714   6.856  0.6233 -0.1464 -1.3287
 3976TIP3   OH233562   6.597   2.647   7.018  0.3923 -0.1583  0.4789
 3976TIP3    H133563   6.585   2.579   6.952 -0.4135 -0.2151  0.6679
 3976TIP3    H233564   6.639   2.603   7.091  0.6326 -0.2577  0.2843
 3977TIP3   OH233565   2.991   2.110   7.766  0.2104 -0.5087  0.4810
 3977TIP3    H133566   3.019   2.039   7.708  1.5218  1.1497 -1.0449
 3977TIP3    H233567   2.896   2.097   7.775  0.5720 -3.0890  1.2500
 3978TIP3   OH233568   4.646   4.154   7.914  0.5741 -0.1181  0.4121
 3978TIP3    H133569   4.619   4.202   7.836 -0.0780 -0.5127  0.3936
 3978TIP3    H233570   4.717   4.097   7.883  1.8859  1.3532  0.5930
 3979TIP3   OH233571   2.288   2.853   8.748 -0.3651  0.3128  0.3708
 3979TIP3    H133572   2.237   2.885   8.823 -5.4269  1.2362 -3.0063
 3979TIP3    H233573   2.310   2.932   8.698 -1.4710 -0.5291 -1.5347
 3980TIP3   OH233574   2.849   0.894   1.190 -0.3814  0.0733  0.6353
 3980TIP3    H133575   2.932   0.861   1.222 -0.6902 -0.1869  1.1823
 3980TIP3    H233576   2.787   0.878   1.262 -0.9924 -0.1181  0.0812
 3981TIP3   OH233577   3.282   3.805   1.302 -0.0252 -0.0948 -0.4360
 3981TIP3    H133578   3.315   3.825   1.215 -1.1035  0.6107 -0.6945
 3981TIP3    H233579   3.237   3.885   1.330 -0.9064 -0.7950  0.1875
 3982TIP3   OH233580   3.211   5.310   6.699 -0.1972  0.1720  0.0919
 3982TIP3    H133581   3.293   5.262   6.691  1.4245  2.5357  1.4554
 3982TIP3    H233582   3.183   5.294   6.789  0.9231  2.4687  0.9225
 3983TIP3   OH233583   4.682   3.425   0.320  0.4649  0.2604  0.1520
 3983TIP3    H133584   4.590   3.399   0.316  0.4317  0.3968  0.0299
 3983TIP3    H233585   4.711   3.395   0.406  0.5519 -0.5923 -0.1629
 3984TIP3   OH233586   1.821   4.325   1.378 -0.0727 -0.4821  0.1194
 3984TIP3    H133587   1.808   4.344   1.285 -0.9372 -0.4546  0.2387
 3984TIP3    H233588   1.732   4.312   1.413  0.2289 -0.3028  0.9817
 3985TIP3   OH233589   6.758   5.124   1.553 -0.5204 -0.2726 -0.3823
 3985TIP3    H133590   6.686   5.185   1.567 -0.1899 -0.0812  0.5847
 3985TIP3    H233591   6.719   5.037   1.562 -0.5590 -0.1663  0.6311
 3986TIP3   OH233592   0.152   2.837   7.634  0.7085 -0.1829 -0.2608
 3986TIP3    H133593   0.237   2.813   7.597  0.4683  0.9242 -1.6029
 3986TIP3    H233594   0.097   2.855   7.558 -0.3213  0.4623  0.6206
 3987TIP3   OH233595   5.873   0.825   7.646  0.5021 -0.2035  0.3825
 3987TIP3    H133596   5.793   0.799   7.691  1.1183 -0.8500  1.1214
 3987TIP3    H233597   5.881   0.761   7.574  0.6343 -0.4701  0.6317
 3988TIP3   OH233598   0.851   6.714   1.497 -0.3733 -1.0789 -0.7036
 3988TIP3    H133599   0.785   6.769   1.457 -1.2335 -0.3278  1.6034
 3988TIP3    H233600   0.935   6.752   1.469 -0.9433  0.4563 -0.3745
 3989TIP3   OH233601   4.560   6.793   8.764  0.4278 -0.3945  0.1777
 3989TIP3    H133602   4.528   6.792   8.855 -0.6123 -1.3829 -0.1748
 3989TIP3    H233603   4.592   6.703   8.750  3.8545  0.6182  0.6427
 3990TIP3   OH233604   6.065   5.244   1.814 -0.4787 -0.3141 -0.5664
 3990TIP3    H133605   5.998   5.198   1.764 -1.9789  1.4763 -0.2850
 3990TIP3    H233606   6.091   5.181   1.882 -1.9558 -1.0204 -0.6192
 3991TIP3   OH233607   2.430   5.420   7.984 -0.0189 -0.3182  0.4564
 3991TIP3    H133608   2.467   5.390   7.901  2.2624  2.3141  0.3324
 3991TIP3    H233609   2.336   5.420   7.970  0.2436 -1.1026 -1.6977
 3992TIP3   OH233610   2.277   4.195   2.476 -0.1623  0.1986  0.0234
 3992TIP3    H133611   2.280   4.257   2.404 -0.4563  0.1428 -0.0372
 3992TIP3    H233612   2.184   4.187   2.498 -0.1180 -0.1513  0.0880
 3993TIP3   OH233613   4.143   4.661   7.676 -0.5828  0.7414 -0.1977
 3993TIP3    H133614   4.146   4.709   7.758 -1.6410 -0.3537  0.5117
 3993TIP3    H233615   4.226   4.612   7.674 -0.5605  0.7613  0.2160
 3994TIP3   OH233616   6.177   1.750   6.981 -0.6288  0.2076 -0.1482
 3994TIP3    H133617   6.117   1.778   6.912  0.0848 -0.9802 -1.2981
 3994TIP3    H233618   6.198   1.659   6.959  2.5094  0.8975 -0.5053
 3995TIP3   OH233619   4.926   2.188   1.725  0.4321  0.0928  0.1650
 3995TIP3    H133620   4.877   2.142   1.793 -0.5664 -0.1995 -0.7291
 3995TIP3    H233621   5.017   2.187   1.756  0.1205 -0.7362  1.0982
 3996TIP3   OH233622   6.592   4.921   1.320 -0.0585  0.1862 -0.1245
 3996TIP3    H133623   6.669   4.935   1.265  0.0718  3.2053  0.6256
 3996TIP3    H233624   6.518   4.924   1.260  0.2887 -1.3087 -0.6655
 3997TIP3   OH233625   4.912   0.262   0.761  0.4492 -0.1489 -0.5652
 3997TIP3    H133626   4.910   0.335   0.823 -1.7217 -0.6969  0.0642
 3997TIP3    H233627   4.917   0.184   0.815 -0.7433 -0.6052 -1.0731
 3998TIP3   OH233628   5.479   3.182   1.497 -0.0789 -0.0924 -0.0426
 3998TIP3    H133629   5.500   3.273   1.481  0.2862 -0.4288 -1.6727
 3998TIP3    H233630   5.389   3.183   1.531  0.1017  0.8880  0.4181
 3999TIP3   OH233631   6.501   4.063   1.084  0.8738  0.2507 -0.0213
 3999TIP3    H133632   6.569   4.096   1.025 -0.0328  1.5493 -0.3852
 3999TIP3    H233633   6.495   4.128   1.153  0.8713 -0.5018  0.7009
 4000TIP3   OH233634   5.142   6.814   2.119  0.1390  0.2998 -0.3132
 4000TIP3    H133635   5.094   6.850   2.194  0.9391 -0.4573  0.5813
 4000TIP3    H233636   5.234   6.827   2.142  0.4331 -1.5580 -0.3389
 4001TIP3   OH233637   2.413   6.627   2.478 -0.1818  0.1577 -0.2135
 4001TIP3    H133638   2.330   6.589   2.506  0.1952 -0.6378 -0.1509
 4001TIP3    H233639   2.447   6.670   2.556 -0.4775  0.3740 -0.2055
 4002TIP3   OH233640   5.440   4.906   6.870  0.1558  0.4430 -0.1953
 4002TIP3    H133641   5.410   4.995   6.887 -0.0809  0.3994 -0.3608
 4002TIP3    H233642   5.530   4.903   6.902  0.0288  0.6242  0.1745
 4003TIP3   OH233643   0.014   2.769   1.015  0.3551 -0.1215 -0.0104
 4003TIP3    H133644   0.062   2.735   1.091  1.6728 -1.6399 -1.4293
 4003TIP3    H233645   0.046   2.858   1.004  0.3142  0.0409  1.0713
 4004TIP3   OH233646   3.797   1.065   1.063  0.4832  0.3039  0.0347
 4004TIP3    H133647   3.704   1.071   1.087 -0.0339 -0.5867 -1.5440
 4004TIP3    H233648   3.803   1.115   0.981  1.8850  2.1993  1.2189
 4005TIP3   OH233649   6.161   4.963   7.575 -0.3359  0.1928  0.2315
 4005TIP3    H133650   6.233   5.026   7.589 -1.5719  1.2745  2.2520
 4005TIP3    H233651   6.093   5.014   7.532 -1.1668  0.1467  1.4491
 4006TIP3   OH233652   4.818   1.264   0.198  0.1750 -0.4068  0.4754
 4006TIP3    H133653   4.769   1.183   0.188  0.2488 -0.5063  0.8988
 4006TIP3    H233654   4.800   1.292   0.288  0.1738  0.0288  0.3421
 4007TIP3   OH233655   2.006   0.740   7.312 -0.1612 -0.1575  0.3291
 4007TIP3    H133656   2.038   0.830   7.315  0.3622 -0.3483  0.4787
 4007TIP3    H233657   1.969   0.725   7.400  1.5479 -0.7390  0.9799
 4008TIP3   OH233658   1.787   1.439   7.640 -0.0002  0.0695  0.6817
 4008TIP3    H133659   1.692   1.436   7.647 -0.3360  0.1086 -2.3851
 4008TIP3    H233660   1.808   1.531   7.625  0.2224 -0.2122 -0.9563
 4009TIP3   OH233661   5.132   6.001   2.171 -0.2977  1.0319 -0.2644
 4009TIP3    H133662   5.126   6.093   2.197 -0.2940  1.0677 -0.3874
 4009TIP3    H233663   5.047   5.982   2.130  0.8993  2.0087 -3.5199
 4010TIP3   OH233664   0.189   0.739   6.484 -0.5678  0.0108 -0.4569
 4010TIP3    H133665   0.109   0.687   6.477 -0.7731  0.4611 -1.5660
 4010TIP3    H233666   0.166   0.810   6.544 -1.5397  1.0859 -2.0340
 4011TIP3   OH233667   5.412   5.582   1.443 -0.2528  0.6643  0.0607
 4011TIP3    H133668   5.333   5.572   1.496  1.7218  0.4199  3.2345
 4011TIP3    H233669   5.434   5.492   1.416 -0.6884  0.6621 -0.3041
 4012TIP3   OH233670   4.254   2.992   0.021 -0.1949  0.2221  0.3947
 4012TIP3    H133671   4.257   3.083  -0.007  1.3185 -0.3658 -1.5789
 4012TIP3    H233672   4.165   2.981   0.054 -0.7588  2.1388 -0.3225
 4013TIP3   OH233673   6.238   6.149   1.880  0.2696 -0.2900 -0.4643
 4013TIP3    H133674   6.176   6.078   1.896 -0.9277  0.9456  0.6021
 4013TIP3    H233675   6.296   6.148   1.956  0.1554 -0.0323 -0.3743
 4014TIP3   OH233676   0.422   2.578   1.005 -0.4140 -0.3637  0.0209
 4014TIP3    H133677   0.356   2.563   0.937  0.0901 -0.1507 -0.5180
 4014TIP3    H233678   0.376   2.627   1.073 -1.3246 -1.8294  0.5061
 4015TIP3   OH233679   3.883   3.135   7.535  0.0362 -0.2220 -0.1815
 4015TIP3    H133680   3.823   3.061   7.522  0.2449 -0.2116 -1.2534
 4015TIP3    H233681   3.925   3.147   7.450  0.2540  0.9131  0.0745
 4016TIP3   OH233682   0.894   0.180   1.698  0.4436  0.3001  0.3617
 4016TIP3    H133683   0.964   0.161   1.635  1.3408  4.0195 -0.0005
 4016TIP3    H233684   0.815   0.189   1.645  0.9388  2.0558 -0.1630
 4017TIP3   OH233685   2.887   5.977   0.552  0.5133 -0.1021  0.6971
 4017TIP3    H133686   2.908   5.888   0.524  1.5004  0.5597 -0.8129
 4017TIP3    H233687   2.960   6.002   0.608  0.1385 -0.2965  1.2813
 4018TIP3   OH233688   4.680   4.916   6.580  0.5430 -0.0191  0.0826
 4018TIP3    H133689   4.602   4.863   6.564  0.6826 -0.1567 -0.1382
 4018TIP3    H233690   4.736   4.900   6.505  0.4948  0.6138 -0.0878
 4019TIP3   OH233691   5.442   4.883   8.409  0.1246  0.3334  0.1521
 4019TIP3    H133692   5.498   4.827   8.355  0.3340  0.6527  0.0376
 4019TIP3    H233693   5.365   4.829   8.427  0.9689 -0.5517  1.2973
 4020TIP3   OH233694   6.568   2.202   1.071  0.1749 -0.1169 -0.1182
 4020TIP3    H133695   6.523   2.259   1.133 -1.1638 -1.4214  0.1767
 4020TIP3    H233696   6.610   2.135   1.126  1.7956  0.5827 -0.4502
 4021TIP3   OH233697   3.536   1.287   1.889  0.3167  0.0377 -0.3099
 4021TIP3    H133698   3.512   1.380   1.895 -0.0387 -0.0883  0.2671
 4021TIP3    H233699   3.622   1.282   1.930 -0.3189 -0.1325  1.0423
 4022TIP3   OH233700   5.612   6.516   6.413  0.0245 -0.3013 -0.0235
 4022TIP3    H133701   5.582   6.589   6.360 -1.0946 -0.0545  0.9035
 4022TIP3    H233702   5.581   6.438   6.368  0.6812 -0.1989 -0.6817
 4023TIP3   OH233703   6.771   4.165   0.195 -0.0751 -0.2671 -0.2507
 4023TIP3    H133704   6.759   4.203   0.108  1.7990 -0.4019 -0.6225
 4023TIP3    H233705   6.683   4.139   0.223 -0.7698  0.1889 -1.9120
 4024TIP3   OH233706   2.036   2.679   1.483 -0.0674 -0.2233 -0.8495
 4024TIP3    H133707   2.113   2.724   1.519 -0.2394 -0.1419 -0.5760
 4024TIP3    H233708   2.002   2.738   1.417 -0.0748 -0.1209 -0.7541
 4025TIP3   OH233709   2.273   3.047   1.017  0.6290 -0.4644  0.7262
 4025TIP3    H133710   2.278   3.125   0.963 -0.0552 -2.1481 -1.9974
 4025TIP3    H233711   2.190   3.006   0.992  1.4320 -2.5703  1.2921
 4026TIP3   OH233712   2.255   6.734   8.408 -0.0237 -0.3101  0.3872
 4026TIP3    H133713   2.283   6.808   8.461 -0.7072 -1.1983  2.0532
 4026TIP3    H233714   2.280   6.657   8.458 -1.1393 -1.1867 -0.3462
 4027TIP3   OH233715   1.611   3.502   0.901 -0.3208 -0.5750 -0.0956
 4027TIP3    H133716   1.564   3.578   0.868  0.1789 -0.0743  0.3247
 4027TIP3    H233717   1.690   3.498   0.848  0.6430  0.4259  1.2066
 4028TIP3   OH233718   2.626   1.328   1.882 -0.6833 -0.1029  0.6032
 4028TIP3    H133719   2.717   1.309   1.903 -1.1115 -0.8254  1.9098
 4028TIP3    H233720   2.625   1.422   1.864  0.4139 -0.1928 -0.0128
 4029TIP3   OH233721   0.362   0.535   7.090  0.5999  0.0575  0.2718
 4029TIP3    H133722   0.326   0.529   7.178 -0.6664  0.4956 -0.1967
 4029TIP3    H233723   0.299   0.588   7.042  1.5077  0.2185 -0.7841
 4030TIP3   OH233724   6.638   0.748   6.693  0.4688  0.2377  0.3079
 4030TIP3    H133725   6.683   0.671   6.658 -0.8644 -0.2574 -0.4254
 4030TIP3    H233726   6.584   0.779   6.620 -2.3144 -0.7512  1.7716
 4031TIP3   OH233727   0.089   3.263   8.588  0.3004 -0.1145  0.3083
 4031TIP3    H133728   0.031   3.233   8.659 -1.3885  0.7748 -0.6422
 4031TIP3    H233729   0.116   3.182   8.544  0.9348 -0.6399  1.5942
 4032TIP3   OH233730   3.155   2.983   2.412 -0.0604  0.5988  0.4312
 4032TIP3    H133731   3.097   2.975   2.337 -0.0680  0.5313  0.4441
 4032TIP3    H233732   3.120   2.920   2.476 -0.8026  1.5365  0.9767
 4033TIP3   OH233733   5.704   5.355   1.713 -0.3257  0.0239 -0.6526
 4033TIP3    H133734   5.686   5.262   1.703 -1.1693  0.0524  0.4005
 4033TIP3    H233735   5.735   5.364   1.803 -0.3779  0.7725 -0.7014
 4034TIP3   OH233736   5.425   4.817   2.135 -0.4884 -0.0456 -0.4620
 4034TIP3    H133737   5.366   4.743   2.150 -1.0555  0.6272  0.7462
 4034TIP3    H233738   5.510   4.787   2.167 -1.4766  1.0544  3.8729
 4035TIP3   OH233739   5.555   4.106   8.426  0.8569  0.6672 -0.2876
 4035TIP3    H133740   5.592   4.018   8.411  1.7268  0.8621  0.6043
 4035TIP3    H233741   5.485   4.092   8.489  0.7808  0.5684 -0.3938
 4036TIP3   OH233742   1.665   2.267   1.644  0.0105  0.5544  0.2227
 4036TIP3    H133743   1.740   2.314   1.680  0.3057  0.5142 -0.3241
 4036TIP3    H233744   1.595   2.281   1.707  0.3534  0.9658  0.5162
 4037TIP3   OH233745   5.700   4.165   7.568 -0.1064 -0.1065 -0.3827
 4037TIP3    H133746   5.718   4.236   7.507  0.2101 -0.3659 -0.5948
 4037TIP3    H233747   5.684   4.089   7.512 -1.7744  0.0778 -0.2131
 4038TIP3   OH233748   4.801   0.221   6.363 -0.8153 -0.4083  0.8904
 4038TIP3    H133749   4.799   0.137   6.409  0.6509 -0.1175  1.5800
 4038TIP3    H233750   4.721   0.223   6.311 -0.4794 -2.6088  0.1784
 4039TIP3   OH233751   3.979   0.560   8.247  0.0393  0.6258  0.4362
 4039TIP3    H133752   3.922   0.500   8.199 -1.3476  1.9744  0.3206
 4039TIP3    H233753   3.946   0.647   8.226  2.0090  1.4626  0.5786
 4040TIP3   OH233754   1.785   5.061   7.695 -0.1893 -0.0882 -0.1087
 4040TIP3    H133755   1.822   4.976   7.673 -0.0299  0.0231 -0.2757
 4040TIP3    H233756   1.716   5.042   7.758 -0.6934 -0.4264 -0.7446
 4041TIP3   OH233757   5.566   1.830   1.434  0.6119  0.3460 -0.5228
 4041TIP3    H133758   5.589   1.864   1.347  1.2547 -0.7194 -0.7884
 4041TIP3    H233759   5.647   1.788   1.465  0.3156  0.4934  0.4864
 4042TIP3   OH233760   6.216   4.590   7.525 -0.1683 -0.2266 -0.0546
 4042TIP3    H133761   6.147   4.646   7.490 -2.0118 -1.6084  1.1565
 4042TIP3    H233762   6.254   4.640   7.597 -0.0009  0.4685 -0.6149
 4043TIP3   OH233763   4.467   4.867   7.719 -0.2723  0.3489 -0.0682
 4043TIP3    H133764   4.554   4.843   7.750  0.6486  4.5103  1.2393
 4043TIP3    H233765   4.463   4.833   7.630  1.7396 -1.9087  0.6044
 4044TIP3   OH233766   1.530   6.495   1.262 -0.4118  0.0661 -0.3066
 4044TIP3    H133767   1.597   6.548   1.220 -0.2778  0.7499  0.7466
 4044TIP3    H233768   1.562   6.405   1.252  0.6417  0.3788  0.1407
 4045TIP3   OH233769   0.090   6.795   7.494  0.5878 -0.2654 -0.0681
 4045TIP3    H133770   0.026   6.725   7.476  0.5965 -0.5162  0.8588
 4045TIP3    H233771   0.160   6.752   7.543  2.2244 -0.3273 -2.2997
 4046TIP3   OH233772   6.045   6.631   1.999 -0.4423  0.1946  0.1761
 4046TIP3    H133773   6.104   6.696   2.035 -0.0480  0.4263 -0.8682
 4046TIP3    H233774   5.993   6.602   2.074  0.1727  0.8526  0.8713
 4047TIP3   OH233775   3.085   0.768   1.219  0.3196 -0.2538  0.3728
 4047TIP3    H133776   3.146   0.753   1.291  0.0138 -0.3486  0.6155
 4047TIP3    H233777   3.074   0.682   1.179  1.1027 -0.0524 -0.2843
 4048TIP3   OH233778   3.280   1.401   0.971  0.3477  0.1596 -0.0372
 4048TIP3    H133779   3.364   1.370   0.938 -0.4669 -0.5699 -1.5532
 4048TIP3    H233780   3.215   1.353   0.920 -1.0016  2.6484 -0.8176
 4049TIP3   OH233781   1.093   0.352   1.830  0.1018 -0.7072  0.2895
 4049TIP3    H133782   1.035   0.335   1.756  0.9957 -0.0384 -0.5962
 4049TIP3    H233783   1.127   0.440   1.814  0.0863 -0.4272  1.6667
 4050TIP3   OH233784   2.256   1.801   6.316  0.7274 -0.2255  0.0518
 4050TIP3    H133785   2.197   1.823   6.387  0.4399  0.6599 -0.4436
 4050TIP3    H233786   2.199   1.790   6.240  1.2822  3.0378 -1.0116
 4051TIP3   OH233787   3.215   5.938   2.357  0.3223  0.2859  0.3289
 4051TIP3    H133788   3.294   5.899   2.320 -0.5721 -0.3021 -1.0270
 4051TIP3    H233789   3.248   6.011   2.410  1.7346  0.4833 -0.7488
 4052TIP3   OH233790   3.750   4.129   1.903  0.1634  0.0413  0.6700
 4052TIP3    H133791   3.796   4.136   1.819 -2.7857  0.7594 -1.0433
 4052TIP3    H233792   3.793   4.193   1.959  1.1308  0.8323 -0.8977
 4053TIP3   OH233793   3.001   1.432   7.545  0.3616  0.1972 -0.5464
 4053TIP3    H133794   2.996   1.501   7.611  0.0446  0.6335 -1.0190
 4053TIP3    H233795   3.090   1.439   7.511 -0.0623  1.2689 -1.5248
 4054TIP3   OH233796   3.947   0.626   0.093  0.0352  0.4632 -0.2100
 4054TIP3    H133797   4.040   0.643   0.101  0.3607 -1.3550  0.3453
 4054TIP3    H233798   3.910   0.657   0.176  0.1060  1.2483 -0.4586
 4055TIP3   OH233799   2.095   5.461   1.232 -0.4031 -0.6594 -0.4635
 4055TIP3    H133800   2.041   5.516   1.175 -0.6812 -1.2027 -0.7325
 4055TIP3    H233801   2.166   5.518   1.260 -0.4958 -0.2611 -1.0193
 4056TIP3   OH233802   3.154   3.399   6.756 -0.2493  0.6223 -0.0364
 4056TIP3    H133803   3.225   3.343   6.788 -0.5011 -0.4613 -1.2769
 4056TIP3    H233804   3.117   3.350   6.683 -0.8458  2.1922 -0.8155
 4057TIP3   OH233805   2.296   3.213   6.863 -0.2953  0.2553 -1.3090
 4057TIP3    H133806   2.360   3.143   6.851 -0.6947 -0.0441 -1.7626
 4057TIP3    H233807   2.348   3.293   6.868  0.0745  0.0993 -2.4197
 4058TIP3   OH233808   3.735   1.193   8.764  0.3112 -0.1522  0.2396
 4058TIP3    H133809   3.825   1.160   8.766  0.6335  0.7210  0.1923
 4058TIP3    H233810   3.686   1.124   8.717  0.5551 -1.5510  1.9317
 4059TIP3   OH233811   0.940   6.113   1.182 -0.0669 -0.4666  1.1096
 4059TIP3    H133812   0.901   6.105   1.095  0.2623  0.9933  0.7893
 4059TIP3    H233813   0.866   6.113   1.242 -0.4725  0.5125  0.6418
 4060TIP3   OH233814   5.211   0.033   0.458  0.4449 -0.3429  0.4727
 4060TIP3    H133815   5.127   0.011   0.417  0.4431 -0.2813  0.4434
 4060TIP3    H233816   5.270  -0.037   0.430  0.9282  0.6579 -1.1403
 4061TIP3   OH233817   0.266   1.649   2.192  0.0711  0.3050  0.4463
 4061TIP3    H133818   0.202   1.601   2.244  1.1854 -1.6802  0.0983
 4061TIP3    H233819   0.327   1.686   2.257 -0.0007  0.0372  0.6683
 4062TIP3   OH233820   6.536   5.289   7.632  0.2260 -0.3194 -0.1529
 4062TIP3    H133821   6.590   5.294   7.553 -2.1020  1.3086 -1.7852
 4062TIP3    H233822   6.498   5.201   7.629  0.4325 -0.3969 -0.6475
 4063TIP3   OH233823   1.110   1.805   8.729 -0.0439  0.1596  0.2338
 4063TIP3    H133824   1.037   1.754   8.695  1.2522 -1.3242 -0.4787
 4063TIP3    H233825   1.104   1.890   8.685 -1.7285  0.3329  0.7553
 4064TIP3   OH233826   2.346   1.367   7.790 -0.3293  0.3292 -0.0562
 4064TIP3    H133827   2.417   1.430   7.779 -1.1688  1.7650  2.0917
 4064TIP3    H233828   2.274   1.400   7.737  0.1627 -0.4454 -1.2369
 4065TIP3   OH233829   4.224   5.711   6.270  0.2281 -0.8049 -0.0030
 4065TIP3    H133830   4.300   5.757   6.305 -2.0905  2.0737  1.6700
 4065TIP3    H233831   4.225   5.626   6.315  2.0228 -0.5634  0.5024
 4066TIP3   OH233832   4.155   6.511   6.908 -0.0510 -0.1705 -0.1744
 4066TIP3    H133833   4.083   6.504   6.845 -0.1241 -0.8494 -0.0283
 4066TIP3    H233834   4.233   6.526   6.855  0.0492 -1.7513 -0.5218
 4067TIP3   OH233835   5.084   5.314   7.834 -0.3785 -0.4527  0.2890
 4067TIP3    H133836   5.167   5.332   7.878 -0.4887 -0.3880  0.4742
 4067TIP3    H233837   5.044   5.401   7.825  0.1949 -0.3111 -1.0601
 4068TIP3   OH233838   0.522   0.249   0.179  0.0322 -0.0668  0.1008
 4068TIP3    H133839   0.539   0.204   0.096 -0.9572 -1.6221  0.6829
 4068TIP3    H233840   0.456   0.314   0.158  0.9791  0.6745 -0.6360
 4069TIP3   OH233841   3.261   3.376   0.773 -0.2215  0.4483 -0.0013
 4069TIP3    H133842   3.288   3.463   0.805  0.5882  0.9518 -1.9133
 4069TIP3    H233843   3.180   3.392   0.726 -0.1148  0.1510 -0.2851
 4070TIP3   OH233844   0.535   1.615   8.558  0.5004 -0.8654  0.1720
 4070TIP3    H133845   0.599   1.572   8.614 -0.1391 -0.8325  0.9401
 4070TIP3    H233846   0.584   1.685   8.515  0.6623  0.1535  1.9101
 4071TIP3   OH233847   4.694   6.457   8.352  0.0051 -0.3157  0.1780
 4071TIP3    H133848   4.636   6.431   8.423  1.6854 -0.7344  1.4695
 4071TIP3    H233849   4.685   6.389   8.286  0.5680 -1.5137  1.2965
 4072TIP3   OH233850   5.247   1.052   8.724 -0.0554 -0.0202 -0.2063
 4072TIP3    H133851   5.174   0.992   8.712 -0.0328  0.1109 -1.0548
 4072TIP3    H233852   5.226   1.099   8.805 -1.8603  1.2957 -1.3411
 4073TIP3   OH233853   6.639   0.515   8.775 -0.3804  0.4070  0.3648
 4073TIP3    H133854   6.713   0.575   8.780 -0.6615  0.7049  0.9497
 4073TIP3    H233855   6.678   0.428   8.785  0.2354  0.3393 -2.0390
 4074TIP3   OH233856   5.275   5.287   0.857  0.1992  0.4868 -0.2303
 4074TIP3    H133857   5.303   5.304   0.947 -0.6821  0.0597  0.1409
 4074TIP3    H233858   5.321   5.206   0.833 -2.1238 -1.3612  1.0980
 4075TIP3   OH233859   5.991   1.925   8.607  0.0902  0.0472 -0.6447
 4075TIP3    H133860   6.083   1.903   8.588 -0.5736 -3.7301 -0.3654
 4075TIP3    H233861   5.957   1.960   8.525  1.5860  0.9427 -0.9295
 4076TIP3   OH233862   6.142   1.962   8.233 -0.1022 -0.0561 -0.0444
 4076TIP3    H133863   6.236   1.953   8.248  0.1340  1.0256 -0.7167
 4076TIP3    H233864   6.113   1.875   8.208  0.7444 -0.3776  0.0673
 4077TIP3   OH233865   1.396   3.388   1.045  0.8579  0.0250  0.3439
 4077TIP3    H133866   1.474   3.398   0.991  1.0890 -1.9671  0.2407
 4077TIP3    H233867   1.350   3.471   1.036  0.9935 -0.1319 -2.7792
 4078TIP3   OH233868   0.600   4.353   0.501 -0.3301 -0.0933  0.0212
 4078TIP3    H133869   0.532   4.402   0.455  0.0478  0.0609 -0.3939
 4078TIP3    H233870   0.595   4.265   0.464  0.1229  0.0893 -0.4956
 4079TIP3   OH233871   2.569   2.056   1.985 -0.0507  0.0924 -0.0085
 4079TIP3    H133872   2.602   2.136   2.025 -0.8250  0.0307  0.8084
 4079TIP3    H233873   2.484   2.043   2.027 -0.9134  0.0220 -1.7121
 4080TIP3   OH233874   3.163   0.908   8.779 -0.9490  0.2706  0.1607
 4080TIP3    H133875   3.166   0.837   8.716 -1.8981 -0.1791  0.6094
 4080TIP3    H233876   3.198   0.983   8.732 -0.1457 -0.4308 -0.3896
 4081TIP3   OH233877   1.218   4.223   7.601  0.0035 -0.2510 -0.3536
 4081TIP3    H133878   1.149   4.156   7.599 -0.4271  0.2151 -1.4767
 4081TIP3    H233879   1.296   4.175   7.632  0.1912 -1.7675 -2.9056
 4082TIP3   OH233880   3.491   0.385   1.231 -0.2320 -1.0476 -0.1546
 4082TIP3    H133881   3.434   0.448   1.187 -1.1598 -2.1086 -0.5256
 4082TIP3    H233882   3.555   0.439   1.278 -3.3462  0.3607  2.9129
 4083TIP3   OH233883   0.607   3.946   1.041  0.0550 -0.0171  0.4991
 4083TIP3    H133884   0.532   4.005   1.033  0.0963 -0.1075 -0.7140
 4083TIP3    H233885   0.571   3.859   1.025  0.6929  0.1073 -2.0658
 4084TIP3   OH233886   0.015   6.094   1.745 -0.4722  0.0900  0.3966
 4084TIP3    H133887   0.088   6.034   1.758 -1.8918 -1.7788  0.1217
 4084TIP3    H233888   0.001   6.135   1.830  1.2978  1.0296  0.2822
 4085TIP3   OH233889   5.179   4.114   7.333 -0.7535 -0.2734 -0.2417
 4085TIP3    H133890   5.206   4.168   7.259 -3.3196  0.8690 -0.4471
 4085TIP3    H233891   5.088   4.140   7.350 -0.4885 -0.9910  2.8875
 4086TIP3   OH233892   4.842   0.195   1.314  0.4165  1.0041 -0.2656
 4086TIP3    H133893   4.866   0.259   1.382  0.2581  0.1825  0.5732
 4086TIP3    H233894   4.926   0.161   1.283  0.5473  2.2164 -1.3267
 4087TIP3   OH233895   3.171   5.337   1.364  0.5852 -0.4027  0.4852
 4087TIP3    H133896   3.096   5.305   1.414 -0.5146  2.7826  1.0673
 4087TIP3    H233897   3.223   5.386   1.428  3.0719 -2.2230  0.0068
 4088TIP3   OH233898   4.469   6.295   6.942 -0.0168  0.4794  0.4033
 4088TIP3    H133899   4.521   6.268   6.867 -0.2333 -1.4298  0.9085
 4088TIP3    H233900   4.407   6.359   6.906  0.5071  0.3182 -0.8343
 4089TIP3   OH233901   1.468   2.297   0.796  0.4704  0.3741 -0.7217
 4089TIP3    H133902   1.403   2.365   0.779  0.0796 -0.3555 -2.4290
 4089TIP3    H233903   1.418   2.216   0.797  1.0801 -0.0007  0.1604
 4090TIP3   OH233904   5.318   5.610   7.342 -0.2189  0.3274  0.1913
 4090TIP3    H133905   5.283   5.526   7.312  2.1292 -0.5561 -0.2536
 4090TIP3    H233906   5.291   5.672   7.274 -2.3388  0.0948  0.7319
 4091TIP3   OH233907   3.492   2.906   0.035 -0.1866  0.3146  0.2066
 4091TIP3    H133908   3.515   2.938   0.122  0.8098 -1.5208  0.6776
 4091TIP3    H233909   3.549   2.830   0.022  0.3121  1.0446 -2.4215
 4092TIP3   OH233910   3.175   3.690   7.732 -0.2637  0.4814 -0.3363
 4092TIP3    H133911   3.127   3.717   7.810 -0.1929  0.5734 -0.3241
 4092TIP3    H233912   3.111   3.642   7.680  0.3545 -1.9301  0.9857
 4093TIP3   OH233913   1.316   2.863   7.303  0.8003 -0.0487  0.6122
 4093TIP3    H133914   1.404   2.898   7.293  0.2375  2.1207  2.4412
 4093TIP3    H233915   1.284   2.899   7.386 -2.6416  1.2327 -1.0405
 4094TIP3   OH233916   2.472   5.692   8.310  0.8036 -0.1307 -0.2482
 4094TIP3    H133917   2.495   5.706   8.219 -0.5612 -1.6273 -0.8733
 4094TIP3    H233918   2.467   5.780   8.348  1.8110  0.4874 -1.4780
 4095TIP3   OH233919   4.887   2.241   0.323  0.3669 -0.4433 -0.4407
 4095TIP3    H133920   4.883   2.148   0.301 -0.3753 -0.8621  1.2983
 4095TIP3    H233921   4.891   2.243   0.418 -1.1441  1.3356 -0.3540
 4096TIP3   OH233922   6.200   2.619   2.147  0.0494 -0.4069  0.2347
 4096TIP3    H133923   6.287   2.646   2.116 -0.1791 -1.5244 -1.5188
 4096TIP3    H233924   6.150   2.701   2.150  0.1702 -0.1489 -2.2395
 4097TIP3   OH233925   2.287   3.513   7.870 -0.6061  0.0788 -0.1911
 4097TIP3    H133926   2.310   3.426   7.837 -0.7588 -0.5927  1.3771
 4097TIP3    H233927   2.296   3.506   7.964  0.5400  2.1444 -0.1018
 4098TIP3   OH233928   3.696   1.625   0.720  0.2545 -0.4155  0.0589
 4098TIP3    H133929   3.719   1.703   0.770 -1.8829 -0.4910  1.2637
 4098TIP3    H233930   3.780   1.589   0.692  1.3447  1.7196  0.3580
 4099TIP3   OH233931   4.706   3.002   0.167 -0.1986  0.2565  0.0269
 4099TIP3    H133932   4.766   3.074   0.183 -0.6561  0.8712 -0.9463
 4099TIP3    H233933   4.620   3.037   0.190 -0.2469 -0.5297  1.1518
 4100TIP3   OH233934   3.865   0.343   6.954  0.6376 -0.0563 -0.7268
 4100TIP3    H133935   3.842   0.254   6.927 -0.8089  0.1064 -0.0929
 4100TIP3    H233936   3.830   0.398   6.884 -0.3675  0.1506 -0.0723
 4101TIP3   OH233937   2.940   1.586   1.266  0.0679  0.2845 -0.5281
 4101TIP3    H133938   2.854   1.550   1.285  0.0111 -0.5221 -2.1202
 4101TIP3    H233939   2.933   1.679   1.285 -1.2419  0.2678 -0.8915
 4102TIP3   OH233940   2.064   1.042   7.336 -0.0891 -0.1720 -0.3402
 4102TIP3    H133941   2.057   1.066   7.244  0.5915 -1.7767 -0.8426
 4102TIP3    H233942   2.135   1.097   7.370  0.0253  0.0335 -0.9055
 4103TIP3   OH233943   3.566   5.893   0.354  0.1561 -0.1166 -0.1648
 4103TIP3    H133944   3.520   5.816   0.386 -1.2233  0.5650 -0.4110
 4103TIP3    H233945   3.591   5.941   0.432 -0.3012 -0.0755 -0.0440
 4104TIP3   OH233946   1.503   1.272   3.061  0.1288 -0.1064 -0.1490
 4104TIP3    H133947   1.461   1.274   2.975  0.3082  3.0596 -0.2771
 4104TIP3    H233948   1.595   1.256   3.043  0.5100  2.4036 -0.8438
 4105TIP3   OH233949   5.416   5.042   7.139  0.3179  0.1746 -0.5435
 4105TIP3    H133950   5.372   5.100   7.201  0.8504 -0.8497  0.8365
 4105TIP3    H233951   5.394   5.078   7.053 -0.7589  1.4060  0.2113
 4106TIP3   OH233952   5.705   2.384   8.588  0.1121 -0.3335 -0.1178
 4106TIP3    H133953   5.664   2.371   8.673  0.6909  0.9858  0.3971
 4106TIP3    H233954   5.792   2.347   8.598  0.1143 -0.3471 -0.1895
 4107TIP3   OH233955   6.779   4.949   0.537  0.1448 -0.2691  0.5821
 4107TIP3    H133956   6.874   4.956   0.540  0.2310 -1.1645  0.3741
 4107TIP3    H233957   6.750   4.977   0.624  0.5246  0.7976  0.3793
 4108TIP3   OH233958   6.119   5.904   6.937 -0.1488 -0.3054 -0.3354
 4108TIP3    H133959   6.086   5.815   6.933 -0.1592 -0.4497  1.5958
 4108TIP3    H233960   6.197   5.904   6.882 -1.1130 -1.0064 -1.7669
 4109TIP3   OH233961   1.335   0.912   0.784 -0.2665  0.3203 -0.7213
 4109TIP3    H133962   1.428   0.932   0.781 -0.3851  1.6527  1.7412
 4109TIP3    H233963   1.292   0.991   0.751 -0.5527 -0.3036 -1.8896
 4110TIP3   OH233964   2.951   4.238   8.422  0.2316 -0.1952 -0.4405
 4110TIP3    H133965   2.908   4.271   8.501 -0.1396 -1.8259  0.0822
 4110TIP3    H233966   2.912   4.151   8.408  1.0237 -0.3526 -1.8377
 4111TIP3   OH233967   6.098   3.991   0.451  0.6448  0.3489  0.0525
 4111TIP3    H133968   6.084   4.023   0.362  1.0752 -1.5439 -0.7366
 4111TIP3    H233969   6.094   3.896   0.444 -0.1573  0.1563  2.2166
 4112TIP3   OH233970   3.613   2.593   0.166 -0.0810  0.2241  0.5488
 4112TIP3    H133971   3.560   2.518   0.195  2.0538 -1.3654  0.6386
 4112TIP3    H233972   3.571   2.622   0.085  0.1763 -2.4978 -0.6733
 4113TIP3   OH233973   6.412   3.253   7.814  0.0063 -0.0780 -0.3050
 4113TIP3    H133974   6.352   3.309   7.864 -0.1808  1.2950 -1.9680
 4113TIP3    H233975   6.470   3.215   7.880 -0.4280  1.3983  0.9897
 4114TIP3   OH233976   4.642   4.915   7.398 -0.6936  0.1997  0.0815
 4114TIP3    H133977   4.559   4.948   7.433 -0.6693 -0.6315  0.9751
 4114TIP3    H233978   4.632   4.820   7.400 -0.9358  0.0873 -2.8133
 4115TIP3   OH233979   4.956   2.890   7.634 -0.3406 -0.0156 -0.0120
 4115TIP3    H133980   5.008   2.841   7.698  0.8842 -0.7621 -1.5056
 4115TIP3    H233981   4.956   2.834   7.555 -0.5349  1.5177 -1.1428
 4116TIP3   OH233982   6.092   5.656   2.278  0.2973 -0.8287  0.5719
 4116TIP3    H133983   6.112   5.750   2.282  1.1482 -0.9752  4.9672
 4116TIP3    H233984   6.155   5.621   2.215  0.7814  1.3375 -0.2490
 4117TIP3   OH233985   1.971   5.326   0.395  0.1282 -0.0409  0.2406
 4117TIP3    H133986   1.967   5.407   0.447  1.1613  1.0414 -1.2873
 4117TIP3    H233987   1.894   5.330   0.338  0.4688  0.1336 -0.2083
 4118TIP3   OH233988   3.072   1.987   0.586 -0.2543  0.9786  0.1224
 4118TIP3    H133989   3.151   2.010   0.538  0.9848 -0.0374  1.5781
 4118TIP3    H233990   3.063   2.055   0.652 -0.6304  1.0911 -0.0362
 4119TIP3   OH233991   5.749   3.924   2.375 -0.1508  0.6291  0.5720
 4119TIP3    H133992   5.672   3.978   2.392 -0.0494  0.6976  0.8148
 4119TIP3    H233993   5.719   3.835   2.393  0.0619  0.7331  1.5187
 4120TIP3   OH233994   6.433   4.190   1.318  0.0148 -0.3828 -0.4395
 4120TIP3    H133995   6.387   4.263   1.360  0.5961  0.1392 -0.6991
 4120TIP3    H233996   6.434   4.121   1.384  1.2216  0.5411  0.5639
 4121TIP3   OH233997   6.842   5.387   1.647 -0.0034 -0.0645  0.0269
 4121TIP3    H133998   6.860   5.412   1.556 -1.6298  0.3768 -0.2018
 4121TIP3    H233999   6.858   5.292   1.650 -0.0587 -0.1033 -0.7597
 4122TIP3   OH234000   0.489   4.282   1.261  0.0574  0.3496 -0.2376
 4122TIP3    H134001   0.462   4.345   1.194  0.2992  0.7440  0.0298
 4122TIP3    H234002   0.580   4.262   1.239 -0.4838 -1.1391 -1.2612
 4123TIP3   OH234003   0.203   2.352   0.133 -0.3100  0.1080  0.2262
 4123TIP3    H134004   0.220   2.286   0.200 -1.1432  0.0019  0.3556
 4123TIP3    H234005   0.198   2.435   0.182  0.5191  0.2422  0.0934
 4124TIP3   OH234006   5.797   1.290   7.374 -0.0039  0.0652 -0.5366
 4124TIP3    H134007   5.730   1.275   7.441  1.0358 -0.2778  0.4534
 4124TIP3    H234008   5.873   1.240   7.403  0.7330  0.5199 -1.5859
 4125TIP3   OH234009   3.390   3.462   6.930 -0.0524 -0.6190 -0.8533
 4125TIP3    H134010   3.377   3.369   6.911 -0.5655 -0.3668 -1.8190
 4125TIP3    H234011   3.399   3.466   7.025 -1.6216 -1.4829 -0.6211
 4126TIP3   OH234012   1.782   2.665   1.664  0.0449  0.1533  0.3191
 4126TIP3    H134013   1.726   2.742   1.665 -0.4709 -0.2080  1.8386
 4126TIP3    H234014   1.867   2.698   1.636 -0.8896  0.6871 -2.1965
 4127TIP3   OH234015   6.817   5.535   1.155  0.3939 -0.3608 -0.1025
 4127TIP3    H134016   6.858   5.555   1.071 -1.0394 -0.7593 -0.9364
 4127TIP3    H234017   6.779   5.619   1.184  1.3526 -0.0961  0.4478
 4128TIP3   OH234018   5.418   1.199   8.436  0.4901  0.0959  0.1799
 4128TIP3    H134019   5.491   1.252   8.466  0.1737  0.2260  0.7476
 4128TIP3    H234020   5.345   1.260   8.429 -0.4865 -0.5831  3.0772
 4129TIP3   OH234021   5.266   3.055   8.106 -0.7686 -0.0402 -0.2827
 4129TIP3    H134022   5.235   3.086   8.191 -0.9520 -1.0896  0.0380
 4129TIP3    H234023   5.361   3.048   8.115 -0.5915  1.4139 -0.6959
 4130TIP3   OH234024   6.628   6.545   0.790 -0.7139  0.2790 -0.3581
 4130TIP3    H134025   6.724   6.554   0.785 -0.8864  3.2162 -0.2067
 4130TIP3    H234026   6.603   6.511   0.705  0.3835  0.7308 -0.8838
 4131TIP3   OH234027   6.755   4.965   1.103  0.0633 -0.4223 -0.0066
 4131TIP3    H134028   6.842   4.925   1.101  0.2745 -0.0175 -2.1763
 4131TIP3    H234029   6.772   5.059   1.111 -0.1586 -0.3316 -0.5519
 4132TIP3   OH234030   1.556   6.815   2.428 -0.4581 -0.3600 -0.0450
 4132TIP3    H134031   1.575   6.723   2.413 -1.2264 -0.5285 -0.0296
 4132TIP3    H234032   1.510   6.817   2.512 -0.5448  0.0237 -0.0994
 4133TIP3   OH234033   6.435   6.415   2.556  0.0551 -0.0018  0.1328
 4133TIP3    H134034   6.383   6.335   2.558 -1.0270  0.6279 -1.0102
 4133TIP3    H234035   6.382   6.479   2.603 -0.6497  0.8503 -1.7027
 4134TIP3   OH234036   4.725   6.823   1.279 -0.0413 -0.1522 -0.3367
 4134TIP3    H134037   4.721   6.918   1.290 -0.8935 -0.2626  0.4836
 4134TIP3    H234038   4.782   6.793   1.350 -1.0721 -0.3727  0.4360
 4135TIP3   OH234039   4.904   6.279   0.109 -0.1200 -0.2127  0.8817
 4135TIP3    H134040   4.951   6.213   0.059 -0.7042 -0.1620  0.2541
 4135TIP3    H234041   4.892   6.239   0.195 -1.3007 -1.3280  0.2304
 4136TIP3   OH234042   1.928   4.771   7.939  0.0500 -0.7740  0.0525
 4136TIP3    H134043   1.839   4.761   7.974 -0.5900  1.7386 -0.6882
 4136TIP3    H234044   1.938   4.696   7.880 -1.8209 -0.8218 -0.2914
 4137TIP3   OH234045   0.805   3.183   1.382  0.3456 -0.0518  0.1592
 4137TIP3    H134046   0.837   3.102   1.343  2.3018  0.8826 -0.3597
 4137TIP3    H234047   0.878   3.213   1.437 -0.9716  0.5270  1.6707
 4138TIP3   OH234048   6.056   6.713   0.700  0.4070 -0.0368  0.0363
 4138TIP3    H134049   6.131   6.722   0.640 -0.0489 -1.1583 -0.7411
 4138TIP3    H234050   6.093   6.672   0.778  1.0117  1.4430  0.5513
 4139TIP3   OH234051   0.000   0.898   7.321  0.0086  0.4060 -0.2859
 4139TIP3    H134052  -0.073   0.886   7.260 -0.4976 -0.2853  0.4373
 4139TIP3    H234053   0.074   0.855   7.279 -0.1693  0.5329 -0.7279
 4140TIP3   OH234054   0.091   0.603   8.492 -0.3413  0.2514  0.1740
 4140TIP3    H134055   0.112   0.676   8.434  0.0560  0.7196  0.9012
 4140TIP3    H234056   0.008   0.569   8.458 -0.6213  1.1468 -0.0613
 4141TIP3   OH234057   3.768   4.262   2.215 -0.1293  0.1669 -0.0862
 4141TIP3    H134058   3.781   4.320   2.140  0.3499 -1.1307 -1.0450
 4141TIP3    H234059   3.854   4.222   2.229 -0.6643 -1.0093 -0.0496
 4142TIP3   OH234060   2.860   5.687   0.697  0.4558  0.2212 -0.0150
 4142TIP3    H134061   2.765   5.695   0.684  0.2594 -0.4724  0.9150
 4142TIP3    H234062   2.885   5.767   0.743  0.3178  0.3663 -0.1874
 4143TIP3   OH234063   1.673   5.647   8.452  0.9089  0.7235  0.2789
 4143TIP3    H134064   1.666   5.740   8.475 -0.1949  0.7571 -0.1030
 4143TIP3    H234065   1.720   5.646   8.369  2.9961  0.7513  1.3976
 4144TIP3   OH234066   3.477   6.443   8.598  0.6649 -0.5435  0.1665
 4144TIP3    H134067   3.449   6.384   8.668 -0.0417 -0.8295 -0.3461
 4144TIP3    H234068   3.511   6.519   8.644  2.8428 -1.8605  0.8811
 4145TIP3   OH234069   2.235   1.942   1.833  0.2098 -0.2354  0.0249
 4145TIP3    H134070   2.313   1.926   1.779  1.2601  2.2842  0.6174
 4145TIP3    H234071   2.231   1.868   1.893  0.8926 -1.4696 -1.3737
 4146TIP3   OH234072   5.228   5.768   0.907 -0.1191 -0.4225  0.0313
 4146TIP3    H134073   5.250   5.803   0.820  0.5754 -1.6892 -0.3223
 4146TIP3    H234074   5.147   5.718   0.892  0.6145 -1.5861 -0.1451
 4147TIP3   OH234075   4.283   0.462   0.528  0.6459  0.3698 -0.1796
 4147TIP3    H134076   4.238   0.429   0.605  0.4118 -0.6155 -0.7227
 4147TIP3    H234077   4.366   0.497   0.561  1.1364 -1.2240  0.3739
 4148TIP3   OH234078   0.561   2.190   6.494  0.0076 -0.2150 -0.0754
 4148TIP3    H134079   0.559   2.155   6.404 -1.2566 -0.7700  0.1393
 4148TIP3    H234080   0.642   2.156   6.531 -0.4936 -1.7865 -0.3444
 4149TIP3   OH234081   6.402   4.940   6.659 -0.2039  0.3050 -0.2363
 4149TIP3    H134082   6.436   4.884   6.728  0.2975  1.3841  0.4297
 4149TIP3    H234083   6.408   4.887   6.579  1.2542 -0.2250  0.1940
 4150TIP3   OH234084   3.877   6.737   7.048 -0.6490 -0.7446  0.5290
 4150TIP3    H134085   3.784   6.731   7.025 -0.9457  1.1607  1.0086
 4150TIP3    H234086   3.878   6.789   7.128  1.0149  2.9485 -1.6412
 4151TIP3   OH234087   5.624   1.698   8.346  0.2177 -0.0782  0.1442
 4151TIP3    H134088   5.679   1.694   8.268 -0.7203 -0.0077 -0.5362
 4151TIP3    H234089   5.674   1.650   8.413 -0.3029 -2.8389 -1.3145
 4152TIP3   OH234090   3.550   4.424   0.619 -0.1439  0.7214  0.2210
 4152TIP3    H134091   3.623   4.378   0.577 -1.0822 -0.7694  0.1667
 4152TIP3    H234092   3.565   4.517   0.598  1.2431  0.3632 -0.5201
 4153TIP3   OH234093   0.371   0.972   7.646 -0.4241  0.1261  0.1884
 4153TIP3    H134094   0.391   1.040   7.710 -1.0703  0.4472  0.0612
 4153TIP3    H234095   0.371   0.890   7.696  1.7576  0.0208  0.0832
 4154TIP3   OH234096   2.272   0.451   7.919 -0.4515  0.2924 -0.1672
 4154TIP3    H134097   2.217   0.416   7.848 -0.2814 -1.1132  0.3739
 4154TIP3    H234098   2.225   0.429   7.999 -0.7683  2.1032  0.1808
 4155TIP3   OH234099   6.764   2.970   1.269 -0.4228  0.0297  0.1961
 4155TIP3    H134100   6.748   3.064   1.260 -0.8292  0.0820  1.3121
 4155TIP3    H234101   6.858   2.960   1.254  0.0634  0.9500  2.3044
 4156TIP3   OH234102   2.045   4.808   7.418 -0.6177  0.4214  0.2530
 4156TIP3    H134103   2.054   4.892   7.373  1.5549  0.5624  0.8605
 4156TIP3    H234104   2.087   4.745   7.361 -1.0953 -0.0532  0.4135
 4157TIP3   OH234105   1.621   3.943   7.434  0.1871  0.7647  0.4388
 4157TIP3    H134106   1.592   3.873   7.375  1.4526 -1.1515  1.9459
 4157TIP3    H234107   1.671   4.002   7.377 -1.4975  0.8930 -1.0057
 4158TIP3   OH234108   5.242   1.593   1.370  0.4972  0.4755  0.2270
 4158TIP3    H134109   5.300   1.523   1.342  1.4923  0.8083  1.4142
 4158TIP3    H234110   5.240   1.588   1.465 -2.0697 -0.0230  0.2328
 4159TIP3   OH234111   0.652   0.083   6.923  0.2528  0.0879 -0.2002
 4159TIP3    H134112   0.645   0.178   6.923 -0.9971  0.0432  1.5489
 4159TIP3    H234113   0.744   0.066   6.941  0.6322  0.9427 -1.2234
 4160TIP3   OH234114   6.047   1.566   1.973 -0.0037  0.0189 -0.2955
 4160TIP3    H134115   6.110   1.552   2.044 -1.0064 -4.0075  0.0870
 4160TIP3    H234116   5.969   1.600   2.017 -0.0840 -0.9085  0.3142
 4161TIP3   OH234117   6.071   6.280   0.720  0.3021 -0.8035  0.2952
 4161TIP3    H134118   6.092   6.320   0.805  1.0544 -0.7452  0.0927
 4161TIP3    H234119   6.001   6.334   0.685  1.5278  0.6003 -0.1291
 4162TIP3   OH234120   0.542   6.069   8.718  0.6343 -0.4700  0.1130
 4162TIP3    H134121   0.577   6.073   8.807 -4.0146 -0.6815  2.2426
 4162TIP3    H234122   0.514   6.158   8.699  0.3226 -0.7003 -0.5554
 4163TIP3   OH234123   0.775   5.457   7.260  0.4379  0.2678  0.1956
 4163TIP3    H134124   0.719   5.516   7.310  0.5307 -0.3026  0.9911
 4163TIP3    H234125   0.760   5.482   7.168  0.3081  1.3654  0.5009
 4164TIP3   OH234126   4.265   3.738   6.456  0.0357 -0.7843 -0.0305
 4164TIP3    H134127   4.177   3.771   6.438  0.0087 -1.8964 -2.1682
 4164TIP3    H234128   4.281   3.672   6.389  3.0329  0.3459 -0.6027
 4165TIP3   OH234129   3.074   4.955   8.762  0.2265 -0.0963 -0.3739
 4165TIP3    H134130   3.020   4.951   8.683  0.3943  0.0298 -0.4958
 4165TIP3    H234131   3.152   4.903   8.741  0.1581 -0.2712 -0.2009
 4166TIP3   OH234132   1.950   1.005   7.590 -0.2208 -0.5180  0.3503
 4166TIP3    H134133   1.985   1.005   7.501 -2.0496  1.4355 -0.4753
 4166TIP3    H234134   2.027   1.014   7.647  0.7883  1.4909 -1.2255
 4167TIP3   OH234135   1.761   3.903   6.982  0.0442 -0.3342 -0.3656
 4167TIP3    H134136   1.698   3.897   6.910  0.7688  1.3411 -1.1992
 4167TIP3    H234137   1.846   3.883   6.941  0.1896 -1.9138  0.6035
 4168TIP3   OH234138   0.678   2.724   2.656  0.0546  0.5764  0.1333
 4168TIP3    H134139   0.598   2.710   2.707 -1.0722  0.4562 -1.6039
 4168TIP3    H234140   0.681   2.651   2.595  1.0708  1.0079 -0.3603
 4169TIP3   OH234141   6.535   2.101   8.614  0.1886  0.1891 -0.2001
 4169TIP3    H134142   6.573   2.143   8.537  0.7504 -0.7307 -0.4461
 4169TIP3    H234143   6.609   2.085   8.672 -0.2384  0.9230  0.5697
 4170TIP3   OH234144   0.785   6.275   0.861  0.3646 -0.5657 -0.3263
 4170TIP3    H134145   0.699   6.316   0.872  0.2556 -0.5689 -1.1077
 4170TIP3    H234146   0.829   6.329   0.795  0.5644 -1.1770 -0.6965
 4171TIP3   OH234147   4.577   2.981   1.172  0.3277  0.1326 -0.4678
 4171TIP3    H134148   4.570   2.937   1.088  0.7177 -0.1966 -0.3336
 4171TIP3    H234149   4.644   2.932   1.219 -0.3778 -0.1134  0.3021
 4172TIP3   OH234150   3.192   2.664   7.622  0.0794  0.2338 -0.3001
 4172TIP3    H134151   3.155   2.587   7.578 -1.6071  1.1204 -0.5379
 4172TIP3    H234152   3.205   2.728   7.552 -0.8755  1.0084  0.2015
 4173TIP3   OH234153   0.117   5.267   8.024  0.5257 -0.7894 -0.3350
 4173TIP3    H134154   0.072   5.302   7.946 -1.7868 -1.3484  0.6666
 4173TIP3    H234155   0.185   5.332   8.043 -0.7274  0.8597 -1.1500
 4174TIP3   OH234156   3.820   5.995   1.646  0.6660 -0.2389 -0.7304
 4174TIP3    H134157   3.804   5.915   1.698 -2.0891  0.2530 -0.6365
 4174TIP3    H234158   3.847   6.060   1.711  1.7292 -0.7501 -0.6313
 4175TIP3   OH234159   4.079   5.980   1.574 -0.2319  0.4233  0.8922
 4175TIP3    H134160   3.985   5.969   1.585 -0.2361  0.6206  1.0478
 4175TIP3    H234161   4.118   5.941   1.653 -0.1224 -0.6681  0.3212
 4176TIP3   OH234162   6.227   3.563   1.673  0.7337  0.4987  0.1686
 4176TIP3    H134163   6.188   3.545   1.588 -0.6218  1.5540  0.5353
 4176TIP3    H234164   6.242   3.658   1.673  1.3863  0.4034  0.8389
 4177TIP3   OH234165   1.647   1.055   1.827  0.2746  0.4156  0.0926
 4177TIP3    H134166   1.558   1.059   1.792 -0.4585 -2.1826  1.4219
 4177TIP3    H234167   1.643   1.102   1.910  0.8951  2.6431 -1.0588
 4178TIP3   OH234168   4.365   5.607   0.648 -0.4568 -0.2815  0.4891
 4178TIP3    H134169   4.325   5.623   0.733 -0.2806  0.1503  0.4924
 4178TIP3    H234170   4.455   5.638   0.658 -0.6978  0.6667 -0.1380
 4179TIP3   OH234171   0.594   1.243   8.340 -0.3848  0.1227 -0.3137
 4179TIP3    H134172   0.651   1.320   8.340  0.2953 -0.3384  1.3843
 4179TIP3    H234173   0.627   1.188   8.269  1.6242 -0.3422  0.9189
 4180TIP3   OH234174   6.420   5.341   2.140  0.6078  1.0525 -0.0156
 4180TIP3    H134175   6.428   5.262   2.193 -0.6952  1.4639  0.8582
 4180TIP3    H234176   6.499   5.391   2.158  0.6410  0.7260  0.7648
 4181TIP3   OH234177   1.294   6.661   0.696  0.4847 -0.6737 -0.1996
 4181TIP3    H134178   1.319   6.747   0.730 -1.8071 -0.1105  0.2687
 4181TIP3    H234179   1.369   6.605   0.714  1.9104  1.1377 -0.2205
 4182TIP3   OH234180   5.762   3.910   8.691 -0.0982 -0.1478 -0.3960
 4182TIP3    H134181   5.822   3.896   8.764 -0.2648  0.5371 -0.1207
 4182TIP3    H234182   5.701   3.836   8.696 -1.7060  1.2120  1.7766
 4183TIP3   OH234183   2.958   0.348   6.478 -0.3979 -0.4235  0.2076
 4183TIP3    H134184   3.039   0.397   6.493 -0.2745 -0.6357  0.2359
 4183TIP3    H234185   2.947   0.350   6.383 -0.9524  0.5521  0.2830
 4184TIP3   OH234186   2.220   6.303   7.536 -0.3953  0.4259 -0.4694
 4184TIP3    H134187   2.232   6.395   7.514  0.5733  0.5100  0.3460
 4184TIP3    H234188   2.268   6.291   7.617  1.2058 -1.2543 -1.5691
 4185TIP3   OH234189   1.935   0.515   1.863  0.4818  0.4306  0.1883
 4185TIP3    H134190   1.988   0.582   1.907  0.3815  0.5428  0.1411
 4185TIP3    H234191   1.870   0.490   1.929 -0.0256  1.0089 -0.0763
 4186TIP3   OH234192   4.065   1.895   8.110 -0.5776  0.1289  0.4451
 4186TIP3    H134193   4.084   1.922   8.020 -0.9523 -0.9386  0.0341
 4186TIP3    H234194   4.045   1.977   8.156  0.8660  0.8396 -0.1200
 4187TIP3   OH234195   2.348   2.500   8.484 -0.1319  1.1960 -0.1506
 4187TIP3    H134196   2.304   2.418   8.506  2.2680  0.1126  0.9320
 4187TIP3    H234197   2.422   2.475   8.429  1.4659  2.3908  1.3095
 4188TIP3   OH234198   1.962   0.170   8.063  0.6910  0.2116  0.3595
 4188TIP3    H134199   1.998   0.259   8.076  2.8043 -0.4484 -0.4911
 4188TIP3    H234200   1.975   0.152   7.970 -0.9742 -0.5057  0.2406
 4189TIP3   OH234201   2.161   6.240   1.497 -0.3798 -0.3289  0.0716
 4189TIP3    H134202   2.067   6.233   1.484 -0.1696 -0.0915 -1.9570
 4189TIP3    H234203   2.191   6.149   1.506 -0.7093 -0.4416  0.0433
 4190TIP3   OH234204   3.449   3.821   0.788 -0.4019 -0.1919  0.7148
 4190TIP3    H134205   3.439   3.726   0.781  0.9064 -0.4162  1.4937
 4190TIP3    H234206   3.516   3.843   0.723  2.0840 -0.4050  3.0134
 4191TIP3   OH234207   1.760   0.658   8.111 -0.5139  0.0132  0.3143
 4191TIP3    H134208   1.736   0.748   8.134 -0.1828  0.0540  0.5076
 4191TIP3    H234209   1.676   0.612   8.106 -0.7500  0.5342 -0.6970
 4192TIP3   OH234210   6.503   4.023   0.325  0.2263 -0.2418 -0.0240
 4192TIP3    H134211   6.468   3.937   0.346 -1.1154  0.3362  0.2536
 4192TIP3    H234212   6.458   4.048   0.244 -1.4457  1.2789  1.2944
 4193TIP3   OH234213   6.589   0.498   0.525 -0.2438  0.4072 -0.3091
 4193TIP3    H134214   6.606   0.528   0.614 -0.8778 -1.2528  0.3982
 4193TIP3    H234215   6.654   0.430   0.509 -0.7122  0.0541 -0.7639
 4194TIP3   OH234216   0.540   2.218   8.697  0.1864 -0.1714  0.1512
 4194TIP3    H134217   0.619   2.234   8.645 -0.7128 -1.0494 -1.5568
 4194TIP3    H234218   0.570   2.163   8.769  1.1980 -0.2626 -0.3157
 4195TIP3   OH234219   4.334   0.653   7.999 -0.0120 -0.2469  0.3291
 4195TIP3    H134220   4.412   0.608   7.968  0.3450  0.2730  0.4717
 4195TIP3    H234221   4.296   0.693   7.921 -0.8469 -1.5351  0.0257
 4196TIP3   OH234222   1.136   4.250   2.166  0.5519 -0.5302  0.2168
 4196TIP3    H134223   1.136   4.324   2.105  0.6904 -0.7828 -0.0919
 4196TIP3    H234224   1.212   4.267   2.222  1.1159 -0.8902 -0.4166
 4197TIP3   OH234225   4.149   2.984   0.928  0.4263 -0.3786  0.1605
 4197TIP3    H134226   4.103   2.993   1.011  0.4910 -2.0370  0.3896
 4197TIP3    H234227   4.079   2.978   0.862  0.2782 -2.1746  0.4360
 4198TIP3   OH234228   6.347   2.212   0.018  0.1349 -0.0733 -0.4175
 4198TIP3    H134229   6.378   2.152   0.087 -1.5501  0.6868  1.0965
 4198TIP3    H234230   6.390   2.181  -0.061 -0.7411 -3.4227  0.2310
 4199TIP3   OH234231   4.067   3.462   0.962 -0.5855  0.5567  0.5998
 4199TIP3    H134232   4.138   3.515   0.999 -1.1424  2.2795 -0.6471
 4199TIP3    H234233   4.057   3.388   1.022 -0.7579  2.6367  3.3180
 4200TIP3   OH234234   0.619   2.042   0.123  0.3840 -0.2093 -0.2648
 4200TIP3    H134235   0.527   2.017   0.130  0.5316 -0.5871  0.5575
 4200TIP3    H234236   0.666   1.958   0.119  0.5872 -0.0639 -2.9677
 4201TIP3   OH234237   0.915   5.606   7.881  0.2699 -0.0773 -0.0538
 4201TIP3    H134238   0.996   5.613   7.830  1.2167 -2.2337  0.9965
 4201TIP3    H234239   0.882   5.518   7.861 -1.7447  0.6931 -0.3005
 4202TIP3   OH234240   3.411   5.794   1.909  0.0416  0.0093  0.3736
 4202TIP3    H134241   3.442   5.830   1.826 -0.9156 -1.4132 -0.6576
 4202TIP3    H234242   3.338   5.850   1.934  0.1271  0.2503  0.0820
 4203TIP3   OH234243   5.469   0.962   6.373 -0.3311 -0.1305 -0.0036
 4203TIP3    H134244   5.387   1.007   6.352  0.2085  0.9517  0.1421
 4203TIP3    H234245   5.479   0.898   6.303  0.2492  1.8148 -1.8048
 4204TIP3   OH234246   0.481   4.596   0.290  0.8661  0.6242 -0.6128
 4204TIP3    H134247   0.395   4.611   0.251 -1.6136  0.2188  4.0484
 4204TIP3    H234248   0.499   4.503   0.273 -0.5969  0.2133 -0.0261
 4205TIP3   OH234249   4.313   1.998   7.096 -0.4378  0.1238 -0.6391
 4205TIP3    H134250   4.230   1.951   7.084  0.4885 -1.6658 -0.2396
 4205TIP3    H234251   4.327   1.999   7.190 -0.3986  1.1962 -0.6363
 4206TIP3   OH234252   1.049   5.353   7.324  0.1330  0.0007  0.1518
 4206TIP3    H134253   1.084   5.276   7.279 -1.0356 -1.0072  0.8788
 4206TIP3    H234254   0.961   5.363   7.286 -1.4933 -1.7717  3.0654
 4207TIP3   OH234255   3.812   0.546   2.054  0.4989 -0.0567  0.5084
 4207TIP3    H134256   3.890   0.565   2.003 -0.6687 -1.6462 -2.0356
 4207TIP3    H234257   3.818   0.453   2.074 -0.0693  0.1125  1.5541
 4208TIP3   OH234258   3.906   1.860   6.264  0.3063 -0.0075  0.3750
 4208TIP3    H134259   3.945   1.936   6.220 -0.7341  0.1221 -0.3758
 4208TIP3    H234260   3.931   1.871   6.356  1.5635  0.3394  0.0168
 4209TIP3   OH234261   0.581   3.353   2.180 -0.0861 -0.0161  0.1644
 4209TIP3    H134262   0.605   3.262   2.167  0.0682 -0.0175  0.4553
 4209TIP3    H234263   0.492   3.350   2.215  0.3243 -0.1053  1.2347
 4210TIP3   OH234264   0.193   3.909   7.852  0.1341  0.0140  0.0337
 4210TIP3    H134265   0.253   3.835   7.842 -0.0986 -0.0612 -0.8957
 4210TIP3    H234266   0.236   3.981   7.805 -0.5996 -0.1049 -0.8393
 4211TIP3   OH234267   3.494   1.671   1.128 -0.1822  0.5361 -0.1928
 4211TIP3    H134268   3.488   1.736   1.198  0.3909  1.5023 -1.0020
 4211TIP3    H234269   3.419   1.691   1.071  1.0200  1.7228 -1.4239
 4212TIP3   OH234270   0.448   1.701   1.317  0.4924  0.7450 -0.0324
 4212TIP3    H134271   0.460   1.678   1.225 -1.9640  2.3758 -0.8591
 4212TIP3    H234272   0.406   1.623   1.355  0.1638  0.5987 -0.6703
 4213TIP3   OH234273   1.130   2.722   8.387  0.2599  0.0740  0.1361
 4213TIP3    H134274   1.183   2.716   8.466  1.6921 -1.6444 -0.8705
 4213TIP3    H234275   1.142   2.637   8.344  0.9486  1.5024 -2.7809
 4214TIP3   OH234276   6.075   4.308   6.977 -0.1160  0.6899  0.3500
 4214TIP3    H134277   6.104   4.355   6.898 -0.6913  1.1991  0.4347
 4214TIP3    H234278   5.989   4.345   6.996 -0.7591 -0.6652  0.2047
 4215TIP3   OH234279   5.996   5.818   0.356 -0.3012 -0.1381  0.0071
 4215TIP3    H134280   6.016   5.887   0.419  0.1138  0.1051 -0.3825
 4215TIP3    H234281   6.046   5.842   0.278 -0.6025 -0.5759 -0.3238
 4216TIP3   OH234282   1.533   2.168   8.135 -0.3077  0.5728 -0.2314
 4216TIP3    H134283   1.575   2.155   8.051  1.3535 -1.3178  0.7963
 4216TIP3    H234284   1.464   2.101   8.138 -0.9796  1.2475 -0.4473
 4217TIP3   OH234285   4.114   2.335   8.480 -0.0113  0.3296  0.6164
 4217TIP3    H134286   4.169   2.364   8.407  0.5878  0.0315  0.9394
 4217TIP3    H234287   4.068   2.414   8.509 -0.6943  0.3475 -0.4415
 4218TIP3   OH234288   1.249   5.233   7.566  0.6551 -0.0701  0.5212
 4218TIP3    H134289   1.330   5.237   7.515 -0.2494 -0.6603 -1.0289
 4218TIP3    H234290   1.278   5.228   7.657  2.3333  1.6096  0.1538
 4219TIP3   OH234291   6.352   0.939   7.209 -0.2711 -0.4327  0.5826
 4219TIP3    H134292   6.262   0.921   7.182 -0.0110 -1.8022  0.5798
 4219TIP3    H234293   6.380   1.011   7.153 -0.3240 -2.0394 -1.6074
 4220TIP3   OH234294   3.415   6.066   1.413 -0.2430  0.4276  0.5624
 4220TIP3    H134295   3.499   6.112   1.420  1.1106 -1.4638 -1.6706
 4220TIP3    H234296   3.360   6.123   1.360 -0.6345  1.9060  2.4375
 4221TIP3   OH234297   1.903   5.343   8.569  0.3867  0.1918 -0.0301
 4221TIP3    H134298   1.828   5.327   8.626  0.6541  0.9034  0.5277
 4221TIP3    H234299   1.962   5.270   8.587  0.8379  0.8405  1.2384
 4222TIP3   OH234300   0.948   5.141   6.708 -0.0977 -0.5337 -0.4433
 4222TIP3    H134301   0.902   5.059   6.689  1.3716 -1.8276  1.2405
 4222TIP3    H234302   1.009   5.119   6.778  1.0148  1.8130 -0.5664
 4223TIP3   OH234303   1.496   6.446   1.931 -0.0377 -0.1959  0.0175
 4223TIP3    H134304   1.544   6.525   1.957  1.1103 -0.6255 -0.7346
 4223TIP3    H234305   1.448   6.471   1.853 -0.9498  0.1922  0.6852
 4224TIP3   OH234306   1.564   1.521   7.065 -0.1782 -0.6489  0.8863
 4224TIP3    H134307   1.501   1.548   7.132  1.2630 -0.6727  2.3342
 4224TIP3    H234308   1.545   1.429   7.049 -0.6442 -0.6039  1.1753
 4225TIP3   OH234309   0.937   3.242   7.297  0.1591 -0.7799  0.5780
 4225TIP3    H134310   0.954   3.325   7.251  0.1162 -0.3147  1.3843
 4225TIP3    H234311   0.968   3.175   7.236  1.0232 -0.1370  0.2721
 4226TIP3   OH234312   4.721   0.399   6.758  0.1740  0.0988 -0.2700
 4226TIP3    H134313   4.637   0.436   6.731 -0.1457  0.4186  1.0641
 4226TIP3    H234314   4.785   0.467   6.739 -0.0850  0.4257  0.0029
 4227TIP3   OH234315   0.904   4.494   1.645  0.9359  0.4370 -0.3497
 4227TIP3    H134316   0.954   4.574   1.629 -0.5721  1.6632  0.7260
 4227TIP3    H234317   0.849   4.484   1.568 -2.6394  3.4858  1.4626
 4228TIP3   OH234318   0.586   0.973   1.196 -0.0022 -0.2601  0.5620
 4228TIP3    H134319   0.499   0.969   1.157  0.1316  0.6618  0.1434
 4228TIP3    H234320   0.572   0.945   1.287 -1.0563  1.4519  0.9845
 4229TIP3   OH234321   5.096   3.020   7.032 -0.1117 -0.1784 -0.3937
 4229TIP3    H134322   5.063   2.931   7.023  0.0793 -0.1487 -1.6515
 4229TIP3    H234323   5.083   3.059   6.945  1.2230  0.5280 -0.3038
 4230TIP3   OH234324   0.154   4.648   8.568  0.4134 -0.2463  0.3192
 4230TIP3    H134325   0.072   4.617   8.605  0.1156 -1.3842 -1.2045
 4230TIP3    H234326   0.216   4.576   8.583  0.8172  0.1050  0.3732
 4231TIP3   OH234327   1.937   0.108   8.421  0.5760  0.7208  0.1340
 4231TIP3    H134328   1.901   0.108   8.333  0.3669  0.3918  0.2167
 4231TIP3    H234329   1.967   0.018   8.435  2.2373  1.1847 -0.2604
 4232TIP3   OH234330   2.575   4.528   7.927 -0.2780 -0.3227 -0.5968
 4232TIP3    H134331   2.498   4.478   7.955  0.1263 -0.9213 -0.5307
 4232TIP3    H234332   2.626   4.465   7.876 -0.1250  0.2453 -1.1471
 4233TIP3   OH234333   4.433   1.295   0.173  0.5911 -0.1680 -0.1703
 4233TIP3    H134334   4.360   1.338   0.218  0.4922  0.4166 -0.8613
 4233TIP3    H234335   4.460   1.226   0.232  0.6225  0.7324  0.9106
 4234TIP3   OH234336   4.288   1.542   0.078 -0.0089 -0.2104  0.2091
 4234TIP3    H134337   4.364   1.484   0.075  0.3832  0.3126 -0.1690
 4234TIP3    H234338   4.234   1.507   0.149  0.6625 -0.4906  0.5912
 4235TIP3   OH234339   4.355   1.392   1.073  0.2458 -0.2283 -0.1479
 4235TIP3    H134340   4.360   1.359   1.162  1.3462 -0.9540 -0.4590
 4235TIP3    H234341   4.283   1.344   1.034 -0.8804  0.7848  0.6004
 4236TIP3   OH234342   3.929   6.654   0.037  0.4867 -0.1851 -0.2336
 4236TIP3    H134343   3.883   6.653  -0.047  0.6405 -0.7359 -0.3144
 4236TIP3    H234344   4.008   6.706   0.021  0.2614  0.1420 -0.2894
 4237TIP3   OH234345   1.304   2.015   6.673  0.4155  0.4004 -0.3202
 4237TIP3    H134346   1.291   2.110   6.673 -1.8676  0.1560  0.0152
 4237TIP3    H234347   1.269   1.987   6.588 -0.8203 -0.2939  0.3821
 4238TIP3   OH234348   0.953   5.841   1.053  0.5752  0.7237 -0.0773
 4238TIP3    H134349   0.930   5.905   0.986 -1.1883  0.9885  0.7384
 4238TIP3    H234350   0.954   5.890   1.135 -1.6653 -0.3766  0.6865
 4239TIP3   OH234351   4.027   2.341   0.662  0.1577  0.0366  0.2567
 4239TIP3    H134352   4.095   2.407   0.648  1.6631 -1.7283 -1.2557
 4239TIP3    H234353   4.074   2.264   0.693 -1.0772 -1.2912 -0.9774
 4240TIP3   OH234354   1.003   0.345   8.414  0.6821  0.3548  0.3659
 4240TIP3    H134355   1.004   0.266   8.360  2.2570  0.6012 -0.0316
 4240TIP3    H234356   0.912   0.374   8.413  0.7259  0.7559 -2.7857
 4241TIP3   OH234357   2.720   1.438   7.355  0.2910  0.3223 -0.4658
 4241TIP3    H134358   2.694   1.520   7.396 -1.8841 -0.4891 -0.0474
 4241TIP3    H234359   2.759   1.387   7.425 -0.5994  0.1025 -0.1151
 4242TIP3   OH234360   4.504   2.779   0.392 -0.0455 -0.3311 -0.0062
 4242TIP3    H134361   4.511   2.692   0.432 -0.8954 -1.4754 -2.1653
 4242TIP3    H234362   4.418   2.811   0.420 -0.0643 -0.5303  0.1673
 4243TIP3   OH234363   5.292   2.399   0.984  0.4370 -0.2311 -0.0106
 4243TIP3    H134364   5.197   2.389   0.974  0.4731  0.5289 -1.4108
 4243TIP3    H234365   5.311   2.362   1.069 -1.2102  0.1166  0.5496
 4244TIP3   OH234366   6.797   2.172   0.850  0.3437 -0.1890 -0.4265
 4244TIP3    H134367   6.809   2.179   0.945 -2.5904  0.1119  0.0047
 4244TIP3    H234368   6.859   2.104   0.823  0.5566 -0.9827  1.8391
 4245TIP3   OH234369   3.203   3.010   0.649  0.0772  0.3332 -0.1826
 4245TIP3    H134370   3.156   2.999   0.732  0.2902  2.6345  0.3092
 4245TIP3    H234371   3.283   3.055   0.672  1.2984 -1.1050 -1.3917
 4246TIP3   OH234372   3.697   4.839   7.587  0.2838  0.1973  0.2574
 4246TIP3    H134373   3.655   4.821   7.671 -1.7919  0.6183 -0.6145
 4246TIP3    H234374   3.768   4.775   7.581  1.0319  0.7287  2.6679
 4247TIP3   OH234375   3.866   3.484   1.366  0.5762  0.2170 -0.2002
 4247TIP3    H134376   3.834   3.561   1.414  0.4152  1.3104 -1.9805
 4247TIP3    H234377   3.789   3.450   1.321  0.7275 -0.7798  0.2773
 4248TIP3   OH234378   0.295   3.437   0.914  0.1301 -0.3515  0.4863
 4248TIP3    H134379   0.373   3.466   0.961 -0.5605  1.5173  0.5522
 4248TIP3    H234380   0.329   3.387   0.840  1.3379 -0.4452  1.0652
 4249TIP3   OH234381   2.648   4.085   1.804  0.3894  0.0540 -0.1596
 4249TIP3    H134382   2.616   4.025   1.737  0.6115 -0.4748  0.2003
 4249TIP3    H234383   2.685   4.028   1.871 -0.0362  0.5680  0.5230
 4250TIP3   OH234384   6.513   5.146   0.980 -0.2259  0.2744 -0.1362
 4250TIP3    H134385   6.553   5.210   1.039 -2.7193  0.3073  1.6518
 4250TIP3    H234386   6.515   5.064   1.029 -1.6358  0.1267 -0.2852
 4251TIP3   OH234387   5.137   5.760   7.739  0.1634  0.1809  0.2585
 4251TIP3    H134388   5.195   5.718   7.676 -0.4748 -1.4441  0.6964
 4251TIP3    H234389   5.164   5.724   7.824 -2.5136 -1.9901  0.3114
 4252TIP3   OH234390   4.253   5.345   7.593 -0.2426 -0.0470 -0.1617
 4252TIP3    H134391   4.207   5.425   7.564 -0.5925 -0.1304  0.1598
 4252TIP3    H234392   4.309   5.322   7.519 -1.9532 -0.8907 -1.2690
 4253TIP3   OH234393   0.574   3.400   6.811  0.3627  0.3742  0.1951
 4253TIP3    H134394   0.505   3.467   6.812 -0.3300 -0.1831  3.8129
 4253TIP3    H234395   0.530   3.319   6.787  0.4772  0.5792 -0.7345
 4254TIP3   OH234396   0.667   4.368   2.112 -0.1993  0.5558 -0.1696
 4254TIP3    H134397   0.718   4.426   2.168  0.5260  0.6517 -0.9251
 4254TIP3    H234398   0.586   4.417   2.094 -0.7802  0.2373  1.3595
 4255TIP3   OH234399   5.897   3.793   8.259  0.1629  0.0457  0.6260
 4255TIP3    H134400   5.940   3.871   8.223 -0.3063 -0.0961 -0.2543
 4255TIP3    H234401   5.864   3.746   8.183 -1.5821  0.1664  1.2528
 4256TIP3   OH234402   5.997   1.554   0.053 -0.3311  0.6056  0.1577
 4256TIP3    H134403   6.077   1.526   0.009 -0.6947 -0.0258 -0.1197
 4256TIP3    H234404   6.014   1.644   0.080  1.1339 -0.0705  1.6741
 4257TIP3   OH234405   2.768   6.427   7.953 -0.1474 -0.3534  0.3446
 4257TIP3    H134406   2.675   6.438   7.935 -0.1115 -1.4523 -0.6793
 4257TIP3    H234407   2.811   6.442   7.868  0.5742 -0.2466  0.7154
 4258TIP3   OH234408   5.073   0.003   8.590 -0.4791  0.0674  0.3050
 4258TIP3    H134409   5.113   0.085   8.563 -0.3605 -0.3738 -0.9206
 4258TIP3    H234410   4.980   0.024   8.599 -0.6697  0.0590 -1.3200
 4259TIP3   OH234411   4.663   2.984   8.393 -0.1130  0.7437  0.0974
 4259TIP3    H134412   4.630   3.060   8.439  1.1976  0.8663  0.8916
 4259TIP3    H234413   4.710   2.934   8.459  0.6620  0.2339 -0.8023
 4260TIP3   OH234414   2.488   1.640   0.744 -0.3582  0.1074  0.2896
 4260TIP3    H134415   2.451   1.675   0.663 -1.7667 -1.4948  0.1724
 4260TIP3    H234416   2.417   1.647   0.808 -0.3703 -1.5140  0.5085
 4261TIP3   OH234417   2.576   0.060   0.026  0.1665 -0.0528  0.0612
 4261TIP3    H134418   2.664   0.085  -0.003 -0.9074  1.9006 -1.8018
 4261TIP3    H234419   2.560   0.113   0.103  0.3756  0.1078 -0.0048
 4262TIP3   OH234420   5.106   5.041   0.822 -0.0407 -0.0083 -0.6479
 4262TIP3    H134421   5.083   4.948   0.827  0.3481 -0.0801 -0.1510
 4262TIP3    H234422   5.132   5.064   0.911 -1.3378  0.9052 -0.4859
 4263TIP3   OH234423   6.814   6.684   0.177  0.5012 -0.0016  0.1503
 4263TIP3    H134424   6.861   6.755   0.220 -0.7446 -0.6215  2.7092
 4263TIP3    H234425   6.791   6.720   0.091  1.9237  1.8062  0.4473
 4264TIP3   OH234426   2.745   5.375   2.444  0.1992  0.0199  0.2291
 4264TIP3    H134427   2.775   5.285   2.434  3.1083  1.0329 -1.5617
 4264TIP3    H234428   2.673   5.383   2.380  0.9470 -0.6658 -0.7327
 4265TIP3   OH234429   3.633   2.611   1.411  0.3233  0.4870 -0.2224
 4265TIP3    H134430   3.546   2.608   1.451  0.0888 -0.7076 -0.7692
 4265TIP3    H234431   3.616   2.618   1.317  0.7873 -0.5720 -0.3970
 4266TIP3   OH234432   1.583   1.037   1.493  0.4943 -0.2530 -0.1417
 4266TIP3    H134433   1.580   1.000   1.581 -0.0692  0.8447  0.3151
 4266TIP3    H234434   1.530   1.117   1.498  0.8100  0.0602 -1.3647
 4267TIP3   OH234435   2.858   3.031   1.858 -0.5124 -0.1984  0.3824
 4267TIP3    H134436   2.884   2.981   1.935 -2.5021  0.2873  1.4278
 4267TIP3    H234437   2.848   3.120   1.890  1.0436  0.5281 -1.0251
 4268TIP3   OH234438   6.811   6.811   1.965  0.1557  0.2898 -0.4269
 4268TIP3    H134439   6.729   6.841   2.004 -0.1280 -0.2264 -0.6200
 4268TIP3    H234440   6.878   6.867   2.005 -0.3064  0.8493 -0.4197
 4269TIP3   OH234441   2.444   2.381   1.687  0.8095  0.5169  0.1041
 4269TIP3    H134442   2.356   2.418   1.701  0.6864  0.5530 -0.6662
 4269TIP3    H234443   2.489   2.392   1.770 -0.0021  0.2766  0.5862
 4270TIP3   OH234444   6.109   4.687   8.498  0.2307  0.0663 -0.1167
 4270TIP3    H134445   6.167   4.685   8.574  1.4378  1.6045 -0.9416
 4270TIP3    H234446   6.142   4.759   8.444 -3.2432  1.9758 -0.0172
 4271TIP3   OH234447   1.915   5.764   0.681  0.0732  0.2155  0.2210
 4271TIP3    H134448   1.913   5.697   0.749  0.2174  0.1355  0.1482
 4271TIP3    H234449   1.824   5.795   0.674  0.2160  0.8772  1.0895
 4272TIP3   OH234450   6.496   6.387   7.285 -0.1597 -0.2456  0.1286
 4272TIP3    H134451   6.473   6.418   7.373  0.4032 -0.7668  0.4692
 4272TIP3    H234452   6.573   6.438   7.261  0.3738 -0.9128  0.4165
 4273TIP3   OH234453   1.424   4.081   0.176 -0.3186  0.0873 -0.2550
 4273TIP3    H134454   1.351   4.089   0.236 -1.3800  0.4133 -1.5442
 4273TIP3    H234455   1.493   4.039   0.227 -1.0289  0.7395  1.2945
 4274TIP3   OH234456   2.292   0.446   0.731 -0.1200 -0.2179 -0.2557
 4274TIP3    H134457   2.349   0.518   0.756 -1.5317  1.0950 -0.6850
 4274TIP3    H234458   2.258   0.412   0.814 -1.3195  1.2160 -0.1188
 4275TIP3   OH234459   6.187   6.447   7.099  0.1003  0.1497 -0.5686
 4275TIP3    H134460   6.239   6.509   7.152 -0.9634  0.9245 -0.4027
 4275TIP3    H234461   6.172   6.373   7.158  0.2112  0.3401 -0.2932
 4276TIP3   OH234462   4.570   2.368   6.774  0.4066  0.2157  0.1042
 4276TIP3    H134463   4.647   2.374   6.830  0.2095  1.4975  0.2670
 4276TIP3    H234464   4.515   2.442   6.800  0.2227  0.7398 -1.6241
 4277TIP3   OH234465   1.521   3.140   1.098 -0.1058  0.1779  0.3967
 4277TIP3    H134466   1.542   3.185   1.016 -1.2185 -2.0007 -1.2140
 4277TIP3    H234467   1.453   3.193   1.138  0.5984  1.3945  0.0365
 4278TIP3   OH234468   1.660   5.293   0.987  0.0925 -0.2666 -0.0386
 4278TIP3    H134469   1.683   5.314   1.077  2.0310  2.2247 -0.9866
 4278TIP3    H234470   1.566   5.310   0.982  0.0396 -0.0309  1.3955
 4279TIP3   OH234471   1.456   4.743   8.750  0.4825 -0.1454  0.0443
 4279TIP3    H134472   1.363   4.725   8.762  0.0087  1.6731 -0.6024
 4279TIP3    H234473   1.459   4.827   8.704  2.4656  0.2422  0.7749
 4280TIP3   OH234474   1.894   5.164   0.084  0.0942 -0.3018  0.5745
 4280TIP3    H134475   1.961   5.231   0.098 -0.3213  0.0373  0.9805
 4280TIP3    H234476   1.915   5.096   0.148  0.0119 -0.1640  0.7489
 4281TIP3   OH234477   6.754   1.333   1.729  0.1456  0.3795 -0.0057
 4281TIP3    H134478   6.672   1.283   1.731  0.6124 -0.4162 -0.4576
 4281TIP3    H234479   6.735   1.412   1.781 -1.1374  0.5605 -0.7142
 4282TIP3   OH234480   4.253   0.389   2.304 -0.2654  0.6763  0.0942
 4282TIP3    H134481   4.182   0.360   2.361 -0.9877 -0.7721 -1.4603
 4282TIP3    H234482   4.237   0.482   2.291 -0.7746  0.7701  1.2432
 4283TIP3   OH234483   3.497   6.488   0.421 -0.3617 -0.1616 -0.4625
 4283TIP3    H134484   3.557   6.442   0.364  1.6978 -0.6569  1.9169
 4283TIP3    H234485   3.445   6.419   0.463 -1.2462  0.1290 -1.0512
 4284TIP3   OH234486   2.452   3.712   7.775 -0.6088  0.3186  0.6229
 4284TIP3    H134487   2.416   3.641   7.829  1.2131  0.0538  1.5599
 4284TIP3    H234488   2.483   3.668   7.696 -1.2117  0.3700  0.3524
 4285TIP3   OH234489   5.005   3.574   0.570  0.5793 -0.8776  0.1677
 4285TIP3    H134490   4.993   3.626   0.649  2.1134 -1.8276  1.0770
 4285TIP3    H234491   4.946   3.614   0.506 -0.3058  0.2508  1.6155
 4286TIP3   OH234492   1.038   0.363   7.655 -0.3842  0.4028  0.5255
 4286TIP3    H134493   1.022   0.307   7.579 -3.0490  0.9479  0.6125
 4286TIP3    H234494   1.018   0.308   7.731 -1.1305  0.8736  0.6800
 4287TIP3   OH234495   2.365   5.987   1.369  0.1161  0.1461 -0.2744
 4287TIP3    H134496   2.395   5.896   1.359  0.7229  0.4218 -1.0561
 4287TIP3    H234497   2.424   6.024   1.435  0.9753  0.4395 -1.1807
 4288TIP3   OH234498   1.738   2.970   8.400 -0.6105  0.3428  0.1206
 4288TIP3    H134499   1.740   3.052   8.351 -0.7298  1.2395  1.5746
 4288TIP3    H234500   1.665   2.979   8.461  0.3900 -0.1585  1.4325
 4289TIP3   OH234501   4.340   4.303   0.983  0.5804  0.5395  0.0819
 4289TIP3    H134502   4.247   4.281   0.981  0.8250 -0.6338  0.8648
 4289TIP3    H234503   4.370   4.288   0.893 -0.0980  1.5533 -0.3380
 4290TIP3   OH234504   4.872   0.702   1.752 -0.1416  0.7016 -0.1458
 4290TIP3    H134505   4.852   0.780   1.701 -0.1799 -0.4260 -1.9559
 4290TIP3    H234506   4.811   0.705   1.826 -0.5153  2.0934 -0.4921
 4291TIP3   OH234507   4.603   4.121   2.181 -0.5425 -0.4839 -0.1624
 4291TIP3    H134508   4.523   4.084   2.218 -1.1208 -0.0075 -0.9086
 4291TIP3    H234509   4.633   4.184   2.247 -0.8779 -0.5392  0.0446
 4292TIP3   OH234510   0.796   3.284   0.259  0.1549  0.0245 -0.2230
 4292TIP3    H134511   0.870   3.263   0.315  0.8501 -0.2209 -1.2014
 4292TIP3    H234512   0.836   3.304   0.174 -0.9293 -0.5867 -0.8940
 4293TIP3   OH234513   3.623   3.915   0.603 -0.8769 -0.3139  0.2596
 4293TIP3    H134514   3.707   3.927   0.558  0.8904 -1.5542  3.0195
 4293TIP3    H234515   3.581   4.001   0.598  1.4289  0.9019  0.4382
 4294TIP3   OH234516   6.669   2.411   2.126  0.3341  1.1032 -0.0934
 4294TIP3    H134517   6.629   2.395   2.211  3.7838 -1.9884  1.2296
 4294TIP3    H234518   6.750   2.458   2.146  1.0803  0.5696 -1.6815
 4295TIP3   OH234519   4.701   0.699   0.523 -0.2813  0.0610  0.5903
 4295TIP3    H134520   4.661   0.779   0.488  0.5269  0.7222  1.1207
 4295TIP3    H234521   4.632   0.661   0.578 -0.0824  1.4527  1.8967
 4296TIP3   OH234522   5.858   3.603   6.377 -0.2312 -0.0928  0.5042
 4296TIP3    H134523   5.844   3.517   6.336 -0.4664  0.4870 -0.6806
 4296TIP3    H234524   5.794   3.607   6.448 -0.8158 -0.5499  0.0095
 4297TIP3   OH234525   1.914   0.444   7.981 -1.0157 -0.4540  0.3980
 4297TIP3    H134526   1.869   0.503   8.042 -2.5725 -0.4648 -0.6801
 4297TIP3    H234527   1.852   0.433   7.909 -0.7462 -3.3423  0.5162
 4298TIP3   OH234528   4.871   1.431   6.838 -0.1505 -0.2228  0.4631
 4298TIP3    H134529   4.800   1.494   6.841  0.0270  0.0175 -0.3366
 4298TIP3    H234530   4.875   1.402   6.747  0.0237 -1.0994  0.7355
 4299TIP3   OH234531   1.625   5.294   7.992  0.6607 -0.4480 -0.0711
 4299TIP3    H134532   1.693   5.228   8.007 -0.8441 -1.9258  0.5292
 4299TIP3    H234533   1.588   5.311   8.079 -0.9560 -1.0649 -0.6033
 4300TIP3   OH234534   2.825   3.893   7.241 -0.3537  0.0752  0.1425
 4300TIP3    H134535   2.844   3.801   7.226 -0.4137  0.2421 -1.0542
 4300TIP3    H234536   2.869   3.914   7.323 -3.1538 -1.8794  2.3726
 4301TIP3   OH234537   6.195   0.615   7.907 -0.1209 -0.1614 -0.1277
 4301TIP3    H134538   6.207   0.707   7.930 -1.4523  0.3734 -1.4607
 4301TIP3    H234539   6.222   0.609   7.816  0.7685 -1.3020  0.1787
 4302TIP3   OH234540   6.580   0.946   8.629  0.1056  0.0368  0.1598
 4302TIP3    H134541   6.608   0.866   8.584  2.8067  0.0940  1.5852
 4302TIP3    H234542   6.509   0.917   8.687  0.7528 -1.2511  0.3443
 4303TIP3   OH234543   4.943   4.830   0.052  0.2152  0.0605  0.3145
 4303TIP3    H134544   4.959   4.919   0.084  2.3208 -0.2888  0.3663
 4303TIP3    H234545   4.987   4.773   0.114 -0.9811 -1.0435  0.1982
 4304TIP3   OH234546   6.488   4.383   0.197 -0.5748 -0.2385 -0.4638
 4304TIP3    H134547   6.518   4.370   0.287 -0.1437  1.5875 -0.2987
 4304TIP3    H234548   6.566   4.415   0.151 -0.6560 -1.6193 -1.6335
 4305TIP3   OH234549   3.636   2.500   0.905 -0.1272 -0.1673 -0.4725
 4305TIP3    H134550   3.726   2.469   0.897 -0.1429 -0.3256 -0.0708
 4305TIP3    H234551   3.583   2.423   0.883 -0.1670 -0.1309 -0.5049
 4306TIP3   OH234552   5.837   5.259   7.999  0.1186 -0.0269 -0.5350
 4306TIP3    H134553   5.875   5.256   7.911  2.0722 -1.0454  0.2834
 4306TIP3    H234554   5.896   5.207   8.053 -0.3047  1.6271  1.6771
 4307TIP3   OH234555   5.403   5.970   8.406  0.1147 -0.2688  0.1782
 4307TIP3    H134556   5.382   6.029   8.334 -0.5881 -1.2652 -0.4749
 4307TIP3    H234557   5.451   6.024   8.469  0.5641  0.6810 -0.9348
 4308TIP3   OH234558   6.865   6.570   1.450 -0.5549 -0.0691  0.1593
 4308TIP3    H134559   6.812   6.495   1.423  0.9437 -0.4644 -1.9616
 4308TIP3    H234560   6.856   6.633   1.378 -1.0842  1.4581  1.5061
 4309TIP3   OH234561   2.816   0.522   7.720 -0.1800  0.1392  0.5494
 4309TIP3    H134562   2.863   0.509   7.638 -0.6596  1.5437  0.0093
 4309TIP3    H234563   2.838   0.446   7.773  0.1765 -0.7864 -0.8641
 4310TIP3   OH234564   1.942   4.549   8.132 -0.6664  0.1146 -0.4328
 4310TIP3    H134565   2.009   4.566   8.066 -0.5966  1.1306 -0.1284
 4310TIP3    H234566   1.869   4.605   8.107 -0.1556  1.5046  1.0353
 4311TIP3   OH234567   6.326   2.906   0.736 -0.2267 -0.2858 -0.8058
 4311TIP3    H134568   6.303   2.931   0.647 -0.3899  0.9831 -0.4309
 4311TIP3    H234569   6.397   2.843   0.727 -0.4945 -0.4507 -1.8306
 4312TIP3   OH234570   0.381   5.993   8.147  0.4965 -0.3062  0.0661
 4312TIP3    H134571   0.409   5.990   8.056 -1.6397 -0.3934 -0.6292
 4312TIP3    H234572   0.318   5.922   8.156 -2.2475  2.0141  0.5362
 4313TIP3   OH234573   0.717   1.243   2.279  0.1044 -0.0387  0.6258
 4313TIP3    H134574   0.631   1.202   2.287 -0.9895  1.9908  0.0289
 4313TIP3    H234575   0.699   1.337   2.284  1.8566  0.6144 -2.6793
 4314TIP3   OH234576   4.478   5.782   6.719  0.1985 -1.0198 -0.1577
 4314TIP3    H134577   4.413   5.744   6.777 -0.2718  0.1941  0.1302
 4314TIP3    H234578   4.544   5.819   6.778 -1.0467  1.6043 -0.2529
 4315TIP3   OH234579   6.471   2.617   8.534 -0.4903 -0.2690  0.5024
 4315TIP3    H134580   6.510   2.680   8.473  1.4957 -2.0847 -0.1998
 4315TIP3    H234581   6.401   2.667   8.577 -0.3508  1.8088 -1.4560
 4316TIP3   OH234582   5.538   6.052   1.078  0.1695 -0.1894 -0.1115
 4316TIP3    H134583   5.539   6.127   1.019  2.2156  0.1169  0.2179
 4316TIP3    H234584   5.591   5.985   1.033  0.8629 -0.3290  0.8759
 4317TIP3   OH234585   4.794   3.724   1.454 -0.1166  0.1396  0.5391
 4317TIP3    H134586   4.838   3.808   1.438 -1.4535  0.9873  1.1274
 4317TIP3    H234587   4.826   3.666   1.385  1.0967  1.0201  0.3292
 4318TIP3   OH234588   4.507   4.940   2.677  0.0874  0.4734  0.2548
 4318TIP3    H134589   4.552   4.965   2.596 -1.0987 -0.4960 -0.7417
 4318TIP3    H234590   4.553   4.989   2.746  1.5613  0.8054 -0.9022
 4319TIP3   OH234591   2.513   6.273   2.638 -0.0244 -0.1213 -0.1854
 4319TIP3    H134592   2.596   6.224   2.641  0.0657 -0.1325 -1.9533
 4319TIP3    H234593   2.537   6.362   2.665  0.1751 -0.5621  1.1780
 4320TIP3   OH234594   3.328   6.276   0.117  0.1504  0.5056  0.1894
 4320TIP3    H134595   3.349   6.188   0.148  0.9187  0.3266 -0.7729
 4320TIP3    H234596   3.250   6.265   0.062 -0.1938  0.5529  0.6621
 4321TIP3   OH234597   2.991   5.793   7.570 -0.4102 -0.0951 -0.1440
 4321TIP3    H134598   3.032   5.879   7.581  2.9744 -1.4477 -0.8278
 4321TIP3    H234599   2.916   5.810   7.513  0.1278  2.4023 -0.2323
 4322TIP3   OH234600   6.667   4.644   1.313  0.4028  0.0397 -0.3310
 4322TIP3    H134601   6.605   4.713   1.288 -0.6899 -1.3126 -1.5705
 4322TIP3    H234602   6.628   4.563   1.279  1.3600 -1.2957  1.5507
 4323TIP3   OH234603   0.682   6.201   2.156 -0.6029  0.1742 -0.0976
 4323TIP3    H134604   0.727   6.135   2.208 -0.7543 -0.1770 -0.4048
 4323TIP3    H234605   0.625   6.246   2.218 -0.0476  0.4285  0.2337
 4324TIP3   OH234606   5.654   5.467   0.789  0.0911 -0.3723  0.1218
 4324TIP3    H134607   5.591   5.534   0.764  0.3894 -0.6292 -1.4499
 4324TIP3    H234608   5.655   5.406   0.715 -0.3042 -2.2269  1.5763
 4325TIP3   OH234609   2.886   4.967   8.557 -0.5810  0.3954  0.4285
 4325TIP3    H134610   2.931   5.003   8.481 -1.9291  0.1539 -0.4986
 4325TIP3    H234611   2.871   4.875   8.535 -1.1164  0.3558  0.9368
 4326TIP3   OH234612   5.153   6.800   6.755  0.4928 -0.1135  0.1888
 4326TIP3    H134613   5.145   6.746   6.834 -1.2230 -0.7385 -0.3547
 4326TIP3    H234614   5.180   6.886   6.787  3.5621 -1.2641  1.0670
 4327TIP3   OH234615   3.548   0.542   7.229  0.0243 -0.0725  0.0835
 4327TIP3    H134616   3.563   0.624   7.183 -3.2865  0.3530 -0.4935
 4327TIP3    H234617   3.540   0.566   7.321 -1.6666  0.4116 -0.1704
 4328TIP3   OH234618   2.775   0.618   2.559 -0.1475 -0.1299 -0.4922
 4328TIP3    H134619   2.747   0.527   2.551 -0.1551 -0.2585  0.7040
 4328TIP3    H234620   2.710   0.657   2.618  1.1681  0.0079  0.9457
 4329TIP3   OH234621   5.886   4.750   2.355  0.2016  0.0529 -0.0308
 4329TIP3    H134622   5.956   4.802   2.395  1.7142 -2.5618  0.9943
 4329TIP3    H234623   5.874   4.677   2.416 -2.0958 -0.6108 -1.1836
 4330TIP3   OH234624   3.556   4.898   0.823  0.0762  0.5055  0.3428
 4330TIP3    H134625   3.546   4.964   0.754 -1.4953 -0.3486 -0.3018
 4330TIP3    H234626   3.508   4.933   0.898 -0.8361  0.0936 -0.0293
 4331TIP3   OH234627   0.548   3.234   8.663 -0.2840  0.4044  0.3299
 4331TIP3    H134628   0.562   3.158   8.606 -1.5755  0.9756 -0.8134
 4331TIP3    H234629   0.542   3.197   8.751  0.2519 -0.6841 -0.0733
 4332TIP3   OH234630   2.995   0.215   1.759 -0.2923  0.3393  0.1263
 4332TIP3    H134631   2.948   0.167   1.828 -0.4778  1.4827  0.8204
 4332TIP3    H234632   2.982   0.307   1.780 -0.3773  0.7245 -1.4792
 4333TIP3   OH234633   4.990   5.659   0.856  0.2009 -0.2255 -0.0290
 4333TIP3    H134634   4.968   5.682   0.765  0.0078 -3.3065 -0.8673
 4333TIP3    H234635   4.906   5.644   0.898  0.3174 -2.0564 -0.3547
 4334TIP3   OH234636   2.719   6.067   0.348 -0.7818  0.3820  0.6322
 4334TIP3    H134637   2.667   5.991   0.324  1.0113 -0.7765  0.2043
 4334TIP3    H234638   2.774   6.037   0.421  1.6495  0.4225 -1.0407
 4335TIP3   OH234639   0.174   4.662   6.667  0.4158 -0.2409 -0.1203
 4335TIP3    H134640   0.236   4.595   6.696 -0.6536 -1.0944  0.3045
 4335TIP3    H234641   0.093   4.613   6.650 -0.3889  0.9478  0.1791
 4336TIP3   OH234642   3.819   4.171   5.999 -0.1903  1.3424  0.2608
 4336TIP3    H134643   3.900   4.141   5.959 -0.7455  0.0151  0.0960
 4336TIP3    H234644   3.845   4.248   6.050  1.8518 -0.8337  2.8427
 4337TIP3   OH234645   4.469   4.136   0.781 -0.0920 -0.1791  0.4307
 4337TIP3    H134646   4.444   4.057   0.829  1.5955 -1.6701 -0.9905
 4337TIP3    H234647   4.470   4.108   0.689 -2.5222  2.3736 -0.5090
 4338TIP3   OH234648   6.547   5.255   1.640  0.2265  0.5156  0.6427
 4338TIP3    H134649   6.523   5.317   1.709 -0.5851  0.0410  0.7897
 4338TIP3    H234650   6.536   5.305   1.559 -0.1989  0.6396  0.7748
 4339TIP3   OH234651   5.724   0.156   7.960 -0.1286  0.2024  0.8741
 4339TIP3    H134652   5.629   0.166   7.957 -0.1108  0.1728 -0.7023
 4339TIP3    H234653   5.747   0.113   7.877  1.2868  0.4992  1.0744
 4340TIP3   OH234654   0.579   0.607   6.819  0.4399  0.0582  0.5039
 4340TIP3    H134655   0.499   0.568   6.784  0.9563 -1.5773  1.0589
 4340TIP3    H234656   0.549   0.665   6.890 -0.3196  0.4044 -0.0898
 4341TIP3   OH234657   5.455   4.785   0.651  0.6430  0.8292 -0.8200
 4341TIP3    H134658   5.390   4.852   0.629 -1.6188 -1.5418 -1.8152
 4341TIP3    H234659   5.437   4.762   0.742  1.2849  1.3677 -0.5445
 4342TIP3   OH234660   5.828   3.781   7.095  0.5119 -0.0831  0.5905
 4342TIP3    H134661   5.886   3.854   7.072  1.4800 -0.2361  2.3853
 4342TIP3    H234662   5.740   3.814   7.078  0.9693  1.2899  0.7639
 4343TIP3   OH234663   4.935   1.594   1.278 -0.3677 -0.0867  0.3111
 4343TIP3    H134664   5.014   1.614   1.329 -0.8363  0.7905  0.7350
 4343TIP3    H234665   4.889   1.678   1.274 -1.7720 -0.8039  0.9569
 4344TIP3   OH234666   3.838   5.977   6.563  0.4172  0.3997 -0.5171
 4344TIP3    H134667   3.913   5.930   6.525  0.2334  0.3755 -0.8508
 4344TIP3    H234668   3.867   6.068   6.568  0.8318  0.2378  0.2736
 4345TIP3   OH234669   3.976   5.394   8.471 -0.6106 -0.1735 -0.1247
 4345TIP3    H134670   3.881   5.405   8.473 -0.8485 -1.9738  2.3170
 4345TIP3    H234671   3.990   5.316   8.417 -0.6621 -0.8380  0.8085
 4346TIP3   OH234672   1.973   2.401   2.494 -0.1898  0.5565 -0.2970
 4346TIP3    H134673   1.888   2.399   2.450 -1.3834  2.7488  1.6758
 4346TIP3    H234674   1.958   2.360   2.579  0.6753  1.1083  0.1371
 4347TIP3   OH234675   1.988   2.864   1.847  0.7181  0.3607  1.2135
 4347TIP3    H134676   1.974   2.836   1.938  0.0738 -0.7116  0.8002
 4347TIP3    H234677   1.902   2.895   1.818 -0.0423 -2.6252 -0.1135
 4348TIP3   OH234678   6.013   3.452   0.382  0.0835  0.4045  0.2829
 4348TIP3    H134679   5.927   3.494   0.388  0.6615  1.4106  2.8581
 4348TIP3    H234680   6.001   3.366   0.421 -0.2356 -0.4084 -1.5213
 4349TIP3   OH234681   6.274   0.134   8.381  0.5412 -0.0771 -0.0253
 4349TIP3    H134682   6.294   0.217   8.337  0.5559 -0.0044  0.1195
 4349TIP3    H234683   6.313   0.067   8.324 -1.3108 -0.1557 -1.3040
 4350TIP3   OH234684   1.672   3.620   0.197 -0.3105  0.1193  0.1639
 4350TIP3    H134685   1.714   3.558   0.137 -0.4315  0.9202 -0.7719
 4350TIP3    H234686   1.717   3.607   0.280 -0.0827 -0.9542 -0.1180
 4351TIP3   OH234687   5.415   1.502   0.323 -0.0516 -0.5897  0.4337
 4351TIP3    H134688   5.486   1.562   0.344 -0.7692  0.8574 -1.0963
 4351TIP3    H234689   5.358   1.505   0.399  0.7466 -0.6155  1.0488
 4352TIP3   OH234690   1.623   5.514   7.507 -0.4608  0.0173 -0.3175
 4352TIP3    H134691   1.678   5.590   7.486 -0.1062 -0.5932 -1.6738
 4352TIP3    H234692   1.673   5.467   7.574 -0.6571  0.9271  0.4926
 4353TIP3   OH234693   3.502   5.517   0.335 -0.3479 -0.6913 -0.3301
 4353TIP3    H134694   3.448   5.552   0.406  0.8928 -2.0668  1.3867
 4353TIP3    H234695   3.467   5.429   0.320  0.0877 -0.8138 -0.6423
 4354TIP3   OH234696   0.814   4.621   7.576 -0.4537 -0.3887 -0.2529
 4354TIP3    H134697   0.746   4.649   7.637 -1.8217 -0.8057 -1.5394
 4354TIP3    H234698   0.788   4.533   7.549  1.9490 -1.6224  1.1049
 4355TIP3   OH234699   2.923   2.273   7.365 -0.7566  0.9489 -0.1965
 4355TIP3    H134700   2.957   2.314   7.286  2.0818 -1.2040 -0.2381
 4355TIP3    H234701   2.844   2.227   7.336  0.3981 -0.0477 -1.9022
 4356TIP3   OH234702   3.049   3.473   0.493  0.2996 -0.3769 -0.5481
 4356TIP3    H134703   3.035   3.428   0.410  1.0529  0.3237 -1.0733
 4356TIP3    H234704   3.143   3.492   0.494  0.5628 -1.5584  1.0834
 4357TIP3   OH234705   5.641   5.523   0.090 -0.0922  0.1876 -0.0097
 4357TIP3    H134706   5.599   5.467   0.025  0.2797  1.1310 -1.0917
 4357TIP3    H234707   5.598   5.608   0.080  0.6559  0.6154  0.2824
 4358TIP3   OH234708   5.215   4.298   1.199 -0.4933 -0.1885  0.4139
 4358TIP3    H134709   5.133   4.250   1.203 -1.1286  0.5451 -2.1146
 4358TIP3    H234710   5.244   4.289   1.108  1.2249  1.1802  0.7742
 4359TIP3   OH234711   3.540   0.858   7.494 -0.1001  0.1623 -0.2133
 4359TIP3    H134712   3.448   0.847   7.520 -0.4099 -0.9249 -1.6820
 4359TIP3    H234713   3.536   0.888   7.404  0.9947  2.0193  0.3013
 4360TIP3   OH234714   1.840   6.404   1.893 -0.0380 -0.0906 -0.1772
 4360TIP3    H134715   1.820   6.473   1.829 -0.1186  0.2177  0.1765
 4360TIP3    H234716   1.899   6.446   1.955  0.0971 -0.4120 -0.0869
 4361TIP3   OH234717   0.721   3.786   1.736 -0.2561 -0.7135  0.1004
 4361TIP3    H134718   0.633   3.825   1.735 -0.3945 -0.9770  1.0533
 4361TIP3    H234719   0.756   3.809   1.822  0.9798  0.1829 -0.6110
 4362TIP3   OH234720   4.903   0.772   8.144 -0.0420  0.9716  0.1174
 4362TIP3    H134721   4.893   0.821   8.226  0.3978  1.9859 -0.4128
 4362TIP3    H234722   4.814   0.763   8.111 -0.1131  1.6115  0.1221
 4363TIP3   OH234723   0.846   1.470   8.195  1.0280  0.1023  0.5689
 4363TIP3    H134724   0.877   1.424   8.117 -0.7687  1.1629 -0.8429
 4363TIP3    H234725   0.754   1.488   8.178  0.4140 -0.0849  3.2005
 4364TIP3   OH234726   2.426   3.015   7.637 -0.3701  0.4819  0.0165
 4364TIP3    H134727   2.410   2.932   7.681  0.2603  0.6105  0.5096
 4364TIP3    H234728   2.339   3.049   7.615 -0.6176 -0.4844 -0.5292
 4365TIP3   OH234729   0.492   2.684   1.288  0.0297  0.3866  0.3379
 4365TIP3    H134730   0.397   2.687   1.292  0.0440  2.1534  0.2798
 4365TIP3    H234731   0.511   2.618   1.221 -1.1901  1.0596 -0.7137
 4366TIP3   OH234732   2.004   2.869   7.964  0.1492  0.1325 -0.1389
 4366TIP3    H134733   1.932   2.901   7.910  0.5069  0.6137 -0.3465
 4366TIP3    H234734   1.970   2.869   8.053  0.2102  1.3656 -0.0942
 4367TIP3   OH234735   0.596   1.593   2.075  0.2883 -0.2470 -0.2476
 4367TIP3    H134736   0.512   1.602   2.030  0.2209  1.2613  0.1444
 4367TIP3    H234737   0.636   1.679   2.070  0.1991  0.0848  2.7143
 4368TIP3   OH234738   5.375   3.117   0.732  0.2927 -0.2188  0.1426
 4368TIP3    H134739   5.334   3.071   0.806 -0.0817 -0.1309 -0.0071
 4368TIP3    H234740   5.348   3.067   0.655  0.7755 -0.3760  0.0757
 4369TIP3   OH234741   0.382   5.173   7.686  0.4040 -0.2024  0.0536
 4369TIP3    H134742   0.457   5.123   7.719  0.4997  0.2822  0.5977
 4369TIP3    H234743   0.413   5.213   7.605  1.2738  1.2750  1.0730
 4370TIP3   OH234744   5.250   1.877   6.370 -0.0419 -0.4762 -0.1587
 4370TIP3    H134745   5.287   1.848   6.286 -1.2741 -0.4339 -0.7298
 4370TIP3    H234746   5.271   1.970   6.375  0.5931 -0.6159 -0.1041
 4371TIP3   OH234747   0.143   3.876   0.952  0.7101  0.4815  0.1824
 4371TIP3    H134748   0.149   3.780   0.955 -0.2897  0.4325  1.0353
 4371TIP3    H234749   0.166   3.904   1.041  1.8186  1.0949 -0.2842
 4372TIP3   OH234750   6.223   6.095   0.280 -0.7832 -0.0286  0.3740
 4372TIP3    H134751   6.213   6.014   0.230 -0.6948 -0.2975  0.7896
 4372TIP3    H234752   6.176   6.079   0.362 -1.6566  0.7166  0.0354
 4373TIP3   OH234753   1.653   1.569   1.424 -0.3702  0.0304 -0.0221
 4373TIP3    H134754   1.676   1.641   1.366 -0.1307 -0.2921 -0.3262
 4373TIP3    H234755   1.667   1.604   1.512 -0.4882  0.4331 -0.1608
 4374TIP3   OH234756   6.292   0.173   7.767 -0.3484  0.0462  0.2346
 4374TIP3    H134757   6.330   0.200   7.683 -1.2889  0.5376 -0.0445
 4374TIP3    H234758   6.214   0.124   7.744  0.1902 -1.1216  0.8036
 4375TIP3   OH234759   3.051   1.521   1.509 -0.2552 -0.0886 -0.3198
 4375TIP3    H134760   3.035   1.505   1.416 -1.4891 -1.1734  0.0538
 4375TIP3    H234761   3.134   1.476   1.527 -0.6260 -0.9156 -0.6370
 4376TIP3   OH234762   4.137   2.675   6.756 -0.9097 -0.4530 -0.3937
 4376TIP3    H134763   4.213   2.693   6.811 -0.4280  0.9935 -1.4548
 4376TIP3    H234764   4.172   2.628   6.681 -0.9326  0.7793 -1.1952
 4377TIP3   OH234765   5.012   1.501   6.385 -0.1319 -0.0203 -0.2700
 4377TIP3    H134766   4.996   1.490   6.291 -0.3014  1.4856 -0.4366
 4377TIP3    H234767   4.993   1.415   6.423 -1.2892 -0.3108 -1.4499
 4378TIP3   OH234768   4.324   1.642   6.877  0.2053  0.2696 -0.7585
 4378TIP3    H134769   4.395   1.689   6.834 -0.6888  1.9015 -0.5184
 4378TIP3    H234770   4.330   1.553   6.843  4.0890 -0.4793  1.2933
 4379TIP3   OH234771   5.040   6.226   7.513  0.3741  0.1258 -0.7158
 4379TIP3    H134772   5.054   6.289   7.442  1.1062  0.7626 -0.0347
 4379TIP3    H234773   5.089   6.148   7.486  1.4666  0.7066 -0.4903
 4380TIP3   OH234774   1.960   2.448   0.370  0.3498 -0.5796 -0.0220
 4380TIP3    H134775   1.886   2.400   0.407  0.4144 -1.5210 -1.0485
 4380TIP3    H234776   2.036   2.391   0.385  0.8510  0.2695  0.8104
 4381TIP3   OH234777   2.942   5.799   1.161  0.4708  0.1441  0.3081
 4381TIP3    H134778   2.975   5.741   1.093  1.2483 -0.3989  1.1112
 4381TIP3    H234779   2.941   5.744   1.240 -0.6412  0.6821  0.6844
 4382TIP3   OH234780   1.825   2.466   7.910 -0.0058  0.6953 -0.0822
 4382TIP3    H134781   1.776   2.468   7.828  1.8825  0.9876 -1.2725
 4382TIP3    H234782   1.782   2.531   7.965 -0.4095  1.5956 -1.4039
 4383TIP3   OH234783   1.384   6.550   0.444 -0.2663 -0.4483  0.0948
 4383TIP3    H134784   1.297   6.510   0.439 -0.4262 -0.0511 -0.5059
 4383TIP3    H234785   1.420   6.520   0.527 -0.1547 -2.2630 -0.5798
 4384TIP3   OH234786   6.734   2.709   8.411  0.7032 -0.2253 -0.5178
 4384TIP3    H134787   6.829   2.718   8.411  0.5733  1.9310  0.9126
 4384TIP3    H234788   6.703   2.775   8.350  0.0846  0.9308  0.9702
 4385TIP3   OH234789   4.709   3.629   8.392  0.4266 -0.0149  0.2602
 4385TIP3    H134790   4.749   3.588   8.315 -1.4986  1.4565 -1.6784
 4385TIP3    H234791   4.768   3.609   8.464  2.4599 -1.2906 -1.6337
 4386TIP3   OH234792   5.887   0.388   8.062 -0.0208 -0.2436  0.7334
 4386TIP3    H134793   5.814   0.436   8.102 -0.1847  0.1757 -0.0390
 4386TIP3    H234794   5.845   0.320   8.009  0.1562 -0.1900  0.5216
 4387TIP3   OH234795   2.263   2.224   8.539 -0.0332  0.0579 -0.6186
 4387TIP3    H134796   2.287   2.161   8.607 -0.2640  1.0526  0.4180
 4387TIP3    H234797   2.259   2.172   8.459  2.2091 -0.7929 -0.2605
 4388TIP3   OH234798   6.297   1.230   1.331  0.3537  0.4903  0.4794
 4388TIP3    H134799   6.325   1.276   1.252 -0.2348  2.3690  1.2994
 4388TIP3    H234800   6.242   1.159   1.300  3.2030 -1.2572 -0.9980
 4389TIP3   OH234801   5.202   5.064   1.749  0.5999  0.3327  0.0016
 4389TIP3    H134802   5.175   5.083   1.839  1.6146  0.1609  0.3455
 4389TIP3    H234803   5.260   5.136   1.725 -0.7099  1.0960 -1.0010
 4390TIP3   OH234804   3.768   2.863   8.289  0.4786  0.3288 -0.0510
 4390TIP3    H134805   3.785   2.945   8.242  0.3397  0.6166  0.3936
 4390TIP3    H234806   3.786   2.884   8.381  0.4148 -0.1346  0.0691
 4391TIP3   OH234807   6.846   3.720   7.165 -0.2234  0.2380 -0.3401
 4391TIP3    H134808   6.872   3.811   7.183  1.5529 -0.3167  0.1759
 4391TIP3    H234809   6.822   3.685   7.250 -1.0343  0.2541 -0.5600
 4392TIP3   OH234810   0.105   0.732   7.926 -1.0696  0.6932 -0.0229
 4392TIP3    H134811   0.060   0.651   7.902  0.3714 -0.9287  2.2641
 4392TIP3    H234812   0.190   0.725   7.883 -0.3628  0.1578  1.3640
 4393TIP3   OH234813   3.650   4.901   1.461 -0.4451  0.0958  0.3204
 4393TIP3    H134814   3.631   4.872   1.371 -0.3202  0.2573  0.2420
 4393TIP3    H234815   3.586   4.969   1.478  0.6252  1.2909 -0.2761
 4394TIP3   OH234816   3.517   5.917   6.242 -0.3058  0.3051 -0.2314
 4394TIP3    H134817   3.537   6.011   6.250 -1.5630  0.4983  1.1814
 4394TIP3    H234818   3.564   5.889   6.163  1.5446  1.7143  0.2935
 4395TIP3   OH234819   6.420   3.568   0.107 -0.3717 -0.2820  0.6262
 4395TIP3    H134820   6.455   3.590   0.194 -0.9940 -0.3355  0.8954
 4395TIP3    H234821   6.326   3.582   0.115 -0.3258  0.6350 -0.3356
 4396TIP3   OH234822   5.238   3.030   7.283 -0.3694  0.3163 -0.5855
 4396TIP3    H134823   5.196   2.996   7.204 -0.6781 -0.6736 -0.0146
 4396TIP3    H234824   5.166   3.068   7.334 -0.6090 -1.1848  0.2912
 4397TIP3   OH234825   4.796   1.742   2.221 -0.1487 -0.3265 -0.6883
 4397TIP3    H134826   4.830   1.830   2.203 -1.7695  0.1207 -1.8014
 4397TIP3    H234827   4.757   1.749   2.309 -0.0473 -0.0140 -0.6660
 4398TIP3   OH234828   3.926   3.530   0.749  0.4646 -0.5472 -0.5243
 4398TIP3    H134829   3.977   3.512   0.828  1.6296  0.7233 -0.9514
 4398TIP3    H234830   3.980   3.497   0.677 -1.1409 -2.8715 -0.7862
 4399TIP3   OH234831   0.152   1.092   0.633 -0.2890 -0.6378 -0.2892
 4399TIP3    H134832   0.165   1.016   0.576  0.3275  0.3882 -1.5584
 4399TIP3    H234833   0.064   1.080   0.669 -0.1289 -2.0325 -0.3134
 4400TIP3   OH234834   6.648   5.969   0.027  0.4837 -0.6839  0.5008
 4400TIP3    H134835   6.701   6.013   0.093  0.3679 -1.6941  1.2844
 4400TIP3    H234836   6.674   5.877   0.032  1.6088 -0.5720 -1.9312
 4401TIP3   OH234837   4.663   4.623   0.077 -0.6755 -0.0486 -0.4865
 4401TIP3    H134838   4.741   4.677   0.083 -2.0421  1.9918 -0.0621
 4401TIP3    H234839   4.696   4.534   0.066  1.6898  0.6450  0.4494
 4402TIP3   OH234840   0.418   5.636   1.056  0.3398  0.2432  0.6624
 4402TIP3    H134841   0.500   5.685   1.043  0.5090  0.5219  2.5415
 4402TIP3    H234842   0.447   5.551   1.091 -0.1237 -0.0921  0.2433
 4403TIP3   OH234843   4.693   6.366   8.658 -0.0408  0.4729 -0.2167
 4403TIP3    H134844   4.626   6.377   8.726 -2.8095  2.9655 -3.0283
 4403TIP3    H234845   4.748   6.443   8.666  0.9255 -0.2459  0.3751
 4404TIP3   OH234846   5.459   2.023   1.297 -0.1421  0.0203 -0.1384
 4404TIP3    H134847   5.387   1.996   1.240 -0.5578 -0.9823  0.8182
 4404TIP3    H234848   5.446   1.973   1.378  2.0358 -0.7560 -0.1838
 4405TIP3   OH234849   3.668   4.974   7.201  0.0784 -0.1589 -0.0379
 4405TIP3    H134850   3.692   5.067   7.204 -0.0816 -0.0575 -1.4082
 4405TIP3    H234851   3.574   4.974   7.185  0.4516 -0.5148 -2.5830
 4406TIP3   OH234852   5.749   1.145   1.634 -0.0117  0.2923  0.0728
 4406TIP3    H134853   5.730   1.061   1.591  2.5536 -0.8995  1.0627
 4406TIP3    H234854   5.679   1.154   1.700 -0.4115 -0.9997 -0.1443
 4407TIP3   OH234855   4.611   4.823   1.956 -0.2709 -0.0512  0.2066
 4407TIP3    H134856   4.707   4.826   1.952 -0.3287  1.3303 -0.7323
 4407TIP3    H234857   4.585   4.794   1.869 -0.6771 -3.4732  1.3304
 4408TIP3   OH234858   1.977   0.505   8.300 -0.0461  0.5388 -0.4340
 4408TIP3    H134859   1.932   0.448   8.363  0.1969  0.8026 -0.0221
 4408TIP3    H234860   1.907   0.557   8.261 -0.2771 -0.0793 -0.8510
 4409TIP3   OH234861   0.518   4.682   8.530 -0.0171  0.3575 -0.6585
 4409TIP3    H134862   0.580   4.744   8.568  0.0427 -0.1958  0.1739
 4409TIP3    H234863   0.532   4.601   8.579 -2.1591  0.5048  0.2997
 4410TIP3   OH234864   2.255   3.185   7.137 -0.2774 -0.0491 -0.8184
 4410TIP3    H134865   2.187   3.209   7.073 -1.5283  0.1097  0.5085
 4410TIP3    H234866   2.216   3.113   7.187  0.1731  0.5894  0.5086
 4411TIP3   OH234867   2.208   0.083   7.766  0.3130  0.4211  0.3878
 4411TIP3    H134868   2.287   0.077   7.820  0.6587 -1.1411 -0.2357
 4411TIP3    H234869   2.163  -0.000   7.779 -0.9339  1.0381  0.2356
 4412TIP3   OH234870   1.788   4.896   8.750 -0.2902  0.2669 -0.2049
 4412TIP3    H134871   1.861   4.932   8.801  0.4135 -0.0695 -0.9473
 4412TIP3    H234872   1.732   4.854   8.814  0.3378  0.2575  0.3454
 4413TIP3   OH234873   6.830   0.876   7.763 -0.3454  0.3309 -0.1301
 4413TIP3    H134874   6.893   0.915   7.703 -0.0390  1.4274  0.8705
 4413TIP3    H234875   6.882   0.817   7.817 -0.1740  1.1815  0.6480
 4414TIP3   OH234876   5.923   1.942   1.095  0.0722 -0.0836  0.2047
 4414TIP3    H134877   6.014   1.920   1.075  0.4306  2.4741 -1.3851
 4414TIP3    H234878   5.927   2.028   1.135 -1.6545 -0.0694  0.4458
 4415TIP3   OH234879   1.178   5.764   7.853  0.2467  0.2471  0.3587
 4415TIP3    H134880   1.240   5.778   7.925  0.8622 -0.6827  0.0244
 4415TIP3    H234881   1.227   5.711   7.790 -0.4393  0.6694 -0.5398
 4416TIP3   OH234882   3.865   4.444   8.516 -0.2517  0.3082  0.4767
 4416TIP3    H134883   3.818   4.506   8.572  1.6606  0.7761  1.6468
 4416TIP3    H234884   3.949   4.430   8.560  0.7580 -0.4550 -1.5418
 4417TIP3   OH234885   2.101   3.542   7.561  0.2874  0.3088  0.4199
 4417TIP3    H134886   2.063   3.486   7.629  1.1256  0.3039  0.8883
 4417TIP3    H234887   2.193   3.518   7.558  0.1522 -0.1165 -1.1536
 4418TIP3   OH234888   4.283   0.803   8.219  0.6524 -0.2037 -0.2979
 4418TIP3    H134889   4.230   0.739   8.266 -2.1730  0.7056 -1.9442
 4418TIP3    H234890   4.289   0.768   8.130 -0.3639  1.3917 -1.0509
 4419TIP3   OH234891   0.199   6.695   1.584 -0.2478 -0.3424  0.1942
 4419TIP3    H134892   0.131   6.716   1.648 -0.8304 -0.6602 -0.3056
 4419TIP3    H234893   0.157   6.633   1.524  0.8368 -1.4478  0.5354
 4420TIP3   OH234894   3.826   4.277   7.121 -0.5998  0.2303 -0.2794
 4420TIP3    H134895   3.763   4.250   7.054  0.1282 -0.1095 -0.8529
 4420TIP3    H234896   3.801   4.366   7.144 -0.7211  0.4308 -1.1747
 4421TIP3   OH234897   0.445   1.199   2.381 -0.0599  0.2673  0.2818
 4421TIP3    H134898   0.434   1.294   2.380  0.5071  0.3317 -0.4064
 4421TIP3    H234899   0.368   1.167   2.427 -2.1857  0.8107 -2.6324
 4422TIP3   OH234900   2.086   6.430   1.312 -0.0212  0.0687 -0.0556
 4422TIP3    H134901   2.028   6.365   1.272 -3.3522  1.0823  2.6234
 4422TIP3    H234902   2.143   6.379   1.369  1.2336 -0.8749 -2.0400
 4423TIP3   OH234903   5.647   3.022   8.015 -0.1094  0.3998  0.3361
 4423TIP3    H134904   5.692   2.938   8.022 -2.1273 -0.6960  1.0084
 4423TIP3    H234905   5.607   3.035   8.101 -1.3108  1.1635 -0.3054
 4424TIP3   OH234906   4.944   4.209   1.997 -0.5792  0.9147 -0.4572
 4424TIP3    H134907   4.933   4.128   2.047  1.2280  0.8909 -0.0299
 4424TIP3    H234908   4.915   4.278   2.057  0.8096  0.8169  0.3593
 4425TIP3   OH234909   4.525   5.351   6.918  0.0837  0.4508  0.5416
 4425TIP3    H134910   4.597   5.402   6.879 -0.5868  1.6428  0.8171
 4425TIP3    H234911   4.486   5.410   6.982 -1.0638 -0.2325  0.4983
 4426TIP3   OH234912   3.479   2.727   8.186  0.2594  0.0990 -0.1926
 4426TIP3    H134913   3.386   2.704   8.178  0.5928 -1.4548  0.0175
 4426TIP3    H234914   3.480   2.822   8.198 -1.1385  0.5234 -2.8407
 4427TIP3   OH234915   2.245   4.720   1.271  0.5678  0.1816 -0.1244
 4427TIP3    H134916   2.212   4.639   1.311 -0.5722  0.9059  0.4476
 4427TIP3    H234917   2.167   4.774   1.259  1.3509  1.3215 -0.2038
 4428TIP3   OH234918   6.300   1.227   6.701 -0.3059  0.6415  0.1666
 4428TIP3    H134919   6.326   1.156   6.759 -0.1332 -0.1447 -0.8567
 4428TIP3    H234920   6.383   1.259   6.664 -0.4666  0.7264 -0.1194
 4429TIP3   OH234921   2.915   1.082   7.153  0.1893 -0.0857  0.1500
 4429TIP3    H134922   2.837   1.134   7.131  0.9638  0.1676 -2.3323
 4429TIP3    H234923   2.978   1.146   7.187 -0.7163 -0.3420  2.5112
 4430TIP3   OH234924   6.174   6.048   1.275  0.9277 -0.3530 -0.1219
 4430TIP3    H134925   6.194   6.113   1.342  0.8850  0.3521 -0.7710
 4430TIP3    H234926   6.079   6.050   1.267  1.0362  1.2111 -1.7427
 4431TIP3   OH234927   6.153   4.203   7.820 -0.0772 -0.6395  0.4990
 4431TIP3    H134928   6.143   4.268   7.890  0.1086 -0.2954  0.2065
 4431TIP3    H234929   6.085   4.138   7.839 -1.4381  0.5253 -0.2013
 4432TIP3   OH234930   3.597   2.612   7.027  0.4402  0.3846 -0.2160
 4432TIP3    H134931   3.668   2.635   6.968  0.4973  0.7020 -0.0312
 4432TIP3    H234932   3.527   2.674   7.005 -0.0188 -0.3415 -0.8321
 4433TIP3   OH234933   0.050   0.536   1.058  0.2629 -0.3999  0.5465
 4433TIP3    H134934   0.002   0.486   1.124  2.1325  1.1960  3.3192
 4433TIP3    H234935  -0.006   0.610   1.038 -1.0152 -1.6972 -1.0180
 4434TIP3   OH234936   2.701   2.603   1.514  0.0114 -0.1252  0.2349
 4434TIP3    H134937   2.742   2.684   1.543 -1.2639  1.6184 -2.4502
 4434TIP3    H234938   2.607   2.615   1.532 -0.2132 -0.9339 -0.3033
 4435TIP3   OH234939   2.430   6.168   6.494  0.4590 -0.6626  0.3487
 4435TIP3    H134940   2.367   6.124   6.437 -2.0709  0.3339  2.2146
 4435TIP3    H234941   2.498   6.102   6.509 -0.5511 -2.1064 -1.0327
 4436TIP3   OH234942   0.526   5.258   2.280 -0.0691 -0.3604 -0.6174
 4436TIP3    H134943   0.448   5.301   2.246  1.0600  0.7440 -1.9448
 4436TIP3    H234944   0.573   5.326   2.328  0.1342 -0.9935  0.1210
 4437TIP3   OH234945   0.148   3.375   1.878 -0.2170  0.2339  0.1364
 4437TIP3    H134946   0.208   3.434   1.924  0.3069  0.8584 -1.3009
 4437TIP3    H234947   0.150   3.404   1.787 -1.2324 -0.9658 -0.3006
 4438TIP3   OH234948   2.997   4.100   1.224 -0.3982 -0.5373  0.0903
 4438TIP3    H134949   2.912   4.124   1.262  0.2721 -1.1900  2.1114
 4438TIP3    H234950   3.061   4.132   1.287  0.7676 -1.9675 -0.3262
 4439TIP3   OH234951   0.765   0.970   1.920  0.3083  0.6080 -0.0148
 4439TIP3    H134952   0.829   0.999   1.854 -0.6642  0.2109 -1.1704
 4439TIP3    H234953   0.731   1.051   1.958  1.6887  0.8259  0.8394
 4440TIP3   OH234954   6.794   3.643   0.215  0.5061 -0.6303 -0.0370
 4440TIP3    H134955   6.714   3.677   0.257  0.5019 -0.8221  0.1127
 4440TIP3    H234956   6.790   3.677   0.126  0.3944 -0.4123  0.0491
 4441TIP3   OH234957   2.026   2.238   6.980 -0.1551 -0.5785  0.4810
 4441TIP3    H134958   1.956   2.302   6.967  0.0394 -0.1691  1.3644
 4441TIP3    H234959   2.067   2.229   6.894 -0.4933  0.1255  0.2428
 4442TIP3   OH234960   3.956   5.518   8.784 -0.1779  0.0239 -0.5316
 4442TIP3    H134961   3.925   5.504   8.695 -0.3624  0.2745 -0.5055
 4442TIP3    H234962   4.007   5.598   8.781 -1.8667  1.1708 -0.0114
 4443TIP3   OH234963   2.351   4.559   7.118  0.0713  0.0808  0.3201
 4443TIP3    H134964   2.294   4.545   7.042 -1.0659  0.7450  1.0221
 4443TIP3    H234965   2.438   4.537   7.087  0.0131  2.5091 -1.8664
 4444TIP3   OH234966   5.104   5.594   8.430 -0.0800 -0.2841 -0.6040
 4444TIP3    H134967   5.170   5.534   8.464 -0.2771  0.2709  0.8615
 4444TIP3    H234968   5.025   5.574   8.480  0.0477  1.6421  0.5038
 4445TIP3   OH234969   5.405   0.562   7.381  0.7004  0.6300  0.0270
 4445TIP3    H134970   5.367   0.474   7.376  0.4045  0.6088  1.9128
 4445TIP3    H234971   5.471   0.556   7.450  0.4008  1.9621  0.4646
 4446TIP3   OH234972   5.127   2.610   0.500  0.1467  0.3067  0.2547
 4446TIP3    H134973   5.095   2.676   0.438 -1.1851  0.6898  1.2863
 4446TIP3    H234974   5.051   2.592   0.556  0.6530 -1.6708  0.3847
 4447TIP3   OH234975   0.049   3.840   7.575  0.9008  0.8755 -0.1756
 4447TIP3    H134976  -0.042   3.860   7.598  1.2392  0.0759  2.1669
 4447TIP3    H234977   0.097   3.921   7.593  1.0909  0.3870  1.8130
 4448TIP3   OH234978   5.810   2.425   6.468 -0.1162  0.0677 -0.7095
 4448TIP3    H134979   5.854   2.505   6.498  0.2559  0.0801 -1.2782
 4448TIP3    H234980   5.719   2.436   6.495  0.2634 -0.0715  0.7252
 4449TIP3   OH234981   1.271   0.536   7.650  0.3702 -0.7852  0.8970
 4449TIP3    H134982   1.192   0.485   7.637  0.0063 -0.2516  0.9904
 4449TIP3    H234983   1.257   0.583   7.732  1.1479 -1.3498  1.3746
 4450TIP3   OH234984   1.713   6.201   7.835 -0.2948  0.6568  0.1914
 4450TIP3    H134985   1.696   6.258   7.760 -2.2753  1.8124  1.4232
 4450TIP3    H234986   1.695   6.113   7.802  0.3795  0.9624 -1.0733
 4451TIP3   OH234987   4.414   4.774   0.404  0.8032 -0.1524  0.1818
 4451TIP3    H134988   4.443   4.819   0.325 -0.6093 -0.5762 -0.6057
 4451TIP3    H234989   4.481   4.707   0.419  1.5930  0.5584 -0.0684
 4452TIP3   OH234990   2.520   2.771   0.181  0.6410  0.3212 -0.3880
 4452TIP3    H134991   2.544   2.839   0.118  1.1804 -0.3737 -0.9425
 4452TIP3    H234992   2.448   2.723   0.139  0.0862  0.6947  0.1122
 4453TIP3   OH234993   4.680   0.561   8.253 -0.1521 -0.3701 -0.5133
 4453TIP3    H134994   4.669   0.505   8.330  0.6820 -0.4737 -0.4616
 4453TIP3    H234995   4.739   0.512   8.196 -0.2533 -0.0067 -0.9314
 4454TIP3   OH234996   3.746   4.534   7.173 -0.3563  0.3822 -0.0061
 4454TIP3    H134997   3.688   4.586   7.229  1.4764  2.1901  0.3298
 4454TIP3    H234998   3.723   4.560   7.084  0.1033  1.3196  0.1386
 4455TIP3   OH234999   5.195   2.518   8.502 -0.4657 -0.5813 -0.2355
 4455TIP3    H135000   5.106   2.502   8.472 -0.2529 -1.5632 -0.3950
 4455TIP3    H235001   5.238   2.561   8.428 -0.8630  0.1090 -0.0726
 4456TIP3   OH235002   0.118   6.345   1.648  0.0139 -0.0059 -0.0703
 4456TIP3    H135003   0.045   6.284   1.660 -0.1826 -0.1795 -1.8474
 4456TIP3    H235004   0.080   6.432   1.661 -0.1406 -0.1667  0.5679
 4457TIP3   OH235005   2.932   4.549   7.454  0.0770  0.6697  0.1866
 4457TIP3    H135006   2.995   4.597   7.510 -0.5688 -0.5447  2.0563
 4457TIP3    H235007   2.933   4.460   7.489 -0.2173 -0.2127 -1.9521
 4458TIP3   OH235008   4.017   4.437   6.387  0.4489  0.2585  0.2379
 4458TIP3    H135009   4.054   4.518   6.423  1.8268 -0.2521  0.0416
 4458TIP3    H235010   4.001   4.382   6.464  3.1746 -0.7398  0.2362
 4459TIP3   OH235011   2.395   1.280   7.322 -0.2745 -0.0270  0.2441
 4459TIP3    H135012   2.320   1.243   7.367  0.6406 -0.5242  1.4151
 4459TIP3    H235013   2.447   1.321   7.391 -0.2605  1.7451 -0.7450
 4460TIP3   OH235014   6.007   5.194   0.355  0.0128 -0.5132  0.3088
 4460TIP3    H135015   6.083   5.186   0.412  0.3867 -1.2580 -0.2842
 4460TIP3    H235016   6.024   5.272   0.301  0.9654 -1.4029 -0.7115
 4461TIP3   OH235017   1.212   0.571   2.272 -0.0845  0.4202  0.1580
 4461TIP3    H135018   1.214   0.616   2.356 -0.0133  3.6859 -1.4186
 4461TIP3    H235019   1.193   0.640   2.208 -1.1666 -2.0622 -2.4354
 4462TIP3   OH235020   0.136   4.487   1.208  0.4805  0.2612 -0.1529
 4462TIP3    H135021   0.084   4.541   1.148  1.5241  1.4531 -0.0198
 4462TIP3    H235022   0.106   4.512   1.296 -1.5140 -1.9479 -0.0833
 4463TIP3   OH235023   0.935   1.077   2.772  0.5192 -0.5039  0.0276
 4463TIP3    H135024   0.850   1.109   2.741 -0.3601 -0.5126  2.2226
 4463TIP3    H235025   0.982   1.157   2.797  0.5337 -0.6006  0.3047
 4464TIP3   OH235026   0.346   3.425   7.494  0.0690  0.0889 -0.1563
 4464TIP3    H135027   0.364   3.406   7.586  1.3011  2.0898  0.0657
 4464TIP3    H235028   0.285   3.499   7.496  2.4840  2.2407 -0.8438
 4465TIP3   OH235029   2.162   5.455   1.934  0.1415 -0.1151  0.5935
 4465TIP3    H135030   2.233   5.447   1.871  0.8866 -0.0491  1.3986
 4465TIP3    H235031   2.203   5.436   2.019 -0.8677 -0.3774  1.0394
 4466TIP3   OH235032   2.416   3.340   1.358  0.2586 -0.1649 -0.0040
 4466TIP3    H135033   2.482   3.316   1.293 -1.7889 -0.8388 -1.9783
 4466TIP3    H235034   2.352   3.392   1.309 -0.5929  0.6273  1.8602
 4467TIP3   OH235035   1.163   6.027   1.616 -0.1483  0.2929 -0.4603
 4467TIP3    H135036   1.183   5.959   1.681 -0.5490 -1.2585 -1.8899
 4467TIP3    H235037   1.205   6.106   1.650  1.3120 -0.9263  0.7066
 4468TIP3   OH235038   1.118   0.907   6.910  0.3846 -0.0446  0.1056
 4468TIP3    H135039   1.022   0.900   6.912  0.4312 -1.1922 -0.5894
 4468TIP3    H235040   1.135   1.000   6.899 -0.6439  0.2100  0.5281
 4469TIP3   OH235041   5.895   3.935   2.166 -0.0038 -0.2479 -0.1471
 4469TIP3    H135042   5.834   3.939   2.239 -2.2143  0.3729 -1.9268
 4469TIP3    H235043   5.884   3.847   2.129 -0.7110  0.2499 -1.1633
 4470TIP3   OH235044   2.135   6.593   7.504  0.5495 -0.2772  0.0804
 4470TIP3    H135045   2.166   6.668   7.453  0.9245 -1.0790 -0.9075
 4470TIP3    H235046   2.052   6.623   7.541 -0.2883  0.0084 -1.8773
 4471TIP3   OH235047   4.807   4.086   1.585 -0.0009  0.0849  0.3086
 4471TIP3    H135048   4.773   4.065   1.672 -0.1903 -1.9890 -0.1938
 4471TIP3    H235049   4.744   4.148   1.549 -1.2142 -0.7825  0.8253
 4472TIP3   OH235050   1.722   4.701   8.106  0.2517  0.0286  0.2273
 4472TIP3    H135051   1.707   4.692   8.200 -0.9315 -0.7749 -0.0234
 4472TIP3    H235052   1.643   4.666   8.065  1.5112 -1.3834 -1.1208
 4473TIP3   OH235053   5.972   2.588   8.590 -0.2241 -0.2965 -0.3726
 4473TIP3    H135054   5.912   2.658   8.562  0.2590  0.2809  0.0267
 4473TIP3    H235055   6.026   2.571   8.513  1.7629  1.9753  0.4114
 4474TIP3   OH235056   4.154   5.594   6.697 -0.7766 -0.1903 -0.4787
 4474TIP3    H135057   4.126   5.562   6.611 -0.2374 -1.2318 -0.2803
 4474TIP3    H235058   4.164   5.515   6.749 -1.2562  0.4410  0.6033
 4475TIP3   OH235059   5.033   1.227   0.486 -0.2742 -0.1481 -0.2896
 4475TIP3    H135060   5.126   1.208   0.489 -0.3020 -0.7600 -1.9256
 4475TIP3    H235061   4.990   1.142   0.482 -0.7317  0.1187 -2.0363
 4476TIP3   OH235062   0.374   0.832   6.888 -0.0684  0.2790  0.2034
 4476TIP3    H135063   0.376   0.884   6.808 -0.1496  1.0001  0.6575
 4476TIP3    H235064   0.297   0.777   6.879 -1.1437  1.6586  0.5656
 4477TIP3   OH235065   6.208   2.244   8.179  0.6620 -0.2159  0.0682
 4477TIP3    H135066   6.170   2.156   8.181 -0.7830  0.3931  0.0743
 4477TIP3    H235067   6.285   2.238   8.236  0.7698 -1.5484 -0.1865
 4478TIP3   OH235068   3.706   5.698   0.604  0.3902  0.0152 -0.7218
 4478TIP3    H135069   3.619   5.724   0.635  0.3351 -1.9353  0.9146
 4478TIP3    H235070   3.737   5.774   0.554 -1.1402  1.7935  0.8800
 4479TIP3   OH235071   5.948   3.616   2.370 -0.0545 -0.0867  0.1002
 4479TIP3    H135072   5.979   3.568   2.447 -0.0095  0.6779  0.5668
 4479TIP3    H235073   5.942   3.707   2.399 -0.6954  0.1065 -0.6069
 4480TIP3   OH235074   0.218   3.057   8.380  0.3257  0.8598  0.0955
 4480TIP3    H135075   0.218   2.976   8.430 -0.5987  0.7419 -0.0673
 4480TIP3    H235076   0.149   3.045   8.315  0.5681  1.5535 -0.3058
 4481TIP3   OH235077   0.960   3.885   1.300 -0.6736 -0.0554  0.6249
 4481TIP3    H135078   0.999   3.868   1.214 -0.6011 -1.4487  0.9062
 4481TIP3    H235079   0.986   3.974   1.321 -1.0612  0.4776 -0.9873
 4482TIP3   OH235080   3.517   5.794   7.484  0.1073 -0.4045 -0.1130
 4482TIP3    H135081   3.526   5.823   7.393 -2.0728 -0.2786 -0.3525
 4482TIP3    H235082   3.481   5.706   7.478 -1.6529  0.2190  0.5736
 4483TIP3   OH235083   3.289   0.093   7.538 -0.0499  0.2882 -0.1181
 4483TIP3    H135084   3.257   0.126   7.454 -1.0942 -0.6086 -0.0953
 4483TIP3    H235085   3.230   0.130   7.603 -0.3131 -0.4108  0.0466
 4484TIP3   OH235086   0.497   6.208   1.953 -0.4799 -0.0411  0.1552
 4484TIP3    H135087   0.420   6.188   2.005 -1.2620  1.5689 -0.2990
 4484TIP3    H235088   0.570   6.204   2.014 -0.8668 -1.8026  0.5474
 4485TIP3   OH235089   5.242   2.953   1.516 -0.4500  0.3975 -0.7452
 4485TIP3    H135090   5.230   2.939   1.610 -1.7610 -2.0358 -1.1781
 4485TIP3    H235091   5.321   2.903   1.495 -1.6606 -1.3687 -1.3152
 4486TIP3   OH235092   4.661   3.285   2.108 -0.0696 -0.7802  0.1137
 4486TIP3    H135093   4.675   3.289   2.202 -0.9190 -0.5655  0.2415
 4486TIP3    H235094   4.567   3.266   2.099  0.0702 -1.1348 -0.6811
 4487TIP3   OH235095   0.096   5.417   2.027  0.2564  0.3195 -0.0561
 4487TIP3    H135096   0.018   5.377   1.988 -0.3514  1.3509  0.0786
 4487TIP3    H235097   0.090   5.395   2.120 -0.6751  1.6600  0.2127
 4488TIP3   OH235098   4.424   3.361   7.302 -0.3997  0.2029 -0.1296
 4488TIP3    H135099   4.483   3.380   7.229  0.3211  2.9556  1.0691
 4488TIP3    H235100   4.465   3.403   7.378 -2.0024 -1.0872  1.5299
 4489TIP3   OH235101   6.231   0.002   1.410  0.2595  0.7135 -0.1729
 4489TIP3    H135102   6.204   0.082   1.456 -1.4510  0.8741 -1.3408
 4489TIP3    H235103   6.264  -0.056   1.479 -1.4970  1.2236  1.1676
 4490TIP3   OH235104   6.272   4.671   8.705 -0.3708  0.1835  0.1558
 4490TIP3    H135105   6.294   4.764   8.708 -0.2505  0.3716 -2.9980
 4490TIP3    H235106   6.356   4.626   8.696 -0.4738 -0.1860  0.9594
 4491TIP3   OH235107   6.468   3.571   7.136  0.2616 -0.3698  0.3224
 4491TIP3    H135108   6.446   3.523   7.056  3.1549  0.1432 -0.9031
 4491TIP3    H235109   6.523   3.511   7.186 -0.2859 -0.1319  1.2284
 4492TIP3   OH235110   3.390   2.120   0.044 -0.0538  0.2567 -0.0108
 4492TIP3    H135111   3.408   2.118  -0.050 -0.2827 -1.8683 -0.0593
 4492TIP3    H235112   3.301   2.155   0.051 -0.0980  0.2685 -0.5847
 4493TIP3   OH235113   1.403   5.741   8.287  0.3446  0.1187 -0.4429
 4493TIP3    H135114   1.359   5.666   8.327 -1.2354  0.7683 -0.8681
 4493TIP3    H235115   1.495   5.716   8.281 -0.2869 -2.1675 -1.4634
 4494TIP3   OH235116   0.990   6.584   7.236 -0.0955 -0.7369  0.5210
 4494TIP3    H135117   0.913   6.568   7.181  1.5231  0.9154 -2.4745
 4494TIP3    H235118   0.972   6.667   7.280  0.5442  0.5526 -1.5086
 4495TIP3   OH235119   5.985   1.807   0.324  0.2722  0.1042  0.3573
 4495TIP3    H135120   5.963   1.880   0.382  0.6660 -0.2891  1.0103
 4495TIP3    H235121   6.005   1.849   0.240 -1.7183  0.5837  0.0525
 4496TIP3   OH235122   5.671   3.236   6.835  0.2495  0.0560 -0.3402
 4496TIP3    H135123   5.589   3.272   6.801 -0.0874 -2.5351 -2.5615
 4496TIP3    H235124   5.738   3.296   6.802 -0.5557  0.7671 -0.7301
 4497TIP3   OH235125   1.232   3.218   7.338  0.6314  0.2651 -0.1936
 4497TIP3    H135126   1.171   3.181   7.274 -1.0682  2.3338  0.1383
 4497TIP3    H235127   1.317   3.182   7.313 -0.2433 -0.3913 -2.4940
 4498TIP3   OH235128   0.753   4.698   0.128  0.0610  0.1060  0.4099
 4498TIP3    H135129   0.687   4.700   0.198 -0.6357 -0.4053 -0.2187
 4498TIP3    H235130   0.774   4.605   0.117  0.1355  0.1810 -0.0927
 4499TIP3   OH235131   6.014   1.576   7.846  0.0505  0.3376  0.0680
 4499TIP3    H135132   5.970   1.564   7.762  0.2668 -1.4316  0.1741
 4499TIP3    H235133   5.971   1.515   7.906  0.1552  1.2940  1.1561
 4500TIP3   OH235134   2.048   5.768   7.091 -0.0178  0.3496  0.3960
 4500TIP3    H135135   2.046   5.701   7.023 -1.2485  0.2808  0.4892
 4500TIP3    H235136   2.042   5.851   7.044 -0.0989  0.3305  0.3726
 4501TIP3   OH235137   6.441   6.431   7.588  0.2748  0.0645 -0.1646
 4501TIP3    H135138   6.533   6.409   7.601  0.3661  0.0220 -0.8328
 4501TIP3    H235139   6.406   6.445   7.676  0.8611 -0.1559  0.1039
 4502TIP3   OH235140   5.481   5.707   0.768  0.1614  0.2404 -0.5882
 4502TIP3    H135141   5.549   5.749   0.821 -0.8776  0.2753  0.7780
 4502TIP3    H235142   5.430   5.779   0.733 -0.2975  0.1806 -0.0546
 4503TIP3   OH235143   0.680   3.532   1.637 -0.5854 -0.2962 -0.2786
 4503TIP3    H135144   0.700   3.622   1.662 -0.3267 -0.2942 -0.4873
 4503TIP3    H235145   0.616   3.503   1.701  1.5401 -0.9922  1.6405
 4504TIP3   OH235146   0.964   6.336   6.658 -0.7591 -0.9411  0.3626
 4504TIP3    H135147   1.005   6.362   6.741 -1.5064 -2.7726  1.3714
 4504TIP3    H235148   0.978   6.241   6.654 -1.1639 -0.9452 -1.3878
 4505TIP3   OH235149   0.307   0.076   0.998  0.6548 -0.0183  0.1283
 4505TIP3    H135150   0.232   0.135   1.004  0.6420 -0.0578  0.3448
 4505TIP3    H235151   0.320   0.044   1.087  0.3353 -0.7500 -0.0792
 4506TIP3   OH235152   3.917   6.112   0.393  0.1842  0.3181  0.0993
 4506TIP3    H135153   3.892   6.029   0.434  0.6721  0.8453  1.5154
 4506TIP3    H235154   3.986   6.089   0.331  1.3248 -0.1862  1.4955
 4507TIP3   OH235155   5.761   0.990   8.565 -0.1434 -0.0118  0.4341
 4507TIP3    H135156   5.857   0.984   8.560 -0.2288 -0.8666 -0.2787
 4507TIP3    H235157   5.745   1.076   8.603  0.9432 -0.5453  2.2164
 4508TIP3   OH235158   6.360   2.161   8.411  0.0608  0.4565  0.8452
 4508TIP3    H135159   6.286   2.200   8.458 -0.2154  0.5546  0.3308
 4508TIP3    H235160   6.412   2.120   8.480 -1.5705 -1.4630  1.0176
 4509TIP3   OH235161   5.871   1.570   1.202  0.1082 -0.2184  0.5041
 4509TIP3    H135162   5.933   1.587   1.131  0.9910  0.6600  1.4542
 4509TIP3    H235163   5.914   1.605   1.280 -0.4232 -2.0104  1.6452
 4510TIP3   OH235164   4.003   3.144   7.254  0.0978  0.3546  0.1530
 4510TIP3    H135165   3.921   3.131   7.207  0.8843 -2.1975 -0.6791
 4510TIP3    H235166   4.070   3.112   7.194  1.4624  0.1748  1.7042
 4511TIP3   OH235167   1.643   5.773   7.809 -0.0425  0.3636 -0.2860
 4511TIP3    H135168   1.613   5.850   7.761  0.3090  0.3995 -0.4531
 4511TIP3    H235169   1.728   5.799   7.845 -0.8119  0.7506  1.3531
 4512TIP3   OH235170   6.264   1.520   6.583 -0.1765  0.0458  0.2346
 4512TIP3    H135171   6.341   1.465   6.598 -0.0806  0.5574  1.7185
 4512TIP3    H235172   6.300   1.605   6.557 -0.3106 -0.3092 -1.2140
 4513TIP3   OH235173   6.799   4.142   1.346 -0.1842  0.0736  0.4854
 4513TIP3    H135174   6.781   4.232   1.319  0.0933 -0.2005 -0.6969
 4513TIP3    H235175   6.764   4.135   1.434 -1.3599  0.9834  0.1091
 4514TIP3   OH235176   1.656   5.646   1.753 -0.1529 -0.0958  0.0427
 4514TIP3    H135177   1.704   5.725   1.778  0.6848 -0.6898  0.3570
 4514TIP3    H235178   1.715   5.575   1.774 -0.4996 -0.7657 -1.1808
 4515TIP3   OH235179   5.886   0.246   8.489 -0.0881 -0.3363 -0.4161
 4515TIP3    H135180   5.791   0.257   8.486  0.0209  0.4855 -1.2269
 4515TIP3    H235181   5.904   0.174   8.429 -0.1140  0.2669 -1.1743
 4516TIP3   OH235182   3.562   5.149   8.676  0.0705 -0.0653  0.0892
 4516TIP3    H135183   3.499   5.169   8.607 -0.3843  2.4815  1.1071
 4516TIP3    H235184   3.645   5.139   8.630 -0.3669  0.7729 -0.9333
 4517TIP3   OH235185   2.459   4.339   1.152  0.2216 -0.1904  0.6938
 4517TIP3    H135186   2.470   4.428   1.186  1.1629 -0.9363  2.5100
 4517TIP3    H235187   2.548   4.309   1.136 -0.0137 -1.1435  1.0927
 4518TIP3   OH235188   6.460   5.265   8.723 -0.1142 -0.2242  0.4576
 4518TIP3    H135189   6.386   5.292   8.668  0.0579 -1.4134 -0.3867
 4518TIP3    H235190   6.421   5.208   8.789  0.0028 -0.6884  0.1339
 4519TIP3   OH235191   4.287   5.945   0.738  0.1113  0.3120 -0.5536
 4519TIP3    H135192   4.225   5.966   0.667 -0.6683 -1.9294 -0.6088
 4519TIP3    H235193   4.238   5.886   0.795  1.1255  1.1677  1.2672
 4520TIP3   OH235194   4.649   1.454   0.369  0.0442  0.3259  0.2520
 4520TIP3    H135195   4.636   1.496   0.283  0.5811 -1.3132 -0.6745
 4520TIP3    H235196   4.575   1.484   0.422 -0.8719  0.5778 -1.1181
 4521TIP3   OH235197   0.610   2.246   2.558  0.5089 -0.1233 -0.1116
 4521TIP3    H135198   0.660   2.296   2.622 -2.6601  1.3039  1.5000
 4521TIP3    H235199   0.527   2.293   2.549 -0.8139 -2.5280 -2.1989
 4522TIP3   OH235200   0.706   0.868   0.561 -0.0693  0.4230 -0.5273
 4522TIP3    H135201   0.787   0.839   0.520 -0.0665  0.6970 -0.7132
 4522TIP3    H235202   0.689   0.802   0.629  0.7718  0.8424  0.0994
 4523TIP3   OH235203   4.609   5.593   1.107 -0.2159  0.2902 -0.5677
 4523TIP3    H135204   4.573   5.669   1.063 -1.4501  0.5232  0.7660
 4523TIP3    H235205   4.533   5.540   1.130  0.1954  0.7101  2.1658
 4524TIP3   OH235206   6.365   5.353   1.851  0.0385 -0.0850  0.1402
 4524TIP3    H135207   6.384   5.339   1.944 -0.3480  2.1549  0.6254
 4524TIP3    H235208   6.270   5.352   1.846  0.0237  0.9616  0.0090
 4525TIP3   OH235209   1.392   1.007   1.717 -0.3952 -0.4775 -0.2799
 4525TIP3    H135210   1.311   1.048   1.748  1.2246  0.6723  2.9287
 4525TIP3    H235211   1.363   0.940   1.655 -3.6027  1.2610 -0.8697
 4526TIP3   OH235212   0.013   0.499   7.822  0.6136 -0.5204 -0.4840
 4526TIP3    H135213   0.003   0.455   7.738 -3.1191 -1.4594  0.2600
 4526TIP3    H235214   0.051   0.433   7.879  0.7077 -0.7712 -0.8348
 4527TIP3   OH235215   0.578   4.856   0.617 -0.1871  0.4393  0.2254
 4527TIP3    H135216   0.590   4.847   0.523 -2.0039 -0.9961  0.0756
 4527TIP3    H235217   0.611   4.774   0.654 -0.0503  0.7315  0.7628
 4528TIP3   OH235218   2.872   1.884   1.828 -0.0244 -0.1082  0.4956
 4528TIP3    H135219   2.858   1.831   1.907 -1.2829  0.9952  1.0458
 4528TIP3    H235220   2.887   1.819   1.759 -1.9590 -1.2315  1.0579
 4529TIP3   OH235221   1.557   5.216   1.529 -0.0631  0.8238  0.6055
 4529TIP3    H135222   1.511   5.283   1.478  0.5040  0.4514 -0.4095
 4529TIP3    H235223   1.620   5.265   1.581  0.3710  1.0914 -0.1550
 4530TIP3   OH235224   3.961   6.036   1.262  0.0968  0.4453 -0.4949
 4530TIP3    H135225   3.998   5.948   1.266 -0.8257  0.0670 -0.0691
 4530TIP3    H235226   3.877   6.025   1.218  0.3911  1.2720 -1.2997
 4531TIP3   OH235227   1.756   5.771   7.449  0.7032 -0.8029 -0.0398
 4531TIP3    H135228   1.810   5.733   7.518 -1.3788  0.7628  2.6478
 4531TIP3    H235229   1.779   5.864   7.449  0.5434 -0.7467 -1.3643
 4532TIP3   OH235230   2.793   4.059   1.484  0.4641 -0.2483 -0.3299
 4532TIP3    H135231   2.714   4.011   1.509 -0.2728  0.1877 -1.7105
 4532TIP3    H235232   2.760   4.138   1.442  1.6528  0.2974 -0.2731
 4533TIP3   OH235233   1.959   3.146   0.904  0.5241  0.5444  0.4537
 4533TIP3    H135234   2.039   3.194   0.921  0.0684  1.8356 -0.8210
 4533TIP3    H235235   1.931   3.176   0.817 -0.8184 -0.5918  0.4548
 4534TIP3   OH235236   6.526   3.220   2.627  0.2137 -0.2080  0.0501
 4534TIP3    H135237   6.514   3.139   2.577  0.0725  0.2445 -0.6683
 4534TIP3    H235238   6.621   3.230   2.633  0.2331 -0.1314 -0.3562
 4535TIP3   OH235239   1.456   6.534   8.703 -0.2921 -0.3488  0.5890
 4535TIP3    H135240   1.425   6.546   8.613 -0.9060 -1.3243  0.6535
 4535TIP3    H235241   1.467   6.623   8.737  2.6869  0.1692 -1.3264
 4536TIP3   OH235242   4.109   3.874   7.365  0.1589  0.1650  0.0643
 4536TIP3    H135243   4.066   3.851   7.448 -0.7855  1.2395 -0.0982
 4536TIP3    H235244   4.133   3.790   7.327 -2.2383 -0.5562 -0.0368
 4537TIP3   OH235245   6.589   3.388   7.319 -0.3764 -0.3356  0.4696
 4537TIP3    H135246   6.549   3.382   7.406 -0.4568  0.3649  0.4876
 4537TIP3    H235247   6.662   3.449   7.330 -0.7328  0.2032 -0.0697
 4538TIP3   OH235248   5.052   6.180   8.199  0.0486  0.7090  0.1373
 4538TIP3    H135249   5.147   6.191   8.188 -0.4954  4.6036 -2.6847
 4538TIP3    H235250   5.036   6.201   8.291  1.8349  0.6037  0.5128
 4539TIP3   OH235251   2.345   1.434   1.683  0.4511  0.2055 -0.0611
 4539TIP3    H135252   2.289   1.494   1.633  0.5002 -0.5990 -1.0927
 4539TIP3    H235253   2.391   1.383   1.617  0.4725 -0.9242  0.8069
 4540TIP3   OH235254   5.308   4.985   6.654 -0.2185 -0.4045 -0.5838
 4540TIP3    H135255   5.233   4.929   6.635  0.7222 -1.6775 -0.6702
 4540TIP3    H235256   5.361   4.934   6.716  2.3684 -1.1486 -3.2057
 4541TIP3   OH235257   5.829   1.374   0.202  0.6440 -0.1184  0.0561
 4541TIP3    H135258   5.876   1.295   0.175  0.2628 -0.1146 -0.6429
 4541TIP3    H235259   5.888   1.446   0.179  1.2389 -0.2078  1.2119
 4542TIP3   OH235260   4.242   6.141   7.607 -0.1163  0.1215  0.2304
 4542TIP3    H135261   4.269   6.192   7.684  0.3977 -0.2266  0.2854
 4542TIP3    H235262   4.174   6.081   7.640 -1.1855  1.1806  0.0373
 4543TIP3   OH235263   2.537   3.777   8.188  0.4459  0.2639 -0.6426
 4543TIP3    H135264   2.549   3.743   8.276  1.9594  0.9382 -0.5603
 4543TIP3    H235265   2.505   3.866   8.201 -1.6118 -0.4010 -0.8314
 4544TIP3   OH235266   4.109   1.773   0.751  0.0629 -0.3743  0.3211
 4544TIP3    H135267   4.049   1.699   0.752  0.1148 -0.4427  1.9675
 4544TIP3    H235268   4.153   1.769   0.836  0.6793  1.0561  0.1025
 4545TIP3   OH235269   4.772   0.377   1.091  0.0287 -0.5819  0.2346
 4545TIP3    H135270   4.802   0.309   1.153  0.0995 -1.6847 -0.9707
 4545TIP3    H235271   4.852   0.405   1.046  0.2943  1.5926  1.8774
 4546TIP3   OH235272   4.001   1.122   1.498  0.6911  0.0059  0.5733
 4546TIP3    H135273   3.991   1.166   1.414 -0.2539  0.7770  1.0745
 4546TIP3    H235274   4.053   1.044   1.478  0.2950  0.0600 -0.7648
 4547TIP3   OH235275   1.582   3.753   7.224 -0.3128  0.3725 -0.0809
 4547TIP3    H135276   1.512   3.786   7.168  0.5356  0.8552 -0.9122
 4547TIP3    H235277   1.622   3.682   7.173 -1.6566 -1.5201  1.3818
 4548TIP3   OH235278   4.571   6.441   1.143 -0.1764  0.0020  0.4251
 4548TIP3    H135279   4.496   6.500   1.147 -1.3863 -1.4592 -0.0532
 4548TIP3    H235280   4.602   6.436   1.234  0.2952  1.7205  0.4103
 4549TIP3   OH235281   4.752   0.804   6.773  0.2864  0.0736  0.0154
 4549TIP3    H135282   4.714   0.765   6.694  0.0743  1.3260 -0.5315
 4549TIP3    H235283   4.763   0.731   6.833  1.0242 -1.0309 -1.3955
 4550TIP3   OH235284   4.388   3.584   1.498 -0.0462 -0.5261 -0.5125
 4550TIP3    H135285   4.355   3.654   1.442  0.7820  0.1904 -0.1231
 4550TIP3    H235286   4.440   3.628   1.564 -0.7739 -1.3879  0.6815
 4551TIP3   OH235287   6.062   5.557   7.582  0.1987  0.2186 -0.1129
 4551TIP3    H135288   6.114   5.478   7.569  1.5057  1.2396 -1.4290
 4551TIP3    H235289   5.982   5.526   7.626  0.3116 -1.9386 -1.2720
 4552TIP3   OH235290   1.031   6.809   1.295 -0.6556 -0.0658  0.1936
 4552TIP3    H135291   1.046   6.903   1.288  1.2939 -0.3577 -0.1655
 4552TIP3    H235292   1.112   6.769   1.262 -0.4815 -1.8328  2.4972
 4553TIP3   OH235293   4.616   1.655   8.371  0.1328 -0.3220 -0.0274
 4553TIP3    H135294   4.655   1.736   8.337 -0.1414 -0.7454 -1.4001
 4553TIP3    H235295   4.589   1.607   8.293 -0.5659 -1.3191  0.8076
 4554TIP3   OH235296   1.657   3.816   6.725  0.3426  0.4512  0.3652
 4554TIP3    H135297   1.715   3.812   6.649 -0.0969  1.5635 -0.0510
 4554TIP3    H235298   1.644   3.725   6.751  0.3024  0.0295 -1.0537
 4555TIP3   OH235299   6.302   3.045   0.048 -0.0859 -0.0673  0.6841
 4555TIP3    H135300   6.339   3.085   0.126  1.2648 -0.3674  0.2247
 4555TIP3    H235301   6.255   3.116   0.004  0.0029  0.3389  1.2457
 4556TIP3   OH235302   2.922   1.547   0.941  0.2579 -0.1443 -0.4476
 4556TIP3    H135303   2.975   1.627   0.947 -0.3427  0.2011  0.5868
 4556TIP3    H235304   2.900   1.527   1.032  2.8485 -3.1912 -0.2973
 4557TIP3   OH235305   5.656   4.688   2.197  0.2335  0.1798  0.0796
 4557TIP3    H135306   5.735   4.709   2.246  1.9331 -0.8337 -2.0100
 4557TIP3    H235307   5.659   4.593   2.188 -0.6086  0.2334 -0.9541
 4558TIP3   OH235308   3.195   2.578   0.397 -0.4993 -0.0667 -0.7524
 4558TIP3    H135309   3.152   2.641   0.339 -1.3648 -1.2072 -1.4077
 4558TIP3    H235310   3.125   2.550   0.457  0.4704  1.3735  1.1398
 4559TIP3   OH235311   4.715   3.323   0.575 -0.4262  0.3995 -0.4165
 4559TIP3    H135312   4.750   3.368   0.652 -0.6219  0.4431 -0.3531
 4559TIP3    H235313   4.666   3.249   0.611 -0.9724  0.7315 -0.4770
 4560TIP3   OH235314   5.415   4.438   7.852 -0.0682  0.0042  0.0173
 4560TIP3    H135315   5.341   4.492   7.824  1.0432  1.5027 -0.1492
 4560TIP3    H235316   5.441   4.389   7.774 -2.1277 -2.1650  0.5625
 4561TIP3   OH235317   3.725   6.415   1.862  0.2587 -0.3743  0.0314
 4561TIP3    H135318   3.708   6.326   1.832 -1.1214  0.1807 -0.9373
 4561TIP3    H235319   3.638   6.454   1.872  0.7541  0.3653  2.0802
 4562TIP3   OH235320   0.299   3.091   6.868 -0.1235  0.8617  0.0301
 4562TIP3    H135321   0.347   3.115   6.789  0.6673  1.7534  0.7529
 4562TIP3    H235322   0.336   3.006   6.894  0.3605  1.0629  0.0153
 4563TIP3   OH235323   2.908   3.013   7.253 -0.0810 -0.4648 -1.0727
 4563TIP3    H135324   2.836   2.954   7.276  0.7836 -1.1706 -0.1252
 4563TIP3    H235325   2.868   3.101   7.257 -0.2694 -0.5548  2.3855
 4564TIP3   OH235326   3.644   2.798   7.223 -0.4916  0.0721 -0.1865
 4564TIP3    H135327   3.623   2.754   7.141 -0.0928  0.0923 -0.2982
 4564TIP3    H235328   3.575   2.865   7.232  0.4114  1.2231 -1.3682
 4565TIP3   OH235329   2.554   2.204   7.980 -0.1947  0.4410 -0.2380
 4565TIP3    H135330   2.464   2.237   7.979 -0.8270 -1.0598  1.3824
 4565TIP3    H235331   2.580   2.203   7.887 -1.4468  1.8765 -0.6452
 4566TIP3   OH235332   6.115   2.866   7.628  0.5813 -0.2066  0.0724
 4566TIP3    H135333   6.091   2.955   7.653  1.1455 -0.0587  0.0985
 4566TIP3    H235334   6.172   2.877   7.552  1.1081 -0.5143  0.4201
 4567TIP3   OH235335   2.410   5.437   1.754  0.2399  0.0494  0.1378
 4567TIP3    H135336   2.455   5.354   1.766  0.5540  0.4171  1.7859
 4567TIP3    H235337   2.476   5.495   1.716  0.0880 -0.3807 -0.7935
 4568TIP3   OH235338   6.180   2.744   8.056 -0.1616  0.0131 -0.4563
 4568TIP3    H135339   6.118   2.720   8.126  0.6296 -1.7665 -0.3088
 4568TIP3    H235340   6.140   2.710   7.976 -1.3379  2.5313 -1.0574
 4569TIP3   OH235341   2.875   1.385   2.047 -0.3239  0.2506 -0.9613
 4569TIP3    H135342   2.836   1.439   2.115  2.0998 -0.4138  1.1412
 4569TIP3    H235343   2.954   1.432   2.021 -0.8916  0.1886 -2.9404
 4570TIP3   OH235344   2.913   0.548   7.466 -0.0472 -0.6930 -0.1641
 4570TIP3    H135345   2.987   0.584   7.418  1.5613 -2.7755  0.6076
 4570TIP3    H235346   2.841   0.550   7.403  1.2213 -0.6577 -1.6831
 4571TIP3   OH235347   5.999   2.372   8.296  0.3524 -0.7421  0.7395
 4571TIP3    H135348   6.033   2.453   8.335  2.4317 -1.1346 -0.1351
 4571TIP3    H235349   6.077   2.317   8.283 -0.4341 -1.3165 -2.3124
 4572TIP3   OH235350   1.636   3.284   8.663  0.1655 -0.1390 -0.3131
 4572TIP3    H135351   1.671   3.344   8.598  0.3591 -0.5270 -0.5696
 4572TIP3    H235352   1.683   3.306   8.744 -0.7680  0.9967 -0.0562
 4573TIP3   OH235353   3.834   6.302   1.328  0.3044 -0.1433 -0.3309
 4573TIP3    H135354   3.832   6.365   1.255 -0.9776 -1.7232 -1.7330
 4573TIP3    H235355   3.857   6.219   1.287  2.2708 -0.6013  1.5397
 4574TIP3   OH235356   2.454   4.038   8.251 -0.2162  0.0307 -0.7380
 4574TIP3    H135357   2.400   4.038   8.330  0.7912 -0.4714 -0.0275
 4574TIP3    H235358   2.393   4.019   8.181 -1.0162 -0.2583  0.0143
 4575TIP3   OH235359   4.533   3.890   8.095 -0.4616 -0.4661  0.1504
 4575TIP3    H135360   4.623   3.881   8.063 -0.8262 -1.3912 -0.6526
 4575TIP3    H235361   4.489   3.810   8.066 -2.0760  0.8578 -1.2029
 4576TIP3   OH235362   1.513   0.637   8.010 -0.2912 -0.1076  0.2891
 4576TIP3    H135363   1.445   0.644   8.077  0.2826  3.5226  0.6976
 4576TIP3    H235364   1.489   0.703   7.945  1.4582 -0.5909 -0.9058
 4577TIP3   OH235365   6.464   4.010   6.784  0.4890  0.3160  0.0415
 4577TIP3    H135366   6.477   3.944   6.715  2.4497  0.8925 -0.1884
 4577TIP3    H235367   6.548   4.015   6.829 -0.5004  0.6021  1.9323
 4578TIP3   OH235368   5.170   2.352   0.403  0.6755 -0.1142 -0.2302
 4578TIP3    H135369   5.184   2.436   0.447 -0.0195 -1.5407  2.9447
 4578TIP3    H235370   5.078   2.353   0.378  0.5618 -0.1288  0.1957
 4579TIP3   OH235371   6.278   1.802   7.578 -0.1692 -0.1068 -0.5230
 4579TIP3    H135372   6.284   1.785   7.672  0.1088 -1.1371 -0.7106
 4579TIP3    H235373   6.309   1.721   7.537  0.6879  0.6927 -1.5109
 4580TIP3   OH235374   6.603   5.507   0.051  0.2864 -0.0179  0.1025
 4580TIP3    H135375   6.521   5.467   0.023  0.2081 -0.5514  1.0430
 4580TIP3    H235376   6.577   5.578   0.110  0.4945 -0.3088  0.5547
 4581TIP3   OH235377   1.981   0.716   2.486  0.0291  0.2856  0.3657
 4581TIP3    H135378   1.930   0.759   2.555 -0.3593 -1.0909  0.9837
 4581TIP3    H235379   2.023   0.642   2.531 -0.1060 -0.5505 -0.8477
 4582TIP3   OH235380   2.527   3.569   8.351 -0.3269 -0.0631  0.0439
 4582TIP3    H135381   2.490   3.515   8.421  0.5581 -0.4798  0.1995
 4582TIP3    H235382   2.524   3.513   8.274 -0.2310 -0.0197  0.0085
 4583TIP3   OH235383   0.146   4.392   8.000  0.0034 -0.2335  0.1791
 4583TIP3    H135384   0.079   4.461   8.000 -0.5617 -0.6951  2.5016
 4583TIP3    H235385   0.106   4.320   7.951 -0.5065  0.1297  0.0525
 4584TIP3   OH235386   1.578   1.175   8.624  0.2080  0.2475  0.1683
 4584TIP3    H135387   1.665   1.155   8.659  1.2899 -0.8547 -2.8583
 4584TIP3    H235388   1.590   1.255   8.573 -0.5283 -0.0120 -0.4246
 4585TIP3   OH235389   4.377   0.060   8.309  0.1432  0.8484 -0.7008
 4585TIP3    H135390   4.295   0.049   8.260  0.6007  1.9152 -1.7410
 4585TIP3    H235391   4.444   0.021   8.253  0.6807  2.1245 -0.9885
 4586TIP3   OH235392   2.668   4.383   8.393  0.2714 -0.1111  0.8850
 4586TIP3    H135393   2.705   4.453   8.447  2.7591 -0.8405  0.2885
 4586TIP3    H235394   2.590   4.355   8.439 -0.4267  2.5472  1.5186
 4587TIP3   OH235395   5.913   2.907   6.950  0.7658  0.4237  0.0260
 4587TIP3    H135396   6.009   2.907   6.951  0.7634  0.0039  0.8531
 4587TIP3    H235397   5.889   2.984   7.002  0.6589 -0.3016  1.0738
 4588TIP3   OH235398   2.201   5.981   1.620  0.0772  0.4929 -0.2395
 4588TIP3    H135399   2.256   5.969   1.543 -2.7198  4.3288 -3.2603
 4588TIP3    H235400   2.263   5.990   1.693  3.1325  0.2477 -2.6206
 4589TIP3   OH235401   3.431   6.000   1.679 -0.0201  0.0209 -0.5416
 4589TIP3    H135402   3.442   6.043   1.595  0.3333 -0.3102 -0.6645
 4589TIP3    H235403   3.492   6.045   1.738 -1.2027  1.1511 -0.1111
 4590TIP3   OH235404   1.541   5.797   0.907 -0.2992 -0.9010 -0.2659
 4590TIP3    H135405   1.574   5.885   0.890  0.1251 -1.0750 -0.3345
 4590TIP3    H235406   1.453   5.811   0.944 -0.6200 -0.4738 -1.1568
 4591TIP3   OH235407   6.368   1.548   1.709 -0.7095  0.0926  0.0539
 4591TIP3    H135408   6.398   1.473   1.658  0.0872 -0.7663  1.6891
 4591TIP3    H235409   6.279   1.524   1.737 -0.2848 -0.4961  0.9651
 4592TIP3   OH235410   1.023   4.875   0.397  0.1891  0.5831  0.4142
 4592TIP3    H135411   1.032   4.857   0.304 -0.4770 -0.2872  0.5082
 4592TIP3    H235412   1.032   4.970   0.404  1.1216  0.5761 -0.4173
 4593TIP3   OH235413   5.970   0.208   7.275 -0.9731  0.8171  0.2390
 4593TIP3    H135414   6.011   0.202   7.189 -0.1197  0.6856  0.6438
 4593TIP3    H235415   5.895   0.266   7.262 -1.9842 -0.6876 -0.9967
 4594TIP3   OH235416   4.006   2.308   1.305  0.2370  0.4007  0.1308
 4594TIP3    H135417   3.927   2.310   1.358 -0.2582 -1.2075 -0.4998
 4594TIP3    H235418   4.075   2.338   1.364 -0.4921 -0.1810  1.3142
 4595TIP3   OH235419   4.990   0.076   2.322 -0.1353 -0.6617 -0.2523
 4595TIP3    H135420   4.896   0.090   2.329 -0.2879 -1.8106  0.0976
 4595TIP3    H235421   5.015   0.031   2.402  0.8637  0.2941  0.0132
 4596TIP3   OH235422   1.398   4.315   8.183 -0.4998  0.2041 -0.0939
 4596TIP3    H135423   1.343   4.240   8.159 -0.3213  0.7243 -2.3065
 4596TIP3    H235424   1.447   4.285   8.260 -1.7271 -1.2957  0.1590
 4597TIP3   OH235425   6.581   2.340   2.371 -0.5060  0.1221 -0.3471
 4597TIP3    H135426   6.502   2.392   2.357 -1.1459 -0.5746  0.5756
 4597TIP3    H235427   6.563   2.289   2.450 -0.0368 -1.7705 -1.4003
 4598TIP3   OH235428   1.886   0.316   0.876 -0.3447 -0.1554  0.1653
 4598TIP3    H135429   1.970   0.357   0.894  0.5858 -1.8953 -0.0053
 4598TIP3    H235430   1.874   0.253   0.947 -0.6400 -1.1652 -0.7499
 4599TIP3   OH235431   2.890   1.529   2.460  0.2271 -0.2599 -0.4435
 4599TIP3    H135432   2.985   1.522   2.471  0.0972  0.0442  0.9844
 4599TIP3    H235433   2.853   1.476   2.531 -0.6713  0.4034 -0.3988
 4600TIP3   OH235434   5.885   6.477   0.686  0.4249 -0.3956  0.3103
 4600TIP3    H135435   5.795   6.474   0.717  0.2821  0.1308 -0.0412
 4600TIP3    H235436   5.905   6.570   0.679  0.7210 -0.5073 -0.4148
 4601TIP3   OH235437   4.045   1.545   8.079  0.6425 -0.4957 -0.4147
 4601TIP3    H135438   4.055   1.461   8.124  3.2894  0.9538  2.1053
 4601TIP3    H235439   4.135   1.573   8.062 -0.0849  2.3965  0.0780
 4602TIP3   OH235440   1.295   5.588   1.073  0.1931  0.0915  0.3434
 4602TIP3    H135441   1.273   5.659   1.133  1.2121  1.7347 -1.1290
 4602TIP3    H235442   1.212   5.548   1.050 -0.7047  2.3762 -0.6299
 4603TIP3   OH235443   6.342   2.480   2.351  0.1973 -0.2530  1.0001
 4603TIP3    H135444   6.294   2.454   2.430  0.4278 -0.8354  0.9485
 4603TIP3    H235445   6.277   2.527   2.298  0.3474  1.2689  2.0805
 4604TIP3   OH235446   1.509   6.454   0.675 -0.0904 -0.4350 -0.4278
 4604TIP3    H135447   1.532   6.458   0.768  0.9318 -0.7736 -0.6471
 4604TIP3    H235448   1.502   6.360   0.656  0.7970 -0.4194 -0.9247
 4605TIP3   OH235449   4.688   3.677   0.121 -0.5128  0.0274 -0.4588
 4605TIP3    H135450   4.649   3.764   0.127 -1.7154 -0.5549  1.0828
 4605TIP3    H235451   4.697   3.649   0.212 -1.0966 -1.8337 -0.9216
 4606TIP3   OH235452   0.373   6.093   1.433  0.2085  0.6304  0.5505
 4606TIP3    H135453   0.307   6.068   1.369  0.3578  1.1451  0.1920
 4606TIP3    H235454   0.369   6.024   1.499 -0.9731  0.8696  0.7492
 4607TIP3   OH235455   4.136   0.776   8.541  0.3774 -0.2131  0.0250
 4607TIP3    H135456   4.138   0.686   8.509 -0.1220 -0.8227  1.6478
 4607TIP3    H235457   4.176   0.827   8.470  0.7184 -1.7048 -0.8967
 4608TIP3   OH235458   1.640   3.795   8.163  0.4166  0.5447  0.2968
 4608TIP3    H135459   1.602   3.714   8.129  0.2011  1.1518 -0.9866
 4608TIP3    H235460   1.723   3.804   8.117  1.2482  0.2017  1.6834
 4609TIP3   OH235461   3.304   5.753   7.103 -0.3949  0.2891  0.0838
 4609TIP3    H135462   3.233   5.700   7.139 -0.6978  0.1867 -0.6581
 4609TIP3    H235463   3.267   5.794   7.025  0.2050  0.6398 -0.0281
 4610TIP3   OH235464   3.356   6.720   1.545 -0.3146 -0.4326 -0.2039
 4610TIP3    H135465   3.303   6.792   1.511 -0.2639 -0.3261 -0.0563
 4610TIP3    H235466   3.364   6.738   1.639  1.5276  0.5411 -0.5141
 4611TIP3   OH235467   0.276   0.878   8.401 -0.4920 -0.0768 -0.0737
 4611TIP3    H135468   0.339   0.938   8.440 -0.4102 -0.4424  0.3639
 4611TIP3    H235469   0.329   0.811   8.358 -0.5819 -0.6060  0.6405
 4612TIP3   OH235470   3.574   3.770   1.194 -0.2305  0.2960 -0.0948
 4612TIP3    H135471   3.510   3.823   1.148  1.2620  0.9628 -1.5356
 4612TIP3    H235472   3.582   3.691   1.141  0.5818  0.5008 -0.2922
 4613TIP3   OH235473   0.420   4.056   7.539 -0.5418 -0.1989  0.5010
 4613TIP3    H135474   0.377   4.057   7.624 -0.0715  0.3513  0.7382
 4613TIP3    H235475   0.349   4.069   7.476 -1.0336 -1.6005  0.7257
 4614TIP3   OH235476   4.795   3.592   8.681 -0.1067 -0.5702  0.0665
 4614TIP3    H135477   4.883   3.553   8.682  0.6721  1.0456 -0.7601
 4614TIP3    H235478   4.778   3.615   8.772  0.8697  0.1976  0.0752
 4615TIP3   OH235479   1.045   3.909   0.557  0.2734 -0.0334 -0.3353
 4615TIP3    H135480   1.032   4.002   0.578 -2.9571 -0.4461  0.1098
 4615TIP3    H235481   1.045   3.866   0.643 -0.6153 -0.6070 -0.6081
 4616TIP3   OH235482   5.679   2.256   8.330  0.2132 -0.4658 -0.0236
 4616TIP3    H135483   5.664   2.279   8.421 -0.6663  0.4551 -0.3816
 4616TIP3    H235484   5.760   2.302   8.306  0.7773 -1.1939  0.4447
 4617TIP3   OH235485   2.179   6.365   0.795 -0.0937  0.1682 -0.2752
 4617TIP3    H135486   2.252   6.313   0.828 -0.7094 -0.8407 -0.4605
 4617TIP3    H235487   2.160   6.328   0.709 -0.5683  0.6735 -0.3892
 4618TIP3   OH235488   3.659   2.342   5.790 -0.0210  0.8514 -0.6409
 4618TIP3    H135489   3.703   2.279   5.846 -0.9344 -1.0436 -1.9411
 4618TIP3    H235490   3.689   2.427   5.820  1.1149 -0.1892  1.3117
 4619TIP3   OH235491   4.007   3.424   7.207  0.0584  0.3566 -0.0262
 4619TIP3    H135492   3.946   3.367   7.253  1.1208  1.0125  2.3663
 4619TIP3    H235493   4.036   3.372   7.132 -0.2760 -1.5972  1.1167
 4620TIP3   OH235494   0.661   2.864   1.378 -0.3130 -0.0957  0.4522
 4620TIP3    H135495   0.610   2.787   1.354  0.8267 -0.1835 -2.0130
 4620TIP3    H235496   0.595   2.932   1.395 -1.2959 -1.2297  1.3048
 4621TIP3   OH235497   5.686   3.453   1.934  0.0985  0.5748  0.2359
 4621TIP3    H135498   5.606   3.399   1.935  0.3119  0.2406 -0.1856
 4621TIP3    H235499   5.752   3.400   1.978 -0.2038  1.3422  1.6610
 4622TIP3   OH235500   6.494   2.982   1.184 -0.3322 -0.1998  0.4545
 4622TIP3    H135501   6.583   3.004   1.158 -0.2772 -1.5991 -0.6448
 4622TIP3    H235502   6.502   2.954   1.275  0.8227 -2.7031 -0.3340
 4623TIP3   OH235503   3.314   1.022   1.271  0.2358  0.5693  0.1637
 4623TIP3    H135504   3.311   0.935   1.311  0.3421 -1.3199 -3.5864
 4623TIP3    H235505   3.263   1.077   1.331  2.1498 -1.3826  3.9507
 4624TIP3   OH235506   5.116   5.739   2.391  0.1402 -0.4278  0.2355
 4624TIP3    H135507   5.025   5.748   2.363  0.6523 -0.2350 -1.4888
 4624TIP3    H235508   5.126   5.803   2.461 -0.0977  2.4121 -2.1270
 4625TIP3   OH235509   6.218   3.895   8.354  0.0331  0.3110 -0.0632
 4625TIP3    H135510   6.140   3.949   8.343 -0.9235 -0.8525  0.7628
 4625TIP3    H235511   6.241   3.868   8.265 -1.1095 -0.1332 -0.2377
 4626TIP3   OH235512   6.579   0.134   8.233 -0.1059  0.2832 -0.0400
 4626TIP3    H135513   6.541   0.220   8.251 -1.1680  0.0083 -0.8712
 4626TIP3    H235514   6.504   0.075   8.230  0.5601 -0.5869 -0.0350
 4627TIP3   OH235515   2.554   4.497   0.660  0.4007 -0.3094 -0.3981
 4627TIP3    H135516   2.496   4.446   0.717 -0.1793  0.7646 -0.0115
 4627TIP3    H235517   2.529   4.588   0.674  1.7983  0.1455 -0.6488
 4628TIP3   OH235518   2.318   2.425   6.656  0.1397  0.2210  0.6504
 4628TIP3    H135519   2.265   2.453   6.581  1.0842  1.3182  0.3477
 4628TIP3    H235520   2.278   2.344   6.686 -1.0941  0.5028 -0.1789
 4629TIP3   OH235521   0.474   6.103   7.905 -0.6304 -0.2308  0.4764
 4629TIP3    H135522   0.536   6.092   7.833  0.8526 -1.2041  1.8154
 4629TIP3    H235523   0.461   6.197   7.912  0.5198 -0.0208 -0.0132
 4630TIP3   OH235524   1.291   4.525   7.312  0.1192 -0.2161 -0.0481
 4630TIP3    H135525   1.246   4.452   7.269 -0.6480 -0.4233  1.0791
 4630TIP3    H235526   1.310   4.586   7.241 -0.4991 -0.8695 -0.7936
 4631TIP3   OH235527   4.201   0.389   0.815  0.0004 -0.4529 -0.3601
 4631TIP3    H135528   4.177   0.432   0.897 -0.0573 -1.5485  0.2110
 4631TIP3    H235529   4.291   0.359   0.829 -0.3471 -1.5204 -0.3129
 4632TIP3   OH235530   0.603   5.673   8.563 -0.6718 -0.1293  0.1714
 4632TIP3    H135531   0.546   5.748   8.582  1.1350  0.9708  1.5427
 4632TIP3    H235532   0.646   5.696   8.481 -1.7446 -0.7014 -0.5657
 4633TIP3   OH235533   1.412   0.877   8.660 -0.3682  0.1690  0.1047
 4633TIP3    H135534   1.386   0.845   8.747  0.5879 -0.3355  0.2206
 4633TIP3    H235535   1.355   0.830   8.599  0.7514 -1.5205  0.2934
 4634TIP3   OH235536   4.966   5.909   0.690  0.0089 -0.3877  0.4458
 4634TIP3    H135537   4.998   5.988   0.734  0.3348  0.1453 -0.7236
 4634TIP3    H235538   4.882   5.935   0.653  1.0356  0.0835 -1.7082
 4635TIP3   OH235539   0.722   6.630   7.475 -0.2240  0.1899 -0.0599
 4635TIP3    H135540   0.758   6.558   7.423 -0.1325  0.5775 -0.5451
 4635TIP3    H235541   0.768   6.708   7.443 -2.0211  0.8333 -1.2632
 4636TIP3   OH235542   6.817   4.830   1.939  0.1624  0.1332  0.0601
 4636TIP3    H135543   6.771   4.910   1.963 -2.0570 -0.8086 -0.7497
 4636TIP3    H235544   6.822   4.832   1.843 -0.5812 -1.0002 -0.0233
 4637TIP3   OH235545   1.701   0.497   8.695  0.2627  0.6562  0.2263
 4637TIP3    H135546   1.783   0.547   8.692 -0.5926  2.1468  0.5311
 4637TIP3    H235547   1.728   0.409   8.720  1.8931  0.7949 -0.8677
 4638TIP3   OH235548   3.766   2.173   0.223  0.0123 -0.7965  0.1764
 4638TIP3    H135549   3.837   2.186   0.286 -0.5898  2.5645  0.3267
 4638TIP3    H235550   3.688   2.204   0.268 -0.5335  1.1485 -1.9165
 4639TIP3   OH235551   5.623   1.537   0.106  0.0226 -0.1238  0.2144
 4639TIP3    H135552   5.696   1.493   0.148  1.1062  1.5454  0.1676
 4639TIP3    H235553   5.651   1.628   0.097 -1.0018  0.0413 -2.2044
 4640TIP3   OH235554   4.019   6.711   0.389 -0.4777  0.4221 -0.3442
 4640TIP3    H135555   4.055   6.795   0.359 -0.8086  0.6114 -0.2293
 4640TIP3    H235556   3.996   6.726   0.480  0.5005 -0.1481  0.0045
 4641TIP3   OH235557   5.497   3.059   7.186  1.0229  0.6140  0.6235
 4641TIP3    H135558   5.546   2.998   7.240  0.1440 -0.0323  0.7266
 4641TIP3    H235559   5.407   3.052   7.217  0.1616 -0.9807 -1.9123
 4642TIP3   OH235560   1.971   1.826   1.369  0.2674  0.4253  0.2354
 4642TIP3    H135561   1.925   1.907   1.348 -0.3156 -0.3315 -1.5329
 4642TIP3    H235562   1.905   1.758   1.363  0.8722 -0.2686  1.1467
 4643TIP3   OH235563   6.272   3.985   7.669 -0.1943 -0.1391 -0.5166
 4643TIP3    H135564   6.361   4.005   7.640  0.5119 -0.9173  0.9575
 4643TIP3    H235565   6.247   4.060   7.723  0.2040 -0.5842  0.3202
 4644TIP3   OH235566   3.496   2.776   7.910 -0.2264 -0.5191  0.4978
 4644TIP3    H135567   3.561   2.706   7.904  1.0616  0.5476  1.4003
 4644TIP3    H235568   3.431   2.743   7.972 -1.8569 -2.5201 -2.0651
 4645TIP3   OH235569   5.643   3.915   0.274  0.2532  0.3659  0.1730
 4645TIP3    H135570   5.724   3.916   0.224 -0.2200  0.2952 -0.6142
 4645TIP3    H235571   5.668   3.942   0.363  1.0819  0.5983 -0.1307
 4646TIP3   OH235572   4.913   2.888   1.133  0.3327 -0.6785 -0.7671
 4646TIP3    H135573   4.875   2.873   1.220 -0.6577  1.1563 -0.8553
 4646TIP3    H235574   4.971   2.963   1.145  0.4901 -0.6582 -1.6151
 4647TIP3   OH235575   6.464   6.159   0.163  0.2851 -0.4338 -0.6894
 4647TIP3    H135576   6.378   6.145   0.203 -1.0200 -0.7052 -3.3097
 4647TIP3    H235577   6.505   6.073   0.164  1.5842  0.0855  2.5309
 4648TIP3   OH235578   4.773   5.147   0.685 -0.4559 -0.5194  0.2422
 4648TIP3    H135579   4.832   5.076   0.657 -0.5429  0.2253 -1.9922
 4648TIP3    H235580   4.763   5.202   0.608 -0.5514  1.8630  1.8407
 4649TIP3   OH235581   2.291   6.607   8.081  0.0388  0.8210  0.9398
 4649TIP3    H135582   2.226   6.669   8.112 -1.0701  0.6622 -0.8825
 4649TIP3    H235583   2.241   6.526   8.064  0.6589  0.7070 -0.5212
 4650TIP3   OH235584   5.947   2.284   8.600  0.4209  0.4642 -0.9017
 4650TIP3    H135585   6.029   2.333   8.608  1.6879 -1.6869  0.5397
 4650TIP3    H235586   5.954   2.239   8.516  2.8279 -2.9608  0.8861
 4651TIP3   OH235587   6.598   0.959   1.035  0.0917  0.4001  0.5794
 4651TIP3    H135588   6.587   0.968   1.130  1.6314  2.0494  0.6544
 4651TIP3    H235589   6.660   0.886   1.025 -0.9568 -0.5453  0.7478
 4652TIP3   OH235590   0.356   1.631   1.916 -0.5385  0.0923  0.2948
 4652TIP3    H135591   0.299   1.619   1.992 -1.0143 -1.0467 -0.2142
 4652TIP3    H235592   0.320   1.708   1.870 -2.3475 -1.1887 -0.5665
 4653TIP3   OH235593   3.846   5.492   1.654  0.2062  0.0503  0.2309
 4653TIP3    H135594   3.895   5.558   1.702 -1.9766  2.7552 -0.9812
 4653TIP3    H235595   3.817   5.430   1.721 -0.6823  2.3368  2.1224
 4654TIP3   OH235596   4.360   3.177   7.636 -0.4536 -0.7506  0.3453
 4654TIP3    H135597   4.273   3.211   7.660 -0.3579  0.7939 -1.3369
 4654TIP3    H235598   4.421   3.241   7.673 -0.0988 -0.9868  0.1659
 4655TIP3   OH235599   0.393   1.144   8.112  0.0564 -0.3694 -0.2079
 4655TIP3    H135600   0.312   1.121   8.156 -0.2772 -0.6842 -0.9771
 4655TIP3    H235601   0.453   1.071   8.131 -0.4074 -1.0054 -1.0862
 4656TIP3   OH235602   6.767   4.602   7.457  0.0636 -0.3784  0.0844
 4656TIP3    H135603   6.775   4.593   7.362 -0.0136 -0.3149  0.0719
 4656TIP3    H235604   6.676   4.583   7.476  0.1017 -0.4867  0.1572
 4657TIP3   OH235605   3.243   4.191   8.626  0.4708 -0.1133 -0.0825
 4657TIP3    H135606   3.261   4.211   8.534  0.1676 -0.2823 -0.1793
 4657TIP3    H235607   3.329   4.188   8.667  0.6762 -0.9612 -0.5514
 4658TIP3   OH235608   0.447   2.260   1.351  0.2599 -0.2856 -0.0420
 4658TIP3    H135609   0.537   2.254   1.384  0.6352  1.5081 -0.6083
 4658TIP3    H235610   0.395   2.207   1.411  1.5334 -0.4597  0.9418
 4659TIP3   OH235611   2.868   1.845   0.696 -0.1228  0.1863  0.2289
 4659TIP3    H135612   2.903   1.817   0.781 -0.2906 -2.4249 -0.4962
 4659TIP3    H235613   2.940   1.894   0.656  2.2800 -3.5617 -0.4904
 4660TIP3   OH235614   4.298   3.094   8.216  0.0827 -0.3532 -0.0658
 4660TIP3    H135615   4.211   3.055   8.224 -0.0370  0.0845  0.7645
 4660TIP3    H235616   4.282   3.188   8.209  0.3417 -0.4243 -2.5197
 4661TIP3   OH235617   2.029   3.620   8.066 -0.3599 -0.1763 -0.6739
 4661TIP3    H135618   1.973   3.586   8.135  0.4921  0.6232  0.4495
 4661TIP3    H235619   2.118   3.604   8.096  0.0370  0.8000 -1.2485
 4662TIP3   OH235620   6.380   3.007   2.075  0.3604  0.0212  0.0276
 4662TIP3    H135621   6.319   2.979   2.142 -0.7536  0.1939 -0.8811
 4662TIP3    H235622   6.368   3.102   2.069 -0.0100 -0.0688 -0.8360
 4663TIP3   OH235623   4.198   2.508   7.256  0.0861 -0.3255  0.4593
 4663TIP3    H135624   4.274   2.567   7.259  0.0799 -0.3368  0.9089
 4663TIP3    H235625   4.223   2.441   7.192  0.0983  0.1546 -0.0462
 4664TIP3   OH235626   0.356   6.494   8.345  0.4733  0.1682  0.0870
 4664TIP3    H135627   0.444   6.531   8.348  0.1790  0.9076 -0.1186
 4664TIP3    H235628   0.339   6.478   8.252  0.4496 -0.1176  0.1392
 4665TIP3   OH235629   2.988   3.436   8.020 -0.3707 -0.0594  0.3162
 4665TIP3    H135630   2.994   3.347   8.055  1.4794  0.1046  0.5015
 4665TIP3    H235631   2.940   3.485   8.087  0.1456 -0.5323  1.0463
 4666TIP3   OH235632   3.037   5.259   8.189  0.0359  0.4137 -0.2550
 4666TIP3    H135633   3.089   5.335   8.162 -1.3753  1.5479  0.0528
 4666TIP3    H235634   2.947   5.292   8.190 -0.3010 -0.2923  3.1865
 4667TIP3   OH235635   5.817   5.559   8.367 -0.8099 -0.2742 -0.0382
 4667TIP3    H135636   5.755   5.612   8.418 -0.0139  2.5931 -1.7867
 4667TIP3    H235637   5.763   5.505   8.310 -1.6794 -0.5715  1.0498
 4668TIP3   OH235638   2.014   6.774   1.373  0.3819 -0.0522  1.0244
 4668TIP3    H135639   1.984   6.865   1.375  1.9657  0.4895  1.8074
 4668TIP3    H235640   2.078   6.772   1.302 -3.1892 -1.8607 -2.5967
 4669TIP3   OH235641   1.231   2.002   1.583 -0.5246  0.4557  0.3214
 4669TIP3    H135642   1.254   2.054   1.506  1.1264  0.7056  0.9489
 4669TIP3    H235643   1.148   2.038   1.613 -2.6400 -1.3470 -2.8391
 4670TIP3   OH235644   0.619   5.919   1.710 -0.2194  0.6689 -0.0772
 4670TIP3    H135645   0.703   5.946   1.673 -0.6892  1.2282 -0.7566
 4670TIP3    H235646   0.608   5.975   1.787 -0.3829  1.2441 -0.5050
 4671TIP3   OH235647   6.075   6.379   0.313  0.2611 -0.6061  0.0780
 4671TIP3    H135648   6.001   6.430   0.281  0.6941  0.8309  1.2716
 4671TIP3    H235649   6.072   6.298   0.261 -2.9743 -1.2670  1.0260
 4672TIP3   OH235650   0.996   1.946   6.760  0.3017 -0.1312  0.0768
 4672TIP3    H135651   1.048   2.012   6.714  2.0808 -1.4229  0.0892
 4672TIP3    H235652   1.001   1.869   6.703  1.1738 -1.2588  1.6010
 4673TIP3   OH235653   4.404   4.215   8.636  0.5861 -0.4275 -0.0489
 4673TIP3    H135654   4.341   4.177   8.575  0.0811 -1.4806  1.0880
 4673TIP3    H235655   4.489   4.201   8.595  0.1915 -0.2434 -0.9454
 4674TIP3   OH235656   1.647   1.930   6.709  0.6252 -0.0809 -0.3250
 4674TIP3    H135657   1.578   1.916   6.644 -1.4313 -2.8955  2.1215
 4674TIP3    H235658   1.726   1.893   6.669 -0.0025  0.4052 -2.0751
 4675TIP3   OH235659   5.599   5.880   2.448  0.0949  0.1210  0.0878
 4675TIP3    H135660   5.534   5.836   2.394  1.5651 -0.0330 -1.6672
 4675TIP3    H235661   5.623   5.958   2.398  0.3599  0.8306  1.2885
 4676TIP3   OH235662   3.654   3.004   7.822 -0.3689  0.2268  0.0967
 4676TIP3    H135663   3.606   2.922   7.825 -0.7001  0.4168  0.0119
 4676TIP3    H235664   3.743   2.981   7.848 -0.6937  0.0127  1.0308
 4677TIP3   OH235665   6.731   1.223   8.398 -0.2039 -0.2612  0.0745
 4677TIP3    H135666   6.804   1.242   8.340 -0.6772 -0.5834 -0.6413
 4677TIP3    H235667   6.727   1.128   8.402  0.0134 -0.2489  0.8968
 4678TIP3   OH235668   5.934   5.669   1.654 -0.1987 -0.3872  0.4458
 4678TIP3    H135669   5.991   5.702   1.724  0.7078 -1.0198  0.0200
 4678TIP3    H235670   5.845   5.680   1.689  0.2520 -1.2640  1.9517
 4679TIP3   OH235671   0.246   5.866   7.651  0.5405  0.5958 -0.2499
 4679TIP3    H135672   0.158   5.891   7.621 -0.1241 -1.6848 -0.4154
 4679TIP3    H235673   0.298   5.946   7.643 -1.4388  1.9367 -0.4367
 4680TIP3   OH235674   2.845   5.668   2.428 -0.0442  0.1887  0.1766
 4680TIP3    H135675   2.767   5.704   2.470  0.3747  0.3676  0.8126
 4680TIP3    H235676   2.832   5.573   2.431 -0.3212  0.2229  0.1111
 4681TIP3   OH235677   0.821   3.421   8.648  0.0902  0.1644  0.4048
 4681TIP3    H135678   0.728   3.401   8.662 -0.0228  1.3937  1.6864
 4681TIP3    H235679   0.864   3.388   8.727  0.5326  0.8343  0.4478
 4682TIP3   OH235680   1.384   6.103   1.154  0.0469 -0.3301 -0.0136
 4682TIP3    H135681   1.458   6.134   1.207 -0.3779  1.5882 -0.4725
 4682TIP3    H235682   1.307   6.122   1.206 -0.3016  0.5617 -0.8203
 4683TIP3   OH235683   4.910   5.090   0.144  0.7837 -0.4556 -0.7685
 4683TIP3    H135684   4.973   5.144   0.193 -1.1449  1.0285  0.2434
 4683TIP3    H235685   4.854   5.052   0.212 -0.3191 -0.5266 -1.6875
 4684TIP3   OH235686   4.702   1.723   0.703  0.2029 -0.3062  0.0076
 4684TIP3    H135687   4.637   1.661   0.736  1.4013 -0.8231  1.5359
 4684TIP3    H235688   4.685   1.804   0.750 -1.3919  0.6536 -2.0229
 4685TIP3   OH235689   6.346   1.061   7.467  0.7406  0.1106  0.1231
 4685TIP3    H135690   6.390   1.003   7.405  0.7213 -0.0994  0.3078
 4685TIP3    H235691   6.286   1.004   7.515  0.1102  0.4227 -0.2674
 4686TIP3   OH235692   2.142   4.117   1.391 -0.0272 -0.6985 -0.5771
 4686TIP3    H135693   2.073   4.136   1.455  0.5749  1.8028 -0.5781
 4686TIP3    H235694   2.223   4.143   1.434  0.4280  0.7450 -2.1943
 4687TIP3   OH235695   1.667   5.601   7.007 -0.0625  0.6633  0.7638
 4687TIP3    H135696   1.675   5.658   6.931  0.3305  1.8641  1.6855
 4687TIP3    H235697   1.756   5.568   7.023 -0.0511  0.8071  1.0021
 4688TIP3   OH235698   1.274   2.527   0.473 -0.2456 -0.2711  0.1339
 4688TIP3    H135699   1.232   2.458   0.421 -2.3915  2.4010 -2.0330
 4688TIP3    H235700   1.275   2.493   0.562 -1.4046 -2.9706 -0.7610
 4689TIP3   OH235701   2.914   2.868   8.085  0.4652  0.3906 -0.1288
 4689TIP3    H135702   2.921   2.853   7.991  1.9743 -0.4454  0.0920
 4689TIP3    H235703   2.999   2.902   8.111  0.8769 -1.5103  1.2685
 4690TIP3   OH235704   5.280   5.703   0.090 -0.0716 -0.8504 -0.2889
 4690TIP3    H135705   5.344   5.662   0.031 -1.3203  0.0645 -2.3989
 4690TIP3    H235706   5.283   5.796   0.066 -0.8385 -0.4933  0.9252
 4691TIP3   OH235707   2.391   6.169   0.850 -0.4236 -0.0031  0.5618
 4691TIP3    H135708   2.391   6.081   0.811 -0.6194  0.4135 -0.4182
 4691TIP3    H235709   2.477   6.205   0.830  0.0121 -0.3184  1.8087
 4692TIP3   OH235710   0.807   3.675   0.669  0.3371 -0.1917 -0.4962
 4692TIP3    H135711   0.721   3.698   0.702  0.2850 -0.4436 -0.4530
 4692TIP3    H235712   0.867   3.735   0.713  0.4155 -1.3039  1.0027
 4693TIP3   OH235713   4.109   1.578   0.459 -0.4703 -0.1527  0.2511
 4693TIP3    H135714   4.074   1.566   0.548 -0.7157  0.3791  0.2285
 4693TIP3    H235715   4.082   1.666   0.434  0.8073  0.2396  0.1862
 4694TIP3   OH235716   1.382   4.665   1.606  0.3017 -0.2210 -0.5207
 4694TIP3    H135717   1.407   4.753   1.578 -2.0456  0.2144 -1.4876
 4694TIP3    H235718   1.426   4.653   1.690  0.1755  2.1393 -0.0538
 4695TIP3   OH235719   6.529   3.245   7.563 -0.2316  0.4833  0.2063
 4695TIP3    H135720   6.468   3.245   7.637  0.5882  0.6064  0.8961
 4695TIP3    H235721   6.516   3.160   7.520  0.4158 -0.2728  1.4524
 4696TIP3   OH235722   1.574   6.289   8.540 -0.1355 -0.1731 -1.1234
 4696TIP3    H135723   1.541   6.250   8.621 -1.7506 -1.5629 -2.3765
 4696TIP3    H235724   1.608   6.375   8.567  0.8620 -1.2211  1.2601
 4697TIP3   OH235725   4.475   0.790   1.497 -0.0567 -0.3376  0.3770
 4697TIP3    H135726   4.553   0.734   1.494 -0.3578 -0.9572  2.4404
 4697TIP3    H235727   4.492   0.859   1.433  1.5891 -1.2020 -0.1684
 4698TIP3   OH235728   4.536   3.987   7.527  0.1672  0.5899  0.7313
 4698TIP3    H135729   4.499   3.945   7.450  0.2691  5.5098 -2.4672
 4698TIP3    H235730   4.630   3.976   7.517  0.1633  0.8969  0.3171
 4699TIP3   OH235731   6.217   4.238   0.764 -0.6623  0.3334  0.1092
 4699TIP3    H135732   6.227   4.265   0.672 -0.5749  0.2374  0.0899
 4699TIP3    H235733   6.144   4.177   0.763 -0.3212 -0.0811  0.0152
 4700TIP3   OH235734   2.625   1.794   2.050  0.5945 -0.5049  0.2341
 4700TIP3    H135735   2.638   1.888   2.039 -0.8922  0.0261  2.5153
 4700TIP3    H235736   2.537   1.785   2.087  0.5771 -2.8340 -0.1968
 4701TIP3   OH235737   2.378   0.785   0.274  0.3131  0.2697  0.1737
 4701TIP3    H135738   2.325   0.830   0.209  0.8926 -1.9412 -1.9817
 4701TIP3    H235739   2.376   0.843   0.351 -2.3132  1.8830 -0.9641
 4702TIP3   OH235740   0.500   0.140   7.594 -0.1555  0.3997  0.8344
 4702TIP3    H135741   0.536   0.103   7.675  3.0268  1.0951 -0.1320
 4702TIP3    H235742   0.549   0.220   7.580  0.1665 -0.2306 -2.3316
 4703TIP3   OH235743   4.233   3.373   8.081  0.3294  0.5876 -0.7731
 4703TIP3    H135744   4.207   3.332   7.999 -0.1800  0.2220 -0.4384
 4703TIP3    H235745   4.210   3.465   8.071  0.3431  0.5581 -1.0699
 4704TIP3   OH235746   6.347   0.600   0.503 -0.1877  0.1447  0.2594
 4704TIP3    H135747   6.333   0.580   0.410 -1.9418 -0.4326  0.6074
 4704TIP3    H235748   6.433   0.562   0.523  1.0397  1.8118 -1.5018
 4705TIP3   OH235749   4.627   3.533   7.469 -0.4356  0.0460  0.2662
 4705TIP3    H135750   4.710   3.563   7.507 -0.4857 -0.9824  1.2448
 4705TIP3    H235751   4.562   3.596   7.500 -0.2198  0.1265  0.5599
 4706TIP3   OH235752   1.065   4.457   1.055  0.3637  0.0406  0.0414
 4706TIP3    H135753   1.080   4.451   1.150  1.0638  1.6736  0.0669
 4706TIP3    H235754   1.127   4.394   1.018 -0.4954 -1.2340  0.6707
 4707TIP3   OH235755   4.889   2.540   7.708 -0.2897  0.2181 -0.3224
 4707TIP3    H135756   4.827   2.541   7.634  1.1524  1.2728 -1.5815
 4707TIP3    H235757   4.936   2.457   7.697 -0.2446  0.2582 -0.4360
 4708TIP3   OH235758   5.465   6.114   1.573  0.5892 -0.3051 -0.1932
 4708TIP3    H135759   5.518   6.039   1.544  1.9216 -0.3131  2.0550
 4708TIP3    H235760   5.526   6.169   1.622 -0.9355  0.9902  0.3194
 4709TIP3   OH235761   6.696   6.070   8.343  0.5788 -0.0283  0.3915
 4709TIP3    H135762   6.658   6.151   8.378  0.3200 -0.1379  0.3708
 4709TIP3    H235763   6.718   6.018   8.420 -1.0290 -0.7476  0.4103
 4710TIP3   OH235764   2.237   5.049   2.129  0.5216 -0.5412  0.1717
 4710TIP3    H135765   2.267   5.137   2.150  0.2762 -0.7662  1.5838
 4710TIP3    H235766   2.303   4.992   2.170  0.9978 -1.0205 -1.2278
 4711TIP3   OH235767   2.297   6.479   8.539  0.2706  0.2914  0.3523
 4711TIP3    H135768   2.227   6.423   8.504  0.5034  0.6955 -0.8024
 4711TIP3    H235769   2.282   6.480   8.633 -1.2731  0.3636  0.1299
 4712TIP3   OH235770   6.780   6.040   0.243 -0.7058 -0.0910  0.0852
 4712TIP3    H135771   6.872   6.019   0.262 -0.1611  1.8257 -0.1840
 4712TIP3    H235772   6.732   6.008   0.319  0.3301 -0.1240  0.7476
 4713TIP3   OH235773   3.298   0.792   7.558  0.0664  0.1936 -0.0906
 4713TIP3    H135774   3.214   0.833   7.577  0.7966  1.3794  0.7060
 4713TIP3    H235775   3.275   0.706   7.522 -1.4734  0.3410  0.4625
 4714TIP3   OH235776   6.194   4.450   7.218 -0.6262 -0.0775  0.4265
 4714TIP3    H135777   6.167   4.390   7.149  0.5621 -1.6503  1.2618
 4714TIP3    H235778   6.162   4.411   7.299 -2.0019  1.7422  0.8256
 4715TIP3   OH235779   6.805   3.082   7.648 -0.2900  0.1714  0.2840
 4715TIP3    H135780   6.774   3.065   7.559  1.0508  0.6130 -0.2895
 4715TIP3    H235781   6.792   2.999   7.695 -0.9282 -0.0855 -0.3385
 4716TIP3   OH235782   4.830   3.270   1.294 -0.0713 -0.0893 -0.0343
 4716TIP3    H135783   4.847   3.364   1.296 -0.3555 -0.0420  1.9256
 4716TIP3    H235784   4.916   3.229   1.294  0.2136  0.2001  3.5398
 4717TIP3   OH235785   1.873   1.061   0.805 -0.5633  0.2112 -0.5480
 4717TIP3    H135786   1.923   1.070   0.886 -0.8064  0.9703 -0.4746
 4717TIP3    H235787   1.919   1.115   0.741 -1.1701  0.7587 -0.5331
 4718TIP3   OH235788   6.411   3.825   7.166  0.4443 -0.5069  0.5657
 4718TIP3    H135789   6.431   3.732   7.169  1.1054 -0.4400 -1.0922
 4718TIP3    H235790   6.472   3.864   7.228  0.6643 -1.0906  0.7218
 4719TIP3   OH235791   1.743   3.423   1.138  0.4253 -0.2188  0.2599
 4719TIP3    H135792   1.685   3.439   1.064  0.6248 -2.2810 -0.4204
 4719TIP3    H235793   1.686   3.429   1.215 -0.3528 -0.6098 -0.2735
 4720TIP3   OH235794   2.464   1.253   8.635  0.2540  0.3951 -0.3928
 4720TIP3    H135795   2.511   1.301   8.566 -0.8631  1.8156 -0.1940
 4720TIP3    H235796   2.531   1.235   8.701  0.9861  0.4491 -1.0995
 4721TIP3   OH235797   5.833   5.254   7.218 -0.4406  0.1234 -0.0170
 4721TIP3    H135798   5.815   5.189   7.151  1.1051 -0.0275 -0.3307
 4721TIP3    H235799   5.747   5.280   7.250 -1.1041 -2.0322  0.1031
 4722TIP3   OH235800   1.630   5.393   8.756  0.3051  0.1089 -0.1197
 4722TIP3    H135801   1.623   5.298   8.750  0.7262 -0.0469  1.4427
 4722TIP3    H235802   1.619   5.423   8.666 -3.1049 -1.1756 -0.2594
 4723TIP3   OH235803   5.207   4.589   1.260  0.0827 -0.0742 -0.0848
 4723TIP3    H135804   5.215   4.509   1.208 -1.5241  0.7168 -1.6482
 4723TIP3    H235805   5.126   4.578   1.309  0.6413 -0.0175  0.8790
 4724TIP3   OH235806   0.144   3.008   1.592 -0.5866  0.0714 -0.1586
 4724TIP3    H135807   0.057   3.020   1.554  0.4688  4.3573 -1.7648
 4724TIP3    H235808   0.151   3.078   1.658  0.8103 -1.8055  1.8208
 4725TIP3   OH235809   1.187   3.377   8.406  0.9457 -0.1789 -0.6140
 4725TIP3    H135810   1.098   3.408   8.423  1.1568  0.4276 -0.5930
 4725TIP3    H235811   1.191   3.362   8.312  1.2782  1.3213 -0.8794
 4726TIP3   OH235812   0.266   6.621   6.846  0.2021  0.0114  0.5684
 4726TIP3    H135813   0.218   6.612   6.763 -1.0957  0.4418  1.2411
 4726TIP3    H235814   0.350   6.660   6.821 -0.6126  1.1913 -0.4436
 4727TIP3   OH235815   1.236   0.698   8.507 -0.4036  0.0113 -0.3620
 4727TIP3    H135816   1.182   0.638   8.558  0.5223 -0.8554 -0.3747
 4727TIP3    H235817   1.320   0.653   8.498  0.2684  1.2512 -0.4919
 4728TIP3   OH235818   2.924   6.340   7.440 -0.2454 -0.2211  0.3380
 4728TIP3    H135819   2.928   6.398   7.364 -0.0440 -0.3907  0.2180
 4728TIP3    H235820   2.979   6.384   7.506 -2.9261  1.5992  1.5589
 4729TIP3   OH235821   1.941   5.666   0.077 -0.1862  0.5236 -0.2728
 4729TIP3    H135822   1.951   5.678  -0.017 -0.6124  0.5675 -0.3130
 4729TIP3    H235823   1.892   5.584   0.086 -3.0961  2.1475 -0.2082
 4730TIP3   OH235824   3.959   0.357   0.318 -0.0031  0.3958 -0.1255
 4730TIP3    H135825   3.871   0.382   0.348  0.0142 -0.0872  0.3436
 4730TIP3    H235826   3.944   0.301   0.242 -0.1315 -0.2983  0.4049
 4731TIP3   OH235827   6.089   2.924   8.500 -0.1924  0.1151  0.9900
 4731TIP3    H135828   6.157   2.977   8.542  2.2108 -0.4629 -1.8050
 4731TIP3    H235829   6.125   2.835   8.500 -0.0860  0.0684 -1.9704
 4732TIP3   OH235830   0.085   5.779   6.547 -0.3992  0.7790 -0.5689
 4732TIP3    H135831   0.177   5.805   6.548  0.2989 -1.4169 -1.5071
 4732TIP3    H235832   0.074   5.730   6.466 -1.5134 -1.8644  1.0279
 4733TIP3   OH235833   5.390   3.730   7.662 -0.1571 -0.4317 -0.5063
 4733TIP3    H135834   5.412   3.786   7.587  1.4349 -0.1745  0.1081
 4733TIP3    H235835   5.379   3.643   7.625  1.5287 -0.4874 -0.9683
 4734TIP3   OH235836   4.502   6.421   0.043  0.2355  0.0615 -0.6218
 4734TIP3    H135837   4.407   6.418   0.052  0.2043 -2.0035 -1.0131
 4734TIP3    H235838   4.535   6.397   0.130  0.3878  0.3744 -0.5932
 4735TIP3   OH235839   6.441   6.395   0.961  0.3283  0.0268  0.1409
 4735TIP3    H135840   6.471   6.312   0.924  0.0197 -0.5156  1.0830
 4735TIP3    H235841   6.520   6.447   0.971  0.4688  0.0324 -0.8834
 4736TIP3   OH235842   4.612   2.423   0.696  0.1178  0.2310  0.4092
 4736TIP3    H135843   4.534   2.414   0.641  2.2162  1.4564 -3.1438
 4736TIP3    H235844   4.614   2.516   0.719  1.2946  0.6000 -1.0003
 4737TIP3   OH235845   4.132   5.739   7.231 -0.3052 -0.0712  0.7512
 4737TIP3    H135846   4.181   5.664   7.196 -0.5521 -1.7802  3.7679
 4737TIP3    H235847   4.195   5.785   7.287 -1.2338 -0.4178  2.1261
 4738TIP3   OH235848   3.218   3.563   1.409  0.3080 -0.4087 -0.3823
 4738TIP3    H135849   3.248   3.646   1.372 -0.2243  0.4575  1.0628
 4738TIP3    H235850   3.279   3.546   1.481 -1.8260  0.7964  1.8657
 4739TIP3   OH235851   2.944   3.011   8.505  0.6132 -0.0530 -1.1005
 4739TIP3    H135852   3.039   2.999   8.501  0.4892 -1.1451 -0.8558
 4739TIP3    H235853   2.932   3.104   8.484  1.7710  0.2514 -0.5451
 4740TIP3   OH235854   2.799   2.785   0.598 -0.5296 -0.2513 -0.2512
 4740TIP3    H135855   2.795   2.880   0.597 -3.5248 -0.2541 -1.5606
 4740TIP3    H235856   2.759   2.760   0.681  2.1855 -0.4475  1.0859
 4741TIP3   OH235857   3.014   1.405   8.729  0.3050 -0.4722  0.1589
 4741TIP3    H135858   3.035   1.491   8.764 -0.8424 -0.5278  1.0553
 4741TIP3    H235859   3.096   1.356   8.735  0.7847  0.3308  0.3006
 4742TIP3   OH235860   2.796   4.831   7.515  0.1973 -0.1178  0.0644
 4742TIP3    H135861   2.877   4.802   7.556 -1.1375 -2.2844  1.3467
 4742TIP3    H235862   2.768   4.757   7.462 -1.6463  0.0034  0.7859
 4743TIP3   OH235863   2.896   1.350   0.465  0.2597  0.2447  0.3252
 4743TIP3    H135864   2.938   1.433   0.487 -0.0213 -0.1317  2.5236
 4743TIP3    H235865   2.930   1.288   0.530  0.4188 -1.3621 -1.2253
 4744TIP3   OH235866   2.592   6.015   7.960  0.1094  0.4057 -0.4789
 4744TIP3    H135867   2.668   6.000   7.904  0.6308  0.4845  0.1775
 4744TIP3    H235868   2.613   6.097   8.006 -0.2303  0.2640 -0.0619
 4745TIP3   OH235869   0.165   5.072   8.196 -0.4205 -0.0210 -0.1220
 4745TIP3    H135870   0.079   5.039   8.222 -0.7896  1.9665  1.4275
 4745TIP3    H235871   0.147   5.147   8.139  0.3369 -0.5537 -1.0978
 4746TIP3   OH235872   0.458   3.890   1.756 -0.2265  0.1830 -0.2715
 4746TIP3    H135873   0.378   3.899   1.705  0.1210 -0.0946 -0.8719
 4746TIP3    H235874   0.429   3.890   1.847 -0.8264  0.9540 -0.4535
 4747TIP3   OH235875   6.511   5.737   0.628  0.1593  0.3761  0.0198
 4747TIP3    H135876   6.442   5.775   0.572  1.3881  1.3917 -0.8784
 4747TIP3    H235877   6.481   5.753   0.717 -0.7206  0.8993 -0.3534
 4748TIP3   OH235878   6.155   1.592   0.363 -0.2092 -0.3000 -0.6978
 4748TIP3    H135879   6.084   1.656   0.355  1.2445  1.3521 -0.8216
 4748TIP3    H235880   6.160   1.573   0.457 -0.4550 -0.0243 -0.6299
 4749TIP3   OH235881   2.210   0.405   8.193 -0.2156 -0.6099  0.2670
 4749TIP3    H135882   2.257   0.442   8.269  2.3732 -0.7267 -1.1695
 4749TIP3    H235883   2.120   0.436   8.204  0.3687  0.5035  2.6663
 4750TIP3   OH235884   6.574   5.726   8.169 -0.0250 -0.0187  0.1501
 4750TIP3    H135885   6.620   5.673   8.234 -0.5234 -0.4311  0.1723
 4750TIP3    H235886   6.486   5.690   8.166  0.2636 -0.7147 -1.5250
 4751TIP3   OH235887   5.100   1.987   7.014 -0.2754  0.4460  0.0060
 4751TIP3    H135888   5.060   2.035   7.087 -0.9956 -2.7622  1.9311
 4751TIP3    H235889   5.188   1.965   7.044 -0.6655 -1.1287  0.1239
 4752TIP3   OH235890   0.537   4.030   6.630 -0.3144  0.3625 -0.3402
 4752TIP3    H135891   0.590   3.954   6.654  1.2401  1.0918 -1.2766
 4752TIP3    H235892   0.549   4.038   6.535  0.9321  2.7192 -0.0563
 4753TIP3   OH235893   4.038   2.990   1.208 -0.9469 -1.1403 -0.1941
 4753TIP3    H135894   3.973   2.940   1.257  0.0673 -2.3982 -0.0663
 4753TIP3    H235895   4.122   2.952   1.233  0.0287  1.4890  0.8741
 4754TIP3   OH235896   1.050   3.086   7.850  0.0080 -0.4376  0.5319
 4754TIP3    H135897   1.075   3.176   7.826 -1.1886 -0.1233  0.3793
 4754TIP3    H235898   0.982   3.063   7.787  0.2978 -1.4591  0.5841
 4755TIP3   OH235899   1.190   3.420   6.856 -0.0193 -0.0488  0.0754
 4755TIP3    H135900   1.260   3.399   6.919 -0.1559  0.1289  0.2894
 4755TIP3    H235901   1.121   3.356   6.875 -0.0459 -0.0175  0.0844
 4756TIP3   OH235902   6.597   0.027   1.416  0.3060  0.6538 -0.7615
 4756TIP3    H135903   6.579  -0.002   1.505  4.7498 -0.7724 -0.1165
 4756TIP3    H235904   6.532   0.096   1.400 -2.7994 -1.2528  2.2260
 4757TIP3   OH235905   3.435   2.826   6.974  0.3223 -0.3197  0.1093
 4757TIP3    H135906   3.465   2.851   6.886  0.5443  0.6255  0.4404
 4757TIP3    H235907   3.395   2.906   7.009 -0.5012 -0.9231  0.5582
 4758TIP3   OH235908   5.672   3.381   1.132  0.0517  0.2834  0.3415
 4758TIP3    H135909   5.577   3.372   1.134 -0.2245  1.7341 -1.8834
 4758TIP3    H235910   5.703   3.297   1.098 -0.5416  0.1618  0.0858
 4759TIP3   OH235911   6.213   4.495   0.204  0.2604  0.1499 -0.8780
 4759TIP3    H135912   6.173   4.468   0.286  1.8527  0.1164 -0.0793
 4759TIP3    H235913   6.305   4.469   0.212  0.2610 -0.7747 -3.0800
 4760TIP3   OH235914   6.694   4.949   8.705  0.1186  0.5109 -0.0945
 4760TIP3    H135915   6.706   5.041   8.729 -1.9799  1.6513 -2.8129
 4760TIP3    H235916   6.600   4.934   8.711  0.3904 -1.4430  0.0945
 4761TIP3   OH235917   6.759   5.561   1.849  0.2850  0.0648  0.0004
 4761TIP3    H135918   6.729   5.490   1.906  0.2504  0.3993  0.4119
 4761TIP3    H235919   6.807   5.518   1.779  0.4974 -0.3497  0.3963
 4762TIP3   OH235920   5.415   5.962   6.953 -0.8599  0.7954 -0.0190
 4762TIP3    H135921   5.465   6.016   6.892  1.2085 -2.0930 -1.1586
 4762TIP3    H235922   5.444   5.989   7.040  0.0430  1.5692 -0.5437
 4763TIP3   OH235923   2.590   0.568   1.285 -0.4393  0.5378  0.1963
 4763TIP3    H135924   2.532   0.513   1.233 -0.8662 -0.2724  1.4819
 4763TIP3    H235925   2.596   0.650   1.236  1.6718 -1.1818 -2.7420
 4764TIP3   OH235926   0.961   6.119   0.083  0.4518  0.4856 -0.4304
 4764TIP3    H135927   1.031   6.084   0.138 -0.8434 -0.3525  0.7306
 4764TIP3    H235928   0.908   6.043   0.059 -0.0682  1.0987 -1.3161
 4765TIP3   OH235929   0.260   1.953   7.680 -0.4212  0.2222 -0.2917
 4765TIP3    H135930   0.238   2.039   7.644 -0.1960  0.5023  0.2149
 4765TIP3    H235931   0.334   1.923   7.627 -0.5201  0.3328 -0.4912
 4766TIP3   OH235932   2.226   5.036   1.545  0.5363 -0.3503 -0.6442
 4766TIP3    H135933   2.167   4.961   1.551 -0.4911  0.4289 -0.6558
 4766TIP3    H235934   2.301   5.013   1.599 -1.1060 -0.1667  1.8557
 4767TIP3   OH235935   4.386   4.755   7.473  0.6250  0.2459 -0.0952
 4767TIP3    H135936   4.295   4.783   7.484 -0.1856 -2.8833  2.3900
 4767TIP3    H235937   4.389   4.717   7.385 -0.9245 -0.9500  0.3239
 4768TIP3   OH235938   4.263   3.943   8.616  0.1699 -0.0198  0.5305
 4768TIP3    H135939   4.290   3.998   8.690  2.7685 -0.9121  0.3429
 4768TIP3    H235940   4.339   3.944   8.557 -0.9494 -1.2436 -1.0051
 4769TIP3   OH235941   2.400   1.644   0.455 -0.5420 -0.0850 -0.0782
 4769TIP3    H135942   2.432   1.555   0.438 -0.3521 -0.3007  1.2928
 4769TIP3    H235943   2.451   1.700   0.397  0.0073 -0.7718 -0.2638
 4770TIP3   OH235944   5.813   4.600   7.664  0.0093 -0.0513 -0.4976
 4770TIP3    H135945   5.848   4.566   7.581  0.3182  0.9870 -0.8102
 4770TIP3    H235946   5.811   4.524   7.722  0.0205 -0.7483 -1.3787
 4771TIP3   OH235947   4.540   5.142   0.919 -0.3236 -0.2330 -0.3452
 4771TIP3    H135948   4.462   5.088   0.931 -0.1437 -0.4670 -0.2175
 4771TIP3    H235949   4.514   5.208   0.855 -1.3413  1.1586  1.4178
 4772TIP3   OH235950   3.707   4.174   6.879 -0.2175  0.0663 -0.6606
 4772TIP3    H135951   3.747   4.136   6.801  1.8803  1.8483 -0.5607
 4772TIP3    H235952   3.656   4.249   6.845 -0.8725 -0.2875 -0.4771
 4773TIP3   OH235953   6.517   1.146   7.641 -0.5182 -0.3493 -0.1541
 4773TIP3    H135954   6.449   1.117   7.579 -1.1295 -0.1718  0.4217
 4773TIP3    H235955   6.468   1.183   7.714  0.1439 -1.8373  1.0934
 4774TIP3   OH235956   5.969   6.182   0.107 -0.5562 -0.2282 -0.3409
 4774TIP3    H135957   6.054   6.179   0.064  0.0325 -1.3375  0.8367
 4774TIP3    H235958   5.920   6.248   0.059  2.0034  2.8007  0.8793
 4775TIP3   OH235959   3.252   0.636   8.013  0.3908  0.2061  0.0284
 4775TIP3    H135960   3.199   0.598   8.083 -0.2614  0.8304 -0.1112
 4775TIP3    H235961   3.208   0.610   7.932  2.2895 -2.2976 -0.3326
 4776TIP3   OH235962   0.592   4.530   0.802 -0.2697 -0.1218  0.8688
 4776TIP3    H135963   0.588   4.465   0.732 -0.6774  0.6284  0.1639
 4776TIP3    H235964   0.680   4.522   0.839 -0.5822 -1.6132  1.3511
 4777TIP3   OH235965   3.399   3.454   1.939  0.4158  0.2382 -0.0842
 4777TIP3    H135966   3.374   3.444   2.030 -1.2599  0.3837 -0.4992
 4777TIP3    H235967   3.492   3.429   1.937  0.4104 -0.0376  1.5869
 4778TIP3   OH235968   4.060   0.852   0.449  0.8224  0.0121  0.4415
 4778TIP3    H135969   4.077   0.759   0.434 -1.8290 -0.5120  0.1746
 4778TIP3    H235970   4.132   0.897   0.406  2.1356 -1.8995  0.5168
 4779TIP3   OH235971   1.681   0.474   1.118 -0.2512  0.5915  0.1786
 4779TIP3    H135972   1.772   0.504   1.108 -0.1986 -0.1639 -2.4222
 4779TIP3    H235973   1.684   0.413   1.191  2.4109 -2.8469 -2.4511
 4780TIP3   OH235974   1.467   1.575   6.631 -0.0138 -0.0765  0.1402
 4780TIP3    H135975   1.449   1.635   6.558 -1.2632 -0.4162  0.1448
 4780TIP3    H235976   1.382   1.565   6.675  0.8990  0.8997  2.2685
 4781TIP3   OH235977   2.735   4.675   6.480 -0.4580 -0.2155  0.0286
 4781TIP3    H135978   2.673   4.618   6.525 -0.8807  0.3090  0.1230
 4781TIP3    H235979   2.765   4.624   6.405 -0.0987 -0.9207  0.6392
 4782TIP3   OH235980   1.779   0.807   1.810 -0.5325 -0.3733  0.5615
 4782TIP3    H135981   1.739   0.893   1.800 -1.1648 -0.6141  0.9602
 4782TIP3    H235982   1.729   0.765   1.880 -0.5253 -1.2253  0.0771
 4783TIP3   OH235983   2.640   1.057   0.601  0.0995  0.0844  0.3663
 4783TIP3    H135984   2.660   1.077   0.692 -1.4818  0.5290  0.6433
 4783TIP3    H235985   2.655   0.962   0.594 -2.3438 -0.4860  1.8505
 4784TIP3   OH235986   6.195   5.269   8.236 -0.6056  0.5574 -0.3448
 4784TIP3    H135987   6.119   5.220   8.204 -1.0070  0.6665  0.4261
 4784TIP3    H235988   6.215   5.331   8.165  0.2164 -0.9974 -1.5628
 4785TIP3   OH235989   5.820   0.590   8.370 -0.1317  0.2071  0.6677
 4785TIP3    H135990   5.755   0.653   8.402 -0.0150  1.0453 -0.6764
 4785TIP3    H235991   5.772   0.537   8.307  0.5066  0.9395 -0.4620
 4786TIP3   OH235992   1.201   2.405   7.123  0.4805  0.3161  0.2278
 4786TIP3    H135993   1.240   2.352   7.192 -0.3316 -0.7665 -0.1030
 4786TIP3    H235994   1.195   2.493   7.159  0.2646 -0.1859  1.4584
 4787TIP3   OH235995   5.252   1.561   1.678 -0.4082 -0.1208  0.2285
 4787TIP3    H135996   5.285   1.548   1.767 -0.3820  0.6483  0.3336
 4787TIP3    H235997   5.253   1.473   1.640  0.1821 -0.3643  0.7765
 4788TIP3   OH235998   0.619   0.844   0.138 -0.5666 -0.3130  0.1703
 4788TIP3    H135999   0.678   0.769   0.139 -2.0138 -1.5355 -1.1544
 4788TIP3    H236000   0.625   0.878   0.049 -0.3192  0.8493  0.6127
 4789TIP3   OH236001   6.207   0.839   7.558 -0.0831 -0.1028  0.2077
 4789TIP3    H136002   6.223   0.748   7.582  0.1314  0.4715  2.4474
 4789TIP3    H236003   6.112   0.849   7.562 -0.0706 -0.0955  0.4839
 4790TIP3   OH236004   4.941   0.342   7.222  0.0168  0.8266 -0.8987
 4790TIP3    H136005   4.921   0.277   7.289  1.0567  2.1840  0.7979
 4790TIP3    H236006   5.036   0.353   7.226 -0.0997  2.2233 -1.3568
 4791TIP3   OH236007   3.330   1.718   1.468  0.5302  0.1810 -0.5497
 4791TIP3    H136008   3.268   1.771   1.419 -0.3965  0.4592  0.8593
 4791TIP3    H236009   3.361   1.653   1.406 -2.1239 -0.7615 -1.0117
 4792TIP3   OH236010   1.830   1.360   1.492 -0.8423 -0.6573 -0.0163
 4792TIP3    H136011   1.896   1.407   1.441 -1.5317 -0.4309 -0.7199
 4792TIP3    H236012   1.753   1.418   1.491 -0.0022  0.8788  3.9193
 4793TIP3   OH236013   1.097   3.438   1.410  0.5609 -0.3463  0.3177
 4793TIP3    H136014   1.178   3.485   1.386  0.9417 -2.2862 -2.7365
 4793TIP3    H236015   1.027   3.500   1.391  1.1917  0.1965 -0.2867
 4794TIP3   OH236016   2.903   5.705   0.423 -0.3078 -0.0551 -0.3880
 4794TIP3    H136017   2.877   5.658   0.502  0.2958 -0.3283 -0.3453
 4794TIP3    H236018   2.962   5.645   0.378  1.6844  1.2125  0.3965
 4795TIP3   OH236019   0.709   2.022   1.422 -0.1772  0.6206  0.4858
 4795TIP3    H136020   0.678   1.939   1.458 -0.8162  0.4196 -0.4833
 4795TIP3    H236021   0.676   2.088   1.483 -2.2101  0.3776 -0.2645
 4796TIP3   OH236022   1.036   1.636   7.202 -0.4581 -0.1472  0.1979
 4796TIP3    H136023   0.981   1.702   7.244 -0.9669  0.9813 -2.0626
 4796TIP3    H236024   1.058   1.675   7.117  2.3312 -1.3438  0.2768
 4797TIP3   OH236025   1.538   5.265   0.441  0.2163  0.1050  0.1187
 4797TIP3    H136026   1.569   5.198   0.379  0.2333  1.3280 -1.2546
 4797TIP3    H236027   1.544   5.347   0.392 -1.3941  0.9054  1.1824
 4798TIP3   OH236028   0.143   1.481   2.681 -0.4301  0.1674  0.0035
 4798TIP3    H136029   0.135   1.416   2.751 -2.2552  0.0409 -0.2709
 4798TIP3    H236030   0.233   1.470   2.649 -0.2211 -1.1906  0.9422
 4799TIP3   OH236031   4.114   3.618   1.725  0.3079 -0.1543 -0.0343
 4799TIP3    H136032   4.115   3.612   1.629 -0.7823 -0.7649 -0.0243
 4799TIP3    H236033   4.098   3.528   1.754 -0.7169  0.2349  0.6673
 4800TIP3   OH236034   6.178   2.451   1.349 -0.4142  0.6212 -0.0092
 4800TIP3    H136035   6.143   2.472   1.263 -1.5877  0.1129  0.3248
 4800TIP3    H236036   6.137   2.515   1.408 -0.2948  0.4141  0.3024
 4801TIP3   OH236037   5.583   5.188   1.026  0.9447  0.0927  0.0286
 4801TIP3    H136038   5.599   5.275   1.060 -0.4896  0.9074 -1.2446
 4801TIP3    H236039   5.494   5.166   1.056  1.3820 -1.0549  0.5538
 4802TIP3   OH236040   2.937   4.458   6.945 -0.3722  0.0425  0.1419
 4802TIP3    H136041   3.002   4.404   6.991 -0.7146 -0.6445 -0.1579
 4802TIP3    H236042   2.884   4.395   6.897  0.9369  0.8330 -2.4783
 4803TIP3   OH236043   1.986   2.120   1.590 -0.1960  0.1024  0.5810
 4803TIP3    H136044   2.068   2.087   1.554  0.6185  0.4354  2.0479
 4803TIP3    H236045   1.986   2.214   1.569 -1.6701 -0.3620 -2.0191
 4804TIP3   OH236046   6.123   2.927   1.532  0.2720  0.0274  0.7603
 4804TIP3    H136047   6.113   3.006   1.586 -2.2090  0.2725  0.0724
 4804TIP3    H236048   6.134   2.960   1.443  0.8520 -0.4144  0.6624
 4805TIP3   OH236049   6.228   2.283   0.772  0.2130 -0.4309 -0.3427
 4805TIP3    H136050   6.259   2.297   0.682 -0.9266 -0.0814 -0.7070
 4805TIP3    H236051   6.175   2.203   0.766 -0.4856  0.0074 -0.1572
 4806TIP3   OH236052   5.434   3.434   7.834  0.7908  0.0363 -0.2719
 4806TIP3    H136053   5.386   3.448   7.751  3.1656  1.6939 -1.4959
 4806TIP3    H236054   5.383   3.483   7.898 -0.5952 -0.4898 -0.9116
 4807TIP3   OH236055   2.871   4.101   7.755 -0.3919  0.1163 -0.0258
 4807TIP3    H136056   2.857   4.030   7.818  0.4184 -0.2572 -0.2470
 4807TIP3    H236057   2.845   4.180   7.802 -0.7604 -0.2602  0.4231
 4808TIP3   OH236058   4.919   2.847   1.962  0.1922  0.0717 -0.2193
 4808TIP3    H136059   5.006   2.829   1.998  2.2109  4.8987 -1.8671
 4808TIP3    H236060   4.932   2.854   1.868 -2.0504  0.7254 -0.5584
 4809TIP3   OH236061   5.812   1.694   2.048  0.1151  0.7304 -0.5626
 4809TIP3    H136062   5.755   1.701   1.971 -0.6782  2.0128  0.0881
 4809TIP3    H236063   5.843   1.783   2.062  1.8403  0.1481 -0.5410
 4810TIP3   OH236064   0.592   5.448   0.750 -0.1217 -0.3093 -0.3444
 4810TIP3    H136065   0.517   5.417   0.698 -0.5733 -0.2062  0.2379
 4810TIP3    H236066   0.553   5.477   0.832  0.2323  2.0457 -0.9479
 4811TIP3   OH236067   1.466   4.231   6.787  0.3957 -0.2090  0.4860
 4811TIP3    H136068   1.511   4.168   6.730  1.3590 -0.0807  1.0742
 4811TIP3    H236069   1.519   4.232   6.867  0.7765  1.8143  0.2565
 4812TIP3   OH236070   0.653   0.752   1.773 -0.5735  0.4217  0.0087
 4812TIP3    H136071   0.718   0.811   1.812 -0.4938 -0.0104  0.5361
 4812TIP3    H236072   0.614   0.707   1.847 -2.5464  1.7228 -0.1589
 4813TIP3   OH236073   1.369   5.328   0.036  0.2482  0.1797  0.1477
 4813TIP3    H136074   1.407   5.261  -0.020  0.5278  2.6119 -2.8732
 4813TIP3    H236075   1.443   5.379   0.068 -0.0204 -0.2251  1.4888
 4814TIP3   OH236076   1.558   3.380   1.884 -0.5249  0.3609  0.0556
 4814TIP3    H136077   1.512   3.380   1.968 -1.1018 -0.2720 -0.2564
 4814TIP3    H236078   1.635   3.436   1.900 -0.1808 -0.3993  1.2366
 4815TIP3   OH236079   0.646   5.413   7.681  0.2919 -0.2464 -0.0235
 4815TIP3    H136080   0.571   5.420   7.622  0.2683 -2.2379 -0.2771
 4815TIP3    H236081   0.609   5.384   7.764  0.5070  1.1674  0.5935
 4816TIP3   OH236082   4.465   5.612   0.367  0.3006  0.3439 -0.2488
 4816TIP3    H136083   4.534   5.665   0.408 -0.2875  2.7239 -2.1239
 4816TIP3    H236084   4.506   5.580   0.287 -0.0930 -0.1184 -0.2638
 4817TIP3   OH236085   5.127   2.468   7.855  0.1204  0.2151  0.4218
 4817TIP3    H136086   5.201   2.528   7.846  0.2194  0.0203 -0.1142
 4817TIP3    H236087   5.051   2.519   7.829  0.1938  0.1400  0.0489
 4818TIP3   OH236088   5.248   4.074   1.617  0.1978  0.0603  0.4527
 4818TIP3    H136089   5.215   4.141   1.557  1.2257 -0.1984 -0.4494
 4818TIP3    H236090   5.191   4.079   1.694 -0.0014  1.6842  0.2311
 4819TIP3   OH236091   0.050   1.356   8.227  0.1636 -0.4152  0.1175
 4819TIP3    H136092   0.087   1.396   8.306  0.8138 -1.9628  0.6546
 4819TIP3    H236093   0.043   1.427   8.164  1.4204  0.5010  0.9583
 4820TIP3   OH236094   2.209   4.272   7.301  0.2933 -0.4047  0.3095
 4820TIP3    H136095   2.163   4.247   7.221  0.7481 -0.4810  0.0663
 4820TIP3    H236096   2.300   4.284   7.273  0.3290  0.2354  0.6857
 4821TIP3   OH236097   6.160   5.482   1.690 -0.0499  0.6844  0.2158
 4821TIP3    H136098   6.115   5.403   1.719  0.7934  0.2283  0.3194
 4821TIP3    H236099   6.095   5.552   1.699 -0.9142 -0.0492 -0.2263
 4822TIP3   OH236100   3.871   6.627   1.874 -0.3906  0.4099  0.3497
 4822TIP3    H136101   3.803   6.681   1.914  0.0676  0.9724  0.3599
 4822TIP3    H236102   3.826   6.545   1.854 -0.7278  0.2511  1.6534
 4823TIP3   OH236103   6.538   5.661   1.414 -0.6199 -0.3173  0.3018
 4823TIP3    H136104   6.543   5.592   1.481 -0.8612 -0.7694 -0.1415
 4823TIP3    H236105   6.457   5.642   1.366 -1.8980  1.5327  1.5358
 4824TIP3   OH236106   1.081   6.753   2.737 -0.5480 -0.5647  0.5193
 4824TIP3    H136107   0.997   6.795   2.757 -1.3339 -1.4668 -0.7753
 4824TIP3    H236108   1.068   6.712   2.652  1.7546  0.6960 -0.5147
 4825TIP3   OH236109   5.461   0.007   8.168  0.1405  0.1734 -0.1613
 4825TIP3    H136110   5.401   0.082   8.164 -0.7701 -0.5015  0.4415
 4825TIP3    H236111   5.428  -0.045   8.241  0.9728 -0.6422 -0.3575
 4826TIP3   OH236112   0.304   5.718   1.301  0.2832  0.3406  0.6261
 4826TIP3    H136113   0.293   5.645   1.363  0.7128  0.2489  0.5997
 4826TIP3    H236114   0.310   5.676   1.216 -1.0284  0.5110  0.4229
 4827TIP3   OH236115   3.633   4.303   8.352  1.0276  1.1326  0.1446
 4827TIP3    H136116   3.606   4.356   8.277  0.8465 -2.5927 -2.7320
 4827TIP3    H236117   3.729   4.307   8.351  1.0329  0.9509 -0.4260
 4828TIP3   OH236118   6.734   0.079   1.131 -0.0252 -0.0917  0.6355
 4828TIP3    H136119   6.791   0.144   1.171  0.8666  0.1969 -0.9921
 4828TIP3    H236120   6.645   0.107   1.153  0.2857  2.2816 -0.8134
 4829TIP3   OH236121   1.971   3.898   7.730  0.7222  0.1540  0.5196
 4829TIP3    H136122   2.024   3.972   7.702 -0.3742  1.1473  0.9820
 4829TIP3    H236123   2.024   3.854   7.797  2.0188 -0.4025 -0.8174
 4830TIP3   OH236124   6.505   1.055   8.167 -0.4753  0.3963 -0.3906
 4830TIP3    H136125   6.594   1.055   8.132 -0.0169 -1.1375  0.6690
 4830TIP3    H236126   6.514   1.090   8.256 -0.2939 -2.8176  0.9871
 4831TIP3   OH236127   4.819   1.148   0.957 -0.4772  0.0295  0.2519
 4831TIP3    H136128   4.812   1.185   0.869 -2.7466  0.5827  0.6061
 4831TIP3    H236129   4.823   1.053   0.943 -1.7038  0.0598 -0.4323
 4832TIP3   OH236130   5.710   2.377   0.479 -0.0607  0.0075  0.1268
 4832TIP3    H136131   5.789   2.429   0.492  0.0612 -0.2404  0.3815
 4832TIP3    H236132   5.739   2.303   0.426  0.0232 -0.4458  0.8018
 4833TIP3   OH236133   4.384   3.621   7.530  0.0250 -0.3823  0.0403
 4833TIP3    H136134   4.331   3.669   7.594  0.6679 -0.1149  0.3859
 4833TIP3    H236135   4.334   3.542   7.511 -1.0728  0.4227 -0.5456
 4834TIP3   OH236136   0.999   2.453   1.752  0.2793  0.5329  0.3092
 4834TIP3    H136137   1.051   2.496   1.684  0.7993  0.1421  0.4491
 4834TIP3    H236138   0.908   2.469   1.727  0.4664  0.6577 -0.3065
 4835TIP3   OH236139   0.054   5.098   1.340 -0.4355 -0.1747  0.3376
 4835TIP3    H136140  -0.015   5.104   1.407  1.1067  2.2468  1.8712
 4835TIP3    H236141   0.063   5.004   1.323 -1.6327 -0.8085  2.7856
 4836TIP3   OH236142   5.003   4.343   8.366  0.5192  0.0438  0.6839
 4836TIP3    H136143   5.012   4.250   8.385  0.6199  0.0060  0.4531
 4836TIP3    H236144   4.910   4.355   8.348  0.4473  0.0527  1.0460
 4837TIP3   OH236145   5.623   0.721   0.233  0.5557  0.0153 -0.3762
 4837TIP3    H136146   5.562   0.738   0.305 -0.8138  0.8356 -1.6914
 4837TIP3    H236147   5.577   0.749   0.154  2.3486 -0.0696 -1.5148
 4838TIP3   OH236148   5.933   3.334   7.410 -0.5325  0.7799  0.7814
 4838TIP3    H136149   5.870   3.292   7.470  1.3415 -2.1152  0.9366
 4838TIP3    H236150   6.010   3.351   7.465  0.8293 -0.9519 -0.4752
 4839TIP3   OH236151   0.615   0.872   8.653  0.4291  0.8205  0.3989
 4839TIP3    H136152   0.563   0.941   8.611  0.5087  0.8043  0.2727
 4839TIP3    H236153   0.668   0.836   8.582 -0.1547  0.1307  0.3064
 4840TIP3   OH236154   1.378   2.887   0.137 -0.6802  0.4124 -0.2862
 4840TIP3    H136155   1.377   2.792   0.147 -1.4555  0.5037  0.5864
 4840TIP3    H236156   1.303   2.918   0.188 -0.8072  1.4501 -1.0593
 4841TIP3   OH236157   2.372   4.866   1.060  0.1643  0.1200 -0.3643
 4841TIP3    H136158   2.314   4.862   1.136 -0.6692  0.3337 -0.9774
 4841TIP3    H236159   2.362   4.955   1.026  0.6102  0.0611 -0.6699
 4842TIP3   OH236160   0.990   5.578   8.489 -0.3782 -0.2334 -0.5545
 4842TIP3    H136161   0.942   5.657   8.467  0.6843  0.5711 -0.1149
 4842TIP3    H236162   1.045   5.604   8.563  0.9627 -1.0106 -1.2402
 4843TIP3   OH236163   2.948   0.382   7.923 -0.4409  0.1832  0.0236
 4843TIP3    H136164   2.968   0.290   7.908 -0.1887 -0.0286  1.4629
 4843TIP3    H236165   2.999   0.405   8.001  2.0817  2.4626 -2.1285
 4844TIP3   OH236166   1.348   1.296   7.321  0.2735  0.1269 -0.4886
 4844TIP3    H136167   1.344   1.340   7.237  2.2864  0.5714 -0.4111
 4844TIP3    H236168   1.405   1.351   7.374  1.6110 -1.7383  0.1237
 4845TIP3   OH236169   5.246   0.134   6.939  0.3283 -0.5781  0.0421
 4845TIP3    H136170   5.329   0.179   6.921 -0.0129  0.1622  0.2691
 4845TIP3    H236171   5.270   0.064   7.001  0.6906  0.0197  0.5958
 4846TIP3   OH236172   1.035   1.450   8.566 -0.2958  0.0163  0.8486
 4846TIP3    H136173   1.015   1.368   8.610  0.4784 -0.6826 -0.0837
 4846TIP3    H236174   1.102   1.491   8.620  1.2802 -1.2389 -0.0608
 4847TIP3   OH236175   3.609   0.134   0.423 -0.0159  0.1643  0.4617
 4847TIP3    H136176   3.625   0.173   0.509 -0.5583 -0.9068  1.0731
 4847TIP3    H236177   3.570   0.049   0.443 -2.8751  1.0449 -0.8602
 4848TIP3   OH236178   1.709   2.934   7.451 -0.0768 -0.2664 -0.0153
 4848TIP3    H136179   1.782   2.988   7.481  1.1809 -0.7750 -1.9812
 4848TIP3    H236180   1.661   2.990   7.392  0.7219 -0.9623 -1.3711
 4849TIP3   OH236181   2.463   2.070   1.134 -0.4594  0.4084  0.0203
 4849TIP3    H136182   2.381   2.104   1.171  0.2771  1.9855  0.2933
 4849TIP3    H236183   2.478   1.987   1.180 -0.7138  1.2489  1.6869
 4850TIP3   OH236184   4.727   6.771   0.351  0.0406  0.1557 -0.7209
 4850TIP3    H136185   4.706   6.695   0.405  0.6993  0.3904 -0.1258
 4850TIP3    H236186   4.642   6.800   0.317 -0.2092 -0.9153 -1.0710
 4851TIP3   OH236187   1.255   0.122   7.100 -0.2996 -0.0735 -0.0821
 4851TIP3    H136188   1.253   0.170   7.182 -0.8132 -1.4973  0.7859
 4851TIP3    H236189   1.338   0.074   7.101 -0.8856 -1.1347  0.2797
 4852TIP3   OH236190   1.072   3.046   6.324 -0.2264 -0.0760 -0.2341
 4852TIP3    H136191   1.084   3.030   6.417  1.8374 -1.2353 -0.6269
 4852TIP3    H236192   0.985   3.086   6.317  0.2579  1.7199  2.3509
 4853TIP3   OH236193   1.688   0.138   2.292 -0.1248 -0.2110  0.0442
 4853TIP3    H136194   1.780   0.124   2.314  0.3887 -1.7529 -2.6806
 4853TIP3    H236195   1.642   0.068   2.339  0.0078  0.6197  1.4894
 4854TIP3   OH236196   4.049   4.913   0.378 -0.0112  0.4397 -0.2605
 4854TIP3    H136197   3.977   4.939   0.435  0.3886  0.2132  0.3577
 4854TIP3    H236198   4.128   4.936   0.426  0.3462  1.1797 -1.1623
 4855TIP3   OH236199   3.760   5.120   6.897  0.0547 -0.3465  0.0854
 4855TIP3    H136200   3.720   5.040   6.932 -0.5910  0.0555  0.2748
 4855TIP3    H236201   3.757   5.109   6.802 -2.2986  0.4999 -0.0029
 4856TIP3   OH236202   0.850   0.604   6.857  0.5547 -0.0182  0.1515
 4856TIP3    H136203   0.761   0.640   6.851 -0.2159 -1.3916  2.1131
 4856TIP3    H236204   0.880   0.599   6.766 -2.2043 -1.4597 -0.8059
 4857TIP3   OH236205   5.886   0.830   6.654 -0.2359  0.4452 -0.3811
 4857TIP3    H136206   5.791   0.824   6.640 -0.2174 -1.6303  0.1693
 4857TIP3    H236207   5.924   0.813   6.568 -0.3402 -0.8155 -0.1891
 4858TIP3   OH236208   5.859   3.102   0.741  0.0024  0.4383  0.5449
 4858TIP3    H136209   5.784   3.152   0.708 -0.7895 -1.1415 -0.1921
 4858TIP3    H236210   5.819   3.036   0.798  0.8573 -0.3082  0.2922
 4859TIP3   OH236211   1.703   2.661   1.370  0.2541  0.1573 -0.0323
 4859TIP3    H136212   1.744   2.635   1.287 -1.1223 -0.8959 -0.4086
 4859TIP3    H236213   1.717   2.586   1.427 -1.5132 -0.4379 -0.3193
 4860TIP3   OH236214   0.908   6.232   1.540  0.5278 -0.4461 -0.3051
 4860TIP3    H136215   0.891   6.295   1.470  0.8910  0.8360  0.7215
 4860TIP3    H236216   0.971   6.276   1.597  0.2237 -1.4468  0.8511
 4861TIP3   OH236217   0.419   4.600   1.346 -0.0817  0.0035 -0.1458
 4861TIP3    H136218   0.327   4.581   1.327 -0.3870  1.2811 -0.0324
 4861TIP3    H236219   0.468   4.536   1.295 -1.0401 -1.5871  0.8451
 4862TIP3   OH236220   2.767   6.142   1.326  0.7840  0.8261  0.0194
 4862TIP3    H136221   2.710   6.113   1.256  0.7337  2.7522 -0.8110
 4862TIP3    H236222   2.716   6.207   1.374  0.7857 -0.5023  1.9502
 4863TIP3   OH236223   1.936   5.149   2.719 -0.2132  0.4745  0.3651
 4863TIP3    H136224   1.851   5.138   2.761 -2.1771  2.8598 -2.5367
 4863TIP3    H236225   1.934   5.089   2.644 -0.0517  1.6541 -0.6148
 4864TIP3   OH236226   5.746   2.142   1.269  0.2154 -0.6589 -0.1857
 4864TIP3    H136227   5.783   2.110   1.351 -0.4208 -2.5142 -0.5730
 4864TIP3    H236228   5.665   2.092   1.258 -3.7672  4.4542  1.5761
 4865TIP3   OH236229   1.900   1.845   0.445 -0.3666  0.2674 -0.4292
 4865TIP3    H136230   1.983   1.802   0.421  0.3067  1.0752  0.3806
 4865TIP3    H236231   1.867   1.793   0.518  0.3653  0.9952  0.4439
 4866TIP3   OH236232   6.196   4.398   1.928  0.1351 -0.6951  0.2065
 4866TIP3    H136233   6.109   4.437   1.918  0.9350  0.8530 -1.0533
 4866TIP3    H236234   6.207   4.388   2.022 -1.1802 -0.3630  0.4122
 4867TIP3   OH236235   6.726   3.117   1.720 -0.2220 -0.2179  0.0122
 4867TIP3    H136236   6.731   3.134   1.626  0.2404  0.6746  0.1938
 4867TIP3    H236237   6.637   3.084   1.734 -1.0984  1.8618 -0.3940
 4868TIP3   OH236238   5.105   6.370   1.551  0.1820  0.1281  0.4516
 4868TIP3    H136239   5.115   6.307   1.622  1.1048 -0.7010 -0.3976
 4868TIP3    H236240   5.129   6.322   1.472  2.0212  1.8280 -0.0970
 4869TIP3   OH236241   1.208   2.171   7.614 -0.2273  0.4314 -0.1411
 4869TIP3    H136242   1.240   2.149   7.702 -0.9294 -0.0154  0.0107
 4869TIP3    H236243   1.171   2.089   7.582  1.0242  0.2810 -1.3100
 4870TIP3   OH236244   4.949   5.947   6.706 -0.7221 -0.0191 -0.5921
 4870TIP3    H136245   4.979   5.863   6.672  0.6703  0.7848 -1.4523
 4870TIP3    H236246   4.990   5.955   6.792  0.7276  0.5940 -1.3102
 4871TIP3   OH236247   2.355   2.014   6.647  0.0057 -0.0713  0.3816
 4871TIP3    H136248   2.312   2.002   6.563  0.5219  0.1511  0.0864
 4871TIP3    H236249   2.359   1.926   6.685 -0.6667 -0.1000  0.3922
 4872TIP3   OH236250   3.795   0.475   6.699 -0.3770 -0.1345  0.4738
 4872TIP3    H136251   3.815   0.567   6.714 -1.0780 -0.1312  1.3968
 4872TIP3    H236252   3.718   0.476   6.642  0.7798 -0.1654 -1.1772
 4873TIP3   OH236253   0.361   4.790   6.493 -0.3195  0.5774  0.0017
 4873TIP3    H136254   0.375   4.716   6.434  1.0532  1.2769 -0.5753
 4873TIP3    H236255   0.280   4.767   6.540  0.6059 -1.7937  0.6215
 4874TIP3   OH236256   1.540   0.314   7.897  0.4805  0.3148 -0.3999
 4874TIP3    H136257   1.571   0.400   7.868  2.1165 -0.5392 -1.3230
 4874TIP3    H236258   1.532   0.322   7.992 -2.2958  2.3323 -0.6654
 4875TIP3   OH236259   3.246   5.754   8.470 -0.2533  0.0714  0.7386
 4875TIP3    H136260   3.221   5.821   8.533 -0.0538  1.4845 -0.6025
 4875TIP3    H236261   3.338   5.774   8.449  0.1954 -1.3859  1.2139
 4876TIP3   OH236262   5.869   4.396   0.231  0.1688 -0.4647 -0.3925
 4876TIP3    H136263   5.893   4.486   0.249 -0.8113 -0.2629 -0.0113
 4876TIP3    H236264   5.820   4.368   0.309  0.2768 -1.2510 -0.5949
 4877TIP3   OH236265   5.705   3.916   7.433 -0.3022 -0.2293  0.3411
 4877TIP3    H136266   5.627   3.867   7.409  0.5217 -0.3388 -2.4231
 4877TIP3    H236267   5.763   3.908   7.357  1.9226  0.8370  1.8197
 4878TIP3   OH236268   0.603   4.079   0.169 -0.0778  0.4103 -0.6029
 4878TIP3    H136269   0.528   4.036   0.127  0.2958 -0.3560 -0.5031
 4878TIP3    H236270   0.676   4.061   0.111  0.1076  0.8305 -0.5026
 4879TIP3   OH236271   1.493   6.455   6.973  0.1208 -0.2219 -0.2988
 4879TIP3    H136272   1.529   6.428   7.058 -0.0837 -1.5920 -0.6202
 4879TIP3    H236273   1.443   6.379   6.943 -2.2850  1.2663 -0.3171
 4880TIP3   OH236274   5.195   2.975   0.901 -0.0652 -0.0272  0.1082
 4880TIP3    H136275   5.222   2.920   0.974 -0.2219  0.0576  0.2292
 4880TIP3    H236276   5.204   2.919   0.824  1.1363  0.2011  0.0456
 4881TIP3   OH236277   2.570   2.950   8.321 -0.0314 -0.2598  0.0203
 4881TIP3    H136278   2.570   2.910   8.234 -0.6922  1.1326 -0.6529
 4881TIP3    H236279   2.650   2.918   8.361  0.5596 -0.5351 -1.3041
 4882TIP3   OH236280   3.204   3.980   0.725 -0.3925 -0.3012  0.4100
 4882TIP3    H136281   3.276   3.922   0.750 -1.1533 -1.2045  0.5524
 4882TIP3    H236282   3.232   4.017   0.641  0.1648 -0.7673  0.3795
 4883TIP3   OH236283   5.308   6.285   1.138  0.2301 -0.1025  0.0863
 4883TIP3    H136284   5.277   6.373   1.157 -0.4811 -0.3274 -0.0116
 4883TIP3    H236285   5.312   6.281   1.043 -1.1487 -0.6369  0.0271
 4884TIP3   OH236286   5.875   4.436   7.109 -0.8768 -0.3272  0.0435
 4884TIP3    H136287   5.827   4.514   7.079 -2.6140 -0.9422  1.1308
 4884TIP3    H236288   5.814   4.364   7.098  0.0455 -1.2623  0.8291
 4885TIP3   OH236289   1.169   4.525   8.461 -0.1564  0.4104 -0.4753
 4885TIP3    H136290   1.210   4.447   8.498 -0.9606  0.5211  0.7200
 4885TIP3    H236291   1.240   4.571   8.416  0.3492 -0.9226 -1.0837
 4886TIP3   OH236292   6.054   1.796   0.680 -0.0359 -0.4488  0.2503
 4886TIP3    H136293   6.024   1.717   0.726  2.6548 -0.9749  1.2668
 4886TIP3    H236294   6.092   1.763   0.599  0.3614 -0.1249  0.3031
 4887TIP3   OH236295   3.056   0.547   2.618  0.2984  0.0582  0.1008
 4887TIP3    H136296   3.049   0.479   2.685 -0.1473 -0.7571 -0.7373
 4887TIP3    H236297   2.965   0.572   2.600  0.4327  0.5030  0.0425
 4888TIP3   OH236298   2.872   0.829   7.051  0.4116 -0.0738 -0.2004
 4888TIP3    H136299   2.827   0.847   6.968  0.7470 -0.9040 -0.5785
 4888TIP3    H236300   2.871   0.912   7.098  0.2687  0.4237 -1.0673
 4889TIP3   OH236301   5.552   1.885   8.607  0.4967 -0.3988  0.0972
 4889TIP3    H136302   5.531   1.791   8.610 -1.9124  0.0935  1.0422
 4889TIP3    H236303   5.529   1.911   8.518  0.5421 -0.5690  0.0333
 4890TIP3   OH236304   0.476   1.597   1.064 -0.2498 -0.3054 -0.0166
 4890TIP3    H136305   0.542   1.620   0.999 -0.1895 -0.8915 -0.1761
 4890TIP3    H236306   0.429   1.523   1.025 -0.8987  0.0048  0.1612
 4891TIP3   OH236307   2.020   1.461   0.883  0.1264  0.3150 -0.2217
 4891TIP3    H136308   1.930   1.430   0.883  0.4263 -0.7931  2.1837
 4891TIP3    H236309   2.018   1.543   0.833 -1.9340 -0.3062 -1.2471
 4892TIP3   OH236310   6.539   5.744   7.577 -0.3740  0.0741 -0.2324
 4892TIP3    H136311   6.620   5.794   7.584 -0.6721  0.3987  1.3892
 4892TIP3    H236312   6.512   5.729   7.668 -0.8105 -2.2312 -0.6872
 4893TIP3   OH236313   6.147   6.634   6.325  0.8161  0.1317  0.1968
 4893TIP3    H136314   6.071   6.586   6.294  1.0197  0.3938 -0.7410
 4893TIP3    H236315   6.117   6.724   6.335  1.1746  0.3875 -0.8923
 4894TIP3   OH236316   4.568   3.184   0.787  0.1276 -0.0968  0.3376
 4894TIP3    H136317   4.637   3.165   0.850  0.9231  2.6515  0.4525
 4894TIP3    H236318   4.498   3.225   0.838 -1.4324 -2.3243  0.1294
 4895TIP3   OH236319   6.695   3.237   1.185 -0.7875  0.4864 -0.1363
 4895TIP3    H136320   6.610   3.248   1.143  0.1474 -2.5015 -3.2975
 4895TIP3    H236321   6.758   3.246   1.114  1.1070 -2.7952  0.8978
 4896TIP3   OH236322   2.891   6.616   2.682 -0.4860  0.1149 -0.3462
 4896TIP3    H136323   2.974   6.598   2.726  0.9081 -1.7725 -3.3752
 4896TIP3    H236324   2.902   6.705   2.646  0.5156 -0.3172 -1.1682
 4897TIP3   OH236325   2.220   4.083   0.000 -0.1813  0.2655  0.0345
 4897TIP3    H136326   2.213   4.040  -0.085 -0.2258 -0.0024  0.1761
 4897TIP3    H236327   2.219   4.012   0.064 -0.9804  0.5125  0.3054
 4898TIP3   OH236328   1.788   1.128   0.431  0.5321  0.2947 -0.0350
 4898TIP3    H136329   1.866   1.072   0.425  0.5394  0.4219 -1.4079
 4898TIP3    H236330   1.819   1.215   0.407 -0.3190  0.0472 -2.2010
 4899TIP3   OH236331   3.550   1.455   6.559 -0.1007  0.0497 -0.5002
 4899TIP3    H136332   3.619   1.397   6.591 -0.9416 -0.8668 -0.3217
 4899TIP3    H236333   3.491   1.398   6.510 -0.1442  1.0120 -1.6243
 4900TIP3   OH236334   6.585   0.157   7.944 -0.2960 -0.8459 -0.0939
 4900TIP3    H136335   6.597   0.155   8.039 -0.1775  0.0659 -0.0788
 4900TIP3    H236336   6.511   0.098   7.928 -0.1416 -1.2163  0.5321
 4901TIP3   OH236337   1.464   6.538   6.663  0.2081  0.3860  0.1986
 4901TIP3    H136338   1.411   6.594   6.720 -1.5895  0.1899 -1.2144
 4901TIP3    H236339   1.475   6.457   6.714 -0.7808  0.4617  0.5541
 4902TIP3   OH236340   5.288   1.782   8.003 -0.3079  0.0511 -0.0880
 4902TIP3    H136341   5.272   1.702   8.053  1.0244 -0.0384  0.2449
 4902TIP3    H236342   5.362   1.823   8.048  0.0719  0.6388 -1.2127
 4903TIP3   OH236343   3.033   1.310   0.853 -0.2450  0.3481  0.6003
 4903TIP3    H136344   2.989   1.245   0.908 -3.0428 -0.4303 -2.2827
 4903TIP3    H236345   2.992   1.393   0.879 -1.4449  0.0073 -0.1083
 4904TIP3   OH236346   6.280   5.526   2.803 -0.1320 -0.1634  0.2216
 4904TIP3    H136347   6.200   5.487   2.840  0.8107 -2.5929 -0.1217
 4904TIP3    H236348   6.267   5.522   2.709  0.1145  0.1070  0.1736
 4905TIP3   OH236349   0.429   6.543   1.631  0.2156  0.5765 -0.1778
 4905TIP3    H136350   0.342   6.580   1.643  0.6865  1.9665 -0.8303
 4905TIP3    H236351   0.446   6.550   1.537  0.7237 -0.4236 -0.1789
 4906TIP3   OH236352   5.686   1.644   7.930  0.1308  0.0482 -0.4385
 4906TIP3    H136353   5.747   1.620   8.000  0.7046  1.3968 -0.4431
 4906TIP3    H236354   5.688   1.570   7.869  0.9193 -0.4044  0.1295
 4907TIP3   OH236355   3.540   0.131   0.722 -0.2235  0.4629 -1.0144
 4907TIP3    H136356   3.483   0.076   0.669 -1.4685  1.1518 -0.4201
 4907TIP3    H236357   3.506   0.122   0.811  1.7146 -0.5398 -0.2921
 4908TIP3   OH236358   4.626   5.626   1.509  0.0185  0.1964  0.1942
 4908TIP3    H136359   4.693   5.690   1.487 -0.4824  0.6341 -0.0795
 4908TIP3    H236360   4.673   5.558   1.558  0.2860  1.4905  1.7908
 4909TIP3   OH236361   4.193   4.667   1.432  0.3928 -0.2010  0.2906
 4909TIP3    H136362   4.180   4.669   1.526 -0.5245  0.6961  0.1744
 4909TIP3    H236363   4.225   4.579   1.413 -0.6507 -0.8166  1.2896
 4910TIP3   OH236364   3.324   3.912   7.666  0.3166  0.0988  0.2588
 4910TIP3    H136365   3.282   3.826   7.675  2.0801 -0.6743  1.9793
 4910TIP3    H236366   3.252   3.973   7.650 -1.1316 -1.5286  0.3488
 4911TIP3   OH236367   5.408   5.873   7.441  0.1055 -0.3840 -0.3670
 4911TIP3    H136368   5.426   5.801   7.381  0.9230 -1.8923  1.5949
 4911TIP3    H236369   5.481   5.872   7.503 -1.6388 -0.1854  1.8320
 4912TIP3   OH236370   5.448   4.929   7.500  0.0440 -0.4601  0.3055
 4912TIP3    H136371   5.403   4.962   7.578 -1.1443  0.0086 -0.5639
 4912TIP3    H236372   5.379   4.894   7.445  0.8991 -0.9984 -0.4587
 4913TIP3   OH236373   2.653   1.258   7.151  0.3432 -0.3528 -0.2526
 4913TIP3    H136374   2.586   1.202   7.191  1.8986 -1.0878  1.4795
 4913TIP3    H236375   2.663   1.331   7.212  0.5192  0.2184 -0.9424
 4914TIP3   OH236376   5.881   4.881   0.877  0.0951  0.3301  0.0372
 4914TIP3    H136377   5.861   4.788   0.867  1.4350  0.0610 -0.4331
 4914TIP3    H236378   5.899   4.912   0.788 -0.6773  1.1288  0.1462
 4915TIP3   OH236379   4.779   5.474   6.199 -0.0044  0.0423 -0.4017
 4915TIP3    H136380   4.836   5.474   6.122 -1.0063  0.3517 -1.1625
 4915TIP3    H236381   4.726   5.553   6.190  1.5720  1.5084  1.9389
 4916TIP3   OH236382   0.058   5.608   7.519  0.1825  0.0034 -0.3650
 4916TIP3    H136383   0.027   5.520   7.495 -1.3750  0.7908 -1.4366
 4916TIP3    H236384   0.124   5.629   7.453 -0.7463  0.3259 -1.2127
 4917TIP3   OH236385   5.108   4.888   1.054  0.1473  0.4975  0.0425
 4917TIP3    H136386   5.145   4.800   1.059  0.4334  0.6647  1.1924
 4917TIP3    H236387   5.184   4.946   1.055 -0.0797  0.8003  1.0664
 4918TIP3   OH236388   0.949   3.667   7.532  0.3567 -0.5411  0.3102
 4918TIP3    H136389   1.000   3.598   7.490  1.9014  0.6836  0.0867
 4918TIP3    H236390   0.913   3.718   7.459  1.1914  0.2687  0.4485
 4919TIP3   OH236391   1.274   4.836   0.566 -0.2587  0.3985 -0.0575
 4919TIP3    H136392   1.264   4.895   0.491 -0.5870  1.3659  0.7164
 4919TIP3    H236393   1.191   4.790   0.573 -0.3388  0.5350 -0.1110
 4920TIP3   OH236394   5.535   6.133   8.593 -0.1483 -0.4009 -0.4338
 4920TIP3    H136395   5.618   6.124   8.546  0.1979  1.1416 -0.1615
 4920TIP3    H236396   5.558   6.120   8.685 -0.0130  0.9186 -0.2593
 4921TIP3   OH236397   6.264   4.910   2.710  0.1304 -0.5574  0.3807
 4921TIP3    H136398   6.274   5.005   2.712 -0.9881 -0.4409  1.6241
 4921TIP3    H236399   6.335   4.880   2.653  0.7160  0.9816  0.2460
 4922TIP3   OH236400   5.767   4.596   8.109 -0.4513  0.7073  0.5604
 4922TIP3    H136401   5.804   4.526   8.056 -0.7107 -0.3821  1.7585
 4922TIP3    H236402   5.747   4.554   8.193 -1.2691  2.0560  1.0701
 4923TIP3   OH236403   6.691   1.438   0.260 -0.2665  0.7866  0.1796
 4923TIP3    H136404   6.697   1.491   0.339 -0.0212  0.4867  0.3685
 4923TIP3    H236405   6.617   1.379   0.276 -1.0342  1.5784 -0.3506
 4924TIP3   OH236406   6.760   3.757   1.612  0.1000 -0.0904 -0.2418
 4924TIP3    H136407   6.788   3.797   1.530 -0.3305 -1.0112 -0.8507
 4924TIP3    H236408   6.698   3.819   1.650  0.7451  0.6140 -0.3056
 4925TIP3   OH236409   0.971   6.091   8.207  0.4905 -0.0764 -0.0756
 4925TIP3    H136410   1.028   6.144   8.152  0.8434 -0.0465  0.3136
 4925TIP3    H236411   0.961   6.008   8.160 -0.1365  0.3643 -0.7294
 4926TIP3   OH236412   3.927   5.025   8.765  0.6114  0.2672  0.5331
 4926TIP3    H136413   3.926   4.936   8.801  0.4146 -0.5406 -1.3927
 4926TIP3    H236414   4.017   5.054   8.778  1.2822 -1.0772 -0.7699
 4927TIP3   OH236415   2.347   0.083   8.570 -0.1042  0.5649  0.2846
 4927TIP3    H136416   2.385   0.068   8.657  0.8717  1.2347 -0.0090
 4927TIP3    H236417   2.422   0.109   8.515 -0.6983  0.1073 -0.7721
 4928TIP3   OH236418   4.383   1.670   7.136  0.1600  0.8125  0.0751
 4928TIP3    H136419   4.308   1.726   7.155  1.1102  1.9568  0.6472
 4928TIP3    H236420   4.370   1.641   7.046 -0.9882  0.9244  0.1885
 4929TIP3   OH236421   0.468   2.947   8.659  0.5643 -0.0151 -0.6131
 4929TIP3    H136422   0.513   2.902   8.731 -1.2218 -1.2508 -0.1964
 4929TIP3    H236423   0.528   2.940   8.585  1.8591  0.0830  0.3957
 4930TIP3   OH236424   1.374   2.399   8.210  0.1834  0.1817  0.0847
 4930TIP3    H136425   1.419   2.318   8.185 -0.9684 -0.5432  0.2822
 4930TIP3    H236426   1.387   2.457   8.135  3.1038  0.7385  0.9249
 4931TIP3   OH236427   5.526   1.399   6.240  0.1333 -0.3865  0.4345
 4931TIP3    H136428   5.558   1.314   6.269 -0.7623 -0.4680  1.2837
 4931TIP3    H236429   5.444   1.411   6.289 -1.7189 -0.6890 -2.3764
 4932TIP3   OH236430   4.238   4.702   6.977  0.1537 -0.8783 -0.1301
 4932TIP3    H136431   4.161   4.669   7.023  0.9921 -1.6929  0.7164
 4932TIP3    H236432   4.248   4.642   6.902 -1.5016  0.7347 -1.7677
 4933TIP3   OH236433   1.548   4.107   7.014 -0.3067  0.6003 -0.0553
 4933TIP3    H136434   1.571   4.014   7.015 -0.3465  0.5933  0.2317
 4933TIP3    H236435   1.455   4.109   7.034 -0.1780  0.7375  0.5508
 4934TIP3   OH236436   5.862   4.905   8.743 -0.0501 -0.0698 -0.5213
 4934TIP3    H136437   5.939   4.947   8.703  0.7726 -1.9293 -0.9671
 4934TIP3    H236438   5.839   4.963   8.816 -1.0025  2.9334 -2.9387
 4935TIP3   OH236439   1.338   2.552   2.419  0.0635  0.5651 -0.2586
 4935TIP3    H136440   1.338   2.497   2.498  0.5952  2.3325  1.0172
 4935TIP3    H236441   1.416   2.524   2.371  0.4890  0.4106  0.5106
 4936TIP3   OH236442   2.901   2.746   7.740  0.3372  0.5936 -0.5372
 4936TIP3    H136443   2.840   2.805   7.697  0.5269  0.7527 -0.5901
 4936TIP3    H236444   2.977   2.744   7.682  0.4470  0.5191 -0.3924
 4937TIP3   OH236445   2.583   6.516   2.270 -0.5169 -0.4248  0.3911
 4937TIP3    H136446   2.655   6.536   2.330 -1.8077 -0.7709  2.1265
 4937TIP3    H236447   2.517   6.582   2.290 -0.0872  0.9873 -2.3981
 4938TIP3   OH236448   0.073   1.119   1.288 -0.2950  0.5102  0.2306
 4938TIP3    H136449  -0.008   1.109   1.337  0.3978  0.6958  1.4771
 4938TIP3    H236450   0.130   1.050   1.322  0.4400  1.0888  0.2078
 4939TIP3   OH236451   1.552   6.530   7.766 -0.5135 -0.0333  0.4583
 4939TIP3    H136452   1.589   6.463   7.709  0.1880  1.1951 -0.5862
 4939TIP3    H236453   1.466   6.496   7.790 -0.6783 -0.7518 -1.0505
 4940TIP3   OH236454   1.034   2.003   8.147  0.6948 -0.0418 -0.2376
 4940TIP3    H136455   0.994   2.085   8.120 -2.2725 -0.9561  1.0616
 4940TIP3    H236456   1.005   1.939   8.081 -1.5874 -1.0597  1.6340
 4941TIP3   OH236457   2.692   1.373   0.191 -0.0416 -0.2818 -0.4158
 4941TIP3    H136458   2.630   1.373   0.264 -0.3673 -1.9343 -0.6617
 4941TIP3    H236459   2.745   1.451   0.205 -0.5506 -0.1954  1.1948
 4942TIP3   OH236460   2.054   5.880   0.433  0.3138 -0.1496  0.0069
 4942TIP3    H136461   2.145   5.906   0.448 -0.1912  1.4106  0.5558
 4942TIP3    H236462   2.025   5.848   0.518  0.1922 -0.1376 -0.0304
 4943TIP3   OH236463   3.556   2.840   0.295 -0.2743  0.3645 -0.3893
 4943TIP3    H136464   3.584   2.751   0.272  1.1125  0.8254 -0.5598
 4943TIP3    H236465   3.514   2.830   0.381  0.4912 -0.3543 -0.0874
 4944TIP3   OH236466   3.032   2.587   0.616 -0.4940 -0.3269  0.0018
 4944TIP3    H136467   3.057   2.625   0.700  0.3963 -0.5362 -0.1576
 4944TIP3    H236468   2.974   2.652   0.576 -0.1916  0.1825  0.3820
 4945TIP3   OH236469   1.306   2.734   8.619 -0.0199 -0.2584 -0.3489
 4945TIP3    H136470   1.268   2.801   8.675  2.1130  1.3505 -0.6969
 4945TIP3    H236471   1.388   2.710   8.662 -0.8160 -2.8793 -0.1135
 4946TIP3   OH236472   2.555   2.564   7.689  0.2271 -0.0915 -0.2488
 4946TIP3    H136473   2.491   2.634   7.677  0.4763  0.4546  1.3234
 4946TIP3    H236474   2.614   2.573   7.615  0.5455  1.7222  0.1657
 4947TIP3   OH236475   1.112   3.474   7.149 -0.2639  0.6227  0.4535
 4947TIP3    H136476   1.196   3.432   7.132 -0.2488  0.9158 -0.2640
 4947TIP3    H236477   1.050   3.425   7.095 -0.3182  1.2304 -0.0553
 4948TIP3   OH236478   3.270   3.855   8.777  0.1598 -0.2648 -0.1134
 4948TIP3    H136479   3.251   3.786   8.714 -1.1484 -0.4911  0.4925
 4948TIP3    H236480   3.193   3.912   8.773  0.2557 -0.0474  0.9495
 4949TIP3   OH236481   5.234   6.146   0.516  0.6069  0.1121  0.0243
 4949TIP3    H136482   5.166   6.138   0.449  1.2263  2.3617 -0.9926
 4949TIP3    H236483   5.188   6.181   0.593  0.4627  0.9019 -0.4089
 4950TIP3   OH236484   5.859   0.360   0.671  0.0599 -0.4950 -0.5323
 4950TIP3    H136485   5.916   0.322   0.604  1.9267  0.3305  0.5147
 4950TIP3    H236486   5.848   0.289   0.735 -0.0571 -0.6468 -0.7197
 4951TIP3   OH236487   0.712   0.359   2.208  0.0351 -0.2695  0.6022
 4951TIP3    H136488   0.754   0.307   2.277 -0.9430  0.0541  1.4750
 4951TIP3    H236489   0.741   0.448   2.225  0.0901 -0.2440  0.3674
 4952TIP3   OH236490   1.044   2.735   1.139  0.0538 -0.1718  0.3059
 4952TIP3    H136491   1.067   2.643   1.154  0.4072 -0.2004 -0.3742
 4952TIP3    H236492   1.043   2.773   1.227 -1.3044 -1.0819  0.7213
 4953TIP3   OH236493   6.661   0.255   0.812 -0.6504 -0.0018  0.1874
 4953TIP3    H136494   6.697   0.174   0.849 -1.5856 -0.9764 -0.9405
 4953TIP3    H236495   6.736   0.300   0.774 -0.2681 -0.9520 -0.2288
 4954TIP3   OH236496   4.536   2.428   1.971  0.0015  0.3353 -0.8403
 4954TIP3    H136497   4.540   2.335   1.951  0.1743  0.5599 -1.9209
 4954TIP3    H236498   4.479   2.435   2.048  0.9450 -0.7659 -0.0106
 4955TIP3   OH236499   0.768   0.408   1.048 -0.9212  0.1141 -0.6052
 4955TIP3    H136500   0.798   0.499   1.043  0.9707 -0.4820 -0.8311
 4955TIP3    H236501   0.841   0.356   1.013 -2.1667 -1.4706 -0.9970
 4956TIP3   OH236502   0.218   2.374   6.265  0.3225  0.5325 -0.5620
 4956TIP3    H136503   0.243   2.282   6.274 -1.2422  0.1374 -0.0074
 4956TIP3    H236504   0.287   2.422   6.310  0.4131 -0.4788  0.4121
 4957TIP3   OH236505   4.924   5.951   7.757  0.1801 -0.2145  0.1985
 4957TIP3    H136506   4.991   5.885   7.734 -0.0702 -0.2662 -0.4092
 4957TIP3    H236507   4.892   5.923   7.842 -1.8939 -2.5286 -1.1913
 4958TIP3   OH236508   4.803   0.678   0.031 -0.1007 -0.4296  0.3573
 4958TIP3    H136509   4.835   0.612  -0.030  1.0892  0.9268 -0.5680
 4958TIP3    H236510   4.842   0.654   0.115 -0.4160 -1.4004  0.2321
 4959TIP3   OH236511   3.000   2.172   2.352 -0.2437 -0.4154  0.0095
 4959TIP3    H136512   3.093   2.195   2.352 -0.6302  1.2312 -0.1044
 4959TIP3    H236513   2.983   2.142   2.441  0.2579 -0.1570  0.1974
 4960TIP3   OH236514   4.816   1.904   8.466  0.0948 -0.1869 -0.2480
 4960TIP3    H136515   4.873   1.980   8.452 -1.4776  0.8419 -1.3961
 4960TIP3    H236516   4.772   1.891   8.382 -4.0191  1.3692  1.4036
 4961TIP3   OH236517   5.639   1.215   2.028 -0.2425  0.2332 -0.5007
 4961TIP3    H136518   5.575   1.158   2.072 -2.3586  2.0387 -1.1135
 4961TIP3    H236519   5.602   1.232   1.942  1.3393  0.9737 -1.0819
 4962TIP3   OH236520   2.345   5.398   7.381  0.2113 -0.0760 -0.2262
 4962TIP3    H136521   2.437   5.408   7.406  0.4302 -2.9396  0.5051
 4962TIP3    H236522   2.301   5.472   7.422  1.8912  0.1857  1.2449
 4963TIP3   OH236523   0.620   1.863   0.952 -0.1009  0.2059  0.3024
 4963TIP3    H136524   0.712   1.838   0.959 -0.2531 -0.8735 -0.9971
 4963TIP3    H236525   0.591   1.873   1.042  1.2924  0.6130  0.7378
 4964TIP3   OH236526   0.597   2.338   8.368  0.0098 -0.4369 -0.3803
 4964TIP3    H136527   0.602   2.412   8.429  2.1236  0.1569 -1.1811
 4964TIP3    H236528   0.529   2.364   8.305 -1.5400 -0.6481  1.1407
 4965TIP3   OH236529   4.611   5.241   7.578 -0.6490 -0.7571  0.0285
 4965TIP3    H136530   4.545   5.263   7.512 -0.8307 -1.0269  0.1171
 4965TIP3    H236531   4.560   5.222   7.657 -0.3449  2.8237  1.2719
 4966TIP3   OH236532   6.681   3.222   1.454 -0.0608 -0.7316 -0.5287
 4966TIP3    H136533   6.676   3.213   1.359  1.5643 -1.5007 -0.5687
 4966TIP3    H236534   6.707   3.313   1.468  0.7647 -0.9106 -0.8734
 4967TIP3   OH236535   4.136   5.120   0.574 -1.2458  0.1549  0.2721
 4967TIP3    H136536   4.175   5.125   0.486 -1.4872  0.2112  0.1684
 4967TIP3    H236537   4.081   5.198   0.580 -1.0420  0.2786  0.5663
 4968TIP3   OH236538   3.019   6.110   2.166 -0.4263 -0.2646 -0.8608
 4968TIP3    H136539   2.949   6.172   2.145  0.0582  1.3730  1.8591
 4968TIP3    H236540   2.983   6.057   2.237  0.8094  0.1068  0.0669
 4969TIP3   OH236541   2.289   0.846   7.605 -0.1064  0.0656 -0.2415
 4969TIP3    H136542   2.296   0.752   7.618  2.0323  0.3416  1.1620
 4969TIP3    H236543   2.263   0.880   7.690  0.2937  0.8469 -0.4249
 4970TIP3   OH236544   6.468   4.145   8.133 -0.1687 -0.1388 -0.1928
 4970TIP3    H136545   6.508   4.060   8.152 -1.2138 -0.8814 -1.1877
 4970TIP3    H236546   6.388   4.145   8.185 -0.1256  0.2802 -0.1263
 4971TIP3   OH236547   6.258   1.061   0.791  0.6847 -0.1856 -0.3237
 4971TIP3    H136548   6.213   1.144   0.809  0.1948 -0.6263  0.5720
 4971TIP3    H236549   6.198   0.994   0.824  1.6974 -0.8239  0.2827
 4972TIP3   OH236550   2.290   5.108   7.308 -0.7600  0.5220 -0.0689
 4972TIP3    H136551   2.305   5.191   7.352  0.6805  0.8536 -1.1220
 4972TIP3    H236552   2.367   5.054   7.330 -1.6483 -0.5244  0.5669
 4973TIP3   OH236553   0.016   2.608   2.190  0.1383 -0.2528  0.0184
 4973TIP3    H136554   0.078   2.588   2.120  1.2326 -1.3288  1.2330
 4973TIP3    H236555   0.067   2.597   2.270 -1.0622  1.0002  1.0015
 4974TIP3   OH236556   1.499   0.646   1.792  0.5711 -0.4290 -0.5784
 4974TIP3    H136557   1.566   0.579   1.782  1.4860  0.4576 -0.5765
 4974TIP3    H236558   1.511   0.703   1.716  2.1344  1.6986  1.1306
 4975TIP3   OH236559   5.141   2.119   0.907 -0.7262 -0.8552 -0.1265
 4975TIP3    H136560   5.167   2.080   0.823 -0.1198  0.3843 -0.5398
 4975TIP3    H236561   5.085   2.052   0.948 -1.6008 -1.2292 -1.8155
 4976TIP3   OH236562   1.546   0.429   2.185 -0.2158  0.1418 -0.3393
 4976TIP3    H136563   1.492   0.480   2.124 -0.4067  1.8334  1.1764
 4976TIP3    H236564   1.528   0.338   2.162 -1.1930  0.7111 -2.0153
 4977TIP3   OH236565   1.062   1.974   8.443  0.3767  0.3424  0.4368
 4977TIP3    H136566   1.106   1.889   8.444  0.0936  0.1957  0.5256
 4977TIP3    H236567   1.025   1.980   8.355  0.7562  0.5644  0.2859
 4978TIP3   OH236568   4.389   6.785   8.000 -0.6378  0.3775 -0.0123
 4978TIP3    H136569   4.344   6.826   7.926 -2.7010  0.8539  1.4232
 4978TIP3    H236570   4.354   6.696   8.003 -1.6880  0.8003  1.2227
 4979TIP3   OH236571   4.835   0.645   7.579  0.0951  0.0503 -0.5568
 4979TIP3    H136572   4.854   0.672   7.669 -0.3315 -0.0941 -0.4213
 4979TIP3    H236573   4.895   0.572   7.563  0.1463  0.0522 -0.3748
 4980TIP3   OH236574   5.505   0.401   2.258 -0.5123  0.0154  0.1068
 4980TIP3    H136575   5.544   0.440   2.336 -0.6238 -0.7227  0.5334
 4980TIP3    H236576   5.491   0.475   2.199 -2.1615  0.8820  1.4955
 4981TIP3   OH236577   2.580   5.620   0.714 -0.0434 -0.5514 -0.3397
 4981TIP3    H136578   2.514   5.633   0.783  0.5384  0.7838 -0.0114
 4981TIP3    H236579   2.594   5.525   0.713 -0.4522 -0.6535  1.0187
 4982TIP3   OH236580   2.616   3.937   8.729  0.5368  0.3922  0.4569
 4982TIP3    H136581   2.600   3.980   8.813  0.9838 -0.0210  0.7593
 4982TIP3    H236582   2.675   3.865   8.750 -0.1481 -0.3301 -0.0540
 4983TIP3   OH236583   6.218   1.509   6.870  0.2273 -0.5089  0.3172
 4983TIP3    H136584   6.244   1.486   6.780 -0.0811 -1.1771  0.3915
 4983TIP3    H236585   6.253   1.438   6.924  0.3963 -0.1164  0.7291
 4984TIP3   OH236586   3.903   1.947   2.020 -0.4698 -0.1876 -0.6247
 4984TIP3    H136587   3.924   1.862   2.060 -0.8467  0.8008  1.8769
 4984TIP3    H236588   3.985   1.997   2.026 -0.1013 -0.4732 -2.5516
 4985TIP3   OH236589   1.097   5.702   8.709  0.4465  0.1220 -0.1513
 4985TIP3    H136590   1.181   5.733   8.745  0.8450  0.2146 -1.1457
 4985TIP3    H236591   1.044   5.683   8.787  0.6635  2.0054  0.5230
 4986TIP3   OH236592   5.278   1.829   1.222  0.2641  0.3383  0.4204
 4986TIP3    H136593   5.195   1.871   1.245 -0.7140 -1.7286  0.8718
 4986TIP3    H236594   5.287   1.757   1.284  1.7320 -0.3218 -0.4913
 4987TIP3   OH236595   1.897   0.157   7.799  0.0233  0.2137 -0.4753
 4987TIP3    H136596   1.830   0.095   7.829 -0.8429  0.8874 -0.9575
 4987TIP3    H236597   1.923   0.124   7.713  0.4837 -0.1731 -0.1917
 4988TIP3   OH236598   4.140   2.151   7.393  0.3646  0.2827 -0.4915
 4988TIP3    H136599   4.106   2.231   7.354 -0.6791 -0.2297 -0.6696
 4988TIP3    H236600   4.095   2.144   7.477  1.8353  0.8359  0.3866
 4989TIP3   OH236601   2.377   6.226   6.735 -0.0637  0.1573 -0.1484
 4989TIP3    H136602   2.289   6.192   6.719  0.7905 -1.5962 -1.3323
 4989TIP3    H236603   2.419   6.226   6.649  1.4910 -0.1889  0.5878
 4990TIP3   OH236604   0.303   1.489   8.040 -0.1678 -0.1133 -0.0151
 4990TIP3    H136605   0.327   1.472   8.131  0.0705  0.4430  0.0279
 4990TIP3    H236606   0.217   1.448   8.030 -0.1611 -0.2449  0.4352
 4991TIP3   OH236607   1.040   4.790   0.128  0.4237 -0.2636  0.1044
 4991TIP3    H136608   0.949   4.764   0.120  0.2069  0.9547 -2.1152
 4991TIP3    H236609   1.082   4.755   0.050  2.2296 -1.9632  1.7149
 4992TIP3   OH236610   6.526   1.339   8.251  0.4196 -0.5930  0.3950
 4992TIP3    H136611   6.579   1.300   8.320  2.2416 -0.4093 -0.8316
 4992TIP3    H236612   6.507   1.427   8.282 -1.2977 -1.4178  1.9037
 4993TIP3   OH236613   2.086   2.004   0.126  0.0936 -0.0976 -0.0560
 4993TIP3    H136614   2.107   2.045   0.211 -0.3098  0.0219 -0.0130
 4993TIP3    H236615   2.026   2.066   0.084 -0.0003 -0.3342 -0.2707
 4994TIP3   OH236616   6.793   2.906   2.374  0.5133  0.6685 -0.4182
 4994TIP3    H136617   6.867   2.918   2.313 -0.7301 -0.8075 -2.3352
 4994TIP3    H236618   6.761   2.818   2.355 -1.0058  0.8184  1.2419
 4995TIP3   OH236619   0.266   0.476   1.793  0.3885 -0.0549 -0.8875
 4995TIP3    H136620   0.282   0.541   1.862 -1.0525  0.5931 -1.1121
 4995TIP3    H236621   0.352   0.458   1.757  1.1921 -0.4137  1.0679
 4996TIP3   OH236622   2.331   5.514   7.114 -0.1611  0.2670 -0.0921
 4996TIP3    H136623   2.265   5.583   7.119 -1.2778 -0.7566 -0.1777
 4996TIP3    H236624   2.347   5.490   7.206 -0.3484  0.1371 -0.0903
 4997TIP3   OH236625   0.868   0.604   1.975  0.0401  0.2476  0.6842
 4997TIP3    H136626   0.788   0.564   2.010  0.9360 -3.2701 -0.8461
 4997TIP3    H236627   0.939   0.557   2.018  1.3294  2.1161  0.7364
 4998TIP3   OH236628   0.267   5.733   8.737  0.8088  0.0441 -0.1603
 4998TIP3    H136629   0.320   5.763   8.664  0.2605  0.7659 -0.2712
 4998TIP3    H236630   0.191   5.791   8.737 -0.8171 -1.9655 -1.0007
 4999TIP3   OH236631   4.881   2.456   6.530 -0.4118 -0.1457  0.1775
 4999TIP3    H136632   4.811   2.390   6.530 -0.4297 -0.1265  0.4412
 4999TIP3    H236633   4.861   2.512   6.604 -0.1756 -0.0750  0.1874
 5000TIP3   OH236634   2.494   1.778   7.027 -0.0511  0.4106  0.2650
 5000TIP3    H136635   2.452   1.785   6.941  3.2239  0.2485 -1.5119
 5000TIP3    H236636   2.431   1.817   7.088 -1.9191  1.8627 -2.3918
 5001TIP3   OH236637   2.260   1.038   2.718  0.4032  0.2920 -0.2468
 5001TIP3    H136638   2.243   1.078   2.633 -0.2819  0.4852 -0.0324
 5001TIP3    H236639   2.201   0.962   2.721 -2.0955  2.1158  1.3244
 5002TIP3   OH236640   0.475   1.987   0.511  0.2685 -0.8737 -0.2231
 5002TIP3    H136641   0.456   1.935   0.589 -2.0577 -0.5582 -0.5204
 5002TIP3    H236642   0.489   1.922   0.441  0.9711 -1.1248  0.1394
 5003TIP3   OH236643   4.799   4.648   0.347  0.0029 -0.6250  0.2484
 5003TIP3    H136644   4.709   4.616   0.356  0.8386 -2.9533  1.1454
 5003TIP3    H236645   4.850   4.595   0.408  1.8278  1.4963  0.7048
 5004TIP3   OH236646   2.181   1.193   1.393 -0.1036 -0.1406 -0.1218
 5004TIP3    H136647   2.117   1.234   1.451  0.0488 -0.2192  0.1049
 5004TIP3    H236648   2.252   1.257   1.388  0.3311 -0.5533  0.5826
 5005TIP3   OH236649   5.907   4.640   6.736 -0.0316  0.2058  0.1549
 5005TIP3    H136650   5.983   4.625   6.680 -0.8323 -0.5514 -0.7450
 5005TIP3    H236651   5.930   4.719   6.786  1.0015  0.4673 -0.6956
 5006TIP3   OH236652   6.669   6.314   8.497 -0.3956 -0.0261 -0.3930
 5006TIP3    H136653   6.633   6.310   8.586  0.2914 -0.4254 -0.1246
 5006TIP3    H236654   6.636   6.397   8.462 -1.8250 -0.5213 -0.2830
 5007TIP3   OH236655   3.766   2.103   1.265  0.2651 -0.0468  0.0261
 5007TIP3    H136656   3.734   2.164   1.332  1.5692  1.2233 -0.4727
 5007TIP3    H236657   3.714   2.024   1.279 -1.3540  1.0955  0.8072
 5008TIP3   OH236658   5.481   4.667   6.715  0.2170 -0.5337 -0.3010
 5008TIP3    H136659   5.449   4.705   6.633 -0.2485 -0.1163  0.0663
 5008TIP3    H236660   5.456   4.731   6.782 -0.5577 -1.4665  0.3310
 5009TIP3   OH236661   2.524   2.385   6.861 -0.1743  0.1738  0.1903
 5009TIP3    H136662   2.458   2.416   6.799  0.1193 -0.4329 -0.4411
 5009TIP3    H236663   2.502   2.293   6.876 -0.4681  0.4117  1.2959
 5010TIP3   OH236664   0.286   2.193   0.689 -0.4263 -0.4078 -0.0384
 5010TIP3    H136665   0.339   2.272   0.693 -1.4999  0.3346 -0.1411
 5010TIP3    H236666   0.301   2.150   0.774 -1.2723  0.8866  0.8115
 5011TIP3   OH236667   6.546   5.773   7.887 -0.1937 -0.1880  0.0749
 5011TIP3    H136668   6.528   5.739   7.974 -0.0749  4.4628  2.1952
 5011TIP3    H236669   6.634   5.741   7.866 -0.8843 -2.7775  0.7478
 5012TIP3   OH236670   3.145   3.391   1.848  0.5284 -0.3344 -0.7452
 5012TIP3    H136671   3.113   3.333   1.917  1.0194 -0.5511 -0.7018
 5012TIP3    H236672   3.240   3.388   1.855  0.5993  2.8849  1.2943
 5013TIP3   OH236673   5.957   0.543   7.752  0.6793  0.3520 -0.3489
 5013TIP3    H136674   6.044   0.527   7.787  0.6400  0.1176 -0.3591
 5013TIP3    H236675   5.969   0.544   7.657  0.6828  0.3886 -0.3481
 5014TIP3   OH236676   4.717   2.537   7.500 -0.0096 -0.3360  0.2380
 5014TIP3    H136677   4.673   2.453   7.486  0.2517 -0.4485  0.0744
 5014TIP3    H236678   4.723   2.575   7.413  0.4941 -0.4649  0.2135
 5015TIP3   OH236679   5.851   6.610   8.740 -0.0573 -0.1023  0.2006
 5015TIP3    H136680   5.884   6.663   8.813  1.0307 -0.4445 -0.0342
 5015TIP3    H236681   5.814   6.674   8.680 -0.1321  0.2627  0.6275
 5016TIP3   OH236682   3.283   3.340   8.543 -0.3593  0.2996  0.4717
 5016TIP3    H136683   3.336   3.292   8.479  1.5267  2.6514  0.1403
 5016TIP3    H236684   3.287   3.286   8.622  0.2645 -0.9068 -0.3444
 5017TIP3   OH236685   5.562   6.372   0.452  0.1041 -0.6723 -0.2957
 5017TIP3    H136686   5.541   6.440   0.517  2.1127 -1.6399  1.5090
 5017TIP3    H236687   5.495   6.381   0.385 -0.5130  2.1678  0.5681
 5018TIP3   OH236688   3.521   4.344   8.593  0.4364  0.0670  0.5258
 5018TIP3    H136689   3.608   4.327   8.629  1.9074 -0.1928 -2.7197
 5018TIP3    H236690   3.533   4.338   8.498 -2.0942  4.5298 -0.4062
 5019TIP3   OH236691   6.109   5.010   8.622  0.4717 -0.2896 -0.1146
 5019TIP3    H136692   6.137   5.100   8.604 -0.1981  0.0042  0.2827
 5019TIP3    H236693   6.179   4.974   8.678  0.5483  0.1149  0.0526
 5020TIP3   OH236694   3.179   3.132   8.256  0.6393  0.0763  0.0004
 5020TIP3    H136695   3.091   3.169   8.252  0.3932 -0.4710  0.2392
 5020TIP3    H236696   3.194   3.098   8.168  0.1606 -0.8199  0.2443
 5021TIP3   OH236697   2.132   1.046   1.982 -0.7105 -0.2715  0.9494
 5021TIP3    H136698   2.189   1.094   1.922 -0.8606  1.1602  1.8883
 5021TIP3    H236699   2.115   1.108   2.053  0.9991 -2.4712  3.5051
 5022TIP3   OH236700   6.114   1.452   1.388  0.5125 -0.1817  0.0760
 5022TIP3    H136701   6.177   1.380   1.385 -0.3718 -0.9580 -0.4170
 5022TIP3    H236702   6.097   1.474   1.296 -0.9236 -0.8881  0.1486
 5023TIP3   OH236703   0.567   1.206   0.206 -0.7619 -0.2282  0.6037
 5023TIP3    H136704   0.552   1.123   0.251  0.2334  0.3392  2.0777
 5023TIP3    H236705   0.628   1.253   0.263 -1.2626  1.4912 -0.2055
 5024TIP3   OH236706   1.216   0.288   6.401  0.4310 -0.2920 -0.0343
 5024TIP3    H136707   1.131   0.269   6.362 -0.8063  0.9050  1.9191
 5024TIP3    H236708   1.239   0.375   6.368 -0.0820  0.2450  1.0106
 5025TIP3   OH236709   2.621   0.112   1.317  0.8629 -0.0625  0.6568
 5025TIP3    H136710   2.686   0.043   1.331  0.8058 -1.1911 -3.3755
 5025TIP3    H236711   2.537   0.067   1.313  0.5303  0.5623  0.3570
 5026TIP3   OH236712   0.271   4.200   1.382  0.4686  0.6671  0.3800
 5026TIP3    H136713   0.261   4.257   1.458 -0.6760 -0.9994  1.5684
 5026TIP3    H236714   0.357   4.222   1.346  1.2471  1.2097  2.4197
 5027TIP3   OH236715   1.422   3.855   8.535 -0.2678 -0.1366  0.2415
 5027TIP3    H136716   1.342   3.880   8.582 -1.3653 -1.7648 -0.6740
 5027TIP3    H236717   1.445   3.769   8.571  0.7987  0.0898  0.1307
 5028TIP3   OH236718   5.318   4.951   1.481 -0.5763 -0.5239  0.0324
 5028TIP3    H136719   5.312   5.047   1.480 -1.3853 -0.4785 -3.4200
 5028TIP3    H236720   5.230   4.921   1.459 -0.4542 -2.1450  1.5025
 5029TIP3   OH236721   2.760   3.938   8.404  0.4870 -0.1464 -0.0575
 5029TIP3    H136722   2.678   3.924   8.451 -0.0105 -0.4220 -0.9730
 5029TIP3    H236723   2.749   4.022   8.360  0.2600 -0.6852 -1.0486
 5030TIP3   OH236724   4.467   5.158   7.781  0.9916 -0.3019 -0.1560
 5030TIP3    H136725   4.462   5.066   7.756 -0.7993  0.0283 -1.2302
 5030TIP3    H236726   4.382   5.176   7.822  1.3066  0.8801  0.0238
 5031TIP3   OH236727   5.692   1.342   0.449 -0.4349 -0.4924  0.0248
 5031TIP3    H136728   5.685   1.437   0.452  0.4582 -0.4388  0.8052
 5031TIP3    H236729   5.735   1.324   0.365  1.8283  0.0031  0.9772
 5032TIP3   OH236730   3.718   3.436   6.965 -0.1516  0.1331 -0.1981
 5032TIP3    H136731   3.761   3.439   6.880 -0.1594 -1.2585 -0.2631
 5032TIP3    H236732   3.629   3.406   6.945 -0.0526 -0.5277  0.3295
 5033TIP3   OH236733   2.131   4.763   0.048  0.4736 -0.2233 -0.2386
 5033TIP3    H136734   2.160   4.683   0.003 -1.6948 -0.8284 -0.7045
 5033TIP3    H236735   2.089   4.732   0.127  0.7778  0.5763  0.2492
 5034TIP3   OH236736   5.631   2.346   0.062 -0.0889 -0.4670  0.3217
 5034TIP3    H136737   5.615   2.425   0.113  0.8167 -0.0361 -0.0340
 5034TIP3    H236738   5.568   2.282   0.096  0.8549 -0.3886  2.4070
 5035TIP3   OH236739   2.100   6.455   7.280  0.2828  0.1362 -0.3288
 5035TIP3    H136740   2.180   6.489   7.241  0.3190 -0.4373 -0.7729
 5035TIP3    H236741   2.085   6.510   7.357  1.9033 -0.6828  0.6127
 5036TIP3   OH236742   3.233   4.110   0.467 -0.5558  0.5014  0.0268
 5036TIP3    H136743   3.148   4.078   0.436 -0.6459  0.0763  0.6940
 5036TIP3    H236744   3.216   4.198   0.499 -0.3674  1.1433 -1.5387
 5037TIP3   OH236745   0.299   3.140   1.916 -0.2525  0.4102  0.1941
 5037TIP3    H136746   0.241   3.215   1.923 -2.4031 -0.6954 -3.3285
 5037TIP3    H236747   0.326   3.138   1.824  1.0878 -2.1268  0.5447
 5038TIP3   OH236748   6.231   6.680   0.527 -0.3585 -0.0243  0.0728
 5038TIP3    H136749   6.323   6.684   0.552  0.1986  0.1159 -1.8745
 5038TIP3    H236750   6.209   6.587   0.531  0.6164 -0.3798 -1.8744
 5039TIP3   OH236751   5.323   2.807   1.126  0.0938 -0.0173  0.0208
 5039TIP3    H136752   5.350   2.882   1.180 -1.6746  1.6348 -1.2411
 5039TIP3    H236753   5.401   2.753   1.118  1.4917  1.7990  0.8588
 5040TIP3   OH236754   6.804   6.027   1.467 -0.1140  0.0419  0.4032
 5040TIP3    H136755   6.843   6.054   1.551 -0.5910 -1.4911  1.1414
 5040TIP3    H236756   6.725   5.980   1.491 -0.5692  0.0720 -0.9553
 5041TIP3   OH236757   5.219   4.326   8.206  0.2046  0.3431 -0.2255
 5041TIP3    H136758   5.152   4.333   8.274  0.7516  0.9109  0.2691
 5041TIP3    H236759   5.194   4.392   8.141  2.1554  3.1633  1.6478
 5042TIP3   OH236760   4.795   2.615   7.225 -0.2136 -0.0156  0.2937
 5042TIP3    H136761   4.827   2.559   7.155  2.0959  0.9249  0.5127
 5042TIP3    H236762   4.709   2.644   7.195 -1.3681 -3.2881  0.0233
 5043TIP3   OH236763   6.125   5.288   0.092  0.2633  0.2431  0.1642
 5043TIP3    H136764   6.124   5.249   0.005  0.0010  1.8131 -0.5856
 5043TIP3    H236765   6.046   5.342   0.095  0.8112  1.0383  0.9581
 5044TIP3   OH236766   5.345   4.933   0.098 -0.7755 -0.9163  0.6326
 5044TIP3    H136767   5.345   4.919   0.193 -0.2284 -0.7664  0.6562
 5044TIP3    H236768   5.417   4.880   0.066 -0.1677  0.0017  0.4456
 5045TIP3   OH236769   4.101   3.274   7.651  0.1137  0.6332  0.8250
 5045TIP3    H136770   4.024   3.225   7.621 -0.1385  0.9786  0.9090
 5045TIP3    H236771   4.076   3.307   7.738 -0.0878  1.7478  0.3580
 5046TIP3   OH236772   6.270   4.443   8.230 -0.3647 -0.1402  0.0344
 5046TIP3    H136773   6.215   4.460   8.307 -1.0841 -2.0888  0.0061
 5046TIP3    H236774   6.315   4.361   8.251  0.9414  0.3251 -0.8373
 5047TIP3   OH236775   2.653   1.604   1.842 -0.3818  0.1232  0.6925
 5047TIP3    H136776   2.649   1.676   1.905 -1.0628 -0.8068  1.7774
 5047TIP3    H236777   2.744   1.577   1.842  0.0149  1.4058 -0.2455
 5048TIP3   OH236778   5.958   4.265   7.611 -0.3520 -0.3088  0.4029
 5048TIP3    H136779   5.951   4.311   7.695 -1.8593  1.5332 -0.6479
 5048TIP3    H236780   5.893   4.196   7.615 -1.0727  0.3618  0.4258
 5049TIP3   OH236781   1.994   5.996   7.706 -0.1242  0.2944  0.8292
 5049TIP3    H136782   1.989   6.092   7.705  1.2661  0.4006  0.0999
 5049TIP3    H236783   2.045   5.975   7.627 -0.5875 -1.0597  0.8777
 5050TIP3   OH236784   2.720   0.336   6.724 -0.4589 -0.3611 -0.4898
 5050TIP3    H136785   2.656   0.395   6.683  1.6367  2.3450 -0.1044
 5050TIP3    H236786   2.685   0.323   6.813 -1.5900 -0.7784 -0.9704
 5051TIP3   OH236787   2.693   5.388   1.526  0.7523 -0.3971 -0.3898
 5051TIP3    H136788   2.610   5.351   1.498  0.2920  0.1645  0.1935
 5051TIP3    H236789   2.671   5.476   1.558  1.3680 -0.6783  0.8901
 5052TIP3   OH236790   3.681   6.677   1.495  0.1080 -0.6223 -0.4117
 5052TIP3    H136791   3.645   6.593   1.524  3.4377 -1.8892  0.5568
 5052TIP3    H236792   3.742   6.654   1.425  1.0158  0.9763 -0.2074
 5053TIP3   OH236793   3.372   6.663   8.200  0.0773 -0.3512 -0.2702
 5053TIP3    H136794   3.381   6.641   8.107 -0.2534  0.2288 -0.4458
 5053TIP3    H236795   3.312   6.597   8.234 -0.1761 -0.2842 -0.5783
 5054TIP3   OH236796   1.712   5.750   8.159 -0.0104  0.6890 -0.2327
 5054TIP3    H136797   1.798   5.778   8.192 -0.7763  0.1039  2.5555
 5054TIP3    H236798   1.731   5.675   8.103  1.2315 -1.1788  2.4663
 5055TIP3   OH236799   1.968   5.581   1.619  0.5089  0.1507 -0.2488
 5055TIP3    H136800   2.002   5.495   1.593 -2.8722 -1.5927  0.5089
 5055TIP3    H236801   1.945   5.570   1.712  0.4620  2.0711  0.0044
 5056TIP3   OH236802   0.516   3.287   7.955  0.2239 -0.3269  0.0513
 5056TIP3    H136803   0.560   3.254   8.033  1.3609 -1.5398 -1.0482
 5056TIP3    H236804   0.587   3.309   7.894 -0.6281  0.7749 -0.5869
 5057TIP3   OH236805   5.061   0.476   7.534  0.3376  0.4613  0.0601
 5057TIP3    H136806   5.111   0.395   7.521 -0.5072  0.1021 -1.1168
 5057TIP3    H236807   5.126   0.541   7.560  1.1059 -0.4708  0.5122
 5058TIP3   OH236808   2.811   5.104   1.758 -0.6173  0.1000 -0.0353
 5058TIP3    H136809   2.878   5.165   1.728  0.2414 -0.6866  0.2065
 5058TIP3    H236810   2.850   5.062   1.835 -0.4386 -1.9818 -1.1632
 5059TIP3   OH236811   1.858   4.264   8.218 -0.1892  0.2476  0.4214
 5059TIP3    H136812   1.882   4.354   8.195 -0.7250 -0.0254 -1.3679
 5059TIP3    H236813   1.853   4.219   8.134 -1.4168 -1.0919  1.1764
 5060TIP3   OH236814   2.493   5.205   8.137  0.1870 -0.1861  0.6247
 5060TIP3    H136815   2.426   5.265   8.103  0.1124  0.2347  1.4595
 5060TIP3    H236816   2.555   5.194   8.065 -0.9397 -0.8445 -0.2809
 5061TIP3   OH236817   6.520   6.852   1.691 -0.6136  0.0285  0.5262
 5061TIP3    H136818   6.449   6.905   1.727 -0.7456  0.7826 -0.7814
 5061TIP3    H236819   6.488   6.762   1.697 -1.5464  0.3355  0.2663
 5062TIP3   OH236820   2.708   4.724   6.949  0.4578  0.4190 -0.1843
 5062TIP3    H136821   2.638   4.769   6.902  0.6681  1.2937  0.3094
 5062TIP3    H236822   2.776   4.711   6.883  0.3511  0.7513 -0.3639
 5063TIP3   OH236823   3.859   2.232   7.909 -0.3267 -0.0953 -0.4804
 5063TIP3    H136824   3.876   2.326   7.913  0.8890 -0.3443  1.1156
 5063TIP3    H236825   3.783   2.218   7.966 -0.5500 -0.0856 -0.7712
 5064TIP3   OH236826   1.263   0.220   7.968  0.6601 -0.3114 -0.0944
 5064TIP3    H136827   1.255   0.304   8.014 -0.1494  1.0339 -2.5420
 5064TIP3    H236828   1.356   0.211   7.950  1.0512 -1.0293  1.9641
 5065TIP3   OH236829   0.312   2.983   7.287 -0.5062 -0.0100  0.8883
 5065TIP3    H136830   0.300   3.021   7.374 -0.5886  3.3239 -0.4097
 5065TIP3    H236831   0.276   3.049   7.227  2.5487 -0.5296 -1.8354
 5066TIP3   OH236832   2.119   2.118   0.392 -0.6548 -0.3108 -0.2318
 5066TIP3    H136833   2.198   2.083   0.434 -0.0880 -0.1347 -1.1254
 5066TIP3    H236834   2.070   2.158   0.464 -0.8720 -2.0785  0.6661
 5067TIP3   OH236835   4.033   6.387   8.210  0.0130  0.6158 -0.0314
 5067TIP3    H136836   3.966   6.353   8.269 -0.7842  0.2501 -1.1204
 5067TIP3    H236837   4.048   6.316   8.147  1.3712  0.7225  0.1293
 5068TIP3   OH236838   5.710   0.778   0.994 -0.3366  0.4530  0.1089
 5068TIP3    H136839   5.711   0.721   0.918 -0.8802 -0.8714  1.0539
 5068TIP3    H236840   5.710   0.867   0.958 -1.7392 -0.1364 -1.4482
 5069TIP3   OH236841   2.071   1.206   0.674 -0.4313  0.5705  0.3235
 5069TIP3    H136842   2.071   1.296   0.641  0.5411  0.4045 -0.1538
 5069TIP3    H236843   2.134   1.207   0.746  0.6461 -0.0433 -0.5943
 5070TIP3   OH236844   2.883   0.313   7.236  0.2589 -0.6931  0.0976
 5070TIP3    H136845   2.865   0.375   7.306  2.6096 -2.1544  2.1432
 5070TIP3    H236846   2.893   0.367   7.158  0.2667  1.2590  1.3955
 5071TIP3   OH236847   4.200   4.599   0.401 -0.4572 -0.2569 -0.5293
 5071TIP3    H136848   4.227   4.547   0.477  1.8080 -0.9410 -1.6844
 5071TIP3    H236849   4.249   4.681   0.409 -1.7430  0.4909 -0.2366
 5072TIP3   OH236850   4.318   6.359   7.875  0.2593  0.5226 -0.9160
 5072TIP3    H136851   4.331   6.389   7.965 -1.6178 -0.0681 -0.4032
 5072TIP3    H236852   4.395   6.306   7.856  0.5166  0.3756  0.4677
 5073TIP3   OH236853   1.546   4.737   7.120  0.3465 -0.0617  0.2628
 5073TIP3    H136854   1.627   4.698   7.085  0.9918  0.6002  0.9775
 5073TIP3    H236855   1.575   4.785   7.197 -1.0617 -1.7018  1.9145
 5074TIP3   OH236856   3.786   5.588   8.271 -0.5210  0.3036 -0.3718
 5074TIP3    H136857   3.880   5.567   8.274 -0.3230  0.8093 -1.9706
 5074TIP3    H236858   3.745   5.509   8.235 -0.5690  0.4594 -0.6588
 5075TIP3   OH236859   5.343   1.090   6.665 -0.0954  0.8050 -0.0598
 5075TIP3    H136860   5.405   1.151   6.625  0.1437  0.3078 -0.4562
 5075TIP3    H236861   5.260   1.138   6.666 -0.4574  0.3817 -2.4452
 5076TIP3   OH236862   1.535   3.158   7.263  0.6838 -0.1183  0.2320
 5076TIP3    H136863   1.587   3.234   7.238  1.4092 -1.1389 -1.5876
 5076TIP3    H236864   1.514   3.115   7.180 -2.6881 -0.0512  0.8733
 5077TIP3   OH236865   5.698   5.163   8.614 -0.2849  0.2393 -0.0669
 5077TIP3    H136866   5.719   5.086   8.667 -1.9158  0.7804  1.4686
 5077TIP3    H236867   5.700   5.236   8.676  0.5174  1.3554 -1.3490
 5078TIP3   OH236868   6.507   6.742   0.558  0.7799  0.4082 -0.6467
 5078TIP3    H136869   6.589   6.788   0.575  0.9512  0.7433 -2.2110
 5078TIP3    H236870   6.532   6.649   0.557  1.3109  0.5447 -1.8442
 5079TIP3   OH236871   1.400   6.199   2.696  0.0471  0.3056 -0.1667
 5079TIP3    H136872   1.451   6.128   2.736 -0.8731  0.4510  1.3741
 5079TIP3    H236873   1.397   6.267   2.764 -1.1642  0.7817 -0.6718
 5080TIP3   OH236874   3.524   4.137   0.518 -0.2249 -0.5046 -0.0380
 5080TIP3    H136875   3.434   4.136   0.484 -0.6700 -0.4850  1.0857
 5080TIP3    H236876   3.578   4.163   0.444 -1.2456  0.2281 -0.5444
 5081TIP3   OH236877   4.738   1.110   8.142  0.3562 -0.0904 -0.4762
 5081TIP3    H136878   4.653   1.151   8.132  0.5734  0.8461  1.1219
 5081TIP3    H236879   4.735   1.067   8.228  1.9508  1.2138  0.2869
 5082TIP3   OH236880   1.751   5.357   2.322 -0.1532 -0.3930  0.4686
 5082TIP3    H136881   1.743   5.398   2.408  0.4082 -0.6645  0.6557
 5082TIP3    H236882   1.786   5.269   2.340 -0.2254 -0.5255 -0.0182
 5083TIP3   OH236883   5.003   6.168   8.460 -0.1997 -0.8038  0.5467
 5083TIP3    H136884   5.057   6.093   8.434 -1.7299 -2.8371  2.7196
 5083TIP3    H236885   4.914   6.133   8.465 -0.9638  1.1325  1.7367
 5084TIP3   OH236886   1.980   4.230   6.859 -0.6622  0.0173 -0.0590
 5084TIP3    H136887   2.025   4.308   6.828 -0.9659  0.0666 -0.3878
 5084TIP3    H236888   1.889   4.258   6.870 -0.7795 -0.2977 -0.2133
 5085TIP3   OH236889   5.718   1.166   7.776  0.0935  0.0927 -0.2618
 5085TIP3    H136890   5.686   1.082   7.744  0.4263  0.1918 -0.8895
 5085TIP3    H236891   5.680   1.176   7.863 -1.2804  0.0331 -0.8307
 5086TIP3   OH236892   0.939   4.431   1.977  0.1290 -0.1160  0.1297
 5086TIP3    H136893   1.019   4.402   1.932 -0.1833 -1.4209  0.3637
 5086TIP3    H236894   0.923   4.518   1.943 -0.2713 -1.1340 -2.5592
 5087TIP3   OH236895   2.487   0.675   6.957  0.3540  0.6278 -0.2299
 5087TIP3    H136896   2.416   0.636   6.904  0.0464  1.4878 -0.4752
 5087TIP3    H236897   2.566   0.631   6.926  0.2031  1.2152 -1.5515
 5088TIP3   OH236898   6.815   6.842   2.240  0.4578  0.2453 -0.6522
 5088TIP3    H136899   6.905   6.870   2.253  0.7145 -1.2088  1.0594
 5088TIP3    H236900   6.762   6.904   2.290  0.4186  1.3416 -1.9824
 5089TIP3   OH236901   4.495   4.568   1.544  0.0795 -0.6512  0.1380
 5089TIP3    H136902   4.448   4.613   1.474  0.0821 -0.7539  0.0698
 5089TIP3    H236903   4.573   4.622   1.559 -0.8640  0.4398  1.3946
 5090TIP3   OH236904   4.775   5.664   2.037  0.3551 -0.4730  0.0840
 5090TIP3    H136905   4.702   5.718   2.069  1.0988  1.1828 -0.8510
 5090TIP3    H236906   4.799   5.609   2.112 -1.2386 -0.4004  0.6948
 5091TIP3   OH236907   0.416   5.670   7.615 -0.0843  0.5158  0.0167
 5091TIP3    H136908   0.356   5.744   7.612 -0.3849  0.2571 -0.5766
 5091TIP3    H236909   0.372   5.606   7.670  0.4732  1.0210  1.0797
 5092TIP3   OH236910   0.502   2.318   1.061 -0.0387 -0.1496 -0.3761
 5092TIP3    H136911   0.477   2.408   1.042  0.5300  0.0737 -0.1053
 5092TIP3    H236912   0.455   2.296   1.142 -0.6280 -0.2984 -0.7546
 5093TIP3   OH236913   5.599   3.848   8.369 -0.0778  0.1804 -0.0859
 5093TIP3    H136914   5.663   3.828   8.300  0.1037  0.4559 -0.0011
 5093TIP3    H236915   5.530   3.783   8.357  0.9787 -1.1645  0.8247
 5094TIP3   OH236916   1.236   5.590   0.265 -0.9058 -0.2422  0.2838
 5094TIP3    H136917   1.158   5.611   0.215 -0.1730 -1.1916 -1.3393
 5094TIP3    H236918   1.214   5.511   0.314 -1.2093 -0.0536  0.4515
 5095TIP3   OH236919   6.793   3.350   0.564  0.2112  0.0849 -0.2002
 5095TIP3    H136920   6.759   3.340   0.475  0.2346 -1.5564 -0.0567
 5095TIP3    H236921   6.720   3.327   0.620  0.3572  0.5979  0.2081
 5096TIP3   OH236922   6.768   1.795   7.959 -0.4347  0.2579  0.0517
 5096TIP3    H136923   6.682   1.764   7.930  0.7391 -0.5307 -2.9235
 5096TIP3    H236924   6.825   1.783   7.883  2.3938  0.5149  1.9815
 5097TIP3   OH236925   3.713   1.971   7.478  0.2504 -0.7884 -0.3231
 5097TIP3    H136926   3.746   1.972   7.568  0.1880 -0.0112 -0.2999
 5097TIP3    H236927   3.673   2.057   7.466 -0.7875 -1.3085 -0.7149
 5098TIP3   OH236928   3.702   3.824   2.231 -0.0627  0.1065 -0.1838
 5098TIP3    H136929   3.611   3.852   2.228  0.2402  1.2706  0.4463
 5098TIP3    H236930   3.710   3.778   2.315  0.5010  2.3473  1.0678
 5099TIP3   OH236931   3.873   6.612   8.534 -0.4495 -0.0190 -0.4105
 5099TIP3    H136932   3.800   6.552   8.518  1.0397 -1.9825 -0.2763
 5099TIP3    H236933   3.901   6.638   8.446 -0.1799 -0.7389 -0.5488
 5100TIP3   OH236934   6.836   6.189   2.025  0.4724  0.8313  0.4263
 5100TIP3    H136935   6.797   6.119   2.077 -0.5248  0.7679 -0.3688
 5100TIP3    H236936   6.778   6.265   2.041  0.8828  1.1569  0.3862
 5101TIP3   OH236937   4.715   5.903   0.574  0.5490  0.4320  0.1897
 5101TIP3    H136938   4.730   5.853   0.493  0.5378  0.6337  0.0632
 5101TIP3    H236939   4.644   5.964   0.552  0.1618  0.1081  0.5169
 5102TIP3   OH236940   6.232   3.548   7.350  0.2334 -0.1939  0.6155
 5102TIP3    H136941   6.141   3.574   7.334  0.2037 -0.5022  0.2555
 5102TIP3    H236942   6.284   3.620   7.317  0.1666 -0.7574 -0.7818
 5103TIP3   OH236943   4.206   3.096   7.062 -0.2802  0.5740 -0.2138
 5103TIP3    H136944   4.257   3.070   6.985 -0.9519  0.2146 -0.5492
 5103TIP3    H236945   4.182   3.187   7.045 -2.4054 -0.1572 -1.5866
 5104TIP3   OH236946   4.181   4.012   7.806  0.4531 -0.4803 -0.4371
 5104TIP3    H136947   4.251   3.955   7.774  1.2330  0.2185 -0.0175
 5104TIP3    H236948   4.214   4.046   7.889  0.3229  1.1291 -1.0065
 5105TIP3   OH236949   4.121   1.722   7.480 -0.2454  0.1277  0.4686
 5105TIP3    H136950   4.026   1.725   7.496 -0.7917 -0.5732 -2.1012
 5105TIP3    H236951   4.139   1.630   7.464  0.7237  0.3652  0.1624
 5106TIP3   OH236952   0.015   1.568   8.049 -0.1036  0.9744 -0.1757
 5106TIP3    H136953  -0.071   1.547   8.012  0.0251 -0.1132  0.0921
 5106TIP3    H236954   0.009   1.661   8.073 -1.4979  0.7299  0.5924
 5107TIP3   OH236955   0.238   0.499   8.124 -0.1780  0.5792 -0.0673
 5107TIP3    H136956   0.239   0.454   8.040  1.4552 -3.8601  2.0116
 5107TIP3    H236957   0.156   0.471   8.165 -0.6655  2.1906  0.1082
 5108TIP3   OH236958   1.206   6.181   1.838 -0.0286 -0.2207  0.2675
 5108TIP3    H136959   1.124   6.135   1.854  0.1735 -0.7735 -0.2216
 5108TIP3    H236960   1.260   6.161   1.914 -0.3644  0.2050  0.6253
 5109TIP3   OH236961   3.680   5.956   2.113  0.1808 -0.3341 -0.0491
 5109TIP3    H136962   3.708   5.884   2.169 -1.3520 -1.0615 -0.1743
 5109TIP3    H236963   3.731   6.031   2.144  1.4787 -1.3459  0.3771
 5110TIP3   OH236964   4.485   5.102   1.440  0.2530 -0.0484 -0.6044
 5110TIP3    H136965   4.462   5.057   1.521 -0.6329 -0.1788 -0.9188
 5110TIP3    H236966   4.403   5.142   1.410  0.2562 -1.1051 -2.1189
 5111TIP3   OH236967   0.241   4.429   6.828  0.2736 -0.1330 -0.5432
 5111TIP3    H136968   0.205   4.342   6.843 -1.4369  0.5329 -0.4828
 5111TIP3    H236969   0.180   4.488   6.873  0.5439  1.1949 -1.8256
 5112TIP3   OH236970   1.915   6.763   0.664  0.0480 -0.0006  0.3408
 5112TIP3    H136971   1.872   6.679   0.679  0.6217 -0.2294  0.7325
 5112TIP3    H236972   1.849   6.828   0.689  0.1559 -0.3512  1.6211
 5113TIP3   OH236973   2.123   0.490   7.515  0.4709  0.1738  0.5247
 5113TIP3    H136974   2.107   0.415   7.573  2.0386 -1.8756 -1.5160
 5113TIP3    H236975   2.041   0.539   7.516 -0.9567 -2.0696  1.2743
 5114TIP3   OH236976   3.621   1.109   0.224 -0.5593 -0.5562 -0.5326
 5114TIP3    H136977   3.616   1.170   0.297 -1.2735  0.1019 -1.1145
 5114TIP3    H236978   3.664   1.158   0.154  1.5503 -1.6687 -0.1056
 5115TIP3   OH236979   2.274   1.499   8.453 -0.3239  0.2601 -0.1338
 5115TIP3    H136980   2.296   1.586   8.487 -1.2942  0.3811  0.2116
 5115TIP3    H236981   2.354   1.470   8.409  0.8538  0.2831  1.8536
 5116TIP3   OH236982   1.256   4.039   1.127 -0.1273 -0.1119  0.0191
 5116TIP3    H136983   1.229   3.949   1.111  2.1614 -0.8402 -0.0152
 5116TIP3    H236984   1.332   4.032   1.185 -0.1756  1.8323  0.3901
 5117TIP3   OH236985   4.603   6.080   0.097 -0.3777  0.2254 -0.1398
 5117TIP3    H136986   4.522   6.063   0.145  0.4301  0.5929  1.4366
 5117TIP3    H236987   4.636   6.161   0.134  1.0062 -0.2195 -0.3332
 5118TIP3   OH236988   5.818   1.977   0.499 -0.6270  0.0348  0.1714
 5118TIP3    H136989   5.735   2.020   0.482 -0.5866  0.1295  0.2125
 5118TIP3    H236990   5.877   2.048   0.526 -0.4932 -0.0088  0.0005
 5119TIP3   OH236991   3.064   1.825   0.899 -0.3870  0.3595 -0.3576
 5119TIP3    H136992   3.073   1.911   0.859  0.0755  1.1471  1.3851
 5119TIP3    H236993   3.147   1.810   0.944 -1.2597 -0.0131  1.1980
 5120TIP3   OH236994   2.815   3.061   1.253 -0.1559  0.5642  0.0345
 5120TIP3    H136995   2.827   3.081   1.161  1.5070  2.0028  0.5120
 5120TIP3    H236996   2.791   3.144   1.293 -1.3438 -0.1423  0.8421
 5121TIP3   OH236997   5.745   1.815   1.806 -0.7142 -0.2657 -0.4918
 5121TIP3    H136998   5.735   1.757   1.731  1.1982 -1.6500  0.2287
 5121TIP3    H236999   5.820   1.870   1.784  0.6106 -1.4652  0.7793
 5122TIP3   OH237000   0.076   3.265   0.920  0.3714 -0.0947  0.4121
 5122TIP3    H137001   0.137   3.297   0.853  0.6540  1.7954  1.4907
 5122TIP3    H237002   0.117   3.290   1.003 -1.7000  0.9586  1.1840
 5123TIP3   OH237003   1.101   1.019   7.635 -0.4803  0.3665  0.2550
 5123TIP3    H137004   1.111   1.092   7.574  0.4754 -0.5669 -0.7419
 5123TIP3    H237005   1.049   0.954   7.587  2.6476 -1.5910 -0.7986
 5124TIP3   OH237006   3.972   2.961   1.567 -0.3458 -0.6040 -0.5627
 5124TIP3    H137007   3.930   3.035   1.522 -1.4940  1.1483  3.0498
 5124TIP3    H237008   3.911   2.888   1.555 -0.5295 -0.2614 -1.8899
 5125TIP3   OH237009   1.196   1.179   6.824 -0.1424  0.2763  0.0131
 5125TIP3    H137010   1.287   1.206   6.816 -0.2379  1.8539  2.8567
 5125TIP3    H237011   1.179   1.125   6.746  3.7470 -1.7945  0.3864
 5126TIP3   OH237012   2.478   6.601   1.469  0.1221  0.5237 -0.2132
 5126TIP3    H137013   2.391   6.625   1.501  1.1206 -0.4321  3.7290
 5126TIP3    H237014   2.538   6.663   1.509  1.4755 -0.0642 -1.2194
 5127TIP3   OH237015   1.154   1.251   7.495 -0.3218 -0.0893 -0.3051
 5127TIP3    H137016   1.089   1.304   7.449 -2.0124 -1.9498 -0.1998
 5127TIP3    H237017   1.221   1.232   7.429 -0.5588  0.7642 -0.7990
 5128TIP3   OH237018   3.563   3.424   2.238 -0.5999  0.1335  0.5655
 5128TIP3    H137019   3.553   3.330   2.252  0.4995  0.1285  1.4303
 5128TIP3    H237020   3.473   3.458   2.234 -1.0184 -1.0108 -0.3000
 5129TIP3   OH237021   3.339   0.088   8.242  0.0712 -0.1910 -0.2982
 5129TIP3    H137022   3.397   0.012   8.243  1.1967  0.6500  0.6136
 5129TIP3    H237023   3.311   0.098   8.333  3.1856  2.8361  0.5492
 5130TIP3   OH237024   0.532   5.170   0.458 -0.4325 -0.3188  0.8797
 5130TIP3    H137025   0.506   5.262   0.445 -1.4698 -0.6235  0.6966
 5130TIP3    H237026   0.449   5.122   0.457  0.1341 -1.3095  0.5644
 5131TIP3   OH237027   6.346   5.758   0.419  0.3649 -0.3571  0.3459
 5131TIP3    H137028   6.346   5.699   0.344  0.9343  0.8858 -0.6749
 5131TIP3    H237029   6.254   5.786   0.427  0.2698 -0.6365  0.2340
 5132TIP3   OH237030   2.214   2.128   7.857 -0.4573  0.1282 -0.5532
 5132TIP3    H137031   2.129   2.171   7.857 -0.4379  0.1744 -0.0687
 5132TIP3    H237032   2.249   2.145   7.944 -0.0316 -0.0470 -0.6882
 5133TIP3   OH237033   5.388   3.570   1.799  0.5032  0.1683  0.4799
 5133TIP3    H137034   5.321   3.596   1.863  0.6428 -1.7209  1.4476
 5133TIP3    H237035   5.423   3.488   1.832  0.1798 -1.2258 -2.3454
 5134TIP3   OH237036   1.174   3.213   1.083  0.3292 -0.1694 -1.0551
 5134TIP3    H137037   1.259   3.245   1.054  1.2968 -0.0069  1.6889
 5134TIP3    H237038   1.194   3.140   1.141 -1.1453  1.4181  1.6826
 5135TIP3   OH237039   0.308   5.829   7.942  0.1727 -0.2371  0.0633
 5135TIP3    H137040   0.299   5.742   7.980  1.4865  0.3633  1.8684
 5135TIP3    H237041   0.262   5.823   7.858  0.5908 -2.7762 -0.0717
 5136TIP3   OH237042   5.695   2.232   2.045  0.2771 -0.8098  0.6952
 5136TIP3    H137043   5.682   2.326   2.047  1.0456 -0.6520 -0.7641
 5136TIP3    H237044   5.752   2.214   2.119  1.6937  0.1520 -0.1202
 5137TIP3   OH237045   1.769   3.400   8.478  0.0296 -0.1299 -0.2433
 5137TIP3    H137046   1.735   3.487   8.456 -1.1806 -0.5323 -0.0252
 5137TIP3    H237047   1.859   3.416   8.507  0.7671  0.7503 -2.6954
 5138TIP3   OH237048   5.334   1.589   7.173 -0.1126  0.5603 -0.1626
 5138TIP3    H137049   5.365   1.644   7.101  1.5571  1.2907  1.0392
 5138TIP3    H237050   5.344   1.500   7.140  0.0628  0.8900 -1.0402
 5139TIP3   OH237051   2.778   2.676   0.224  0.3450  0.1706 -0.1030
 5139TIP3    H137052   2.779   2.582   0.240 -1.0098  0.0948 -0.3291
 5139TIP3    H237053   2.686   2.697   0.207  0.4377  1.7301  1.0527
 5140TIP3   OH237054   4.006   5.194   8.253  0.2006 -0.4170  0.1509
 5140TIP3    H137055   4.089   5.151   8.231  0.2976 -0.1794  0.0543
 5140TIP3    H237056   3.942   5.150   8.197  0.1524 -1.0404  0.6789
 5141TIP3   OH237057   4.970   6.453   8.411 -0.1113  0.0950 -0.0086
 5141TIP3    H137058   4.986   6.364   8.381 -0.2895  0.8242 -2.5620
 5141TIP3    H237059   4.875   6.463   8.407 -0.0212  0.7215 -0.8897
 5142TIP3   OH237060   6.214   6.811   0.265  0.9288 -0.2426 -0.4307
 5142TIP3    H137061   6.239   6.770   0.347  0.1745  0.9075  0.4138
 5142TIP3    H237062   6.165   6.889   0.291  0.1593 -0.1640 -1.9747
 5143TIP3   OH237063   4.071   1.915   6.884  0.0681 -0.2000 -0.0466
 5143TIP3    H137064   4.005   1.984   6.894  0.6025 -0.0413  4.5715
 5143TIP3    H237065   4.023   1.833   6.896 -0.1408 -0.6006 -2.9612
 5144TIP3   OH237066   1.756   6.868   8.162  0.0979  0.1678 -0.2836
 5144TIP3    H137067   1.810   6.943   8.137  0.6374 -0.3388 -0.6720
 5144TIP3    H237068   1.674   6.880   8.115  0.6750 -0.1670 -1.4126
 5145TIP3   OH237069   0.624   5.598   1.295  1.0946  0.2843  0.0416
 5145TIP3    H137070   0.604   5.692   1.287 -0.2176 -0.0527 -0.9780
 5145TIP3    H237071   0.556   5.564   1.352  1.6337 -0.0393  0.4986
 5146TIP3   OH237072   4.692   5.721   7.134 -0.3049 -0.0622  0.5863
 5146TIP3    H137073   4.644   5.686   7.209 -2.5986 -1.9014 -1.5768
 5146TIP3    H237074   4.779   5.682   7.140 -0.6087 -0.5568  2.0160
 5147TIP3   OH237075   0.609   6.830   1.440  0.2844 -0.0780  0.1371
 5147TIP3    H137076   0.537   6.806   1.498 -0.3149  0.4517 -0.3836
 5147TIP3    H237077   0.568   6.848   1.356  1.1879 -1.2478 -0.5972
 5148TIP3   OH237078   0.653   2.770   0.053  0.3565 -0.1743  0.3083
 5148TIP3    H137079   0.665   2.700   0.117  1.6536 -0.1830  0.0939
 5148TIP3    H237080   0.707   2.744  -0.022 -1.5573 -0.4321 -1.0495
 5149TIP3   OH237081   4.296   3.507   8.521  0.7678  0.2983 -0.4628
 5149TIP3    H137082   4.310   3.413   8.533 -0.5786 -0.6895 -4.7996
 5149TIP3    H237083   4.202   3.516   8.507  1.1522  1.8330 -2.6323
 5150TIP3   OH237084   4.793   4.155   0.967  0.4766 -0.4308 -0.1167
 5150TIP3    H137085   4.787   4.182   0.876 -0.7550 -0.6984 -0.1336
 5150TIP3    H237086   4.704   4.127   0.990  0.5523  0.4482  1.4139
 5151TIP3   OH237087   5.955   4.109   1.655 -0.3163  0.2166 -1.0376
 5151TIP3    H137088   6.024   4.171   1.630  1.0029 -0.5700  0.4912
 5151TIP3    H237089   5.909   4.153   1.726  0.7156 -0.5489  0.1507
 5152TIP3   OH237090   2.558   6.844   7.641 -0.7993 -0.1936  0.0871
 5152TIP3    H137091   2.585   6.873   7.728 -1.9798  0.7873  0.1529
 5152TIP3    H237092   2.616   6.889   7.581 -1.2543  0.6813  0.2903
 5153TIP3   OH237093   0.317   4.026   0.165 -0.0150 -0.4761 -0.1700
 5153TIP3    H137094   0.316   4.091   0.235  2.6074  1.4470 -1.7199
 5153TIP3    H237095   0.264   3.954   0.198 -0.0737  0.9173  3.1509
 5154TIP3   OH237096   1.114   5.342   6.589 -0.1058  0.0423  0.1734
 5154TIP3    H137097   1.057   5.301   6.654 -0.4411  2.0109  1.1887
 5154TIP3    H237098   1.171   5.270   6.558 -2.2284 -1.6905  0.0558
 5155TIP3   OH237099   0.761   1.263   0.530 -0.4977  0.3280 -0.2205
 5155TIP3    H137100   0.703   1.209   0.582  2.5182 -3.5822 -0.4375
 5155TIP3    H237101   0.822   1.301   0.593 -1.2015  1.6189 -0.2964
 5156TIP3   OH237102   2.568   3.336   7.637  0.3580 -0.0714 -0.0263
 5156TIP3    H137103   2.624   3.281   7.692 -1.8124 -1.2355  1.1269
 5156TIP3    H237104   2.552   3.284   7.559  0.2040 -0.0938  0.0201
 5157TIP3   OH237105   3.908   1.085   0.606 -0.0922 -0.0716 -0.3729
 5157TIP3    H137106   3.902   1.159   0.547 -0.4659 -1.6026 -2.3526
 5157TIP3    H237107   3.946   1.015   0.554 -0.4906 -1.5271  1.1825
 5158TIP3   OH237108   1.857   1.577   2.156 -0.2457 -0.3745  0.4070
 5158TIP3    H137109   1.831   1.659   2.115 -1.5313 -1.0769 -0.2634
 5158TIP3    H237110   1.949   1.589   2.179 -0.2164  0.9802 -0.3322
 5159TIP3   OH237111   2.557   2.667   8.607  0.3688 -0.5359  0.2396
 5159TIP3    H137112   2.581   2.589   8.558 -0.3333 -0.1396 -0.7780
 5159TIP3    H237113   2.589   2.740   8.554  1.8463 -0.1195  1.6306
 5160TIP3   OH237114   4.274   1.287   1.897 -0.3064  0.0920  0.2492
 5160TIP3    H137115   4.367   1.304   1.884 -0.1621 -1.1183 -0.4898
 5160TIP3    H237116   4.236   1.299   1.810 -0.3484 -2.1832 -0.1033
 5161TIP3   OH237117   3.156   2.372   0.752 -0.1778  0.1762 -0.6829
 5161TIP3    H137118   3.119   2.447   0.705 -1.9880  1.1852  2.1038
 5161TIP3    H237119   3.235   2.406   0.793  0.1419 -0.0585 -1.0939
 5162TIP3   OH237120   4.022   2.698   8.128  0.3406  0.1631 -0.2620
 5162TIP3    H137121   3.940   2.677   8.174  0.6878  1.0376  0.7985
 5162TIP3    H237122   4.071   2.616   8.128  0.0017 -0.0476  0.2433
 5163TIP3   OH237123   1.359   0.700   8.206  0.0316  0.2568  0.3791
 5163TIP3    H137124   1.411   0.722   8.283 -2.9079  0.4415  2.5016
 5163TIP3    H237125   1.313   0.782   8.184 -0.0407 -0.0998 -0.8693
 5164TIP3   OH237126   1.408   0.625   2.043  0.1626  0.6609  0.2702
 5164TIP3    H137127   1.314   0.645   2.047 -0.0047  0.1698 -0.8596
 5164TIP3    H237128   1.422   0.595   1.953  0.8466 -2.0115  1.1882
 5165TIP3   OH237129   4.137   6.817   0.015  0.4699 -0.4151  0.1212
 5165TIP3    H137130   4.187   6.850   0.089  0.3720 -1.4472  0.6653
 5165TIP3    H237131   4.196   6.825  -0.060 -0.0715  2.4290 -0.1197
 5166TIP3   OH237132   3.240   2.195   1.311  0.1620  0.0485 -0.9829
 5166TIP3    H137133   3.302   2.268   1.320 -0.0587  0.1756 -0.4129
 5166TIP3    H237134   3.167   2.219   1.368  0.6722 -1.2415  0.2782
 5167TIP3   OH237135   5.240   1.700   0.177 -0.0770  0.2502 -0.0024
 5167TIP3    H137136   5.286   1.632   0.227 -0.3754  1.9272  2.8039
 5167TIP3    H237137   5.302   1.773   0.174 -1.6206  1.7613  1.9464
 5168TIP3   OH237138   2.564   3.794   7.444  0.0335 -0.2519 -0.4553
 5168TIP3    H137139   2.547   3.819   7.353 -1.4969  0.9598  0.1058
 5168TIP3    H237140   2.565   3.877   7.491  2.1082 -0.7543  0.4909
 5169TIP3   OH237141   2.141   4.512   8.328  0.1248  0.1109 -0.0246
 5169TIP3    H137142   2.100   4.534   8.244  2.3973 -0.5094 -1.4100
 5169TIP3    H237143   2.222   4.466   8.303 -0.4641 -2.6215  2.5525
 5170TIP3   OH237144   4.859   1.966   0.291  0.1818  0.7121  0.8939
 5170TIP3    H137145   4.807   1.893   0.324 -0.2413  0.6530  0.1231
 5170TIP3    H237146   4.950   1.942   0.311  0.0228  0.1153  0.9258
 5171TIP3   OH237147   5.946   6.040   7.100  0.1016 -0.0505  0.1889
 5171TIP3    H137148   5.878   6.052   7.033 -0.3811  1.0307  0.8444
 5171TIP3    H237149   6.013   5.988   7.057 -0.0490  0.8857 -1.2444
 5172TIP3   OH237150   6.492   2.986   1.779  0.1005 -0.0315  0.1129
 5172TIP3    H137151   6.439   3.018   1.852 -0.1726  1.5326 -0.7092
 5172TIP3    H237152   6.520   2.899   1.805 -0.0435  0.4550  2.0445
 5173TIP3   OH237153   6.646   0.880   7.182  0.1330  0.0782 -0.0302
 5173TIP3    H137154   6.577   0.830   7.226 -0.7508  1.0500 -0.2885
 5173TIP3    H237155   6.605   0.963   7.160  0.7752 -0.0845 -2.0123
 5174TIP3   OH237156   4.310   5.717   1.516 -0.2762  0.0252  0.0767
 5174TIP3    H137157   4.404   5.728   1.527 -0.2125  2.5855 -2.0419
 5174TIP3    H237158   4.271   5.781   1.575 -0.6073  0.2322 -0.3571
 5175TIP3   OH237159   6.188   4.124   1.119 -0.5882 -0.3610  0.0223
 5175TIP3    H137160   6.238   4.102   1.041 -1.2631 -0.6734 -0.3248
 5175TIP3    H237161   6.122   4.186   1.089 -0.9950 -0.6548  0.2943
 5176TIP3   OH237162   1.581   4.741   8.354 -0.5189  0.7284  0.6992
 5176TIP3    H137163   1.578   4.692   8.436  1.1622 -0.1647  0.2701
 5176TIP3    H237164   1.652   4.803   8.365  1.6258 -1.2531 -0.9820
 5177TIP3   OH237165   3.340   3.281   0.052  0.5269  0.2788 -0.6904
 5177TIP3    H137166   3.329   3.186   0.045  2.8585 -0.0139 -1.1219
 5177TIP3    H237167   3.415   3.293   0.110  0.9829  1.8233 -1.5302
 5178TIP3   OH237168   3.552   2.504   7.913  0.3695  0.1982 -0.0565
 5178TIP3    H137169   3.556   2.410   7.931  3.2630 -0.1882 -2.0972
 5178TIP3    H237170   3.490   2.512   7.841  2.1442 -0.5944 -1.7518
 5179TIP3   OH237171   6.763   3.411   8.747 -0.1206  0.6884 -0.3787
 5179TIP3    H137172   6.739   3.320   8.732 -0.9813  0.8931 -0.3330
 5179TIP3    H237173   6.796   3.413   8.837  0.6603  0.2837 -0.6538
 5180TIP3   OH237174   3.917   5.482   2.556 -0.2863 -0.2239  0.1344
 5180TIP3    H137175   3.971   5.429   2.498  0.7802 -1.1235  1.8527
 5180TIP3    H237176   3.834   5.493   2.509 -0.4954 -3.2736 -0.4085
 5181TIP3   OH237177   4.613   5.217   6.569 -0.1255  0.2877  0.8518
 5181TIP3    H137178   4.637   5.128   6.596 -0.4500  0.2923  1.1639
 5181TIP3    H237179   4.689   5.249   6.522 -0.0450 -0.1972  0.6459
 5182TIP3   OH237180   3.526   5.133   0.639 -0.0897 -0.0216 -0.3501
 5182TIP3    H137181   3.616   5.132   0.609 -0.2028 -0.5856 -0.6766
 5182TIP3    H237182   3.502   5.226   0.638  0.5740  0.1605  0.0253
 5183TIP3   OH237183   2.986   5.992   1.365 -0.1178  0.4074 -0.0956
 5183TIP3    H137184   2.948   5.925   1.308 -0.0212 -1.3258  1.7507
 5183TIP3    H237185   2.917   6.057   1.376  0.1495  1.2535 -2.7854
 5184TIP3   OH237186   5.469   2.942   7.451 -0.5452  0.2006  0.1674
 5184TIP3    H137187   5.387   2.974   7.414  0.7746  1.4917 -1.8420
 5184TIP3    H237188   5.508   2.890   7.381  1.1616  1.0903  0.4197
 5185TIP3   OH237189   5.277   1.141   0.901  0.1532  0.2846  0.1551
 5185TIP3    H137190   5.328   1.072   0.859 -0.5346  0.4342 -0.9944
 5185TIP3    H237191   5.302   1.221   0.855 -1.4227  0.2934 -0.7851
 5186TIP3   OH237192   2.645   0.527   0.950 -0.2529  0.7187 -0.3506
 5186TIP3    H137193   2.660   0.533   0.855  2.8045 -1.7330 -0.1544
 5186TIP3    H237194   2.726   0.557   0.989 -0.8283  0.0133  1.4612
 5187TIP3   OH237195   2.033   1.910   7.764  0.7752 -0.4363 -0.2905
 5187TIP3    H137196   2.094   1.982   7.781  1.2359 -1.1149  1.1454
 5187TIP3    H237197   1.979   1.905   7.844 -0.7502 -0.2730 -1.2641
 5188TIP3   OH237198   4.326   2.669   1.328 -0.1078 -0.4870 -0.5094
 5188TIP3    H137199   4.315   2.593   1.384  0.2904 -0.7600 -0.7933
 5188TIP3    H237200   4.326   2.634   1.239  1.2484 -0.3203 -0.6034
 5189TIP3   OH237201   0.787   2.421   0.537  0.4668 -0.1185 -0.2727
 5189TIP3    H137202   0.707   2.370   0.519  0.0874 -0.0555  1.0955
 5189TIP3    H237203   0.803   2.470   0.457 -0.8814 -0.1434 -0.5830
 5190TIP3   OH237204   5.539   0.474   8.776 -0.0715  0.1493 -0.0902
 5190TIP3    H137205   5.491   0.490   8.857  0.6668 -0.4938  0.5024
 5190TIP3    H237206   5.502   0.393   8.741  0.2633 -0.1052  0.1326
 5191TIP3   OH237207   5.067   0.517   1.969 -0.4526  0.2838 -0.1586
 5191TIP3    H137208   5.126   0.513   1.894  0.1453  0.8834  0.2695
 5191TIP3    H237209   5.006   0.588   1.947 -0.9124 -0.2088 -0.5148
 5192TIP3   OH237210   4.004   0.422   7.606  0.8203 -0.3494  0.8238
 5192TIP3    H137211   4.029   0.439   7.697 -0.2820  0.4887  0.9902
 5192TIP3    H237212   4.044   0.493   7.556  0.6532 -0.2836  0.7830
 5193TIP3   OH237213   3.288   1.422   1.638  0.2385 -0.0658 -0.3577
 5193TIP3    H137214   3.345   1.359   1.594  0.7390  0.7307 -0.9006
 5193TIP3    H237215   3.304   1.408   1.731 -0.0170 -1.0484 -0.4533
 5194TIP3   OH237216   6.419   2.788   8.082  0.0839  0.1711  0.6892
 5194TIP3    H137217   6.333   2.754   8.056  0.5267 -0.8145  0.4540
 5194TIP3    H237218   6.442   2.851   8.013  0.5252 -1.2247 -0.4881
 5195TIP3   OH237219   0.761   3.612   1.187  0.2175  0.2760  0.4936
 5195TIP3    H137220   0.779   3.603   1.281 -1.0191 -1.4089  0.6150
 5195TIP3    H237221   0.767   3.523   1.154 -1.9634  0.4478 -0.5158
 5196TIP3   OH237222   0.548   4.433   7.043 -0.2666  0.0608 -0.0089
 5196TIP3    H137223   0.465   4.467   7.077  0.1844  0.4778  0.7193
 5196TIP3    H237224   0.615   4.481   7.093  0.5103  2.1118 -2.7512
 5197TIP3   OH237225   4.047   4.173   2.181  0.3966  0.0611 -0.0862
 5197TIP3    H137226   4.066   4.221   2.100  2.1573 -1.8461 -0.8810
 5197TIP3    H237227   4.091   4.223   2.249 -3.4796  3.3864  0.4112
 5198TIP3   OH237228   3.667   5.544   8.555 -0.6628  0.2149  0.1115
 5198TIP3    H137229   3.655   5.634   8.524  0.1418  0.0660 -0.6901
 5198TIP3    H237230   3.706   5.498   8.480 -2.6916 -1.2571 -0.1351
 5199TIP3   OH237231   6.415   1.866   0.017  0.0967  0.2915  0.1200
 5199TIP3    H137232   6.467   1.789   0.040 -0.5561  0.2253  1.4393
 5199TIP3    H237233   6.419   1.922   0.094 -0.5620  0.9603 -0.3216
 5200TIP3   OH237234   6.650   5.604   2.511 -0.2247 -0.0519 -0.0508
 5200TIP3    H137235   6.741   5.627   2.497 -0.6891  0.3570 -3.1809
 5200TIP3    H237236   6.617   5.670   2.573  1.2488  0.6001  0.0696
 5201TIP3   OH237237   4.284   1.038   6.811 -0.1329  0.2364 -0.2184
 5201TIP3    H137238   4.306   1.093   6.886 -0.9427  0.9127 -0.4571
 5201TIP3    H237239   4.367   1.025   6.766  0.0017  1.6925 -0.4266
 5202TIP3   OH237240   0.267   6.721   7.684  0.2085  0.2289  0.4203
 5202TIP3    H137241   0.347   6.670   7.670  0.1189  0.0856  0.4306
 5202TIP3    H237242   0.211   6.664   7.737 -0.2132  0.0167 -0.2426
 5203TIP3   OH237243   2.401   5.858   2.230  0.6632  0.1165  0.1860
 5203TIP3    H137244   2.341   5.906   2.173 -1.6896 -1.3319  1.3120
 5203TIP3    H237245   2.462   5.925   2.261 -2.1869  2.4192  1.3502
 5204TIP3   OH237246   6.351   0.909   7.936  0.1997 -0.2633  0.4577
 5204TIP3    H137247   6.374   0.996   7.971 -0.6890  0.2528 -0.1975
 5204TIP3    H237248   6.423   0.887   7.878 -0.2957  0.7538 -0.5836
 5205TIP3   OH237249   2.755   2.804   1.709 -0.3229  0.2992  0.4987
 5205TIP3    H137250   2.749   2.730   1.769  0.2540 -1.2321 -1.2710
 5205TIP3    H237251   2.797   2.873   1.761  1.2922 -1.3612  1.5023
 5206TIP3   OH237252   1.694   5.983   2.253  0.2441 -0.5359 -0.1544
 5206TIP3    H137253   1.763   6.047   2.235  1.2909 -1.3216  0.8956
 5206TIP3    H237254   1.655   6.013   2.335 -0.2329 -0.4634 -0.4037
 5207TIP3   OH237255   6.624   0.668   1.727  0.2931  0.2572  0.2143
 5207TIP3    H137256   6.665   0.666   1.640 -0.4251  2.1486 -0.2215
 5207TIP3    H237257   6.534   0.640   1.712 -0.1554  1.6645  0.0986
 5208TIP3   OH237258   0.625   3.572   8.246 -0.6189  0.2650  0.0071
 5208TIP3    H137259   0.688   3.582   8.175 -0.8217 -0.9382 -0.3782
 5208TIP3    H237260   0.662   3.504   8.302 -0.6416  0.9445  0.8717
 5209TIP3   OH237261   0.872   5.961   1.623 -0.6133 -0.1591 -0.8649
 5209TIP3    H137262   0.949   5.915   1.657 -0.1074  1.1870 -0.1039
 5209TIP3    H237263   0.907   6.044   1.591 -2.0151  1.5799  1.7614
 5210TIP3   OH237264   3.210   1.182   7.496 -0.4742  0.0040 -0.1190
 5210TIP3    H137265   3.280   1.140   7.545  1.0267  2.5579  0.0958
 5210TIP3    H237266   3.129   1.144   7.532  0.6994 -1.1050  1.4818
 5211TIP3   OH237267   0.215   4.748   8.329 -0.8466 -0.5010  0.0381
 5211TIP3    H137268   0.158   4.692   8.276  1.1009 -1.4851 -1.1454
 5211TIP3    H237269   0.200   4.720   8.419  0.3920 -3.3584 -0.5377
 5212TIP3   OH237270   2.474   0.150   0.265  0.3982  0.4086  0.2119
 5212TIP3    H137271   2.399   0.098   0.293 -1.2463  1.1975 -2.3650
 5212TIP3    H237272   2.507   0.191   0.345 -1.2870 -0.7262  1.5550
 5213TIP3   OH237273   4.964   0.571   6.868 -0.2516 -0.4289  0.0325
 5213TIP3    H137274   4.939   0.620   6.946  2.7588  1.6704 -0.1545
 5213TIP3    H237275   5.011   0.494   6.901  0.5307  0.1673  0.3429
 5214TIP3   OH237276   2.991   5.856   2.616  0.1492 -0.3588  0.2641
 5214TIP3    H137277   3.078   5.849   2.656  0.6599 -0.1296 -0.7729
 5214TIP3    H237278   2.942   5.914   2.675  0.9252  0.0663  0.5022
 5215TIP3   OH237279   5.151   3.955   7.945  0.0202  0.4334  0.2086
 5215TIP3    H137280   5.244   3.948   7.967 -0.1909  0.8348  1.2836
 5215TIP3    H237281   5.109   3.886   7.998 -0.3079  0.3040 -0.2125
 5216TIP3   OH237282   3.296   4.342   7.882 -0.1911  0.4868  0.2287
 5216TIP3    H137283   3.326   4.270   7.826 -3.2307 -1.5787  0.9918
 5216TIP3    H237284   3.334   4.324   7.968 -0.5770  0.0323  0.3075
 5217TIP3   OH237285   2.155   3.850   1.260 -0.3596  0.0298  0.3455
 5217TIP3    H137286   2.080   3.791   1.258  0.3069 -0.8498  0.4146
 5217TIP3    H237287   2.119   3.936   1.281 -1.3962 -0.2860 -0.1215
 5218TIP3   OH237288   3.407   6.768   1.264  0.4914  0.1967 -0.4331
 5218TIP3    H137289   3.412   6.747   1.357  2.7691  2.0540 -0.0629
 5218TIP3    H237290   3.318   6.744   1.239 -0.0299 -0.7854  2.0896
 5219TIP3   OH237291   4.409   2.686   0.825  0.8433 -0.9197  0.2193
 5219TIP3    H137292   4.359   2.678   0.906 -0.3027 -2.3047 -0.5688
 5219TIP3    H237293   4.489   2.636   0.841  0.9810 -0.5481  0.7356
 5220TIP3   OH237294   1.567   5.065   7.137 -0.0581  0.3446  0.1621
 5220TIP3    H137295   1.587   5.155   7.161  3.1008 -0.2119 -0.0258
 5220TIP3    H237296   1.645   5.015   7.161 -1.8104 -2.4302  0.5220
 5221TIP3   OH237297   6.315   6.480   0.224 -0.4094 -0.2700 -0.2032
 5221TIP3    H137298   6.365   6.444   0.297 -1.1112  1.6519  1.3219
 5221TIP3    H237299   6.225   6.451   0.240 -0.7468  0.9770  0.3178
 5222TIP3   OH237300   6.834   5.067   7.098 -0.0518  0.4867  0.3355
 5222TIP3    H137301   6.817   5.128   7.169  1.3882  0.7923  0.4488
 5222TIP3    H237302   6.906   5.106   7.049  2.4864 -2.0787  1.7189
 5223TIP3   OH237303   0.360   4.055   8.416  0.0363 -0.2308 -0.0763
 5223TIP3    H137304   0.360   4.011   8.501 -0.3938  1.5150  0.8551
 5223TIP3    H237305   0.276   4.031   8.376 -0.6895  0.6497  0.9072
 5224TIP3   OH237306   4.908   3.990   1.350 -0.5895  0.3698  0.0971
 5224TIP3    H137307   4.990   3.942   1.358 -1.2281 -0.7706  0.0636
 5224TIP3    H237308   4.898   4.036   1.433 -0.0869  0.2318  0.2358
 5225TIP3   OH237309   3.857   4.582   6.629  0.0924  0.1170  0.0474
 5225TIP3    H137310   3.937   4.598   6.578  1.4427 -0.4068  1.8996
 5225TIP3    H237311   3.789   4.631   6.582  1.3887  0.2292 -1.8297
 5226TIP3   OH237312   3.224   0.607   0.718 -0.2502 -0.2011 -0.0241
 5226TIP3    H137313   3.177   0.596   0.801 -0.4534 -1.2455 -0.2670
 5226TIP3    H237314   3.227   0.702   0.705 -3.7671 -0.0806 -0.8515
 5227TIP3   OH237315   1.672   5.569   0.814  0.1999  0.0731 -0.0947
 5227TIP3    H137316   1.625   5.646   0.846  0.2704 -0.3920  1.1684
 5227TIP3    H237317   1.674   5.509   0.888  0.9062 -0.8006 -0.7962
 5228TIP3   OH237318   6.425   2.363   7.198 -0.4350 -0.0030  0.1210
 5228TIP3    H137319   6.501   2.419   7.213  0.0455 -0.5366 -0.2630
 5228TIP3    H237320   6.355   2.423   7.171 -0.1971  0.5072  0.6156
 5229TIP3   OH237321   5.329   6.179   8.219 -0.3034  0.1575 -0.4607
 5229TIP3    H137322   5.346   6.194   8.126  0.3399 -0.3185 -0.4238
 5229TIP3    H237323   5.387   6.241   8.264 -1.9395  1.7104 -0.3781
 5230TIP3   OH237324   5.495   2.121   0.194 -0.1673  0.0905 -0.2421
 5230TIP3    H137325   5.432   2.185   0.225  0.0031  0.1264  0.0283
 5230TIP3    H237326   5.443   2.057   0.145 -0.3286  0.4747 -0.5792
 5231TIP3   OH237327   0.382   6.336   6.793  0.4071 -0.3010 -0.3131
 5231TIP3    H137328   0.417   6.419   6.762  1.2864 -0.4047  0.3301
 5231TIP3    H237329   0.291   6.335   6.764  0.1910  1.1666  0.2045
 5232TIP3   OH237330   0.074   2.735   6.695 -0.0108  0.0387  0.4207
 5232TIP3    H137331   0.038   2.649   6.714 -1.1725  0.5746  0.7278
 5232TIP3    H237332   0.169   2.723   6.697 -0.1586 -1.2937  0.1320
 5233TIP3   OH237333   5.558   4.792   7.171 -0.6788  0.6806  0.6226
 5233TIP3    H137334   5.583   4.815   7.260 -0.4724  1.0012  0.4825
 5233TIP3    H237335   5.497   4.861   7.145  0.5466  1.5416 -0.0825
 5234TIP3   OH237336   6.335   5.638   0.158 -0.0712  0.1427 -0.3296
 5234TIP3    H137337   6.287   5.623   0.077  0.1237  0.4547 -0.5063
 5234TIP3    H237338   6.354   5.551   0.192  0.7391 -0.0121 -1.1508
 5235TIP3   OH237339   0.928   3.451   8.411 -0.9720  0.1491 -0.2671
 5235TIP3    H137340   0.883   3.392   8.351  0.0857  0.0451 -0.9881
 5235TIP3    H237341   0.876   3.448   8.491 -0.1870 -2.9354  0.2625
 5236TIP3   OH237342   5.087   3.634   8.772  0.4100  0.0472 -0.2131
 5236TIP3    H137343   5.035   3.714   8.778 -1.1778 -0.9716  0.2201
 5236TIP3    H237344   5.177   3.662   8.790  0.0707  1.9075 -1.2669
 5237TIP3   OH237345   3.793   4.664   7.961  0.0022  0.2647 -0.1450
 5237TIP3    H137346   3.860   4.595   7.957 -1.2799 -1.0899  0.6729
 5237TIP3    H237347   3.842   4.743   7.984  1.8031  0.0918 -2.9201
 5238TIP3   OH237348   4.688   3.851   1.066 -0.1895  0.0980 -0.0449
 5238TIP3    H137349   4.685   3.835   0.972 -1.7213  1.2861 -0.2332
 5238TIP3    H237350   4.675   3.764   1.105  1.7610 -0.6118 -0.8718
 5239TIP3   OH237351   0.696   0.448   8.031  0.3026  0.2190 -0.0692
 5239TIP3    H137352   0.765   0.381   8.024 -0.5796 -0.7406  0.1937
 5239TIP3    H237353   0.662   0.456   7.942  1.3097  1.3426 -0.3897
 5240TIP3   OH237354   4.434   5.746   6.458 -0.2901  0.0960  0.1108
 5240TIP3    H137355   4.450   5.773   6.549  2.8932 -0.0365 -0.2988
 5240TIP3    H237356   4.395   5.659   6.466  1.0560 -0.4488  1.4306
 5241TIP3   OH237357   5.081   2.051   7.275 -0.1869 -0.3382 -0.3809
 5241TIP3    H137358   5.135   2.088   7.345 -2.0158 -0.0288  0.9421
 5241TIP3    H237359   5.071   1.959   7.299 -0.6446 -0.2819 -0.3459
 5242TIP3   OH237360   0.661   2.347   7.035  0.1340 -0.4223  0.1797
 5242TIP3    H137361   0.719   2.310   6.968 -1.3115 -0.4560 -1.1047
 5242TIP3    H237362   0.670   2.442   7.026  0.0900 -0.4295  0.0513
 5243TIP3   OH237363   6.859   2.517   1.544  0.0928 -0.1689 -0.6251
 5243TIP3    H137364   6.772   2.549   1.522 -0.4637  0.7023  2.4085
 5243TIP3    H237365   6.851   2.421   1.543 -1.0049 -0.0887  0.0318
 5244TIP3   OH237366   3.813   5.803   0.239 -0.8433  0.1380  0.3398
 5244TIP3    H137367   3.811   5.710   0.259 -1.4966 -0.1513 -0.9477
 5244TIP3    H237368   3.754   5.843   0.303 -3.8546 -0.9088 -1.5971
 5245TIP3   OH237369   5.673   3.669   0.562 -0.0223  0.1186  0.0176
 5245TIP3    H137370   5.653   3.759   0.585 -1.4725 -0.3852  0.8615
 5245TIP3    H237371   5.588   3.625   0.562  0.2950 -0.7341 -2.8228
 5246TIP3   OH237372   1.865   3.304   2.045 -0.0619 -0.2024  0.2281
 5246TIP3    H137373   1.836   3.393   2.067 -0.9136 -0.5336  0.4848
 5246TIP3    H237374   1.862   3.257   2.129  0.7536 -0.3766  0.1639
 5247TIP3   OH237375   1.936   3.507   1.399  0.0452 -0.0650 -0.5996
 5247TIP3    H137376   1.998   3.561   1.447  0.8531 -0.3811 -1.2706
 5247TIP3    H237377   1.879   3.470   1.466  0.9617 -0.2615  0.0819
 5248TIP3   OH237378   2.593   6.517   7.245 -0.0876 -0.5814 -0.3501
 5248TIP3    H137379   2.688   6.528   7.239  0.0030 -0.6501  0.7316
 5248TIP3    H237380   2.571   6.550   7.332 -1.9806  5.7702 -2.6823
 5249TIP3   OH237381   2.042   4.471   6.765 -0.0523  0.4371  0.6750
 5249TIP3    H137382   2.114   4.521   6.804  1.0934  0.2672 -1.0887
 5249TIP3    H237383   2.023   4.516   6.683  0.7214 -1.7127 -0.7648
 5250TIP3   OH237384   1.171   3.790   1.123  0.3953  0.7585  0.6352
 5250TIP3    H137385   1.102   3.735   1.085 -0.7993  1.8191  1.2077
 5250TIP3    H237386   1.251   3.762   1.078 -0.3990 -0.4799 -0.0672
 5251TIP3   OH237387   5.090   4.037   1.828  0.0510 -0.3401 -0.2394
 5251TIP3    H137388   5.041   4.099   1.881 -0.9869  1.7288 -3.3397
 5251TIP3    H237389   5.045   3.953   1.841 -0.8507  0.3344  1.1728
 5252TIP3   OH237390   6.259   1.138   2.437 -0.8706 -0.0435  0.4779
 5252TIP3    H137391   6.343   1.172   2.407 -1.7762 -1.1630 -4.1156
 5252TIP3    H237392   6.197   1.209   2.419 -1.7116 -1.3748 -2.3913
 5253TIP3   OH237393   2.847   6.574   2.408  0.1878 -0.0931  0.1000
 5253TIP3    H137394   2.902   6.504   2.373 -0.8331 -0.7098 -0.3074
 5253TIP3    H237395   2.875   6.583   2.499 -0.3752 -1.7593  0.4672
 5254TIP3   OH237396   4.693   0.602   6.581  0.0800  0.0845  0.4433
 5254TIP3    H137397   4.603   0.590   6.611 -1.0434  2.6025 -1.5261
 5254TIP3    H237398   4.711   0.525   6.527 -1.5008  0.2732 -0.3983
 5255TIP3   OH237399   6.843   5.343   7.460 -0.1270 -0.7978  0.6503
 5255TIP3    H137400   6.757   5.320   7.427 -0.1154 -0.5190  0.4258
 5255TIP3    H237401   6.899   5.347   7.383  0.2805 -1.8066  0.8767
 5256TIP3   OH237402   6.426   3.464   2.273  0.2790 -0.3979 -0.1996
 5256TIP3    H137403   6.438   3.373   2.301 -2.7444 -1.1326 -0.9998
 5256TIP3    H237404   6.333   3.472   2.255  0.5380  2.7450 -0.7186
 5257TIP3   OH237405   1.796   5.414   2.590  0.4738 -0.3953  0.0895
 5257TIP3    H137406   1.829   5.349   2.652 -2.9177 -1.4860  0.9333
 5257TIP3    H237407   1.819   5.499   2.629  1.4864 -1.0590  0.9871
 5258TIP3   OH237408   0.002   3.532   1.384  0.0767  0.3221  0.5084
 5258TIP3    H137409  -0.057   3.549   1.457  0.5912 -0.5032  1.1412
 5258TIP3    H237410   0.071   3.598   1.392 -0.9666  1.5626 -0.4896
 5259TIP3   OH237411   2.149   1.746   0.477 -0.0357  0.3467 -0.2426
 5259TIP3    H137412   2.230   1.697   0.461 -1.4608 -1.6239 -1.9562
 5259TIP3    H237413   2.179   1.833   0.504  2.6850  0.1383 -2.1304
 5260TIP3   OH237414   5.166   3.126   8.359 -0.1617 -0.0847  0.0071
 5260TIP3    H137415   5.087   3.174   8.336  0.3875  0.4587 -0.7974
 5260TIP3    H237416   5.159   3.111   8.453 -0.9792  0.3916  0.0250
 5261TIP3   OH237417   4.989   5.204   6.341  0.2438  0.2143  0.0706
 5261TIP3    H137418   5.058   5.218   6.276 -1.1249 -0.7408 -1.6361
 5261TIP3    H237419   4.950   5.290   6.354 -1.5449 -0.0351 -2.8303
 5262TIP3   OH237420   3.364   0.145   0.957  0.1300  0.6542  0.0749
 5262TIP3    H137421   3.323   0.100   0.884 -1.2930  1.8248  0.1161
 5262TIP3    H237422   3.318   0.114   1.035 -0.4170  1.6601  0.1647
 5263TIP3   OH237423   0.673   4.161   7.098 -0.4825 -0.0187  0.5814
 5263TIP3    H137424   0.598   4.208   7.062  0.3852  1.8646  1.1264
 5263TIP3    H237425   0.662   4.071   7.066 -0.2794  1.2435 -3.6570
 5264TIP3   OH237426   2.840   6.708   1.064 -0.0147  0.0408 -0.4882
 5264TIP3    H137427   2.779   6.781   1.053 -1.3326 -1.0369 -0.5545
 5264TIP3    H237428   2.805   6.639   1.008 -0.1234 -1.4521  1.3480
 5265TIP3   OH237429   2.350   6.776   2.235 -0.3669  0.3248  0.0074
 5265TIP3    H137430   2.302   6.715   2.179  1.0748 -2.3084  1.4025
 5265TIP3    H237431   2.306   6.770   2.320  0.7687 -0.0779  0.5905
 5266TIP3   OH237432   3.982   3.827   7.596 -1.0597 -0.1687  0.8177
 5266TIP3    H137433   3.917   3.865   7.654 -0.1323 -1.3575  2.7323
 5266TIP3    H237434   3.936   3.756   7.551 -1.2062 -0.7494  1.8660
 5267TIP3   OH237435   4.978   0.456   0.952 -0.0264 -0.0889 -0.0629
 5267TIP3    H137436   5.001   0.549   0.955 -0.0428 -0.0589 -0.7373
 5267TIP3    H237437   5.062   0.411   0.936  0.0024 -0.2032  0.3893
 5268TIP3   OH237438   2.382   3.974   2.327 -0.1219  0.1320 -0.5502
 5268TIP3    H137439   2.361   4.028   2.403 -0.2768 -1.4306  0.5571
 5268TIP3    H237440   2.386   4.036   2.254 -1.5208  1.4571  0.4441
 5269TIP3   OH237441   2.323   0.900   6.733 -0.5471  0.7564 -0.1483
 5269TIP3    H137442   2.286   0.820   6.770 -1.8582  1.3548 -0.1250
 5269TIP3    H237443   2.322   0.885   6.638  0.9406  0.0360 -0.0916
 5270TIP3   OH237444   4.648   4.447   7.655 -0.5266  0.3057 -0.4357
 5270TIP3    H137445   4.631   4.446   7.750  1.1860 -0.2549 -0.1031
 5270TIP3    H237446   4.618   4.362   7.624 -0.6370  0.2976 -0.3066
 5271TIP3   OH237447   2.882   5.642   8.581 -0.3629 -0.3729 -0.0874
 5271TIP3    H137448   2.858   5.735   8.581 -0.6709 -0.4461  0.3780
 5271TIP3    H237449   2.854   5.611   8.667 -1.3139 -1.1639 -0.6632
 5272TIP3   OH237450   0.555   6.038   0.951 -0.6114 -0.0991  0.5977
 5272TIP3    H137451   0.649   6.046   0.934 -0.6373 -1.1114 -0.0973
 5272TIP3    H237452   0.549   6.023   1.046 -0.1492  0.9140  0.8005
 5273TIP3   OH237453   1.581   4.309   7.960  0.4265 -0.4396 -0.1674
 5273TIP3    H137454   1.507   4.322   7.901  1.1782  0.4922 -0.9550
 5273TIP3    H237455   1.544   4.319   8.048 -0.5960 -1.2435 -0.4886
 5274TIP3   OH237456   6.153   0.190   1.600 -0.0634 -0.2913 -0.9056
 5274TIP3    H137457   6.130   0.191   1.693 -0.2628 -0.4082 -0.9535
 5274TIP3    H237458   6.204   0.270   1.587 -0.9274  0.2661 -0.9223
 5275TIP3   OH237459   4.806   5.893   7.991 -0.6314  0.0243 -0.2005
 5275TIP3    H137460   4.784   5.826   8.056 -0.6037  0.2314  0.0267
 5275TIP3    H237461   4.721   5.916   7.952 -0.7546  0.4337  0.2925
 5276TIP3   OH237462   2.779   3.342   1.418 -0.2219 -0.4093  0.2956
 5276TIP3    H137463   2.739   3.400   1.354 -0.2632 -0.8318 -0.0649
 5276TIP3    H237464   2.870   3.372   1.423  0.7192 -2.3889 -2.4285
 5277TIP3   OH237465   5.862   6.093   0.722  0.0071 -0.3217 -0.7555
 5277TIP3    H137466   5.938   6.145   0.750 -0.0289  0.4725 -2.0464
 5277TIP3    H237467   5.873   6.009   0.766  0.3203  0.6074  1.0343
 5278TIP3   OH237468   6.431   5.995   8.641 -0.3273  0.3449  0.0837
 5278TIP3    H137469   6.441   5.943   8.561 -0.9811  1.0557 -0.4779
 5278TIP3    H237470   6.517   5.991   8.683  0.1838  0.3823 -0.9235
 5279TIP3   OH237471   0.763   5.069   0.532  0.2735  0.2635 -0.4617
 5279TIP3    H137472   0.773   5.018   0.451  1.4221  0.0973 -0.2241
 5279TIP3    H237473   0.672   5.100   0.529  0.4185  0.6561 -2.0538
 5280TIP3   OH237474   6.395   2.951   7.831  0.2113 -0.1379  0.0220
 5280TIP3    H137475   6.436   3.026   7.787 -1.8258 -0.7382 -3.2089
 5280TIP3    H237476   6.316   2.987   7.872 -0.4986 -0.3891 -1.0972
 5281TIP3   OH237477   6.448   3.829   6.589 -0.0942  0.1710  0.2894
 5281TIP3    H137478   6.501   3.823   6.509  1.1042 -0.9903  1.1281
 5281TIP3    H237479   6.407   3.743   6.596  0.8405 -0.2027  1.5769
 5282TIP3   OH237480   3.972   6.821   7.831  0.4365 -0.3002 -0.0814
 5282TIP3    H137481   4.038   6.883   7.863 -0.8237  1.8837 -1.4709
 5282TIP3    H237482   3.915   6.806   7.907  2.4544 -2.3232  1.1832
 5283TIP3   OH237483   5.263   4.052   1.002  0.4392  0.6933  0.6595
 5283TIP3    H137484   5.170   4.029   1.007  0.9483 -1.8057  0.1272
 5283TIP3    H237485   5.298   4.025   1.087  0.9828 -0.0199  0.2150
 5284TIP3   OH237486   0.646   6.502   7.705 -0.1654  0.5099  0.2718
 5284TIP3    H137487   0.718   6.455   7.748 -1.4059  0.0736  1.9437
 5284TIP3    H237488   0.690   6.572   7.657  1.3044  1.5247  2.8545
 5285TIP3   OH237489   1.940   4.615   0.214  0.0690  0.4090  0.4985
 5285TIP3    H137490   1.960   4.545   0.275 -0.3360  0.1515  0.3373
 5285TIP3    H237491   1.901   4.571   0.138  1.3986  0.6189 -0.3472
 5286TIP3   OH237492   6.139   0.335   7.538  0.2233 -0.2788 -0.1544
 5286TIP3    H137493   6.183   0.276   7.477  3.4020  1.0174  0.6248
 5286TIP3    H237494   6.089   0.277   7.596 -0.0081 -1.7998 -1.7981
 5287TIP3   OH237495   1.209   3.868   2.597 -0.0865  0.1877  0.3334
 5287TIP3    H137496   1.267   3.944   2.606 -0.3786  0.2748  1.5970
 5287TIP3    H237497   1.155   3.889   2.520 -1.6006  2.2714  1.8344
 5288TIP3   OH237498   1.322   5.431   8.111  0.2727 -0.1812 -0.2220
 5288TIP3    H137499   1.350   5.489   8.040 -0.0857  0.0274 -0.1954
 5288TIP3    H237500   1.303   5.490   8.184 -0.1625 -0.3239 -0.2175
 5289TIP3   OH237501   1.618   1.162   8.222 -0.0202  0.0919  0.4272
 5289TIP3    H137502   1.649   1.226   8.286 -0.5783 -1.3834  2.2862
 5289TIP3    H237503   1.678   1.170   8.148  1.8269  0.5818  1.9175
 5290TIP3   OH237504   6.746   6.214   6.660 -0.1977 -0.2033 -0.2251
 5290TIP3    H137505   6.671   6.175   6.614 -0.3319  0.2796 -0.4188
 5290TIP3    H237506   6.820   6.159   6.634 -0.6171 -1.2203  0.6601
 5291TIP3   OH237507   3.834   1.472   1.073 -0.3581 -0.1072 -0.2901
 5291TIP3    H137508   3.743   1.447   1.056 -0.1291 -2.0166  1.0154
 5291TIP3    H237509   3.883   1.433   1.001 -0.1611 -2.5438  1.0618
 5292TIP3   OH237510   2.929   3.483   7.743 -0.3592  0.1828  0.2004
 5292TIP3    H137511   2.870   3.557   7.729  0.1464  1.0060  2.0715
 5292TIP3    H237512   2.943   3.482   7.838  1.0688 -1.2068  0.0041
 5293TIP3   OH237513   4.865   4.137   6.712  0.0465  0.1566 -0.6118
 5293TIP3    H137514   4.952   4.110   6.683  0.8561  0.5239  1.2668
 5293TIP3    H237515   4.808   4.063   6.693  1.2231 -0.9513  0.0116
 5294TIP3   OH237516   3.999   1.183   1.891 -0.0275 -0.1724 -0.6132
 5294TIP3    H137517   3.931   1.248   1.909 -0.8303 -0.6464 -1.8349
 5294TIP3    H237518   4.077   1.216   1.938 -0.7601  0.9860 -0.1723
 5295TIP3   OH237519   1.346   6.280   6.813  0.7860 -0.8065 -0.5243
 5295TIP3    H137520   1.311   6.207   6.864 -0.5397 -1.0238 -1.6923
 5295TIP3    H237521   1.311   6.268   6.725  1.9132  0.3170 -1.1625
 5296TIP3   OH237522   0.936   2.522   7.370  0.0474  0.2895 -0.1958
 5296TIP3    H137523   0.845   2.553   7.371  0.5079  1.7433 -0.4490
 5296TIP3    H237524   0.929   2.427   7.358 -1.4443  0.2907  0.4308
 5297TIP3   OH237525   6.092   4.201   6.660 -0.4506 -0.2699 -0.6573
 5297TIP3    H137526   6.111   4.126   6.603 -0.1046 -0.9110  0.2747
 5297TIP3    H237527   6.033   4.165   6.727  0.1597  0.1468  0.1130
 5298TIP3   OH237528   1.487   0.063   1.728  0.3038 -0.3085  0.2676
 5298TIP3    H137529   1.444   0.003   1.667  0.1174 -0.9860  1.0471
 5298TIP3    H237530   1.442   0.146   1.715 -1.5305 -1.0726  1.3056
 5299TIP3   OH237531   0.694   4.612   7.177 -0.1529 -0.6077 -0.1107
 5299TIP3    H137532   0.658   4.621   7.265 -1.0029 -0.2219 -0.4941
 5299TIP3    H237533   0.705   4.702   7.146  2.1659 -0.6487  0.3811
 5300TIP3   OH237534   3.930   4.919   1.537  0.0961 -0.0336  0.0644
 5300TIP3    H137535   3.837   4.900   1.525 -0.1382  1.8041 -1.5595
 5300TIP3    H237536   3.934   5.015   1.541  1.8445 -0.1116  0.9865
 5301TIP3   OH237537   4.991   4.144   8.692  0.2870 -0.3982  0.5202
 5301TIP3    H137538   5.045   4.142   8.613 -0.4428 -1.5400  0.0283
 5301TIP3    H237539   4.975   4.052   8.712  0.2110 -0.1099  1.8378
 5302TIP3   OH237540   3.901   2.883   7.847 -0.3646  0.4237 -0.4100
 5302TIP3    H137541   3.929   2.804   7.892 -0.9764  0.4383  0.0011
 5302TIP3    H237542   3.953   2.885   7.767  1.1394  0.6932  0.5421
 5303TIP3   OH237543   2.934   1.576   1.793 -0.0026 -0.0903  0.3160
 5303TIP3    H137544   2.996   1.549   1.861 -1.1291 -0.8173  1.0886
 5303TIP3    H237545   2.984   1.571   1.712  1.1661  0.1015  0.9967
 5304TIP3   OH237546   5.443   5.950   7.783 -0.4351 -0.1559 -0.2326
 5304TIP3    H137547   5.500   5.913   7.850  0.4928  0.9222 -0.4039
 5304TIP3    H237548   5.363   5.972   7.830 -1.4006 -3.1235 -0.2830
 5305TIP3   OH237549   4.700   2.262   6.568 -0.4862 -0.0433 -0.1373
 5305TIP3    H137550   4.647   2.230   6.495 -0.7732 -2.3102  0.9840
 5305TIP3    H237551   4.636   2.284   6.636 -0.1602  0.7381 -0.0825
 5306TIP3   OH237552   0.173   6.552   7.248  0.2599 -0.3680  0.2783
 5306TIP3    H137553   0.231   6.582   7.319 -1.3809 -1.0127  1.9766
 5306TIP3    H237554   0.230   6.505   7.188  1.3827 -1.9683  2.4607
 5307TIP3   OH237555   5.878   0.652   0.279 -0.0853 -0.1794  0.1614
 5307TIP3    H137556   5.803   0.707   0.258  1.5820  2.1597 -0.1368
 5307TIP3    H237557   5.860   0.618   0.366 -0.7678  1.6874  0.7818
 5308TIP3   OH237558   4.153   3.645   8.286 -0.4715  0.3732  0.0965
 5308TIP3    H137559   4.243   3.677   8.296  0.0330 -0.2737 -1.9708
 5308TIP3    H237560   4.101   3.701   8.345  1.1404  1.3371  0.6629
 5309TIP3   OH237561   3.617   3.521   8.231  0.1338 -0.0097  0.2306
 5309TIP3    H137562   3.575   3.554   8.311  1.4127 -0.9958  1.3503
 5309TIP3    H237563   3.704   3.561   8.231  0.6601 -1.1162  0.0965
 5310TIP3   OH237564   1.282   1.830   1.311 -0.6391 -0.3352 -0.0129
 5310TIP3    H137565   1.287   1.925   1.299 -1.8930 -0.0588  1.3036
 5310TIP3    H237566   1.295   1.818   1.406  1.4373 -1.6756 -0.3961
 5311TIP3   OH237567   3.006   3.701   0.825 -0.0410  0.5590  0.1807
 5311TIP3    H137568   3.010   3.767   0.756  1.0129 -0.0305 -0.3537
 5311TIP3    H237569   2.948   3.738   0.891 -3.6973 -0.1758 -2.3513
 5312TIP3   OH237570   2.597   0.977   0.153  0.0693 -0.0475 -0.3248
 5312TIP3    H137571   2.614   1.048   0.090  0.1548  0.9863  0.8173
 5312TIP3    H237572   2.523   1.009   0.205 -0.5056 -1.2262 -0.3751
 5313TIP3   OH237573   2.429   2.097   7.661 -0.1750 -0.6169  0.0635
 5313TIP3    H137574   2.356   2.119   7.719  0.4154  1.0914  0.2362
 5313TIP3    H237575   2.477   2.179   7.652  1.8220 -1.7278  0.0791
 5314TIP3   OH237576   1.630   4.200   0.944 -0.7908  0.1652 -0.5655
 5314TIP3    H137577   1.594   4.194   0.856  1.0077  0.5014 -1.3690
 5314TIP3    H237578   1.671   4.114   0.959 -1.1660  0.0750 -0.0039
 5315TIP3   OH237579   1.390   3.641   0.232 -0.4877  0.1624  0.4071
 5315TIP3    H137580   1.482   3.615   0.241 -0.6966 -0.5982  0.4162
 5315TIP3    H237581   1.349   3.617   0.315 -0.3405  2.1299  1.1044
 5316TIP3   OH237582   3.880   4.853   7.320  0.2139  0.0411 -0.2778
 5316TIP3    H137583   3.811   4.885   7.262 -1.9774 -0.9852  1.6591
 5316TIP3    H237584   3.839   4.785   7.373  2.7188 -0.6227  0.9874
 5317TIP3   OH237585   0.484   6.796   8.642 -0.5783 -0.2513  0.0728
 5317TIP3    H137586   0.477   6.704   8.669 -0.5470 -0.6326 -1.1289
 5317TIP3    H237587   0.394   6.823   8.626 -0.6842  0.2815  1.4840
 5318TIP3   OH237588   0.965   0.638   2.449 -0.1022 -0.0425  0.2856
 5318TIP3    H137589   1.042   0.688   2.475  0.4627 -0.7148 -0.0523
 5318TIP3    H237590   0.901   0.653   2.519  0.4129  0.3511  0.6770
 5319TIP3   OH237591   2.091   2.548   8.645  0.1916 -0.3294  0.3581
 5319TIP3    H137592   2.026   2.509   8.586 -0.9665  0.4577  1.0608
 5319TIP3    H237593   2.068   2.514   8.731 -0.4376  1.3424  0.8829
 5320TIP3   OH237594   1.317   3.050   0.511 -0.8609 -0.4058  0.6426
 5320TIP3    H137595   1.248   2.986   0.493 -1.0323 -0.8104  2.5132
 5320TIP3    H237596   1.343   3.082   0.425 -1.7512 -1.9642 -0.2617
 5321TIP3   OH237597   2.270   5.493   8.328  0.3748  0.2585  0.2815
 5321TIP3    H137598   2.316   5.575   8.346 -0.3567  0.4308  1.4728
 5321TIP3    H237599   2.316   5.427   8.380  0.7871 -0.0526 -0.4549
 5322TIP3   OH237600   3.323   6.774   7.777 -0.0324  0.4477  0.4171
 5322TIP3    H137601   3.395   6.799   7.834 -1.0232  4.2529  0.2856
 5322TIP3    H237602   3.339   6.822   7.696 -1.3389 -0.7555 -0.6179
 5323TIP3   OH237603   0.208   4.092   8.081  0.6446 -0.1810  0.0622
 5323TIP3    H137604   0.221   4.019   8.022  0.4410 -0.3954  0.2808
 5323TIP3    H237605   0.132   4.068   8.133 -1.8329  1.8026 -2.3671
 5324TIP3   OH237606   2.051   1.692   2.985  0.4683 -0.7113 -0.0038
 5324TIP3    H137607   2.060   1.786   3.002  0.1097 -0.6554 -0.1278
 5324TIP3    H237608   2.099   1.678   2.902 -0.9991 -0.3137 -0.9525
 5325TIP3   OH237609   3.875   2.531   8.349 -0.7463  0.6591  0.0126
 5325TIP3    H137610   3.896   2.518   8.442  2.2603  1.6999 -0.4158
 5325TIP3    H237611   3.940   2.479   8.302 -1.7042  0.8177 -1.5348
 5326TIP3   OH237612   5.347   1.577   7.814  0.5155  0.3315 -0.1548
 5326TIP3    H137613   5.320   1.667   7.832 -0.4078  0.0942 -0.3384
 5326TIP3    H237614   5.421   1.586   7.753  2.0178  1.0373  1.6734
 5327TIP3   OH237615   3.148   3.999   1.016  0.9721  0.1591 -0.0377
 5327TIP3    H137616   3.086   4.007   0.944  0.4954  3.1226  0.5533
 5327TIP3    H237617   3.093   4.003   1.095  1.4104 -3.5951  0.6497
 5328TIP3   OH237618   3.112   2.685   7.932  0.2178  0.3230  0.2206
 5328TIP3    H137619   3.155   2.606   7.899  0.2992 -0.4601  2.0334
 5328TIP3    H237620   3.041   2.702   7.870  1.7359  0.3406 -1.5952
 5329TIP3   OH237621   1.650   1.107   7.614 -0.2829  0.0621  0.2354
 5329TIP3    H137622   1.737   1.098   7.652 -0.2107 -1.1045 -0.1801
 5329TIP3    H237623   1.592   1.116   7.689  0.1263  0.3478  0.5289
 5330TIP3   OH237624   6.097   2.711   0.688 -0.3181  0.1234  0.6574
 5330TIP3    H137625   6.056   2.763   0.757 -0.8799  0.5439  0.0234
 5330TIP3    H237626   6.168   2.766   0.656 -0.1449 -0.0134  0.8059
 5331TIP3   OH237627   4.712   3.986   1.858 -0.4776 -0.1386  0.0061
 5331TIP3    H137628   4.800   3.950   1.870 -0.3606  0.6764  2.0590
 5331TIP3    H237629   4.683   4.007   1.947 -0.8458  4.0219 -0.9240
 5332TIP3   OH237630   4.734   3.290   2.364 -0.2388  0.3029  0.1494
 5332TIP3    H137631   4.740   3.365   2.423 -1.7642  1.3286 -0.9127
 5332TIP3    H237632   4.641   3.265   2.367 -0.3377  0.2873 -1.6262
 5333TIP3   OH237633   5.976   0.252   0.928 -0.0964  0.0453  0.0981
 5333TIP3    H137634   6.063   0.218   0.952  0.9713  1.7931 -1.0310
 5333TIP3    H237635   5.918   0.176   0.933  2.0308 -1.8789 -1.8718
 5334TIP3   OH237636   5.620   4.627   0.494  0.2529 -0.5660 -1.0611
 5334TIP3    H137637   5.581   4.539   0.497 -0.5549 -0.1895  0.6010
 5334TIP3    H237638   5.558   4.682   0.541  1.6122  0.5535 -0.5085
 5335TIP3   OH237639   3.968   2.251   7.619 -0.2685  0.5610 -0.2687
 5335TIP3    H137640   3.880   2.216   7.606 -0.1041  0.3941 -0.9829
 5335TIP3    H237641   3.966   2.290   7.706 -1.7003  2.4206 -1.0590
 5336TIP3   OH237642   0.828   3.243   7.567 -0.0827  1.0718  0.1899
 5336TIP3    H137643   0.897   3.276   7.625  0.7295  0.7851 -0.5971
 5336TIP3    H237644   0.867   3.243   7.480 -1.3550  1.6745 -0.4096
 5337TIP3   OH237645   2.360   0.145   7.271  0.2711  0.2378  0.4612
 5337TIP3    H137646   2.454   0.157   7.257  0.0958  1.3308  0.1839
 5337TIP3    H237647   2.318   0.215   7.221 -0.6856 -0.0398  0.8426
 5338TIP3   OH237648   5.367   3.048   0.136 -0.2569 -0.3459  0.1760
 5338TIP3    H137649   5.426   3.116   0.169  0.4178 -0.6342 -0.3888
 5338TIP3    H237650   5.290   3.095   0.106  0.3447  0.2254 -0.5276
 5339TIP3   OH237651   1.256   2.976   1.516  0.3578  0.2496 -0.7026
 5339TIP3    H137652   1.244   3.071   1.510 -0.0611  0.2742  0.3078
 5339TIP3    H237653   1.333   2.965   1.571 -0.4295 -0.0001  0.3707
 5340TIP3   OH237654   3.936   3.230   6.969  0.3455 -0.0827 -0.5265
 5340TIP3    H137655   3.989   3.296   6.924 -0.2175  0.2197 -0.7598
 5340TIP3    H237656   3.865   3.280   7.010 -0.2337 -0.5615 -0.9162
 5341TIP3   OH237657   3.708   1.797   0.942 -0.0853  0.4064  0.2487
 5341TIP3    H137658   3.634   1.739   0.963 -1.0146  0.9157 -1.3805
 5341TIP3    H237659   3.773   1.779   1.010 -1.9738  0.4447  2.1585
 5342TIP3   OH237660   1.818   0.085   1.368  0.1728 -0.4966 -0.3263
 5342TIP3    H137661   1.767   0.162   1.392  0.3126  0.3175 -2.4467
 5342TIP3    H237662   1.789   0.017   1.429  0.1949  1.2417  1.7451
 5343TIP3   OH237663   0.038   4.898   0.133 -0.1200 -0.2922  0.0152
 5343TIP3    H137664   0.130   4.919   0.121  0.4284 -2.4284  0.0524
 5343TIP3    H237665   0.002   4.899   0.044 -0.1614  0.8816  0.0339
 5344TIP3   OH237666   6.808   2.174   2.073 -0.0335  0.2230  0.6105
 5344TIP3    H137667   6.896   2.202   2.048 -0.0988 -0.8727 -0.9659
 5344TIP3    H237668   6.758   2.256   2.079  0.6786  0.7285 -0.1710
 5345TIP3   OH237669   2.591   3.758   6.194 -0.2131  0.0177  0.0624
 5345TIP3    H137670   2.584   3.843   6.236 -0.0251  0.0925 -0.0556
 5345TIP3    H237671   2.683   3.752   6.166 -0.4161  0.1128 -0.6459
 5346TIP3   OH237672   4.942   5.642   0.160 -0.4210 -0.1456  0.8570
 5346TIP3    H137673   4.975   5.632   0.071  0.0209 -1.1082  1.1233
 5346TIP3    H237674   4.933   5.737   0.172 -0.5653 -0.0184 -0.2348
 5347TIP3   OH237675   4.122   1.013   7.220  0.6738 -1.0267 -0.5607
 5347TIP3    H137676   4.031   1.009   7.190  1.0661  0.7794 -2.2291
 5347TIP3    H237677   4.156   0.925   7.204 -0.4709 -1.4064 -1.0450
 5348TIP3   OH237678   4.882   5.522   0.649 -0.5182 -0.0308 -0.2480
 5348TIP3    H137679   4.923   5.489   0.569  0.2775  0.2488  0.0332
 5348TIP3    H237680   4.788   5.510   0.635 -0.4848  1.0973 -1.7235
 5349TIP3   OH237681   3.054   0.975   7.612 -0.0581 -0.3164 -0.1331
 5349TIP3    H137682   3.013   0.960   7.527  0.8488 -0.1853 -0.6118
 5349TIP3    H237683   2.995   0.934   7.675 -0.2151 -1.3672 -0.9316
 5350TIP3   OH237684   2.856   3.893   0.344 -0.0486  0.0192  0.0558
 5350TIP3    H137685   2.852   3.858   0.255  0.5856  1.1457 -0.4377
 5350TIP3    H237686   2.917   3.835   0.389 -0.2238 -0.4485 -0.2958
 5351TIP3   OH237687   5.983   1.144   0.307  0.7374 -0.2633  0.2654
 5351TIP3    H137688   5.976   1.117   0.399  0.5120 -0.1182  0.2914
 5351TIP3    H237689   6.055   1.208   0.307  1.1091 -0.6743  0.2441
 5352TIP3   OH237690   3.506   5.527   1.307 -0.2822  0.3174 -0.1049
 5352TIP3    H137691   3.487   5.618   1.333  0.6640  0.3764  0.4535
 5352TIP3    H237692   3.596   5.513   1.336  0.2790 -0.1588 -2.0001
 5353TIP3   OH237693   6.637   2.179   7.336 -0.5118  0.4932 -0.0555
 5353TIP3    H137694   6.556   2.129   7.343  0.1653 -0.5185  0.8487
 5353TIP3    H237695   6.616   2.265   7.373 -1.1825  0.2532  0.1160
 5354TIP3   OH237696   0.189   1.883   1.869  0.2043  0.6969  0.1527
 5354TIP3    H137697   0.190   1.972   1.833  0.0408  1.1814  1.2881
 5354TIP3    H237698   0.110   1.844   1.832  1.2986  0.2979 -1.9439
 5355TIP3   OH237699   5.925   1.097   7.535  0.0016  0.6528  0.2695
 5355TIP3    H137700   5.900   1.049   7.613 -1.0384  1.2430  0.3068
 5355TIP3    H237701   5.889   1.046   7.462  1.0276  0.0656  0.1446
 5356TIP3   OH237702   2.118   0.830   8.109  0.3271 -0.3743 -0.3967
 5356TIP3    H137703   2.102   0.775   8.033 -0.1492  0.3830 -0.8464
 5356TIP3    H237704   2.042   0.887   8.115  0.7493  0.1550  0.1404
 5357TIP3   OH237705   2.008   3.090   8.212 -0.4563  0.8829 -0.5289
 5357TIP3    H137706   2.016   3.012   8.267 -0.4919  0.9779 -0.3873
 5357TIP3    H237707   1.915   3.093   8.189 -0.4646  0.9109 -0.4929
 5358TIP3   OH237708   1.001   6.698   0.295 -0.5681  1.0549  0.0891
 5358TIP3    H137709   0.910   6.671   0.305 -0.7532  2.1619  1.7575
 5358TIP3    H237710   0.997   6.794   0.292  0.4508  1.0854 -1.0255
 5359TIP3   OH237711   6.561   3.043   6.643  0.1709  0.1499 -0.4034
 5359TIP3    H137712   6.540   3.133   6.618 -0.9880 -1.0253 -4.4453
 5359TIP3    H237713   6.491   3.018   6.704  0.3405  1.7932  0.5373
 5360TIP3   OH237714   0.515   1.945   1.196  0.6829 -0.2974  0.7658
 5360TIP3    H137715   0.553   1.981   1.276 -0.7487  2.8482  0.1556
 5360TIP3    H237716   0.453   1.879   1.226  0.8107  0.2074  2.1810
 5361TIP3   OH237717   4.186   3.566   0.650  0.0691  0.2288 -0.4697
 5361TIP3    H137718   4.276   3.583   0.623  0.5324 -0.7404  0.3829
 5361TIP3    H237719   4.191   3.558   0.745 -0.6317 -1.4191 -0.5498
 5362TIP3   OH237720   6.396   2.023   7.411  0.3818 -0.5517  0.4750
 5362TIP3    H137721   6.329   2.047   7.347  0.6492  1.4493  0.8851
 5362TIP3    H237722   6.369   1.936   7.443 -1.5572 -0.1504  0.0422
 5363TIP3   OH237723   5.914   1.410   1.568  0.3757  0.3300 -0.9051
 5363TIP3    H137724   5.863   1.329   1.561 -0.1784  0.5072  0.6476
 5363TIP3    H237725   5.969   1.410   1.490  1.5039 -2.3269 -0.2332
 5364TIP3   OH237726   6.021   1.815   7.988 -0.6255 -1.2905  0.0095
 5364TIP3    H137727   6.053   1.768   8.065 -0.7751 -3.0756 -0.9874
 5364TIP3    H237728   6.009   1.748   7.921 -1.0308  0.1395 -1.4203
 5365TIP3   OH237729   2.562   4.336   1.953 -0.1592 -0.5057  0.3111
 5365TIP3    H137730   2.528   4.256   1.914 -0.2946  0.1330 -0.9381
 5365TIP3    H237731   2.648   4.312   1.987 -1.0783 -1.6903  1.9019
 5366TIP3   OH237732   1.175   2.331   0.315 -0.2693 -0.0657  0.2173
 5366TIP3    H137733   1.226   2.272   0.260  0.0120 -1.9230  2.3492
 5366TIP3    H237734   1.112   2.371   0.255  1.1196 -0.6805 -1.7458
 5367TIP3   OH237735   5.435   0.113   1.775  0.2425 -0.0883 -0.5542
 5367TIP3    H137736   5.444   0.189   1.717  1.3718  0.3012  0.0990
 5367TIP3    H237737   5.387   0.146   1.851 -0.8727 -0.4980 -1.0609
 5368TIP3   OH237738   6.161   5.857   0.159 -0.0159 -0.2503 -0.4733
 5368TIP3    H137739   6.178   5.877   0.067  3.1005 -2.1033 -0.4523
 5368TIP3    H237740   6.212   5.777   0.176  0.4439  0.6260  3.1227
 5369TIP3   OH237741   0.573   2.401   7.468  0.2233 -0.6573 -0.0728
 5369TIP3    H137742   0.479   2.403   7.487  0.3145 -0.1307  0.3615
 5369TIP3    H237743   0.598   2.493   7.465  0.5564 -0.7758 -1.0769
 5370TIP3   OH237744   0.552   1.172   1.669  0.0926  0.1712 -0.0355
 5370TIP3    H137745   0.463   1.188   1.638 -0.1242 -0.0670  0.4486
 5370TIP3    H237746   0.578   1.254   1.711 -0.5587 -0.2943  1.3568
 5371TIP3   OH237747   3.394   1.089   2.035  0.4535 -0.1589 -0.0629
 5371TIP3    H137748   3.307   1.123   2.056  1.0583  0.4219  1.6774
 5371TIP3    H237749   3.435   1.158   1.984 -0.0139 -0.3559 -0.7267
 5372TIP3   OH237750   3.672   1.283   7.204  0.5076  0.9754  0.2870
 5372TIP3    H137751   3.695   1.238   7.123 -0.6645  2.5930 -1.0110
 5372TIP3    H237752   3.661   1.374   7.178 -3.4684  1.0054  1.5021
 5373TIP3   OH237753   0.431   6.601   1.371 -0.2140 -0.5111 -0.1807
 5373TIP3    H137754   0.372   6.664   1.330 -0.1783 -1.5124 -1.8379
 5373TIP3    H237755   0.519   6.628   1.343 -0.1339 -0.8493 -0.2528
 5374TIP3   OH237756   3.905   6.435   1.073  0.0104  0.5126 -0.0321
 5374TIP3    H137757   3.908   6.465   0.982  0.1543  1.5340  0.2973
 5374TIP3    H237758   3.973   6.368   1.079 -0.1913  0.2404 -0.7442
 5375TIP3   OH237759   6.348   6.730   2.035 -0.5427 -0.0316 -0.3504
 5375TIP3    H137760   6.291   6.739   2.111  0.9551 -1.3854  1.0332
 5375TIP3    H237761   6.432   6.767   2.063  0.2644 -1.2579 -1.0322
 5376TIP3   OH237762   4.438   0.330   8.699  0.0444 -0.3753 -0.7833
 5376TIP3    H137763   4.421   0.241   8.666  0.0048 -1.1633  1.2555
 5376TIP3    H237764   4.354   0.360   8.732  0.4033 -0.2322  0.0128
 5377TIP3   OH237765   5.090   1.683   1.004 -0.2634  0.6980 -0.0949
 5377TIP3    H137766   5.155   1.692   1.074 -1.7782  1.8565  1.2216
 5377TIP3    H237767   5.050   1.769   0.996 -0.7404  0.3595 -1.8150
 5378TIP3   OH237768   4.048   5.160   7.390  0.0724  0.3454 -0.0850
 5378TIP3    H137769   4.127   5.125   7.349  0.7865  1.1449  0.5807
 5378TIP3    H237770   4.043   5.117   7.475 -1.5483 -1.5049 -1.0165
 5379TIP3   OH237771   0.235   2.227   2.739 -0.0223  0.6490  0.4386
 5379TIP3    H137772   0.221   2.236   2.645 -0.5873 -0.6513  0.3847
 5379TIP3    H237773   0.228   2.317   2.773  0.0415  1.1064 -0.7274
 5380TIP3   OH237774   6.838   5.211   1.072 -0.2515  0.1373  0.2225
 5380TIP3    H137775   6.931   5.211   1.048 -0.4541 -1.2284 -0.7556
 5380TIP3    H237776   6.816   5.303   1.087  1.2730  0.4704  0.5494
 5381TIP3   OH237777   6.053   5.255   1.405  0.3203 -0.1898  0.5622
 5381TIP3    H137778   6.015   5.249   1.493 -0.7646  1.1998  0.2225
 5381TIP3    H237779   5.986   5.296   1.352  1.4220  0.1350 -0.6411
 5382TIP3   OH237780   2.134   1.579   2.264 -0.3187 -1.0141  0.6403
 5382TIP3    H137781   2.157   1.534   2.346  1.0384  0.9265  1.4114
 5382TIP3    H237782   2.128   1.671   2.289 -1.8546 -0.6099 -1.0977
 5383TIP3   OH237783   1.109   0.989   1.821  0.1238  0.4354  0.2172
 5383TIP3    H137784   1.055   1.027   1.752  0.8606  0.3579 -0.4186
 5383TIP3    H237785   1.073   0.901   1.834 -0.1585  0.5305  0.0811
 5384TIP3   OH237786   6.341   6.021   8.185 -0.0376  0.2245  0.0546
 5384TIP3    H137787   6.289   5.980   8.254 -1.1073  1.5158  0.0593
 5384TIP3    H237788   6.289   6.009   8.105  0.0662  0.7884 -0.0991
 5385TIP3   OH237789   6.164   6.816   8.735  0.0626 -0.4403 -0.0280
 5385TIP3    H137790   6.222   6.793   8.808 -0.5985 -2.0300  0.0469
 5385TIP3    H237791   6.185   6.752   8.667  0.0230  0.4503 -0.9036
 5386TIP3   OH237792   1.842   2.367   0.759  0.0096  0.3411 -0.0343
 5386TIP3    H137793   1.822   2.438   0.821 -0.3441  0.5400 -0.3712
 5386TIP3    H237794   1.786   2.385   0.684  0.1618 -0.1148 -0.2580
 5387TIP3   OH237795   0.537   3.685   0.726  0.1636 -0.0067 -0.4053
 5387TIP3    H137796   0.497   3.769   0.746  0.8861  1.0910 -3.1684
 5387TIP3    H237797   0.484   3.650   0.653  1.5678 -0.5801 -1.1856
 5388TIP3   OH237798   3.143   0.930   0.250  0.2243 -0.8616 -0.5148
 5388TIP3    H137799   3.162   0.932   0.157 -0.2636  0.1487 -0.5989
 5388TIP3    H237800   3.051   0.955   0.257  0.5590  0.2075  0.3130
 5389TIP3   OH237801   4.047   4.128   8.778 -0.5942 -0.3577  0.6178
 5389TIP3    H137802   3.985   4.057   8.757 -1.2950 -0.2833  2.3084
 5389TIP3    H237803   3.994   4.194   8.822  0.4215  0.4046  0.7351
 5390TIP3   OH237804   6.695   2.866   8.775 -0.0107  0.2241  0.0960
 5390TIP3    H137805   6.718   2.776   8.751 -1.5810  0.1220 -1.2545
 5390TIP3    H237806   6.655   2.902   8.696 -0.0803  1.8741  0.8485
 5391TIP3   OH237807   2.420   1.119   7.734 -0.4211  0.3775 -0.2961
 5391TIP3    H137808   2.469   1.129   7.652 -1.5707  0.7681 -0.9526
 5391TIP3    H237809   2.420   1.206   7.773  0.3084  0.1470  0.2459
 5392TIP3   OH237810   5.029   3.429   7.444  0.3756  0.2647 -0.2263
 5392TIP3    H137811   4.991   3.460   7.526 -0.0114 -0.0038 -0.2957
 5392TIP3    H237812   4.962   3.448   7.378  0.2222 -0.4809 -0.3048
 5393TIP3   OH237813   6.848   0.753   1.914 -0.3428 -0.1780 -0.0436
 5393TIP3    H137814   6.785   0.793   1.854  0.7775 -1.3164 -2.0953
 5393TIP3    H237815   6.803   0.676   1.948  0.2499 -1.6976 -2.4641
 5394TIP3   OH237816   2.834   1.623   0.290  0.4135 -0.3551  0.2117
 5394TIP3    H137817   2.820   1.709   0.252  1.4174 -0.6268 -0.8335
 5394TIP3    H237818   2.903   1.636   0.355  0.1729 -0.2765  0.4538
 5395TIP3   OH237819   1.776   0.764   0.332 -0.5790  0.1411  0.0689
 5395TIP3    H137820   1.818   0.694   0.282  0.5019  0.2368  0.8086
 5395TIP3    H237821   1.829   0.842   0.314 -0.8196  0.4149  0.5222
 5396TIP3   OH237822   3.216   2.073   8.147  0.2408  0.5212 -0.0813
 5396TIP3    H137823   3.146   2.075   8.212 -0.5321 -0.7602 -0.8395
 5396TIP3    H237824   3.231   2.165   8.126 -0.4387  0.8740  0.9041
 5397TIP3   OH237825   0.407   1.500   8.319 -0.0074  0.1435  0.5742
 5397TIP3    H137826   0.448   1.415   8.335 -1.8673 -0.9723 -0.2207
 5397TIP3    H237827   0.360   1.520   8.399 -1.5017 -0.7742 -0.0368
 5398TIP3   OH237828   1.714   2.468   7.075  0.3223 -0.2354  0.2006
 5398TIP3    H137829   1.711   2.387   7.127 -1.6436  1.4679  3.0365
 5398TIP3    H237830   1.623   2.481   7.048  0.4781  1.3812  0.4123
 5399TIP3   OH237831   1.771   4.372   1.119 -0.1284  0.4364 -0.0012
 5399TIP3    H137832   1.860   4.368   1.085  0.1089  1.3970  0.4750
 5399TIP3    H237833   1.717   4.332   1.051  0.6199  0.1792 -0.4498
 5400TIP3   OH237834   1.055   6.746   0.897 -0.2381  0.0735 -0.3900
 5400TIP3    H137835   0.982   6.784   0.946 -0.3085  0.1279 -0.5385
 5400TIP3    H237836   1.055   6.792   0.814 -1.2711 -1.2786 -1.1810
 5401TIP3   OH237837   2.690   3.773   1.420  0.3156 -0.7820 -0.7180
 5401TIP3    H137838   2.775   3.780   1.463 -0.2790  1.9677  0.2679
 5401TIP3    H237839   2.649   3.697   1.461  1.9672 -1.6767 -0.6349
 5402TIP3   OH237840   6.777   0.753   1.005  0.0848 -0.6273 -0.0998
 5402TIP3    H137841   6.760   0.748   0.911  0.1723 -0.3965 -0.1283
 5402TIP3    H237842   6.867   0.783   1.011 -0.0795 -0.1573  0.0601
 5403TIP3   OH237843   6.747   0.675   1.437  0.7059 -0.6108 -0.0725
 5403TIP3    H137844   6.733   0.598   1.382  0.2011  0.5284 -1.5657
 5403TIP3    H237845   6.835   0.663   1.472 -0.0198 -2.7616  1.2222
 5404TIP3   OH237846   1.998   3.763   6.969  0.6359  0.2639  0.3169
 5404TIP3    H137847   1.984   3.767   7.064  1.7093  1.5322  0.4564
 5404TIP3    H237848   2.076   3.709   6.958 -1.5948 -3.2046 -0.1771
 5405TIP3   OH237849   0.057   6.618   0.531 -0.0210 -0.3094  0.7352
 5405TIP3    H137850   0.012   6.570   0.461  2.3514 -1.6911  0.0456
 5405TIP3    H237851   0.041   6.566   0.610 -0.9759  0.1265  0.8450
 5406TIP3   OH237852   4.166   4.681   1.702 -0.6717  0.1156  0.4264
 5406TIP3    H137853   4.121   4.628   1.767 -0.0263  0.8340  1.4938
 5406TIP3    H237854   4.175   4.767   1.743  0.4848  0.3506 -0.2655
 5407TIP3   OH237855   6.300   6.802   1.135 -0.0414 -0.2084  0.2029
 5407TIP3    H137856   6.320   6.807   1.228  1.0807  1.4985 -0.0749
 5407TIP3    H237857   6.360   6.736   1.100  1.2127  0.8100  0.3404
 5408TIP3   OH237858   2.590   5.888   0.909  0.1439 -0.7531  0.4289
 5408TIP3    H137859   2.546   5.935   0.839  0.0320 -0.3829  0.7441
 5408TIP3    H237860   2.534   5.812   0.927  0.0211 -0.6851  0.3253
 5409TIP3   OH237861   0.705   6.047   7.023 -0.2685  0.2331  0.0645
 5409TIP3    H137862   0.681   5.954   7.030  1.7237 -0.2338  1.2097
 5409TIP3    H237863   0.712   6.062   6.929 -0.1445 -0.9023 -0.1217
 5410TIP3   OH237864   1.339   5.976   0.632  0.1300  0.0190 -0.3405
 5410TIP3    H137865   1.272   6.037   0.662  0.4095  0.0379  0.2710
 5410TIP3    H237866   1.338   5.906   0.698  0.0590 -0.4552 -0.8399
 5411TIP3   OH237867   6.488   2.012   0.225 -0.4355 -0.1857  0.3044
 5411TIP3    H137868   6.581   2.014   0.248 -0.6476 -2.6632  1.7839
 5411TIP3    H237869   6.444   2.050   0.301 -0.6864 -0.3048  0.2208
 5412TIP3   OH237870   1.646   4.613   8.578  0.1577 -0.3641 -0.4151
 5412TIP3    H137871   1.741   4.608   8.593  0.5563 -1.8980 -2.7964
 5412TIP3    H237872   1.614   4.675   8.644  2.7066 -0.2815  0.8693
 5413TIP3   OH237873   6.781   5.400   7.743 -0.0308 -0.7679  0.2293
 5413TIP3    H137874   6.829   5.375   7.664  0.3722 -2.4682  0.9616
 5413TIP3    H237875   6.689   5.398   7.716  0.1225 -0.9874 -0.2916
 5414TIP3   OH237876   2.451   0.941   8.491 -0.1523 -0.2602  0.2232
 5414TIP3    H137877   2.399   0.886   8.433  1.1171 -0.0665 -1.1531
 5414TIP3    H237878   2.530   0.961   8.441  0.4213  0.9693  1.5471
 5415TIP3   OH237879   5.071   1.309   8.342 -0.5369  0.3266 -0.5687
 5415TIP3    H137880   4.985   1.349   8.356 -0.3262  1.9105 -3.1600
 5415TIP3    H237881   5.056   1.243   8.274 -0.2525 -1.8276  1.3539
 5416TIP3   OH237882   4.608   6.691   6.310 -0.4072  0.2013  0.5107
 5416TIP3    H137883   4.698   6.710   6.284 -0.6505 -1.1063 -1.5994
 5416TIP3    H237884   4.556   6.760   6.269 -0.6623 -1.1428 -1.6112
 5417TIP3   OH237885   0.498   2.505   2.114 -0.0212  0.1634 -0.4413
 5417TIP3    H137886   0.421   2.462   2.152 -1.3669  1.5383 -1.4874
 5417TIP3    H237887   0.465   2.588   2.079  2.2051  1.4557  0.2934
 5418TIP3   OH237888   0.853   1.038   8.115  0.3034 -0.0634  0.0751
 5418TIP3    H137889   0.812   1.062   8.032  0.7344 -0.3719 -0.2337
 5418TIP3    H237890   0.932   0.989   8.089  1.6263  1.6925  0.6139
 5419TIP3   OH237891   2.958   5.990   0.218  0.0120  0.4771  0.0489
 5419TIP3    H137892   2.947   5.950   0.132 -0.2156 -0.8893  0.6814
 5419TIP3    H237893   2.888   6.054   0.225  1.3975  2.3067 -1.6695
 5420TIP3   OH237894   6.169   4.825   1.863  0.3162 -0.1936 -0.5923
 5420TIP3    H137895   6.134   4.896   1.917  0.0054 -0.6721 -0.1555
 5420TIP3    H237896   6.196   4.868   1.781 -0.8262  0.2593 -0.7428
 5421TIP3   OH237897   6.600   3.757   8.318 -0.2778 -0.1039  0.2205
 5421TIP3    H137898   6.665   3.688   8.332  0.1695  0.3289  0.2924
 5421TIP3    H237899   6.539   3.747   8.392 -0.1623 -0.3617  0.2820
 5422TIP3   OH237900   5.448   4.308   0.273  0.2325  0.0349 -0.1748
 5422TIP3    H137901   5.426   4.335   0.185  1.2739  2.9739  0.3622
 5422TIP3    H237902   5.535   4.269   0.266 -0.6524 -1.9412 -0.7332
 5423TIP3   OH237903   1.701   5.293   1.266 -0.4848  0.5875  0.4217
 5423TIP3    H137904   1.741   5.207   1.274  0.3713  0.7444 -1.6056
 5423TIP3    H237905   1.774   5.354   1.277 -0.4982  0.9399 -1.2934
 5424TIP3   OH237906   5.062   5.446   7.231 -0.0319  0.2114  0.2389
 5424TIP3    H137907   4.977   5.413   7.203 -0.3112 -0.9225  2.2237
 5424TIP3    H237908   5.042   5.504   7.305  0.9054 -0.1747  0.8173
 5425TIP3   OH237909   5.239   3.958   8.276  0.2951 -0.7776 -0.7571
 5425TIP3    H137910   5.276   3.989   8.359 -0.2395 -0.9271 -0.4575
 5425TIP3    H237911   5.298   3.992   8.209  1.3302 -1.5543 -0.2537
 5426TIP3   OH237912   1.675   6.770   7.726  0.1102 -0.7654  0.1713
 5426TIP3    H137913   1.613   6.841   7.743  0.9854  0.4117 -1.2741
 5426TIP3    H237914   1.625   6.690   7.738 -1.8665  0.1348 -1.4571
 5427TIP3   OH237915   5.822   6.147   8.088 -0.0648 -0.4018  0.1469
 5427TIP3    H137916   5.782   6.164   8.003  0.9300  0.7346 -0.1273
 5427TIP3    H237917   5.877   6.069   8.074  0.9039  0.3767 -0.5622
 5428TIP3   OH237918   2.897   3.258   7.060 -0.2440  0.6470 -0.1969
 5428TIP3    H137919   2.834   3.270   7.131 -1.0453 -0.3687 -0.7093
 5428TIP3    H237920   2.858   3.190   7.005  1.1633  0.2143 -0.6973
 5429TIP3   OH237921   6.329   4.667   1.599  0.2028 -0.1767  0.3783
 5429TIP3    H137922   6.269   4.734   1.568  1.0192  1.0298  1.3321
 5429TIP3    H237923   6.362   4.700   1.682  2.6475 -0.4896 -0.3883
 5430TIP3   OH237924   4.239   3.643   7.230  0.2078 -0.1856 -0.2942
 5430TIP3    H137925   4.274   3.599   7.152 -0.5086 -1.8153  0.2587
 5430TIP3    H237926   4.219   3.572   7.291 -2.1090  0.7907  0.1999
 5431TIP3   OH237927   5.644   1.009   7.384  0.1619 -0.0706  0.2471
 5431TIP3    H137928   5.680   0.946   7.322 -1.7116 -0.7998 -0.1521
 5431TIP3    H237929   5.626   1.087   7.332 -1.7784 -0.8190 -0.2481
 5432TIP3   OH237930   2.429   5.246   1.200  0.0011  0.3406 -0.5998
 5432TIP3    H137931   2.360   5.216   1.142 -1.0901  0.3157  0.6524
 5432TIP3    H237932   2.501   5.183   1.189 -0.3623  0.0938 -1.5647
 5433TIP3   OH237933   0.901   4.362   0.515 -0.5910  0.6254  0.4681
 5433TIP3    H137934   0.822   4.321   0.482  0.3203 -0.1424 -0.8221
 5433TIP3    H237935   0.879   4.455   0.520 -1.7153  0.3670  0.5949
 5434TIP3   OH237936   2.304   5.028   7.036 -0.1248  0.1180  0.2675
 5434TIP3    H137937   2.338   5.111   7.067  3.4817 -0.7242 -0.9528
 5434TIP3    H237938   2.321   4.967   7.107  2.0021 -0.4911 -0.6828
 5435TIP3   OH237939   4.412   5.385   1.036  0.5492  0.1733 -0.5694
 5435TIP3    H137940   4.360   5.383   0.955  1.1005  0.1719 -0.9253
 5435TIP3    H237941   4.468   5.307   1.031 -1.3355 -1.4088  1.1150
 5436TIP3   OH237942   4.842   6.790   6.215 -0.7338  0.3138 -0.4983
 5436TIP3    H137943   4.857   6.699   6.190 -0.8816  0.5101 -1.3277
 5436TIP3    H237944   4.902   6.840   6.160 -2.0546  0.8590 -1.4902
 5437TIP3   OH237945   3.064   5.243   8.773 -0.6855  0.2693 -0.2880
 5437TIP3    H137946   3.145   5.292   8.786 -0.6634 -0.0801  1.0357
 5437TIP3    H237947   3.093   5.152   8.758 -0.8432 -0.1997  1.9536
 5438TIP3   OH237948   6.365   4.175   0.084 -0.4686 -0.1043 -0.0224
 5438TIP3    H137949   6.421   4.241   0.123 -0.4627  0.1681 -0.4877
 5438TIP3    H237950   6.321   4.220   0.012 -1.0200 -0.4081  0.1170
 5439TIP3   OH237951   2.591   3.243   1.185  0.2319  0.6191 -0.4471
 5439TIP3    H137952   2.534   3.296   1.129 -0.7090  1.0432  0.8465
 5439TIP3    H237953   2.566   3.153   1.166 -0.9817  0.7955  0.1460
 5440TIP3   OH237954   3.546   1.568   7.296 -0.0144  0.3831 -0.7341
 5440TIP3    H137955   3.575   1.589   7.207 -0.0356  0.8783 -0.6300
 5440TIP3    H237956   3.540   1.653   7.340  1.1614  0.0752  0.0941
 5441TIP3   OH237957   4.158   0.725   7.223  0.0741 -0.3000 -0.0843
 5441TIP3    H137958   4.146   0.630   7.222 -0.1315 -0.3243  1.5215
 5441TIP3    H237959   4.251   0.737   7.245  0.0818 -0.1293 -0.2097
 5442TIP3   OH237960   3.851   1.733   7.467  0.3777  0.2187  0.3328
 5442TIP3    H137961   3.835   1.704   7.377 -0.9729  0.9946  0.2868
 5442TIP3    H237962   3.794   1.809   7.477  0.5651  0.1803  1.8368
 5443TIP3   OH237963   3.276   0.793   8.490  0.2229 -0.1465  0.1045
 5443TIP3    H137964   3.345   0.859   8.499 -0.3503  0.2645  2.1772
 5443TIP3    H237965   3.197   0.843   8.472 -0.2497 -0.1850  1.8657
 5444TIP3   OH237966   4.253   1.514   7.606 -0.9117 -0.0081 -0.0298
 5444TIP3    H137967   4.313   1.442   7.622 -1.2680 -0.2447  0.2408
 5444TIP3    H237968   4.300   1.570   7.543 -1.1711 -1.1466 -1.2938
 5445TIP3   OH237969   4.839   1.831   1.324  0.2065 -0.3022 -0.6044
 5445TIP3    H137970   4.907   1.898   1.314  0.3952  0.0294  2.2102
 5445TIP3    H237971   4.757   1.880   1.326  0.3160 -0.1464  1.0751
 5446TIP3   OH237972   0.931   1.393   0.189 -0.0468  0.5608  0.2301
 5446TIP3    H137973   0.869   1.456   0.227  0.5308  1.0643  0.3444
 5446TIP3    H237974   1.015   1.413   0.231  0.0600 -0.5752  0.5937
 5447TIP3   OH237975   2.686   3.230   7.963  0.0512 -0.9076  0.2695
 5447TIP3    H137976   2.691   3.197   7.873 -1.1817 -0.6664  0.0904
 5447TIP3    H237977   2.633   3.165   8.009 -0.3043 -0.4375  0.5283
 5448TIP3   OH237978   5.241   3.621   7.409  0.2292 -0.2466 -0.3552
 5448TIP3    H137979   5.171   3.672   7.451 -0.8298 -0.6445 -1.5573
 5448TIP3    H237980   5.207   3.532   7.405  0.7338 -0.4138 -1.1110
 5449TIP3   OH237981   1.027   4.667   0.670  0.7590 -1.1563  0.6034
 5449TIP3    H137982   0.946   4.654   0.622  1.0090 -0.8982  0.1008
 5449TIP3    H237983   1.003   4.726   0.742  0.6050 -0.6525  0.1513
 5450TIP3   OH237984   2.463   4.157   0.654  0.1425 -0.0678 -0.0643
 5450TIP3    H137985   2.554   4.188   0.657  0.3644 -0.7050 -0.1463
 5450TIP3    H237986   2.454   4.117   0.568  0.0933 -0.9349  0.3336
 5451TIP3   OH237987   5.142   0.149   7.327  0.1285  0.2203  0.5268
 5451TIP3    H137988   5.047   0.138   7.334 -0.1140 -0.2069 -2.1608
 5451TIP3    H237989   5.177   0.061   7.338 -0.0293 -0.0122 -0.6261
 5452TIP3   OH237990   4.207   4.671   0.777 -0.0740 -0.2583 -0.4597
 5452TIP3    H137991   4.113   4.663   0.797  0.4878 -1.9778  1.9592
 5452TIP3    H237992   4.218   4.764   0.754 -2.1461  0.3005  0.4765
 5453TIP3   OH237993   6.403   1.378   1.096  0.3614  0.1291 -0.2459
 5453TIP3    H137994   6.316   1.387   1.059 -0.0516 -0.3830  0.5825
 5453TIP3    H237995   6.456   1.344   1.024  0.2151  1.7176 -1.1559
 5454TIP3   OH237996   3.780   4.089   7.317 -0.0881 -0.3143  0.1769
 5454TIP3    H137997   3.798   4.004   7.276  1.1658 -0.8364  1.6874
 5454TIP3    H237998   3.797   4.153   7.248  0.2805 -1.2312 -0.6025
 5455TIP3   OH237999   0.114   1.093   8.165  0.4084 -0.0267 -0.5386
 5455TIP3    H138000   0.083   1.183   8.165 -0.2880 -0.2466  0.1563
 5455TIP3    H238001   0.039   1.042   8.134  0.4116 -0.4607  0.1292
 5456TIP3   OH238002   3.431   5.258   0.380  0.3950 -0.4086 -0.5854
 5456TIP3    H138003   3.367   5.228   0.444 -0.3983 -1.3092 -1.7575
 5456TIP3    H238004   3.513   5.218   0.408  0.2978  0.0960  0.4646
 5457TIP3   OH238005   5.139   5.871   8.431 -0.7583 -0.6712 -0.2198
 5457TIP3    H138006   5.235   5.878   8.426 -0.4592 -0.9498  3.1324
 5457TIP3    H238007   5.121   5.778   8.415 -0.2339 -1.0033  0.9927
 5458TIP3   OH238008   0.253   1.257   7.889 -0.2560 -0.1708 -0.3453
 5458TIP3    H138009   0.159   1.254   7.903  0.0024  1.3098  2.2209
 5458TIP3    H238010   0.291   1.224   7.970  1.4139  2.1833 -0.0600
 5459TIP3   OH238011   0.151   1.138   7.052 -0.5859  0.4383  0.2880
 5459TIP3    H138012   0.116   1.049   7.046 -0.8186  0.5049  0.6293
 5459TIP3    H238013   0.160   1.166   6.961  0.1019 -0.1720  0.1592
 5460TIP3   OH238014   3.127   6.291   8.262 -0.1094  0.4343 -0.6325
 5460TIP3    H138015   3.196   6.347   8.297  0.0559  0.1444 -0.4899
 5460TIP3    H238016   3.055   6.300   8.324 -0.7755  1.9163 -1.5689
 5461TIP3   OH238017   0.644   0.167   1.617  0.3303  0.6637 -0.4506
 5461TIP3    H138018   0.566   0.218   1.638  0.5651  0.8751 -0.0655
 5461TIP3    H238019   0.614   0.101   1.555 -0.5118 -0.2950  0.9070
 5462TIP3   OH238020   5.091   6.385   7.292 -0.4069  0.2134 -0.2924
 5462TIP3    H138021   5.173   6.408   7.250  0.2151  0.5202  1.0295
 5462TIP3    H238022   5.030   6.455   7.268 -0.2042  0.1386 -1.0334
 5463TIP3   OH238023   1.749   3.897   1.370  0.3327  0.4348  0.1669
 5463TIP3    H138024   1.688   3.934   1.434  0.7192  1.1891  0.1042
 5463TIP3    H238025   1.835   3.906   1.410  0.4941  0.1128 -0.0972
 5464TIP3   OH238026   2.674   1.367   7.899 -0.7196  0.6837  0.0927
 5464TIP3    H138027   2.711   1.440   7.948 -0.6517 -0.2693  1.4994
 5464TIP3    H238028   2.605   1.332   7.956 -1.0475 -0.0877 -0.7520
 5465TIP3   OH238029   3.967   5.481   7.150  0.0267 -0.4202  0.3967
 5465TIP3    H138030   4.062   5.466   7.152  0.0110 -0.8449 -1.2864
 5465TIP3    H238031   3.939   5.453   7.063 -1.2840  1.9836 -0.0323
 5466TIP3   OH238032   4.969   2.679   0.212 -0.6680  0.4158 -0.1756
 5466TIP3    H138033   5.016   2.739   0.154 -0.5810  1.2586  0.7422
 5466TIP3    H238034   5.003   2.592   0.190  0.5903  0.9043 -0.2396
 5467TIP3   OH238035   6.451   3.481   0.533 -0.2191  0.3265  0.3476
 5467TIP3    H138036   6.508   3.441   0.599  0.0881  2.3158  1.3582
 5467TIP3    H238037   6.365   3.486   0.575 -0.9525 -1.6274 -0.7652
 5468TIP3   OH238038   1.725   4.434   7.325 -0.3323 -0.1768 -0.4012
 5468TIP3    H138039   1.739   4.392   7.410  1.2292  1.8963  0.4555
 5468TIP3    H238040   1.659   4.380   7.283 -2.9848 -0.0096  3.0752
 5469TIP3   OH238041   0.923   5.680   8.154 -0.1186 -0.0342  0.4817
 5469TIP3    H138042   0.918   5.652   8.063  0.1224 -0.2204  0.5239
 5469TIP3    H238043   0.977   5.759   8.153 -1.4232  0.8869  0.2655
 5470TIP3   OH238044   6.176   0.247   1.906 -0.2710  0.4885  0.1296
 5470TIP3    H138045   6.144   0.337   1.904 -0.5159  0.4657  1.4594
 5470TIP3    H238046   6.181   0.226   2.000  1.2187 -0.3783 -0.1195
 5471TIP3   OH238047   5.913   1.248   8.404 -0.1814 -0.6052 -0.0596
 5471TIP3    H138048   5.969   1.262   8.328 -1.0882 -0.2728 -0.6788
 5471TIP3    H238049   5.954   1.176   8.451  1.6784  0.6617  0.3774
 5472TIP3   OH238050   4.433   3.687   8.359  0.3719  0.3815  0.5496
 5472TIP3    H138051   4.393   3.619   8.413 -1.3132  1.2652  0.5097
 5472TIP3    H238052   4.526   3.667   8.359  0.0631 -1.2257  1.4982
 5473TIP3   OH238053   2.754   4.317   7.366 -0.4603 -0.2962 -0.1866
 5473TIP3    H138054   2.781   4.273   7.286 -0.3779  2.4138 -1.7339
 5473TIP3    H238055   2.773   4.409   7.352 -3.0519  0.6849  1.8330
 5474TIP3   OH238056   4.637   0.205   7.945  0.0201 -0.1725 -0.2458
 5474TIP3    H138057   4.578   0.175   8.014 -0.0972 -0.8411 -0.6258
 5474TIP3    H238058   4.599   0.288   7.915 -0.6628 -0.5331 -0.4037
 5475TIP3   OH238059   4.023   3.692   0.168 -0.1648 -0.5246 -0.0184
 5475TIP3    H138060   3.970   3.763   0.132  2.5501  0.4268 -2.5319
 5475TIP3    H238061   4.021   3.624   0.100  0.0845 -1.3794  0.8093
 5476TIP3   OH238062   3.734   4.567   6.895 -0.5456  0.7475  0.3829
 5476TIP3    H138063   3.798   4.501   6.869 -0.1541  0.6461  1.5485
 5476TIP3    H238064   3.658   4.551   6.839  0.9354  1.8370 -2.1119
 5477TIP3   OH238065   3.588   4.624   0.998  0.1280 -0.6599 -0.1048
 5477TIP3    H138066   3.664   4.680   1.015  0.6199 -1.4708  0.4225
 5477TIP3    H238067   3.622   4.552   0.946 -0.2688 -1.0528  0.1726
 5478TIP3   OH238068   5.217   3.235   1.527  0.4349 -0.0757  0.1825
 5478TIP3    H138069   5.161   3.157   1.525 -0.6147  0.6701 -0.8624
 5478TIP3    H238070   5.190   3.282   1.606  0.2746 -0.1923  0.1974
 5479TIP3   OH238071   6.752   0.931   8.044 -0.4744 -0.2597 -0.1363
 5479TIP3    H138072   6.788   0.964   7.962  1.0897  1.4525  1.1483
 5479TIP3    H238073   6.732   0.839   8.027  1.8268 -0.5388 -1.8087
 5480TIP3   OH238074   5.529   0.715   7.599 -0.3108  0.0770  0.3387
 5480TIP3    H138075   5.511   0.806   7.620 -0.7892  0.4752 -1.5535
 5480TIP3    H238076   5.560   0.717   7.508  2.0692 -1.4165  1.0435
 5481TIP3   OH238077   2.460   1.901   1.688  0.0085 -0.1633 -0.0902
 5481TIP3    H138078   2.483   1.834   1.623  0.4652 -0.2862  0.1878
 5481TIP3    H238079   2.519   1.974   1.669  0.3483 -0.3133  0.3630
 5482TIP3   OH238080   3.050   3.792   7.953 -0.1283  0.1409  0.2501
 5482TIP3    H138081   3.013   3.768   8.038  0.7328 -0.6365  0.4162
 5482TIP3    H238082   2.998   3.867   7.925 -0.2910  0.5483  1.5655
 5483TIP3   OH238083   5.850   3.905   0.732 -0.1045 -0.1059 -0.9230
 5483TIP3    H138084   5.784   3.882   0.667  0.8235  1.2442 -2.4219
 5483TIP3    H238085   5.847   3.834   0.796 -3.8498  0.5029 -0.2247
 5484TIP3   OH238086   2.874   3.249   0.244  0.2064  0.6567 -0.4800
 5484TIP3    H138087   2.914   3.217   0.325  1.4276  0.5236 -1.1177
 5484TIP3    H238088   2.926   3.210   0.174 -2.3694 -1.3350 -1.4399
 5485TIP3   OH238089   0.292   4.053   0.466  0.5573  0.0906  0.1259
 5485TIP3    H138090   0.275   4.004   0.546  0.5808  0.9990  0.7012
 5485TIP3    H238091   0.383   4.084   0.476  0.3895  0.6335 -0.0136
 5486TIP3   OH238092   4.841   6.723   1.515  0.0057  0.1464  0.4124
 5486TIP3    H138093   4.821   6.643   1.564  1.0240  0.5659  1.5593
 5486TIP3    H238094   4.883   6.781   1.579 -0.1893  1.3885 -0.5348
 5487TIP3   OH238095   5.886   5.844   0.874 -0.1355  0.5854 -0.0617
 5487TIP3    H138096   5.941   5.800   0.938 -0.1370 -0.3173 -0.6663
 5487TIP3    H238097   5.799   5.807   0.888 -0.3107  1.0000 -0.0319
 5488TIP3   OH238098   3.166   0.254   7.344  0.4587  0.1001  0.4444
 5488TIP3    H138099   3.183   0.184   7.280  1.9626  1.1614 -0.3894
 5488TIP3    H238100   3.077   0.283   7.324  0.7554  0.1493 -0.9406
 5489TIP3   OH238101   6.236   4.356   6.433 -0.3599 -0.2163 -0.2071
 5489TIP3    H138102   6.321   4.342   6.473 -0.2210  0.4046 -0.2727
 5489TIP3    H238103   6.174   4.351   6.506 -0.2376 -0.3799 -0.1150
 5490TIP3   OH238104   0.087   5.122   2.146  0.3617 -0.4849  0.3647
 5490TIP3    H138105  -0.004   5.136   2.122  1.1657  1.9615 -1.7770
 5490TIP3    H238106   0.087   5.116   2.241 -1.9388  0.4225  0.4677
 5491TIP3   OH238107   5.983   5.528   0.375  0.1259  0.3652  0.4255
 5491TIP3    H138108   5.995   5.622   0.361 -0.8574  0.2407 -1.5772
 5491TIP3    H238109   6.008   5.514   0.466 -1.1083  2.8077  1.2187
 5492TIP3   OH238110   0.520   3.477   7.281  0.1737 -0.9587  0.8866
 5492TIP3    H138111   0.486   3.527   7.207  1.6786 -2.3713 -0.8654
 5492TIP3    H238112   0.443   3.457   7.334 -1.1183 -0.6196 -0.7673
 5493TIP3   OH238113   3.423   5.836   2.215  0.1082 -0.3760 -0.4035
 5493TIP3    H138114   3.423   5.755   2.166  0.1094 -1.7654  1.7509
 5493TIP3    H238115   3.493   5.889   2.176  0.0998 -1.3770 -1.8350
 5494TIP3   OH238116   6.711   1.017   2.182 -0.2129 -0.1530  0.1272
 5494TIP3    H138117   6.694   0.969   2.263 -0.5799 -1.4084 -0.6658
 5494TIP3    H238118   6.800   1.050   2.192  0.0365 -0.9574  0.7275
 5495TIP3   OH238119   1.373   2.697   0.996  0.0221  0.4702  0.4054
 5495TIP3    H138120   1.394   2.738   1.079  0.7304  3.2017 -0.9869
 5495TIP3    H238121   1.435   2.735   0.934 -0.3120 -1.6480 -1.3480
 5496TIP3   OH238122   3.554   3.201   7.336 -0.2145  0.0600  0.2878
 5496TIP3    H138123   3.497   3.251   7.277  0.5896  1.2495  0.4803
 5496TIP3    H238124   3.533   3.235   7.424 -0.7579 -1.0571  0.6059
 5497TIP3   OH238125   5.624   1.585   0.796 -0.5188 -0.4458  0.4863
 5497TIP3    H138126   5.642   1.500   0.756  0.7926  0.1253 -0.1794
 5497TIP3    H238127   5.619   1.646   0.723 -1.0200  0.1437  0.9918
 5498TIP3   OH238128   6.797   2.613   7.936 -0.5748  0.3036  0.3104
 5498TIP3    H138129   6.820   2.569   7.855  0.2414 -0.3240  0.8739
 5498TIP3    H238130   6.711   2.577   7.960 -0.1400 -0.6117  0.5036
 5499TIP3   OH238131   5.337   6.408   6.774  0.1257  0.2559 -0.3226
 5499TIP3    H138132   5.344   6.318   6.740 -3.7561 -0.9716  1.5555
 5499TIP3    H238133   5.259   6.443   6.732  0.2219  1.8860  0.7917
 5500TIP3   OH238134   3.775   0.500   0.440 -0.1612  0.0528 -0.4887
 5500TIP3    H138135   3.806   0.585   0.407  1.9200 -0.0696  0.9774
 5500TIP3    H238136   3.682   0.498   0.416  0.3491  1.5372 -2.9711
 5501TIP3   OH238137   0.319   4.226   7.056 -0.1075 -0.6235 -0.2125
 5501TIP3    H138138   0.240   4.218   7.003  0.6906 -1.6873 -1.2922
 5501TIP3    H238139   0.391   4.221   6.993  0.8480  1.4683  0.5996
 5502TIP3   OH238140   3.681   3.556   1.022 -0.1216  0.3382  0.5591
 5502TIP3    H138141   3.666   3.477   1.074  1.3628 -0.5800 -0.3218
 5502TIP3    H238142   3.773   3.578   1.038 -0.2353  1.2891 -0.0180
 5503TIP3   OH238143   1.890   5.616   7.656 -0.6140 -0.7292 -0.1448
 5503TIP3    H138144   1.884   5.675   7.730 -0.4489 -1.0284  0.1106
 5503TIP3    H238145   1.883   5.528   7.694  1.4409 -0.9769 -0.2163
 5504TIP3   OH238146   5.247   6.723   7.357 -0.2815  0.3181  0.3253
 5504TIP3    H138147   5.179   6.746   7.421  0.1493 -0.0495  0.9220
 5504TIP3    H238148   5.322   6.696   7.410 -0.2178 -0.8587 -0.3404
 5505TIP3   OH238149   2.202   6.313   8.095  0.1258 -0.2804  0.0655
 5505TIP3    H138150   2.140   6.347   8.159  2.9006  0.4688  2.5633
 5505TIP3    H238151   2.218   6.223   8.124  0.7891 -0.2058 -0.0698
 5506TIP3   OH238152   2.536   0.770   8.710 -0.0822 -0.3971 -0.7046
 5506TIP3    H138153   2.504   0.819   8.634 -1.0551  0.5853  0.2999
 5506TIP3    H238154   2.550   0.836   8.777 -1.6056 -1.4659  0.7524
 5507TIP3   OH238155   4.563   4.464   8.176 -0.3179  1.1390 -0.4408
 5507TIP3    H138156   4.573   4.470   8.081  1.5611 -0.9326 -0.4561
 5507TIP3    H238157   4.583   4.552   8.209  1.9590  1.1863 -1.7979
 5508TIP3   OH238158   1.597   0.176   1.037 -0.8126 -0.4490 -0.3392
 5508TIP3    H138159   1.691   0.182   1.055 -1.3828  2.1422  2.6433
 5508TIP3    H238160   1.586   0.222   0.953  0.6148 -1.5590 -1.1724
 5509TIP3   OH238161   4.592   1.371   7.707 -0.0227 -0.3250  0.2299
 5509TIP3    H138162   4.683   1.381   7.735  0.1688 -0.1089 -0.4560
 5509TIP3    H238163   4.570   1.455   7.665 -1.0183  0.1986  1.6931
 5510TIP3   OH238164   6.221   2.186   6.698  0.1278 -0.8305 -0.3547
 5510TIP3    H138165   6.130   2.163   6.716 -0.4577  0.3608 -1.6260
 5510TIP3    H238166   6.223   2.210   6.605  1.6900 -0.5934 -0.3009
 5511TIP3   OH238167   1.637   6.264   1.788 -0.5203  0.1639 -0.4163
 5511TIP3    H138168   1.720   6.294   1.824 -0.5141 -1.0139  0.6019
 5511TIP3    H238169   1.570   6.309   1.840 -0.5217  0.5321 -0.7343
 5512TIP3   OH238170   3.530   0.758   7.766 -0.1873  0.1810 -0.1694
 5512TIP3    H138171   3.465   0.808   7.816  0.9658  0.7060  0.8578
 5512TIP3    H238172   3.521   0.789   7.676 -1.5105  0.0709 -0.0879
 5513TIP3   OH238173   6.863   5.977   6.254  0.4915 -0.3032  0.1673
 5513TIP3    H138174   6.847   5.883   6.243  1.8330 -0.4693 -0.6756
 5513TIP3    H238175   6.810   6.018   6.186 -1.6678 -0.2455  1.7930
 5514TIP3   OH238176   0.299   2.111   8.145 -0.2881  0.0078 -0.0992
 5514TIP3    H138177   0.330   2.072   8.227  0.2011  1.6023  0.4975
 5514TIP3    H238178   0.247   2.187   8.173  0.4441  0.9645 -1.2772
 5515TIP3   OH238179   1.416   5.920   8.600  0.2727  0.3594  0.0881
 5515TIP3    H138180   1.378   5.841   8.639  2.2769 -0.8024 -0.1611
 5515TIP3    H238181   1.437   5.975   8.675 -1.4239  0.8331  0.2486
 5516TIP3   OH238182   4.100   4.955   1.793  0.3640  0.2899  0.9038
 5516TIP3    H138183   4.105   5.050   1.781 -1.6489  0.4217  0.7903
 5516TIP3    H238184   4.054   4.923   1.716  2.1897 -0.9898  0.2790
 5517TIP3   OH238185   6.158   6.181   7.206  0.1311 -0.5659  0.6300
 5517TIP3    H138186   6.066   6.156   7.198  0.4916 -1.7497 -0.1444
 5517TIP3    H238187   6.205   6.099   7.220  1.2997 -0.2798 -1.2249
 5518TIP3   OH238188   4.061   5.402   1.032  0.1540  0.5537  0.6209
 5518TIP3    H138189   4.045   5.316   1.069 -0.9314  0.4776 -0.0006
 5518TIP3    H238190   3.978   5.449   1.040  0.1349  0.8379 -0.8727
 5519TIP3   OH238191   1.871   1.269   8.354  0.1704  0.7215  0.2043
 5519TIP3    H138192   1.801   1.316   8.398 -1.3698  0.1381 -1.4940
 5519TIP3    H238193   1.943   1.332   8.349 -0.7650  1.8630  0.6646
 5520TIP3   OH238194   1.454   6.529   0.939  0.3253 -0.8217 -0.5435
 5520TIP3    H138195   1.488   6.618   0.947  1.3347 -1.2223 -0.2131
 5520TIP3    H238196   1.526   6.473   0.968  0.3654 -1.8388 -2.4554
 5521TIP3   OH238197   3.404   5.570   8.047 -0.2070  0.3907  0.1127
 5521TIP3    H138198   3.400   5.642   8.110 -1.5465  0.3404  0.1231
 5521TIP3    H238199   3.320   5.525   8.057 -0.4538  0.3712 -1.6948
 5522TIP3   OH238200   4.126   5.389   0.549  0.3919  0.3450  0.1206
 5522TIP3    H138201   4.100   5.441   0.473  1.0562  1.6828  0.7682
 5522TIP3    H238202   4.166   5.452   0.609  0.5563 -0.8009  1.2713
 5523TIP3   OH238203   1.711   0.733   0.640 -0.5811  0.4473  0.0985
 5523TIP3    H138204   1.750   0.754   0.555 -0.5646 -1.4367 -0.4105
 5523TIP3    H238205   1.734   0.641   0.655 -3.9002 -0.4875  0.2523
 5524TIP3   OH238206   6.274   4.997   8.069 -0.5437 -0.0176 -0.3214
 5524TIP3    H138207   6.238   4.986   7.981 -2.3003  2.2007  0.0468
 5524TIP3    H238208   6.368   5.010   8.054 -0.8644  0.7711 -1.9272
 5525TIP3   OH238209   1.502   1.528   7.661  0.2118 -0.4189 -0.1894
 5525TIP3    H138210   1.513   1.600   7.723 -2.0416 -1.3580  1.4359
 5525TIP3    H238211   1.488   1.570   7.576  1.4042  0.9546  0.2683
 5526TIP3   OH238212   1.433   0.626   0.768  0.1764  0.4262  0.2286
 5526TIP3    H138213   1.399   0.712   0.792 -0.2284  0.6116 -0.9156
 5526TIP3    H238214   1.507   0.645   0.710  0.9774  0.0001  1.0787
 5527TIP3   OH238215   5.154   0.376   8.574  0.0039  0.8113 -0.9893
 5527TIP3    H138216   5.210   0.444   8.613 -0.0143  0.2029  0.1506
 5527TIP3    H238217   5.079   0.371   8.633  1.5795 -2.5826  1.0391
 5528TIP3   OH238218   1.170   1.321   1.584 -0.3183  0.3678 -0.0278
 5528TIP3    H138219   1.152   1.233   1.552 -0.0877  0.2593  0.1364
 5528TIP3    H238220   1.086   1.367   1.577 -0.3028  0.3095 -0.6668
 5529TIP3   OH238221   2.392   4.156   1.496 -0.2677 -0.2476 -0.2233
 5529TIP3    H138222   2.418   4.073   1.537  1.1605  0.1082 -0.3508
 5529TIP3    H238223   2.414   4.223   1.561 -2.3434 -0.0026  0.2920
 5530TIP3   OH238224   1.272   2.986   8.316 -0.1808  0.3038 -0.6329
 5530TIP3    H138225   1.209   2.915   8.301 -0.3064  0.2532  0.0958
 5530TIP3    H238226   1.240   3.030   8.395  1.2524 -0.3502  0.3663
 5531TIP3   OH238227   0.068   5.781   1.657 -0.5999 -0.3441  0.1174
 5531TIP3    H138228  -0.005   5.822   1.704 -0.6467 -0.9138  0.5575
 5531TIP3    H238229   0.029   5.707   1.612 -0.9180  1.2461 -2.3928
 5532TIP3   OH238230   2.148   0.645   8.486 -0.0832  0.0589  0.2583
 5532TIP3    H138231   2.192   0.717   8.439 -0.8524  0.2146 -0.2455
 5532TIP3    H238232   2.095   0.602   8.419 -1.2566  0.3151  0.9792
 5533TIP3   OH238233   0.836   1.479   2.000 -0.0891 -0.0607  0.4739
 5533TIP3    H138234   0.765   1.520   2.050 -0.2566  1.8427 -1.2196
 5533TIP3    H238235   0.807   1.388   1.989 -0.8283 -0.0946  2.3235
 5534TIP3   OH238236   0.621   6.655   7.133  0.1600  0.1068  0.7210
 5534TIP3    H138237   0.674   6.719   7.180  0.4224 -0.0208  0.5994
 5534TIP3    H238238   0.683   6.607   7.078  0.4908 -2.3316  3.0461
 5535TIP3   OH238239   6.668   4.365   8.264  0.6950  0.2920 -0.5639
 5535TIP3    H138240   6.696   4.340   8.353  1.0129  2.0978 -0.1236
 5535TIP3    H238241   6.599   4.302   8.243  0.1964  0.1768  1.2119
 5536TIP3   OH238242   6.562   6.046   7.834 -0.3663  0.0170  0.2669
 5536TIP3    H138243   6.564   6.086   7.921 -1.1622  0.2171  0.2040
 5536TIP3    H238244   6.543   5.954   7.850  1.3187 -0.3348  0.4035
 5537TIP3   OH238245   0.972   1.419   7.354 -0.2001  0.2119 -0.4259
 5537TIP3    H138246   1.008   1.501   7.319  0.0222 -0.0904 -0.9276
 5537TIP3    H238247   0.878   1.435   7.362 -0.4315 -0.0331 -2.1568
 5538TIP3   OH238248   5.784   1.838   7.695  0.2501  0.2819 -0.2699
 5538TIP3    H138249   5.782   1.761   7.752  0.6656  0.3429 -0.1668
 5538TIP3    H238250   5.867   1.881   7.717  0.3002  0.4320 -0.7552
 5539TIP3   OH238251   4.005   0.206   0.716 -0.3179 -0.3792  0.7327
 5539TIP3    H138252   3.937   0.264   0.683  2.2947  1.5686 -1.7494
 5539TIP3    H238253   4.052   0.259   0.781  1.2732 -0.1106 -0.5806
 5540TIP3   OH238254   6.391   2.805   0.314 -0.0319 -0.4589 -0.0972
 5540TIP3    H138255   6.465   2.865   0.328 -1.4741  1.0791  1.2722
 5540TIP3    H238256   6.430   2.730   0.268  2.2155  0.6394 -0.1236
 5541TIP3   OH238257   4.007   5.856   6.368 -0.0795 -0.1116 -0.0104
 5541TIP3    H138258   4.081   5.819   6.321 -0.5201 -0.3851 -0.5051
 5541TIP3    H238259   3.933   5.801   6.343 -0.7940  1.2265 -0.9367
 5542TIP3   OH238260   4.325   0.189   2.067 -0.1529 -0.1090 -0.3604
 5542TIP3    H138261   4.327   0.282   2.088 -0.8734 -0.2769  0.4936
 5542TIP3    H238262   4.374   0.182   1.984  1.3754  0.7777  0.4240
 5543TIP3   OH238263   4.897   2.418   1.263  0.0587  0.0546  0.5194
 5543TIP3    H138264   4.823   2.395   1.207 -0.6018  0.4954  1.1885
 5543TIP3    H238265   4.929   2.501   1.227  1.0501 -0.7469 -0.5412
 5544TIP3   OH238266   4.933   4.529   0.980 -0.0496 -0.5884  1.0824
 5544TIP3    H138267   4.873   4.473   1.029  0.2279  0.0291  2.1515
 5544TIP3    H238268   4.886   4.611   0.970  0.0200 -0.6065  0.5761
 5545TIP3   OH238269   3.939   5.628   1.195  0.1131  0.7192 -0.0755
 5545TIP3    H138270   3.873   5.667   1.138 -0.2270  2.1262  1.2145
 5545TIP3    H238271   3.974   5.701   1.246  0.2230 -0.4807  1.6846
 5546TIP3   OH238272   0.869   3.826   7.318  0.2328  0.2374  0.1582
 5546TIP3    H138273   0.785   3.869   7.335  0.3384  0.9842 -1.0602
 5546TIP3    H238274   0.933   3.896   7.327  0.9004 -0.5762  2.2820
 5547TIP3   OH238275   1.576   1.727   7.810 -0.4995  0.2820  0.5964
 5547TIP3    H138276   1.602   1.818   7.795 -0.3038  0.0949 -0.2574
 5547TIP3    H238277   1.580   1.716   7.905  0.1271  0.9728  0.6556
 5548TIP3   OH238278   5.613   5.106   1.619  0.2785  0.2568 -0.1936
 5548TIP3    H138279   5.567   5.022   1.616 -2.4081  1.5244  1.1491
 5548TIP3    H238280   5.554   5.167   1.576  1.7003  1.6597 -0.2464
 5549TIP3   OH238281   5.133   1.390   1.180  0.4491 -0.0898  0.8481
 5549TIP3    H138282   5.131   1.392   1.275  1.0816  0.2598  0.8567
 5549TIP3    H238283   5.187   1.314   1.158  0.2848 -0.1842  0.7655
 5550TIP3   OH238284   4.762   2.436   7.025 -0.0759  0.1259  0.1829
 5550TIP3    H138285   4.685   2.410   7.075 -0.2937  1.4039  0.5466
 5550TIP3    H238286   4.819   2.359   7.026 -0.5341 -0.2165  1.4906
 5551TIP3   OH238287   4.794   5.420   7.223  0.5481 -0.2029 -0.4292
 5551TIP3    H138288   4.722   5.475   7.256  0.5122  1.0161 -2.3752
 5551TIP3    H238289   4.751   5.339   7.196 -0.3384  0.8619 -2.4515
 5552TIP3   OH238290   2.915   5.102   1.338  0.8160 -0.0294 -0.0503
 5552TIP3    H138291   2.830   5.097   1.296  1.4318 -1.6106 -1.2122
 5552TIP3    H238292   2.896   5.115   1.431 -0.6355  1.0470 -0.4688
 5553TIP3   OH238293   4.097   2.627   7.728 -0.3209  0.1043 -0.5196
 5553TIP3    H138294   4.107   2.558   7.662  0.4444  2.1716 -2.7125
 5553TIP3    H238295   4.092   2.708   7.677 -0.2057  1.7836  1.9816
 5554TIP3   OH238296   2.555   1.722   7.675 -0.4401  0.0605 -0.1341
 5554TIP3    H138297   2.631   1.760   7.719 -0.3692  1.4058 -1.3484
 5554TIP3    H238298   2.498   1.797   7.657 -1.6041 -0.7977 -0.1282
 5555TIP3   OH238299   0.350   1.920   0.074  0.1384 -0.6214 -0.0292
 5555TIP3    H138300   0.294   1.898   0.148 -0.6980 -0.9443 -0.7528
 5555TIP3    H238301   0.388   1.836   0.046  2.7903 -0.1877  1.8234
 5556TIP3   OH238302   3.999   2.695   7.402 -0.3384  0.6790 -0.0922
 5556TIP3    H138303   3.970   2.759   7.338  0.1851  0.8482 -0.1696
 5556TIP3    H238304   4.073   2.651   7.359 -1.2927 -0.6558 -0.4411
 5557TIP3   OH238305   0.915   6.078   7.477  0.6419 -0.5415 -0.2731
 5557TIP3    H138306   0.983   6.013   7.494  0.4970 -0.5677  0.2289
 5557TIP3    H238307   0.873   6.048   7.396  0.0163 -1.5755  0.3995
 5558TIP3   OH238308   4.246   2.239   7.809 -0.1785 -0.3579 -0.0305
 5558TIP3    H138309   4.261   2.300   7.881  1.9002 -1.1657  0.2838
 5558TIP3    H238310   4.224   2.296   7.734 -1.1112  0.5591  0.9046
 5559TIP3   OH238311   6.561   3.403   8.196 -0.2284  0.0143 -0.4609
 5559TIP3    H138312   6.624   3.351   8.146  0.4621  1.7691 -1.4896
 5559TIP3    H238313   6.527   3.467   8.133 -1.5385  0.3877  0.5935
 5560TIP3   OH238314   1.887   1.530   1.136  0.2537  0.4704 -0.3849
 5560TIP3    H138315   1.982   1.530   1.124  0.4488 -1.0605  0.8184
 5560TIP3    H238316   1.875   1.500   1.226 -1.3160  3.3542  0.4977
 5561TIP3   OH238317   4.702   1.455   7.278 -0.4080 -0.2856 -0.0742
 5561TIP3    H138318   4.746   1.454   7.363 -0.6395  1.2222  0.0860
 5561TIP3    H238319   4.772   1.462   7.214 -0.2688 -0.8282  0.0131
 5562TIP3   OH238320   6.788   1.789   1.835 -0.4675 -0.4955 -0.3128
 5562TIP3    H138321   6.736   1.848   1.889  0.9487 -0.7397  1.3926
 5562TIP3    H238322   6.731   1.713   1.823 -0.4649 -0.8919  1.7692
 5563TIP3   OH238323   3.536   1.808   6.744 -0.3462 -0.5999 -0.2733
 5563TIP3    H138324   3.605   1.838   6.804 -2.1592 -0.3410  1.8115
 5563TIP3    H238325   3.584   1.768   6.671  2.0100  0.5409  0.5351
 5564TIP3   OH238326   4.675   3.949   2.410 -0.2995  0.1017 -0.0823
 5564TIP3    H138327   4.676   4.044   2.426 -0.4642  0.2634 -0.9338
 5564TIP3    H238328   4.619   3.913   2.479  1.6135  0.3159  1.6678
 5565TIP3   OH238329   2.490   1.862   0.295 -0.5257  0.3410  0.4441
 5565TIP3    H138330   2.466   1.955   0.303 -0.9916  0.2175  0.5056
 5565TIP3    H238331   2.547   1.845   0.369  0.1948  0.7767  0.0018
 5566TIP3   OH238332   2.318   6.492   0.041  0.7401  0.0390  0.4757
 5566TIP3    H138333   2.352   6.546   0.112  1.6885  0.2833 -0.1382
 5566TIP3    H238334   2.396   6.452   0.003  0.5086  1.4971 -1.7082
 5567TIP3   OH238335   6.369   0.632   8.742 -0.1231 -0.1526 -0.2716
 5567TIP3    H138336   6.454   0.597   8.770  0.1935  1.0906  0.3760
 5567TIP3    H238337   6.364   0.611   8.649  0.4499 -1.0973 -0.1033
 5568TIP3   OH238338   6.800   3.386   6.885  0.1391 -0.0110  0.1844
 5568TIP3    H138339   6.712   3.420   6.870  0.7532  1.3954 -0.3182
 5568TIP3    H238340   6.845   3.400   6.802  0.8999 -0.5849  0.4917
 5569TIP3   OH238341   4.371   0.072   8.631 -0.6737 -0.3203  0.0999
 5569TIP3    H138342   4.313   0.005   8.596 -0.1451 -1.7520  1.8357
 5569TIP3    H238343   4.450   0.025   8.657 -0.4914  0.8469  1.8467
 5570TIP3   OH238344   6.312   1.827   2.265 -0.0129 -0.0336 -0.0136
 5570TIP3    H138345   6.291   1.739   2.236  0.8772 -0.4589  0.5937
 5570TIP3    H238346   6.241   1.881   2.232 -1.6472 -1.2842  1.2774
 5571TIP3   OH238347   2.335   4.564   7.527  0.4610 -1.0838 -0.2056
 5571TIP3    H138348   2.334   4.622   7.604 -0.1610 -0.3234 -0.7659
 5571TIP3    H238349   2.384   4.487   7.556 -0.0122 -0.9458  1.0481
 5572TIP3   OH238350   3.733   4.419   7.756 -0.1991  0.1403 -0.2921
 5572TIP3    H138351   3.724   4.383   7.667 -0.4256  0.8645 -0.5692
 5572TIP3    H238352   3.773   4.505   7.743  1.5123 -0.5058  0.4539
 5573TIP3   OH238353   2.287   3.850   6.886  0.3404  0.4885 -0.3526
 5573TIP3    H138354   2.255   3.899   6.961  0.7822  1.3671 -0.7173
 5573TIP3    H238355   2.282   3.758   6.913 -0.4448  0.7283  0.3694
 5574TIP3   OH238356   2.834   1.263   8.515  0.3860 -0.0238 -0.1597
 5574TIP3    H138357   2.904   1.257   8.450 -0.1152  2.1288 -0.9961
 5574TIP3    H238358   2.880   1.269   8.599  1.0855 -1.1957 -0.4345
 5575TIP3   OH238359   5.131   3.876   1.468  0.1863 -0.2759  0.2062
 5575TIP3    H138360   5.179   3.939   1.522  2.1652 -0.7203 -0.9404
 5575TIP3    H238361   5.147   3.792   1.509  0.5090 -0.4401 -0.2442
 5576TIP3   OH238362   2.267   6.047   8.267 -0.2813  0.4890  0.6913
 5576TIP3    H138363   2.251   6.066   8.359  0.2137 -0.6573  1.0286
 5576TIP3    H238364   2.362   6.037   8.260 -0.4214 -0.8417  0.3608
 5577TIP3   OH238365   4.801   1.366   0.589  0.2837 -0.0894 -0.4625
 5577TIP3    H138366   4.883   1.325   0.561 -0.5846 -2.1258 -0.1967
 5577TIP3    H238367   4.763   1.400   0.508  1.3406  0.8107 -0.5983
 5578TIP3   OH238368   3.085   2.776   1.128 -0.5091 -0.3737 -0.4090
 5578TIP3    H138369   2.990   2.760   1.129 -0.5801 -0.0788  1.5726
 5578TIP3    H238370   3.096   2.858   1.175  0.7818 -0.8012  0.0781
 5579TIP3   OH238371   3.136   1.299   7.785 -0.0444  0.2561  0.3955
 5579TIP3    H138372   3.052   1.280   7.828  0.0155 -0.8999  0.0153
 5579TIP3    H238373   3.117   1.290   7.692  0.9747 -2.1296  0.3535
 5580TIP3   OH238374   5.431   1.506   7.403  0.3127 -0.1744  0.7234
 5580TIP3    H138375   5.373   1.535   7.333  0.2522  1.3365  1.3766
 5580TIP3    H238376   5.503   1.463   7.358 -0.9919 -1.5714 -0.1282
 5581TIP3   OH238377   0.608   6.858   0.905  0.2727 -0.3640  0.3711
 5581TIP3    H138378   0.517   6.879   0.924 -0.4570 -1.3584 -1.7733
 5581TIP3    H238379   0.639   6.932   0.853  0.7571  0.0479  1.2315
 5582TIP3   OH238380   5.403   2.028   6.625  0.1858  0.0376  0.8290
 5582TIP3    H138381   5.356   2.074   6.555 -0.6667  0.2204  1.5127
 5582TIP3    H238382   5.495   2.051   6.610 -0.1515  1.4865  0.7831
 5583TIP3   OH238383   2.912   6.119   1.656 -0.0456 -0.2019 -0.6754
 5583TIP3    H138384   2.900   6.166   1.573 -0.1454 -0.8958 -1.0601
 5583TIP3    H238385   3.007   6.118   1.669 -0.1019  1.3826  0.0939
 5584TIP3   OH238386   0.362   1.096   0.804  0.1383  0.1528 -0.2064
 5584TIP3    H138387   0.339   1.036   0.875  0.9493  0.2837  0.1817
 5584TIP3    H238388   0.286   1.096   0.747  0.4066 -1.8895 -0.6457
 5585TIP3   OH238389   3.613   1.960   2.063  0.6726 -0.6430  0.0932
 5585TIP3    H138390   3.634   1.866   2.064  1.6278 -0.4364  1.1822
 5585TIP3    H238391   3.694   2.003   2.039  0.6314 -0.0181  1.0336
 5586TIP3   OH238392   4.840   0.374   8.090 -0.4427  0.0389 -0.2755
 5586TIP3    H138393   4.764   0.316   8.093 -2.7657  2.9174  0.2677
 5586TIP3    H238394   4.871   0.368   8.000 -1.0683 -1.4576 -0.4212
 5587TIP3   OH238395   5.030   0.155   1.996  0.3842 -0.3525 -0.0699
 5587TIP3    H138396   5.092   0.084   2.016  1.3020  0.2934 -0.5595
 5587TIP3    H238397   5.045   0.219   2.066  0.8297  0.1500 -0.6136
 5588TIP3   OH238398   4.906   6.266   1.167  0.1788  0.5427 -0.3602
 5588TIP3    H138399   4.852   6.339   1.198  1.7597  1.5587  0.1022
 5588TIP3    H238400   4.983   6.308   1.129 -0.4403 -0.7719 -3.3260
 5589TIP3   OH238401   2.175   4.277   1.167  0.1396 -0.4887 -0.6563
 5589TIP3    H138402   2.270   4.279   1.157 -0.0181 -0.3248 -2.2936
 5589TIP3    H238403   2.161   4.240   1.255  1.7071  0.1269 -0.1110
 5590TIP3   OH238404   2.390   5.516   1.431 -0.3878 -0.4082 -0.3635
 5590TIP3    H138405   2.428   5.433   1.403  0.0350 -0.3013 -0.1197
 5590TIP3    H238406   2.309   5.492   1.475 -0.2981 -0.6852 -0.3478
 5591TIP3   OH238407   6.410   5.942   6.384 -0.1153 -0.3314 -0.4730
 5591TIP3    H138408   6.322   5.919   6.355 -0.6923  0.4551  0.5840
 5591TIP3    H238409   6.445   5.863   6.424 -0.5077 -0.5125 -0.4950
 5592TIP3   OH238410   1.635   4.765   0.162  0.2246  0.2956 -0.1451
 5592TIP3    H138411   1.553   4.746   0.117  0.2886  2.0164 -1.0817
 5592TIP3    H238412   1.687   4.686   0.153  0.0457  0.4021 -2.7323
 5593TIP3   OH238413   6.792   6.585   7.524 -0.1312  0.3447 -0.0662
 5593TIP3    H138414   6.824   6.496   7.540 -0.4377 -0.0516 -1.5614
 5593TIP3    H238415   6.733   6.602   7.598 -1.0651 -1.1927 -0.4156
 5594TIP3   OH238416   6.608   6.736   8.395  0.3009  0.1578  0.0677
 5594TIP3    H138417   6.575   6.785   8.320 -1.1198 -0.0528  0.5288
 5594TIP3    H238418   6.529   6.705   8.440  1.1065 -2.7475 -0.3150
 5595TIP3   OH238419   2.333   0.018   1.362  0.1260 -0.1415 -0.8102
 5595TIP3    H138420   2.311  -0.067   1.324  2.1716 -0.5141 -1.3075
 5595TIP3    H238421   2.264   0.077   1.331 -0.9827 -1.4753 -0.9654
 5596TIP3   OH238422   3.180   2.532   6.837  0.0652 -0.2335 -0.3940
 5596TIP3    H138423   3.141   2.581   6.764  0.6146  0.0740 -0.4870
 5596TIP3    H238424   3.190   2.597   6.906  0.6329 -0.2504 -0.4552
 5597TIP3   OH238425   0.088   3.944   8.534  0.1404 -0.1696 -0.3404
 5597TIP3    H138426   0.033   3.880   8.580 -1.9325  1.6607 -0.1243
 5597TIP3    H238427   0.161   3.959   8.594 -2.3997  2.0186  2.5167
 5598TIP3   OH238428   5.279   6.866   7.768 -0.1222  0.3033  0.3086
 5598TIP3    H138429   5.193   6.825   7.780 -0.0032  0.3940  1.6021
 5598TIP3    H238430   5.261   6.960   7.774 -0.0887  0.3849 -0.6261
 5599TIP3   OH238431   4.780   5.434   7.520  0.0002 -0.0434  0.4703
 5599TIP3    H138432   4.718   5.363   7.543 -2.0095  1.4253 -0.1224
 5599TIP3    H238433   4.809   5.412   7.432  0.8955 -1.0945  0.9969
 5600TIP3   OH238434   2.892   3.486   1.143  0.0680  0.4855  0.2480
 5600TIP3    H138435   2.806   3.513   1.109  0.1553 -0.3218 -0.6604
 5600TIP3    H238436   2.931   3.567   1.176 -1.0331  0.8658  0.6531
 5601TIP3   OH238437   6.408   1.928   2.539 -0.4313 -0.3741 -0.1754
 5601TIP3    H138438   6.369   1.873   2.471 -1.3873  0.0032  0.0511
 5601TIP3    H238439   6.385   1.883   2.621  0.4929 -0.6893 -0.0852
 5602TIP3   OH238440   2.673   5.149   7.941 -0.4990 -0.8929  0.0633
 5602TIP3    H138441   2.759   5.188   7.926 -0.4298 -1.1828 -0.3056
 5602TIP3    H238442   2.640   5.128   7.853 -1.2630 -0.1118  0.1542
 5603TIP3   OH238443   2.443   4.740   0.738  0.3750 -0.0755  0.1894
 5603TIP3    H138444   2.460   4.834   0.745 -1.2458  0.4286 -1.9081
 5603TIP3    H238445   2.355   4.734   0.702  0.3844 -2.4294  0.4203
 5604TIP3   OH238446   0.938   3.889   1.613  0.2989 -0.5685  0.2061
 5604TIP3    H138447   0.855   3.862   1.651  1.3595 -1.7924  1.7450
 5604TIP3    H238448   0.913   3.943   1.538 -1.8738 -1.5682  0.1379
 5605TIP3   OH238449   1.215   1.569   6.744  0.2093  0.4751 -0.2676
 5605TIP3    H138450   1.205   1.534   6.832  1.2334 -1.8226 -0.9783
 5605TIP3    H238451   1.136   1.622   6.729  0.1323  1.0968  2.0588
 5606TIP3   OH238452   6.095   1.432   7.211  0.1908  0.5526  0.3439
 5606TIP3    H138453   6.126   1.364   7.271  1.5106  1.6515  0.9501
 5606TIP3    H238454   6.111   1.396   7.124  0.2469 -0.1730  0.6459
 5607TIP3   OH238455   0.692   1.396   7.521  0.2729 -0.6745  0.3798
 5607TIP3    H138456   0.649   1.423   7.439  0.5015 -0.8748  0.1920
 5607TIP3    H238457   0.621   1.362   7.575  0.2868 -1.6456 -0.1979
 5608TIP3   OH238458   5.579   3.592   7.183  0.4402  0.0585 -0.1465
 5608TIP3    H138459   5.527   3.604   7.103 -2.7209  0.0286  1.7036
 5608TIP3    H238460   5.650   3.534   7.157 -0.0986  0.5384 -3.0521
 5609TIP3   OH238461   3.624   5.669   1.686 -0.7341  0.2311  0.0292
 5609TIP3    H138462   3.684   5.606   1.646 -1.5379 -0.0752 -0.7138
 5609TIP3    H238463   3.588   5.624   1.762 -0.2144  0.3315  0.3421
 5610TIP3   OH238464   0.221   4.825   0.507  0.3442  0.0273  0.2110
 5610TIP3    H138465   0.185   4.736   0.504 -0.1825  0.2075  0.8770
 5610TIP3    H238466   0.220   4.848   0.600 -0.8278  1.2526 -0.0758
 5611TIP3   OH238467   2.288   6.827   0.402 -0.3991 -0.5033 -0.6862
 5611TIP3    H138468   2.196   6.799   0.393 -0.4833  0.0652 -1.8812
 5611TIP3    H238469   2.286   6.891   0.473 -1.2991  0.8430 -1.8412
 5612TIP3   OH238470   2.755   1.123   2.056  0.2352  0.1235  0.5497
 5612TIP3    H138471   2.696   1.120   2.131  1.1065 -0.4372  1.2196
 5612TIP3    H238472   2.801   1.206   2.064  1.4990 -0.6444  1.5606
 5613TIP3   OH238473   4.292   1.911   1.866 -0.1811 -0.3183 -0.4015
 5613TIP3    H138474   4.233   1.963   1.920 -0.4518 -0.7163 -0.3126
 5613TIP3    H238475   4.380   1.935   1.896 -0.1348  2.0029 -2.0486
 5614TIP3   OH238476   3.612   1.302   8.126 -0.1990 -0.1172  0.2469
 5614TIP3    H138477   3.575   1.356   8.056 -0.2710  0.3455  0.6443
 5614TIP3    H238478   3.625   1.362   8.199 -3.8589 -1.3384  2.0900
 5615TIP3   OH238479   0.009   2.606   8.703  0.6291 -0.0341 -0.6019
 5615TIP3    H138480   0.044   2.611   8.614  0.7145 -1.1490 -0.6552
 5615TIP3    H238481  -0.059   2.538   8.699 -0.4345  0.9677 -0.1411
 5616TIP3   OH238482   0.819   0.288   6.857  0.1149  0.0273  0.0740
 5616TIP3    H138483   0.841   0.301   6.765  0.2476  0.8609  0.2079
 5616TIP3    H238484   0.767   0.365   6.880 -0.2686 -0.3816  0.5873
 5617TIP3   OH238485   6.240   3.099   8.253 -0.9546 -0.2531 -0.5234
 5617TIP3    H138486   6.146   3.086   8.270 -0.7960 -0.1494  0.5142
 5617TIP3    H238487   6.260   3.182   8.297 -0.0928 -0.9502  0.4363
 5618TIP3   OH238488   5.694   0.169   7.329  0.0712  0.5120  0.3618
 5618TIP3    H138489   5.638   0.105   7.285 -0.8348  0.0742  2.0694
 5618TIP3    H238490   5.780   0.127   7.332 -0.4699 -0.5817  1.2855
 5619TIP3   OH238491   5.458   5.682   8.663 -0.6938  0.0602  0.4927
 5619TIP3    H138492   5.522   5.712   8.598 -1.7642 -1.2636 -1.2950
 5619TIP3    H238493   5.478   5.590   8.677 -3.0245 -0.8468 -1.3239
 5620TIP3   OH238494   0.007   1.915   1.606  0.1775 -0.3329 -0.1258
 5620TIP3    H138495  -0.053   1.867   1.549 -0.4914  1.2928 -0.8431
 5620TIP3    H238496  -0.033   1.910   1.693  0.2422 -1.2477 -0.1402
 5621TIP3   OH238497   5.684   5.925   1.454 -0.6650  0.4973  0.5962
 5621TIP3    H138498   5.641   5.853   1.408 -2.3610  2.0337 -0.3576
 5621TIP3    H238499   5.657   6.004   1.406 -0.7255  1.9818  2.9052
 5622TIP3   OH238500   1.397   1.686   1.109 -0.2740 -0.1103  0.6335
 5622TIP3    H138501   1.367   1.743   1.038 -0.7489  0.6430  1.4023
 5622TIP3    H238502   1.400   1.744   1.185  1.3744 -0.6130  0.9903
 5623TIP3   OH238503   6.537   0.085   0.352  0.1144 -0.2683  0.0509
 5623TIP3    H138504   6.541  -0.004   0.387  1.4040 -0.2345  0.0180
 5623TIP3    H238505   6.530   0.141   0.429  0.0462 -0.3558  0.1090
 5624TIP3   OH238506   3.836   5.420   0.545  0.3734 -0.3837  0.7267
 5624TIP3    H138507   3.818   5.506   0.507  2.0170 -0.3414 -0.0322
 5624TIP3    H238508   3.931   5.417   0.556  0.3064 -1.9073  1.2312
 5625TIP3   OH238509   0.875   6.432   0.652  0.8244  0.7793  0.1525
 5625TIP3    H138510   0.845   6.512   0.697  0.4360  1.2670 -0.9305
 5625TIP3    H238511   0.831   6.435   0.567 -0.3681 -1.3418  0.6141
 5626TIP3   OH238512   3.187   5.851   0.395 -0.2461  0.2739  0.2873
 5626TIP3    H138513   3.107   5.903   0.398 -0.2867  0.2068  0.3528
 5626TIP3    H238514   3.174   5.792   0.321 -0.7837 -0.5958  1.0572
 5627TIP3   OH238515   2.596   2.317   1.452 -0.2624 -0.4950  0.4375
 5627TIP3    H138516   2.585   2.223   1.439 -4.0493 -0.2169  0.3534
 5627TIP3    H238517   2.557   2.334   1.538 -0.9745  1.1186 -0.1615
 5628TIP3   OH238518   1.580   1.964   7.501  0.0215  0.3379 -0.2856
 5628TIP3    H138519   1.513   2.024   7.468 -0.2136  1.3488  1.8338
 5628TIP3    H238520   1.577   1.976   7.596  0.5843 -2.4265  0.1638
 5629TIP3   OH238521   6.631   6.391   7.965  0.4613  0.5190 -0.5194
 5629TIP3    H138522   6.577   6.322   8.003  0.2491  0.3069 -1.1768
 5629TIP3    H238523   6.693   6.414   8.033  0.2300  0.0059 -0.1273
 5630TIP3   OH238524   1.472   4.515   1.394 -0.6103  0.0319  0.3717
 5630TIP3    H138525   1.498   4.583   1.331  0.6609  1.8074  2.6720
 5630TIP3    H238526   1.439   4.564   1.470  2.5257 -1.7011  3.0961
 5631TIP3   OH238527   5.160   1.061   7.727 -0.0283  0.3726  0.0584
 5631TIP3    H138528   5.104   0.991   7.759  2.2385 -1.2874  0.6400
 5631TIP3    H238529   5.146   1.133   7.789  0.0159 -0.7587  1.4311
 5632TIP3   OH238530   3.481   2.281   1.632  0.0153  0.1626 -0.2206
 5632TIP3    H138531   3.509   2.359   1.680 -0.9095 -0.8365  2.0719
 5632TIP3    H238532   3.388   2.271   1.655 -0.6165 -0.1340 -2.6413
 5633TIP3   OH238533   6.481   1.716   8.525 -0.2228  0.2680 -0.1384
 5633TIP3    H138534   6.563   1.674   8.499 -0.4220 -0.1209 -0.1464
 5633TIP3    H238535   6.506   1.780   8.592 -0.0397 -0.5055  0.5353
 5634TIP3   OH238536   5.671   0.918   1.886  0.4757  0.2537  0.3069
 5634TIP3    H138537   5.689   0.872   1.968 -1.8309  0.0707  0.7955
 5634TIP3    H238538   5.579   0.945   1.894  0.3046  0.5821 -2.0586
 5635TIP3   OH238539   2.649   5.682   8.748 -0.3995 -0.0207 -0.0869
 5635TIP3    H138540   2.717   5.618   8.770 -0.9457  0.0794  2.0152
 5635TIP3    H238541   2.567   5.639   8.770 -0.8080  1.2010  0.8726
 5636TIP3   OH238542   1.190   3.949   8.666 -0.4523 -0.1061  0.0740
 5636TIP3    H138543   1.146   3.904   8.594  0.7891  0.4675 -1.0963
 5636TIP3    H238544   1.159   4.040   8.661 -0.6108 -0.1358  0.4748
 5637TIP3   OH238545   0.408   2.091   8.388 -0.2278 -0.1962  0.1333
 5637TIP3    H138546   0.364   2.097   8.473 -0.2781  0.8910  0.0408
 5637TIP3    H238547   0.466   2.167   8.385  0.1731 -0.5226 -0.5815
 5638TIP3   OH238548   2.718   1.806   2.619  0.3011 -0.6167  0.1553
 5638TIP3    H138549   2.672   1.744   2.677 -0.6401  1.9308  2.3571
 5638TIP3    H238550   2.648   1.858   2.580  1.1340  0.7855  0.4717
 5639TIP3   OH238551   2.947   5.023   8.294  0.3098 -0.1402  0.3627
 5639TIP3    H138552   2.969   5.104   8.249 -0.8395  0.7322  1.2961
 5639TIP3    H238553   2.990   4.954   8.243  1.5695  1.0700 -0.2666
 5640TIP3   OH238554   5.961   3.219   0.524 -0.0605 -0.3020  0.1692
 5640TIP3    H138555   5.958   3.176   0.610 -0.6820  0.6900  0.6631
 5640TIP3    H238556   5.973   3.148   0.462  3.9763 -0.8192  1.2708
 5641TIP3   OH238557   4.407   2.613   6.333  0.1102  0.2025  0.4860
 5641TIP3    H138558   4.416   2.693   6.281  3.2954  0.1117  0.7296
 5641TIP3    H238559   4.322   2.577   6.306  1.1229  0.5752 -4.0709
 5642TIP3   OH238560   4.862   3.277   8.337  0.1519  0.5239  0.0490
 5642TIP3    H138561   4.850   3.345   8.271 -0.3817  0.6284  0.2431
 5642TIP3    H238562   4.773   3.255   8.365  0.2347 -1.1711 -0.9087
 5643TIP3   OH238563   5.833   3.627   0.064  0.0171 -0.1645 -0.0724
 5643TIP3    H138564   5.775   3.581   0.003 -0.3303  0.8007 -0.4978
 5643TIP3    H238565   5.804   3.599   0.150  0.4790 -1.5116 -0.3203
 5644TIP3   OH238566   0.175   4.355   7.494 -0.2004  0.5065 -0.0756
 5644TIP3    H138567   0.246   4.416   7.515  0.1776  0.2730 -0.6277
 5644TIP3    H238568   0.190   4.333   7.402 -0.8684  0.2874 -0.1330
 5645TIP3   OH238569   4.994   5.641   7.470 -0.4584  0.1467  0.1937
 5645TIP3    H138570   4.907   5.621   7.507 -0.7126  0.4390 -0.2310
 5645TIP3    H238571   5.048   5.660   7.546 -0.8433  0.2368  0.4500
 5646TIP3   OH238572   2.978   4.487   1.323  0.0864  0.4298 -0.0287
 5646TIP3    H138573   2.957   4.560   1.265  1.3326  0.7792 -0.0577
 5646TIP3    H238574   2.999   4.415   1.265 -0.1008  0.3535 -0.0026
 5647TIP3   OH238575   1.016   0.284   0.967 -0.0207 -0.4561 -0.1126
 5647TIP3    H138576   1.085   0.345   0.940 -0.5468 -0.1331 -0.7686
 5647TIP3    H238577   1.003   0.228   0.891  1.0123 -1.9314  0.7641
 5648TIP3   OH238578   5.636   0.440   8.149  0.4110 -0.4616 -0.6190
 5648TIP3    H138579   5.568   0.496   8.187  1.4181  1.0501 -0.9520
 5648TIP3    H238580   5.593   0.397   8.076 -0.5453 -0.5829 -0.0090
 5649TIP3   OH238581   0.428   0.729   8.062 -0.0121  0.6796  0.9435
 5649TIP3    H138582   0.424   0.636   8.084 -0.5111  1.2597  3.6050
 5649TIP3    H238583   0.337   0.758   8.064  0.3224  1.7043  2.5927
 5650TIP3   OH238584   0.425   0.919   1.680  0.3037  0.0422  0.0769
 5650TIP3    H138585   0.477   0.992   1.714 -0.2838 -0.4898  2.3290
 5650TIP3    H238586   0.463   0.841   1.722 -0.1707 -0.7578 -0.9324
 5651TIP3   OH238587   0.291   3.064   7.752 -0.7588 -0.8292  0.2239
 5651TIP3    H138588   0.219   3.093   7.808  0.7571 -2.8806  3.5669
 5651TIP3    H238589   0.253   2.998   7.694 -1.8856 -0.7238  0.8290
 5652TIP3   OH238590   0.782   0.784   8.445  0.2067  0.5711 -0.1891
 5652TIP3    H138591   0.877   0.796   8.443  0.2324  0.2410 -0.8527
 5652TIP3    H238592   0.760   0.747   8.360 -0.4123 -0.1577  0.2787
 5653TIP3   OH238593   3.009   3.608   6.538  0.0845 -0.1088 -0.3605
 5653TIP3    H138594   3.026   3.695   6.502  0.8286 -0.7044 -1.5076
 5653TIP3    H238595   2.947   3.568   6.477  2.7977 -1.8295 -2.1816
 5654TIP3   OH238596   5.992   6.381   8.700  0.3689  0.4211 -0.1465
 5654TIP3    H138597   5.975   6.475   8.690  0.6562  0.4962  0.0583
 5654TIP3    H238598   5.970   6.344   8.614 -0.0505  0.6268 -0.1310
 5655TIP3   OH238599   4.431   4.490   8.498  0.3910  0.0665 -0.8900
 5655TIP3    H138600   4.398   4.435   8.569 -2.6330  1.1098 -1.3396
 5655TIP3    H238601   4.395   4.450   8.418 -0.2298  1.5216 -1.3743
 5656TIP3   OH238602   5.423   6.717   1.087  0.2819 -0.0738  0.3489
 5656TIP3    H138603   5.472   6.782   1.137  0.7334 -0.0524 -0.1189
 5656TIP3    H238604   5.406   6.759   1.003 -1.9753  0.5663  1.0335
 5657TIP3   OH238605   6.345   5.363   0.230 -0.0669 -0.4216  0.3877
 5657TIP3    H138606   6.263   5.342   0.184  1.0515 -1.7292 -1.1492
 5657TIP3    H238607   6.380   5.278   0.255  0.7603  0.1315  1.1558
 5658TIP3   OH238608   4.236   0.707   0.106  0.1317 -0.2396  0.2861
 5658TIP3    H138609   4.230   0.739   0.196 -0.5131 -1.0876  0.5647
 5658TIP3    H238610   4.306   0.641   0.109  0.2368 -0.1353  0.1266
 5659TIP3   OH238611   4.126   6.024   2.483 -0.2068 -0.2078 -0.4586
 5659TIP3    H138612   4.215   6.046   2.459 -0.3029  0.8936  0.1387
 5659TIP3    H238613   4.124   5.928   2.485  0.8931 -0.2387 -0.6980
 5660TIP3   OH238614   1.349   1.813   6.865  0.4899  0.1420 -0.0395
 5660TIP3    H138615   1.355   1.891   6.809  0.5282 -0.3946 -0.8042
 5660TIP3    H238616   1.386   1.743   6.812  0.6648 -0.3548  0.7313
 5661TIP3   OH238617   1.785   3.390   0.072  0.2811  0.2950 -0.2389
 5661TIP3    H138618   1.867   3.392   0.023 -0.0843  0.4538 -0.8589
 5661TIP3    H238619   1.811   3.381   0.163  0.9499 -0.9266 -0.5322
 5662TIP3   OH238620   3.207   2.714   8.606  0.0891 -0.2391  0.0160
 5662TIP3    H138621   3.198   2.783   8.541  1.1004 -0.3658 -0.2737
 5662TIP3    H238622   3.176   2.753   8.688 -2.8747 -0.6071 -0.8196
 5663TIP3   OH238623   1.651   6.441   6.465 -0.2082 -0.0036  0.2037
 5663TIP3    H138624   1.575   6.489   6.498 -0.7084  1.6288 -2.9079
 5663TIP3    H238625   1.673   6.379   6.535 -4.1048 -0.2615  1.4351
 5664TIP3   OH238626   4.648   3.117   7.911 -0.9311  0.5636  0.0442
 5664TIP3    H138627   4.701   3.037   7.909 -0.4482  0.8873 -1.2649
 5664TIP3    H238628   4.563   3.090   7.875 -1.9405 -0.0896  2.6639
 5665TIP3   OH238629   1.259   0.514   0.174 -0.0210  0.5496  0.1057
 5665TIP3    H138630   1.226   0.430   0.142 -0.4549  0.2478  1.2795
 5665TIP3    H238631   1.353   0.511   0.157  0.2106 -0.7890  1.3937
 5666TIP3   OH238632   1.549   1.664   0.299 -0.0760 -0.4214 -0.0703
 5666TIP3    H138633   1.468   1.686   0.345 -0.0368 -0.5076  0.0401
 5666TIP3    H238634   1.579   1.747   0.263  0.6440 -0.0804  1.2593
 5667TIP3   OH238635   1.767   3.551   1.952 -0.3079  0.1662 -0.1639
 5667TIP3    H138636   1.862   3.545   1.947 -0.4034 -0.7487 -1.3315
 5667TIP3    H238637   1.747   3.642   1.930  0.2200 -0.0657 -1.6935
 5668TIP3   OH238638   5.268   4.679   8.742  0.0673 -0.1344 -0.1948
 5668TIP3    H138639   5.181   4.669   8.703 -0.1439  1.0706 -0.0801
 5668TIP3    H238640   5.269   4.769   8.775  1.2652 -0.2221  0.0501
 5669TIP3   OH238641   0.695   0.936   2.443 -0.0253 -0.2501 -0.1233
 5669TIP3    H138642   0.722   1.002   2.379 -1.1047  0.1474 -0.1817
 5669TIP3    H238643   0.705   0.979   2.528  1.0314 -0.6483 -0.0221
 5670TIP3   OH238644   2.527   5.479   0.223 -0.3414  0.8149  0.2569
 5670TIP3    H138645   2.575   5.558   0.248  0.3855  0.3705  0.3046
 5670TIP3    H238646   2.527   5.425   0.302  0.9982 -0.1257 -0.3544
 5671TIP3   OH238647   4.586   0.596   7.874  0.0560 -0.4914  0.2244
 5671TIP3    H138648   4.610   0.657   7.944  0.6861 -1.2122  0.6540
 5671TIP3    H238649   4.666   0.587   7.822 -0.5160  0.3503 -0.8539
 5672TIP3   OH238650   3.228   6.249   7.508  0.2427 -0.3445  0.1262
 5672TIP3    H138651   3.224   6.334   7.551  1.6904 -0.5890  0.8229
 5672TIP3    H238652   3.233   6.269   7.414  0.8380  0.3548  0.3039
 5673TIP3   OH238653   1.437   4.045   1.349 -0.0963 -0.2009  0.2403
 5673TIP3    H138654   1.462   4.127   1.307  1.2715 -0.6604  0.0954
 5673TIP3    H238655   1.497   4.038   1.424 -1.0525 -0.4551  1.0078
 5674TIP3   OH238656   2.510   3.019   8.000  0.6626 -0.4134  0.0446
 5674TIP3    H138657   2.423   3.029   8.039  0.2322 -0.8710 -0.7784
 5674TIP3    H238658   2.536   2.929   8.020  0.8384 -0.3582  0.0709
 5675TIP3   OH238659   1.153   3.873   0.138  0.0962 -0.3688 -0.5489
 5675TIP3    H138660   1.154   3.908   0.048  0.4025  1.2255  0.0395
 5675TIP3    H238661   1.233   3.821   0.144  0.1125 -0.4243 -1.1851
 5676TIP3   OH238662   0.262   5.073   0.376  0.1790 -0.0430 -0.0313
 5676TIP3    H138663   0.249   4.997   0.433  0.0448 -0.5678 -0.7477
 5676TIP3    H238664   0.262   5.037   0.287 -0.9877  0.9278 -0.4570
 5677TIP3   OH238665   4.271   3.841   1.692  0.7272 -0.3664 -0.1536
 5677TIP3    H138666   4.224   3.758   1.704  0.3594  0.0264  1.3144
 5677TIP3    H238667   4.340   3.820   1.629 -0.7468 -1.2213 -1.5740
 5678TIP3   OH238668   5.084   6.260   6.918 -0.2684 -0.7590  0.4757
 5678TIP3    H138669   5.131   6.343   6.920 -1.9945  0.3251 -0.9358
 5678TIP3    H238670   5.043   6.257   6.831 -1.3525 -2.4634  0.9777
 5679TIP3   OH238671   5.275   0.203   6.096 -0.1742  0.4195  0.4047
 5679TIP3    H138672   5.313   0.129   6.144  1.3150  0.7437 -0.2143
 5679TIP3    H238673   5.351   0.248   6.059 -1.1440  1.5612 -0.2403
 5680TIP3   OH238674   3.575   0.750   8.729  0.3015 -0.0965 -0.6598
 5680TIP3    H138675   3.669   0.731   8.720  0.4243  1.1343 -2.3629
 5680TIP3    H238676   3.566   0.781   8.819  0.8534 -3.5848  0.7664
 5681TIP3   OH238677   6.089   1.129   6.454 -0.0947 -0.6124 -0.1355
 5681TIP3    H138678   6.081   1.220   6.425 -3.8319 -0.9351 -0.6064
 5681TIP3    H238679   6.157   1.131   6.521  0.6279  2.3088 -0.8212
 5682TIP3   OH238680   1.393   6.822   0.390  0.2814 -0.3290  0.2023
 5682TIP3    H138681   1.370   6.729   0.401 -1.0279  0.0445  0.8185
 5682TIP3    H238682   1.486   6.826   0.412  0.2796 -1.4443  0.5034
 5683TIP3   OH238683   3.077   6.447   7.801 -0.2046  0.6988  0.1320
 5683TIP3    H138684   3.124   6.415   7.878 -0.4871 -0.8853 -0.3203
 5683TIP3    H238685   3.146   6.465   7.737 -0.0830  0.2725  0.1408
 5684TIP3   OH238686   0.602   1.610   8.159 -0.1703  0.2409 -0.2947
 5684TIP3    H138687   0.528   1.564   8.199 -0.7111  1.7889  0.5852
 5684TIP3    H238688   0.563   1.688   8.119  0.6994 -0.0712 -1.8493
 5685TIP3   OH238689   1.632   0.826   0.881 -0.9037 -0.0051 -0.5291
 5685TIP3    H138690   1.716   0.864   0.904 -0.3695 -0.5090 -1.6117
 5685TIP3    H238691   1.644   0.791   0.793 -1.8944 -1.1188 -0.2509
 5686TIP3   OH238692   3.516   4.441   6.796 -0.4724  0.1594 -0.1443
 5686TIP3    H138693   3.475   4.524   6.772 -2.2898 -0.3928  0.9445
 5686TIP3    H238694   3.444   4.385   6.823  0.9442 -1.0232  1.3706
 5687TIP3   OH238695   5.105   4.788   8.001  0.0779 -0.3968 -0.0089
 5687TIP3    H138696   5.170   4.852   8.032  0.8330  0.6281 -3.2809
 5687TIP3    H238697   5.145   4.703   8.017  1.5558  0.1756 -0.4743
 5688TIP3   OH238698   6.492   1.178   0.912 -0.8804 -0.1886  0.1855
 5688TIP3    H138699   6.518   1.087   0.926  0.1211 -0.1195 -1.0911
 5688TIP3    H238700   6.416   1.173   0.854 -1.3770 -0.2302  0.8257
 5689TIP3   OH238701   5.715   4.864   8.240  0.4565 -0.5756 -0.0560
 5689TIP3    H138702   5.741   4.805   8.169  0.3877  2.2057 -2.6381
 5689TIP3    H238703   5.780   4.849   8.309  2.1687 -1.6088 -1.7940
 5690TIP3   OH238704   4.958   4.393   0.703 -0.1251 -0.0693  0.2274
 5690TIP3    H138705   4.943   4.299   0.716  0.4038 -0.0496  1.0350
 5690TIP3    H238706   4.950   4.431   0.790 -0.8394  0.7208 -0.1714
 5691TIP3   OH238707   1.329   6.509   8.393 -0.0133  0.0743 -0.2677
 5691TIP3    H138708   1.310   6.420   8.362  0.5825 -0.0663 -0.2399
 5691TIP3    H238709   1.251   6.559   8.372 -0.6937 -0.6441  0.4444
 5692TIP3   OH238710   0.830   3.532   7.966 -0.1846  0.3690 -0.1793
 5692TIP3    H138711   0.779   3.485   7.901  0.1948  0.6662 -0.6968
 5692TIP3    H238712   0.888   3.466   8.004 -1.0936 -0.0229  0.5754
 5693TIP3   OH238713   1.638   6.723   0.472  0.1826 -0.0751 -0.1656
 5693TIP3    H138714   1.637   6.768   0.557  1.5700  0.4831 -0.4159
 5693TIP3    H238715   1.574   6.652   0.481  1.2199 -0.8169  1.7846
 5694TIP3   OH238716   4.262   6.810   1.798 -0.7592 -0.3320 -0.3975
 5694TIP3    H138717   4.279   6.716   1.793  1.0066 -0.0647 -0.1611
 5694TIP3    H238718   4.173   6.817   1.832 -0.9526 -1.9047 -0.5022
 5695TIP3   OH238719   4.005   6.081   0.894  0.4727 -0.3143 -0.5321
 5695TIP3    H138720   4.031   5.989   0.890  0.1746 -0.4902  0.9219
 5695TIP3    H238721   4.030   6.117   0.809  1.9477 -1.3719 -0.5850
 5696TIP3   OH238722   5.026   2.413   0.126 -0.0020  0.1008 -0.4454
 5696TIP3    H138723   4.977   2.370   0.197 -2.2341  1.4243 -1.0960
 5696TIP3    H238724   5.014   2.355   0.051  1.7537 -0.9279  0.0125
 5697TIP3   OH238725   1.748   6.525   8.575  0.6535  0.1954  0.6851
 5697TIP3    H138726   1.843   6.534   8.567  0.5613  0.1965 -0.6121
 5697TIP3    H238727   1.716   6.615   8.582  0.7796  0.1705  1.7648
 5698TIP3   OH238728   4.824   5.282   1.132  0.4273 -0.0766 -0.6824
 5698TIP3    H138729   4.818   5.378   1.139  2.3956  0.0347  0.3292
 5698TIP3    H238730   4.808   5.250   1.221 -0.3715 -0.7089 -1.0462
 5699TIP3   OH238731   1.877   6.762   7.356  0.0068 -0.7370 -0.2087
 5699TIP3    H138732   1.954   6.788   7.305 -1.5709  3.2968 -0.8787
 5699TIP3    H238733   1.811   6.740   7.291 -0.8962  0.8993  0.0814
 5700TIP3   OH238734   3.092   2.743   0.826 -0.2207 -0.2821 -0.0301
 5700TIP3    H138735   3.032   2.813   0.801  1.2976  1.1681  0.1879
 5700TIP3    H238736   3.090   2.743   0.921  3.6414  3.2527  0.3515
 5701TIP3   OH238737   4.106   1.083   7.539 -0.6469 -0.1642 -0.3555
 5701TIP3    H138738   4.069   1.063   7.453 -0.4711  0.3077 -0.5409
 5701TIP3    H238739   4.200   1.082   7.526 -0.5766 -1.1480  0.0707
 5702TIP3   OH238740   3.782   6.522   7.301  0.1000 -0.0768 -0.2290
 5702TIP3    H138741   3.867   6.497   7.265  0.0212  0.9860 -1.2060
 5702TIP3    H238742   3.773   6.615   7.280 -0.4638  0.3213  1.5684
 5703TIP3   OH238743   3.218   4.619   8.647  0.4821 -0.1624  0.2648
 5703TIP3    H138744   3.283   4.591   8.711  0.8661  1.1195  0.4464
 5703TIP3    H238745   3.158   4.544   8.640  1.7237 -1.1991  0.4051
 5704TIP3   OH238746   1.018   4.448   0.285  0.6919  0.5892  0.6334
 5704TIP3    H138747   0.994   4.411   0.369  0.2802  0.6737  0.5544
 5704TIP3    H238748   1.078   4.520   0.306 -0.4254  1.4508  0.9401
 5705TIP3   OH238749   6.467   2.425   7.819 -0.6791  0.4799  0.7350
 5705TIP3    H138750   6.459   2.467   7.733 -1.0635 -1.5331 -0.2959
 5705TIP3    H238751   6.377   2.399   7.841 -0.3210 -0.8899  0.6921
 5706TIP3   OH238752   6.869   6.717   8.017  0.3434 -0.6804  0.0200
 5706TIP3    H138753   6.920   6.642   8.047 -0.9707 -1.6883 -0.1989
 5706TIP3    H238754   6.905   6.791   8.066  0.5102 -1.7292  1.5636
 5707TIP3   OH238755   0.301   6.493   0.437  0.6424 -0.6782  0.5243
 5707TIP3    H138756   0.231   6.556   0.456  1.0526 -0.0303 -0.0458
 5707TIP3    H238757   0.291   6.472   0.344  1.2241 -0.5461  0.4253
 5708TIP3   OH238758   5.367   0.663   1.074  0.1817  0.3627 -0.3001
 5708TIP3    H138759   5.382   0.614   1.155 -3.2279 -1.1645 -0.4294
 5708TIP3    H238760   5.413   0.746   1.088  0.9334 -0.4079  2.5565
 5709TIP3   OH238761   0.559   5.225   1.300 -0.2125 -0.1408 -0.3164
 5709TIP3    H138762   0.569   5.313   1.265  0.3030 -0.2619 -0.4766
 5709TIP3    H238763   0.643   5.206   1.343 -0.3196 -0.5515 -0.2840
 5710TIP3   OH238764   4.013   0.051   8.523  0.1965  0.6647  0.2184
 5710TIP3    H138765   4.050  -0.037   8.512  0.1177  0.6400  0.1492
 5710TIP3    H238766   3.934   0.038   8.574  0.5127  0.7693  0.7419
 5711TIP3   OH238767   4.755   5.524   6.841 -0.1185  0.3385 -0.6690
 5711TIP3    H138768   4.761   5.568   6.926 -1.0876  1.5958 -1.2132
 5711TIP3    H238769   4.846   5.515   6.812  0.3842 -1.7225  1.2369
 5712TIP3   OH238770   0.021   3.600   2.152  0.0016  0.0886  0.4356
 5712TIP3    H138771   0.049   3.510   2.162  0.6121  0.2301  0.0249
 5712TIP3    H238772  -0.040   3.614   2.225  0.1753 -0.5397  0.7106
 5713TIP3   OH238773   3.398   3.341   1.062  0.2374  0.2573  0.2628
 5713TIP3    H138774   3.381   3.325   0.969  0.2110  0.4318  0.2364
 5713TIP3    H238775   3.344   3.417   1.083 -0.1338 -0.0807  0.5436
 5714TIP3   OH238776   4.009   1.219   8.706  0.0528 -0.0624 -0.2156
 5714TIP3    H138777   4.100   1.220   8.735  0.1135  3.0630 -0.1272
 5714TIP3    H238778   4.012   1.264   8.621 -1.4575  0.7172  0.1181
 5715TIP3   OH238779   4.884   2.974   1.713  0.3816  0.0475 -0.1523
 5715TIP3    H138780   4.824   2.981   1.787  2.2950 -0.3201  1.5384
 5715TIP3    H238781   4.928   3.059   1.710  0.6608 -0.1107 -0.5502
 5716TIP3   OH238782   0.008   1.372   8.599  0.7660  0.2429  0.5400
 5716TIP3    H138783  -0.007   1.334   8.685  0.3677  3.0383  1.8467
 5716TIP3    H238784  -0.054   1.327   8.542 -0.9031  0.1067  2.3167
 5717TIP3   OH238785   6.422   5.064   1.901 -0.4064 -0.7582 -0.0460
 5717TIP3    H138786   6.416   5.125   1.828 -0.1388  0.7807  1.1534
 5717TIP3    H238787   6.346   5.083   1.955  0.8245  0.1115  1.4777
 5718TIP3   OH238788   2.483   4.580   2.246  0.0941 -0.2274  0.3853
 5718TIP3    H138789   2.487   4.658   2.301 -0.3523  1.0138 -1.2618
 5718TIP3    H238790   2.574   4.565   2.219  0.1007  0.0963  0.2202
 5719TIP3   OH238791   5.719   4.452   8.659 -0.0166 -0.0491 -0.1450
 5719TIP3    H138792   5.783   4.464   8.729 -0.1772  2.2962 -0.3433
 5719TIP3    H238793   5.635   4.475   8.699 -0.5962 -1.7386 -0.2862
 5720TIP3   OH238794   5.962   6.406   8.297  0.2891 -0.4160  0.0452
 5720TIP3    H138795   6.010   6.359   8.229  0.5045 -0.5078  0.2593
 5720TIP3    H238796   5.870   6.384   8.281  0.5065 -2.6247  1.3980
 5721TIP3   OH238797   1.827   3.532   8.205  0.3925  0.1603  0.1240
 5721TIP3    H138798   1.854   3.441   8.216 -1.5863 -0.5307 -0.2518
 5721TIP3    H238799   1.796   3.559   8.291  1.5167  0.6951  0.3755
 5722TIP3   OH238800   1.917   1.148   1.713  0.0632 -0.0589  0.1244
 5722TIP3    H138801   1.847   1.101   1.759 -1.0543  0.9932 -0.4300
 5722TIP3    H238802   1.870   1.203   1.650  1.3418  1.4266  0.4256
 5723TIP3   OH238803   0.918   5.549   0.446  0.5187 -0.2568 -0.3861
 5723TIP3    H138804   0.898   5.482   0.511  1.3821 -0.1078  0.0455
 5723TIP3    H238805   0.834   5.568   0.404  0.1970 -1.3220 -0.2439
 5724TIP3   OH238806   5.764   2.262   7.943  0.0934 -0.1597 -0.0547
 5724TIP3    H138807   5.752   2.275   8.037 -0.3481  0.2276 -0.1621
 5724TIP3    H238808   5.841   2.206   7.936 -0.4150 -0.9526  0.5682
 5725TIP3   OH238809   2.901   1.577   8.444  0.1179  1.1595  0.0013
 5725TIP3    H138810   2.983   1.529   8.458  0.8010  2.4000  0.3693
 5725TIP3    H238811   2.866   1.591   8.532  0.3663  2.0818 -0.0422
 5726TIP3   OH238812   0.920   3.060   0.406  0.0575 -0.3354 -0.1517
 5726TIP3    H138813   0.979   3.130   0.437  1.6009 -2.3362  1.7952
 5726TIP3    H238814   0.842   3.070   0.460  0.9612 -1.0562  1.3846
 5727TIP3   OH238815   3.265   1.087   1.015  0.0231  0.1674 -0.1220
 5727TIP3    H138816   3.272   1.095   1.110  0.9955  1.8542 -0.3080
 5727TIP3    H238817   3.181   1.043   1.001  0.1763 -0.7327  1.5231
 5728TIP3   OH238818   0.255   1.521   7.416  0.5422 -0.0703  0.1435
 5728TIP3    H138819   0.260   1.451   7.481 -1.7627 -0.6169 -0.1624
 5728TIP3    H238820   0.240   1.601   7.468  0.6043 -0.2098  0.3776
 5729TIP3   OH238821   0.651   1.569   7.285 -0.5049  0.3432 -0.5381
 5729TIP3    H138822   0.567   1.542   7.248 -0.8243  1.7417 -0.8699
 5729TIP3    H238823   0.669   1.654   7.245  1.2821 -0.1109 -0.8029
 5730TIP3   OH238824   0.080   1.557   2.388 -0.1450  0.2050  0.3938
 5730TIP3    H138825   0.102   1.490   2.452 -0.0971 -1.1204 -0.9665
 5730TIP3    H238826   0.012   1.517   2.333  1.5346  0.3265 -1.9102
 5731TIP3   OH238827   3.961   2.418   7.052 -0.1918  0.8835  0.1054
 5731TIP3    H138828   3.870   2.416   7.083 -0.4138  0.2436 -0.5404
 5731TIP3    H238829   3.992   2.506   7.072 -0.7427  0.9003  0.9273
 5732TIP3   OH238830   5.709   5.825   8.211 -0.1610  0.0651  0.1401
 5732TIP3    H138831   5.698   5.858   8.122 -0.7265 -0.9989 -0.2010
 5732TIP3    H238832   5.802   5.803   8.217 -0.0426  0.4977 -0.0506
 5733TIP3   OH238833   0.772   6.635   0.817 -0.0028 -0.3470 -0.3645
 5733TIP3    H138834   0.802   6.593   0.898  0.8940 -0.0022 -0.5170
 5733TIP3    H238835   0.722   6.712   0.847  0.1581 -0.3317 -0.1363
 5734TIP3   OH238836   6.643   3.005   0.241 -0.3387  0.1805  0.0924
 5734TIP3    H138837   6.586   3.077   0.216 -1.7696 -1.1516 -0.6203
 5734TIP3    H238838   6.654   2.954   0.160 -0.4257 -1.1031  0.8597
 5735TIP3   OH238839   3.737   3.102   7.142  0.3402  0.4394  0.0498
 5735TIP3    H138840   3.695   3.112   7.228 -1.0631 -2.3711 -0.1870
 5735TIP3    H238841   3.668   3.124   7.080  1.2993  2.2797 -0.4291
 5736TIP3   OH238842   5.895   5.532   7.950 -0.3173  0.2333 -0.2631
 5736TIP3    H138843   5.937   5.487   7.876 -0.5199  1.7805 -1.3734
 5736TIP3    H238844   5.853   5.462   8.000  2.2602 -1.2242  0.0605
 5737TIP3   OH238845   0.334   3.760   7.251  0.2879  0.3694  0.1426
 5737TIP3    H138846   0.358   3.749   7.159 -2.2155 -0.3596 -0.5078
 5737TIP3    H238847   0.326   3.855   7.263 -0.9732  0.4072 -0.8721
 5738TIP3   OH238848   6.572   3.158   0.502 -0.5115  0.2341  0.5026
 5738TIP3    H138849   6.632   3.099   0.549 -1.0718 -2.0085 -1.4123
 5738TIP3    H238850   6.510   3.186   0.569 -0.0275 -1.1145  1.5832
 5739TIP3   OH238851   1.017   4.164   0.644 -0.0842 -0.4402  0.4055
 5739TIP3    H138852   0.981   4.246   0.611  1.8450  0.4206  0.2741
 5739TIP3    H238853   0.972   4.150   0.727 -0.4918  0.7325  0.4049
 5740TIP3   OH238854   1.940   6.151   1.825  0.5827 -0.2740 -0.7515
 5740TIP3    H138855   2.032   6.173   1.812  0.7735  0.3416  1.2727
 5740TIP3    H238856   1.904   6.225   1.873 -0.7077 -0.9935 -0.5514
 5741TIP3   OH238857   4.991   2.237   8.694 -0.0309  0.5988  0.0822
 5741TIP3    H138858   5.063   2.218   8.634  0.1247  0.0619  0.4250
 5741TIP3    H238859   4.968   2.152   8.731 -0.1272  0.9141  0.7715
 5742TIP3   OH238860   4.729   0.665   2.303 -0.2736  0.2011 -0.0056
 5742TIP3    H138861   4.640   0.696   2.321  0.0794  1.6158 -0.5326
 5742TIP3    H238862   4.748   0.698   2.215  0.2080 -1.4341 -0.5435
 5743TIP3   OH238863   4.852   5.771   1.690  0.6739  0.2296  0.0867
 5743TIP3    H138864   4.923   5.714   1.721 -0.1990 -0.4232  0.9864
 5743TIP3    H238865   4.896   5.851   1.662  1.9061 -0.7003 -0.7941
 5744TIP3   OH238866   1.673   2.174   6.845  0.4801  0.0179 -0.3314
 5744TIP3    H138867   1.645   2.088   6.814  0.8953  0.2526 -1.4449
 5744TIP3    H238868   1.705   2.218   6.766  1.5934  0.6765  0.4574
 5745TIP3   OH238869   4.895   3.253   1.987 -0.1842  1.1021  0.2529
 5745TIP3    H138870   4.883   3.268   1.894 -1.3222 -0.2261  0.1633
 5745TIP3    H238871   4.809   3.271   2.026  0.1981  1.3543  1.0129
 5746TIP3   OH238872   1.893   4.902   0.234 -0.0916 -0.4551  0.3230
 5746TIP3    H138873   1.938   4.922   0.315  1.3780 -1.0979 -0.2966
 5746TIP3    H238874   1.875   4.808   0.239  2.9085 -1.2614 -1.3680
 5747TIP3   OH238875   2.057   0.401   0.109  0.5767 -0.2349  0.3570
 5747TIP3    H138876   2.106   0.399   0.027 -1.5161  0.7887 -0.9972
 5747TIP3    H238877   2.011   0.317   0.111 -0.3216  0.2316 -0.1640
 5748TIP3   OH238878   4.855   4.832   8.107  0.0125 -0.2168 -0.4347
 5748TIP3    H138879   4.928   4.785   8.066 -1.7617 -3.0273 -0.5848
 5748TIP3    H238880   4.868   4.819   8.201  0.5420  0.6991 -0.3639
 5749TIP3   OH238881   4.595   6.551   0.544 -0.3560  0.2271 -1.0145
 5749TIP3    H138882   4.569   6.643   0.556  1.2933  1.1723 -3.7363
 5749TIP3    H238883   4.679   6.544   0.591 -1.0771 -0.3048  0.2505
 5750TIP3   OH238884   3.651   6.020   0.569 -0.4026  0.0795 -0.0609
 5750TIP3    H138885   3.642   6.110   0.599  0.0207 -0.5248  2.0043
 5750TIP3    H238886   3.725   5.986   0.618  0.5618 -0.9250 -2.0686
 5751TIP3   OH238887   5.545   0.003   8.610 -0.3359 -0.7521  0.2402
 5751TIP3    H138888   5.628  -0.031   8.578  1.0011  1.7440  0.7883
 5751TIP3    H238889   5.481  -0.022   8.543  1.0665 -1.6274 -0.8370
 5752TIP3   OH238890   6.432   2.734   7.236  0.4557 -0.1181  0.0756
 5752TIP3    H138891   6.336   2.735   7.232  0.4875  0.2902 -1.0546
 5752TIP3    H238892   6.458   2.675   7.165  1.0497  0.0348  0.1654
 5753TIP3   OH238893   1.213   2.455   0.773 -0.4065 -0.3751  0.0628
 5753TIP3    H138894   1.157   2.532   0.776 -0.1230 -0.1932  0.8468
 5753TIP3    H238895   1.156   2.386   0.738 -1.3609 -0.3735  1.5105
 5754TIP3   OH238896   2.967   1.482   7.239 -0.0894 -0.0482  0.6452
 5754TIP3    H138897   2.880   1.471   7.279 -0.9183  0.4917 -0.9495
 5754TIP3    H238898   2.987   1.575   7.251 -1.1755  0.5530 -1.7310
 5755TIP3   OH238899   1.907   6.200   2.453 -0.1277 -0.5731 -0.1559
 5755TIP3    H138900   1.998   6.188   2.428 -0.0656 -1.0433  0.2820
 5755TIP3    H238901   1.876   6.271   2.397  0.1868 -1.1587 -1.0804
 5756TIP3   OH238902   6.727   5.763   0.949  0.5076 -0.1914 -0.1793
 5756TIP3    H138903   6.724   5.773   1.045  0.4274  1.5950 -0.3336
 5756TIP3    H238904   6.637   5.780   0.921  0.9593  1.5011 -0.7141
 5757TIP3   OH238905   0.831   0.349   0.453  0.2777  0.2705  0.8694
 5757TIP3    H138906   0.809   0.417   0.390  0.4597  0.3347  0.8753
 5757TIP3    H238907   0.876   0.395   0.524  1.9999 -0.0783  0.0697
 5758TIP3   OH238908   2.547   2.296   0.007  0.2749 -0.2936 -0.0012
 5758TIP3    H138909   2.597   2.265   0.082  0.0483  1.5502  0.9711
 5758TIP3    H238910   2.508   2.217  -0.031  0.3182 -1.2562  1.8718
 5759TIP3   OH238911   2.624   6.810   6.746  0.1987  0.0263  0.0139
 5759TIP3    H138912   2.690   6.857   6.694 -0.5910  1.4495  0.2323
 5759TIP3    H238913   2.569   6.767   6.681  1.5831 -1.5817 -0.1572
 5760TIP3   OH238914   3.482   1.560   1.904 -0.4965  0.6441  0.3080
 5760TIP3    H138915   3.564   1.600   1.934 -0.5699  1.1754 -0.1928
 5760TIP3    H238916   3.419   1.580   1.973 -0.3811  0.8422  0.3562
 5761TIP3   OH238917   1.295   3.904   0.839 -0.2186 -0.3958 -0.3464
 5761TIP3    H138918   1.341   3.857   0.770  0.1316  1.0147 -1.1164
 5761TIP3    H238919   1.318   3.996   0.825 -1.6904  0.1354  0.4656
 5762TIP3   OH238920   6.287   3.399   0.348  0.0298  0.0770 -0.6813
 5762TIP3    H138921   6.216   3.389   0.411  0.6149  1.3264  0.2105
 5762TIP3    H238922   6.363   3.425   0.400  1.0899 -0.9292 -1.6452
 5763TIP3   OH238923   1.294   4.811   0.266  0.0817  0.1914  0.8061
 5763TIP3    H138924   1.216   4.806   0.211  0.9894 -0.5372 -0.4803
 5763TIP3    H238925   1.295   4.728   0.313  0.5045 -0.1744  0.1780
 5764TIP3   OH238926   0.852   4.674   0.459 -0.0744 -0.0374  0.4474
 5764TIP3    H138927   0.772   4.705   0.417  1.1381  1.3035 -0.9670
 5764TIP3    H238928   0.914   4.747   0.451  1.2199 -0.9233  1.7760
 5765TIP3   OH238929   6.244   6.672   1.618  0.0185 -0.9958  0.2283
 5765TIP3    H138930   6.210   6.734   1.682 -2.1711  1.5857 -3.0902
 5765TIP3    H238931   6.186   6.596   1.624  1.0676 -1.6932  2.5108
 5766TIP3   OH238932   0.540   4.347   1.517  0.2408 -0.0747  0.1871
 5766TIP3    H138933   0.523   4.302   1.434 -0.4309 -0.1559  0.3610
 5766TIP3    H238934   0.607   4.412   1.496  0.4754 -0.4632 -0.2936
 5767TIP3   OH238935   4.648   0.782   6.059  0.7276  0.4039  0.0306
 5767TIP3    H138936   4.572   0.786   6.116 -0.1049 -0.0179 -1.0122
 5767TIP3    H238937   4.716   0.740   6.112 -0.7935 -2.4226 -0.0572
 5768TIP3   OH238938   4.066   5.825   0.856  0.2022 -0.1048 -0.1743
 5768TIP3    H138939   4.122   5.794   0.927  0.2796 -0.9982 -0.6089
 5768TIP3    H238940   3.987   5.771   0.861 -1.4391  2.2726  1.4955
 5769TIP3   OH238941   2.441   3.374   0.984 -0.5085 -0.3643  0.2611
 5769TIP3    H138942   2.442   3.341   0.894  0.0249  1.0170 -0.2744
 5769TIP3    H238943   2.508   3.443   0.984 -1.5540  0.6889  1.3146
 5770TIP3   OH238944   6.779   0.284   0.513 -0.3559  0.1829  0.1271
 5770TIP3    H138945   6.770   0.199   0.555 -0.2637 -0.1312 -0.4763
 5770TIP3    H238946   6.872   0.290   0.490  0.1364  1.4160  2.1637
 5771TIP3   OH238947   4.536   5.801   2.062  0.5883  0.1149 -0.3237
 5771TIP3    H138948   4.525   5.893   2.037  0.9939  0.1837 -0.2605
 5771TIP3    H238949   4.538   5.802   2.158  0.9558  0.0878 -0.3287
 5772TIP3   OH238950   3.846   5.134   7.770 -0.4871  0.3659 -0.1484
 5772TIP3    H138951   3.805   5.131   7.683  0.7977 -2.7528 -0.8068
 5772TIP3    H238952   3.896   5.215   7.770 -0.2232  0.2934 -2.5261
 5773TIP3   OH238953   2.825   0.830   2.365 -0.6682  0.3609  0.3381
 5773TIP3    H138954   2.816   0.763   2.432 -2.8435 -0.1141 -0.3520
 5773TIP3    H238955   2.737   0.841   2.330 -0.0557  2.3924 -0.7294
 5774TIP3   OH238956   2.701   5.017   6.896 -0.0759 -0.1930  0.1362
 5774TIP3    H138957   2.618   5.024   6.944 -0.3391 -2.7445  0.1945
 5774TIP3    H238958   2.679   5.046   6.807  0.0393  3.0520  1.0266
 5775TIP3   OH238959   6.674   2.640   0.843  0.2850  0.2682 -0.4697
 5775TIP3    H138960   6.730   2.678   0.911 -0.7935 -0.5113  0.9171
 5775TIP3    H238961   6.716   2.558   0.819  0.1442  0.0481  0.0223
 5776TIP3   OH238962   1.269   2.056   7.028  0.2684 -0.0650 -0.0860
 5776TIP3    H138963   1.243   1.990   6.964  2.3708 -2.0632  0.9720
 5776TIP3    H238964   1.313   2.123   6.976  1.9895 -1.6705 -0.8059
 5777TIP3   OH238965   2.178   6.061   1.021  0.3306 -0.2276 -0.3365
 5777TIP3    H138966   2.161   6.140   1.073 -0.8571  0.4456 -1.6663
 5777TIP3    H238967   2.181   6.092   0.930  1.7893 -1.4498 -0.7483
 5778TIP3   OH238968   6.120   2.643   1.540 -0.2761  0.3787  0.6771
 5778TIP3    H138969   6.120   2.736   1.561  2.0104  0.4239  0.6740
 5778TIP3    H238970   6.062   2.604   1.605 -1.2499  1.7692  0.6923
 5779TIP3   OH238971   3.467   3.400   8.048 -0.6233  0.3170 -0.5134
 5779TIP3    H138972   3.389   3.434   8.003  0.0192  2.0040 -0.3957
 5779TIP3    H238973   3.499   3.473   8.100 -0.2250 -1.0188  1.2377
 5780TIP3   OH238974   2.432   5.215   0.757 -0.0978 -0.3369 -0.0257
 5780TIP3    H138975   2.472   5.141   0.711 -0.1029 -0.8741  0.8136
 5780TIP3    H238976   2.503   5.277   0.770 -0.1319 -0.1003 -0.8912
 5781TIP3   OH238977   4.125   4.137   0.363  0.2202  0.1103 -0.6064
 5781TIP3    H138978   4.188   4.119   0.293 -0.8251 -1.3063 -1.2632
 5781TIP3    H238979   4.136   4.063   0.424 -0.7768 -0.1585 -0.7376
 5782TIP3   OH238980   3.463   5.869   1.214  0.0850  0.3924  0.5168
 5782TIP3    H138981   3.387   5.914   1.178  0.8020  1.0404 -0.2324
 5782TIP3    H238982   3.454   5.879   1.309 -2.2326 -2.0046  0.6547
 5783TIP3   OH238983   5.093   4.949   7.234  0.4538  0.2020 -0.3286
 5783TIP3    H138984   5.161   4.893   7.196  1.0389 -0.4457  1.5717
 5783TIP3    H238985   5.053   4.895   7.302 -0.4227  1.3834  0.1182
 5784TIP3   OH238986   5.372   4.756   8.101  0.3354 -0.1066  0.5199
 5784TIP3    H138987   5.417   4.738   8.018 -2.7541  0.1416 -1.3762
 5784TIP3    H238988   5.366   4.671   8.144  2.8947 -0.0714  1.0931
 5785TIP3   OH238989   1.440   3.637   8.736 -0.3916 -0.0168 -0.0712
 5785TIP3    H138990   1.393   3.554   8.726 -0.4502 -0.0567  0.4968
 5785TIP3    H238991   1.432   3.657   8.829  0.8585 -0.1096  0.0642
 5786TIP3   OH238992   1.369   5.186   6.521  0.4392  0.4344 -0.2429
 5786TIP3    H138993   1.391   5.131   6.446 -0.5217 -0.4953  0.1287
 5786TIP3    H238994   1.422   5.151   6.593  0.0172  0.1433 -0.0681
 5787TIP3   OH238995   6.420   2.582   1.010  0.1108  0.4646  0.2294
 5787TIP3    H138996   6.360   2.569   0.936 -0.1019  0.0121  0.4799
 5787TIP3    H238997   6.465   2.664   0.989 -0.8437  0.9946  0.2045
 5788TIP3   OH238998   6.070   0.402   6.441  0.2060  0.0798  0.3315
 5788TIP3    H138999   6.114   0.480   6.408  0.1383 -0.7318 -1.8530
 5788TIP3    H239000   5.977   0.425   6.439  0.2594  0.3712  0.9492
 5789TIP3   OH239001   5.449   3.054   0.447 -0.6861 -0.3173  0.0788
 5789TIP3    H139002   5.380   3.005   0.402 -0.8399 -1.2767  1.2778
 5789TIP3    H239003   5.513   2.987   0.471 -0.3141  0.2549  0.7228
 5790TIP3   OH239004   0.949   1.137   0.328  0.1119 -0.3659 -0.1217
 5790TIP3    H139005   0.946   1.169   0.418 -1.0118 -0.4411 -0.1119
 5790TIP3    H239006   0.920   1.212   0.275 -1.2901 -0.9361 -0.2127
 5791TIP3   OH239007   6.108   0.204   0.229 -0.3788  0.2157  0.3717
 5791TIP3    H139008   6.190   0.253   0.223 -1.4944  2.2408  0.8995
 5791TIP3    H239009   6.082   0.189   0.138  0.0946  0.3822  0.2080
 5792TIP3   OH239010   6.639   1.909   0.729  0.0983  0.5802 -0.4621
 5792TIP3    H139011   6.648   2.004   0.742 -0.4354  0.5987 -0.1930
 5792TIP3    H239012   6.696   1.890   0.654  0.8366  0.9824 -0.0199
 5793TIP3   OH239013   3.363   2.795   0.539  0.3746  0.4944  0.1131
 5793TIP3    H139014   3.297   2.848   0.584 -0.8488  0.0059 -0.9947
 5793TIP3    H239015   3.312   2.724   0.499  1.3325  0.9312 -2.0549
 5794TIP3   OH239016   0.453   3.184   8.312 -0.0481 -0.5218  0.2722
 5794TIP3    H139017   0.366   3.155   8.339 -1.2498  0.5274 -2.1188
 5794TIP3    H239018   0.484   3.113   8.256  0.3649 -0.6041  0.6051
 5795TIP3   OH239019   0.007   0.006   1.416 -0.1132  0.2349  0.4065
 5795TIP3    H139020   0.002  -0.025   1.507 -0.7083 -0.5876  0.1061
 5795TIP3    H239021  -0.083   0.025   1.392 -0.5359 -3.1250 -1.1811
 5796TIP3   OH239022   0.766   6.841   0.634  0.2227  0.1820  0.7565
 5796TIP3    H139023   0.849   6.812   0.595  0.0997 -0.5071  0.9992
 5796TIP3    H239024   0.722   6.760   0.659 -0.4627  0.5525  0.7638
 5797TIP3   OH239025   0.606   3.448   0.381  0.0929 -0.4810 -0.4200
 5797TIP3    H139026   0.667   3.386   0.343  3.0495  0.7506  1.9194
 5797TIP3    H239027   0.634   3.533   0.347  0.4816  0.2391  1.5946
 5798TIP3   OH239028   2.042   6.440   7.898  0.3437  0.7443  0.3409
 5798TIP3    H139029   2.085   6.403   7.975  2.2653  1.2409 -0.4413
 5798TIP3    H239030   2.051   6.373   7.831 -0.9771  0.4720  0.4180
 5799TIP3   OH239031   5.989   1.658   6.812 -0.6713 -0.2709  0.1722
 5799TIP3    H139032   5.971   1.673   6.719 -0.1850 -0.7085  0.0008
 5799TIP3    H239033   6.069   1.606   6.812  0.1393  0.9119  0.8762
 5800TIP3   OH239034   1.888   6.531   1.537  0.0933 -0.1341  0.2351
 5800TIP3    H139035   1.956   6.578   1.488 -0.0173 -0.1372  0.0770
 5800TIP3    H239036   1.887   6.574   1.622  1.8468 -1.5777  1.0426
 5801TIP3   OH239037   0.366   5.387   2.089  0.0660  0.1292 -0.2892
 5801TIP3    H139038   0.281   5.416   2.055  0.6557 -0.8144 -2.7555
 5801TIP3    H239039   0.397   5.460   2.142 -2.6087  0.1958  1.4040
 5802TIP3   OH239040   1.460   4.961   8.549  0.0934 -0.2829 -0.1892
 5802TIP3    H139041   1.385   5.015   8.524  0.0876 -0.0993  0.2254
 5802TIP3    H239042   1.502   4.938   8.466  1.3372  2.1134 -0.2977
 5803TIP3   OH239043   4.066   4.301   0.992  0.7952  0.0227  0.3968
 5803TIP3    H139044   4.048   4.383   1.039 -2.4214 -0.1327 -0.3906
 5803TIP3    H239045   3.992   4.245   1.012  2.0760 -2.0994 -0.4992
 5804TIP3   OH239046   4.661   2.095   6.927 -0.2417  0.4724 -0.0439
 5804TIP3    H139047   4.649   2.015   6.978 -2.9832  1.3774  0.9351
 5804TIP3    H239048   4.583   2.147   6.946  1.3673  3.3512 -0.7167
 5805TIP3   OH239049   5.465   0.321   1.587  0.4176  0.1430 -0.4980
 5805TIP3    H139050   5.477   0.272   1.506  0.4221  1.3481 -1.2571
 5805TIP3    H239051   5.535   0.386   1.587 -0.7901  1.5005 -0.5825
 5806TIP3   OH239052   4.479   0.902   0.737  0.2182  0.2445  0.2610
 5806TIP3    H139053   4.393   0.870   0.709  0.5777 -0.2705 -0.2669
 5806TIP3    H239054   4.460   0.986   0.780 -0.9314 -1.3138  3.1035
 5807TIP3   OH239055   5.509   2.338   7.886  0.2315  0.5281 -0.9605
 5807TIP3    H139056   5.516   2.432   7.904  0.3241  0.4431 -0.5506
 5807TIP3    H239057   5.599   2.306   7.892  0.4024  0.6478 -2.4539
 5808TIP3   OH239058   1.056   2.485   8.616 -0.3578 -0.3393 -0.1715
 5808TIP3    H139059   1.071   2.456   8.526 -1.6982 -3.8453  0.5726
 5808TIP3    H239060   1.138   2.465   8.662  0.5352  1.9869 -0.6412
 5809TIP3   OH239061   2.505   3.893   1.619  0.4751 -0.7235 -0.2130
 5809TIP3    H139062   2.422   3.850   1.600  0.4039 -0.5839 -0.2152
 5809TIP3    H239063   2.571   3.831   1.588  0.4110 -1.4352  1.0116
 5810TIP3   OH239064   2.062   0.483   2.653  0.3530 -0.0281  0.6151
 5810TIP3    H139065   2.004   0.519   2.720  1.0241  0.4334  0.9594
 5810TIP3    H239066   2.009   0.416   2.608 -0.8798  1.2773  0.0488
 5811TIP3   OH239067   5.355   0.303   7.330 -0.1124 -0.1790 -0.2373
 5811TIP3    H139068   5.275   0.254   7.309  0.1866 -0.9854  0.4741
 5811TIP3    H239069   5.393   0.257   7.405  0.6729  0.5938 -0.1451
 5812TIP3   OH239070   4.296   2.325   7.072 -0.6576 -0.2441  0.4045
 5812TIP3    H139071   4.241   2.251   7.097 -0.7255 -0.1134  0.6428
 5812TIP3    H239072   4.255   2.359   6.992 -0.5452 -0.5479  0.2147
 5813TIP3   OH239073   0.021   2.393   7.329 -0.2993 -0.4188 -0.4153
 5813TIP3    H139074   0.070   2.338   7.269 -0.1966 -1.5757  0.6856
 5813TIP3    H239075   0.074   2.395   7.409 -0.8260  0.4105 -0.0633
 5814TIP3   OH239076   3.269   6.463   1.436 -0.1519 -0.0408  0.0540
 5814TIP3    H139077   3.275   6.553   1.468  1.3305 -1.1881  3.4984
 5814TIP3    H239078   3.179   6.436   1.452 -1.1917  1.3055 -2.8612
 5815TIP3   OH239079   2.630   5.740   0.300  0.5943  0.1080 -0.1123
 5815TIP3    H139080   2.646   5.815   0.243  1.4222 -0.7847 -1.1146
 5815TIP3    H239081   2.718   5.714   0.330  0.7891 -2.4633 -2.4937
 5816TIP3   OH239082   3.661   5.986   8.136 -0.4812 -0.2613  0.6219
 5816TIP3    H139083   3.699   5.953   8.217  1.3147  1.9759  0.7913
 5816TIP3    H239084   3.727   5.968   8.069  0.3889  2.3068  0.6489
 5817TIP3   OH239085   5.971   5.680   8.158 -0.8173 -0.4330  0.0482
 5817TIP3    H139086   5.964   5.608   8.220  1.0233 -0.6709  0.0352
 5817TIP3    H239087   5.945   5.643   8.074 -0.8538 -0.8102  0.2282
 5818TIP3   OH239088   5.372   6.416   7.506  0.3247  0.0006  0.2519
 5818TIP3    H139089   5.377   6.321   7.520  0.7289 -0.2252 -1.2112
 5818TIP3    H239090   5.287   6.430   7.465  1.0207 -0.0230 -1.2931
 5819TIP3   OH239091   2.324   2.300   7.457  0.3540  0.3216  0.5253
 5819TIP3    H139092   2.248   2.355   7.478 -0.7726 -0.0029 -2.2824
 5819TIP3    H239093   2.288   2.212   7.447  1.1708  0.0729 -0.3677
 5820TIP3   OH239094   3.795   5.526   0.237  0.0679  0.3135  0.2695
 5820TIP3    H139095   3.705   5.501   0.260 -0.0090  0.4665  0.1397
 5820TIP3    H239096   3.803   5.500   0.145 -0.2186  1.3199 -0.0508
 5821TIP3   OH239097   5.052   6.758   7.791  0.9737 -0.1600 -0.2441
 5821TIP3    H139098   4.958   6.775   7.792  1.0229  0.1029  0.4708
 5821TIP3    H239099   5.061   6.669   7.823  0.9969 -0.0142  0.1603
 5822TIP3   OH239100   4.879   6.067   0.996 -0.7901  0.0492 -0.2656
 5822TIP3    H139101   4.907   6.011   1.068 -2.5885  1.1252  1.3684
 5822TIP3    H239102   4.896   6.156   1.027 -0.4102  0.5252 -1.7424
 5823TIP3   OH239103   3.203   2.920   8.048  1.1221 -0.2518 -0.0409
 5823TIP3    H139104   3.290   2.889   8.074  0.2712 -1.5055  1.5214
 5823TIP3    H239105   3.164   2.846   8.002 -0.0607 -0.7138  1.6066
 5824TIP3   OH239106   4.487   4.776   8.611  0.1388  0.1370 -0.1687
 5824TIP3    H139107   4.456   4.686   8.599 -0.3893  0.2483  0.3236
 5824TIP3    H239108   4.557   4.769   8.675  0.1664  0.0673 -0.2063
 5825TIP3   OH239109   5.240   0.186   8.112 -0.0184 -1.0388 -0.2996
 5825TIP3    H139110   5.153   0.192   8.152 -0.3874 -2.0747 -0.8909
 5825TIP3    H239111   5.222   0.178   8.018  0.8428  1.9099 -0.8095
 5826TIP3   OH239112   0.303   2.043   0.972 -0.0681  0.2132 -0.4401
 5826TIP3    H139113   0.256   2.034   1.055 -1.1421  2.8122 -0.6670
 5826TIP3    H239114   0.395   2.044   0.996 -0.3764  1.6095  0.8572
 5827TIP3   OH239115   1.310   4.725   8.307 -0.5204 -0.0698 -0.0873
 5827TIP3    H139116   1.293   4.674   8.227 -1.2795 -4.0465  2.3528
 5827TIP3    H239117   1.406   4.726   8.314 -0.4863 -1.1136 -0.2500
 5828TIP3   OH239118   2.683   4.710   0.849  0.3323  0.0021 -0.6637
 5828TIP3    H139119   2.595   4.679   0.832 -1.1148  0.8695  3.7663
 5828TIP3    H239120   2.725   4.638   0.896  0.5983  0.8911  0.5222
 5829TIP3   OH239121   1.546   2.517   1.796  0.3668  0.3051 -0.1981
 5829TIP3    H139122   1.635   2.527   1.762  0.4802 -0.2335 -0.0635
 5829TIP3    H239123   1.524   2.603   1.830  1.3003  0.1329  0.8860
 5830TIP3   OH239124   0.613   0.172   8.615 -0.7339  0.0377 -0.1528
 5830TIP3    H139125   0.556   0.094   8.617  1.4794 -1.7745 -1.8445
 5830TIP3    H239126   0.687   0.148   8.670  0.8760  0.1139 -2.1651
 5831TIP3   OH239127   0.332   6.482   8.082  0.0534  0.3394  0.1057
 5831TIP3    H139128   0.401   6.434   8.037 -0.0926 -0.3244  0.5689
 5831TIP3    H239129   0.251   6.438   8.055 -0.2355  1.3805 -0.7719
 5832TIP3   OH239130   3.053   5.278   7.888  1.2095 -0.0106  0.0124
 5832TIP3    H139131   3.074   5.185   7.899  0.4541  0.0023  1.7085
 5832TIP3    H239132   3.105   5.304   7.811  1.7656 -1.7123 -0.2450
 5833TIP3   OH239133   5.682   6.090   2.282  0.2514 -0.1805  0.6504
 5833TIP3    H139134   5.744   6.094   2.210  0.7969 -0.1210  1.1178
 5833TIP3    H239135   5.677   6.180   2.315 -0.4641 -0.0814  0.3062
 5834TIP3   OH239136   4.383   1.778   0.026 -0.8501  0.2269 -0.1159
 5834TIP3    H139137   4.334   1.696   0.035 -3.6674  1.8509  0.7522
 5834TIP3    H239138   4.437   1.766  -0.052 -2.0418 -2.0271 -0.6729
 5835TIP3   OH239139   3.216   3.949   7.102  0.7046 -0.1690  0.8185
 5835TIP3    H139140   3.296   3.959   7.051 -2.0600  2.4062 -3.7469
 5835TIP3    H239141   3.192   3.857   7.093  1.6630 -0.3294 -0.2459
 5836TIP3   OH239142   6.490   3.542   7.989  0.0060 -0.7768  0.0666
 5836TIP3    H139143   6.412   3.519   7.939  0.4171 -1.0021 -0.4772
 5836TIP3    H239144   6.531   3.612   7.938 -0.3630  0.0396  0.8597
 5837TIP3   OH239145   5.937   3.180   7.973  0.5643  0.7450  0.2941
 5837TIP3    H139146   6.004   3.115   7.950  0.2311  0.6104 -0.3034
 5837TIP3    H239147   5.856   3.130   7.979  0.2401  1.1580 -0.5152
 5838TIP3   OH239148   2.081   4.170   0.919 -0.7594 -0.1400 -0.1245
 5838TIP3    H139149   2.055   4.078   0.917 -0.2034 -0.3208  0.4691
 5838TIP3    H239150   2.099   4.188   1.012  0.5669  0.1531 -0.4192
 5839TIP3   OH239151   3.751   3.230   1.118 -0.4186 -0.5305  0.3523
 5839TIP3    H139152   3.759   3.147   1.165 -1.6052 -1.2335 -0.6393
 5839TIP3    H239153   3.691   3.212   1.046 -0.1852  1.0274 -0.2790
 5840TIP3   OH239154   4.859   0.868   0.911 -0.3705  0.1165 -0.4339
 5840TIP3    H139155   4.770   0.844   0.937 -0.4394 -0.5475 -1.2590
 5840TIP3    H239156   4.916   0.817   0.969 -0.5282 -0.7248 -1.0036
 5841TIP3   OH239157   6.152   5.277   8.586  0.2147 -0.0580  0.5209
 5841TIP3    H139158   6.075   5.292   8.531 -0.1856 -2.3265  0.3868
 5841TIP3    H239159   6.207   5.354   8.571 -1.2728  0.8408 -0.6430
 5842TIP3   OH239160   6.807   4.588   8.006 -0.4959 -0.4498  0.3366
 5842TIP3    H139161   6.842   4.605   8.093 -0.8623  1.9934  0.0611
 5842TIP3    H239162   6.815   4.671   7.959 -3.3737 -0.7188 -0.8613
 5843TIP3   OH239163   3.521   6.542   7.597  0.4981 -0.6628  0.0970
 5843TIP3    H139164   3.559   6.474   7.652 -0.0989  0.5095  2.0733
 5843TIP3    H239165   3.594   6.599   7.575  0.8075 -1.3412 -0.6848
 5844TIP3   OH239166   3.269   0.021   0.200 -0.1154  0.2777  0.3267
 5844TIP3    H139167   3.357   0.056   0.202  0.7639 -1.8005  0.8517
 5844TIP3    H239168   3.240   0.022   0.291  0.9088 -2.4851  0.7835
 5845TIP3   OH239169   1.025   6.721   0.600  0.2279  0.1576 -0.2552
 5845TIP3    H139170   1.096   6.682   0.650  1.5718  2.4495 -0.2078
 5845TIP3    H239171   1.031   6.682   0.513  0.7663 -0.5518  0.0915
 5846TIP3   OH239172   6.496   6.573   1.605  0.1664  0.5584 -0.0639
 5846TIP3    H139173   6.514   6.580   1.511  0.2970 -4.3883 -0.6513
 5846TIP3    H239174   6.402   6.560   1.610  0.3144 -0.3944  0.3468
 5847TIP3   OH239175   2.632   3.490   8.653  0.4572  0.4961 -0.2333
 5847TIP3    H139176   2.575   3.414   8.646  1.5058 -0.2283 -1.3838
 5847TIP3    H239177   2.721   3.453   8.655  0.9480  1.6468  0.2486
 5848TIP3   OH239178   4.922   0.200   7.676  0.0904 -0.0901  0.5409
 5848TIP3    H139179   4.954   0.164   7.593  2.1676 -0.4282  1.4141
 5848TIP3    H239180   4.864   0.132   7.710 -2.1515  0.7352 -1.3125
 5849TIP3   OH239181   6.043   5.605   1.972 -0.1863 -0.0501 -0.3122
 5849TIP3    H139182   6.123   5.614   2.025 -0.2842  0.4173 -0.2437
 5849TIP3    H239183   5.984   5.672   2.005 -0.4198 -0.0535 -0.7137
 5850TIP3   OH239184   5.042   4.501   7.408  0.1489 -0.0332  0.4171
 5850TIP3    H139185   4.990   4.494   7.328 -1.9744 -0.9748  1.7667
 5850TIP3    H239186   5.130   4.521   7.379 -0.5308 -0.4947 -2.1434
 5851TIP3   OH239187   1.440   3.751   2.007 -0.3819  0.0379  0.0767
 5851TIP3    H139188   1.379   3.756   2.080 -0.4969  0.9138 -0.0675
 5851TIP3    H239189   1.527   3.760   2.047 -0.5067  2.1837 -0.0120
 5852TIP3   OH239190   5.353   1.295   1.580 -0.6458  0.9785  0.4809
 5852TIP3    H139191   5.362   1.219   1.522 -1.1790  0.9464  0.4319
 5852TIP3    H239192   5.431   1.348   1.564  0.4781 -0.2687  1.5724
 5853TIP3   OH239193   0.519   2.350   0.761 -0.5781  0.0965  0.3460
 5853TIP3    H139194   0.515   2.318   0.851 -0.3589 -0.3411  0.2042
 5853TIP3    H239195   0.557   2.437   0.768 -0.4339  0.0096  0.6653
 5854TIP3   OH239196   6.670   5.221   8.381 -0.0246 -0.3778  0.0223
 5854TIP3    H139197   6.584   5.227   8.340 -0.3764 -1.1662  0.6389
 5854TIP3    H239198   6.652   5.195   8.472  0.6563  2.2896  1.0231
 5855TIP3   OH239199   3.735   2.749   6.858 -0.1766 -0.1492 -0.1838
 5855TIP3    H139200   3.668   2.805   6.819 -1.1143 -0.5428  0.8138
 5855TIP3    H239201   3.788   2.807   6.913 -0.4506 -0.0487 -0.0290
 5856TIP3   OH239202   1.451   2.525   7.014 -0.3958  0.2831 -0.2279
 5856TIP3    H139203   1.364   2.495   7.040 -1.1126  0.8308 -1.8794
 5856TIP3    H239204   1.461   2.496   6.924  1.3341 -0.1426  0.0575
 5857TIP3   OH239205   0.099   3.456   8.129 -0.1299  0.2040 -0.6087
 5857TIP3    H139206   0.187   3.437   8.161 -0.8693  2.1453  3.1986
 5857TIP3    H239207   0.108   3.541   8.085 -0.1353  0.7490  0.3982
 5858TIP3   OH239208   1.144   1.291   0.918  0.2709 -0.0390  0.1684
 5858TIP3    H139209   1.136   1.222   0.852 -0.4428 -0.6460  0.8613
 5858TIP3    H239210   1.073   1.273   0.980  0.7250  0.7062  0.9265
 5859TIP3   OH239211   5.772   3.862   1.089  0.0658  0.6082 -0.0783
 5859TIP3    H139212   5.724   3.781   1.103 -0.5901  0.7903 -1.1372
 5859TIP3    H239213   5.846   3.857   1.149 -0.3728 -0.4282  0.4000
 5860TIP3   OH239214   2.619   3.218   8.387  0.2465  0.4321 -0.0510
 5860TIP3    H139215   2.569   3.251   8.313  2.0317  0.8857 -1.1154
 5860TIP3    H239216   2.569   3.142   8.418 -1.7747  1.6431 -0.1603
 5861TIP3   OH239217   6.594   4.901   7.783 -0.2486  0.2577 -0.0878
 5861TIP3    H139218   6.676   4.861   7.811 -0.6768 -0.4419  0.1997
 5861TIP3    H239219   6.555   4.935   7.863 -0.7010 -0.3033 -0.0544
 5862TIP3   OH239220   1.553   2.032   7.763  0.0195 -0.0274  0.0654
 5862TIP3    H139221   1.629   2.029   7.821 -1.1334  1.1484  1.7125
 5862TIP3    H239222   1.493   2.093   7.805 -2.2418 -1.5950 -0.7067
 5863TIP3   OH239223   0.659   6.482   1.949  0.2401 -0.3055 -0.1904
 5863TIP3    H139224   0.626   6.535   2.022 -1.8639 -0.1064 -1.2145
 5863TIP3    H239225   0.752   6.471   1.968 -0.0264  0.6000  1.9841
 5864TIP3   OH239226   2.694   0.465   8.356  0.2473  0.2687 -0.2683
 5864TIP3    H139227   2.731   0.467   8.444  1.3234 -0.1493 -0.6905
 5864TIP3    H239228   2.705   0.554   8.322  2.5742 -0.2390 -1.0353
 5865TIP3   OH239229   1.585   0.150   0.173 -0.8543  0.0147 -0.1274
 5865TIP3    H139230   1.655   0.105   0.220 -0.0948  1.3951  0.1335
 5865TIP3    H239231   1.604   0.243   0.185 -1.6659  0.4148 -1.6529
 5866TIP3   OH239232   0.822   6.324   0.378 -0.2938  0.5694 -1.1946
 5866TIP3    H139233   0.763   6.380   0.328 -0.2561  1.7456  0.0337
 5866TIP3    H239234   0.909   6.341   0.340  0.1669  3.5010  0.8715
 5867TIP3   OH239235   0.957   1.837   0.290  0.4337  0.2358 -0.2098
 5867TIP3    H139236   0.933   1.929   0.307  0.2076 -0.1152  1.6382
 5867TIP3    H239237   1.023   1.817   0.358 -1.5126 -1.7226  1.2425
 5868TIP3   OH239238   0.215   0.024   8.441  0.1732 -0.1394  0.1370
 5868TIP3    H139239   0.193  -0.067   8.461  2.3469 -0.4768  1.2533
 5868TIP3    H239240   0.130   0.067   8.431 -0.9238 -2.0242  0.8209
 5869TIP3   OH239241   4.958   1.461   0.806 -0.1133 -0.5673 -0.2209
 5869TIP3    H139242   4.882   1.445   0.749 -0.4888  2.0583 -0.5769
 5869TIP3    H239243   5.033   1.465   0.747 -0.3430  1.0083 -0.4554
 5870TIP3   OH239244   1.047   2.835   1.398 -0.2257 -0.1275  0.4604
 5870TIP3    H139245   0.988   2.884   1.454 -0.1830  0.6821 -0.1820
 5870TIP3    H239246   1.135   2.865   1.423 -0.0929 -1.0996  1.2024
 5871TIP3   OH239247   6.234   5.956   0.998  0.2911 -0.3888 -0.0884
 5871TIP3    H139248   6.222   5.983   1.089  0.8044 -1.0908  0.1951
 5871TIP3    H239249   6.164   5.893   0.982  0.5035 -0.6451 -0.0186
 5872TIP3   OH239250   3.558   1.093   1.155  0.2250  0.7649  0.5577
 5872TIP3    H139251   3.510   1.175   1.148 -0.1459  0.5235  0.2060
 5872TIP3    H239252   3.499   1.035   1.203 -0.4167  0.0502 -1.0175
 5873TIP3   OH239253   1.808   0.739   2.270  0.0064  0.0033  0.0585
 5873TIP3    H139254   1.860   0.755   2.348 -1.8203 -0.6936  1.5041
 5873TIP3    H239255   1.808   0.643   2.260 -1.0306 -0.0228  0.1511
 5874TIP3   OH239256   5.095   1.982   1.381 -0.1276 -0.1362  0.4261
 5874TIP3    H139257   5.115   2.076   1.381 -0.3231 -0.0790  1.4044
 5874TIP3    H239258   5.103   1.956   1.473 -3.7023 -0.2740  0.8511
 5875TIP3   OH239259   5.649   2.105   6.544  0.3472 -0.2443  0.1237
 5875TIP3    H139260   5.711   2.155   6.597  0.8680  1.4214 -1.8980
 5875TIP3    H239261   5.703   2.057   6.481 -0.3042 -0.4466 -0.2960
 5876TIP3   OH239262   6.637   1.997   8.129  0.5991 -0.1845  0.5933
 5876TIP3    H139263   6.694   1.936   8.080 -0.3062 -0.8039  0.2900
 5876TIP3    H239264   6.672   2.083   8.108  2.3225 -0.5976  1.5390
 5877TIP3   OH239265   3.151   0.047   1.584 -0.1222 -0.0322 -0.1868
 5877TIP3    H139266   3.113   0.102   1.653  1.8075  0.2102  0.7750
 5877TIP3    H239267   3.168   0.108   1.512  0.5370  0.3575  0.2747
 5878TIP3   OH239268   2.125   0.002   7.208 -0.0729 -0.0030  0.0228
 5878TIP3    H139269   2.115   0.055   7.130  0.7509 -0.2641 -0.2686
 5878TIP3    H239270   2.208   0.029   7.246 -0.3846  0.0093  0.7313
 5879TIP3   OH239271   1.384   5.294   7.131  0.0190 -0.0819  0.5560
 5879TIP3    H139272   1.293   5.269   7.143 -0.1228  0.9734  1.9787
 5879TIP3    H239273   1.421   5.226   7.075 -1.6913 -0.3777 -0.2741
 5880TIP3   OH239274   4.797   0.001   7.834 -0.2379 -0.2627 -0.0351
 5880TIP3    H139275   4.739   0.064   7.877 -1.0114 -0.0149 -1.3812
 5880TIP3    H239276   4.742  -0.075   7.816 -0.3214  0.1496 -1.7408
 5881TIP3   OH239277   4.190   5.178   1.583  0.3209  0.7429 -0.3084
 5881TIP3    H139278   4.264   5.139   1.628  0.3434 -1.3396 -2.0020
 5881TIP3    H239279   4.181   5.265   1.622  2.0525  0.1038  1.6713
 5882TIP3   OH239280   0.251   4.349   1.622  0.0919  0.2173 -0.3467
 5882TIP3    H139281   0.345   4.350   1.606 -0.0573  0.8285 -1.2474
 5882TIP3    H239282   0.243   4.318   1.713  1.1172 -0.4898 -0.4698
 5883TIP3   OH239283   1.154   4.513   1.300  0.6828  0.0061  0.2650
 5883TIP3    H139284   1.197   4.589   1.262  0.1812  1.4855  2.4973
 5883TIP3    H239285   1.201   4.496   1.382 -0.3879 -0.9133  0.7294
 5884TIP3   OH239286   3.548   3.951   0.188  0.4554  0.2129  0.0197
 5884TIP3    H139287   3.577   4.042   0.195  1.1934  0.0814 -1.1395
 5884TIP3    H239288   3.536   3.936   0.094 -1.0886 -0.4621  0.2991
 5885TIP3   OH239289   2.397   0.129   0.898 -0.1326  0.1624  0.0927
 5885TIP3    H139290   2.401   0.181   0.817 -2.2214 -1.5177 -1.1802
 5885TIP3    H239291   2.330   0.173   0.951 -1.3033 -0.6950 -0.6333
 5886TIP3   OH239292   0.860   6.574   8.238 -0.3398 -0.1109  0.4932
 5886TIP3    H139293   0.863   6.649   8.296 -2.3546 -0.4944  1.1704
 5886TIP3    H239294   0.951   6.544   8.232  0.0582  0.4760  2.7342
 5887TIP3   OH239295   2.442   2.156   0.278 -0.5753  0.3839 -0.1482
 5887TIP3    H139296   2.427   2.199   0.194  2.2691  0.1144 -0.9158
 5887TIP3    H239297   2.421   2.222   0.343 -1.9540  0.9072 -1.0849
 5888TIP3   OH239298   4.824   6.387   2.587 -0.3619 -0.5187  0.3914
 5888TIP3    H139299   4.860   6.470   2.616  0.6234 -0.8209  0.0754
 5888TIP3    H239300   4.787   6.347   2.666 -2.5017  0.9856  0.2472
 5889TIP3   OH239301   1.087   4.737   7.427  0.0295  0.2686 -0.2301
 5889TIP3    H139302   1.049   4.810   7.379 -0.5443  0.0353 -0.1414
 5889TIP3    H239303   1.052   4.659   7.384 -1.6591  0.0457  1.4056
 5890TIP3   OH239304   2.238   2.019   1.522  0.2234  0.0034 -0.9122
 5890TIP3    H139305   2.228   1.930   1.489  2.7204 -0.3089 -1.0536
 5890TIP3    H239306   2.289   2.009   1.603 -0.4139  1.2244 -0.3323
 5891TIP3   OH239307   1.330   5.404   1.851 -0.5432  0.0580 -0.0513
 5891TIP3    H139308   1.325   5.321   1.898 -0.5580  0.9709  1.6724
 5891TIP3    H239309   1.422   5.412   1.827 -0.2379  0.2003  1.0978
 5892TIP3   OH239310   6.517   1.535   7.079 -0.0966 -0.1698  0.3647
 5892TIP3    H139311   6.512   1.477   7.003 -0.0859  0.1350  0.1302
 5892TIP3    H239312   6.548   1.479   7.150 -0.8381 -0.6368  0.3298
 5893TIP3   OH239313   3.304   5.454   1.555  0.1286 -0.4135 -0.4017
 5893TIP3    H139314   3.290   5.499   1.638  0.3888 -1.1507  0.0535
 5893TIP3    H239315   3.356   5.515   1.503 -1.5231  0.7980 -0.7094
 5894TIP3   OH239316   2.572   5.115   7.150 -0.5794  0.7566 -0.3433
 5894TIP3    H139317   2.663   5.115   7.179 -0.5737  2.4984 -0.2316
 5894TIP3    H239318   2.530   5.047   7.202  0.7392 -0.4413 -0.7670
 5895TIP3   OH239319   1.694   4.488   0.072 -0.5187 -0.5136  0.6044
 5895TIP3    H139320   1.766   4.501   0.010 -0.6402  1.6604  0.8501
 5895TIP3    H239321   1.633   4.429   0.027  1.3186 -2.3569  0.3550
 5896TIP3   OH239322   4.894   6.460   0.846  0.4961 -0.2473  0.3106
 5896TIP3    H139323   4.860   6.371   0.846  2.7923 -1.1900 -0.0004
 5896TIP3    H239324   4.858   6.500   0.925 -1.4705 -1.0435 -0.1347
 5897TIP3   OH239325   0.077   1.822   8.178  0.0310 -1.0327  1.0302
 5897TIP3    H139326   0.146   1.776   8.130  0.8178  0.4802  0.6510
 5897TIP3    H239327   0.008   1.837   8.114  0.1962 -0.8287  0.8989
 5898TIP3   OH239328   5.126   5.177   1.456  0.2335  0.2830 -0.6462
 5898TIP3    H139329   5.211   5.220   1.441  0.8095 -0.2633  0.8107
 5898TIP3    H239330   5.061   5.244   1.433  1.0797  1.3069 -0.1812
 5899TIP3   OH239331   1.607   0.425   1.899 -0.1774 -0.1879 -1.0684
 5899TIP3    H139332   1.513   0.412   1.887 -0.4335 -0.0637  0.5505
 5899TIP3    H239333   1.634   0.353   1.957  0.9618 -0.8866 -2.4151
 5900TIP3   OH239334   2.225   5.124   8.154 -0.2102  0.5405  0.4230
 5900TIP3    H139335   2.310   5.108   8.196 -0.3806  0.7093  0.8299
 5900TIP3    H239336   2.197   5.037   8.125 -1.6117 -0.1672  3.5373
 5901TIP3   OH239337   3.244   1.922   7.437 -0.4472 -0.0994  0.2829
 5901TIP3    H139338   3.158   1.930   7.478 -0.4951 -1.4498  0.4841
 5901TIP3    H239339   3.293   1.865   7.496 -0.6597 -2.5136 -1.7085
 5902TIP3   OH239340   4.293   0.980   1.901 -0.5567 -0.0486  0.2199
 5902TIP3    H139341   4.266   1.071   1.906 -1.0318 -0.1776  0.0804
 5902TIP3    H239342   4.219   0.935   1.859 -0.2465 -0.4605  0.1038
 5903TIP3   OH239343   1.509   1.712   7.453 -0.0304  0.1397  0.2304
 5903TIP3    H139344   1.414   1.723   7.454  0.0375  0.9037 -0.6851
 5903TIP3    H239345   1.543   1.801   7.464  0.5787 -0.1222  0.4869
 5904TIP3   OH239346   3.743   1.905   8.179 -0.0187  1.0652  0.2941
 5904TIP3    H139347   3.730   1.902   8.274  1.8234  0.2600  0.5872
 5904TIP3    H239348   3.772   1.994   8.161  0.4257  0.9980  0.6439
 5905TIP3   OH239349   6.539   1.183   1.819 -0.2889 -0.2999 -1.1024
 5905TIP3    H139350   6.444   1.169   1.820 -0.5456  0.5146  2.8324
 5905TIP3    H239351   6.576   1.096   1.805 -1.5542 -0.6647 -2.4801
 5906TIP3   OH239352   4.136   1.815   7.220 -0.7445  0.1043 -0.7931
 5906TIP3    H139353   4.046   1.801   7.192 -1.3510 -1.5369  1.6569
 5906TIP3    H239354   4.136   1.796   7.314  1.6859  2.4169 -0.1762
 5907TIP3   OH239355   4.503   5.138   8.436 -0.7558 -0.6623  1.0588
 5907TIP3    H139356   4.446   5.207   8.402 -0.7608 -1.6409 -1.0685
 5907TIP3    H239357   4.529   5.088   8.359  2.1971 -0.8840  2.0787
 5908TIP3   OH239358   0.473   1.021   6.708 -0.6225  0.6187 -0.1904
 5908TIP3    H139359   0.464   1.113   6.683 -0.5056  0.3457 -1.2877
 5908TIP3    H239360   0.539   0.986   6.648 -0.5559 -0.1522  0.3155
 5909TIP3   OH239361   1.364   0.493   0.453 -0.7496 -0.3471 -0.5716
 5909TIP3    H139362   1.330   0.462   0.369 -1.1843 -0.9112 -0.1965
 5909TIP3    H239363   1.403   0.578   0.434  0.8049 -1.2787 -1.7025
 5910TIP3   OH239364   3.566   3.060   1.506 -0.1370  0.2777  0.2475
 5910TIP3    H139365   3.501   3.005   1.463  2.5040 -1.7934 -1.4507
 5910TIP3    H239366   3.554   3.147   1.467  0.6397 -0.9995 -3.2091
 5911TIP3   OH239367   5.938   4.454   0.740  0.2791 -0.5423  0.5924
 5911TIP3    H139368   6.027   4.486   0.754 -0.4432  1.7323  0.3776
 5911TIP3    H239369   5.949   4.378   0.683  2.1074 -0.6184  0.9763
 5912TIP3   OH239370   0.807   6.797   1.760  0.4210 -0.0258 -0.2740
 5912TIP3    H139371   0.860   6.875   1.747  0.5962 -0.4013 -1.9755
 5912TIP3    H239372   0.812   6.750   1.677 -2.3228 -0.2592 -0.3940
 5913TIP3   OH239373   4.358   0.577   1.161 -0.0799 -0.9597  0.0213
 5913TIP3    H139374   4.423   0.543   1.099  0.7609  0.6071 -0.0114
 5913TIP3    H239375   4.338   0.504   1.219  3.5710 -0.8951  1.6010
 5914TIP3   OH239376   6.260   2.798   1.201 -0.7392 -0.0223  0.3804
 5914TIP3    H139377   6.290   2.736   1.267  0.2773  1.5517  1.4785
 5914TIP3    H239378   6.338   2.847   1.176 -1.3750  0.3781 -0.9678
 5915TIP3   OH239379   5.687   2.782   7.561  0.0116 -0.0493 -0.6908
 5915TIP3    H139380   5.752   2.820   7.502 -1.3303  1.7851 -1.0836
 5915TIP3    H239381   5.603   2.815   7.529 -1.1736 -2.4718 -0.3118
 5916TIP3   OH239382   1.555   1.468   7.348  0.2952 -0.2360 -0.1987
 5916TIP3    H139383   1.552   1.562   7.370  0.4615 -0.3020  0.1215
 5916TIP3    H239384   1.649   1.449   7.340  0.3122 -0.5804  0.6693
 5917TIP3   OH239385   1.373   3.243   1.714 -0.4021 -0.7319 -0.2735
 5917TIP3    H139386   1.411   3.291   1.788  0.6772 -0.2648 -1.0890
 5917TIP3    H239387   1.369   3.152   1.744 -0.2601 -0.5022  0.4649
 5918TIP3   OH239388   6.715   3.442   7.665 -0.6104  0.0686 -0.1011
 5918TIP3    H139389   6.668   3.372   7.620 -0.1709 -1.1099  1.2224
 5918TIP3    H239390   6.807   3.422   7.652 -0.4823  0.1469  0.6521
 5919TIP3   OH239391   0.016   2.699   1.785 -0.7575  0.5691  0.5969
 5919TIP3    H139392  -0.051   2.655   1.837  1.2516 -1.2899  1.7639
 5919TIP3    H239393   0.014   2.655   1.700 -0.4121 -0.1267  0.9430
 5920TIP3   OH239394   6.018   1.116   1.664 -0.3442  0.4217  0.0299
 5920TIP3    H139395   6.019   1.133   1.570  1.6364  3.6747  0.4401
 5920TIP3    H239396   5.928   1.132   1.691 -0.6321  0.8791 -1.1526
 5921TIP3   OH239397   3.860   4.662   0.630 -0.5147 -0.0975  0.1531
 5921TIP3    H139398   3.877   4.756   0.643 -0.7553  0.3916 -2.5335
 5921TIP3    H239399   3.912   4.619   0.698 -0.1078  1.9669  1.2320
 5922TIP3   OH239400   2.079   4.956   1.151  0.2335 -0.4751  0.1343
 5922TIP3    H139401   2.126   5.038   1.136  1.3512 -1.0999  0.0979
 5922TIP3    H239402   1.994   4.983   1.186  0.0729  0.7428 -1.0929
 5923TIP3   OH239403   5.808   6.574   8.029  0.1441 -0.2193  0.0172
 5923TIP3    H139404   5.757   6.535   7.958  0.1545 -2.1139  0.9841
 5923TIP3    H239405   5.897   6.543   8.015  0.0698 -0.9474  1.0666
 5924TIP3   OH239406   2.075   0.690   0.485  0.7273  0.0060 -0.7319
 5924TIP3    H139407   2.049   0.714   0.397 -1.8571  0.0142 -0.0291
 5924TIP3    H239408   2.164   0.726   0.494  0.9431  0.2661 -3.1713
 5925TIP3   OH239409   4.577   0.829   1.001 -0.1718 -0.4398 -0.8304
 5925TIP3    H139410   4.541   0.858   0.917 -0.3232  0.9485 -0.3002
 5925TIP3    H239411   4.557   0.735   1.004 -2.4970 -0.0116 -1.1897
 5926TIP3   OH239412   4.702   5.444   0.900  0.8409 -0.2319  0.1602
 5926TIP3    H139413   4.661   5.482   0.822 -0.0953  1.2932  1.3246
 5926TIP3    H239414   4.682   5.507   0.970  0.0781 -2.3919  2.0177
 5927TIP3   OH239415   4.161   3.773   2.007  0.2886 -1.0465  0.5951
 5927TIP3    H139416   4.072   3.807   2.009  0.6371  0.1663 -1.2601
 5927TIP3    H239417   4.158   3.701   1.944  0.4645 -1.4561  1.0595
 5928TIP3   OH239418   0.549   0.151   0.637 -0.2579 -0.8486  0.0128
 5928TIP3    H139419   0.642   0.131   0.647 -0.3714 -0.7807  1.4812
 5928TIP3    H239420   0.505   0.066   0.645 -0.4097 -0.6905  1.0347
 5929TIP3   OH239421   1.495   6.190   8.010 -0.0140 -0.0905 -0.9058
 5929TIP3    H139422   1.535   6.206   8.095 -0.6860  2.7921 -1.0424
 5929TIP3    H239423   1.569   6.185   7.949  0.4123 -1.1891 -0.3275
 5930TIP3   OH239424   0.414   6.265   0.573  0.4653  0.1646  0.0634
 5930TIP3    H139425   0.387   6.351   0.541  0.7319  1.1848  2.3905
 5930TIP3    H239426   0.393   6.205   0.501 -1.8974  1.8111 -0.7511
 5931TIP3   OH239427   2.329   2.676   7.434  0.4553  0.0829 -0.4163
 5931TIP3    H139428   2.296   2.605   7.490  3.6511 -0.4866  0.9780
 5931TIP3    H239429   2.359   2.632   7.355  0.4590  0.1990 -0.4800
 5932TIP3   OH239430   1.081   2.851   8.765 -0.3394 -0.4742  0.0213
 5932TIP3    H139431   1.026   2.892   8.698 -0.5695  0.4966  0.7878
 5932TIP3    H239432   1.019   2.821   8.831  0.0524  1.9380  1.6195
 5933TIP3   OH239433   1.083   0.010   1.607  0.0472 -0.1578 -0.2302
 5933TIP3    H139434   1.100  -0.084   1.596 -2.1218 -0.5663 -0.4896
 5933TIP3    H239435   1.151   0.053   1.555  0.3263 -1.6168 -1.1220
 5934TIP3   OH239436   4.733   4.459   8.446  0.0507  0.6336  0.5217
 5934TIP3    H139437   4.637   4.459   8.455 -0.0414  0.2007 -0.3736
 5934TIP3    H239438   4.756   4.552   8.450 -0.5254  0.8271 -0.3201
 5935TIP3   OH239439   4.971   2.709   7.419 -0.3021 -0.0306  0.3770
 5935TIP3    H139440   4.925   2.667   7.346  0.1923  0.1474 -0.0461
 5935TIP3    H239441   4.961   2.649   7.492 -0.3060 -0.4913  0.0001
 5936TIP3   OH239442   2.230   5.521   7.763 -0.8563  0.2719  0.0532
 5936TIP3    H139443   2.217   5.534   7.669 -0.1601  1.8865  0.1494
 5936TIP3    H239444   2.149   5.481   7.793 -1.6429  1.0218 -1.0098
 5937TIP3   OH239445   6.127   5.634   6.862 -0.1863 -0.4236  0.2126
 5937TIP3    H139446   6.055   5.576   6.838 -1.0561 -0.0740  1.8190
 5937TIP3    H239447   6.200   5.604   6.809 -1.9685  0.5359 -3.0932
 5938TIP3   OH239448   4.059   5.509   8.197 -0.5904 -0.3684 -0.3399
 5938TIP3    H139449   4.117   5.489   8.124 -0.4704 -0.1911 -0.2931
 5938TIP3    H239450   4.050   5.426   8.245 -3.0492 -1.3413 -2.2142
 5939TIP3   OH239451   2.372   0.352   0.052 -0.2532 -0.4905 -0.4085
 5939TIP3    H139452   2.415   0.419   0.105  0.6557 -0.6624 -0.9250
 5939TIP3    H239453   2.349   0.283   0.115 -0.3533 -0.1167 -0.0297
 5940TIP3   OH239454   6.298   5.634   1.249  0.7816  0.6990  0.8604
 5940TIP3    H139455   6.269   5.694   1.317 -1.1104  0.4700  0.3020
 5940TIP3    H239456   6.252   5.552   1.268 -0.9035  1.0225 -1.4286
 5941TIP3   OH239457   5.308   3.377   0.878  0.1571  0.1841 -0.3617
 5941TIP3    H139458   5.346   3.416   0.799 -0.1361 -0.8236 -1.0086
 5941TIP3    H239459   5.223   3.344   0.850 -0.3462  0.6207  0.6009
 5942TIP3   OH239460   2.926   3.127   1.570  0.3639 -0.3686 -0.4513
 5942TIP3    H139461   2.922   3.222   1.560  1.9543  0.1118  2.2730
 5942TIP3    H239462   2.922   3.113   1.665  1.2636 -2.9457 -0.7092
 5943TIP3   OH239463   6.678   4.118   1.584  0.0467 -0.6908 -0.0156
 5943TIP3    H139464   6.650   4.208   1.576  0.0711 -0.6965 -0.1609
 5943TIP3    H239465   6.599   4.070   1.610  0.6219 -0.1718  3.0929
 5944TIP3   OH239466   4.224   1.370   6.811 -0.2008 -0.4657  0.0634
 5944TIP3    H139467   4.294   1.309   6.836  1.2193  0.7119 -0.9057
 5944TIP3    H239468   4.144   1.328   6.843  0.7842 -2.5167  0.0006
 5945TIP3   OH239469   6.253   1.870   8.583 -0.1396  0.3925 -0.0018
 5945TIP3    H139470   6.315   1.841   8.516 -2.1879 -1.8019 -1.1318
 5945TIP3    H239471   6.306   1.890   8.660  1.9647 -0.7528 -1.0932
 5946TIP3   OH239472   5.321   6.225   7.941 -0.0628  0.0337 -0.1852
 5946TIP3    H139473   5.354   6.307   7.905  1.2162  0.1253  1.0954
 5946TIP3    H239474   5.270   6.186   7.870 -0.5649  1.8463 -0.8704
 5947TIP3   OH239475   0.407   2.844   7.531  0.2329 -0.5150  0.9580
 5947TIP3    H139476   0.470   2.783   7.570  2.5158 -0.5093 -2.2898
 5947TIP3    H239477   0.451   2.929   7.535  1.0948 -0.6853 -2.3045
 5948TIP3   OH239478   6.259   2.223   0.292 -0.2126 -0.1372  0.0808
 5948TIP3    H139479   6.177   2.269   0.308 -0.1920  0.1061 -0.4896
 5948TIP3    H239480   6.283   2.246   0.202  0.6366  0.0484  0.3433
 5949TIP3   OH239481   3.471   0.485   7.653 -0.1624 -0.1602  0.4056
 5949TIP3    H139482   3.479   0.571   7.695  1.2264  0.0615 -0.2263
 5949TIP3    H239483   3.557   0.444   7.667 -1.3095 -2.1232  2.0704
 5950TIP3   OH239484   2.337   5.749   7.892 -0.2979  0.2140 -0.5157
 5950TIP3    H139485   2.296   5.667   7.863  0.5862 -0.5403  0.2636
 5950TIP3    H239486   2.286   5.776   7.969 -0.2088  0.0426 -0.3949
 5951TIP3   OH239487   3.345   6.464   2.198  0.5963  0.5842 -0.2784
 5951TIP3    H139488   3.364   6.556   2.177  1.3674  1.2859  2.9584
 5951TIP3    H239489   3.256   6.465   2.231  0.0712 -0.1572 -1.5954
 5952TIP3   OH239490   5.042   1.744   1.759  0.3692  0.2423 -0.0055
 5952TIP3    H139491   5.002   1.706   1.837 -0.3462  1.3026  0.1578
 5952TIP3    H239492   5.113   1.684   1.737 -0.0048 -0.5586  0.9196
 5953TIP3   OH239493   3.482   6.048   8.665 -0.3528 -0.1068 -0.0913
 5953TIP3    H139494   3.474   6.017   8.756 -0.7785  2.1621  0.7019
 5953TIP3    H239495   3.392   6.066   8.638 -0.0937  0.7181 -0.4090
 5954TIP3   OH239496   1.959   5.194   2.115  0.0835  0.0536 -0.0253
 5954TIP3    H139497   1.952   5.099   2.121 -1.0767  0.1720  0.7158
 5954TIP3    H239498   2.049   5.210   2.084  0.3680 -1.2578  0.0873
 5955TIP3   OH239499   4.607   1.307   0.769  0.1960  0.1659 -0.0089
 5955TIP3    H139500   4.556   1.384   0.794  1.6042  1.7582 -1.7651
 5955TIP3    H239501   4.663   1.337   0.698 -0.5252 -2.9412 -2.1075
 5956TIP3   OH239502   6.816   5.656   7.827 -0.3482  0.3764  0.0093
 5956TIP3    H139503   6.796   5.565   7.808 -1.4639  0.5884  0.0771
 5956TIP3    H239504   6.900   5.673   7.784 -0.5518 -0.4379 -0.7135
 5957TIP3   OH239505   3.925   4.917   0.688  0.1058  0.2611  0.3371
 5957TIP3    H139506   3.865   4.990   0.676  0.1035 -0.0039 -1.4654
 5957TIP3    H239507   4.012   4.957   0.691  0.3964  0.2596 -3.4299
 5958TIP3   OH239508   0.999   4.060   8.072  0.7914  0.1765  0.7207
 5958TIP3    H139509   0.994   3.964   8.073 -0.6377  0.1785 -1.0380
 5958TIP3    H239510   0.908   4.088   8.061  1.2253  1.7401  0.9154
 5959TIP3   OH239511   6.809   3.856   1.355  0.2233  0.6515 -0.0790
 5959TIP3    H139512   6.782   3.807   1.277 -0.3996 -0.1298  0.6155
 5959TIP3    H239513   6.786   3.947   1.335 -0.9296  0.3152 -0.3876
 5960TIP3   OH239514   3.417   0.825   8.212 -0.8010  0.4864 -0.1771
 5960TIP3    H139515   3.478   0.884   8.255 -0.3914 -0.5806  0.7508
 5960TIP3    H239516   3.337   0.877   8.200 -1.0216  0.7814  2.1094
 5961TIP3   OH239517   0.843   4.926   1.688 -0.1429 -0.4151  0.1369
 5961TIP3    H139518   0.866   4.966   1.772  1.3068 -0.6855 -0.0991
 5961TIP3    H239519   0.919   4.943   1.632 -0.5597 -1.3147 -0.7323
 5962TIP3   OH239520   5.394   6.700   0.320  0.1121 -0.2318  0.1200
 5962TIP3    H139521   5.387   6.608   0.294 -1.0009 -0.3403  0.7189
 5962TIP3    H239522   5.418   6.746   0.240 -4.5060 -0.3402 -1.6395
 5963TIP3   OH239523   1.152   0.305   0.028  0.3928  0.6681  0.1520
 5963TIP3    H139524   1.091   0.294   0.101 -0.7002  2.2260 -0.4657
 5963TIP3    H239525   1.153   0.220  -0.015 -1.9650  0.7665 -0.2273
 5964TIP3   OH239526   3.541   1.589   8.561  0.0623 -0.0314  0.0322
 5964TIP3    H139527   3.576   1.669   8.601  1.6969 -0.8077  0.2387
 5964TIP3    H239528   3.447   1.592   8.579  0.0827  1.8634 -0.0258
 5965TIP3   OH239529   0.561   4.085   0.437 -0.1595 -0.0141 -0.4896
 5965TIP3    H139530   0.581   4.005   0.486 -1.9040 -0.9863 -1.2917
 5965TIP3    H239531   0.606   4.074   0.353 -0.3384 -0.1154 -0.5718
 5966TIP3   OH239532   4.066   4.587   8.753  0.3498 -0.3948  0.0187
 5966TIP3    H139533   4.153   4.560   8.781  0.1374 -0.1142  1.0021
 5966TIP3    H239534   4.008   4.553   8.821 -0.4838 -1.7950 -1.3310
 5967TIP3   OH239535   4.119   6.497   7.561  0.2604 -0.0206 -0.3227
 5967TIP3    H139536   4.133   6.427   7.497 -1.1480 -0.5352 -0.0926
 5967TIP3    H239537   4.024   6.508   7.566  0.4259  1.6618 -0.0700
 5968TIP3   OH239538   1.625   5.584   2.231 -0.5270 -0.5140 -0.5783
 5968TIP3    H139539   1.536   5.550   2.217 -1.4304 -0.1611  3.1966
 5968TIP3    H239540   1.670   5.515   2.279 -0.0362  0.7788  0.8863
 5969TIP3   OH239541   2.174   3.673   0.446  0.3829 -0.1443  0.1792
 5969TIP3    H139542   2.123   3.646   0.370  0.4930 -0.8267  0.3405
 5969TIP3    H239543   2.252   3.716   0.410 -0.0683  0.4837 -0.0738
 5970TIP3   OH239544   6.852   3.107   6.858 -0.7544 -0.1509 -0.4073
 5970TIP3    H139545   6.946   3.106   6.873 -0.9964  0.3870  1.4269
 5970TIP3    H239546   6.826   3.198   6.875 -1.7654 -0.5671  0.4034
 5971TIP3   OH239547   4.241   1.519   6.597  0.5326  0.2914 -0.4192
 5971TIP3    H139548   4.263   1.477   6.680  0.0782  2.4822  0.8787
 5971TIP3    H239549   4.300   1.478   6.534  0.9225 -1.4111  0.9445
 5972TIP3   OH239550   6.220   6.399   0.533  0.0496  0.5033 -0.2875
 5972TIP3    H139551   6.187   6.350   0.458  0.7601 -0.8258  0.2485
 5972TIP3    H239552   6.162   6.377   0.605  2.0093 -1.9544  0.6975
 5973TIP3   OH239553   5.489   3.450   1.433 -0.2860 -0.3443 -0.1580
 5973TIP3    H139554   5.401   3.475   1.404  0.7042  1.7244 -1.6302
 5973TIP3    H239555   5.518   3.524   1.487  0.7269 -0.7570 -0.1226
 5974TIP3   OH239556   3.278   4.901   7.451 -0.2250 -0.2931 -0.1645
 5974TIP3    H139557   3.228   4.844   7.392  0.4254 -1.5733  0.4580
 5974TIP3    H239558   3.273   4.857   7.536 -0.3922  1.0436  0.5411
 5975TIP3   OH239559   4.405   6.566   6.809 -0.2769  0.0404  0.0230
 5975TIP3    H139560   4.461   6.520   6.747 -0.3568  0.0740 -0.0746
 5975TIP3    H239561   4.463   6.624   6.857 -0.1249 -0.3622  0.3395
 5976TIP3   OH239562   5.143   6.202   1.357 -0.6520 -0.0370 -0.2041
 5976TIP3    H139563   5.080   6.152   1.306 -1.9311  2.3263 -1.0834
 5976TIP3    H239564   5.204   6.237   1.292  1.4240 -1.9238  0.5898
 5977TIP3   OH239565   5.529   4.071   2.396 -0.3384 -0.0044 -0.4296
 5977TIP3    H139566   5.495   4.131   2.330 -2.1130 -1.6508 -1.0976
 5977TIP3    H239567   5.493   4.102   2.479  1.8753  2.0560 -0.1220
 5978TIP3   OH239568   4.201   1.293   0.578 -0.0240 -0.2604 -0.4165
 5978TIP3    H139569   4.268   1.360   0.572  1.2595 -0.8798  3.8388
 5978TIP3    H239570   4.118   1.342   0.581  0.8180  1.1712  1.7438
 5979TIP3   OH239571   6.276   1.644   7.253 -0.2237 -0.5803 -0.4288
 5979TIP3    H139572   6.312   1.689   7.176 -0.5381 -1.0635 -0.8561
 5979TIP3    H239573   6.184   1.629   7.232 -0.9596  1.4342  1.0057
 5980TIP3   OH239574   4.147   4.658   8.384 -0.3166 -0.3337 -0.5086
 5980TIP3    H139575   4.086   4.708   8.331 -0.3831  0.1110 -0.0215
 5980TIP3    H239576   4.118   4.673   8.474 -0.8683 -1.9375 -0.3805
 5981TIP3   OH239577   0.793   1.838   1.185 -0.4210  0.7432 -0.0601
 5981TIP3    H139578   0.887   1.855   1.191 -0.3857  0.4595  0.1791
 5981TIP3    H239579   0.756   1.881   1.263 -0.7538  2.6497 -1.1920
 5982TIP3   OH239580   6.566   3.669   0.375 -0.3083 -0.8485 -0.2442
 5982TIP3    H139581   6.554   3.760   0.400 -1.9061 -0.4712 -2.0944
 5982TIP3    H239582   6.500   3.621   0.425 -0.9447 -0.6410 -0.8612
 5983TIP3   OH239583   5.105   6.552   6.911 -0.3374 -0.2928 -0.1262
 5983TIP3    H139584   5.156   6.574   6.989 -0.6315 -0.3615  0.0840
 5983TIP3    H239585   5.014   6.561   6.938 -0.4464  0.7518 -0.7515
 5984TIP3   OH239586   6.396   0.773   8.190  0.0854  0.3612  0.4669
 5984TIP3    H139587   6.367   0.774   8.098 -0.0806  0.6472  0.5196
 5984TIP3    H239588   6.452   0.851   8.197  2.1564 -0.9887 -0.0326
 5985TIP3   OH239589   1.891   3.187   0.605 -0.1672  0.0642 -0.0426
 5985TIP3    H139590   1.875   3.153   0.517 -0.0233  0.6118 -0.2826
 5985TIP3    H239591   1.985   3.174   0.619 -0.2439 -0.2927  0.1462
 5986TIP3   OH239592   0.181   0.655   6.901  0.2890 -0.1889  0.2985
 5986TIP3    H139593   0.100   0.695   6.933 -0.2615 -1.0840  0.0544
 5986TIP3    H239594   0.151   0.587   6.840  1.2662  1.8601 -2.6983
 5987TIP3   OH239595   5.185   2.181   1.827  0.0056  0.2938  0.0308
 5987TIP3    H139596   5.212   2.261   1.783 -0.8698  1.4111  1.4373
 5987TIP3    H239597   5.217   2.191   1.917 -1.7134 -0.0555  0.7216
 5988TIP3   OH239598   3.429   0.902   1.527  0.0989 -0.0056  0.1837
 5988TIP3    H139599   3.512   0.922   1.485 -0.1484 -1.5097 -1.1531
 5988TIP3    H239600   3.418   0.969   1.595  3.2119 -0.7911  1.6065
 5989TIP3   OH239601   3.667   3.230   8.165 -0.1308 -0.0596  0.0163
 5989TIP3    H139602   3.702   3.237   8.254 -2.5377 -0.9655  1.1230
 5989TIP3    H239603   3.664   3.321   8.134 -0.8239  0.4776  1.5414
 5990TIP3   OH239604   3.896   4.287   0.163 -0.3178  0.4112 -0.3001
 5990TIP3    H139605   3.963   4.246   0.218 -1.8660 -0.3952  1.0729
 5990TIP3    H239606   3.896   4.379   0.189  0.6307  0.5516 -0.7408
 5991TIP3   OH239607   0.683   0.659   0.771 -0.1649 -0.5331 -0.7172
 5991TIP3    H139608   0.608   0.704   0.810  0.0286  0.2975 -1.2825
 5991TIP3    H239609   0.645   0.589   0.718 -0.4822 -0.8512 -0.0786
 5992TIP3   OH239610   3.539   2.165   2.246  0.4442  0.1814  0.2403
 5992TIP3    H139611   3.524   2.240   2.188  0.5606  0.8235  1.0233
 5992TIP3    H239612   3.570   2.095   2.188  2.2490  1.3260 -0.2465
 5993TIP3   OH239613   6.839   4.800   7.845  0.0105  0.0837 -0.3742
 5993TIP3    H139614   6.890   4.742   7.789  2.4847 -0.4158  2.1538
 5993TIP3    H239615   6.855   4.888   7.809 -0.0844 -0.3723 -1.5781
 5994TIP3   OH239616   3.914   6.819   0.937 -0.1177 -0.4274  0.1640
 5994TIP3    H139617   3.998   6.773   0.931  0.2907  0.4524 -2.8391
 5994TIP3    H239618   3.933   6.895   0.993  1.3935  0.1710 -1.0608
 5995TIP3   OH239619   3.506   2.835   6.679 -0.1680  0.7278 -0.4121
 5995TIP3    H139620   3.540   2.898   6.616 -0.7593  0.9181 -0.5402
 5995TIP3    H239621   3.427   2.799   6.639  0.8620 -1.0931 -0.9486
 5996TIP3   OH239622   2.404   6.635   0.663  0.0635  0.1550  0.3697
 5996TIP3    H139623   2.375   6.561   0.609 -0.1380  0.7115 -0.3020
 5996TIP3    H239624   2.480   6.670   0.616  1.1859 -0.6087  1.5345
 5997TIP3   OH239625   0.416   6.730   0.584 -0.2105  0.7410  0.3779
 5997TIP3    H139626   0.376   6.664   0.528 -0.9016  1.9051 -0.5583
 5997TIP3    H239627   0.394   6.703   0.673 -0.1766 -0.4556  0.0386
 5998TIP3   OH239628   2.309   4.505   1.473 -0.3049  0.2637 -0.0859
 5998TIP3    H139629   2.252   4.577   1.502  0.5511  1.3831 -1.0742
 5998TIP3    H239630   2.262   4.466   1.399 -0.5894  0.0675  0.1983
 5999TIP3   OH239631   5.699   6.270   8.304 -0.6955  0.2206 -0.2268
 5999TIP3    H139632   5.752   6.218   8.363 -0.0939  0.9092 -0.1475
 5999TIP3    H239633   5.726   6.243   8.216 -0.4344  0.3442 -0.1856
 6000TIP3   OH239634   4.758   2.568   1.456  0.3887  0.2169  0.1583
 6000TIP3    H139635   4.678   2.516   1.460 -0.6056  1.3208 -2.7854
 6000TIP3    H239636   4.815   2.521   1.395  1.2439  0.3904  0.8039
 6001TIP3   OH239637   6.263   0.714   1.225 -0.4819 -0.0557 -0.1537
 6001TIP3    H139638   6.201   0.678   1.161  1.2457 -1.3202 -1.2032
 6001TIP3    H239639   6.348   0.706   1.183  0.5718  0.3895  1.7807
 6002TIP3   OH239640   3.786   0.374   0.704  0.0984 -0.5468  0.0704
 6002TIP3    H139641   3.811   0.415   0.786 -4.7193  0.6128  1.2469
 6002TIP3    H239642   3.764   0.447   0.646 -3.3227 -1.2504  0.3155
 6003TIP3   OH239643   6.709   0.219   8.631 -0.1712 -0.3313  0.5689
 6003TIP3    H139644   6.777   0.275   8.669 -1.0331  0.0018  1.6924
 6003TIP3    H239645   6.657   0.190   8.706 -0.3735 -1.8048 -0.1061
 6004TIP3   OH239646   5.802   0.312   7.712 -0.0330 -0.7239  0.5814
 6004TIP3    H139647   5.870   0.377   7.700 -1.0823  0.4950  1.0494
 6004TIP3    H239648   5.809   0.286   7.804 -0.1235 -0.6843  0.5998
 6005TIP3   OH239649   3.007   0.183   7.641  0.6723  0.2237 -0.1292
 6005TIP3    H139650   2.985   0.151   7.728  3.3946 -1.7469 -0.0473
 6005TIP3    H239651   3.081   0.242   7.654 -0.5426  2.0421 -0.9312
 6006TIP3   OH239652   0.985   4.085   7.400  0.0657  0.2906 -0.0843
 6006TIP3    H139653   0.933   4.149   7.448 -0.2775 -0.0098 -0.0525
 6006TIP3    H239654   1.049   4.137   7.352  0.5815  0.5788  0.8919
 6007TIP3   OH239655   0.550   5.512   6.925 -0.0324 -0.7301 -0.7604
 6007TIP3    H139656   0.639   5.516   6.960  0.2118  0.6865 -1.4772
 6007TIP3    H239657   0.522   5.603   6.920 -1.4895 -1.1447 -0.6803
 6008TIP3   OH239658   2.955   4.012   1.726  0.2049  0.3716 -0.0966
 6008TIP3    H139659   2.889   4.044   1.663 -1.3162 -1.8446  0.2651
 6008TIP3    H239660   2.967   4.085   1.786 -1.0594  1.2570 -0.8490
 6009TIP3   OH239661   5.432   2.116   0.894  0.1122 -0.8169 -0.5315
 6009TIP3    H139662   5.343   2.147   0.878 -0.0819 -0.3442  1.2488
 6009TIP3    H239663   5.466   2.173   0.964  1.0068 -2.3794  0.3807
 6010TIP3   OH239664   2.752   2.992   0.965 -0.2625 -0.6318 -0.6149
 6010TIP3    H139665   2.816   3.037   0.910 -0.1110 -2.3012 -1.8691
 6010TIP3    H239666   2.667   3.014   0.926 -0.7176  2.4894  1.6876
 6011TIP3   OH239667   1.006   0.554   1.233 -0.4525  0.3311  0.6074
 6011TIP3    H139668   1.098   0.531   1.222  0.1149  1.9825  1.4834
 6011TIP3    H239669   0.980   0.593   1.150  0.4512  2.2687  1.1774
 6012TIP3   OH239670   4.120   3.632   7.753 -0.4592  0.5091 -0.8658
 6012TIP3    H139671   4.122   3.728   7.762  1.4888  0.5489 -1.3752
 6012TIP3    H239672   4.082   3.617   7.666 -0.0776  0.8558 -1.0963
 6013TIP3   OH239673   3.707   1.654   2.000  0.0401  0.3966 -0.1641
 6013TIP3    H139674   3.751   1.639   2.084  1.1091  0.8406 -0.6205
 6013TIP3    H239675   3.768   1.619   1.935 -1.6277 -1.7236 -0.6816
 6014TIP3   OH239676   4.716   3.991   8.634  0.5704 -0.1671 -0.0775
 6014TIP3    H139677   4.684   4.076   8.603  0.8534  0.1950  0.6153
 6014TIP3    H239678   4.732   3.942   8.553  0.3066  0.3959 -0.4840
 6015TIP3   OH239679   0.194   5.662   1.966 -0.5963 -0.4663  0.3958
 6015TIP3    H139680   0.134   5.595   2.000 -1.0872  0.0125  0.4870
 6015TIP3    H239681   0.174   5.666   1.873  0.3690 -1.3898  0.1306
 6016TIP3   OH239682   4.612   0.516   7.052 -0.2327 -0.2642 -0.1151
 6016TIP3    H139683   4.702   0.511   7.085  0.9878 -2.1878 -3.3251
 6016TIP3    H239684   4.559   0.532   7.130  2.7868  0.3015  1.9996
 6017TIP3   OH239685   1.682   5.935   8.459  0.8747  0.0151 -0.1994
 6017TIP3    H139686   1.597   5.943   8.501  1.1311 -1.8868  0.7905
 6017TIP3    H239687   1.675   5.989   8.380 -0.1051  2.5474  1.4845
 6018TIP3   OH239688   1.984   2.729   0.348 -0.2552 -0.4456  0.2896
 6018TIP3    H139689   2.005   2.643   0.386 -0.7739 -0.5764  0.2857
 6018TIP3    H239690   1.953   2.709   0.260  1.6860 -0.0903 -0.5296
 6019TIP3   OH239691   4.679   4.772   7.887 -0.2028  0.2723  0.0679
 6019TIP3    H139692   4.725   4.800   7.966  0.6032  0.3020 -0.4020
 6019TIP3    H239693   4.733   4.805   7.815 -0.9742  0.3281 -0.4955
 6020TIP3   OH239694   2.765   2.040   2.231 -0.4230  0.4874 -0.3453
 6020TIP3    H139695   2.711   2.073   2.303 -0.9080 -0.4112 -0.2830
 6020TIP3    H239696   2.820   2.115   2.207 -0.7606  1.0220  0.4705
 6021TIP3   OH239697   6.794   3.566   8.346 -0.0574  0.0357 -0.2207
 6021TIP3    H139698   6.874   3.564   8.400  0.0016 -0.7845 -0.3226
 6021TIP3    H239699   6.824   3.543   8.258 -0.1419  1.4558 -0.6451
 6022TIP3   OH239700   5.165   4.636   0.912  0.3631 -0.0853 -0.5702
 6022TIP3    H139701   5.090   4.594   0.953 -0.9401  3.6307  1.3104
 6022TIP3    H239702   5.241   4.597   0.956 -0.7664 -0.2113  1.3848
 6023TIP3   OH239703   4.983   0.278   0.231  0.8111  0.0601  0.0095
 6023TIP3    H139704   4.958   0.347   0.292 -0.0560 -0.6078  0.4377
 6023TIP3    H239705   4.999   0.201   0.286 -0.3472 -0.6506 -0.5897
 6024TIP3   OH239706   3.696   3.407   0.627  0.5728 -0.1023 -0.1997
 6024TIP3    H139707   3.717   3.471   0.559 -1.5952  2.3707  1.2611
 6024TIP3    H239708   3.765   3.418   0.693  0.4416  0.4566 -0.1498
 6025TIP3   OH239709   3.830   6.214   7.365  0.1050 -0.4333 -0.5142
 6025TIP3    H139710   3.737   6.196   7.378 -0.1494  1.2941  0.4025
 6025TIP3    H239711   3.872   6.128   7.364 -1.4232 -1.2027 -0.2784
 6026TIP3   OH239712   0.560   5.833   1.467  0.4367 -0.2058 -0.1553
 6026TIP3    H139713   0.599   5.859   1.551  1.3018 -1.3816 -0.1610
 6026TIP3    H239714   0.478   5.790   1.491  1.0990 -1.3210  0.1747
 6027TIP3   OH239715   0.205   3.290   0.636  0.4174  0.5529 -0.4254
 6027TIP3    H139716   0.241   3.294   0.547 -0.9852 -0.0716 -1.0440
 6027TIP3    H239717   0.114   3.317   0.626  0.6589  2.1457  1.1228
 6028TIP3   OH239718   1.776   6.840   0.271 -0.4148  0.0835 -0.2177
 6028TIP3    H139719   1.767   6.782   0.195 -1.9330  1.1432 -0.9034
 6028TIP3    H239720   1.719   6.800   0.337  0.5637 -0.5960  0.2396
 6029TIP3   OH239721   5.880   2.509   0.087  0.0150 -0.6335  0.3007
 6029TIP3    H139722   5.790   2.535   0.108  0.3588  2.0160 -1.0926
 6029TIP3    H239723   5.871   2.456   0.008 -0.3744 -1.3029  0.7787
 6030TIP3   OH239724   6.257   6.864   1.816 -0.0349  0.5887  0.1640
 6030TIP3    H139725   6.309   6.814   1.880  0.5783  0.7185 -0.2235
 6030TIP3    H239726   6.193   6.911   1.869  0.8731  1.1912  0.7590
 6031TIP3   OH239727   6.806   1.937   7.291  0.0878 -0.3776  0.2670
 6031TIP3    H139728   6.782   2.029   7.296  1.6977  0.1804 -1.0194
 6031TIP3    H239729   6.725   1.891   7.269 -0.5323  0.8834 -0.1330
 6032TIP3   OH239730   3.014   0.193   1.330 -0.2488  0.9804 -0.0010
 6032TIP3    H139731   2.944   0.227   1.275 -0.5761 -0.4933 -0.5475
 6032TIP3    H239732   2.970   0.164   1.410 -0.2819  0.0737 -0.3350
 6033TIP3   OH239733   2.514   0.484   8.654  0.0733 -0.1521  0.4655
 6033TIP3    H139734   2.531   0.571   8.691  1.5150 -0.9538  1.8102
 6033TIP3    H239735   2.460   0.440   8.720  0.2271 -0.6213  0.2824
 6034TIP3   OH239736   1.038   5.750   1.762  0.1436  0.0519 -0.0964
 6034TIP3    H139737   1.063   5.658   1.755 -1.2190 -0.4574  1.2678
 6034TIP3    H239738   1.118   5.794   1.792  0.6107 -0.7846 -0.0733
 6035TIP3   OH239739   4.742   5.722   0.374 -0.3410  0.4449 -0.6271
 6035TIP3    H139740   4.815   5.661   0.371 -1.4124 -1.2958  2.9571
 6035TIP3    H239741   4.702   5.717   0.287  2.1695 -0.5679 -1.8027
 6036TIP3   OH239742   6.747   5.844   1.853  0.2043 -0.1643  0.2792
 6036TIP3    H139743   6.731   5.749   1.856 -1.4965  0.0466 -0.6521
 6036TIP3    H239744   6.760   5.869   1.945  2.6564 -1.5511  0.3918
 6037TIP3   OH239745   2.450   4.713   7.323  0.0812  0.2061  0.1928
 6037TIP3    H139746   2.422   4.649   7.388 -1.2609  0.8265  0.2609
 6037TIP3    H239747   2.408   4.684   7.242 -1.2318  1.4117  0.3963
 6038TIP3   OH239748   5.318   5.918   0.681 -0.3478  0.0317  0.0597
 6038TIP3    H139749   5.329   6.006   0.644 -0.5895 -0.5610 -1.5051
 6038TIP3    H239750   5.266   5.871   0.616  2.2065 -2.1276 -0.5958
 6039TIP3   OH239751   1.486   3.159   8.245  0.0694 -0.2779  0.1542
 6039TIP3    H139752   1.414   3.106   8.279 -0.9456  0.9950  0.0722
 6039TIP3    H239753   1.478   3.153   8.150  1.2208 -1.6083  0.1118
 6040TIP3   OH239754   1.159   5.185   6.916  0.1355 -0.5644  0.0829
 6040TIP3    H139755   1.081   5.238   6.931 -0.2676 -1.0641 -0.2037
 6040TIP3    H239756   1.132   5.096   6.937  0.9226 -0.6087  0.9820
 6041TIP3   OH239757   3.968   4.346   8.268 -0.4564  0.2871  0.0947
 6041TIP3    H139758   3.973   4.417   8.333  2.2350  1.5809 -1.3636
 6041TIP3    H239759   4.018   4.274   8.307 -1.6565 -0.1950  0.8012
 6042TIP3   OH239760   5.883   5.403   0.146 -0.3983  0.2899 -0.0526
 6042TIP3    H139761   5.814   5.458   0.109  0.4096  1.3042 -0.0960
 6042TIP3    H239762   5.895   5.436   0.235  0.6384  0.7369 -0.3396
 6043TIP3   OH239763   6.137   4.804   0.589 -0.4775  0.2507 -0.5816
 6043TIP3    H139764   6.089   4.848   0.518 -1.9978  1.1476  0.9094
 6043TIP3    H239765   6.160   4.875   0.649 -1.3327 -0.7465  0.9766
 6044TIP3   OH239766   4.358   5.492   8.630  0.2877 -0.0772  0.2959
 6044TIP3    H139767   4.321   5.446   8.554 -0.9856  3.4660 -1.4477
 6044TIP3    H239768   4.447   5.459   8.637 -0.5300 -2.8067 -0.6842
 6045TIP3   OH239769   6.735   0.820   0.427  0.7803 -0.1717 -0.6270
 6045TIP3    H139770   6.696   0.759   0.365  1.4850  0.0524 -1.3028
 6045TIP3    H239771   6.736   0.904   0.381 -0.5787  0.4613  0.4527
 6046TIP3   OH239772   6.608   0.181   0.103 -0.0211 -0.4993 -0.2528
 6046TIP3    H139773   6.693   0.137   0.093 -0.3034 -1.3513  0.8858
 6046TIP3    H239774   6.588   0.174   0.196 -1.5482 -0.6849 -0.5676
 6047TIP3   OH239775   2.629   0.867   2.696 -0.1354 -0.3270 -0.1071
 6047TIP3    H139776   2.542   0.847   2.731 -1.0149  1.7650 -0.8942
 6047TIP3    H239777   2.673   0.915   2.767 -0.9550  1.6365 -0.8649
 6048TIP3   OH239778   0.453   2.864   8.236 -0.1713  0.1602  0.5194
 6048TIP3    H139779   0.366   2.868   8.197 -0.9657  1.5021  2.2542
 6048TIP3    H239780   0.475   2.771   8.237 -2.0520 -0.3284  0.9597
 6049TIP3   OH239781   2.492   4.234   7.259 -0.2274  0.9414  0.5320
 6049TIP3    H139782   2.535   4.312   7.224  0.9596  0.3968  0.7481
 6049TIP3    H239783   2.522   4.227   7.349 -0.0560  0.0604  0.4203
 6050TIP3   OH239784   4.293   4.185   0.091 -0.1632 -0.3583 -0.0327
 6050TIP3    H139785   4.203   4.166   0.061  0.6550 -3.6419 -0.8395
 6050TIP3    H239786   4.330   4.240   0.022 -0.9289 -0.7096 -0.7395
 6051TIP3   OH239787   1.947   4.523   0.621 -0.0582 -0.1665 -0.0354
 6051TIP3    H139788   1.867   4.573   0.609  0.7464  1.3420  0.5423
 6051TIP3    H239789   1.958   4.474   0.540 -0.4024  1.3276 -1.0209
 6052TIP3   OH239790   6.379   0.606   7.028 -0.1282 -0.0582  0.0381
 6052TIP3    H139791   6.403   0.595   7.120 -0.0052  1.8367  0.2808
 6052TIP3    H239792   6.459   0.637   6.985 -0.3134 -0.4483 -0.6081
 6053TIP3   OH239793   2.377   5.453   0.464  0.5195 -0.3678  0.3493
 6053TIP3    H139794   2.376   5.548   0.478 -0.9433 -0.4288  0.8739
 6053TIP3    H239795   2.285   5.430   0.451  0.9215 -1.6392 -0.3984
 6054TIP3   OH239796   0.581   1.034   7.044  0.0754  0.6118 -0.3520
 6054TIP3    H139797   0.589   0.975   7.119 -0.7745 -0.4998 -1.1070
 6054TIP3    H239798   0.516   0.993   6.988  1.2955  0.9718 -2.1219
 6055TIP3   OH239799   2.027   0.167   0.686 -0.1509  0.2003 -0.6942
 6055TIP3    H139800   1.997   0.084   0.723  0.5309 -0.5886 -1.8846
 6055TIP3    H239801   1.988   0.233   0.743 -0.2413 -0.9380  0.6214
 6056TIP3   OH239802   5.820   6.231   7.312 -0.2101  0.3105  0.6210
 6056TIP3    H139803   5.768   6.219   7.232  0.5038  1.3040 -0.0303
 6056TIP3    H239804   5.842   6.142   7.340 -2.7653 -0.1897  1.3146
 6057TIP3   OH239805   5.873   5.973   7.783 -0.3992  0.3645 -0.0632
 6057TIP3    H139806   5.899   6.065   7.781  0.7100  0.0524 -1.4450
 6057TIP3    H239807   5.933   5.929   7.723 -0.0628 -1.5037  1.5046
 6058TIP3   OH239808   5.456   6.077   0.296  0.6794  0.1346  0.0010
 6058TIP3    H139809   5.536   6.083   0.349  1.1993 -1.1557 -0.6050
 6058TIP3    H239810   5.390   6.125   0.347  0.7670 -2.2226  2.5637
 6059TIP3   OH239811   5.564   5.449   7.686 -0.0062 -0.3992  0.0793
 6059TIP3    H139812   5.555   5.359   7.654 -2.1675  0.1420 -1.0077
 6059TIP3    H239813   5.474   5.480   7.696  0.5924  0.6120  3.6537
 6060TIP3   OH239814   4.776   6.011   8.506 -0.1086 -0.1138  0.3826
 6060TIP3    H139815   4.688   6.013   8.469 -0.1808 -1.0509  0.4743
 6060TIP3    H239816   4.797   5.917   8.511 -0.0502 -0.0369  2.5574
 6061TIP3   OH239817   0.312   5.903   1.623 -0.2814 -0.2465 -0.0683
 6061TIP3    H139818   0.238   5.841   1.626  0.4486 -1.1346  2.0878
 6061TIP3    H239819   0.329   5.924   1.715  0.7858  1.6508 -0.6446
 6062TIP3   OH239820   0.927   2.165   8.609  0.1222  0.0218 -0.1421
 6062TIP3    H139821   0.988   2.099   8.576 -0.2815 -0.5030  0.1425
 6062TIP3    H239822   0.908   2.137   8.699 -1.0798 -0.2122 -0.4615
 6063TIP3   OH239823   2.344   6.429   0.471 -0.0956  0.1861  0.2903
 6063TIP3    H139824   2.321   6.460   0.383  3.8674 -0.6946 -1.2452
 6063TIP3    H239825   2.357   6.335   0.460  2.6871  0.3864  1.1506
 6064TIP3   OH239826   2.605   5.390   7.140  0.1447  0.0002  0.4560
 6064TIP3    H139827   2.592   5.425   7.228  0.6945  3.4070 -0.6530
 6064TIP3    H239828   2.591   5.296   7.148  0.9138  0.0897  4.2894
 6065TIP3   OH239829   4.701   6.269   8.170 -0.2451  0.1630  0.1834
 6065TIP3    H139830   4.656   6.185   8.171 -1.7199  0.8129 -2.4030
 6065TIP3    H239831   4.736   6.277   8.082 -1.8905  3.0825 -0.3176
 6066TIP3   OH239832   1.990   6.196   0.016  0.9162 -0.0641 -0.2297
 6066TIP3    H139833   1.981   6.107  -0.018 -1.1944 -0.1515  0.4011
 6066TIP3    H239834   1.933   6.198   0.093  3.0499  1.0531  1.4516
 6067TIP3   OH239835   6.147   0.915   0.233 -0.1862  0.0839 -0.3190
 6067TIP3    H139836   6.074   0.975   0.221 -0.8087 -0.7786 -0.9583
 6067TIP3    H239837   6.134   0.877   0.320  0.3515  1.0512  0.1913
 6068TIP3   OH239838   0.431   3.027   2.657 -0.7687  0.0572 -0.1141
 6068TIP3    H139839   0.459   3.118   2.669 -0.2110 -0.0162 -0.8285
 6068TIP3    H239840   0.354   3.019   2.714 -0.1982  0.6662  0.7769
 6069TIP3   OH239841   2.729   4.428   8.654 -0.0728  0.3106 -0.6267
 6069TIP3    H139842   2.805   4.442   8.709 -0.7591  0.7094  0.2526
 6069TIP3    H239843   2.689   4.347   8.687 -0.7317  0.7846 -0.2207
 6070TIP3   OH239844   3.377   4.926   8.721 -0.5251  0.0370  0.9105
 6070TIP3    H139845   3.445   4.993   8.718 -0.3560 -0.0154  2.4298
 6070TIP3    H239846   3.425   4.844   8.729 -0.7499 -0.1694  0.1941
 6071TIP3   OH239847   2.969   4.588   7.883  0.3814 -0.4748  0.0027
 6071TIP3    H139848   3.044   4.606   7.940  0.2386  0.3399 -0.0576
 6071TIP3    H239849   3.007   4.545   7.806  1.0064  1.1584 -0.6634
 6072TIP3   OH239850   1.392   0.288   7.540 -0.5195  0.6942  0.0722
 6072TIP3    H139851   1.384   0.227   7.613  1.3559 -1.3690 -1.3421
 6072TIP3    H239852   1.371   0.374   7.579 -2.2031 -0.6300  2.3606
 6073TIP3   OH239853   0.190   0.053   8.149 -0.3366  0.0559  0.3781
 6073TIP3    H139854   0.271   0.013   8.117 -0.1934  1.0426 -0.5147
 6073TIP3    H239855   0.200   0.053   8.245  0.1506 -0.9816  0.3489
 6074TIP3   OH239856   1.062   2.310   0.982 -0.3417 -0.2341 -0.1501
 6074TIP3    H139857   1.062   2.215   0.974 -1.2413 -0.2874  0.2930
 6074TIP3    H239858   1.052   2.342   0.892  1.0349 -0.5205 -0.4189
 6075TIP3   OH239859   2.804   0.079   6.585 -0.3909 -0.2379 -0.1066
 6075TIP3    H139860   2.877   0.083   6.524  1.0477 -2.7429  1.3140
 6075TIP3    H239861   2.794   0.169   6.617  3.2428 -0.0488  0.9211
 6076TIP3   OH239862   5.422   3.626   8.323 -0.3738 -0.2926 -0.1328
 6076TIP3    H139863   5.429   3.556   8.258 -2.3377 -1.2617  0.6029
 6076TIP3    H239864   5.342   3.605   8.372  0.6202  0.8122  2.1128
 6077TIP3   OH239865   3.561   3.199   6.943  0.3688  0.1374  0.1315
 6077TIP3    H139866   3.466   3.186   6.936  0.2641  0.5817  0.7324
 6077TIP3    H239867   3.595   3.164   6.860 -0.2047 -1.1045  0.3856
 6078TIP3   OH239868   5.968   3.830   6.783  0.2693 -0.3966 -0.3044
 6078TIP3    H139869   5.898   3.766   6.770  0.7920 -1.6739  2.4678
 6078TIP3    H239870   5.925   3.904   6.825  0.3357 -0.6258  0.1745
 6079TIP3   OH239871   3.818   3.975   8.696 -0.0430 -0.2625 -0.8600
 6079TIP3    H139872   3.845   3.938   8.611  1.1466 -0.3292 -0.4696
 6079TIP3    H239873   3.722   3.970   8.694  0.0106 -2.3901 -1.2674
 6080TIP3   OH239874   1.064   2.430   2.112 -0.6714  0.1831 -0.1204
 6080TIP3    H139875   1.148   2.401   2.076 -0.8404 -2.4240  1.3394
 6080TIP3    H239876   1.088   2.498   2.176  0.4709 -1.1053  0.8755
 6081TIP3   OH239877   2.679   6.479   0.965  0.8095  0.2343  0.3733
 6081TIP3    H139878   2.611   6.543   0.941  0.2121 -0.3867  0.3672
 6081TIP3    H239879   2.715   6.451   0.881  0.7160  0.1914  0.3465
 6082TIP3   OH239880   3.955   1.077   8.347 -0.2287  0.3319  0.0193
 6082TIP3    H139881   3.905   1.157   8.364  0.3122  0.5200  0.7581
 6082TIP3    H239882   4.046   1.106   8.343 -0.0367 -0.2374  0.2200
 6083TIP3   OH239883   5.079   4.225   7.924 -0.0745 -0.0042  0.4495
 6083TIP3    H139884   5.128   4.144   7.939 -0.4705 -0.3782 -0.2321
 6083TIP3    H239885   5.118   4.288   7.985  1.3450 -0.2583 -0.1595
 6084TIP3   OH239886   4.542   3.243   8.360  0.2125 -0.3099 -0.1129
 6084TIP3    H139887   4.493   3.208   8.287  0.6180 -2.2148  0.4693
 6084TIP3    H239888   4.553   3.336   8.340 -3.2898  0.1636 -0.4194
 6085TIP3   OH239889   1.551   2.904   0.861 -0.6133 -0.1851 -0.3634
 6085TIP3    H139890   1.587   2.947   0.784 -1.3479  2.9642  0.9039
 6085TIP3    H239891   1.557   2.969   0.931 -1.6369 -2.2590  1.8296
 6086TIP3   OH239892   4.643   0.911   7.593 -0.7990  0.1001 -0.1066
 6086TIP3    H139893   4.662   0.953   7.509 -0.5176 -0.5785 -0.3950
 6086TIP3    H239894   4.716   0.850   7.606 -2.5339 -2.3340 -1.0714
 6087TIP3   OH239895   0.782   2.378   1.506 -0.3995 -0.1185  0.2462
 6087TIP3    H139896   0.800   2.471   1.514 -0.7010 -0.1334  1.1747
 6087TIP3    H239897   0.831   2.351   1.428  0.3887  0.6256  0.4708
 6088TIP3   OH239898   1.242   4.695   7.092  0.2117 -0.5590 -0.0558
 6088TIP3    H139899   1.265   4.665   7.004 -0.8862 -1.0074 -0.2050
 6088TIP3    H239900   1.250   4.790   7.088 -0.4450 -0.5324 -0.8235
 6089TIP3   OH239901   5.167   6.784   0.058  0.6763  0.0649 -0.1880
 6089TIP3    H139902   5.144   6.796  -0.034 -2.2811  0.4684  0.5153
 6089TIP3    H239903   5.225   6.707   0.058 -1.6079 -1.8260 -2.1406
 6090TIP3   OH239904   2.745   0.325   2.457  0.5271 -0.0119  0.2582
 6090TIP3    H139905   2.794   0.382   2.397 -1.3528  0.2302 -1.1208
 6090TIP3    H239906   2.738   0.242   2.410  0.4466 -0.3519  0.8678
 6091TIP3   OH239907   6.543   3.954   7.401  0.0225  0.1386  0.1455
 6091TIP3    H139908   6.515   4.039   7.435 -2.1856 -0.6605  0.5284
 6091TIP3    H239909   6.585   3.911   7.475 -2.0361 -0.4127  1.0665
 6092TIP3   OH239910   0.519   2.991   7.919 -0.2198 -0.0973  0.1034
 6092TIP3    H139911   0.459   3.065   7.932 -0.1398  0.0647 -0.4154
 6092TIP3    H239912   0.540   2.994   7.825  1.5794  0.6142  0.4831
 6093TIP3   OH239913   1.855   1.543   0.267 -0.1133  0.3953  0.3063
 6093TIP3    H139914   1.900   1.620   0.232  0.5402 -0.0922  0.0520
 6093TIP3    H239915   1.775   1.578   0.306 -0.3505  1.0766 -0.7450
 6094TIP3   OH239916   4.507   3.726   1.785 -0.2237 -0.1385  1.2075
 6094TIP3    H139917   4.598   3.719   1.754 -0.3485 -0.5801  0.9304
 6094TIP3    H239918   4.487   3.819   1.779 -0.7358 -0.3455 -1.5300
 6095TIP3   OH239919   1.074   4.226   1.711  0.1862 -0.3453  0.1999
 6095TIP3    H139920   0.982   4.207   1.692  0.0198  0.0378  0.6291
 6095TIP3    H239921   1.094   4.304   1.660  0.9888 -1.8255 -1.8958
 6096TIP3   OH239922   6.431   2.209   1.398 -0.1242 -0.2068 -0.2402
 6096TIP3    H139923   6.377   2.131   1.385  2.5841 -2.1898 -0.4983
 6096TIP3    H239924   6.432   2.251   1.312 -1.9533  0.4267  0.0045
 6097TIP3   OH239925   2.975   3.173   8.023 -0.2802 -0.0423  0.3412
 6097TIP3    H139926   2.917   3.096   8.030 -1.0007  0.5172  0.7151
 6097TIP3    H239927   2.960   3.206   7.934  1.0669 -1.1149 -0.3200
 6098TIP3   OH239928   0.699   1.378   1.704 -0.6514 -0.1358 -0.8418
 6098TIP3    H139929   0.790   1.378   1.673  0.0169 -0.5490  0.9576
 6098TIP3    H239930   0.679   1.471   1.718 -1.1125  0.0927 -2.7851
 6099TIP3   OH239931   2.073   3.010   1.605 -0.4446  0.4454  0.1319
 6099TIP3    H139932   2.095   2.926   1.647 -1.1792  0.6669  1.0040
 6099TIP3    H239933   2.132   3.015   1.530  1.8772  0.6310  1.8631
 6100TIP3   OH239934   6.564   6.636   1.327  0.1397 -0.2026 -0.4965
 6100TIP3    H139935   6.594   6.725   1.342  1.1571 -0.5746 -0.2240
 6100TIP3    H239936   6.567   6.625   1.232 -2.4543  0.8582 -0.7725
 6101TIP3   OH239937   1.063   6.452   6.890 -0.1508  0.5242 -0.4737
 6101TIP3    H139938   1.081   6.545   6.879 -1.7470  0.8195 -0.8258
 6101TIP3    H239939   1.144   6.416   6.925 -0.1731  2.4267  1.7940
 6102TIP3   OH239940   1.218   5.572   2.493 -0.0498 -0.1925  0.5764
 6102TIP3    H139941   1.204   5.478   2.500 -1.3739  0.0211  1.2975
 6102TIP3    H239942   1.197   5.606   2.580 -0.2590  0.8303  0.1492
 6103TIP3   OH239943   0.192   2.275   2.023 -0.0491  0.5006 -0.2578
 6103TIP3    H139944   0.242   2.290   2.104 -0.0803  1.8276 -0.4629
 6103TIP3    H239945   0.191   2.361   1.980  2.0498 -0.6693 -2.8738
 6104TIP3   OH239946   0.839   6.015   0.885  0.2278 -0.6612  0.0668
 6104TIP3    H139947   0.883   5.998   0.801  0.8112  1.1379 -0.0335
 6104TIP3    H239948   0.826   6.110   0.886 -0.4430 -0.7474  1.6965
 6105TIP3   OH239949   0.761   4.476   1.381 -0.6741 -0.5294  0.9862
 6105TIP3    H139950   0.822   4.402   1.378 -1.0778 -0.8393 -0.1537
 6105TIP3    H239951   0.811   4.549   1.344 -0.3715 -0.2838  1.8469
 6106TIP3   OH239952   3.767   2.952   1.248  0.2656 -0.2845 -0.0731
 6106TIP3    H139953   3.832   2.882   1.246  1.5464  0.8724 -0.3352
 6106TIP3    H239954   3.685   2.910   1.219  1.2838 -1.3581 -1.5428
 6107TIP3   OH239955   3.596   4.676   0.671  0.0438  0.0599  0.4193
 6107TIP3    H139956   3.687   4.646   0.673  1.5666  4.0125 -0.3337
 6107TIP3    H239957   3.587   4.730   0.749 -1.7127 -0.2927  0.4922
 6108TIP3   OH239958   6.759   2.600   0.217 -0.5627  0.3241 -0.3249
 6108TIP3    H139959   6.762   2.510   0.184 -1.3291 -0.5442  1.8006
 6108TIP3    H239960   6.672   2.632   0.192  0.4030  1.2591 -2.8100
 6109TIP3   OH239961   6.189   5.448   6.644 -1.0365  0.1111  0.2066
 6109TIP3    H139962   6.272   5.484   6.613 -0.7505 -0.3159  0.4523
 6109TIP3    H239963   6.161   5.388   6.575 -1.3393  0.5400 -0.0489
 6110TIP3   OH239964   3.801   3.589   8.534 -0.2437 -0.8435  0.3729
 6110TIP3    H139965   3.706   3.591   8.523 -0.3210 -3.2110  0.0264
 6110TIP3    H239966   3.835   3.579   8.445  0.3336 -0.2056  0.5139
 6111TIP3   OH239967   4.990   5.825   7.268 -0.0114 -0.3480  0.6195
 6111TIP3    H139968   4.988   5.776   7.186  5.6307 -0.3061  0.0853
 6111TIP3    H239969   4.976   5.759   7.336  1.4526 -1.6114 -0.2501
 6112TIP3   OH239970   3.902   3.532   8.291 -0.1359  0.2721 -0.1865
 6112TIP3    H139971   3.994   3.558   8.296 -0.2097  0.3239  1.8823
 6112TIP3    H239972   3.904   3.436   8.297 -0.2081  0.2743 -0.1218
 6113TIP3   OH239973   2.666   4.909   8.358 -0.3314  0.6690 -0.6719
 6113TIP3    H139974   2.736   4.970   8.333  0.1489  0.0284 -0.9105
 6113TIP3    H239975   2.691   4.826   8.318 -0.0995 -0.1192  1.0223
 6114TIP3   OH239976   5.517   4.859   1.644 -0.1342  0.5453 -0.1289
 6114TIP3    H139977   5.486   4.884   1.732  0.3386  0.7792 -0.0222
 6114TIP3    H239978   5.439   4.862   1.589 -0.7515 -1.1704  0.5970
 6115TIP3   OH239979   4.569   1.381   1.282  0.2238 -0.0523  0.1194
 6115TIP3    H139980   4.516   1.308   1.314  0.2193  0.0659  0.3825
 6115TIP3    H239981   4.644   1.385   1.342  0.0360  0.3918  0.3309
 6116TIP3   OH239982   2.108   5.231   1.103  0.1105  0.1910  0.3966
 6116TIP3    H139983   2.035   5.260   1.047 -0.8488  0.9571  1.9703
 6116TIP3    H239984   2.114   5.298   1.171 -1.1854 -2.4126  3.3060
 6117TIP3   OH239985   0.561   3.419   0.649 -0.1962  0.2385 -0.0842
 6117TIP3    H139986   0.614   3.483   0.698 -0.2249 -0.7446  1.2890
 6117TIP3    H239987   0.585   3.433   0.557  1.7376  0.4685  0.4162
 6118TIP3   OH239988   3.290   1.573   7.492 -0.1549 -0.1310 -0.4574
 6118TIP3    H139989   3.246   1.656   7.510 -4.5727 -1.9331 -1.5191
 6118TIP3    H239990   3.383   1.595   7.488 -1.1266  5.0312 -2.2817
 6119TIP3   OH239991   5.385   2.625   7.867 -0.0296 -0.1725  0.4240
 6119TIP3    H139992   5.416   2.632   7.957  2.9094 -0.3672 -0.4815
 6119TIP3    H239993   5.464   2.624   7.814 -1.6559  3.2525 -2.5014
 6120TIP3   OH239994   2.416   5.559   8.774  0.0176  0.3787  0.0615
 6120TIP3    H139995   2.413   5.511   8.857 -3.1905  0.5479  0.1704
 6120TIP3    H239996   2.419   5.492   8.707  0.2265  0.1818  0.2654
 6121TIP3   OH239997   1.506   5.538   0.292  0.6639  0.2330 -0.4077
 6121TIP3    H139998   1.415   5.568   0.289  0.2235 -1.0536 -0.3566
 6121TIP3    H239999   1.537   5.564   0.379  0.7188  1.6641 -0.8321
 6122TIP3   OH240000   6.039   3.112   7.252  0.3542 -0.4256 -0.5082
 6122TIP3    H140001   6.062   3.190   7.303  0.4046 -0.7433 -0.0459
 6122TIP3    H240002   5.984   3.146   7.181  0.4775  0.0475 -0.3828
 6123TIP3   OH240003   3.865   5.072   6.643  0.6313  0.2670 -0.6113
 6123TIP3    H140004   3.772   5.060   6.625  0.2843  1.5346  0.2016
 6123TIP3    H240005   3.903   5.097   6.558  0.4059 -1.0331 -1.1205
 6124TIP3   OH240006   2.250   2.386   0.411 -0.1564 -0.6546 -0.2327
 6124TIP3    H140007   2.191   2.418   0.479 -0.7333  2.0219 -1.8441
 6124TIP3    H240008   2.336   2.383   0.453 -0.5913  0.4270  0.7842
 6125TIP3   OH240009   0.797   0.112   0.007  0.4498  0.5920  0.0290
 6125TIP3    H140010   0.835   0.152   0.085  0.4494  0.8201 -0.0854
 6125TIP3    H240011   0.829   0.022   0.008  0.5745  0.6370  0.2095
 6126TIP3   OH240012   5.292   0.600   7.105 -0.8033 -0.1043  0.0725
 6126TIP3    H140013   5.265   0.520   7.061  1.0689 -0.1806 -1.0601
 6126TIP3    H240014   5.324   0.571   7.191 -2.0219 -0.2819  0.4874
 6127TIP3   OH240015   3.275   2.252   1.932 -0.4092 -0.1012  0.2859
 6127TIP3    H140016   3.319   2.316   1.989 -1.1178  0.7309 -0.0664
 6127TIP3    H240017   3.264   2.175   1.987  0.4336  0.0832  0.7395
 6128TIP3   OH240018   4.699   3.906   0.791 -0.5926 -0.1317  0.2137
 6128TIP3    H140019   4.656   3.893   0.706 -1.3658 -0.4066  0.6393
 6128TIP3    H240020   4.752   3.985   0.778  1.2458 -1.5264 -1.2578
 6129TIP3   OH240021   4.161   4.342   2.359  0.4804  0.4981 -0.0303
 6129TIP3    H140022   4.202   4.286   2.425  0.2414  0.4401  0.0711
 6129TIP3    H240023   4.095   4.392   2.407  1.1757  1.3966  0.0160
 6130TIP3   OH240024   4.063   5.015   7.617  0.4092  0.2583  0.1189
 6130TIP3    H140025   3.986   5.047   7.663 -0.0147  0.7563 -0.8953
 6130TIP3    H240026   4.127   4.998   7.685  0.5153  2.9087  0.7520
 6131TIP3   OH240027   1.585   3.345   7.931 -0.1353  0.0297 -0.3530
 6131TIP3    H140028   1.576   3.407   8.004 -0.5667 -0.4685  0.0340
 6131TIP3    H240029   1.630   3.269   7.970  2.0004  0.7752 -1.2494
 6132TIP3   OH240030   3.892   2.469   0.069  0.1462  0.1122 -0.4285
 6132TIP3    H140031   3.915   2.502   0.156  0.5284 -2.8452  0.7098
 6132TIP3    H240032   3.799   2.448   0.076  0.1031  0.1698 -0.8402
 6133TIP3   OH240033   4.565   2.154   0.340 -0.5758 -0.2384 -0.8854
 6133TIP3    H140034   4.659   2.145   0.353 -0.7257  0.5056  1.0938
 6133TIP3    H240035   4.548   2.113   0.255  1.5518 -0.1634 -1.4064
 6134TIP3   OH240036   1.141   1.090   0.674 -0.0443 -0.2828 -0.0148
 6134TIP3    H140037   1.172   1.050   0.592 -3.2577  0.2622 -1.6236
 6134TIP3    H240038   1.100   1.018   0.722  1.9046 -0.6205  1.2844
 6135TIP3   OH240039   0.347   5.324   0.683 -0.2938  0.2616 -0.6970
 6135TIP3    H140040   0.388   5.237   0.689  0.6401  0.7690  1.1152
 6135TIP3    H240041   0.254   5.306   0.668 -0.0744 -1.0405 -0.6334
 6136TIP3   OH240042   0.166   4.992   7.708 -0.6152  0.2100 -0.1806
 6136TIP3    H140043   0.183   4.953   7.622  0.4285 -0.7892  0.4480
 6136TIP3    H240044   0.219   5.071   7.709  0.5761 -0.5553  0.0731
 6137TIP3   OH240045   3.794   1.317   1.321 -0.1437 -0.1265  0.1020
 6137TIP3    H140046   3.702   1.296   1.309  0.3350 -2.0642 -0.4003
 6137TIP3    H240047   3.821   1.355   1.238 -0.2729 -0.3715 -0.0509
 6138TIP3   OH240048   5.135   1.824   7.754  0.4643  0.2353 -0.6770
 6138TIP3    H140049   5.169   1.816   7.844 -1.2667  0.4047  0.0194
 6138TIP3    H240050   5.118   1.733   7.727  1.1476  0.1710 -0.9234
 6139TIP3   OH240051   5.680   0.481   1.633  0.3565 -1.0397  0.2835
 6139TIP3    H140052   5.722   0.563   1.659 -1.0853  0.1690 -0.9562
 6139TIP3    H240053   5.745   0.437   1.578  0.0263  0.9147 -1.8463
 6140TIP3   OH240054   3.872   1.616   8.602  0.4344 -0.4843 -0.4573
 6140TIP3    H140055   3.944   1.565   8.639  0.7986  1.1192  1.1809
 6140TIP3    H240056   3.800   1.605   8.665  0.7195  1.4349  0.2817
 6141TIP3   OH240057   5.944   0.006   8.376  0.0225  0.0037 -1.0025
 6141TIP3    H140058   6.040   0.003   8.384  0.0683 -1.1855 -1.7386
 6141TIP3    H240059   5.927  -0.017   8.285 -0.9742 -0.0790 -0.8020
 6142TIP3   OH240060   1.977   1.827   8.429 -0.4888  0.4013  0.0212
 6142TIP3    H140061   1.889   1.798   8.407 -1.0274  0.4857  1.9153
 6142TIP3    H240062   2.007   1.765   8.496  0.9467  0.3209 -0.6501
 6143TIP3   OH240063   4.450   5.318   2.116 -0.2396 -0.5441  0.7593
 6143TIP3    H140064   4.490   5.395   2.155  0.6836 -0.9565  0.6479
 6143TIP3    H240065   4.369   5.305   2.166 -1.4522  1.6425 -0.4855
 6144TIP3   OH240066   0.611   2.935   1.946 -0.0357  0.1377  0.0958
 6144TIP3    H140067   0.565   3.010   1.983 -0.9963 -0.8707  1.0049
 6144TIP3    H240068   0.628   2.877   2.020  1.0501 -0.3809 -0.5186
 6145TIP3   OH240069   2.258   1.645   1.890 -0.1645 -0.3985  0.5242
 6145TIP3    H140070   2.309   1.615   1.815  0.3117 -0.8278  1.0106
 6145TIP3    H240071   2.226   1.564   1.931 -0.3765 -0.1696  0.8131
 6146TIP3   OH240072   0.813   1.171   2.525 -0.1019 -0.6078 -0.8997
 6146TIP3    H140073   0.771   1.226   2.459  0.8798  0.9406 -0.3044
 6146TIP3    H240074   0.903   1.160   2.494  0.1884 -0.4120 -0.1612
 6147TIP3   OH240075   0.460   2.863   0.785 -0.2376 -0.0092  0.5072
 6147TIP3    H140076   0.515   2.892   0.857  0.1278  1.3124 -0.2652
 6147TIP3    H240077   0.392   2.930   0.778 -2.6584 -2.0810  2.0858
 6148TIP3   OH240078   0.844   5.361   0.615  0.0994 -0.1504  0.1523
 6148TIP3    H140079   0.840   5.265   0.618 -0.6986 -0.1861 -1.2067
 6148TIP3    H240080   0.762   5.390   0.655 -0.3935 -0.0914 -0.8747
 6149TIP3   OH240081   6.759   0.549   7.445  0.5191 -0.0409 -0.4744
 6149TIP3    H140082   6.778   0.460   7.476  2.3961  0.5388  0.2039
 6149TIP3    H240083   6.770   0.543   7.350 -0.6730 -0.8105 -0.5800
 6150TIP3   OH240084   4.318   6.019   6.948  0.6759 -0.0810  0.0259
 6150TIP3    H140085   4.228   6.051   6.939 -0.2182 -2.0161  1.5543
 6150TIP3    H240086   4.311   5.924   6.942  2.4281 -0.3547  1.4817
 6151TIP3   OH240087   3.617   2.707   8.502  0.1005  0.1909 -0.2222
 6151TIP3    H140088   3.634   2.800   8.514  2.4312 -0.1194 -0.7532
 6151TIP3    H240089   3.575   2.680   8.584 -0.5990  1.6766 -0.0590
 6152TIP3   OH240090   5.650   4.735   0.241 -0.4687  0.4264  0.3954
 6152TIP3    H140091   5.591   4.811   0.236 -1.4934 -0.3767 -0.0275
 6152TIP3    H240092   5.644   4.706   0.332 -0.3355  0.6506  0.4762
 6153TIP3   OH240093   3.307   2.480   6.582 -0.0925  0.0743 -0.0684
 6153TIP3    H140094   3.300   2.575   6.589 -0.0599 -0.0325  1.8421
 6153TIP3    H240095   3.266   2.447   6.661  0.5484 -1.4845 -0.3524
 6154TIP3   OH240096   4.505   5.817   0.946  0.2710 -0.2500  0.4677
 6154TIP3    H140097   4.419   5.845   0.976 -0.3640 -1.2061 -0.4275
 6154TIP3    H240098   4.543   5.896   0.905  0.3596  0.5180  1.9457
 6155TIP3   OH240099   1.117   1.383   0.583 -0.3707  0.1442  0.2789
 6155TIP3    H140100   1.132   1.297   0.623 -0.2004 -0.0554 -0.2066
 6155TIP3    H240101   1.048   1.423   0.636 -1.3995 -0.8366 -0.2858
 6156TIP3   OH240102   4.069   6.318   7.372 -0.0761  0.1778 -0.0934
 6156TIP3    H140103   3.986   6.288   7.407 -0.1294  2.9579  2.5485
 6156TIP3    H240104   4.046   6.371   7.296 -0.4755 -0.7623 -0.6510
 6157TIP3   OH240105   1.071   1.470   7.704 -0.2981  0.1634  0.3065
 6157TIP3    H140106   1.002   1.439   7.763 -1.3184  0.7719 -0.5434
 6157TIP3    H240107   1.125   1.392   7.687 -2.1621 -0.9425 -0.8878
 6158TIP3   OH240108   6.598   4.932   7.129  0.5959 -0.4516  0.1425
 6158TIP3    H140109   6.603   4.869   7.057  0.5666  0.8990 -1.0881
 6158TIP3    H240110   6.683   4.976   7.127 -0.0573  0.8232 -0.2412
 6159TIP3   OH240111   4.326   3.236   0.900 -0.0611 -0.3546 -0.0010
 6159TIP3    H140112   4.267   3.163   0.921 -1.4340  0.9708  1.0276
 6159TIP3    H240113   4.290   3.274   0.820  0.4411 -0.5708 -0.3348
 6160TIP3   OH240114   3.257   1.117   8.625 -0.0211  0.8421  0.2305
 6160TIP3    H140115   3.286   1.157   8.543  0.7635 -1.0162 -0.4542
 6160TIP3    H240116   3.293   1.173   8.694  1.8025  0.8469 -0.6810
 6161TIP3   OH240117   2.553   5.864   8.557 -0.0113 -0.0213  0.7340
 6161TIP3    H140118   2.578   5.827   8.642  0.5212 -1.0562  0.1446
 6161TIP3    H240119   2.620   5.833   8.496 -0.6460  0.3134 -0.1589
 6162TIP3   OH240120   2.781   2.525   7.861  0.0744 -0.2731  0.6354
 6162TIP3    H140121   2.699   2.554   7.821 -0.1987 -0.1223  1.2824
 6162TIP3    H240122   2.845   2.592   7.836 -0.2680  0.2290  1.0801
 6163TIP3   OH240123   1.271   2.969   1.191  0.1445  0.3739 -0.4737
 6163TIP3    H140124   1.346   2.919   1.222 -0.9807 -1.0052  0.1580
 6163TIP3    H240125   1.205   2.902   1.170 -0.6517  1.5025 -1.7256
 6164TIP3   OH240126   0.856   6.281   1.913  0.1677  0.0731 -1.0481
 6164TIP3    H140127   0.894   6.195   1.897  0.2392  0.0007 -0.5198
 6164TIP3    H240128   0.809   6.271   1.996  0.3707  0.6034 -0.8644
 6165TIP3   OH240129   4.086   6.792   1.556  0.1727  0.1207 -0.0388
 6165TIP3    H140130   4.138   6.872   1.563 -1.1639  0.8995  1.5625
 6165TIP3    H240131   4.008   6.809   1.609  0.2997 -2.6185  1.1874
 6166TIP3   OH240132   5.736   6.765   7.315  0.4241 -0.2556 -0.2733
 6166TIP3    H140133   5.786   6.684   7.322 -1.8526 -1.7460 -0.4113
 6166TIP3    H240134   5.704   6.766   7.225 -2.7342 -1.2669  0.7154
 6167TIP3   OH240135   1.223   5.068   0.329 -0.0865  0.5076  0.5112
 6167TIP3    H140136   1.264   4.987   0.299 -3.3045 -1.3159  0.5513
 6167TIP3    H240137   1.207   5.118   0.249 -0.2820 -0.0578  0.1910
 6168TIP3   OH240138   5.268   4.228   7.579  0.1320 -0.2887  0.0362
 6168TIP3    H140139   5.243   4.183   7.497 -0.8325 -0.2171  0.2720
 6168TIP3    H240140   5.331   4.294   7.552 -0.3717 -0.0941 -0.6992
 6169TIP3   OH240141   4.774   3.660   7.670 -0.3645  0.2626  0.2887
 6169TIP3    H140142   4.786   3.729   7.736 -1.6013  0.5324  0.2443
 6169TIP3    H240143   4.809   3.581   7.712 -2.9179 -0.0045  2.0995
 6170TIP3   OH240144   3.352   4.301   1.184 -0.4446 -0.1534 -0.0860
 6170TIP3    H140145   3.358   4.396   1.192 -1.5252  0.0365 -1.2657
 6170TIP3    H240146   3.299   4.286   1.106  0.7095 -1.7359 -0.6239
 6171TIP3   OH240147   0.578   1.647   1.751 -0.2141  0.3130 -0.3436
 6171TIP3    H140148   0.502   1.631   1.808 -0.5724  2.0575 -0.2623
 6171TIP3    H240149   0.644   1.685   1.809 -0.1809  1.0622 -0.8521
 6172TIP3   OH240150   5.104   4.514   8.012  0.6544 -0.0881 -0.0853
 6172TIP3    H140151   5.116   4.536   7.920 -1.1415 -1.3650 -0.6771
 6172TIP3    H240152   5.010   4.497   8.021  0.4237  1.8366  2.4225
 6173TIP3   OH240153   5.674   5.752   8.515 -0.8324 -0.2897 -0.1494
 6173TIP3    H140154   5.689   5.795   8.431 -0.8315 -0.9168 -0.4759
 6173TIP3    H240155   5.715   5.810   8.580  1.4577 -1.0472 -0.8270
 6174TIP3   OH240156   5.585   1.601   1.696  0.0412 -0.1459  0.0573
 6174TIP3    H140157   5.519   1.657   1.655 -1.2889 -1.5126  0.2437
 6174TIP3    H240158   5.558   1.595   1.788  1.0944  0.1887  0.4048
 6175TIP3   OH240159   6.830   1.320   1.125 -0.2297  0.2820 -0.1009
 6175TIP3    H140160   6.748   1.333   1.173 -0.4841 -0.5345 -0.2899
 6175TIP3    H240161   6.878   1.256   1.177 -0.0598  0.1627 -0.4052
 6176TIP3   OH240162   4.789   6.261   6.751  0.0387 -0.1089  0.2664
 6176TIP3    H140163   4.820   6.207   6.824 -0.2746  0.8511  1.1362
 6176TIP3    H240164   4.814   6.213   6.672 -0.8893 -1.9004  1.0037
 6177TIP3   OH240165   6.573   4.764   0.911  0.5120  0.3652 -0.4768
 6177TIP3    H140166   6.500   4.813   0.948  0.5428 -1.0975  1.7502
 6177TIP3    H240167   6.647   4.825   0.914  0.0671  0.8864  0.1623
 6178TIP3   OH240168   2.039   3.169   0.198  0.1635  0.0406 -0.0422
 6178TIP3    H140169   1.962   3.141   0.248 -2.5867  3.1299 -2.0849
 6178TIP3    H240170   2.089   3.224   0.259 -0.9356  0.4702  0.5007
 6179TIP3   OH240171   5.244   0.746   0.823  0.3354  0.5647  0.6140
 6179TIP3    H140172   5.302   0.700   0.763  0.1918 -0.5740  1.3187
 6179TIP3    H240173   5.156   0.729   0.789  0.2820  0.2862  0.8814
 6180TIP3   OH240174   6.710   0.455   8.435 -0.4448  0.6532  0.5519
 6180TIP3    H140175   6.731   0.373   8.480 -1.2256  0.3530  0.3809
 6180TIP3    H240176   6.640   0.432   8.374  1.4901  0.7187 -1.8645
 6181TIP3   OH240177   5.077   6.178   0.761 -0.0228 -0.7062  0.3729
 6181TIP3    H140178   5.042   6.257   0.801  0.9174  0.5551 -1.1963
 6181TIP3    H240179   5.153   6.156   0.814 -1.0336 -1.3640  1.6056
 6182TIP3   OH240180   0.684   2.493   0.127 -0.1343  0.5185  0.2982
 6182TIP3    H140181   0.677   2.440   0.047  2.1331  0.6977 -0.0743
 6182TIP3    H240182   0.639   2.440   0.194 -0.9435 -0.2286 -0.7927
 6183TIP3   OH240183   5.738   5.679   7.396  0.2267 -0.3055 -0.3508
 6183TIP3    H140184   5.779   5.610   7.448 -1.5354 -1.0690  0.0947
 6183TIP3    H240185   5.704   5.741   7.460  1.0316  0.5532 -0.7277
 6184TIP3   OH240186   5.115   1.901   0.347 -0.2889  0.2038 -0.2103
 6184TIP3    H140187   5.120   1.820   0.296  0.1274  0.3245 -0.3613
 6184TIP3    H240188   5.205   1.932   0.353 -0.2316 -0.1554  1.1679
 6185TIP3   OH240189   4.687   2.746   0.063 -0.1693 -0.0242  0.1734
 6185TIP3    H140190   4.710   2.823   0.115 -0.3467  1.2932 -1.5951
 6185TIP3    H240191   4.724   2.673   0.111 -0.1296  1.1273  2.0092
 6186TIP3   OH240192   1.298   1.502   7.133 -0.0795  0.3158  0.5077
 6186TIP3    H140193   1.221   1.481   7.079 -0.4469 -0.4187  1.2830
 6186TIP3    H240194   1.261   1.545   7.211 -0.0244 -2.2314  2.0635
 6187TIP3   OH240195   4.003   4.491   7.911  0.5897 -0.0415  0.2398
 6187TIP3    H140196   4.043   4.416   7.954  0.3824 -0.7767 -0.8345
 6187TIP3    H240197   4.038   4.490   7.822 -1.5319 -0.5047 -0.6386
 6188TIP3   OH240198   6.751   6.534   8.236  0.8695 -0.1566 -0.6472
 6188TIP3    H140199   6.835   6.540   8.281  1.1748  0.7892 -1.3103
 6188TIP3    H240200   6.690   6.583   8.293  0.7801 -0.7405 -0.2284
 6189TIP3   OH240201   4.055   5.331   1.357  1.5448 -0.1676 -0.2175
 6189TIP3    H140202   4.115   5.398   1.388 -0.1553  0.7066  1.3785
 6189TIP3    H240203   3.991   5.321   1.428 -0.4139 -0.7654 -1.9642
 6190TIP3   OH240204   1.761   4.945   6.513 -0.2885 -0.5752  0.3398
 6190TIP3    H140205   1.797   5.005   6.447 -1.7273  0.3570  0.3485
 6190TIP3    H240206   1.685   4.906   6.471 -1.5025  0.3711  1.5647
 6191TIP3   OH240207   0.061   5.372   8.365 -0.3580 -0.0015 -0.2900
 6191TIP3    H140208   0.009   5.298   8.394 -2.0571  1.3016  0.1842
 6191TIP3    H240209   0.026   5.394   8.278  2.3564 -1.7181 -1.9662
 6192TIP3   OH240210   4.766   6.157   1.883 -0.0655  0.4171  0.6159
 6192TIP3    H140211   4.805   6.217   1.947 -0.2716  0.5249  0.6425
 6192TIP3    H240212   4.826   6.083   1.880 -0.8427 -0.3303  2.1273
 6193TIP3   OH240213   3.810   1.153   7.518  0.2617 -0.0139  0.2738
 6193TIP3    H140214   3.880   1.207   7.553  1.1152 -1.3207  0.6653
 6193TIP3    H240215   3.730   1.202   7.536  0.9635  0.8624  1.0673
 6194TIP3   OH240216   1.236   1.262   0.038  0.2659 -0.5375 -0.3752
 6194TIP3    H140217   1.251   1.248   0.132  0.4530 -0.8920 -0.4561
 6194TIP3    H240218   1.256   1.355   0.025  2.1097 -0.9080 -0.4139
 6195TIP3   OH240219   2.724   2.082   1.690 -0.2605  0.3570 -0.2182
 6195TIP3    H140220   2.690   2.139   1.759 -1.3444 -0.3266 -0.1703
 6195TIP3    H240221   2.765   2.010   1.737 -1.7513 -0.5515 -0.2544
 6196TIP3   OH240222   0.180   0.172   1.783  0.1953 -0.2552  0.0802
 6196TIP3    H140223   0.223   0.255   1.763 -0.5697 -0.2330 -1.5824
 6196TIP3    H240224   0.175   0.171   1.879  2.8420  0.2460  0.3016
 6197TIP3   OH240225   4.845   4.764   1.382  0.1112  0.8572 -0.3865
 6197TIP3    H140226   4.920   4.813   1.348  0.9518  0.1673  0.3988
 6197TIP3    H240227   4.798   4.736   1.304  1.2432  0.4519 -0.9534
 6198TIP3   OH240228   5.621   1.395   7.213  0.0602  0.0828 -0.2618
 6198TIP3    H140229   5.563   1.320   7.197  1.3145 -0.7522 -1.0792
 6198TIP3    H240230   5.691   1.359   7.266  0.4238  0.8006 -0.2534
 6199TIP3   OH240231   6.707   0.539   2.061 -0.1520 -0.6489 -0.0831
 6199TIP3    H140232   6.703   0.457   2.012  1.5634 -1.1306  0.5205
 6199TIP3    H240233   6.746   0.515   2.145 -2.1470  0.3218  1.2174
 6200TIP3   OH240234   1.982   0.294   7.036 -0.4886  0.1252 -0.1190
 6200TIP3    H140235   1.942   0.341   6.963  0.9941  0.5658 -0.6778
 6200TIP3    H240236   1.963   0.202   7.019 -3.1147  0.4290  0.7924
 6201TIP3   OH240237   1.664   2.117   0.204 -0.0509 -0.7019  0.4492
 6201TIP3    H140238   1.651   2.166   0.123 -0.9200 -0.2743  0.8243
 6201TIP3    H240239   1.678   2.027   0.176 -2.7235 -1.0283 -0.1542
 6202TIP3   OH240240   0.150   0.285   7.956  0.5245 -0.0399 -0.2284
 6202TIP3    H140241   0.149   0.226   8.031  1.1429 -0.4670 -0.5445
 6202TIP3    H240242   0.152   0.227   7.880  2.1766  0.3650 -0.5303
 6203TIP3   OH240243   5.110   0.583   8.160  0.6253 -0.7950 -0.5469
 6203TIP3    H140244   5.093   0.495   8.194  2.0830  0.0243  2.8205
 6203TIP3    H240245   5.023   0.621   8.147 -0.0200 -2.3412 -0.9637
 6204TIP3   OH240246   0.278   1.793   7.200  0.1572 -0.2647 -0.0686
 6204TIP3    H140247   0.362   1.838   7.210 -1.7271  3.6915 -0.2382
 6204TIP3    H240248   0.253   1.768   7.288  1.2095 -0.9449  0.0515
 6205TIP3   OH240249   4.899   2.190   7.128  1.2319 -0.0626 -0.0653
 6205TIP3    H140250   4.816   2.144   7.119  1.1643 -0.1191  0.7767
 6205TIP3    H240251   4.952   2.133   7.183  1.4128  0.5132  0.3662
 6206TIP3   OH240252   3.903   0.101   6.246  0.3168  0.0224 -0.1351
 6206TIP3    H140253   3.970   0.158   6.208  0.5547 -0.2220 -0.0879
 6206TIP3    H240254   3.820   0.139   6.217  0.3047  2.2773  2.4424
 6207TIP3   OH240255   3.692   0.903   1.422  0.6061 -0.2066  0.8298
 6207TIP3    H140256   3.716   0.929   1.510  1.8186  0.4688  0.3269
 6207TIP3    H240257   3.759   0.942   1.366  0.8817 -2.0648 -0.2332
 6208TIP3   OH240258   1.916   2.489   6.882 -0.2722  0.1984  0.4349
 6208TIP3    H140259   1.861   2.496   6.960 -0.0841 -0.8438  0.6858
 6208TIP3    H240260   1.856   2.460   6.813 -0.6108  1.9307 -0.0472
 6209TIP3   OH240261   2.562   5.201   1.808 -0.0083 -1.1456  0.0853
 6209TIP3    H140262   2.539   5.108   1.811  1.2321 -1.4400  1.3917
 6209TIP3    H240263   2.645   5.203   1.761  1.1620 -0.9870  2.0916
 6210TIP3   OH240264   6.021   5.072   7.939  0.6386  0.1279  0.0429
 6210TIP3    H140265   6.026   5.062   8.034  1.1516  1.2471  0.1552
 6210TIP3    H240266   5.946   5.018   7.913  0.5344 -0.2520  1.0670
 6211TIP3   OH240267   0.300   3.963   1.525  0.4946 -0.5543  0.1901
 6211TIP3    H140268   0.378   3.946   1.472 -0.1958 -0.2517 -0.9522
 6211TIP3    H240269   0.263   4.043   1.489  0.5982  0.2861  1.8644
 6212TIP3   OH240270   0.665   0.067   2.133  0.4808  0.6709  0.0606
 6212TIP3    H140271   0.697   0.110   2.212  0.3275  2.4946 -0.7953
 6212TIP3    H240272   0.571   0.084   2.133  0.1682 -0.9765  0.4291
 6213TIP3   OH240273   1.084   3.457   0.647  0.0176  0.2072  0.2062
 6213TIP3    H140274   1.041   3.398   0.709  1.0186 -0.7250  0.0372
 6213TIP3    H240275   1.170   3.473   0.685  1.6434 -2.3807 -2.0614
 6214TIP3   OH240276   5.924   4.637   1.476  0.1534 -0.3127 -0.1592
 6214TIP3    H140277   5.930   4.727   1.444  0.8486 -0.3975 -0.2896
 6214TIP3    H240278   5.837   4.631   1.515  0.7466  0.9510  1.4876
 6215TIP3   OH240279   4.941   3.892   8.770  0.1443  0.0225 -0.6352
 6215TIP3    H140280   4.857   3.908   8.728 -0.1068  0.7044  0.0950
 6215TIP3    H240281   4.928   3.919   8.861  1.7820  2.4391 -1.0133
 6216TIP3   OH240282   1.397   0.481   8.614  0.4964  0.1021  0.1441
 6216TIP3    H140283   1.490   0.466   8.631  0.5593 -0.2142 -0.4512
 6216TIP3    H240284   1.356   0.481   8.701  0.6841 -2.3545  0.2987
 6217TIP3   OH240285   4.290   2.362   0.773  0.4976 -0.6488 -0.2552
 6217TIP3    H140286   4.261   2.449   0.745  2.6380  0.9973  2.0779
 6217TIP3    H240287   4.341   2.329   0.700  0.3516  0.4578 -0.8827
 6218TIP3   OH240288   4.636   4.760   8.359 -0.0401 -0.6599  0.4072
 6218TIP3    H140289   4.576   4.788   8.427 -0.4323 -0.3286 -0.0676
 6218TIP3    H240290   4.584   4.760   8.279  1.0649  1.7033 -0.4204
 6219TIP3   OH240291   3.183   3.393   7.408  0.8682  0.0818  0.3929
 6219TIP3    H140292   3.192   3.485   7.433  1.2975 -0.1237  0.9940
 6219TIP3    H240293   3.245   3.346   7.463  0.9236 -0.5297 -0.1776
 6220TIP3   OH240294   5.541   6.856   6.642  0.1261 -0.2282  0.0735
 6220TIP3    H140295   5.551   6.903   6.725  1.0050 -1.1626  0.5143
 6220TIP3    H240296   5.500   6.920   6.583  1.8220  1.3094  0.4796
 6221TIP3   OH240297   2.519   1.827   1.251  0.3840 -0.2051 -0.2744
 6221TIP3    H140298   2.571   1.887   1.303 -0.0250 -0.4519  0.4325
 6221TIP3    H240299   2.439   1.813   1.302  0.5289 -1.4512 -0.3507
 6222TIP3   OH240300   0.866   5.715   0.760  0.1921  0.3314  0.0116
 6222TIP3    H140301   0.949   5.760   0.775  0.4763 -0.3277  0.4982
 6222TIP3    H240302   0.861   5.705   0.665  0.6439  0.4224 -0.0256
 6223TIP3   OH240303   0.540   6.362   7.911  0.5223 -0.0343 -0.2428
 6223TIP3    H140304   0.556   6.422   7.838  0.8342 -0.1519 -0.2744
 6223TIP3    H240305   0.620   6.367   7.963  0.1809  0.2797  0.2584
 6224TIP3   OH240306   1.436   2.143   8.747  0.5631  0.2866 -0.3422
 6224TIP3    H140307   1.523   2.103   8.743  0.4725  0.0274  0.1861
 6224TIP3    H240308   1.400   2.132   8.659  0.0873 -1.8332  0.0643
 6225TIP3   OH240309   3.525   5.659   6.446  0.0719 -0.4569 -0.3125
 6225TIP3    H140310   3.493   5.673   6.356  0.1531  1.0406 -0.1401
 6225TIP3    H240311   3.453   5.616   6.491 -0.4602 -0.0511 -0.7680
 6226TIP3   OH240312   3.365   4.261   7.102  0.0045  0.3429 -0.1378
 6226TIP3    H140313   3.272   4.241   7.109 -0.2812  1.1960 -1.2167
 6226TIP3    H240314   3.404   4.182   7.062 -0.5076  0.5146 -1.0101
 6227TIP3   OH240315   6.697   6.056   1.176 -0.5698  0.4380  0.1762
 6227TIP3    H140316   6.764   6.123   1.186 -0.6567  0.3198  2.0055
 6227TIP3    H240317   6.615   6.102   1.192 -0.9613  0.5709 -1.9989
 6228TIP3   OH240318   4.701   4.679   1.169  0.3671  0.4085  0.6612
 6228TIP3    H140319   4.631   4.744   1.169 -0.1202 -0.1075  0.7966
 6228TIP3    H240320   4.704   4.646   1.080  0.8001  0.8031  0.5238
 6229TIP3   OH240321   4.424   4.468   6.448  0.2259 -0.3261 -0.0247
 6229TIP3    H140322   4.368   4.401   6.486  0.1169 -0.0528  0.3050
 6229TIP3    H240323   4.489   4.420   6.398 -0.4160 -0.6481 -0.5714
 6230TIP3   OH240324   3.360   5.602   0.766 -0.0491  0.3589 -0.3104
 6230TIP3    H140325   3.275   5.560   0.776 -0.8377  1.6217 -1.2660
 6230TIP3    H240326   3.367   5.661   0.842 -0.0197  0.2364 -0.2186
 6231TIP3   OH240327   0.139   3.689   1.750  0.0697  0.1261  0.0183
 6231TIP3    H140328   0.136   3.721   1.840  1.6101  1.0727 -0.2301
 6231TIP3    H240329   0.059   3.723   1.710 -1.2155 -1.2503  1.2797
 6232TIP3   OH240330   1.125   5.220   1.366  0.4291  0.4777 -0.0657
 6232TIP3    H140331   1.144   5.134   1.330 -0.0676 -0.2804  1.4053
 6232TIP3    H240332   1.094   5.203   1.455 -3.1000  1.8878 -0.8678
 6233TIP3   OH240333   3.415   3.188   0.681 -0.3548  0.1844  0.3465
 6233TIP3    H140334   3.440   3.202   0.590 -1.5374 -0.1134 -0.0361
 6233TIP3    H240335   3.352   3.257   0.701 -0.7118 -0.2349  0.6917
 6234TIP3   OH240336   6.141   1.592   8.541  0.0461 -0.8068 -0.3512
 6234TIP3    H140337   6.201   1.522   8.564 -0.2795 -0.6475  1.0718
 6234TIP3    H240338   6.191   1.673   8.557  0.2523 -0.6837 -1.5044
 6235TIP3   OH240339   1.056   0.198   1.258  0.6226  0.2565 -0.5719
 6235TIP3    H140340   1.108   0.221   1.181 -0.7012 -1.2279 -1.9995
 6235TIP3    H240341   0.970   0.236   1.242  0.8464  1.6650  1.1920
 6236TIP3   OH240342   4.418   3.007   0.248 -0.3849 -0.0448 -0.0469
 6236TIP3    H140343   4.472   2.930   0.263 -0.0675 -0.0879 -1.2871
 6236TIP3    H240344   4.372   2.989   0.166 -0.3684  1.0255 -0.3174
 6237TIP3   OH240345   5.788   6.250   7.827  0.2693  0.0294  0.3973
 6237TIP3    H140346   5.737   6.331   7.830  0.2500 -0.0076  1.2324
 6237TIP3    H240347   5.746   6.197   7.759 -0.4003  0.2661  0.6268
 6238TIP3   OH240348   4.272   6.595   0.251  0.5783 -0.1079  0.2815
 6238TIP3    H140349   4.201   6.550   0.296 -0.4833  1.3340  0.1073
 6238TIP3    H240350   4.259   6.573   0.158 -1.3060  2.2286 -0.1020
 6239TIP3   OH240351   1.257   5.923   6.541  0.2680 -0.0535 -0.1854
 6239TIP3    H140352   1.329   5.865   6.565 -0.1268  0.1753  1.6795
 6239TIP3    H240353   1.190   5.864   6.504  0.9658 -0.3934 -0.9394
 6240TIP3   OH240354   5.911   4.502   7.398 -0.3025 -0.1001  0.1085
 6240TIP3    H140355   5.883   4.460   7.317 -1.3340  0.8559 -0.0523
 6240TIP3    H240356   5.957   4.433   7.446 -1.7511 -1.3723 -0.2339
 6241TIP3   OH240357   1.812   2.443   1.836  0.0766  0.3203 -0.3584
 6241TIP3    H140358   1.851   2.527   1.812  1.2268  0.1955  0.9436
 6241TIP3    H240359   1.777   2.457   1.924 -1.7552  0.0517 -0.9917
 6242TIP3   OH240360   0.398   3.605   8.029  0.5353  0.2577 -0.6595
 6242TIP3    H140361   0.388   3.639   7.940  1.3391 -1.3777 -1.4045
 6242TIP3    H240362   0.444   3.522   8.019 -0.4169 -0.5620  1.1804
 6243TIP3   OH240363   1.673   6.470   0.072 -0.2666 -0.0963 -0.5054
 6243TIP3    H140364   1.714   6.555   0.054 -0.1269 -0.2211 -0.7933
 6243TIP3    H240365   1.610   6.459   0.002 -1.4526  0.5003  0.4344
 6244TIP3   OH240366   2.360   1.007   1.233 -0.0993  0.0418 -0.0910
 6244TIP3    H140367   2.301   0.985   1.161  0.6746 -1.5729 -0.2746
 6244TIP3    H240368   2.306   1.056   1.294 -1.5098 -0.9177 -0.5140
 6245TIP3   OH240369   4.615   0.303   0.123  0.0844 -0.1789  0.5166
 6245TIP3    H140370   4.582   0.333   0.039 -1.0173 -0.0166  0.9898
 6245TIP3    H240371   4.543   0.318   0.184  0.9437 -0.0654  1.5394
 6246TIP3   OH240372   3.940   4.386   6.793 -0.4740 -0.1525  0.4065
 6246TIP3    H140373   3.909   4.456   6.737 -1.8048  1.1600  2.6612
 6246TIP3    H240374   3.995   4.332   6.735 -0.6017  1.8726 -1.7568
 6247TIP3   OH240375   2.842   0.935   0.283 -0.0092  0.4035 -0.1287
 6247TIP3    H140376   2.845   0.841   0.296 -0.7730  0.5864  1.6103
 6247TIP3    H240377   2.753   0.952   0.252  0.0923  0.5699 -0.3323
 6248TIP3   OH240378   5.265   0.918   1.187 -0.0079 -0.1736  0.0806
 6248TIP3    H140379   5.220   0.966   1.257  1.3793  1.9458 -0.3826
 6248TIP3    H240380   5.324   0.982   1.148  1.1738 -2.0129 -1.3342
 6249TIP3   OH240381   4.023   3.395   7.888 -0.1878  0.2435  0.0478
 6249TIP3    H140382   4.013   3.486   7.860 -2.1278 -0.0840 -0.4731
 6249TIP3    H240383   3.934   3.362   7.892  0.5534 -2.1697 -1.5136
 6250TIP3   OH240384   1.200   4.150   1.431 -0.0312  0.3628  0.2223
 6250TIP3    H140385   1.256   4.095   1.376  0.0948  1.1432 -0.4394
 6250TIP3    H240386   1.259   4.187   1.496 -0.2330 -0.8058  1.1083
 6251TIP3   OH240387   1.477   1.647   1.958  0.3429  0.3156 -0.1676
 6251TIP3    H140388   1.460   1.733   1.918  0.2654  1.0955  1.4580
 6251TIP3    H240389   1.542   1.665   2.026 -0.1007 -0.8237  0.5774
 6252TIP3   OH240390   5.132   3.133   1.995  0.0674 -0.4520 -0.5948
 6252TIP3    H140391   5.185   3.147   2.073 -0.5244  1.4298 -0.4881
 6252TIP3    H240392   5.043   3.154   2.022  0.0042  1.3641 -2.0274
 6253TIP3   OH240393   1.056   1.539   1.365 -0.6586 -0.5567  0.0888
 6253TIP3    H140394   1.119   1.589   1.416  0.9116 -0.3047 -1.9397
 6253TIP3    H240395   0.993   1.506   1.429  0.4163  0.8294  1.9549
 6254TIP3   OH240396   1.226   5.806   2.111  0.4502  0.3379 -0.3948
 6254TIP3    H140397   1.178   5.727   2.134  0.3331  0.6884  0.6298
 6254TIP3    H240398   1.288   5.818   2.184 -1.5187  2.7903  1.0301
 6255TIP3   OH240399   2.244   5.584   6.219 -0.2508 -0.1508 -0.2122
 6255TIP3    H140400   2.302   5.513   6.193  1.2618  1.0742 -0.3204
 6255TIP3    H240401   2.209   5.556   6.304  0.3907 -0.9781 -0.2099
 6256TIP3   OH240402   4.642   1.740   7.183 -0.2321 -0.6182  0.3023
 6256TIP3    H140403   4.561   1.739   7.132  0.6327 -1.3844 -1.1227
 6256TIP3    H240404   4.647   1.652   7.221  0.8016 -1.2320 -1.1377
 6257TIP3   OH240405   6.445   6.048   6.988 -0.0729  0.1656 -0.5542
 6257TIP3    H140406   6.466   6.047   6.895 -0.2930  0.1928 -0.6044
 6257TIP3    H240407   6.362   6.095   6.994 -1.5900 -2.3032 -0.6602
 6258TIP3   OH240408   2.012   4.191   7.117  0.3460  0.0621  0.2328
 6258TIP3    H140409   2.009   4.195   7.021 -0.9857 -0.5269  0.2370
 6258TIP3    H240410   1.965   4.269   7.146 -1.1684 -0.8775  0.3821
 6259TIP3   OH240411   4.115   4.321   7.025 -0.0838  0.0793  0.5854
 6259TIP3    H140412   4.106   4.378   7.101 -0.1969  1.9671 -0.7830
 6259TIP3    H240413   4.053   4.355   6.961  2.1595  0.5746 -1.5141
 6260TIP3   OH240414   4.272   2.627   1.062  0.3034  0.0138 -0.6019
 6260TIP3    H140415   4.196   2.663   1.016  0.8106 -0.2015 -1.6354
 6260TIP3    H240416   4.241   2.543   1.096 -0.7342  1.1288  1.4009
 6261TIP3   OH240417   6.150   1.298   7.608 -0.0452 -0.5326  0.0093
 6261TIP3    H140418   6.103   1.229   7.562 -0.5896 -1.4434  1.8573
 6261TIP3    H240419   6.160   1.266   7.697  3.3925 -0.0445 -0.0492
 6262TIP3   OH240420   3.330   5.284   0.085 -0.1578 -0.6256  0.8051
 6262TIP3    H140421   3.380   5.258   0.162  0.2326 -1.8432  0.1648
 6262TIP3    H240422   3.390   5.336   0.032  0.0750 -1.1080  0.5895
 6263TIP3   OH240423   4.283   1.075   1.145 -0.0242 -0.3038  0.0545
 6263TIP3    H140424   4.320   1.075   1.056 -0.0908 -1.7039  0.0056
 6263TIP3    H240425   4.343   1.131   1.195 -0.0381  0.5850 -0.8799
 6264TIP3   OH240426   6.722   6.565   7.245  0.0390  0.2607 -0.1766
 6264TIP3    H140427   6.806   6.568   7.198  0.0107 -2.1019 -0.4595
 6264TIP3    H240428   6.743   6.597   7.333  1.3144 -0.5492 -0.1596
 6265TIP3   OH240429   4.427   1.288   7.502 -0.1056 -0.1358 -0.1195
 6265TIP3    H140430   4.485   1.284   7.578 -1.0746  0.3728  0.6768
 6265TIP3    H240431   4.424   1.198   7.470  0.2272 -0.3822  0.5194
 6266TIP3   OH240432   3.896   2.508   1.846 -0.0022 -0.0049 -0.2313
 6266TIP3    H140433   3.818   2.484   1.795  0.6003 -0.0164 -1.1823
 6266TIP3    H240434   3.932   2.425   1.876 -1.1488  0.0743  1.4637
 6267TIP3   OH240435   0.070   1.970   0.751 -0.2351  0.0324  0.2394
 6267TIP3    H140436   0.164   1.967   0.733 -0.4659 -2.9281 -1.0387
 6267TIP3    H240437   0.063   1.947   0.844  0.3120  0.1058  0.2990
 6268TIP3   OH240438   6.283   3.984   1.828  0.0636  0.2675  0.0451
 6268TIP3    H140439   6.256   3.996   1.919  0.6257  0.4746  0.1829
 6268TIP3    H240440   6.246   4.059   1.782  1.7693  1.4494  0.5279
 6269TIP3   OH240441   4.351   2.325   8.316  0.0611  0.3807 -0.3346
 6269TIP3    H140442   4.394   2.321   8.402  2.4359  0.6089 -1.4452
 6269TIP3    H240443   4.350   2.234   8.287 -0.6347  0.3207 -0.1489
 6270TIP3   OH240444   1.027   3.811   0.818 -0.3319  0.0468  0.0018
 6270TIP3    H140445   1.101   3.870   0.834 -1.3072  1.2604  0.2172
 6270TIP3    H240446   0.975   3.817   0.898 -1.1957  0.0391 -0.5466
 6271TIP3   OH240447   1.980   2.941   8.511 -0.4416  0.2956 -0.0661
 6271TIP3    H140448   1.905   2.971   8.459 -0.3419  2.3579  0.9053
 6271TIP3    H240449   1.981   2.998   8.587  2.0918  0.2661 -0.0132
 6272TIP3   OH240450   5.754   3.129   1.066  0.4390  0.0492 -0.2082
 6272TIP3    H140451   5.769   3.078   1.146  1.9345  0.3158 -0.2970
 6272TIP3    H240452   5.753   3.064   0.996 -0.2724 -0.1192 -0.0533
 6273TIP3   OH240453   0.535   0.028   7.340  0.6848  0.0358 -0.8139
 6273TIP3    H140454   0.629   0.027   7.323  0.6925 -1.4069 -0.7448
 6273TIP3    H240455   0.527   0.066   7.428  1.2693 -0.7112 -0.4322
 6274TIP3   OH240456   5.857   5.146   0.660 -0.2251 -0.0500  0.2548
 6274TIP3    H140457   5.943   5.172   0.693  0.3932 -0.1100 -1.2525
 6274TIP3    H240458   5.838   5.207   0.589 -1.9995  0.7288  1.3214
 6275TIP3   OH240459   3.135   4.600   8.120 -0.6481  0.3420  0.2042
 6275TIP3    H140460   3.186   4.584   8.199 -0.7234 -0.0537  0.1785
 6275TIP3    H240461   3.049   4.561   8.139 -1.0752  1.3424  0.3955
 6276TIP3   OH240462   3.712   3.539   7.847  0.6273 -0.1467 -0.5433
 6276TIP3    H140463   3.649   3.607   7.822  0.2528 -0.6015 -0.8431
 6276TIP3    H240464   3.773   3.584   7.905  0.2428  0.3914 -0.5455
 6277TIP3   OH240465   0.715   4.025   8.026  0.1742 -0.5200 -0.1417
 6277TIP3    H140466   0.745   3.934   8.028 -1.4145 -1.1505 -1.9851
 6277TIP3    H240467   0.713   4.048   7.933  1.3153  1.7234  0.3084
 6278TIP3   OH240468   3.340   1.113   7.100  0.2615  0.8250 -0.4362
 6278TIP3    H140469   3.401   1.168   7.052 -0.9557  1.8312 -0.8764
 6278TIP3    H240470   3.280   1.175   7.141  0.2740 -0.0856  1.0355
 6279TIP3   OH240471   5.684   4.716   1.189  0.2229 -0.1130 -0.2229
 6279TIP3    H140472   5.655   4.795   1.235  0.9932 -0.3776  0.7413
 6279TIP3    H240473   5.639   4.645   1.235  0.5956 -0.3387 -0.2097
 6280TIP3   OH240474   2.813   5.248   7.654 -0.0774 -0.2220 -0.7374
 6280TIP3    H140475   2.895   5.292   7.635  1.6644 -2.9305 -0.1239
 6280TIP3    H240476   2.786   5.210   7.570  0.2969 -0.8226 -0.5947
 6281TIP3   OH240477   0.908   4.685   1.261  0.2247 -1.2173  0.6983
 6281TIP3    H140478   0.898   4.694   1.167  0.2210 -2.0043  0.6167
 6281TIP3    H240479   0.997   4.713   1.279  0.0320 -0.4821  0.5481
 6282TIP3   OH240480   0.016   4.056   8.290  0.2502  0.5532 -0.0255
 6282TIP3    H140481   0.016   4.149   8.314  0.4971  0.8320 -1.0435
 6282TIP3    H240482   0.027   4.010   8.373 -2.0728  1.3332  0.7989
 6283TIP3   OH240483   2.627   0.179   7.211  0.5215 -0.0548  0.5029
 6283TIP3    H140484   2.652   0.220   7.128 -1.3198 -2.0111 -1.1619
 6283TIP3    H240485   2.682   0.100   7.215 -0.5029 -0.7985  0.2843
 6284TIP3   OH240486   2.893   4.065   8.046 -0.3613  0.3006 -0.1195
 6284TIP3    H140487   2.915   3.996   8.108 -0.5715  0.2241 -0.1278
 6284TIP3    H240488   2.807   4.097   8.076 -0.3984  0.3580 -0.2869
 6285TIP3   OH240489   3.965   3.459   2.063 -0.4592  0.1872 -0.2109
 6285TIP3    H140490   3.889   3.518   2.059 -1.9375 -1.6848 -1.8706
 6285TIP3    H240491   3.967   3.428   2.153 -0.1987  2.0268  0.4576
 6286TIP3   OH240492   6.754   2.080   0.306  0.0323  0.0638 -0.0701
 6286TIP3    H140493   6.798   2.022   0.367 -0.1986 -0.0602 -0.0176
 6286TIP3    H240494   6.788   2.167   0.326 -0.7565  0.1727  0.9036
 6287TIP3   OH240495   0.192   0.949   0.944 -0.6707 -0.9015 -0.0518
 6287TIP3    H140496   0.169   0.882   0.879 -0.2217 -0.1104 -1.0512
 6287TIP3    H240497   0.218   0.899   1.021  0.6690 -1.9363 -1.1148
 6288TIP3   OH240498   1.584   4.997   7.898  0.1516 -0.9238 -0.4734
 6288TIP3    H140499   1.620   4.914   7.930  1.1880 -0.3512 -0.1042
 6288TIP3    H240500   1.554   5.041   7.978 -1.0815 -1.2396 -0.7410
 6289TIP3   OH240501   0.761   2.380   8.650 -0.7934  0.0252  0.6151
 6289TIP3    H140502   0.786   2.465   8.687 -1.1089  0.6711 -0.6076
 6289TIP3    H240503   0.844   2.340   8.625 -0.7745  1.1838 -1.3369
 6290TIP3   OH240504   1.259   5.481   8.405 -0.4232  0.2273  0.3193
 6290TIP3    H140505   1.248   5.386   8.407  0.8983  0.0616  2.0523
 6290TIP3    H240506   1.170   5.516   8.406 -0.9617 -0.9479 -1.4572
 6291TIP3   OH240507   1.375   0.544   7.339 -0.1711 -0.2790  0.0461
 6291TIP3    H140508   1.349   0.533   7.430 -0.5229 -1.5217 -0.1900
 6291TIP3    H240509   1.298   0.583   7.296 -0.3126 -0.5013  0.1006
 6292TIP3   OH240510   2.632   0.959   7.434  0.6469  0.3018  0.1474
 6292TIP3    H140511   2.594   0.902   7.501 -0.1836  0.3831 -0.2444
 6292TIP3    H240512   2.566   1.027   7.420  1.5645  1.3104  0.5266
 6293TIP3   OH240513   5.155   4.288   1.465 -0.2851  0.2325 -0.2643
 6293TIP3    H140514   5.208   4.311   1.389 -0.3418  0.5367 -0.2111
 6293TIP3    H240515   5.082   4.350   1.463 -1.3722 -0.9911 -1.0921
 6294TIP3   OH240516   6.739   6.422   1.083  0.2211  0.4444  0.4092
 6294TIP3    H140517   6.815   6.365   1.093  0.5650  0.9750  0.9165
 6294TIP3    H240518   6.776   6.510   1.078 -0.1206  0.5170 -2.6646
 6295TIP3   OH240519   2.714   5.856   2.086  0.9285  0.0036  0.4941
 6295TIP3    H140520   2.752   5.873   2.173 -0.0620 -0.3743  1.0213
 6295TIP3    H240521   2.655   5.930   2.070  3.5405  1.8466 -1.3736
 6296TIP3   OH240522   3.876   2.048   8.765  0.1404 -0.0810 -0.4059
 6296TIP3    H140523   3.968   2.061   8.787  0.0856  1.1804 -0.8211
 6296TIP3    H240524   3.828   2.095   8.833 -0.0933  1.4952 -1.5887
 6297TIP3   OH240525   6.536   2.973   7.465  0.3924  0.2779  0.1348
 6297TIP3    H140526   6.584   2.904   7.512  0.5135 -1.3175 -2.1833
 6297TIP3    H240527   6.451   2.934   7.446 -0.3316  1.5824  0.5739
 6298TIP3   OH240528   0.954   3.707   8.298 -0.0574  0.0887  0.6322
 6298TIP3    H140529   1.048   3.716   8.284  0.2689  1.2840  2.9803
 6298TIP3    H240530   0.945   3.624   8.345 -0.1994 -0.1155  0.2441
 6299TIP3   OH240531   3.783   0.033   0.244  0.0699  0.6262 -0.2610
 6299TIP3    H140532   3.747   0.088   0.313  2.6378 -1.2089  2.8214
 6299TIP3    H240533   3.751  -0.055   0.263  1.6502 -0.1016 -0.7186
 6300TIP3   OH240534   0.615   5.410   7.981 -0.1405  0.4053  0.0069
 6300TIP3    H140535   0.629   5.495   8.023  0.1323  0.0175  0.7302
 6300TIP3    H240536   0.534   5.378   8.019 -1.7744  1.5448 -2.3374
 6301TIP3   OH240537   5.077   0.507   0.119 -0.0383  0.1990 -0.1648
 6301TIP3    H140538   5.027   0.544   0.192 -0.2390 -0.5197  0.0661
 6301TIP3    H240539   5.060   0.413   0.123 -1.2062  0.2771 -2.0029
 6302TIP3   OH240540   5.724   3.440   7.766 -0.1337  0.0934  0.1853
 6302TIP3    H140541   5.729   3.350   7.734 -2.0561 -0.5803  1.5579
 6302TIP3    H240542   5.630   3.457   7.776  0.2457  1.4423  2.0780
 6303TIP3   OH240543   1.920   2.995   7.693 -0.1432 -0.4460  0.2585
 6303TIP3    H140544   1.911   3.081   7.651  0.9100 -0.4908 -0.1013
 6303TIP3    H240545   1.991   2.953   7.644 -2.4594 -2.6636 -1.4371
 6304TIP3   OH240546   0.448   5.041   7.988 -0.0727 -1.0740 -0.0672
 6304TIP3    H140547   0.374   4.986   8.013  1.0470 -3.5644 -1.7934
 6304TIP3    H240548   0.487   4.996   7.913  3.2557  0.0509  0.8135
 6305TIP3   OH240549   0.165   1.739   1.380  0.1889 -0.1321  0.3113
 6305TIP3    H140550   0.074   1.711   1.370  0.0487 -0.7429  2.7996
 6305TIP3    H240551   0.217   1.668   1.342 -0.3332 -0.6498  0.5642
 6306TIP3   OH240552   3.078   5.332   6.273  0.5212 -0.7558 -0.0689
 6306TIP3    H140553   3.067   5.243   6.239  0.5138 -0.8154  0.0928
 6306TIP3    H240554   3.149   5.368   6.220 -0.0340 -0.5726 -0.7097
 6307TIP3   OH240555   0.236   0.177   7.546  0.3967 -0.1077  0.0785
 6307TIP3    H140556   0.328   0.151   7.538  0.8521  1.5169 -0.3565
 6307TIP3    H240557   0.187   0.100   7.518  1.6927 -0.0052 -2.8830
 6308TIP3   OH240558   3.784   4.822   2.072  0.0460  0.1267  0.3569
 6308TIP3    H140559   3.706   4.768   2.059  0.9125 -0.7219 -1.9642
 6308TIP3    H240560   3.855   4.759   2.081  0.8393  0.8466 -0.6004
 6309TIP3   OH240561   0.126   5.090   1.712  0.3527  0.4594 -0.1209
 6309TIP3    H140562   0.036   5.096   1.681  0.3810 -1.2277 -0.6420
 6309TIP3    H240563   0.178   5.080   1.633  0.9000  0.5486  0.2217
 6310TIP3   OH240564   3.410   1.163   0.810 -0.0126 -0.3546  0.3289
 6310TIP3    H140565   3.399   1.089   0.751 -0.7483 -0.5143  0.6461
 6310TIP3    H240566   3.372   1.134   0.893 -0.0873  0.2836  0.5297
 6311TIP3   OH240567   2.556   6.029   1.152  0.2511  0.8920 -0.1379
 6311TIP3    H140568   2.490   6.041   1.220 -0.5962  1.1253 -0.9752
 6311TIP3    H240569   2.532   5.947   1.109  1.2806  0.3069  0.3752
 6312TIP3   OH240570   4.653   5.352   8.212 -0.8240  0.0646  0.2271
 6312TIP3    H140571   4.624   5.275   8.164 -0.2097  0.3053 -0.5515
 6312TIP3    H240572   4.743   5.332   8.239 -0.2852  0.8936 -0.8743
 6313TIP3   OH240573   1.691   1.169   2.078  0.2082 -0.4255 -0.2093
 6313TIP3    H140574   1.616   1.207   2.124  1.5500 -0.0431  1.7900
 6313TIP3    H240575   1.762   1.232   2.090  0.7269 -0.4026 -2.7207
 6314TIP3   OH240576   4.831   4.215   7.528 -0.5378  0.0810 -0.2325
 6314TIP3    H140577   4.832   4.263   7.445 -0.9390 -0.2055 -0.4066
 6314TIP3    H240578   4.893   4.262   7.584 -1.0614  0.9215 -0.3348
 6315TIP3   OH240579   2.649   5.450   7.412 -0.7051  0.4796 -0.2923
 6315TIP3    H140580   2.670   5.509   7.485 -0.5100  0.5360 -0.3932
 6315TIP3    H240581   2.734   5.424   7.377 -0.8069  0.8914 -0.8497
 6316TIP3   OH240582   1.131   5.291   0.134  0.4652 -0.7027 -0.4218
 6316TIP3    H140583   1.219   5.306   0.099 -0.2195 -0.4502 -2.1018
 6316TIP3    H240584   1.092   5.379   0.139 -0.0916 -0.9300 -0.7638
 6317TIP3   OH240585   3.621   2.008   0.413  0.4175 -0.3295 -0.6243
 6317TIP3    H140586   3.619   2.097   0.377 -1.0377 -0.4173 -0.8335
 6317TIP3    H240587   3.629   2.021   0.507 -1.0225  0.1055 -0.5273
 6318TIP3   OH240588   6.766   1.218   7.492  0.5146  0.0965  0.6979
 6318TIP3    H140589   6.686   1.216   7.545  1.2471  1.8592  1.9837
 6318TIP3    H240590   6.819   1.146   7.525  0.7835  0.9148  2.1540
 6319TIP3   OH240591   6.802   3.719   1.128  0.1707  0.0145 -0.1013
 6319TIP3    H140592   6.862   3.704   1.055  1.6821 -0.6624  1.2037
 6319TIP3    H240593   6.773   3.631   1.154  2.5635 -0.1750  2.3743
 6320TIP3   OH240594   0.659   4.266   8.134  0.3419  0.3070  0.1381
 6320TIP3    H140595   0.728   4.318   8.092  0.4354  1.4998  1.6595
 6320TIP3    H240596   0.687   4.175   8.122  2.1815  0.7494  0.6716
 6321TIP3   OH240597   2.604   0.932   6.868 -0.4455 -0.4552  0.0083
 6321TIP3    H140598   2.680   0.898   6.820  0.2731  0.4865  0.4290
 6321TIP3    H240599   2.529   0.891   6.828  0.2318 -0.6671 -1.0736
 6322TIP3   OH240600   0.714   0.812   7.235  0.0302 -0.3126 -0.1575
 6322TIP3    H140601   0.741   0.738   7.182 -0.0542 -0.5435  0.1163
 6322TIP3    H240602   0.795   0.858   7.256  0.1790 -0.8131  0.3812
 6323TIP3   OH240603   2.246   1.976   8.413 -0.1482 -0.2228 -0.0550
 6323TIP3    H140604   2.204   1.921   8.347  1.5255 -2.3369  0.5191
 6323TIP3    H240605   2.277   1.915   8.479 -0.9019  1.7431  2.2473
 6324TIP3   OH240606   6.524   5.249   0.482 -0.1205  0.4095  0.1853
 6324TIP3    H140607   6.509   5.198   0.403 -1.1416  1.0894 -0.0773
 6324TIP3    H240608   6.619   5.261   0.486 -0.0513  0.2667 -0.8736
 6325TIP3   OH240609   6.317   4.053   6.454 -0.1706  0.7065 -0.2869
 6325TIP3    H140610   6.249   4.023   6.393 -2.1950  0.1589  2.0811
 6325TIP3    H240611   6.346   3.974   6.499 -0.3688  1.3265  0.9951
 6326TIP3   OH240612   1.080   6.729   6.907  0.2550  0.0754 -0.9811
 6326TIP3    H140613   1.164   6.721   6.952  0.8485  0.7332 -1.9078
 6326TIP3    H240614   1.097   6.793   6.837 -0.7172 -0.6155 -1.8804
 6327TIP3   OH240615   2.743   0.793   8.027  0.1821  0.5858  0.2703
 6327TIP3    H140616   2.662   0.837   8.005 -0.5013 -0.9510 -0.4896
 6327TIP3    H240617   2.780   0.768   7.942  0.9517  0.4146  0.6471
 6328TIP3   OH240618   4.878   6.744   1.931  0.0185 -0.3806 -0.3879
 6328TIP3    H140619   4.855   6.829   1.968 -1.3838  0.4428 -2.9148
 6328TIP3    H240620   4.796   6.712   1.892  0.2229 -3.4280  1.3399
 6329TIP3   OH240621   0.166   1.765   2.693 -0.4750  0.1130  0.4360
 6329TIP3    H140622   0.261   1.770   2.682 -0.3264  0.5223  1.7402
 6329TIP3    H240623   0.146   1.671   2.684  0.1412 -0.0532  0.7277
 6330TIP3   OH240624   1.730   3.569   7.067  0.0510  0.3502  0.5272
 6330TIP3    H140625   1.683   3.565   6.984  1.4534  0.1615 -0.2745
 6330TIP3    H240626   1.821   3.583   7.043  0.7680 -1.4137  1.9490
 6331TIP3   OH240627   6.008   4.709   2.094  0.7292  0.3461  0.1218
 6331TIP3    H140628   6.057   4.785   2.123 -1.0261  1.3500  0.5813
 6331TIP3    H240629   5.929   4.708   2.149 -0.7928  0.0265 -1.9465
 6332TIP3   OH240630   3.525   1.112   6.622 -0.2697  0.0674 -0.4235
 6332TIP3    H140631   3.601   1.055   6.615 -0.3495 -0.0535 -0.3241
 6332TIP3    H240632   3.548   1.175   6.690  0.6946  1.5404 -2.0537
 6333TIP3   OH240633   0.721   4.842   8.674 -0.3752 -0.5668  0.2402
 6333TIP3    H140634   0.803   4.886   8.650 -0.7944  0.5464  0.7724
 6333TIP3    H240635   0.743   4.791   8.752 -0.3252  0.2590  0.7814
 6334TIP3   OH240636   6.346   6.142   7.729  0.0123 -0.4574  0.0159
 6334TIP3    H140637   6.417   6.127   7.792 -0.0828 -0.7685  0.0495
 6334TIP3    H240638   6.381   6.110   7.646  0.5830  1.0252 -0.3433
 6335TIP3   OH240639   2.525   4.248   7.953 -0.6749  0.5529  0.6820
 6335TIP3    H140640   2.540   4.165   7.909  0.4598  0.6187  0.9112
 6335TIP3    H240641   2.588   4.249   8.025  0.3944  2.2283 -0.1983
 6336TIP3   OH240642   1.061   1.288   2.365 -0.1168  0.2361  0.1554
 6336TIP3    H140643   1.157   1.286   2.370 -0.1781 -0.4348  1.3448
 6336TIP3    H240644   1.039   1.207   2.319 -0.1001  0.7496 -0.7920
 6337TIP3   OH240645   0.046   0.914   8.584  0.3605 -0.5997 -0.5813
 6337TIP3    H140646   0.128   0.920   8.534  0.1973  0.9123 -0.7194
 6337TIP3    H240647  -0.020   0.955   8.527  0.1376  1.0563  0.7633
 6338TIP3   OH240648   0.432   4.997   7.280  0.1044 -0.1619  0.0895
 6338TIP3    H140649   0.361   4.942   7.246  0.2140  0.1450 -0.6682
 6338TIP3    H240650   0.399   5.086   7.272  0.8162  0.0311 -0.9027
 6339TIP3   OH240651   5.808   3.121   8.637  0.2530 -0.7186 -0.0717
 6339TIP3    H140652   5.716   3.146   8.639 -0.2369 -2.4146  0.0171
 6339TIP3    H240653   5.849   3.184   8.578 -0.6622  0.9412  0.9836
 6340TIP3   OH240654   2.291   1.133   2.286 -0.1919 -0.3906 -0.0147
 6340TIP3    H140655   2.333   1.190   2.221 -0.5054 -2.2194 -1.9533
 6340TIP3    H240656   2.271   1.191   2.360 -0.3882  1.9620 -1.7860
 6341TIP3   OH240657   3.210   1.533   8.378  0.0855 -0.0106 -0.0184
 6341TIP3    H140658   3.276   1.586   8.334  3.0797 -2.3367  1.3679
 6341TIP3    H240659   3.217   1.557   8.470 -0.5709 -0.7529  0.2353
 6342TIP3   OH240660   4.941   2.373   8.340 -0.3491  0.2670 -0.0791
 6342TIP3    H140661   5.000   2.396   8.269 -0.7917  3.5060  0.4118
 6342TIP3    H240662   4.867   2.433   8.330 -1.6918 -0.9929  1.5859
 6343TIP3   OH240663   0.936   2.234   7.361 -0.3321 -0.2745  0.0469
 6343TIP3    H140664   0.948   2.178   7.284 -0.2222 -0.4980  0.2277
 6343TIP3    H240665   0.903   2.175   7.429  1.8932 -0.5844  0.9172
 6344TIP3   OH240666   4.138   1.438   7.168  0.9613 -0.3169 -0.1155
 6344TIP3    H140667   4.216   1.381   7.170  1.1068 -0.1103  0.8424
 6344TIP3    H240668   4.072   1.389   7.216  1.0462  0.2515  0.6005
 6345TIP3   OH240669   2.530   0.371   7.403 -0.8927 -0.5136  0.4443
 6345TIP3    H140670   2.519   0.319   7.323 -2.8321  0.2681  0.1429
 6345TIP3    H240671   2.485   0.320   7.471 -2.1472  0.3592  0.3042
 6346TIP3   OH240672   0.300   1.424   0.926  0.2124  0.6589  0.4405
 6346TIP3    H140673   0.216   1.380   0.911 -0.0182  1.8919 -2.6258
 6346TIP3    H240674   0.363   1.375   0.872  1.0654  0.9499  1.1387
 6347TIP3   OH240675   6.413   1.799   6.743 -0.5549 -0.6673  0.1372
 6347TIP3    H140676   6.331   1.763   6.776 -0.5297 -2.7889 -1.9286
 6347TIP3    H240677   6.425   1.760   6.657  3.0089 -1.0568  0.6398
 6348TIP3   OH240678   3.281   6.663   1.829 -0.1998  0.0422  0.0175
 6348TIP3    H140679   3.295   6.569   1.836 -0.4856 -0.0135 -0.1033
 6348TIP3    H240680   3.334   6.702   1.898  0.7353 -0.1303 -0.5876
 6349TIP3   OH240681   2.156   3.371   2.176 -0.0256 -0.1249  0.1219
 6349TIP3    H140682   2.091   3.326   2.231 -0.3768 -3.4044 -2.5958
 6349TIP3    H240683   2.104   3.427   2.119  0.0765  1.1808  1.2887
 6350TIP3   OH240684   0.523   5.171   1.988  0.2533 -0.0678 -0.5119
 6350TIP3    H140685   0.501   5.255   2.029  1.5778  0.5727 -1.0315
 6350TIP3    H240686   0.588   5.132   2.046  0.2498 -0.3460 -0.6926
 6351TIP3   OH240687   0.986   4.325   1.411 -0.1449 -0.3761 -0.6187
 6351TIP3    H140688   1.058   4.264   1.422  1.4334  1.5481  0.2561
 6351TIP3    H240689   1.026   4.405   1.378 -2.0406  0.4305 -1.1460
 6352TIP3   OH240690   4.262   5.571   1.166  0.3574 -0.2107  0.6224
 6352TIP3    H140691   4.169   5.559   1.149  0.1393  0.6013  1.2001
 6352TIP3    H240692   4.305   5.502   1.115 -0.5952 -0.9769  0.8376
 6353TIP3   OH240693   5.269   4.617   7.294 -0.0078  0.0001  0.6363
 6353TIP3    H140694   5.252   4.663   7.212 -0.4567  2.1465  1.8562
 6353TIP3    H240695   5.233   4.675   7.362 -0.1273 -1.9395  2.3235
 6354TIP3   OH240696   0.890   1.706   8.604 -0.1649  0.1981 -0.3798
 6354TIP3    H140697   0.919   1.615   8.607 -0.3102  0.1229 -1.1001
 6354TIP3    H240698   0.897   1.731   8.512 -0.8830  0.6637 -0.3199
 6355TIP3   OH240699   3.608   2.397   8.375  0.3843  0.1750 -0.4716
 6355TIP3    H140700   3.540   2.421   8.437  1.7795  1.1218  0.7632
 6355TIP3    H240701   3.675   2.354   8.428  2.1625  2.0791 -1.0186
 6356TIP3   OH240702   1.536   4.789   0.687 -0.1264  0.3023 -1.2865
 6356TIP3    H140703   1.460   4.835   0.652  0.2411  0.7695 -1.4752
 6356TIP3    H240704   1.563   4.841   0.763  0.0609  0.1833 -1.2694
 6357TIP3   OH240705   3.004   5.471   7.099 -0.0155 -0.3583 -0.2688
 6357TIP3    H140706   2.910   5.456   7.089 -0.0200 -1.4515  1.0873
 6357TIP3    H240707   3.020   5.557   7.059 -1.6183 -0.0866 -0.3592
 6358TIP3   OH240708   6.749   4.105   0.615 -0.4938 -0.5031 -0.0984
 6358TIP3    H140709   6.772   4.187   0.659 -3.3174  0.4402 -0.1955
 6358TIP3    H240710   6.796   4.038   0.664  1.1510  1.0401  0.5699
 6359TIP3   OH240711   2.220   6.437   2.224  0.1628 -0.6410 -0.5750
 6359TIP3    H140712   2.224   6.438   2.320  0.3439 -0.6332 -0.5811
 6359TIP3    H240713   2.308   6.409   2.197  0.2652 -0.1775 -0.7467
 6360TIP3   OH240714   0.279   1.334   8.529 -0.5188 -0.1183  0.1270
 6360TIP3    H140715   0.341   1.320   8.601  0.2777  0.1540 -0.4793
 6360TIP3    H240716   0.196   1.352   8.571 -0.2066 -0.5904  0.9699
 6361TIP3   OH240717   2.286   6.779   6.849 -0.4935  0.0808 -0.4966
 6361TIP3    H140718   2.293   6.745   6.760 -1.3252  0.6624 -0.8011
 6361TIP3    H240719   2.362   6.743   6.895  0.8695  1.0867 -1.8603
 6362TIP3   OH240720   1.563   6.281   2.151 -0.3031  0.4023  0.6021
 6362TIP3    H140721   1.648   6.321   2.168  0.1484 -1.0454  1.9908
 6362TIP3    H240722   1.531   6.325   2.072  2.0557  0.5066 -0.3837
 6363TIP3   OH240723   5.804   0.002   6.960  0.1561 -0.0429  0.7229
 6363TIP3    H140724   5.858  -0.064   7.006  1.0997 -0.7592 -1.2820
 6363TIP3    H240725   5.865   0.044   6.900 -0.3693  2.9357  2.1020
 6364TIP3   OH240726   2.210   6.651   1.213  0.0288  0.1478 -0.2866
 6364TIP3    H140727   2.260   6.627   1.134  0.1391 -1.2682  0.1905
 6364TIP3    H240728   2.181   6.568   1.249  0.6835  0.6954  1.6415
 6365TIP3   OH240729   0.124   6.277   1.386 -0.9186 -0.3871 -0.2461
 6365TIP3    H140730   0.032   6.250   1.386 -0.9210 -0.3852  0.0220
 6365TIP3    H240731   0.145   6.289   1.479 -0.4282 -1.1375 -0.2494
 6366TIP3   OH240732   4.356   2.674   0.156  0.0103  0.3624  0.6994
 6366TIP3    H140733   4.444   2.674   0.195  0.0560 -1.9285  0.7523
 6366TIP3    H240734   4.297   2.651   0.227 -0.5137  0.9259  0.4529
 6367TIP3   OH240735   1.891   2.265   7.594 -0.0978 -0.1220 -0.2175
 6367TIP3    H140736   1.945   2.199   7.551 -1.9505 -1.7266 -0.2455
 6367TIP3    H240737   1.921   2.265   7.685 -0.3457 -1.3617 -0.1127
 6368TIP3   OH240738   3.497   3.959   7.029 -0.0533  0.0256  0.0879
 6368TIP3    H140739   3.532   4.035   6.984 -0.1190  0.1223  0.1991
 6368TIP3    H240740   3.516   3.885   6.971 -0.2431  0.1639 -0.1523
 6369TIP3   OH240741   0.111   0.942   6.676  0.0414  0.0964 -0.1209
 6369TIP3    H140742   0.070   0.915   6.758  1.9382 -0.6383  0.6433
 6369TIP3    H240743   0.126   1.036   6.686  2.3083 -0.3654  1.3869
 6370TIP3   OH240744   0.540   3.557   1.398 -0.2795 -0.2664  0.4387
 6370TIP3    H140745   0.580   3.544   1.484  1.2933 -0.9234 -0.3312
 6370TIP3    H240746   0.551   3.472   1.354 -0.8930  0.1082 -0.4706
 6371TIP3   OH240747   6.812   6.147   7.729 -0.6863  0.4997 -0.0728
 6371TIP3    H140748   6.726   6.106   7.734 -0.2878 -0.3842 -0.1598
 6371TIP3    H240749   6.864   6.100   7.795 -0.4042  1.3571  0.3258
 6372TIP3   OH240750   2.997   5.980   6.712  0.2446  0.5636  0.3421
 6372TIP3    H140751   3.075   6.027   6.686  0.0304 -0.5360 -2.6755
 6372TIP3    H240752   2.934   6.048   6.736  1.0081  1.6544 -0.6676
 6373TIP3   OH240753   2.673   1.866   7.856  0.6156  0.0705  0.0021
 6373TIP3    H140754   2.719   1.807   7.915 -0.2604  0.5270  1.1875
 6373TIP3    H240755   2.591   1.886   7.902  0.6716  1.8060 -0.5935
 6374TIP3   OH240756   3.604   6.853   1.717  0.5756 -0.2239  0.0823
 6374TIP3    H140757   3.626   6.798   1.642  1.6919  1.4444 -0.8862
 6374TIP3    H240758   3.627   6.800   1.793  0.1521 -1.6627 -0.7561
 6375TIP3   OH240759   6.384   4.454   1.742 -0.5927 -0.5963 -0.1836
 6375TIP3    H140760   6.357   4.517   1.675  0.7752  0.3554  0.1377
 6375TIP3    H240761   6.319   4.463   1.812 -0.4749  0.3702 -0.1934
 6376TIP3   OH240762   3.473   3.000   8.558 -0.2254 -0.4766 -0.2072
 6376TIP3    H140763   3.454   2.977   8.649 -2.2373  2.6170  0.2989
 6376TIP3    H240764   3.566   3.021   8.557 -0.3101  0.1008  1.3306
 6377TIP3   OH240765   4.917   5.298   8.272 -0.1735  0.0404  0.3999
 6377TIP3    H140766   4.930   5.250   8.190  2.0940  1.3562 -0.1024
 6377TIP3    H240767   4.928   5.233   8.341 -2.3475 -1.1359 -0.2648
 6378TIP3   OH240768   5.929   5.527   6.701  0.2057 -0.3793  0.5467
 6378TIP3    H140769   5.858   5.465   6.682  0.0483 -0.8018  2.3456
 6378TIP3    H240770   5.974   5.537   6.617 -1.4320 -0.7898 -0.4402
 6379TIP3   OH240771   5.229   3.268   0.525 -0.0813 -0.2917 -0.5065
 6379TIP3    H140772   5.165   3.276   0.595 -0.2543  0.8091 -0.7817
 6379TIP3    H240773   5.307   3.233   0.568  0.3692  1.9340  0.5930
 6380TIP3   OH240774   4.268   6.673   7.200 -0.1364 -0.5709  0.3738
 6380TIP3    H140775   4.359   6.652   7.177 -0.0542 -0.2018  0.3490
 6380TIP3    H240776   4.264   6.769   7.194 -0.4013 -0.5510  0.8440
 6381TIP3   OH240777   0.145   5.489   8.654  0.3636 -0.4239  0.3868
 6381TIP3    H140778   0.116   5.447   8.735  3.1727 -2.7676  0.3335
 6381TIP3    H240779   0.177   5.575   8.681  0.1260 -0.6861  1.5445
 6382TIP3   OH240780   4.221   4.005   0.819  0.0492  0.1874 -0.2566
 6382TIP3    H140781   4.129   4.027   0.837  0.5717  3.3062 -0.8954
 6382TIP3    H240782   4.219   3.959   0.735 -0.9821 -0.8431  0.2956
 6383TIP3   OH240783   2.562   5.233   0.339  0.1500 -0.2340  0.7056
 6383TIP3    H140784   2.647   5.189   0.346 -0.6756 -2.1397 -0.3524
 6383TIP3    H240785   2.538   5.223   0.247 -0.1713  2.3973  0.4493
 6384TIP3   OH240786   2.039   3.504   7.175 -0.5328  0.3727  0.2478
 6384TIP3    H140787   1.974   3.545   7.233  0.0632  0.0987  1.1229
 6384TIP3    H240788   2.107   3.570   7.165 -0.5430  0.3470  0.0107
 6385TIP3   OH240789   5.372   6.146   7.569 -0.2947  0.2857  0.0583
 6385TIP3    H140790   5.419   6.076   7.614  1.8751  1.6606  0.0655
 6385TIP3    H240791   5.292   6.104   7.536  1.9192 -2.7671 -1.8535
 6386TIP3   OH240792   6.516   1.613   1.411 -0.0177 -0.0155  0.5281
 6386TIP3    H140793   6.454   1.638   1.342  1.3178  0.7233 -0.4542
 6386TIP3    H240794   6.488   1.525   1.437  0.1566 -0.8626 -1.8480
 6387TIP3   OH240795   3.260   5.685   7.662  0.6270  0.2813  0.3727
 6387TIP3    H140796   3.285   5.640   7.582  1.5820  2.0498 -0.3677
 6387TIP3    H240797   3.195   5.750   7.634 -0.0844 -0.0057  1.2831
 6388TIP3   OH240798   1.520   1.095   0.345  0.1784  0.9161  0.1709
 6388TIP3    H140799   1.508   1.117   0.253 -0.5293  0.3947  0.1305
 6388TIP3    H240800   1.611   1.117   0.364  0.6975 -0.1843 -0.9817
 6389TIP3   OH240801   0.209   1.681   0.843  0.1762 -0.1941 -0.6344
 6389TIP3    H140802   0.186   1.741   0.915  0.7523 -0.2330 -0.4109
 6389TIP3    H240803   0.249   1.606   0.887  0.4971 -0.2342 -0.9897
 6390TIP3   OH240804   5.387   2.290   1.536 -1.0196 -0.4219 -0.6364
 6390TIP3    H140805   5.305   2.306   1.584 -0.2696  0.5342  0.3749
 6390TIP3    H240806   5.390   2.195   1.526 -1.6601 -0.5704  0.4049
 6391TIP3   OH240807   1.822   5.260   7.451  0.4455 -0.1499 -0.1267
 6391TIP3    H140808   1.862   5.185   7.496  2.1662  0.9923  0.3724
 6391TIP3    H240809   1.886   5.331   7.461 -0.8347  1.2232 -1.1260
 6392TIP3   OH240810   4.863   4.812   0.769  0.6568  0.6616  0.5816
 6392TIP3    H140811   4.789   4.841   0.716  0.3627  1.4088  1.3802
 6392TIP3    H240812   4.854   4.717   0.773 -1.0756  0.8283  1.8003
 6393TIP3   OH240813   0.758   2.332   1.126 -0.0844 -0.3929  0.4066
 6393TIP3    H140814   0.766   2.418   1.085  1.4428 -0.0331  1.3382
 6393TIP3    H240815   0.667   2.307   1.114 -0.2469  0.7813 -0.9994
 6394TIP3   OH240816   1.167   4.857   1.827  0.0951 -0.2053 -0.4968
 6394TIP3    H140817   1.131   4.872   1.915 -0.2344  1.5578 -0.8877
 6394TIP3    H240818   1.262   4.856   1.840  0.0274 -0.8329 -0.0065
 6395TIP3   OH240819   0.313   0.443   0.100 -0.2186  0.3535  0.1497
 6395TIP3    H140820   0.310   0.538   0.111 -0.5807  0.5316 -1.3081
 6395TIP3    H240821   0.287   0.428   0.009 -2.5769 -1.3017  0.9918
 6396TIP3   OH240822   5.848   4.872   7.618  0.2825 -0.2352  0.3169
 6396TIP3    H140823   5.809   4.920   7.691  1.1708  0.2017  0.5160
 6396TIP3    H240824   5.842   4.780   7.644  2.0809 -0.0105  1.7333
 6397TIP3   OH240825   1.421   6.781   1.480 -0.0446 -0.1530 -0.8720
 6397TIP3    H140826   1.371   6.728   1.418 -2.1765 -1.4734  1.7650
 6397TIP3    H240827   1.404   6.871   1.452 -1.4812 -0.6690 -1.8145
 6398TIP3   OH240828   2.572   5.630   1.598  0.1770  0.0176 -0.1980
 6398TIP3    H140829   2.495   5.614   1.543  0.3255 -0.3770 -0.2888
 6398TIP3    H240830   2.602   5.717   1.572  0.2034 -0.1338 -0.6870
 6399TIP3   OH240831   0.182   2.555   1.938  0.3726  0.3413 -0.1473
 6399TIP3    H140832   0.270   2.593   1.926 -0.0574  1.4954  0.1938
 6399TIP3    H240833   0.124   2.616   1.892 -0.3764  0.2423  0.6501
 6400TIP3   OH240834   0.554   3.070   7.515 -0.4617  0.1780  0.0538
 6400TIP3    H140835   0.536   3.128   7.441  1.5759 -1.0805 -1.5393
 6400TIP3    H240836   0.643   3.093   7.542  1.4224 -3.5999 -2.1994
 6401TIP3   OH240837   5.614   2.592   7.727 -0.0586  0.0134  0.0805
 6401TIP3    H140838   5.681   2.525   7.712 -0.2112  0.0144 -0.6507
 6401TIP3    H240839   5.633   2.661   7.664  0.1211  0.6931  0.8566
 6402TIP3   OH240840   4.377   2.902   7.167  0.4835  0.3331 -0.1987
 6402TIP3    H140841   4.376   2.943   7.253  3.3936  2.5774 -1.0498
 6402TIP3    H240842   4.350   2.971   7.107  1.3334 -0.2681 -1.3191
 6403TIP3   OH240843   6.735   2.127   6.500 -0.4553  0.6788  0.2233
 6403TIP3    H140844   6.719   2.176   6.581  0.9859 -0.8588  1.5064
 6403TIP3    H240845   6.827   2.101   6.506 -0.8121 -1.0362 -1.0461
 6404TIP3   OH240846   3.925   1.969   0.662  0.0432  0.5308 -0.1277
 6404TIP3    H140847   3.972   1.885   0.660 -2.2841 -0.8494 -1.9311
 6404TIP3    H240848   3.994   2.035   0.653  2.0771 -1.0367  2.4096
 6405TIP3   OH240849   1.995   3.295   1.236 -0.3495 -0.2336  0.3903
 6405TIP3    H140850   1.935   3.362   1.267  1.6239  1.5241  0.6223
 6405TIP3    H240851   1.978   3.290   1.142 -1.6135 -0.6134  0.6154
 6406TIP3   OH240852   6.759   3.138   8.739 -0.5558  1.2105  0.0530
 6406TIP3    H140853   6.779   3.053   8.779 -1.0905  1.6279  1.2501
 6406TIP3    H240854   6.689   3.118   8.676 -1.1505  0.8486  0.8048
 6407TIP3   OH240855   3.441   2.542   7.663  0.1541 -0.6630 -0.0936
 6407TIP3    H140856   3.373   2.606   7.681  1.3024  0.6991 -0.4692
 6407TIP3    H240857   3.509   2.591   7.618  1.2730 -2.0477  0.0256
 6408TIP3   OH240858   1.591   1.226   0.859  0.0889 -0.1104  0.9469
 6408TIP3    H140859   1.566   1.296   0.799 -0.0751 -0.6039  0.4348
 6408TIP3    H240860   1.608   1.151   0.803  1.5159 -0.1339  1.3898
 6409TIP3   OH240861   2.732   0.629   0.265  0.3695  0.0278  0.1235
 6409TIP3    H140862   2.756   0.538   0.248 -0.7705  0.0865 -2.2743
 6409TIP3    H240863   2.747   0.673   0.181  0.3658  1.9439  1.0785
 6410TIP3   OH240864   6.011   0.282   0.466 -0.6141 -0.2321 -0.0923
 6410TIP3    H140865   6.085   0.318   0.516 -0.2059 -0.8025 -0.2666
 6410TIP3    H240866   6.052   0.242   0.389 -0.9904 -1.4274  0.2972
 6411TIP3   OH240867   3.181   3.304   1.345 -0.7890 -0.3748  0.7085
 6411TIP3    H140868   3.194   3.387   1.391  0.0274 -0.4132  0.5642
 6411TIP3    H240869   3.269   3.266   1.340 -1.1578 -1.2613  0.7959
 6412TIP3   OH240870   6.253   5.326   2.526  0.6258 -0.2462 -0.0856
 6412TIP3    H140871   6.263   5.421   2.522 -0.8802  0.0097  1.2368
 6412TIP3    H240872   6.256   5.305   2.619  1.9629 -1.6556 -0.3994
 6413TIP3   OH240873   5.375   5.287   0.198  0.3346 -0.1622  0.3282
 6413TIP3    H140874   5.452   5.245   0.236 -0.5370 -0.4307  1.8867
 6413TIP3    H240875   5.379   5.266   0.105 -0.0832 -3.8625  0.9978
 6414TIP3   OH240876   5.617   1.394   1.522  0.0197  0.3601 -0.0645
 6414TIP3    H140877   5.614   1.476   1.573  2.0729  0.6869 -0.3836
 6414TIP3    H240878   5.652   1.329   1.584 -0.3069  0.0558 -0.2020
 6415TIP3   OH240879   1.530   3.074   7.022 -0.5071 -0.2495 -0.0508
 6415TIP3    H140880   1.591   3.088   6.950 -1.3239 -0.3819 -0.7829
 6415TIP3    H240881   1.529   2.979   7.034 -0.4703 -0.2375  0.0432
 6416TIP3   OH240882   6.463   5.808   8.434 -0.3992 -0.5297 -0.0391
 6416TIP3    H140883   6.524   5.735   8.444  1.5756  1.0429  0.1868
 6416TIP3    H240884   6.481   5.842   8.346 -2.0629 -0.9126 -0.5750
 6417TIP3   OH240885   6.840   3.719   8.675  0.4791  0.0106 -0.4678
 6417TIP3    H140886   6.745   3.715   8.688  0.5672  0.3293  0.2743
 6417TIP3    H240887   6.858   3.646   8.616  0.0843 -1.6265  1.3329
 6418TIP3   OH240888   6.678   2.717   1.435 -0.5290 -0.4953 -0.0566
 6418TIP3    H140889   6.701   2.802   1.398 -2.0801 -0.0456 -0.0775
 6418TIP3    H240890   6.582   2.715   1.432 -0.5248 -2.2840 -0.1369
 6419TIP3   OH240891   4.919   5.194   1.624  0.7766 -0.1267  0.0203
 6419TIP3    H140892   5.009   5.167   1.606  1.2400  0.5565  1.1932
 6419TIP3    H240893   4.910   5.185   1.718  0.2494  1.6520  0.1718
 6420TIP3   OH240894   3.924   3.898   7.911  0.1492 -0.3271 -0.4235
 6420TIP3    H140895   4.010   3.927   7.883  0.4867 -0.2401  0.6778
 6420TIP3    H240896   3.863   3.962   7.873  0.6691  0.3017 -0.2055
 6421TIP3   OH240897   0.625   6.522   8.450 -0.4011 -0.3564 -0.5093
 6421TIP3    H140898   0.656   6.455   8.389 -0.3213  1.0274 -2.0429
 6421TIP3    H240899   0.693   6.589   8.448 -0.2141 -0.4405  1.4226
 6422TIP3   OH240900   5.050   3.403   0.116  0.4218 -0.1607  0.3354
 6422TIP3    H140901   5.070   3.430   0.205 -3.3544  3.1051  0.4738
 6422TIP3    H240902   5.061   3.482   0.063 -2.8115 -0.3609 -0.9161
 6423TIP3   OH240903   1.241   1.374   6.497  0.0876 -0.4362 -0.0592
 6423TIP3    H140904   1.203   1.446   6.549 -2.5186 -2.6829  1.4533
 6423TIP3    H240905   1.181   1.364   6.423  2.6096  1.3438 -2.5074
 6424TIP3   OH240906   5.479   6.612   0.578 -0.1169 -0.4123 -0.1549
 6424TIP3    H140907   5.465   6.641   0.488  0.2714  1.5024  0.3622
 6424TIP3    H240908   5.529   6.683   0.618 -0.9809 -0.8620  1.7957
 6425TIP3   OH240909   3.870   5.928   7.959  0.1104 -0.0740 -0.6229
 6425TIP3    H140910   3.881   5.837   7.933 -1.1416 -0.5185  0.2996
 6425TIP3    H240911   3.878   5.977   7.878  0.3077 -1.0567 -1.2134
 6426TIP3   OH240912   4.847   1.416   7.830 -0.0985 -0.0758 -0.1311
 6426TIP3    H140913   4.889   1.332   7.850 -2.5039 -1.2212  0.5095
 6426TIP3    H240914   4.777   1.424   7.894  0.0631  2.4839 -0.1749
 6427TIP3   OH240915   2.817   0.043   1.587 -0.5854 -0.1033 -0.4774
 6427TIP3    H140916   2.724   0.061   1.597 -0.4665  0.2255  0.0130
 6427TIP3    H240917   2.861   0.109   1.640 -0.0890 -0.5594 -0.3124
 6428TIP3   OH240918   3.833   5.876   8.765 -0.0508 -0.5115  0.6614
 6428TIP3    H140919   3.912   5.824   8.752 -1.5994 -2.6687 -0.6259
 6428TIP3    H240920   3.799   5.847   8.850  0.5864  0.5860  1.3272
 6429TIP3   OH240921   3.414   0.197   7.971 -0.5032  0.2988 -0.1343
 6429TIP3    H140922   3.370   0.164   8.050 -1.8008 -0.7824 -1.2715
 6429TIP3    H240923   3.474   0.127   7.946 -0.0419  0.6726 -0.0908
 6430TIP3   OH240924   4.155   4.261   7.978  0.1961  0.1311 -0.2321
 6430TIP3    H140925   4.181   4.288   7.890 -0.4658  0.7155 -0.2496
 6430TIP3    H240926   4.229   4.209   8.009  0.2026 -0.5589 -1.3444
 6431TIP3   OH240927   4.954   2.506   0.678  0.1740  0.0429  0.6652
 6431TIP3    H140928   4.950   2.445   0.752 -1.9818 -0.7012 -0.0151
 6431TIP3    H240929   4.881   2.566   0.692  1.2490  1.4630  0.4241
 6432TIP3   OH240930   1.407   4.479   0.957 -0.2917  0.2766  0.0241
 6432TIP3    H140931   1.438   4.473   0.866  2.4014 -1.0360  0.9233
 6432TIP3    H240932   1.350   4.404   0.967 -0.7137  0.5008 -0.6109
 6433TIP3   OH240933   5.762   5.291   6.709  0.4436 -0.1227  0.7244
 6433TIP3    H140934   5.702   5.238   6.657 -1.0254  0.8811  1.3311
 6433TIP3    H240935   5.819   5.227   6.752 -1.1750 -1.2453  1.3234
 6434TIP3   OH240936   2.990   3.439   0.760 -0.7130 -0.1411 -0.1488
 6434TIP3    H140937   2.979   3.457   0.667 -0.7665 -0.1928 -0.1523
 6434TIP3    H240938   2.989   3.526   0.802  1.0294  0.0132 -0.3747
 6435TIP3   OH240939   1.528   4.521   6.968  0.1433  0.0281  0.2341
 6435TIP3    H140940   1.447   4.520   6.916  0.4769  0.1683 -0.3027
 6435TIP3    H240941   1.522   4.601   7.020 -0.1864 -0.1009  0.3953
 6436TIP3   OH240942   4.256   2.494   6.567  0.4999 -0.2021  0.0013
 6436TIP3    H140943   4.342   2.521   6.532 -0.1572  1.3923 -0.4912
 6436TIP3    H240944   4.240   2.408   6.527  3.1099 -1.9497  2.3302
 6437TIP3   OH240945   3.572   4.244   7.910  0.2392  0.2123 -0.5419
 6437TIP3    H140946   3.578   4.309   7.840  0.8895 -2.0094 -2.6619
 6437TIP3    H240947   3.661   4.209   7.919 -0.3540 -1.3570 -0.4502
 6438TIP3   OH240948   6.181   2.761   7.167 -0.2969 -0.0014  0.0161
 6438TIP3    H140949   6.170   2.833   7.105  0.2113  1.0918  1.1506
 6438TIP3    H240950   6.097   2.756   7.212 -0.1600  0.2503  0.3043
 6439TIP3   OH240951   1.115   5.412   0.694 -0.5510 -0.4451  0.2551
 6439TIP3    H140952   1.099   5.444   0.783  0.4841 -0.9680  0.6546
 6439TIP3    H240953   1.029   5.408   0.653 -0.9234  0.9319  0.8420
 6440TIP3   OH240954   4.827   0.979   7.897 -0.3160  0.2931  0.4534
 6440TIP3    H140955   4.754   0.991   7.958 -0.2960  1.4749  0.2685
 6440TIP3    H240956   4.810   1.042   7.827 -0.3870 -1.0854 -0.8323
 6441TIP3   OH240957   5.316   3.594   0.158  0.0395 -0.4078 -0.0136
 6441TIP3    H140958   5.287   3.561   0.243 -1.4326 -0.2430 -0.4208
 6441TIP3    H240959   5.378   3.529   0.126 -0.2055 -1.0100  0.7148
 6442TIP3   OH240960   5.919   0.910   1.483 -0.0031 -0.0445 -0.3970
 6442TIP3    H140961   5.951   0.834   1.436 -1.9363 -1.7128  0.7894
 6442TIP3    H240962   5.925   0.982   1.420  2.7062 -0.9164 -1.2642
 6443TIP3   OH240963   3.866   5.364   7.480 -0.1026  0.3643  0.3692
 6443TIP3    H140964   3.938   5.323   7.432  0.1482  1.0694  0.1234
 6443TIP3    H240965   3.813   5.291   7.512 -0.4883 -0.1223 -1.2949
 6444TIP3   OH240966   0.013   5.564   8.095 -0.4422  0.5103  0.2962
 6444TIP3    H140967  -0.047   5.630   8.060 -0.6941  0.2566  0.2417
 6444TIP3    H240968   0.089   5.567   8.037 -1.3734 -0.7710 -1.0794
 6445TIP3   OH240969   5.934   2.715   7.257  0.1042  0.1413  0.1386
 6445TIP3    H140970   5.885   2.793   7.284  1.5985  0.8704  0.8519
 6445TIP3    H240971   5.872   2.666   7.203 -1.0274  1.5743  0.0652
 6446TIP3   OH240972   2.631   0.495   1.812  0.4554  0.3998  0.3252
 6446TIP3    H140973   2.584   0.545   1.879  0.1142  0.0191  0.3770
 6446TIP3    H240974   2.653   0.559   1.745  1.0367  0.8417  0.9268
 6447TIP3   OH240975   5.633   5.392   8.255 -0.0568  0.5832 -0.1646
 6447TIP3    H140976   5.616   5.319   8.314 -0.3871  1.8935  1.4626
 6447TIP3    H240977   5.549   5.437   8.249  0.8987  2.8887  1.9048
 6448TIP3   OH240978   1.402   5.122   6.798 -0.4827 -0.1393 -0.0144
 6448TIP3    H140979   1.314   5.126   6.834 -0.8397  0.2495 -0.9027
 6448TIP3    H240980   1.425   5.029   6.800 -0.6988 -0.1882  0.6868
 6449TIP3   OH240981   6.260   0.609   6.689  0.2299 -0.1493 -0.3632
 6449TIP3    H140982   6.337   0.559   6.663  0.1838 -0.1208 -0.5558
 6449TIP3    H240983   6.294   0.696   6.713  0.2462 -0.1080 -0.5361
 6450TIP3   OH240984   6.718   0.814   0.740 -0.5225  0.2568  0.0061
 6450TIP3    H140985   6.636   0.864   0.740  0.0407  1.2050 -0.6136
 6450TIP3    H240986   6.749   0.818   0.650  0.3559  0.1510  0.2902
 6451TIP3   OH240987   2.511   1.929   8.078 -0.7881  0.2719  0.1057
 6451TIP3    H140988   2.541   1.879   8.154  1.2642  1.4166  0.1217
 6451TIP3    H240989   2.476   2.010   8.115  0.2253  0.8364 -0.1355
 6452TIP3   OH240990   3.488   5.233   8.388  0.0433 -0.1513  0.3034
 6452TIP3    H140991   3.420   5.174   8.356  1.3187 -0.0816 -2.9387
 6452TIP3    H240992   3.450   5.320   8.382 -0.2558 -0.2715  0.4598
 6453TIP3   OH240993   0.840   4.222   0.843 -0.5202  0.0423  0.1266
 6453TIP3    H140994   0.826   4.168   0.920 -0.0339 -2.4188 -1.3818
 6453TIP3    H240995   0.763   4.205   0.788 -1.2945  2.4289  0.3546
 6454TIP3   OH240996   6.533   1.682   7.891  0.3408  0.1508  0.2390
 6454TIP3    H140997   6.492   1.615   7.945 -0.2500 -0.5793 -1.0685
 6454TIP3    H240998   6.460   1.734   7.858  0.4298 -0.9808 -1.8826
 6455TIP3   OH240999   5.417   6.841   2.155  0.4429 -0.2106  1.1731
 6455TIP3    H141000   5.377   6.922   2.185  1.8080  0.8085  0.3463
 6455TIP3    H241001   5.481   6.819   2.223 -0.4222 -1.0144  1.7525
 6456TIP3   OH241002   5.868   3.440   6.804 -0.2385 -0.2975  0.4396
 6456TIP3    H141003   5.837   3.523   6.766  0.2979 -0.3390 -0.0935
 6456TIP3    H241004   5.940   3.466   6.861 -0.1220 -0.3844  0.3329
 6457TIP3   OH241005   2.994   5.437   0.259  0.2839  0.0275 -0.5120
 6457TIP3    H141006   3.012   5.390   0.341  1.0435 -1.8050 -1.6573
 6457TIP3    H241007   3.081   5.464   0.228  0.1018 -0.1735 -1.1993
 6458TIP3   OH241008   4.054   6.066   6.896 -0.1188  0.1214 -0.2784
 6458TIP3    H141009   4.034   6.123   6.822 -0.2616  0.4366  0.0004
 6458TIP3    H241010   4.001   5.988   6.880 -2.1409  1.1906  0.7771
 6459TIP3   OH241011   0.277   4.425   0.705 -0.5322  0.3966  0.5482
 6459TIP3    H141012   0.346   4.367   0.739 -1.0059  0.0427  0.9330
 6459TIP3    H241013   0.291   4.426   0.610 -0.4475 -0.2686  0.5448
 6460TIP3   OH241014   4.132   4.799   8.610  0.4870 -0.2270  0.2342
 6460TIP3    H141015   4.136   4.723   8.668  0.5183  0.0373  0.5821
 6460TIP3    H241016   4.189   4.863   8.652 -0.5713  0.4708  0.6455
 6461TIP3   OH241017   6.189   6.036   7.930 -0.1086 -0.3043  0.2828
 6461TIP3    H141018   6.214   6.103   7.867 -1.9643 -0.3533 -0.5652
 6461TIP3    H241019   6.193   5.954   7.882 -2.3253 -0.2555 -0.0775
 6462TIP3   OH241020   3.091   0.950   2.413 -0.0205  0.4069 -0.6365
 6462TIP3    H141021   3.047   0.947   2.499  1.0095 -1.5812 -0.1105
 6462TIP3    H241022   3.042   0.888   2.359  1.6314 -1.3390 -0.2419
 6463TIP3   OH241023   2.072   2.070   7.537 -0.5757  0.0720  0.3085
 6463TIP3    H141024   2.060   2.059   7.443 -0.7145  0.3463  0.2915
 6463TIP3    H241025   2.043   1.987   7.575  1.1962 -0.7391 -0.0042
 6464TIP3   OH241026   0.270   1.248   7.271  0.3759  0.1275 -0.0707
 6464TIP3    H141027   0.226   1.224   7.190 -0.2483  1.2802 -0.0966
 6464TIP3    H241028   0.204   1.297   7.321  0.8763 -0.2178  0.9596
 6465TIP3   OH241029   4.601   4.175   8.216  0.4559 -0.1339  0.3293
 6465TIP3    H141030   4.580   4.261   8.180  2.9753  0.0092 -0.9827
 6465TIP3    H241031   4.636   4.126   8.142 -0.1186 -2.0343  1.2480
 6466TIP3   OH241032   4.211   6.488   8.768  0.0686 -0.1910  0.1406
 6466TIP3    H141033   4.232   6.532   8.686 -0.5559 -0.0880  0.0277
 6466TIP3    H241034   4.197   6.396   8.743  0.3014 -0.2422  0.1997
 6467TIP3   OH241035   2.028   5.865   1.816 -0.3498 -0.1907 -0.6232
 6467TIP3    H141036   2.089   5.793   1.797  0.8342  0.6053  0.0316
 6467TIP3    H241037   2.070   5.942   1.777 -1.6243  0.1552 -1.3625
 6468TIP3   OH241038   3.239   6.661   0.545 -0.2439 -0.0319 -0.3315
 6468TIP3    H141039   3.252   6.567   0.536 -3.3431 -0.7006  0.7518
 6468TIP3    H241040   3.223   6.674   0.638 -0.1819  1.5321 -0.5147
 6469TIP3   OH241041   3.788   4.316   0.483 -0.4591  0.2430 -0.5024
 6469TIP3    H141042   3.850   4.305   0.555 -1.1524  0.3311  0.1164
 6469TIP3    H241043   3.789   4.410   0.464  0.4673  0.0904 -1.2936
 6470TIP3   OH241044   5.105   6.648   0.585 -0.6132  0.0804  0.4132
 6470TIP3    H141045   5.086   6.689   0.669 -0.3674  0.2699  0.3770
 6470TIP3    H241046   5.126   6.721   0.527 -2.1171  0.0670 -0.1809
 6471TIP3   OH241047   1.756   3.197   8.259  0.2625 -0.0708 -0.6531
 6471TIP3    H141048   1.662   3.190   8.239  0.2073 -3.0137  0.2520
 6471TIP3    H241049   1.759   3.251   8.338 -0.8015 -0.9804  0.0327
 6472TIP3   OH241050   5.597   4.242   1.749 -0.0084  0.5532 -0.4333
 6472TIP3    H141051   5.549   4.218   1.828  1.0036  2.2720  0.7809
 6472TIP3    H241052   5.620   4.334   1.762 -0.1086  1.0089 -2.9066
 6473TIP3   OH241053   6.399   3.565   1.222 -0.3636  0.1187 -0.1075
 6473TIP3    H141054   6.426   3.477   1.198  3.2585  0.7669  1.0691
 6473TIP3    H241055   6.450   3.623   1.164 -0.7248  1.4794  0.8800
 6474TIP3   OH241056   3.804   0.297   2.138 -0.4779  0.2448  0.0991
 6474TIP3    H141057   3.759   0.316   2.221 -1.2445  1.4769 -0.5751
 6474TIP3    H241058   3.872   0.234   2.162 -1.7717 -0.7393  1.3718
 6475TIP3   OH241059   6.411   2.244   1.659 -0.2139 -0.3758  0.2907
 6475TIP3    H141060   6.417   2.248   1.563 -1.3847 -0.1619  0.2156
 6475TIP3    H241061   6.422   2.151   1.679 -0.1027 -0.4413 -0.0639
 6476TIP3   OH241062   3.621   2.277   0.028  0.0414 -0.3126 -0.1430
 6476TIP3    H141063   3.538   2.235   0.050  0.1939 -1.0891 -0.9937
 6476TIP3    H241064   3.683   2.241   0.091 -0.1670 -0.0413  0.2285
 6477TIP3   OH241065   4.066   2.987   8.551  0.4380 -0.3516 -0.0464
 6477TIP3    H141066   4.067   3.080   8.573 -1.9453  0.2066 -1.8577
 6477TIP3    H241067   4.094   2.983   8.460  0.6267 -1.4359  0.0364
 6478TIP3   OH241068   6.351   2.515   1.634  0.3866  0.3488 -0.1137
 6478TIP3    H141069   6.381   2.425   1.650  2.4856  0.8925 -0.7651
 6478TIP3    H241070   6.264   2.503   1.595 -0.0163 -1.3277  1.1636
 6479TIP3   OH241071   0.994   0.591   0.294  0.3782  0.1478 -0.5660
 6479TIP3    H141072   1.085   0.581   0.264  0.4017 -0.3394 -0.3549
 6479TIP3    H241073   0.995   0.670   0.347  0.7221  0.0527 -0.4251
 6480TIP3   OH241074   6.834   2.369   1.788 -0.7286  0.1502  0.8409
 6480TIP3    H141075   6.903   2.433   1.803 -1.5637  1.1642  0.5083
 6480TIP3    H241076   6.753   2.416   1.809 -1.6333  0.2482 -2.3781
 6481TIP3   OH241077   1.128   6.604   1.570 -0.1095  0.2354 -0.9183
 6481TIP3    H141078   1.138   6.532   1.509 -0.1258 -1.2462  0.7506
 6481TIP3    H241079   1.054   6.578   1.626  0.3716  1.1684  0.2006
 6482TIP3   OH241080   6.099   1.889   0.091  0.1256  0.1807  0.0557
 6482TIP3    H141081   6.185   1.859   0.061 -0.8575 -2.7905 -0.1442
 6482TIP3    H241082   6.050   1.907   0.010 -0.7195 -2.3058 -0.0635
 6483TIP3   OH241083   4.661   4.041   1.250 -0.1122 -0.5821  0.1744
 6483TIP3    H141084   4.658   3.985   1.173  1.8952 -0.0112 -0.3720
 6483TIP3    H241085   4.747   4.022   1.290 -0.0120  1.0350  0.7830
 6484TIP3   OH241086   6.573   3.116   7.976  0.1743  0.8655 -0.0661
 6484TIP3    H141087   6.656   3.146   8.015  0.9459 -1.1727 -0.0253
 6484TIP3    H241088   6.596   3.036   7.929 -1.6517  0.6677 -0.6951
 6485TIP3   OH241089   6.313   1.693   1.227 -0.0412  0.7461 -0.0338
 6485TIP3    H141090   6.325   1.787   1.212  0.2710  0.5774 -0.8740
 6485TIP3    H241091   6.325   1.653   1.141  2.5774 -0.3321  0.7385
 6486TIP3   OH241092   4.744   5.232   0.411 -0.2817 -0.1163 -0.4464
 6486TIP3    H141093   4.763   5.138   0.407 -1.5099 -0.3560 -1.2315
 6486TIP3    H241094   4.822   5.273   0.373  1.2401 -0.6346  1.9055
 6487TIP3   OH241095   0.682   5.178   0.994 -0.0316  0.3323 -0.2620
 6487TIP3    H141096   0.766   5.144   1.024 -0.3981 -0.0185  0.3826
 6487TIP3    H241097   0.681   5.269   1.024 -0.4941 -0.0785  1.0324
 6488TIP3   OH241098   5.514   2.015   2.297 -0.0478  0.8221  0.2827
 6488TIP3    H141099   5.484   2.105   2.302 -1.9986  0.4905 -2.8885
 6488TIP3    H241100   5.435   1.962   2.303  0.7667 -0.5384 -0.3754
 6489TIP3   OH241101   3.329   3.033   1.082  0.2699  0.4485  0.0140
 6489TIP3    H141102   3.371   3.119   1.079  3.3912 -0.7081  3.2779
 6489TIP3    H241103   3.252   3.045   1.138  0.9293  1.0978  0.8054
 6490TIP3   OH241104   5.033   5.034   6.887  0.0478  0.2689 -0.4460
 6490TIP3    H141105   5.096   5.095   6.850  1.1120 -0.7063 -0.2953
 6490TIP3    H241106   5.039   5.049   6.982 -0.4217  0.6041 -0.4624
 6491TIP3   OH241107   2.580   1.609   2.753  0.1090 -0.3401  0.1912
 6491TIP3    H141108   2.492   1.609   2.791 -0.7497 -0.3362 -1.7017
 6491TIP3    H241109   2.628   1.543   2.804 -0.9965 -0.3763  1.2245
 6492TIP3   OH241110   2.359   0.890   0.552 -0.3498  0.1889 -0.4372
 6492TIP3    H141111   2.449   0.856   0.554 -0.3410  0.2386  0.2230
 6492TIP3    H241112   2.369   0.983   0.531 -0.3296 -0.0522 -1.5542
 6493TIP3   OH241113   2.448   5.743   0.508 -0.3502 -0.1265  0.0615
 6493TIP3    H141114   2.489   5.673   0.559  0.2484  0.6209  0.6316
 6493TIP3    H241115   2.505   5.753   0.431 -0.3519 -0.1609  0.0557
 6494TIP3   OH241116   0.405   5.012   2.349  0.6085 -0.1198  0.0354
 6494TIP3    H141117   0.476   5.076   2.340  0.8710 -0.4440 -0.2826
 6494TIP3    H241118   0.394   4.977   2.260  1.4907 -1.5773  0.4682
 6495TIP3   OH241119   4.772   4.980   8.502 -0.1256  0.1153  0.2283
 6495TIP3    H141120   4.840   5.027   8.454 -1.1334 -1.1298 -2.6363
 6495TIP3    H241121   4.690   5.011   8.463 -1.3058  1.4242  3.4554
 6496TIP3   OH241122   1.980   4.341   0.376  0.0352 -0.4510  0.0643
 6496TIP3    H141123   1.910   4.275   0.369 -0.1326 -0.3025  0.3003
 6496TIP3    H241124   2.029   4.334   0.295 -1.5726  0.9350 -1.0957
 6497TIP3   OH241125   3.561   3.751   7.549 -0.0982  0.5867 -0.4603
 6497TIP3    H141126   3.646   3.717   7.522  0.4924  0.2827  1.6408
 6497TIP3    H241127   3.538   3.814   7.481  0.9987 -0.5271 -1.9446
 6498TIP3   OH241128   2.382   4.963   1.828 -0.5712 -0.2255  0.5569
 6498TIP3    H141129   2.338   4.944   1.910 -1.2672  1.1331  0.5276
 6498TIP3    H241130   2.463   4.912   1.831 -0.4571  0.0055  2.2091
 6499TIP3   OH241131   5.599   1.706   7.217 -0.7124 -0.0984 -0.0664
 6499TIP3    H141132   5.641   1.731   7.135 -0.7323 -0.3060 -0.1392
 6499TIP3    H241133   5.624   1.615   7.231  0.9306  0.5134  1.1881
 6500TIP3   OH241134   1.216   4.744   1.204  0.0702 -0.1867 -0.0444
 6500TIP3    H141135   1.188   4.749   1.113 -1.3894  0.1551  0.4088
 6500TIP3    H241136   1.306   4.712   1.199  0.5090  1.1595 -1.6696
 6501TIP3   OH241137   4.241   1.333   1.320 -0.1053  0.2984 -0.1108
 6501TIP3    H141138   4.169   1.270   1.316 -1.3128  1.6562 -0.7379
 6501TIP3    H241139   4.282   1.317   1.405 -0.4961 -1.1744 -0.1640
 6502TIP3   OH241140   1.323   4.559   8.082 -0.2109  0.0040 -0.6219
 6502TIP3    H141141   1.308   4.543   7.989 -0.1016 -1.1516 -0.4538
 6502TIP3    H241142   1.346   4.473   8.118  1.9120  0.7862  0.0657
 6503TIP3   OH241143   6.207   2.655   7.785  0.3285  0.2426  0.1967
 6503TIP3    H141144   6.176   2.728   7.733  0.1830 -0.2803 -0.4702
 6503TIP3    H241145   6.302   2.655   7.773  0.1185 -1.2173 -1.9342
 6504TIP3   OH241146   3.739   5.154   0.263 -0.0534  0.1622  0.0638
 6504TIP3    H141147   3.706   5.231   0.217 -1.3613 -0.7186 -0.5187
 6504TIP3    H241148   3.807   5.120   0.206  3.1138  2.7851  1.9116
 6505TIP3   OH241149   4.844   4.700   8.626  0.8255  0.1934  0.0489
 6505TIP3    H141150   4.883   4.751   8.697  0.8395  0.2486  0.0022
 6505TIP3    H241151   4.775   4.757   8.592  0.1664 -0.2272  0.6548
 6506TIP3   OH241152   1.583   4.191   8.356  0.3480 -0.4072 -0.3776
 6506TIP3    H141153   1.665   4.208   8.311 -0.9118  2.1031 -1.9699
 6506TIP3    H241154   1.584   4.250   8.432 -0.2854  0.2261 -0.8494
 6507TIP3   OH241155   0.687   0.353   7.255 -0.1289 -0.1383 -0.3527
 6507TIP3    H141156   0.656   0.349   7.165 -0.3447  2.1859 -0.4211
 6507TIP3    H241157   0.613   0.386   7.305  1.0213  1.8934  0.0970
 6508TIP3   OH241158   4.723   1.678   1.038 -0.1975 -0.3854 -0.4695
 6508TIP3    H141159   4.683   1.762   1.061  0.7133  0.1880 -0.9437
 6508TIP3    H241160   4.654   1.632   0.988 -0.4765  0.3455 -0.7705
 6509TIP3   OH241161   4.692   2.530   8.378 -0.1621 -0.4793 -0.4390
 6509TIP3    H141162   4.766   2.571   8.332  0.0905  1.7567  1.7919
 6509TIP3    H241163   4.615   2.553   8.326  0.0927  2.1458  0.2252
 6510TIP3   OH241164   4.900   0.129   6.624  0.0525 -0.0866  0.7023
 6510TIP3    H141165   4.828   0.184   6.654  0.8691 -0.3599  3.3885
 6510TIP3    H241166   4.960   0.190   6.581 -0.6143  0.5357  0.6328
 6511TIP3   OH241167   0.164   4.862   1.062  0.1262  0.1160 -0.5193
 6511TIP3    H141168   0.218   4.789   1.031  1.1275  0.5823  0.0847
 6511TIP3    H241169   0.226   4.934   1.073 -0.4055  0.3174  1.3425
 6512TIP3   OH241170   4.125   2.630   1.967 -0.2746 -0.2110  0.1719
 6512TIP3    H141171   4.037   2.612   1.936 -0.0725  0.3224 -0.7369
 6512TIP3    H241172   4.124   2.723   1.991 -0.2165 -0.4299  1.0820
 6513TIP3   OH241173   0.508   0.716   7.396 -0.5712 -0.0177 -0.2861
 6513TIP3    H141174   0.581   0.750   7.344 -1.1534 -0.8352 -1.6926
 6513TIP3    H241175   0.453   0.792   7.414 -0.7592  0.1697 -1.5598
 6514TIP3   OH241176   6.858   0.679   8.765 -0.1015 -0.0366 -0.0765
 6514TIP3    H141177   6.902   0.670   8.681 -1.7796 -1.8432 -0.8449
 6514TIP3    H241178   6.914   0.737   8.816  0.4431  1.9962 -2.7836
 6515TIP3   OH241179   1.738   3.844   2.011  0.4153 -0.5375 -0.3374
 6515TIP3    H141180   1.754   3.918   1.952 -0.1497  0.7095  1.0071
 6515TIP3    H241181   1.820   3.833   2.059  0.2851 -0.3139 -0.0569
 6516TIP3   OH241182   2.409   2.925   7.333  0.6300  0.0444  0.0133
 6516TIP3    H141183   2.334   2.948   7.278  0.5514  0.7060  0.3861
 6516TIP3    H241184   2.374   2.863   7.396  0.7055 -0.6681 -0.6392
 6517TIP3   OH241185   0.908   2.085   0.411 -0.1449  0.1404  0.0900
 6517TIP3    H141186   0.856   2.096   0.490 -2.0559 -1.1973 -0.8833
 6517TIP3    H241187   0.912   2.172   0.371 -3.0594  0.0582 -0.5723
 6518TIP3   OH241188   1.401   1.473   1.300  0.8174  0.5471  0.4452
 6518TIP3    H141189   1.456   1.524   1.360  0.5104  0.4431  0.8122
 6518TIP3    H241190   1.404   1.524   1.218  0.6234  1.0879  0.7680
 6519TIP3   OH241191   1.358   0.041   8.226 -0.3363  0.0647 -0.8958
 6519TIP3    H141192   1.355  -0.018   8.150  0.9955  0.4935 -1.3247
 6519TIP3    H241193   1.408  -0.008   8.292 -3.0088 -1.0454  0.4442
 6520TIP3   OH241194   0.243   5.977   0.543 -0.7356 -0.4359  0.0890
 6520TIP3    H141195   0.291   5.963   0.624  0.0515  0.9698 -0.1072
 6520TIP3    H241196   0.309   6.008   0.481 -1.1092 -2.4261 -1.4197
 6521TIP3   OH241197   2.779   0.373   1.351  0.3009  0.0461 -0.7736
 6521TIP3    H141198   2.704   0.428   1.371  1.1619  1.3518 -1.0230
 6521TIP3    H241199   2.742   0.285   1.341 -1.1995  0.6652 -0.9764
 6522TIP3   OH241200   6.238   5.439   1.421 -0.0437  0.2359 -0.0920
 6522TIP3    H141201   6.221   5.466   1.511 -0.2820 -1.6175  0.4496
 6522TIP3    H241202   6.170   5.374   1.402 -0.7597  1.4502 -2.0554
 6523TIP3   OH241203   2.807   1.343   2.622 -0.0159 -0.0775  0.0321
 6523TIP3    H141204   2.817   1.249   2.611  0.2689 -0.3364  2.1208
 6523TIP3    H241205   2.717   1.355   2.652  0.5312  0.0619  1.7442
 6524TIP3   OH241206   6.095   6.483   7.465 -0.4116 -0.1744 -0.3142
 6524TIP3    H141207   6.175   6.518   7.427 -0.7430  1.4321  0.3995
 6524TIP3    H241208   6.117   6.392   7.488  1.1848  0.2390 -0.1425
 6525TIP3   OH241209   6.788   3.898   0.428  0.2007  0.2456 -0.0132
 6525TIP3    H141210   6.751   3.947   0.502 -0.8044 -0.3468 -0.1054
 6525TIP3    H241211   6.821   3.966   0.369  1.6858  0.7049  1.3007
 6526TIP3   OH241212   3.904   4.830   0.152  0.5367  0.2153 -0.5066
 6526TIP3    H141213   3.950   4.866   0.228  1.0620  0.4478 -0.9296
 6526TIP3    H241214   3.817   4.806   0.186  1.3521 -1.3351  0.5805
 6527TIP3   OH241215   1.301   1.715   7.959 -0.2341 -0.3075 -0.2117
 6527TIP3    H141216   1.346   1.797   7.982 -1.7001  0.5004 -0.0846
 6527TIP3    H241217   1.304   1.712   7.863 -0.9003  0.3424 -0.2623
 6528TIP3   OH241218   3.646   0.311   7.135 -0.1720  0.4024  0.2862
 6528TIP3    H141219   3.714   0.325   7.069 -1.5993 -0.0897 -1.3493
 6528TIP3    H241220   3.617   0.399   7.159 -1.9872  0.6172 -2.3292
 6529TIP3   OH241221   4.085   5.539   0.290 -0.2050  0.2482 -0.0820
 6529TIP3    H141222   4.001   5.533   0.245 -1.2227  2.4148  1.2995
 6529TIP3    H241223   4.150   5.511   0.226 -1.8718 -0.3697 -1.5740
 6530TIP3   OH241224   0.159   5.787   7.290 -0.2912 -0.6261 -0.5460
 6530TIP3    H141225   0.093   5.852   7.315  0.4153 -0.0174 -0.2262
 6530TIP3    H241226   0.150   5.779   7.195  1.8218  2.4823 -1.1383
 6531TIP3   OH241227   2.735   3.679   8.025 -0.2711 -0.6126  0.7224
 6531TIP3    H141228   2.657   3.717   8.067 -1.3383  1.3191 -2.6232
 6531TIP3    H241229   2.704   3.596   7.989 -1.0713  0.3894 -1.0546
 6532TIP3   OH241230   4.088   6.243   1.116 -0.3155 -0.3294 -0.2299
 6532TIP3    H141231   4.101   6.191   1.037 -0.2565  0.0639 -0.4783
 6532TIP3    H241232   4.059   6.179   1.182  1.2735 -0.9578 -0.0938
 6533TIP3   OH241233   6.467   2.554   0.164  0.1748 -0.4426 -0.0371
 6533TIP3    H141234   6.375   2.529   0.162  0.4537 -1.6359 -2.3824
 6533TIP3    H241235   6.512   2.482   0.119  1.9380  1.1641 -1.0025
 6534TIP3   OH241236   3.630   2.269   6.868  0.1673  0.0784 -0.0071
 6534TIP3    H141237   3.614   2.271   6.773 -0.0211  1.7978  0.0399
 6534TIP3    H241238   3.725   2.262   6.876  0.2126  0.3323 -0.3181
 6535TIP3   OH241239   0.031   0.653   0.553 -0.3826  0.2261 -0.0289
 6535TIP3    H141240  -0.020   0.718   0.504  2.6460  1.4035 -1.9198
 6535TIP3    H241241   0.085   0.610   0.486 -0.3590 -2.4255  1.5539
 6536TIP3   OH241242   1.853   0.175   1.111  0.3622  0.0214  0.3510
 6536TIP3    H141243   1.928   0.117   1.097 -0.3099 -0.4968 -1.2855
 6536TIP3    H241244   1.838   0.171   1.206  1.7163 -0.7179  0.5592
 6537TIP3   OH241245   5.380   3.406   8.164  0.2124 -0.3265 -0.3636
 6537TIP3    H141246   5.470   3.396   8.135  0.4249  1.4091 -0.4269
 6537TIP3    H241247   5.369   3.342   8.233  1.6163 -0.3091 -0.1078
 6538TIP3   OH241248   1.212   2.091   0.122 -0.4098 -0.1509  0.5018
 6538TIP3    H141249   1.247   2.013   0.165  0.7885 -0.0469 -0.2464
 6538TIP3    H241250   1.284   2.123   0.068 -1.9724 -0.5098 -1.9451
 6539TIP3   OH241251   0.340   2.407   8.694  0.2435  0.3132  0.2621
 6539TIP3    H141252   0.420   2.363   8.723 -0.0553  0.0810  0.7467
 6539TIP3    H241253   0.274   2.383   8.760 -1.3122 -2.7919 -2.1805
 6540TIP3   OH241254   2.955   2.613   1.339 -0.0779  0.0458  0.0700
 6540TIP3    H141255   2.953   2.706   1.362  0.3118  0.3090 -0.9225
 6540TIP3    H241256   2.904   2.606   1.259  1.2861 -0.2957 -0.8118
 6541TIP3   OH241257   2.246   4.483   1.882 -0.3620 -0.1483  0.1539
 6541TIP3    H141258   2.303   4.406   1.891  1.8528  1.3610 -0.2878
 6541TIP3    H241259   2.195   4.485   1.963  0.4150 -1.3926  0.7009
 6542TIP3   OH241260   1.729   4.511   7.838  0.1443  0.1274 -0.5575
 6542TIP3    H141261   1.777   4.469   7.767 -0.1730  1.3010 -1.5101
 6542TIP3    H241262   1.691   4.439   7.888  1.5888 -0.7629 -0.7084
 6543TIP3   OH241263   0.040   3.052   0.503 -0.1256  0.0232 -0.2406
 6543TIP3    H141264   0.102   3.085   0.568 -0.4540  1.3642 -0.5717
 6543TIP3    H241265   0.091   2.991   0.450  0.5797  0.1840  0.2406
 6544TIP3   OH241266   1.734   0.382   0.306 -0.8472 -0.7677  0.1613
 6544TIP3    H141267   1.803   0.316   0.316 -0.1395  0.0749  1.0327
 6544TIP3    H241268   1.725   0.421   0.394 -0.0064  1.4842 -0.6748
 6545TIP3   OH241269   1.403   3.691   0.976 -0.1110  0.6644  0.0440
 6545TIP3    H141270   1.470   3.714   1.040  0.3929 -0.7528  0.0705
 6545TIP3    H241271   1.407   3.761   0.911  2.6312 -0.2260 -0.8862
 6546TIP3   OH241272   3.179   4.237   1.387  0.2473  0.3161  0.3849
 6546TIP3    H141273   3.239   4.259   1.315 -0.9214  1.8958 -0.1486
 6546TIP3    H241274   3.216   4.281   1.463 -1.2828  3.1260 -0.3759
 6547TIP3   OH241275   0.095   3.471   7.093  0.0081  0.4719  0.3465
 6547TIP3    H141276   0.020   3.431   7.049  0.4659  0.4466 -0.4272
 6547TIP3    H241277   0.061   3.552   7.130 -0.0921  1.2160 -1.2696
 6548TIP3   OH241278   6.249   6.315   8.559  0.7723  0.0185 -0.0510
 6548TIP3    H141279   6.194   6.292   8.483  1.6578  0.4364 -0.8313
 6548TIP3    H241280   6.302   6.389   8.529  0.2174  1.0614  1.4071
 6549TIP3   OH241281   0.922   0.076   7.052 -0.7920  0.2214  0.7038
 6549TIP3    H141282   0.902   0.154   7.000 -0.5599  0.5114  1.0486
 6549TIP3    H241283   1.015   0.059   7.035 -1.5324 -1.9543 -2.0163
 6550TIP3   OH241284   0.076   4.801   7.504 -0.0326 -0.5302 -0.7362
 6550TIP3    H141285   0.004   4.739   7.489  0.3983 -1.1050 -0.4717
 6550TIP3    H241286   0.116   4.812   7.418  0.0773 -0.8575 -0.7271
 6551TIP3   OH241287   2.196   2.470   1.776 -0.3365 -0.0669  0.0754
 6551TIP3    H141288   2.123   2.437   1.724  0.0297  0.8368 -1.0365
 6551TIP3    H241289   2.194   2.565   1.764  0.0076  0.1329  1.3934
 6552TIP3   OH241290   4.584   4.556   0.447 -0.4554 -0.2441  0.0955
 6552TIP3    H141291   4.558   4.508   0.368  1.3204  0.1195 -0.7725
 6552TIP3    H241292   4.577   4.492   0.517 -2.7203 -0.3961 -0.1978
 6553TIP3   OH241293   2.539   0.984   1.614  0.1907 -0.2017  0.3222
 6553TIP3    H141294   2.445   0.967   1.605  0.1870 -0.6661  1.0774
 6553TIP3    H241295   2.559   0.959   1.704  1.2059 -0.9221 -0.0819
 6554TIP3   OH241296   2.869   2.205   1.326 -0.5549  0.3940 -0.0394
 6554TIP3    H141297   2.904   2.145   1.392 -0.5711  0.7596  0.3124
 6554TIP3    H241298   2.888   2.163   1.243 -0.1442  0.1235  0.1830
 6555TIP3   OH241299   3.824   0.255   8.165  0.3586 -0.4877 -0.1544
 6555TIP3    H141300   3.777   0.236   8.246  0.4482  1.5781  0.4550
 6555TIP3    H241301   3.915   0.265   8.192  0.1376  2.0227 -0.1117
 6556TIP3   OH241302   1.291   0.305   8.437  0.3228 -0.0415  0.0125
 6556TIP3    H141303   1.203   0.340   8.429  0.5061  0.1815 -1.1867
 6556TIP3    H241304   1.335   0.364   8.498  0.5036  1.6344 -1.6475
 6557TIP3   OH241305   1.575   5.577   1.211 -0.1935  0.1295 -0.6503
 6557TIP3    H141306   1.495   5.583   1.159  0.9136 -1.1523 -2.6170
 6557TIP3    H241307   1.551   5.523   1.286 -0.7977 -1.8088 -2.1482
 6558TIP3   OH241308   1.687   6.748   1.496 -0.3539  0.1632 -0.1803
 6558TIP3    H141309   1.684   6.660   1.533 -0.1470 -0.1998 -1.0113
 6558TIP3    H241310   1.597   6.768   1.472 -0.4825  0.3832  0.4519
 6559TIP3   OH241311   5.286   5.002   0.581  0.6938 -0.0634  0.4234
 6559TIP3    H141312   5.212   5.040   0.630  0.8525 -0.0896  0.6839
 6559TIP3    H241313   5.349   5.073   0.573  0.4208  0.1146 -0.2618
 6560TIP3   OH241314   0.557   2.192   7.250  0.2565 -0.2872  0.9010
 6560TIP3    H141315   0.569   2.245   7.330 -0.4666 -0.3026  1.0307
 6560TIP3    H241316   0.587   2.249   7.179  1.8506 -0.6328  1.2491
 6561TIP3   OH241317   0.332   4.856   0.745 -0.4403 -0.0967  0.3476
 6561TIP3    H141318   0.397   4.852   0.675 -0.9272  1.0507 -0.1859
 6561TIP3    H241319   0.378   4.897   0.818  0.2734 -1.9052  0.9744
 6562TIP3   OH241320   3.480   3.275   1.340 -0.3320  0.1569  0.3228
 6562TIP3    H141321   3.491   3.273   1.245 -0.4863 -1.1062  0.3172
 6562TIP3    H241322   3.491   3.367   1.364  1.6371  0.2302 -0.6910
 6563TIP3   OH241323   6.708   5.782   1.218  0.2996  0.0711 -0.4365
 6563TIP3    H141324   6.738   5.873   1.210  0.5868 -0.0535 -0.8022
 6563TIP3    H241325   6.664   5.779   1.304  0.8521  0.3940 -0.1344
 6564TIP3   OH241326   4.745   5.142   1.367 -0.0773  0.0915 -0.6680
 6564TIP3    H141327   4.796   5.100   1.436  0.3445  1.8411  0.1294
 6564TIP3    H241328   4.655   5.145   1.401 -0.2988 -0.9215 -1.1115
 6565TIP3   OH241329   6.002   3.552   7.728 -0.0700 -0.6641 -0.1772
 6565TIP3    H141330   6.013   3.629   7.784  2.2441 -1.0303 -0.0202
 6565TIP3    H241331   5.908   3.532   7.731 -0.9859  2.8110 -1.1490
 6566TIP3   OH241332   4.661   1.686   7.983  0.2741  0.1508 -0.4700
 6566TIP3    H141333   4.657   1.594   8.012  1.7951  0.2303  0.0590
 6566TIP3    H241334   4.648   1.682   7.889 -1.5823 -0.4143 -0.2384
 6567TIP3   OH241335   6.784   5.606   8.545 -0.3745  0.2715  0.5680
 6567TIP3    H141336   6.727   5.564   8.480 -0.7635  1.0918  0.3714
 6567TIP3    H241337   6.850   5.539   8.566 -1.1662 -0.5440  0.4957
 6568TIP3   OH241338   5.890   5.090   1.076  0.4064  0.2758  0.0394
 6568TIP3    H141339   5.919   5.018   1.020  0.0684 -0.7846  1.1858
 6568TIP3    H241340   5.801   5.109   1.046  0.1582 -0.4127  0.3199
 6569TIP3   OH241341   3.336   2.468   0.952 -0.7306 -0.2723 -0.4795
 6569TIP3    H141342   3.281   2.429   1.020 -1.4173  0.4581 -0.6054
 6569TIP3    H241343   3.420   2.482   0.994 -1.0004 -0.2936  0.0735
 6570TIP3   OH241344   4.563   6.698   8.265  0.4736 -0.0060 -0.2585
 6570TIP3    H141345   4.629   6.654   8.319 -0.2204  0.7441  1.2601
 6570TIP3    H241346   4.516   6.627   8.222 -0.4040 -0.7876  1.8786
 6571TIP3   OH241347   2.504   2.988   0.560  0.1134 -0.6309  0.1999
 6571TIP3    H141348   2.590   3.024   0.539 -0.1260 -0.9900 -1.5120
 6571TIP3    H241349   2.451   3.006   0.483 -1.2596 -0.7340  1.0917
 6572TIP3   OH241350   3.832   5.635   6.586  0.0801 -0.8188  0.1409
 6572TIP3    H141351   3.762   5.663   6.646 -0.6882 -0.1045 -1.0390
 6572TIP3    H241352   3.814   5.683   6.505  1.0113 -1.8495 -0.7070
 6573TIP3   OH241353   6.534   5.812   2.251 -0.3351  0.6428  0.6297
 6573TIP3    H141354   6.524   5.819   2.346 -0.5841 -1.0297  0.7690
 6573TIP3    H241355   6.561   5.721   2.236 -1.0384  0.6493 -0.9474
 6574TIP3   OH241356   0.046   2.116   7.006 -0.1140  0.2393  0.3258
 6574TIP3    H141357   0.054   2.169   7.085 -0.2657  0.2078  0.3638
 6574TIP3    H241358   0.132   2.075   6.994 -0.4726 -0.8265  1.2341
 6575TIP3   OH241359   1.063   0.514   8.642  0.1074 -0.6508  0.5523
 6575TIP3    H141360   1.022   0.487   8.560 -0.1611 -0.4105  0.6058
 6575TIP3    H241361   1.077   0.432   8.690  1.5692 -0.9555 -0.3134
 6576TIP3   OH241362   3.706   0.437   8.479 -0.1602 -0.1211 -0.2039
 6576TIP3    H141363   3.631   0.472   8.430  1.5087  2.0876 -1.4224
 6576TIP3    H241364   3.731   0.358   8.432 -0.7915 -0.0127 -0.7309
 6577TIP3   OH241365   1.046   0.123   0.728 -0.0471  0.4029  0.8787
 6577TIP3    H141366   1.016   0.057   0.666  0.2053 -1.0472  2.2297
 6577TIP3    H241367   1.096   0.185   0.675 -1.2143  0.1201 -0.5983
 6578TIP3   OH241368   2.159   4.900   6.679 -0.3376  0.3647  0.0702
 6578TIP3    H141369   2.075   4.867   6.709 -0.5139  0.9947  0.2990
 6578TIP3    H241370   2.145   4.921   6.586  0.4934 -2.5308 -0.8025
 6579TIP3   OH241371   3.627   4.708   1.653 -0.7463  0.2877 -0.3607
 6579TIP3    H141372   3.690   4.636   1.662 -2.1687 -0.8147  1.7700
 6579TIP3    H241373   3.671   4.771   1.596  3.4839  0.8345  2.9531
 6580TIP3   OH241374   2.474   4.794   6.770  0.2806 -0.0550 -0.4719
 6580TIP3    H141375   2.422   4.764   6.696  1.6723 -0.9218 -1.1279
 6580TIP3    H241376   2.501   4.883   6.745 -0.4637  0.2108 -0.3450
 6581TIP3   OH241377   6.798   5.338   0.475  0.7474  0.2541  0.1086
 6581TIP3    H141378   6.856   5.359   0.548  0.5031  1.4721 -0.0253
 6581TIP3    H241379   6.857   5.331   0.399  0.9845 -0.8859  0.3870
 6582TIP3   OH241380   5.112   1.727   8.501  0.2813 -0.1914  0.1816
 6582TIP3    H141381   5.065   1.693   8.425  1.0527 -1.3322  0.1846
 6582TIP3    H241382   5.184   1.778   8.464 -0.7324  1.3076  0.1774
 6583TIP3   OH241383   6.222   3.407   7.930  0.6837 -0.4777  0.3762
 6583TIP3    H141384   6.166   3.399   8.007  1.4015 -1.0009  0.8662
 6583TIP3    H241385   6.162   3.426   7.858 -0.0568 -0.5174  0.9684
 6584TIP3   OH241386   1.155   0.099   0.366  0.3680  0.1819  0.6490
 6584TIP3    H141387   1.232   0.046   0.344 -0.1755 -0.5155  0.4017
 6584TIP3    H241388   1.183   0.151   0.442  1.9612  1.9335 -1.0467
 6585TIP3   OH241389   0.786   0.947   7.610  0.0045 -0.0581 -0.3438
 6585TIP3    H141390   0.761   1.019   7.552 -0.6999  0.3717  0.4691
 6585TIP3    H241391   0.725   0.877   7.588 -0.6415  0.3004  0.2459
 6586TIP3   OH241392   4.599   5.271   8.632 -0.3779  0.2382 -0.3356
 6586TIP3    H141393   4.610   5.198   8.694  2.4051  0.5296 -0.3603
 6586TIP3    H241394   4.553   5.232   8.558 -0.6789 -0.9904  0.4559
 6587TIP3   OH241395   6.009   3.974   1.900  0.1244  0.8186  0.2030
 6587TIP3    H141396   5.942   4.039   1.878 -1.6951 -0.5806  1.4067
 6587TIP3    H241397   6.008   3.969   1.995  1.5004  0.2682  0.2201
 6588TIP3   OH241398   6.563   3.043   8.567 -0.5294 -0.4581 -0.1450
 6588TIP3    H141399   6.483   3.079   8.605 -0.0911  0.0303  0.3441
 6588TIP3    H241400   6.548   3.045   8.473 -0.4634  1.2250 -0.1625
 6589TIP3   OH241401   0.191   1.989   1.242  0.1153 -0.1584  0.2519
 6589TIP3    H141402   0.192   1.917   1.306  1.0512 -0.0118  0.4147
 6589TIP3    H241403   0.186   2.068   1.296 -1.9464 -0.0799  0.0587
 6590TIP3   OH241404   1.822   0.419   6.856 -0.2190  0.0507  0.1322
 6590TIP3    H141405   1.757   0.454   6.916 -2.6610 -0.3699 -2.0975
 6590TIP3    H241406   1.817   0.476   6.779  3.1405  0.8739  0.3342
 6591TIP3   OH241407   1.611   6.002   6.865  0.0282 -0.3251  0.3169
 6591TIP3    H141408   1.651   5.915   6.866 -0.3925 -0.5196  0.6225
 6591TIP3    H241409   1.684   6.062   6.853  0.1743 -0.8054 -1.4482
 6592TIP3   OH241410   4.662   0.745   1.940 -0.4846 -0.0596 -0.5071
 6592TIP3    H141411   4.615   0.662   1.952  0.8888 -1.0310 -1.3902
 6592TIP3    H241412   4.611   0.792   1.874 -1.5689  0.0434  0.3856
 6593TIP3   OH241413   1.496   5.294   8.275  0.5439  0.9234 -0.0756
 6593TIP3    H141414   1.411   5.323   8.243 -0.5691  0.0005  1.8276
 6593TIP3    H241415   1.511   5.347   8.354  0.6820 -0.3797  0.8088
 6594TIP3   OH241416   0.457   4.504   1.038  0.1304 -0.3560  0.4729
 6594TIP3    H141417   0.507   4.510   0.957  1.6779  0.6384  1.4510
 6594TIP3    H241418   0.366   4.522   1.012  0.6835  0.5138 -0.9609
 6595TIP3   OH241419   5.272   0.673   7.850 -0.1154 -0.4811  0.4248
 6595TIP3    H141420   5.313   0.642   7.931  2.7968  1.9685  0.0556
 6595TIP3    H241421   5.235   0.758   7.872  1.4825  0.6291 -0.9314
 6596TIP3   OH241422   4.763   6.626   8.651 -0.3582  0.0458 -0.0826
 6596TIP3    H141423   4.783   6.685   8.579 -3.8515 -0.9722 -2.1401
 6596TIP3    H241424   4.848   6.604   8.688  1.5672  1.4355 -3.2359
 6597TIP3   OH241425   6.575   6.315   8.757  0.2755  0.1142  0.4593
 6597TIP3    H141426   6.545   6.244   8.814 -0.4905  0.9169  1.0942
 6597TIP3    H241427   6.532   6.393   8.792 -1.8554  0.3802 -2.3591
 6598TIP3   OH241428   3.794   3.862   1.966 -0.3078  0.6963 -0.4469
 6598TIP3    H141429   3.772   3.859   2.059 -1.0609 -0.1658 -0.6445
 6598TIP3    H241430   3.803   3.956   1.947 -0.4039  0.8898  0.4234
 6599TIP3   OH241431   3.279   5.131   0.835 -0.1027 -0.2080 -0.1379
 6599TIP3    H141432   3.250   5.043   0.813 -1.2722  0.0267  0.3576
 6599TIP3    H241433   3.198   5.182   0.839  0.5204  0.8004 -0.0451
 6600TIP3   OH241434   1.259   2.454   1.094  0.1107 -0.2091  0.2456
 6600TIP3    H141435   1.308   2.512   1.036 -0.6734  0.5524  0.3277
 6600TIP3    H241436   1.192   2.415   1.039 -0.0146 -0.2440  0.4216
 6601TIP3   OH241437   0.732   0.389   8.754 -0.4009  0.0617  0.1070
 6601TIP3    H141438   0.678   0.404   8.676 -1.6488 -0.9501  0.7393
 6601TIP3    H241439   0.733   0.294   8.764  0.3243  0.1481  0.9363
 6602TIP3   OH241440   1.067   5.438   1.881 -0.4945  0.1600 -0.5336
 6602TIP3    H141441   1.060   5.402   1.969  0.7734  1.2021  0.0312
 6602TIP3    H241442   1.161   5.448   1.866 -0.7072  0.4417 -1.8260
 6603TIP3   OH241443   0.595   3.919   6.949 -0.3560  0.2904  0.0259
 6603TIP3    H141444   0.628   3.902   6.861 -0.5439 -0.7213  0.1347
 6603TIP3    H241445   0.546   3.840   6.972  0.0372  0.3565  1.1917
 6604TIP3   OH241446   5.301   0.084   0.697  0.3917 -0.4415 -0.5367
 6604TIP3    H141447   5.386   0.110   0.662 -0.2875  0.5921 -1.5094
 6604TIP3    H241448   5.244   0.080   0.620 -1.2857  2.3953  0.3915
 6605TIP3   OH241449   5.764   1.962   8.763  0.1124 -0.0918  0.0784
 6605TIP3    H141450   5.689   1.925   8.715 -0.7872  0.1185  1.2813
 6605TIP3    H241451   5.840   1.931   8.715 -0.7571  0.4371 -1.7110
 6606TIP3   OH241452   2.005   5.539   8.398 -0.2434 -0.3098 -0.3731
 6606TIP3    H141453   2.079   5.499   8.352  0.1830  0.7669 -0.6602
 6606TIP3    H241454   1.964   5.467   8.445  0.7911 -0.9900 -0.4744
 6607TIP3   OH241455   0.818   6.847   1.068 -0.0128  0.0112  0.1167
 6607TIP3    H141456   0.750   6.871   1.005 -0.0995 -0.7096 -0.0705
 6607TIP3    H241457   0.822   6.922   1.128  0.7243  1.1523 -1.2630
 6608TIP3   OH241458   5.035   6.762   1.320 -0.0153 -0.9634 -0.0541
 6608TIP3    H141459   4.976   6.760   1.395  1.6846  0.8720  1.4642
 6608TIP3    H241460   5.099   6.692   1.338  0.5653 -0.3322  0.4291
 6609TIP3   OH241461   2.014   6.192   0.589  0.0085  0.4181  0.1391
 6609TIP3    H141462   2.074   6.168   0.519  0.8476  0.7667  0.7258
 6609TIP3    H241463   1.942   6.238   0.545  0.3497  0.3197 -0.5235
 6610TIP3   OH241464   1.206   6.117   1.341 -0.1274 -0.1341  0.2141
 6610TIP3    H141465   1.119   6.089   1.314  0.1798  0.6626 -1.8380
 6610TIP3    H241466   1.222   6.073   1.424 -2.0793 -1.0765  0.1248
 6611TIP3   OH241467   6.494   6.195   6.507  0.4876  0.2791 -0.0559
 6611TIP3    H141468   6.491   6.123   6.444  3.1659 -1.7228  1.8630
 6611TIP3    H241469   6.417   6.182   6.562  1.5709 -2.1041  1.0756
 6612TIP3   OH241470   5.490   1.346   8.164  0.7960 -0.3813 -0.7042
 6612TIP3    H141471   5.486   1.326   8.257 -0.4408  0.2997 -0.5840
 6612TIP3    H241472   5.530   1.433   8.159 -0.6229  0.3124 -0.6521
 6613TIP3   OH241473   3.492   2.290   6.056  0.0584  0.0955 -0.8454
 6613TIP3    H141474   3.557   2.322   6.119 -0.2371  1.4572 -1.2015
 6613TIP3    H241475   3.526   2.318   5.971 -1.0193  0.9250 -1.0304
 6614TIP3   OH241476   0.836   5.639   7.566  0.1628  0.2588 -0.1218
 6614TIP3    H141477   0.766   5.575   7.579 -0.3541  0.6706 -0.8327
 6614TIP3    H241478   0.916   5.590   7.583 -0.3201  0.2351  2.6060
 6615TIP3   OH241479   1.669   2.607   0.235 -0.3434 -0.1675 -0.0024
 6615TIP3    H141480   1.728   2.670   0.193  0.1503  0.9465  2.1932
 6615TIP3    H241481   1.591   2.659   0.258 -0.9254 -0.9255 -0.2319
 6616TIP3   OH241482   0.240   5.570   0.491 -0.1060 -0.2581 -0.4056
 6616TIP3    H141483   0.258   5.496   0.433  1.0499  1.1241 -1.9005
 6616TIP3    H241484   0.240   5.532   0.578 -1.0197 -2.2641 -1.2087
 6617TIP3   OH241485   3.116   4.557   0.279  0.4684  0.7736  0.4318
 6617TIP3    H141486   3.112   4.578   0.372  0.8773  0.9236  0.4192
 6617TIP3    H241487   3.054   4.618   0.238 -1.1390 -0.5436  0.8032
 6618TIP3   OH241488   4.633   6.076   1.182 -0.3191 -0.1381  0.1227
 6618TIP3    H141489   4.589   5.995   1.204 -0.1693 -0.2213  0.1208
 6618TIP3    H241490   4.647   6.071   1.087  0.2606 -0.4025  0.2151
 6619TIP3   OH241491   1.962   6.529   6.462 -0.5549  0.0168 -0.2445
 6619TIP3    H141492   1.871   6.512   6.439 -1.2684  1.2860  1.3970
 6619TIP3    H241493   2.003   6.443   6.468 -2.5082 -0.8450  2.2025
 6620TIP3   OH241494   1.211   4.261   8.536 -0.0375 -0.1513  0.6878
 6620TIP3    H141495   1.219   4.221   8.450  0.1221  0.0670  0.5983
 6620TIP3    H241496   1.302   4.279   8.562 -0.1698  1.8635 -0.0888
 6621TIP3   OH241497   3.859   6.405   0.140  0.0662  0.4899  0.0813
 6621TIP3    H141498   3.846   6.345   0.066  0.9046 -1.0824  1.1352
 6621TIP3    H241499   3.905   6.480   0.102 -0.3883  0.1656 -1.1612
 6622TIP3   OH241500   3.424   0.845   0.993  0.4008 -0.6173 -0.2595
 6622TIP3    H141501   3.494   0.904   1.021  0.7254 -1.2841  0.3609
 6622TIP3    H241502   3.351   0.903   0.971  1.0888  0.0762 -0.7604
 6623TIP3   OH241503   4.801   4.155   0.685 -1.1113 -0.7292  0.0830
 6623TIP3    H141504   4.758   4.194   0.609 -0.8158 -2.8988 -1.2707
 6623TIP3    H241505   4.865   4.094   0.648 -0.2536 -1.1334  2.0887
 6624TIP3   OH241506   3.188   6.788   7.008  0.4996 -0.4738  0.5507
 6624TIP3    H141507   3.167   6.767   6.917 -2.5691  0.9148  0.8164
 6624TIP3    H241508   3.108   6.827   7.043  1.3698 -1.4397  4.0353
 6625TIP3   OH241509   5.942   2.760   0.296  0.1502  0.0382 -0.3507
 6625TIP3    H141510   5.918   2.790   0.208 -0.6122  0.5950  0.0269
 6625TIP3    H241511   6.016   2.702   0.283 -0.5878 -0.6796 -1.4649
 6626TIP3   OH241512   1.309   3.235   0.238  0.2835  0.5229  0.0519
 6626TIP3    H141513   1.337   3.269   0.153  0.4577 -0.5904 -0.3525
 6626TIP3    H241514   1.247   3.166   0.217 -0.0388  0.5563  0.8564
 6627TIP3   OH241515   6.481   3.011   1.501  0.3650 -0.3766  0.3643
 6627TIP3    H141516   6.551   3.075   1.486 -0.9877  0.6653 -2.0925
 6627TIP3    H241517   6.452   3.029   1.591  2.2840  0.1105  0.9315
 6628TIP3   OH241518   1.095   2.035   1.060  0.2874 -0.5877 -0.8504
 6628TIP3    H141519   1.100   1.941   1.075  1.4516 -0.2228  1.3256
 6628TIP3    H241520   1.001   2.054   1.061  0.0000 -1.7887 -2.0214
 6629TIP3   OH241521   6.648   2.906   8.232  0.3917  0.2026 -0.1731
 6629TIP3    H141522   6.620   2.984   8.279  1.2011 -0.2650  1.1423
 6629TIP3    H241523   6.575   2.885   8.174  0.6712  2.6479 -1.5286
 6630TIP3   OH241524   2.616   2.310   7.456  0.3186 -0.5317  0.1565
 6630TIP3    H141525   2.635   2.256   7.380  0.7972 -1.2846  0.7930
 6630TIP3    H241526   2.525   2.290   7.478  0.0332  0.0288 -0.4717
 6631TIP3   OH241527   3.495   3.550   0.789 -0.5228  0.0748  0.1662
 6631TIP3    H141528   3.547   3.555   0.869  0.6861 -0.8312 -0.5333
 6631TIP3    H241529   3.515   3.464   0.752 -0.5817  0.7080 -1.4204
 6632TIP3   OH241530   3.888   1.555   1.789  0.1146  0.0977 -0.2772
 6632TIP3    H141531   3.966   1.605   1.763 -0.9407  2.0524  0.1680
 6632TIP3    H241532   3.854   1.521   1.706  0.9356 -0.0328 -0.5748
 6633TIP3   OH241533   0.733   1.820   7.672 -0.3887 -0.5840 -0.2971
 6633TIP3    H141534   0.781   1.752   7.626 -0.7203 -1.3081  0.4018
 6633TIP3    H241535   0.710   1.780   7.756  1.7065  1.2372  1.2497
 6634TIP3   OH241536   3.189   0.951   8.163 -0.0490  0.1471  0.2661
 6634TIP3    H141537   3.234   1.035   8.147 -0.3726  0.0973 -0.9502
 6634TIP3    H241538   3.096   0.970   8.150 -0.3721  0.0822  2.1069
 6635TIP3   OH241539   0.711   5.970   7.914 -0.5367  0.0595  0.7733
 6635TIP3    H141540   0.696   5.896   7.855 -0.1579 -0.2090  1.0054
 6635TIP3    H241541   0.624   6.004   7.933 -1.1301 -2.4807  3.4336
 6636TIP3   OH241542   6.582   6.079   1.839  0.3804 -0.0771 -0.3823
 6636TIP3    H141543   6.610   6.146   1.776  1.4504  0.1333  0.2876
 6636TIP3    H241544   6.631   6.001   1.814 -1.0168 -0.6951 -1.2850
 6637TIP3   OH241545   5.631   4.237   7.313  0.0766 -0.5504 -0.0271
 6637TIP3    H141546   5.593   4.158   7.275 -1.2149 -0.1984  0.4893
 6637TIP3    H241547   5.610   4.306   7.250  2.0494 -0.7446 -0.9633
 6638TIP3   OH241548   0.289   2.853   2.006 -0.1582  0.4715  0.0505
 6638TIP3    H141549   0.355   2.804   1.957  0.5269  0.8893  0.5245
 6638TIP3    H241550   0.307   2.945   1.984 -0.2203  0.6231  0.6155
 6639TIP3   OH241551   5.059   3.324   0.759 -0.0301 -0.0960  0.1821
 6639TIP3    H141552   5.020   3.239   0.782  1.4713 -0.1871  2.6973
 6639TIP3    H241553   4.985   3.378   0.732 -1.4773 -1.2232  1.7010
 6640TIP3   OH241554   3.255   5.104   8.342  0.1703 -0.7028 -0.2060
 6640TIP3    H141555   3.190   5.135   8.279  0.7566 -0.3637 -0.6674
 6640TIP3    H241556   3.207   5.046   8.400 -0.6977  0.1028 -0.0912
 6641TIP3   OH241557   4.200   0.267   8.482 -0.1599  0.1071 -0.3538
 6641TIP3    H141558   4.269   0.214   8.523 -0.0479 -0.2529 -0.9891
 6641TIP3    H241559   4.123   0.210   8.482  0.0394 -0.1962 -1.3165
 6642TIP3   OH241560   4.222   6.178   2.203 -0.2639 -0.6924 -0.5857
 6642TIP3    H141561   4.225   6.273   2.207 -1.0781 -0.4691 -3.1295
 6642TIP3    H241562   4.269   6.148   2.281  2.5487  1.7638 -1.1892
 6643TIP3   OH241563   3.169   6.638   0.808  0.1070 -0.2377 -0.0440
 6643TIP3    H141564   3.140   6.547   0.805  2.9072 -1.1967 -0.3986
 6643TIP3    H241565   3.248   6.637   0.862  0.9431  1.7580 -1.1128
 6644TIP3   OH241566   0.687   5.189   6.838 -0.0583 -0.3728  0.0628
 6644TIP3    H141567   0.648   5.258   6.784 -0.6202 -1.5235 -1.0368
 6644TIP3    H241568   0.779   5.188   6.811 -0.3765 -1.0724 -1.0369
 6645TIP3   OH241569   1.691   2.276   7.249 -0.0000 -0.0907  0.4156
 6645TIP3    H141570   1.733   2.190   7.254 -0.4567 -0.4020 -0.8033
 6645TIP3    H241571   1.599   2.257   7.228  0.0898  0.7014 -0.8175
 6646TIP3   OH241572   6.043   4.292   0.013 -0.1806 -0.5724 -0.2661
 6646TIP3    H141573   6.091   4.375   0.015 -1.9889  0.6923 -2.7303
 6646TIP3    H241574   5.975   4.303   0.080 -1.4659  0.7555 -1.6952
 6647TIP3   OH241575   2.341   4.535   0.493 -0.2902  0.2554 -0.3904
 6647TIP3    H141576   2.408   4.511   0.556  0.5567  2.1843 -0.5121
 6647TIP3    H241577   2.273   4.579   0.544 -0.2643  0.5725 -0.6274
 6648TIP3   OH241578   5.329   2.795   0.167 -0.3283  0.5290 -0.3427
 6648TIP3    H141579   5.316   2.744   0.087 -2.4023  0.1853  0.1575
 6648TIP3    H241580   5.366   2.878   0.137  0.7506 -0.3098 -1.4252
 6649TIP3   OH241581   6.626   1.361   1.274 -0.3032 -0.1956  0.2699
 6649TIP3    H141582   6.639   1.438   1.330 -0.0370  1.4322 -1.8841
 6649TIP3    H241583   6.534   1.366   1.247  0.4080  1.1948 -2.2408
 6650TIP3   OH241584   3.777   2.579   8.064 -0.1070  0.3033  0.5367
 6650TIP3    H141585   3.835   2.556   7.992  0.0547 -0.2786  0.8472
 6650TIP3    H241586   3.689   2.573   8.026 -0.0506 -0.5557  0.5382
 6651TIP3   OH241587   3.847   0.709   8.639 -0.3347  0.2522  0.9060
 6651TIP3    H141588   3.889   0.691   8.723  1.3199 -2.1245 -0.3242
 6651TIP3    H241589   3.919   0.707   8.576 -1.8679 -0.5716 -0.8891
 6652TIP3   OH241590   5.637   1.147   8.052  0.3484 -0.9226  0.5680
 6652TIP3    H141591   5.598   1.228   8.085  0.9142  0.2651 -1.4702
 6652TIP3    H241592   5.566   1.082   8.057 -0.9216  0.3554 -0.0594
 6653TIP3   OH241593   4.353   2.056   0.796  0.2358  0.5351 -0.1051
 6653TIP3    H141594   4.311   2.141   0.810  1.0735  0.9744 -0.2467
 6653TIP3    H241595   4.339   2.009   0.879 -2.4724 -0.1967 -0.8666
 6654TIP3   OH241596   5.901   5.309   8.451 -0.0143 -0.1861 -0.0751
 6654TIP3    H141597   5.870   5.399   8.440  0.3239 -0.3464 -2.8200
 6654TIP3    H241598   5.860   5.280   8.533 -0.2067  2.3850  0.8413
 6655TIP3   OH241599   3.102   5.256   6.967  0.4163 -0.0985 -0.3089
 6655TIP3    H141600   3.061   5.184   7.015  1.8828  1.1412  3.1048
 6655TIP3    H241601   3.067   5.335   7.007  1.0798  1.0769 -1.9466
 6656TIP3   OH241602   5.108   2.160   8.155  0.3262 -0.3231  0.5217
 6656TIP3    H141603   5.054   2.239   8.148 -0.3906 -0.8290  0.1789
 6656TIP3    H241604   5.173   2.170   8.085 -0.2890 -0.4329 -0.0688
 6657TIP3   OH241605   0.898   6.350   2.384 -0.6588  0.0391 -0.0058
 6657TIP3    H141606   0.946   6.321   2.307  1.1874  0.8410  0.7962
 6657TIP3    H241607   0.895   6.445   2.376  1.0223  0.2795  1.6921
 6658TIP3   OH241608   4.774   6.226   0.809  0.0883  0.6144 -0.0120
 6658TIP3    H141609   4.831   6.158   0.845  0.1038  0.4857 -0.2730
 6658TIP3    H241610   4.692   6.182   0.790  0.2746  0.5392 -0.6863
 6659TIP3   OH241611   2.103   0.805   2.853 -0.7391  0.5004 -0.4399
 6659TIP3    H141612   2.022   0.781   2.808 -0.2407 -2.3615 -0.0295
 6659TIP3    H241613   2.076   0.869   2.918 -2.3541  0.8835 -1.4327
 6660TIP3   OH241614   6.323   2.156   7.638  0.4170 -0.3519  0.6560
 6660TIP3    H141615   6.342   2.117   7.552 -0.4193 -0.3968  0.4893
 6660TIP3    H241616   6.300   2.082   7.694  1.0399 -0.3311  0.9489
 6661TIP3   OH241617   3.859   4.182   7.906  0.0849 -0.0916 -1.2527
 6661TIP3    H141618   3.840   4.270   7.874 -0.6342  0.1043 -0.3434
 6661TIP3    H241619   3.940   4.192   7.956 -0.2195  0.1551 -0.7956
 6662TIP3   OH241620   3.888   1.321   7.989  0.2528  0.1970 -0.4647
 6662TIP3    H141621   3.885   1.387   8.059  2.7046  1.5338 -1.4835
 6662TIP3    H241622   3.975   1.282   7.997  0.0714 -0.5634 -1.9295
 6663TIP3   OH241623   1.478   0.639   2.330  0.1076 -0.4058  0.4369
 6663TIP3    H141624   1.514   0.581   2.263 -0.1865  0.2330 -0.2935
 6663TIP3    H241625   1.387   0.613   2.339 -0.8960  1.8125 -2.0839
 6664TIP3   OH241626   0.241   2.511   1.449  0.3993  0.7418 -0.5775
 6664TIP3    H141627   0.150   2.524   1.478  0.5590  0.9249 -0.1597
 6664TIP3    H241628   0.285   2.593   1.469  0.7225  0.5643 -0.5531
 6665TIP3   OH241629   4.182   0.326   8.765 -0.0006 -0.1483  0.3769
 6665TIP3    H141630   4.164   0.331   8.671 -1.0568  1.5089  0.6212
 6665TIP3    H241631   4.106   0.281   8.801 -0.3355  0.5494  0.5786
 6666TIP3   OH241632   6.196   1.339   0.371  0.0634  0.3495 -0.1134
 6666TIP3    H141633   6.187   1.346   0.466 -1.0841 -2.0532  0.0185
 6666TIP3    H241634   6.167   1.424   0.338  1.0978  1.4638  1.6831
 6667TIP3   OH241635   4.555   2.899   0.907 -0.4629  0.3234 -0.2296
 6667TIP3    H141636   4.506   2.823   0.875  1.3185 -0.8717 -0.2636
 6667TIP3    H241637   4.521   2.973   0.856 -0.8011 -0.8072 -1.7141
 6668TIP3   OH241638   1.900   3.701   1.190 -0.7164 -0.1537 -0.0932
 6668TIP3    H141639   1.877   3.676   1.279  0.4844 -1.6381 -0.1521
 6668TIP3    H241640   1.821   3.685   1.139 -0.5015 -2.4103  0.1785
 6669TIP3   OH241641   3.804   1.368   1.963  0.0821 -0.3912  0.1097
 6669TIP3    H141642   3.834   1.432   1.898 -2.0196  0.4309 -0.1380
 6669TIP3    H241643   3.797   1.418   2.044 -2.5035  0.0511 -0.2939
 6670TIP3   OH241644   1.156   0.895   7.377  0.2870  0.1685 -0.0100
 6670TIP3    H141645   1.127   0.805   7.365 -2.2214  0.8319  0.3900
 6670TIP3    H241646   1.221   0.909   7.308  0.0389 -1.6480 -0.6710
 6671TIP3   OH241647   5.574   3.196   7.790 -0.0607  0.2141  0.2655
 6671TIP3    H141648   5.579   3.138   7.866 -1.1195  0.9024  0.8840
 6671TIP3    H241649   5.545   3.280   7.826 -2.4203  0.0800 -1.1132
 6672TIP3   OH241650   1.833   6.347   2.919  0.0099  0.1343  0.0083
 6672TIP3    H141651   1.782   6.408   2.865 -2.4283 -0.8561  1.0507
 6672TIP3    H241652   1.853   6.274   2.861  0.1389  0.4727 -0.3786
 6673TIP3   OH241653   0.919   2.011   7.548  0.6162 -0.2822  0.7476
 6673TIP3    H141654   0.981   2.002   7.620 -0.9557  1.6983  2.5058
 6673TIP3    H241655   0.841   1.963   7.578  0.8504 -1.8271 -0.9397
 6674TIP3   OH241656   1.693   5.839   1.166 -0.1311  0.0350 -0.1697
 6674TIP3    H141657   1.691   5.831   1.071  0.3546 -4.5687 -0.0485
 6674TIP3    H241658   1.651   5.759   1.197  1.5400  0.3827  3.4672
 6675TIP3   OH241659   3.551   4.178   2.361 -0.5621 -0.0313 -0.0159
 6675TIP3    H141660   3.625   4.223   2.320 -0.1348  1.3710  2.0840
 6675TIP3    H241661   3.591   4.126   2.431 -1.3993 -0.8968 -0.1621
 6676TIP3   OH241662   4.405   6.850   2.451 -0.4177  0.4389 -0.5311
 6676TIP3    H141663   4.354   6.769   2.455 -1.4065  1.1054  0.4658
 6676TIP3    H241664   4.491   6.825   2.485 -0.3458 -0.4572 -1.3242
 6677TIP3   OH241665   0.597   0.402   7.001  0.5774 -0.1630 -0.3428
 6677TIP3    H141666   0.621   0.479   6.949 -0.4850  0.1480 -0.3923
 6677TIP3    H241667   0.509   0.422   7.034  0.8913 -0.7192  0.8754
 6678TIP3   OH241668   3.262   4.145   1.824  0.3194  0.7113 -0.3282
 6678TIP3    H141669   3.333   4.084   1.804  0.1784  0.3713  0.1933
 6678TIP3    H241670   3.306   4.221   1.862  0.5199  1.0531 -1.2197
 6679TIP3   OH241671   2.142   5.977   0.129  0.3846 -0.5127  0.1473
 6679TIP3    H141672   2.149   6.046   0.062  0.5985 -0.9228 -0.2611
 6679TIP3    H241673   2.232   5.959   0.153  0.2868 -0.0627  0.8724
 6680TIP3   OH241674   2.112   2.398   7.199  0.8193 -0.5938 -0.0665
 6680TIP3    H141675   2.202   2.366   7.190  1.0997  0.3778 -0.8876
 6680TIP3    H241676   2.068   2.370   7.118  0.8815  0.4421 -0.4777
 6681TIP3   OH241677   2.187   3.976   7.125  0.0640 -0.8427  0.4716
 6681TIP3    H141678   2.212   3.942   7.211  2.2869  1.1159  0.7014
 6681TIP3    H241679   2.122   4.044   7.144  1.1100  0.1121  0.7087
 6682TIP3   OH241680   1.971   0.074   7.560 -0.3092  0.6565 -0.5806
 6682TIP3    H141681   2.064   0.062   7.575 -0.3632  0.0214 -0.7131
 6682TIP3    H241682   1.949   0.010   7.492 -0.5959  1.6386 -1.4509
 6683TIP3   OH241683   3.377   4.780   1.565  0.4009  0.1075  0.4341
 6683TIP3    H141684   3.464   4.740   1.564 -0.1178 -1.4858  3.9930
 6683TIP3    H241685   3.334   4.746   1.487  1.8994 -1.7255  0.3262
 6684TIP3   OH241686   1.487   6.146   1.572  0.1091  0.0509 -0.1858
 6684TIP3    H141687   1.536   6.192   1.640  0.5347 -1.7481  0.7796
 6684TIP3    H241688   1.505   6.053   1.587 -1.7788 -0.5494 -1.2353
 6685TIP3   OH241689   5.278   1.479   8.449  0.1766  0.5843  0.2676
 6685TIP3    H141690   5.226   1.436   8.381  0.4981  0.7722 -0.1026
 6685TIP3    H241691   5.244   1.568   8.452  0.3827  0.6706  0.1158
 6686TIP3   OH241692   2.979   0.819   1.621 -0.1987  0.3711 -0.2412
 6686TIP3    H141693   2.964   0.885   1.688 -1.3355 -1.3357  1.2790
 6686TIP3    H241694   2.906   0.758   1.630  1.1747 -1.5081 -1.0706
 6687TIP3   OH241695   2.603   4.443   7.077 -0.8183 -0.4482 -0.0783
 6687TIP3    H141696   2.587   4.367   7.020  0.1453  0.0298 -1.0402
 6687TIP3    H241697   2.669   4.494   7.029 -0.6410  0.4295  1.0751
 6688TIP3   OH241698   0.034   6.175   0.490 -0.1534  0.4184  0.4472
 6688TIP3    H141699   0.107   6.116   0.508  0.3732  1.1523  0.7684
 6688TIP3    H241700  -0.002   6.144   0.407  0.0695 -0.3894  0.6375
 6689TIP3   OH241701   6.317   0.884   2.490 -0.1421 -0.3401 -0.0176
 6689TIP3    H141702   6.231   0.854   2.518 -0.3061  1.2904  1.3190
 6689TIP3    H241703   6.311   0.979   2.489  0.9378 -0.2251 -2.2953
 6690TIP3   OH241704   1.269   6.386   7.949  0.4166 -0.1496 -0.3215
 6690TIP3    H141705   1.349   6.378   8.001  0.0068  0.3616  0.3979
 6690TIP3    H241706   1.239   6.295   7.937  1.1403 -0.3470 -0.6583
 6691TIP3   OH241707   4.663   2.842   7.620 -0.3089 -0.6800 -0.5878
 6691TIP3    H141708   4.756   2.867   7.616 -0.1825 -1.1537 -0.6879
 6691TIP3    H241709   4.636   2.834   7.529 -0.4455 -0.5609 -0.5584
 6692TIP3   OH241710   6.366   0.345   6.886  0.2450 -0.0795 -0.2693
 6692TIP3    H141711   6.354   0.434   6.919 -0.0106 -0.6965  1.4006
 6692TIP3    H241712   6.412   0.357   6.803  0.9186  1.5734  0.2887
 6693TIP3   OH241713   4.212   5.227   1.910 -0.9718  0.6526 -0.0055
 6693TIP3    H141714   4.222   5.233   2.005 -2.2109  1.0525  0.1135
 6693TIP3    H241715   4.299   5.203   1.879 -0.6650  0.0084  1.2703
 6694TIP3   OH241716   0.838   0.956   6.931  0.7911  0.1440 -0.3346
 6694TIP3    H141717   0.743   0.951   6.944  0.9631 -0.6990  0.7340
 6694TIP3    H241718   0.848   0.985   6.840 -0.4899 -0.5529 -0.7307
 6695TIP3   OH241719   0.119   1.197   6.767 -0.5813 -0.0511  1.0847
 6695TIP3    H141720   0.034   1.238   6.759 -1.2655 -1.4919  0.6389
 6695TIP3    H241721   0.177   1.250   6.713 -1.5896 -0.0630 -0.0596
 6696TIP3   OH241722   0.021   5.534   0.856 -0.0677  0.2761 -0.0912
 6696TIP3    H141723   0.106   5.576   0.840 -0.9417  1.1054 -3.0885
 6696TIP3    H241724  -0.039   5.606   0.874 -0.4298 -0.1948  0.6380
 6697TIP3   OH241725   2.308   1.712   0.133  0.1564  0.0117 -0.4548
 6697TIP3    H141726   2.353   1.760   0.203 -1.9402  0.7317  0.4752
 6697TIP3    H241727   2.330   1.761   0.053 -0.2114  1.2601  0.1856
 6698TIP3   OH241728   0.950   2.998   1.578  0.4203  0.1464  0.4793
 6698TIP3    H141729   1.010   3.064   1.611 -0.0756  0.6977  0.2826
 6698TIP3    H241730   0.869   3.012   1.626  0.8311 -1.4660  1.7385
 6699TIP3   OH241731   0.889   4.699   1.898 -0.2077 -0.1579  0.2469
 6699TIP3    H141732   0.879   4.711   1.804  0.5717  2.8255  0.4679
 6699TIP3    H241733   0.799   4.693   1.931 -0.5140  0.0286 -0.5286
 6700TIP3   OH241734   1.464   1.204   6.561  0.7334  0.1732  0.0102
 6700TIP3    H141735   1.384   1.257   6.557  0.4689 -0.2208  0.0044
 6700TIP3    H241736   1.509   1.222   6.479  0.0996 -0.4444 -0.4893
 6701TIP3   OH241737   3.804   0.757   1.070 -0.0574 -0.2544 -0.0200
 6701TIP3    H141738   3.768   0.736   0.984  1.0657 -0.2273 -0.5037
 6701TIP3    H241739   3.817   0.851   1.068 -0.1943 -0.2281  0.2534
 6702TIP3   OH241740   5.447   4.112   0.005 -0.4294  0.6247  0.1949
 6702TIP3    H141741   5.405   4.041   0.053 -1.7404  1.2445 -0.0033
 6702TIP3    H241742   5.516   4.142   0.063 -0.4381 -0.2190  0.6572
 6703TIP3   OH241743   0.240   0.793   7.213  0.1243  0.3049  0.1656
 6703TIP3    H141744   0.288   0.798   7.130  0.9428  0.1195  0.6237
 6703TIP3    H241745   0.282   0.859   7.269  0.8546 -0.8910  1.0749
 6704TIP3   OH241746   6.740   4.248   8.499  0.0653  0.3465  0.5056
 6704TIP3    H141747   6.815   4.279   8.550  0.1041  1.5438 -0.2245
 6704TIP3    H241748   6.694   4.188   8.558  1.9856 -1.0155  0.7012
 6705TIP3   OH241749   2.364   4.783   8.474 -0.2384  0.0999 -0.0275
 6705TIP3    H141750   2.422   4.820   8.409 -2.2048  0.0490 -1.9377
 6705TIP3    H241751   2.288   4.841   8.475 -0.3656 -0.0017  2.1390
 6706TIP3   OH241752   4.979   4.373   1.738  0.3485 -0.4355 -0.1500
 6706TIP3    H141753   4.966   4.347   1.829 -0.6868 -0.9504 -0.4355
 6706TIP3    H241754   4.979   4.291   1.689  2.3623 -0.2876 -0.4743
 6707TIP3   OH241755   4.076   5.566   1.812  0.3734  0.3155 -0.1919
 6707TIP3    H141756   4.022   5.509   1.868 -1.5781  1.2026 -1.0841
 6707TIP3    H241757   4.166   5.540   1.832 -0.3868 -2.8087 -0.2683
 6708TIP3   OH241758   2.427   1.046   7.094  0.1417  0.1436  0.1768
 6708TIP3    H141759   2.480   1.046   7.014 -0.8663  0.3920 -0.5061
 6708TIP3    H241760   2.387   1.133   7.097 -2.1156 -0.7953 -0.6304
 6709TIP3   OH241761   3.914   4.147   1.682 -0.0075  0.0546 -0.1493
 6709TIP3    H141762   3.980   4.208   1.650 -0.1784  0.2963 -0.0489
 6709TIP3    H241763   3.947   4.061   1.659  0.6309  0.1399  0.4211
 6710TIP3   OH241764   5.769   5.109   0.117 -0.2419  0.3172 -0.3809
 6710TIP3    H141765   5.824   5.173   0.162 -1.7900  1.9796 -0.7124
 6710TIP3    H241766   5.694   5.096   0.176 -0.4835 -0.3569 -0.8222
 6711TIP3   OH241767   1.185   2.127   0.502  0.2633 -0.7628 -0.0581
 6711TIP3    H141768   1.141   2.201   0.460  0.0785 -0.1445  1.1584
 6711TIP3    H241769   1.273   2.127   0.464  0.4268  0.4060  0.2618
 6712TIP3   OH241770   0.544   0.830   7.819 -0.2729 -0.5694  0.4823
 6712TIP3    H141771   0.633   0.835   7.854 -0.2153  0.3829  0.2219
 6712TIP3    H241772   0.491   0.803   7.894  0.1729 -0.7717  0.7344
 6713TIP3   OH241773   2.176   5.332   0.666 -0.2645  0.2448 -0.3334
 6713TIP3    H141774   2.131   5.272   0.606  1.8085  0.8423 -2.6235
 6713TIP3    H241775   2.267   5.303   0.665  0.0340  0.9707  1.7350
 6714TIP3   OH241776   5.110   5.190   0.284 -0.3750 -0.3480 -0.2199
 6714TIP3    H141777   5.191   5.231   0.253  0.8852 -3.1780 -0.9968
 6714TIP3    H241778   5.126   5.172   0.376 -0.3927 -0.2998 -0.2073
 6715TIP3   OH241779   5.368   4.941   1.011 -0.5102 -0.4147 -0.3591
 6715TIP3    H141780   5.409   4.953   1.097  0.2737  2.7269 -1.0318
 6715TIP3    H241781   5.422   4.876   0.967 -0.1464 -1.0947  1.0289
 6716TIP3   OH241782   4.661   4.488   7.918 -0.2661  0.4573  0.4946
 6716TIP3    H141783   4.751   4.465   7.941 -0.3718  0.2674  0.7180
 6716TIP3    H241784   4.663   4.582   7.902  0.2994  0.2324 -0.9942
 6717TIP3   OH241785   0.027   4.314   0.400 -0.3960  0.7295 -0.2798
 6717TIP3    H141786   0.034   4.265   0.318  1.0849  0.6002 -0.0960
 6717TIP3    H241787   0.006   4.248   0.466 -1.6355  0.8401 -0.5384
 6718TIP3   OH241788   3.261   2.792   7.375 -0.1605  0.0869 -0.5794
 6718TIP3    H141789   3.319   2.848   7.324  0.1447 -0.3344 -0.7042
 6718TIP3    H241790   3.275   2.704   7.339  1.8172 -0.6427  1.7355
 6719TIP3   OH241791   0.124   2.280   1.299  0.3136  0.4362  0.9681
 6719TIP3    H141792   0.186   2.340   1.340 -0.1391  0.6453  1.3525
 6719TIP3    H241793   0.063   2.256   1.369  0.4882 -0.4812  0.8275
 6720TIP3   OH241794   6.083   4.062   2.499 -0.0184 -0.3221  0.4158
 6720TIP3    H141795   6.106   4.153   2.520 -1.5420  0.2121 -0.0950
 6720TIP3    H241796   6.081   4.060   2.403  0.4450 -1.0305  0.4148
 6721TIP3   OH241797   2.037   3.888   0.973  0.2086 -0.1364 -0.1634
 6721TIP3    H141798   2.073   3.843   1.049  3.4040  2.9485  0.3824
 6721TIP3    H241799   2.097   3.866   0.902 -1.9983 -1.9116 -1.6442
 6722TIP3   OH241800   5.657   5.691   6.336 -0.4096 -0.1944  0.1738
 6722TIP3    H141801   5.568   5.657   6.325 -1.0433  1.1029  0.9131
 6722TIP3    H241802   5.649   5.784   6.312  0.8356 -0.1484 -0.0959
 6723TIP3   OH241803   4.441   3.907   6.574 -0.2702  0.2273  0.1219
 6723TIP3    H141804   4.399   3.852   6.508  1.7362  1.6664 -2.5681
 6723TIP3    H241805   4.370   3.957   6.613 -1.5658 -0.7362 -0.9128
 6724TIP3   OH241806   0.498   6.063   2.401  0.1025 -0.5992 -0.3015
 6724TIP3    H141807   0.574   6.046   2.456  0.5154 -0.3221 -0.7740
 6724TIP3    H241808   0.526   6.040   2.313 -0.1713  0.0318 -0.5656
 6725TIP3   OH241809   1.960   2.803   7.352 -0.1604  0.5079 -0.3717
 6725TIP3    H141810   1.943   2.710   7.363  0.1195  0.5072  0.0799
 6725TIP3    H241811   1.874   2.844   7.355 -0.5760  0.0221 -3.2678
 6726TIP3   OH241812   3.893   2.152   1.594  0.3336 -0.8038 -0.4696
 6726TIP3    H141813   3.874   2.244   1.574  1.2944 -0.5648 -0.3437
 6726TIP3    H241814   3.978   2.136   1.554  0.6006 -1.3774  0.3056
 6727TIP3   OH241815   6.634   6.646   7.844  0.4411  0.6725  0.6489
 6727TIP3    H141816   6.626   6.551   7.854 -2.5384  0.5362 -1.6212
 6727TIP3    H241817   6.685   6.674   7.921  0.8523 -2.6329  1.7464
 6728TIP3   OH241818   2.860   2.566   8.379 -0.1511  0.1301  0.1474
 6728TIP3    H141819   2.820   2.652   8.377 -0.2171  0.1492  1.3450
 6728TIP3    H241820   2.819   2.521   8.453  0.9131 -0.3982  0.4550
 6729TIP3   OH241821   0.215   1.358   7.640  0.0758 -0.3141 -0.0544
 6729TIP3    H141822   0.126   1.395   7.642 -0.2951 -0.9794 -2.2414
 6729TIP3    H241823   0.232   1.335   7.731 -2.2791 -0.7782  0.3476
 6730TIP3   OH241824   0.579   2.609   0.769 -0.1361 -0.9021  0.6799
 6730TIP3    H141825   0.555   2.600   0.861 -3.3388 -3.1454 -0.1841
 6730TIP3    H241826   0.531   2.686   0.739 -1.1489 -1.6209  0.3939
 6731TIP3   OH241827   2.834   6.771   6.950  0.4028  0.4417 -0.1779
 6731TIP3    H141828   2.886   6.693   6.932 -0.5678 -0.7848  1.8965
 6731TIP3    H241829   2.766   6.771   6.883 -0.5211 -1.4565  0.6691
 6732TIP3   OH241830   4.914   2.652   8.270 -0.5207 -0.2115 -1.1378
 6732TIP3    H141831   4.907   2.698   8.187 -1.5014 -0.6960 -1.3449
 6732TIP3    H241832   4.938   2.720   8.333  4.4230 -0.4509 -2.3636
 6733TIP3   OH241833   3.182   2.507   7.190  0.4866  0.0541  0.0771
 6733TIP3    H141834   3.253   2.452   7.225  1.0286  0.6178 -0.1180
 6733TIP3    H241835   3.118   2.445   7.155  0.7220 -0.4703  0.5678
 6734TIP3   OH241836   0.489   0.378   0.965 -0.0109  0.1042  0.0919
 6734TIP3    H141837   0.467   0.289   0.990  0.0414  0.8353  3.1137
 6734TIP3    H241838   0.581   0.374   0.938 -0.0664 -0.7639  0.0008
 6735TIP3   OH241839   5.751   1.352   0.736  0.6348  0.6784  0.0476
 6735TIP3    H141840   5.840   1.330   0.763  1.4236  3.0785 -0.3409
 6735TIP3    H241841   5.750   1.339   0.642 -0.0867 -1.2782  0.2862
 6736TIP3   OH241842   6.072   4.403   8.015  0.0604 -0.1797 -0.0048
 6736TIP3    H141843   6.022   4.405   8.096 -0.0042  1.6817 -0.0377
 6736TIP3    H241844   6.140   4.470   8.027  1.3200 -1.2821 -0.7146
 6737TIP3   OH241845   5.103   3.147   1.258 -0.4664 -0.0102  0.0087
 6737TIP3    H141846   5.150   3.082   1.309 -0.8154  0.0806  0.4485
 6737TIP3    H241847   5.168   3.180   1.195 -0.3176 -0.8598 -0.2972
 6738TIP3   OH241848   0.011   3.015   8.158  0.5399 -0.2946  0.0522
 6738TIP3    H141849   0.042   2.966   8.083  2.3242 -0.7587  1.0395
 6738TIP3    H241850  -0.069   2.970   8.185  1.6159 -2.1163  0.3547
 6739TIP3   OH241851   2.057   0.016   0.993 -0.1249 -0.0559  0.2803
 6739TIP3    H141852   2.100   0.100   0.979  0.7506 -0.7554 -1.4610
 6739TIP3    H241853   2.098  -0.044   0.931 -0.0927 -2.0181  2.0547
 6740TIP3   OH241854   3.268   4.388   0.520  0.3661 -0.1640  0.3321
 6740TIP3    H141855   3.351   4.436   0.528  0.2671  0.5923 -2.2288
 6740TIP3    H241856   3.203   4.446   0.560  0.9717 -0.6323  2.0954
 6741TIP3   OH241857   4.208   0.968   0.698 -0.5739 -0.0293 -0.1925
 6741TIP3    H141858   4.186   1.060   0.684  1.3079  0.3037 -1.1970
 6741TIP3    H241859   4.150   0.921   0.638 -1.3131  0.5131  0.0833
 6742TIP3   OH241860   4.711   1.028   7.328  0.3435 -0.2934 -0.3988
 6742TIP3    H141861   4.666   1.091   7.271 -0.4825  0.8660  1.4493
 6742TIP3    H241862   4.802   1.056   7.328  0.1023  0.5170 -0.1155
 6743TIP3   OH241863   2.601   0.721   7.653 -1.1277  0.3246 -0.1500
 6743TIP3    H141864   2.665   0.655   7.680 -0.8618 -0.4877 -2.5381
 6743TIP3    H241865   2.523   0.671   7.630 -0.3279  0.4539 -3.8176
 6744TIP3   OH241866   3.793   0.954   1.652 -0.1277  0.3537  0.1962
 6744TIP3    H141867   3.765   0.944   1.743  1.6106 -0.9347  0.6419
 6744TIP3    H241868   3.852   1.029   1.652 -0.4840  0.6391  0.0226
 6745TIP3   OH241869   6.570   0.010   2.077  0.1117 -0.9308 -0.0557
 6745TIP3    H141870   6.535   0.083   2.026  0.5454 -0.4246  0.3625
 6745TIP3    H241871   6.633   0.050   2.137  0.3243 -1.6429  0.2094
 6746TIP3   OH241872   5.801   0.037   0.921 -0.2981  0.0443  0.3042
 6746TIP3    H141873   5.725   0.013   0.869 -0.6216 -0.0196  0.7938
 6746TIP3    H241874   5.866  -0.031   0.902  0.2906  1.0251 -1.4271
 6747TIP3   OH241875   4.991   5.782   8.692  0.1431 -0.0396  0.0679
 6747TIP3    H141876   5.075   5.806   8.654  0.8402 -2.0416  0.2278
 6747TIP3    H241877   4.928   5.791   8.620  0.8384 -0.3434 -0.5817
 6748TIP3   OH241878   0.846   6.342   7.302  0.5882 -0.5918  0.1545
 6748TIP3    H141879   0.846   6.316   7.394 -1.1126 -0.7607  0.1446
 6748TIP3    H241880   0.903   6.278   7.259  0.2727 -1.3777  0.8738
 6749TIP3   OH241881   5.621   0.468   0.848  0.4187  0.6680  0.4280
 6749TIP3    H141882   5.682   0.477   0.921  1.3294 -1.2960 -0.0217
 6749TIP3    H241883   5.665   0.510   0.774  0.6323  0.4207  0.4153
 6750TIP3   OH241884   4.567   4.400   1.813 -0.4725 -0.3809 -0.2983
 6750TIP3    H141885   4.609   4.315   1.802 -2.0745 -1.5836  2.0066
 6750TIP3    H241886   4.619   4.445   1.879 -1.4786 -0.9884  0.9516
 6751TIP3   OH241887   0.964   4.383   8.626  0.1255 -0.1236 -0.4965
 6751TIP3    H141888   0.976   4.462   8.573  1.2958 -0.5667 -0.9105
 6751TIP3    H241889   1.048   4.338   8.623 -0.5839 -1.5329 -0.4939
 6752TIP3   OH241890   6.196   6.131   8.742  0.1545  0.3293 -0.3424
 6752TIP3    H141891   6.218   6.203   8.683  0.8659  0.2950 -0.1359
 6752TIP3    H241892   6.281   6.100   8.774 -0.0934 -0.9573 -0.8498
 6753TIP3   OH241893   1.947   4.174   1.575 -0.7523 -0.7508  0.1555
 6753TIP3    H141894   1.967   4.241   1.640  2.0875 -0.6949 -0.6476
 6753TIP3    H241895   1.892   4.219   1.511  0.3354  0.5898  0.1121
 6754TIP3   OH241896   2.045   3.348   8.279 -0.3304 -0.1279  0.2285
 6754TIP3    H141897   2.033   3.386   8.366 -0.8463  0.4398 -0.0758
 6754TIP3    H241898   2.043   3.254   8.294  0.5485 -0.0437  0.9498
 6755TIP3   OH241899   3.133   1.368   1.210 -0.7295  0.2363 -0.6490
 6755TIP3    H141900   3.083   1.447   1.190 -2.0523 -0.9360 -2.3422
 6755TIP3    H241901   3.187   1.354   1.132 -1.4217 -1.1718 -0.9018
 6756TIP3   OH241902   1.091   4.990   1.594  0.0350 -0.3072 -0.5494
 6756TIP3    H141903   1.164   4.993   1.532  0.4351  0.6843 -0.0618
 6756TIP3    H241904   1.122   4.934   1.665 -0.3949 -1.3835 -1.2057
 6757TIP3   OH241905   0.778   0.616   2.247 -0.5178 -0.4887 -0.8851
 6757TIP3    H141906   0.723   0.692   2.232  1.3897  0.9689 -0.8501
 6757TIP3    H241907   0.831   0.639   2.324  2.2219 -0.5357 -2.6193
 6758TIP3   OH241908   5.438   4.934   1.893 -0.3287 -0.1469 -0.0696
 6758TIP3    H141909   5.533   4.939   1.901 -0.4666  2.9094  1.5528
 6758TIP3    H241910   5.409   4.903   1.979 -0.8086  0.0579 -0.1541
 6759TIP3   OH241911   6.457   6.782   0.087 -0.5033  0.3261  0.2564
 6759TIP3    H141912   6.484   6.866   0.123 -1.4727  1.1699 -0.8711
 6759TIP3    H241913   6.411   6.739   0.159  0.1206  0.6959  0.8879
 6760TIP3   OH241914   5.044   2.798   1.387  0.5546  0.2881 -1.1255
 6760TIP3    H141915   5.122   2.847   1.411  0.0834  0.1866  0.8395
 6760TIP3    H241916   5.075   2.709   1.372  0.7167 -0.0596  0.9393
 6761TIP3   OH241917   4.532   4.930   7.113 -0.2083  0.4413 -0.0027
 6761TIP3    H141918   4.530   4.836   7.131 -0.2823  0.4541  0.0536
 6761TIP3    H241919   4.625   4.952   7.115 -0.2075  0.4216  0.2517
 6762TIP3   OH241920   5.382   0.489   1.345 -0.3054  0.3494 -0.6913
 6762TIP3    H141921   5.450   0.424   1.365 -1.1537 -0.2323  0.4512
 6762TIP3    H241922   5.410   0.568   1.391 -0.7533 -0.1211  0.4512
 6763TIP3   OH241923   2.853   2.081   0.365 -0.2301  0.4748 -0.1763
 6763TIP3    H141924   2.866   2.126   0.449 -0.2429  1.0082 -0.4548
 6763TIP3    H241925   2.940   2.079   0.326 -0.5461  2.0651 -1.0548
 6764TIP3   OH241926   2.719   5.866   1.604  0.7590  0.5728 -0.1782
 6764TIP3    H141927   2.695   5.871   1.697  1.8726  0.1028  0.1532
 6764TIP3    H241928   2.776   5.942   1.590  3.4238 -1.2089  0.4346
 6765TIP3   OH241929   4.133   5.534   0.806 -0.4617  0.2358 -1.0544
 6765TIP3    H141930   4.111   5.465   0.869  0.1527  1.2473  0.3012
 6765TIP3    H241931   4.050   5.579   0.789 -0.2795  1.4202  0.8599
 6766TIP3   OH241932   4.489   1.534   0.883 -0.1719  0.2057 -0.0279
 6766TIP3    H141933   4.417   1.595   0.866 -0.7211 -0.5623 -0.5484
 6766TIP3    H241934   4.455   1.475   0.950  0.2564  0.2991  0.2765
 6767TIP3   OH241935   4.025   3.270   1.178 -0.0595 -0.3436  0.0287
 6767TIP3    H141936   3.933   3.295   1.176 -0.2472 -1.0437 -0.4522
 6767TIP3    H241937   4.024   3.174   1.174  0.5930 -0.5699  3.0824
 6768TIP3   OH241938   1.716   2.052   0.477  0.0672 -0.2400 -0.3824
 6768TIP3    H141939   1.782   1.984   0.489 -0.0107 -0.1674  0.4990
 6768TIP3    H241940   1.713   2.065   0.382  0.7763 -0.7733 -0.4903
 6769TIP3   OH241941   4.102   0.601   0.367  0.7890  0.2815  0.0573
 6769TIP3    H141942   4.034   0.536   0.351  1.1622  0.0454 -0.5936
 6769TIP3    H241943   4.163   0.558   0.427  0.9670  0.0730 -0.2697
 6770TIP3   OH241944   3.200   2.054   1.065 -0.0940  0.1328 -0.3819
 6770TIP3    H141945   3.286   2.092   1.083 -0.0869 -0.1151  0.1182
 6770TIP3    H241946   3.142   2.092   1.130 -0.8878  2.0577 -2.0958
 6771TIP3   OH241947   3.790   3.419   7.507 -0.3730 -0.7151 -0.2052
 6771TIP3    H141948   3.760   3.375   7.585  0.5971 -3.0688 -1.0710
 6771TIP3    H241949   3.728   3.394   7.439 -0.1853 -0.1669 -0.5928
 6772TIP3   OH241950   1.942   0.606   8.694 -0.0606  0.5985 -0.1200
 6772TIP3    H141951   1.985   0.531   8.737 -0.3133  1.6308  2.0553
 6772TIP3    H241952   2.008   0.637   8.632 -0.6567 -2.5516 -2.6154
 6773TIP3   OH241953   5.733   2.996   0.322 -0.2660 -0.1644 -0.0234
 6773TIP3    H141954   5.692   2.954   0.397  0.4017  1.9115  1.5946
 6773TIP3    H241955   5.827   2.987   0.338 -0.1129  0.1556 -0.7145
 6774TIP3   OH241956   1.005   6.357   8.773  0.1621  0.1281  0.3824
 6774TIP3    H141957   0.973   6.292   8.834 -1.3638  1.0481  0.6242
 6774TIP3    H241958   0.927   6.388   8.727  1.0197  0.8086 -0.6862
 6775TIP3   OH241959   2.521   6.668   6.973 -0.2092  0.3039  0.2207
 6775TIP3    H141960   2.565   6.738   6.926  1.5271 -0.1571  1.0620
 6775TIP3    H241961   2.580   6.593   6.967 -0.6831 -0.2430  1.7105
 6776TIP3   OH241962   1.338   2.055   0.761  0.0183  0.5908  0.6142
 6776TIP3    H141963   1.259   2.054   0.708 -1.0560 -1.5503  2.1469
 6776TIP3    H241964   1.402   2.005   0.710  0.0178  1.2567 -0.0578
 6777TIP3   OH241965   6.344   1.865   0.777  0.5237  0.2593  0.3771
 6777TIP3    H141966   6.417   1.921   0.751 -0.6211  1.0238 -1.3818
 6777TIP3    H241967   6.293   1.853   0.697 -1.6536  0.3539  1.6741
 6778TIP3   OH241968   4.540   3.712   6.879 -0.0430 -0.1461 -0.1148
 6778TIP3    H141969   4.626   3.737   6.913 -0.1221 -1.7819  1.4871
 6778TIP3    H241970   4.558   3.650   6.809  0.0859 -0.2768  0.0351
 6779TIP3   OH241971   4.360   5.594   1.835  0.6582 -0.6358  0.4340
 6779TIP3    H141972   4.408   5.676   1.847  0.4514 -0.7022  1.8347
 6779TIP3    H241973   4.426   5.533   1.802  1.3579 -0.5015  1.5248
 6780TIP3   OH241974   0.465   0.822   2.341 -0.0402 -0.4289  0.5944
 6780TIP3    H141975   0.402   0.869   2.395  0.7907  0.0408  1.1841
 6780TIP3    H241976   0.549   0.832   2.387  0.7566  0.2188 -0.8944
 6781TIP3   OH241977   0.920   0.680   7.107 -0.2000 -0.5131 -0.1560
 6781TIP3    H141978   0.953   0.768   7.089  0.9342 -0.9162 -0.1017
 6781TIP3    H241979   0.896   0.646   7.020  0.5086 -0.5937 -0.3254
 6782TIP3   OH241980   1.799   1.269   2.986  0.5994 -0.0386 -0.0843
 6782TIP3    H141981   1.838   1.356   2.994 -0.1593  0.1867  1.3372
 6782TIP3    H241982   1.768   1.265   2.895 -0.0214  1.4526  0.0469
 6783TIP3   OH241983   3.210   0.734   1.478  0.2087  0.5007  0.3516
 6783TIP3    H141984   3.128   0.769   1.514  0.7759  0.2077  2.0041
 6783TIP3    H241985   3.276   0.798   1.503  0.8392 -0.4192  1.1120
 6784TIP3   OH241986   6.329   5.519   8.610  0.3259 -0.1308  0.2112
 6784TIP3    H141987   6.419   5.540   8.583  0.2028 -0.1053 -0.1896
 6784TIP3    H241988   6.289   5.605   8.627  0.2725 -0.1229  0.0464
 6785TIP3   OH241989   3.563   6.220   7.385  0.5269 -0.5712  1.0743
 6785TIP3    H141990   3.517   6.302   7.364  0.1070 -0.8743  0.7908
 6785TIP3    H241991   3.506   6.152   7.350  0.0049 -1.0832  2.8444
 6786TIP3   OH241992   5.672   3.224   7.521 -0.1491 -0.5631 -0.2986
 6786TIP3    H141993   5.609   3.185   7.582 -0.5744 -0.7291 -0.8405
 6786TIP3    H241994   5.622   3.290   7.474  0.6843  1.0421  0.9708
 6787TIP3   OH241995   3.695   3.076   0.343  0.1640  0.2474  0.0784
 6787TIP3    H141996   3.672   3.129   0.267  3.4813 -0.3958 -1.5326
 6787TIP3    H241997   3.658   2.990   0.324  2.5769 -0.4714 -1.9358
 6788TIP3   OH241998   6.285   0.401   0.875  0.2377 -0.6497  0.5164
 6788TIP3    H141999   6.288   0.308   0.897 -1.8937 -0.4439  1.9478
 6788TIP3    H242000   6.348   0.441   0.934 -1.7660 -0.7544  2.8964
 6789TIP3   OH242001   5.781   0.727   1.702  0.5198 -0.1048  0.5231
 6789TIP3    H142002   5.759   0.810   1.744  1.3450  0.7149 -0.5927
 6789TIP3    H242003   5.844   0.686   1.760 -0.0126 -0.0232  1.1626
 6790TIP3   OH242004   2.989   6.562   6.884  0.1020  0.4008  0.4897
 6790TIP3    H142005   2.974   6.553   6.790  0.7867 -1.3598  0.5246
 6790TIP3    H242006   3.058   6.499   6.904 -0.5589  0.1998  2.3201
 6791TIP3   OH242007   4.086   2.019   7.854  0.1335  0.4250  0.5448
 6791TIP3    H142008   4.147   2.090   7.833  0.0579  0.6027  0.9177
 6791TIP3    H242009   4.003   2.062   7.870  0.1714  0.2938  1.1364
 6792TIP3   OH242010   4.859   1.142   7.656 -0.1447  0.5908 -0.7746
 6792TIP3    H142011   4.875   1.053   7.625 -0.2203  0.5305 -0.6389
 6792TIP3    H242012   4.922   1.196   7.607  1.5686  0.1635  0.8585
 6793TIP3   OH242013   6.556   6.285   1.228  0.0387 -0.3276  0.0299
 6793TIP3    H142014   6.472   6.305   1.188  0.3969  0.6052 -0.2714
 6793TIP3    H242015   6.617   6.350   1.192  0.6395 -0.2443  1.1362
 6794TIP3   OH242016   4.874   2.605   6.751  0.4541 -0.4171 -0.2232
 6794TIP3    H142017   4.960   2.645   6.741  0.0505  0.3602 -0.7000
 6794TIP3    H242018   4.860   2.599   6.845  0.4204  0.8024 -0.1396
 6795TIP3   OH242019   3.935   6.669   8.288  0.2975 -0.2264  0.0653
 6795TIP3    H142020   3.968   6.606   8.224  0.0335 -0.0977 -0.2025
 6795TIP3    H242021   3.991   6.746   8.278  1.0173 -0.6488  0.8337
 6796TIP3   OH242022   0.515   2.295   7.806 -0.0596 -0.3447  0.1163
 6796TIP3    H142023   0.534   2.245   7.885 -2.4259  0.6965  1.4576
 6796TIP3    H242024   0.546   2.384   7.825  0.3311 -0.3297 -0.5664
 6797TIP3   OH242025   1.786   5.002   1.246 -0.0006  0.2885 -0.4818
 6797TIP3    H142026   1.754   4.988   1.157  1.6327 -2.3020 -0.7562
 6797TIP3    H242027   1.719   4.961   1.302 -0.6590  1.2669 -0.5251
 6798TIP3   OH242028   3.495   6.770   0.495 -0.2217  0.5077  0.0032
 6798TIP3    H142029   3.401   6.756   0.508 -0.2311  0.9015  0.3817
 6798TIP3    H242030   3.529   6.685   0.468 -0.7314  0.4270 -0.3965
 6799TIP3   OH242031   2.669   1.107   6.420  0.6191  0.0098  0.4235
 6799TIP3    H142032   2.622   1.031   6.455  2.3237 -1.9871 -1.3813
 6799TIP3    H242033   2.761   1.079   6.415  1.9630  3.2888  2.5748
 6800TIP3   OH242034   2.432   2.322   0.862 -0.3119  0.5018 -0.6581
 6800TIP3    H142035   2.416   2.228   0.848  1.2864  0.1343 -0.2117
 6800TIP3    H242036   2.345   2.361   0.859 -1.2871 -1.3003  1.2944
 6801TIP3   OH242037   2.473   5.082   7.665 -0.0781 -0.5485  0.5354
 6801TIP3    H142038   2.484   5.025   7.588 -0.3422 -0.0195  0.0969
 6801TIP3    H242039   2.382   5.071   7.690  0.4387 -2.1130  1.9096
 6802TIP3   OH242040   2.943   0.969   0.579 -0.6904 -0.1874 -0.1201
 6802TIP3    H142041   2.972   1.044   0.528 -0.9961 -0.2561 -0.4038
 6802TIP3    H242042   2.916   0.905   0.513 -0.1330 -0.6687  0.1109
 6803TIP3   OH242043   4.596   2.748   7.074  0.3186  0.2806  0.4177
 6803TIP3    H142044   4.502   2.761   7.081  0.2611 -0.2301  0.6460
 6803TIP3    H242045   4.606   2.658   7.041  0.7444 -0.1884  1.7683
 6804TIP3   OH242046   5.700   4.899   1.920  0.0390 -0.3160 -0.5433
 6804TIP3    H142047   5.764   4.940   1.977  1.2373 -1.9052 -0.6725
 6804TIP3    H242048   5.723   4.806   1.919 -1.4856 -0.7450 -1.6204
 6805TIP3   OH242049   6.551   3.883   0.634 -0.1132  0.0266  0.4503
 6805TIP3    H142050   6.607   3.842   0.700 -0.7466  0.9428  1.5784
 6805TIP3    H242051   6.462   3.859   0.659 -0.3799  0.6244  0.0941
 6806TIP3   OH242052   6.055   3.726   7.935 -0.3948 -0.0602 -0.2709
 6806TIP3    H142053   6.032   3.668   8.007 -2.3879  1.2060  0.1659
 6806TIP3    H242054   6.151   3.726   7.934 -0.3416 -1.1348  1.5159
 6807TIP3   OH242055   5.380   3.058   1.257  0.4900  0.3118  0.1478
 6807TIP3    H142056   5.385   3.066   1.352  0.5428  0.9282  0.1006
 6807TIP3    H242057   5.393   3.147   1.225  0.1119  0.1662 -0.4246
 6808TIP3   OH242058   4.531   2.491   8.734  0.6180  0.2309  0.0986
 6808TIP3    H142059   4.617   2.470   8.695  1.0646  0.4788  0.9334
 6808TIP3    H242060   4.542   2.473   8.827 -0.5608 -0.7181  0.0794
 6809TIP3   OH242061   3.297   6.794   6.445 -0.0900  0.7171  0.4626
 6809TIP3    H142062   3.317   6.857   6.376  0.2363  0.6640  0.5056
 6809TIP3    H242063   3.349   6.716   6.423 -1.4477 -0.0062 -0.2839
 6810TIP3   OH242064   0.786   2.489   8.121 -0.2502  0.3787  0.8098
 6810TIP3    H142065   0.792   2.486   8.025  0.4017 -1.0536  0.8647
 6810TIP3    H242066   0.693   2.472   8.139  0.2144 -3.3705  0.4521
 6811TIP3   OH242067   5.598   1.848   6.879 -0.5259  0.0300  0.3315
 6811TIP3    H142068   5.522   1.793   6.898  0.2459 -0.6101  1.6903
 6811TIP3    H242069   5.671   1.803   6.920  0.3144  1.5292  0.5576
 6812TIP3   OH242070   1.043   3.541   1.075 -0.1686 -0.3295 -0.1208
 6812TIP3    H142071   0.983   3.514   1.005 -0.4157 -1.1153  0.3858
 6812TIP3    H242072   1.105   3.468   1.083  1.3509  0.8057 -1.1695
 6813TIP3   OH242073   5.719   2.200   0.735  0.0730 -0.2739  0.2197
 6813TIP3    H142074   5.782   2.223   0.667 -0.7322  0.6349 -0.2471
 6813TIP3    H242075   5.645   2.162   0.686 -0.5781  0.5280  0.5622
 6814TIP3   OH242076   4.762   0.053   8.610  0.2513 -0.0005  0.6962
 6814TIP3    H142077   4.761   0.107   8.690  1.5672 -0.6325  1.1759
 6814TIP3    H242078   4.694  -0.012   8.625 -0.8082  1.0317  0.4608
 6815TIP3   OH242079   0.270   0.096   0.560 -0.3248  0.1748  0.7369
 6815TIP3    H142080   0.313   0.011   0.563 -0.0007  0.2444 -0.9965
 6815TIP3    H242081   0.325   0.153   0.615  3.0693  0.7380 -2.8048
 6816TIP3   OH242082   2.891   2.632   8.726 -0.1936 -0.0685 -0.1363
 6816TIP3    H142083   2.818   2.571   8.722 -0.7780  0.6021 -0.0595
 6816TIP3    H242084   2.851   2.718   8.709  0.4480  0.4075  0.6548
 6817TIP3   OH242085   2.813   5.123   2.506  0.4951  0.2980 -0.1615
 6817TIP3    H142086   2.810   5.043   2.454  0.9412  0.4421 -0.4191
 6817TIP3    H242087   2.905   5.131   2.532  0.6022  1.0905 -0.7325
 6818TIP3   OH242088   3.459   2.416   0.605  0.2834 -0.9521  0.0212
 6818TIP3    H142089   3.494   2.505   0.604 -0.2673 -0.7045 -2.0927
 6818TIP3    H242090   3.492   2.378   0.686  1.6662  0.7293  0.3019
 6819TIP3   OH242091   1.581   6.221   1.299 -0.1869 -0.9626 -0.4116
 6819TIP3    H142092   1.649   6.154   1.296 -1.3343 -2.1512 -1.3758
 6819TIP3    H242093   1.530   6.200   1.378 -0.0344 -0.6964 -0.2426
 6820TIP3   OH242094   0.737   3.384   1.020  0.5311 -0.2429 -0.7539
 6820TIP3    H142095   0.665   3.328   0.993 -0.1311 -0.4177  1.2480
 6820TIP3    H242096   0.815   3.344   0.980 -0.0845 -1.8381 -0.4100
 6821TIP3   OH242097   6.418   3.986   2.433  0.4984  0.3466 -0.5303
 6821TIP3    H142098   6.325   3.970   2.445  0.4267 -1.5520 -3.0467
 6821TIP3    H242099   6.425   4.082   2.427 -1.4213  0.4846 -1.2271
 6822TIP3   OH242100   4.981   3.933   0.976  0.9310 -0.3145  0.2397
 6822TIP3    H142101   4.946   3.901   1.059  0.5717  0.3522  0.3437
 6822TIP3    H242102   4.916   3.995   0.944  0.4132 -1.5432 -1.2116
 6823TIP3   OH242103   5.745   1.204   8.731 -0.2646 -0.2270  0.2109
 6823TIP3    H142104   5.666   1.230   8.779 -0.1955 -2.5920  1.7756
 6823TIP3    H242105   5.784   1.287   8.703  0.0564  1.5049  4.8961
 6824TIP3   OH242106   6.416   3.474   2.626  0.0968  0.0463  0.1557
 6824TIP3    H142107   6.461   3.399   2.587 -1.0486  0.1712 -1.4658
 6824TIP3    H242108   6.484   3.540   2.636  0.7274 -0.5424 -0.1635
 6825TIP3   OH242109   2.223   3.143   1.363  1.0190 -0.5297 -0.3923
 6825TIP3    H142110   2.267   3.227   1.373  0.8213 -0.4938  0.1884
 6825TIP3    H242111   2.151   3.161   1.301 -0.8766  0.4658  1.9473
 6826TIP3   OH242112   3.671   6.538   7.915 -0.0616 -0.2047 -0.0744
 6826TIP3    H142113   3.678   6.622   7.869 -1.2261  0.3251  0.6375
 6826TIP3    H242114   3.715   6.475   7.859  0.6474  0.8517 -0.7310
 6827TIP3   OH242115   0.820   2.672   8.630  0.1945  0.5334  0.3607
 6827TIP3    H142116   0.901   2.627   8.608  0.0731  0.9077 -0.9460
 6827TIP3    H242117   0.802   2.728   8.555 -1.9152 -0.4530  0.0337
 6828TIP3   OH242118   6.609   4.795   8.360 -0.0522  0.3553 -0.3475
 6828TIP3    H142119   6.560   4.768   8.282  0.8757 -0.0503 -0.7996
 6828TIP3    H242120   6.677   4.853   8.326  0.0058  0.6358  0.2357
 6829TIP3   OH242121   0.852   4.508   0.884 -0.0678 -0.1878  0.0336
 6829TIP3    H142122   0.842   4.416   0.862  2.0096 -0.7923  1.2864
 6829TIP3    H242123   0.933   4.511   0.936  0.6392  2.5181 -1.0501
 6830TIP3   OH242124   6.113   6.468   1.438  0.0633 -0.4757 -0.4196
 6830TIP3    H142125   6.080   6.392   1.390 -0.5132 -0.6026  0.1661
 6830TIP3    H242126   6.183   6.432   1.493  0.7500 -0.3235 -1.1860
 6831TIP3   OH242127   3.487   4.308   7.353 -0.1123  0.2755  0.3627
 6831TIP3    H142128   3.474   4.238   7.417 -1.8845  2.1058  2.1365
 6831TIP3    H242129   3.446   4.275   7.272 -1.2699 -0.5828  1.2639
 6832TIP3   OH242130   0.398   4.137   7.865  0.0209 -0.0958 -0.4928
 6832TIP3    H142131   0.443   4.220   7.849  0.3415 -0.3051 -0.7056
 6832TIP3    H242132   0.361   4.146   7.952  2.4374 -0.7861  0.6727
 6833TIP3   OH242133   3.835   4.541   1.649  0.6613  0.6358 -0.1822
 6833TIP3    H142134   3.883   4.524   1.730  0.5542 -0.3758 -0.3073
 6833TIP3    H242135   3.815   4.453   1.615 -3.7226  0.8290  1.3085
 6834TIP3   OH242136   4.022   5.977   7.653 -0.5039 -0.5452 -0.1565
 6834TIP3    H142137   3.938   5.969   7.609 -0.2304  2.4909 -1.4747
 6834TIP3    H242138   4.058   5.888   7.653 -2.4707 -1.4253 -2.0575
 6835TIP3   OH242139   2.657   5.582   7.677 -0.2276  0.2192  0.9481
 6835TIP3    H142140   2.587   5.522   7.704 -0.5550 -0.7390 -1.7356
 6835TIP3    H242141   2.735   5.549   7.721 -0.8889 -0.5981  1.5359
 6836TIP3   OH242142   2.038   1.658   8.638 -0.2469 -0.4139  0.1074
 6836TIP3    H142143   2.133   1.665   8.648 -0.2175  0.4672 -0.6636
 6836TIP3    H242144   2.020   1.564   8.648  0.3650 -0.3194  2.8050
 6837TIP3   OH242145   6.708   4.580   1.934  0.0479 -0.1296 -0.0920
 6837TIP3    H142146   6.750   4.665   1.919  0.9874 -0.5903 -0.1311
 6837TIP3    H242147   6.756   4.541   2.006  0.1316 -0.9526 -0.5734
 6838TIP3   OH242148   2.215   0.340   0.355  0.1562 -0.5975  0.3076
 6838TIP3    H142149   2.292   0.395   0.345 -0.4397  0.2070  0.0652
 6838TIP3    H242150   2.149   0.380   0.298 -1.6518  0.9861  3.2851
 6839TIP3   OH242151   5.336   3.145   7.669  0.0100 -0.7696  0.1607
 6839TIP3    H142152   5.404   3.175   7.729  0.1313 -1.6218  0.4708
 6839TIP3    H242153   5.331   3.050   7.684 -2.1778 -0.5626  1.1285
 6840TIP3   OH242154   4.549   1.091   7.808 -0.2904  0.0633  0.5518
 6840TIP3    H142155   4.587   1.169   7.766 -0.0790 -1.1772 -1.6717
 6840TIP3    H242156   4.567   1.020   7.748 -3.1724 -1.2120  1.0535
 6841TIP3   OH242157   1.100   1.314   8.314  0.0085 -0.0238  0.2786
 6841TIP3    H142158   1.079   1.359   8.396 -0.0826 -0.2893  0.4030
 6841TIP3    H242159   1.075   1.375   8.245  0.0789  0.1992  0.4482
 6842TIP3   OH242160   3.961   1.224   6.915  0.0733 -0.4144  0.0861
 6842TIP3    H142161   4.037   1.202   6.969  0.4071 -1.9927 -0.9444
 6842TIP3    H242162   3.915   1.141   6.904 -1.0541  0.2637 -0.4364
 6843TIP3   OH242163   1.836   1.765   1.969 -0.0491  0.3238 -0.4944
 6843TIP3    H142164   1.816   1.834   1.906 -3.2828  0.8560  0.9375
 6843TIP3    H242165   1.872   1.694   1.915  1.2470  2.2349 -2.3084
 6844TIP3   OH242166   4.835   2.720   0.434  0.5268 -0.3396 -0.1731
 6844TIP3    H142167   4.890   2.793   0.463 -1.3966  1.6111 -1.1399
 6844TIP3    H242168   4.874   2.692   0.351  1.3207 -0.4970  0.2373
 6845TIP3   OH242169   3.002   6.705   0.146  0.6038  0.6107 -0.5582
 6845TIP3    H142170   3.051   6.766   0.092  1.2105 -0.1756 -0.9236
 6845TIP3    H242171   3.061   6.630   0.157 -0.0768  0.1328 -0.0429
 6846TIP3   OH242172   4.509   6.150   7.540 -0.1558 -0.4700 -0.0479
 6846TIP3    H142173   4.522   6.186   7.453  1.6321 -1.1398 -0.0974
 6846TIP3    H242174   4.414   6.137   7.547 -0.3789  0.0806 -1.6745
 6847TIP3   OH242175   2.918   1.009   1.816  0.0825 -0.2666 -0.5119
 6847TIP3    H142176   2.825   1.029   1.827  0.6546  1.9689  0.9496
 6847TIP3    H242177   2.948   0.987   1.905  1.1657  0.1598 -0.7626
 6848TIP3   OH242178   6.200   5.372   1.143 -0.4405 -0.1633  0.0928
 6848TIP3    H142179   6.264   5.368   1.073  1.2173 -0.3681  1.5493
 6848TIP3    H242180   6.227   5.303   1.204 -1.8847 -0.0669  0.8873
 6849TIP3   OH242181   2.012   3.723   0.231 -0.0915  0.8817 -0.5859
 6849TIP3    H142182   2.068   3.778   0.175  0.3670  1.1311  0.0994
 6849TIP3    H242183   1.939   3.780   0.255 -0.6482  0.5633 -1.4616
 6850TIP3   OH242184   0.862   0.215   8.040  0.5290 -0.5625 -0.6039
 6850TIP3    H142185   0.930   0.281   8.027  0.2880 -0.3851 -1.0308
 6850TIP3    H242186   0.872   0.187   8.130  0.1465  0.6348 -0.1623
 6851TIP3   OH242187   4.042   6.188   0.651  0.0629  0.1360 -0.3925
 6851TIP3    H142188   4.118   6.222   0.603 -0.4645  0.9542 -0.6724
 6851TIP3    H242189   3.972   6.183   0.585 -0.9296  2.1435  0.4139
 6852TIP3   OH242190   4.767   3.447   0.822 -0.2379 -0.2277  0.9529
 6852TIP3    H142191   4.745   3.393   0.898  1.7274  0.2776  1.9455
 6852TIP3    H242192   4.756   3.537   0.853 -0.1830 -0.0206  0.3748
 6853TIP3   OH242193   6.620   1.862   6.936 -0.2710  0.4213 -0.0547
 6853TIP3    H142194   6.579   1.824   7.014  0.5688  0.2648  0.3177
 6853TIP3    H242195   6.561   1.838   6.865 -0.3422 -0.6176  0.3344
 6854TIP3   OH242196   1.693   2.359   0.073 -0.3818 -0.4757  0.1092
 6854TIP3    H142197   1.663   2.391  -0.012  2.5869 -0.6165 -1.0973
 6854TIP3    H242198   1.695   2.436   0.129 -3.2500 -0.5262  0.4733
 6855TIP3   OH242199   6.284   3.814   0.686  0.3129 -0.5431  0.1757
 6855TIP3    H142200   6.250   3.727   0.667 -0.7948  0.1184 -1.0345
 6855TIP3    H242201   6.219   3.852   0.746 -1.2856  0.7681 -2.2346
 6856TIP3   OH242202   2.397   2.776   7.772 -0.1269 -0.6574 -0.1605
 6856TIP3    H142203   2.305   2.752   7.788 -0.8656  0.9634 -1.5216
 6856TIP3    H242204   2.436   2.785   7.859 -1.8855  0.7220  0.5581
 6857TIP3   OH242205   0.664   6.782   8.100 -0.0249 -0.3683 -0.1278
 6857TIP3    H142206   0.673   6.855   8.161 -0.2785 -0.6992  0.3205
 6857TIP3    H242207   0.722   6.714   8.136 -0.7736 -0.8501  0.1965
 6858TIP3   OH242208   1.900   6.241   1.218 -0.0825  0.0261  0.2927
 6858TIP3    H142209   1.845   6.303   1.265 -0.4867  0.6054 -0.9043
 6858TIP3    H242210   1.856   6.156   1.230  0.1177  0.0629  1.3841
 6859TIP3   OH242211   1.143   1.516   8.074  0.2347  0.0462  0.2276
 6859TIP3    H142212   1.201   1.573   8.023 -0.2405  0.0377 -0.3235
 6859TIP3    H242213   1.069   1.571   8.098  0.6542  0.1736  1.2935
 6860TIP3   OH242214   1.250   4.165   7.336 -0.2964 -0.2450  0.4723
 6860TIP3    H142215   1.243   4.210   7.420  3.0970 -0.1094  0.8062
 6860TIP3    H242216   1.269   4.074   7.359  0.2464 -0.2907 -0.1397
 6861TIP3   OH242217   1.999   1.387   8.714  0.1850 -0.2113 -0.2105
 6861TIP3    H142218   2.006   1.303   8.668 -2.0254 -0.7034  0.2337
 6861TIP3    H242219   2.086   1.402   8.750  0.8669 -1.8606 -1.0627
 6862TIP3   OH242220   1.377   6.759   7.992  0.9793  0.7882 -0.4802
 6862TIP3    H142221   1.318   6.735   7.921  0.3373  0.9309 -0.0073
 6862TIP3    H242222   1.416   6.676   8.020 -0.3422  0.4024  0.3684
 6863TIP3   OH242223   5.448   5.718   8.257 -0.0343  0.0714  0.2689
 6863TIP3    H142224   5.524   5.739   8.204 -0.0688 -0.4345  0.0084
 6863TIP3    H242225   5.428   5.799   8.304  1.0036  0.0442  0.7770
 6864TIP3   OH242226   4.516   0.231   7.012 -0.3208 -0.6123  0.5100
 6864TIP3    H142227   4.509   0.325   7.027 -1.3748 -0.5386 -0.3563
 6864TIP3    H242228   4.604   0.219   6.977 -0.6793  0.2762 -0.7884
 6865TIP3   OH242229   0.361   0.980   7.367  0.3749 -0.3518 -0.1433
 6865TIP3    H142230   0.366   1.067   7.328  0.3555 -0.1875  0.2137
 6865TIP3    H242231   0.362   0.996   7.462  0.6354 -0.7550 -0.0740
 6866TIP3   OH242232   4.760   6.021   7.521 -0.3514  0.0253  0.7052
 6866TIP3    H142233   4.809   5.993   7.599 -0.8570  0.1678  1.0803
 6866TIP3    H242234   4.700   6.088   7.554  0.5596  1.2898 -0.0932
 6867TIP3   OH242235   0.756   2.661   7.659 -0.7765  0.1574 -0.2651
 6867TIP3    H142236   0.769   2.696   7.571  0.9344  2.1678  0.7058
 6867TIP3    H242237   0.661   2.663   7.672 -0.8731  2.9699 -0.9090
 6868TIP3   OH242238   5.900   2.255   6.681  0.4907  0.3425  0.3580
 6868TIP3    H142239   5.874   2.325   6.620 -1.8627 -1.5238 -0.9817
 6868TIP3    H242240   5.836   2.260   6.752  0.1181 -0.5809  0.1035
 6869TIP3   OH242241   0.439   1.823   0.735 -0.0383 -0.0362  0.1815
 6869TIP3    H142242   0.509   1.846   0.796  1.4808  0.0497 -1.5279
 6869TIP3    H242243   0.375   1.776   0.789  2.1671 -1.7245  1.4698
 6870TIP3   OH242244   1.365   0.358   3.036  0.2439 -0.2522  0.0004
 6870TIP3    H142245   1.373   0.430   3.099  3.3168  0.0043 -0.5009
 6870TIP3    H242246   1.306   0.392   2.968 -3.1864 -0.5617  2.5729
 6871TIP3   OH242247   4.736   5.373   1.628  0.1486 -0.1169  0.1785
 6871TIP3    H142248   4.793   5.296   1.622 -0.2322 -0.4410  0.5921
 6871TIP3    H242249   4.748   5.404   1.718 -1.1651 -0.8668  0.6447
 6872TIP3   OH242250   2.557   3.469   0.541 -0.2725 -0.2305  0.1536
 6872TIP3    H142251   2.581   3.401   0.479 -1.0642 -0.0511 -0.3583
 6872TIP3    H242252   2.523   3.541   0.487  1.5550  1.0387  0.5749
 6873TIP3   OH242253   5.171   3.358   1.772  0.5203 -0.1752 -0.2912
 6873TIP3    H142254   5.157   3.438   1.823  1.1176  0.4826 -1.1397
 6873TIP3    H242255   5.140   3.287   1.830  1.8199  0.4712  1.2686
 6874TIP3   OH242256   1.994   1.832   1.736  0.1850 -0.4466 -0.2194
 6874TIP3    H142257   1.970   1.924   1.736 -0.0976 -0.4914  1.3292
 6874TIP3    H242258   2.089   1.832   1.739  0.1761 -0.1169  2.3810
 6875TIP3   OH242259   1.222   3.754   6.534 -0.1701 -0.2897  0.0737
 6875TIP3    H142260   1.278   3.832   6.528  0.8674 -1.0315 -0.0033
 6875TIP3    H242261   1.133   3.790   6.533  0.2837  0.9075  0.1405
 6876TIP3   OH242262   2.689   2.838   7.580 -0.1094  0.5549 -0.6515
 6876TIP3    H142263   2.629   2.881   7.519  0.4943 -0.4828 -2.0285
 6876TIP3    H242264   2.692   2.747   7.550 -0.9991 -0.4065  1.8841
 6877TIP3   OH242265   6.286   2.357   2.578 -0.0972 -0.3992  0.2726
 6877TIP3    H142266   6.209   2.304   2.597  0.1744 -0.5239  1.0447
 6877TIP3    H242267   6.360   2.298   2.592  0.1625 -0.1364  0.0267
 6878TIP3   OH242268   3.111   5.802   7.890  0.1656 -0.2007 -0.2201
 6878TIP3    H142269   3.164   5.729   7.859  0.3932  0.1647 -0.7081
 6878TIP3    H242270   3.173   5.875   7.898  0.2157 -0.4056  1.5951
 6879TIP3   OH242271   5.341   1.359   7.001  0.3307  0.3116 -0.2186
 6879TIP3    H142272   5.400   1.386   6.931  1.4986 -0.3675  0.4607
 6879TIP3    H242273   5.257   1.343   6.958  1.4188 -1.6170 -1.7764
 6880TIP3   OH242274   1.666   0.733   1.539 -0.3387  0.3342 -0.2812
 6880TIP3    H142275   1.712   0.743   1.622 -0.0012 -1.8512 -0.1320
 6880TIP3    H242276   1.734   0.740   1.473 -0.4692  1.2069 -0.3297
 6881TIP3   OH242277   5.462   5.578   2.571  0.2744  0.0366  0.1016
 6881TIP3    H142278   5.508   5.494   2.563  0.7952  0.3201  0.1061
 6881TIP3    H242279   5.477   5.621   2.487  0.1827  0.2136  0.1767
 6882TIP3   OH242280   1.296   3.822   1.402  0.2240 -0.0585 -0.2030
 6882TIP3    H142281   1.243   3.808   1.323  1.0544 -0.5808 -0.6866
 6882TIP3    H242282   1.351   3.897   1.380  0.7607 -0.4715 -0.2926
 6883TIP3   OH242283   4.224   1.178   7.042 -0.3421 -0.0888 -0.7454
 6883TIP3    H142284   4.280   1.229   7.100 -2.1552  1.3251 -0.1467
 6883TIP3    H242285   4.183   1.113   7.099 -2.0439  1.2338 -0.3729
 6884TIP3   OH242286   0.284   2.140   7.444 -0.1584 -0.0370  0.1464
 6884TIP3    H142287   0.362   2.139   7.499  0.3360  1.1699 -0.5081
 6884TIP3    H242288   0.258   2.232   7.439 -0.7821 -0.2449 -0.8242
 6885TIP3   OH242289   2.542   1.367   0.957  0.1337  0.3460  0.1836
 6885TIP3    H142290   2.530   1.460   0.976 -0.8666  0.8702 -2.4609
 6885TIP3    H242291   2.518   1.359   0.864 -1.2592 -2.8112  0.6996
 6886TIP3   OH242292   0.002   1.515   7.644 -0.5338  0.1694 -0.9368
 6886TIP3    H142293  -0.002   1.610   7.649 -1.9186  0.1237 -0.8280
 6886TIP3    H242294  -0.089   1.487   7.634 -0.1634 -1.1515 -0.8678
 6887TIP3   OH242295   1.696   4.614   0.560  0.1245 -0.2945  0.3939
 6887TIP3    H142296   1.642   4.686   0.595  0.9336  0.1238  0.8328
 6887TIP3    H242297   1.657   4.593   0.476 -0.2531  0.5383  0.3474
 6888TIP3   OH242298   1.602   1.835   8.064 -0.2867 -0.0236 -0.3458
 6888TIP3    H142299   1.645   1.787   8.135 -0.7688 -2.4708 -1.5809
 6888TIP3    H242300   1.518   1.863   8.101  0.7807  1.6070  0.9703
 6889TIP3   OH242301   3.067   5.792   1.521 -0.1316  0.2011  0.0303
 6889TIP3    H142302   3.059   5.873   1.472  0.2292 -0.1812 -0.6677
 6889TIP3    H242303   3.157   5.791   1.552 -0.4567  0.6198  1.0376
 6890TIP3   OH242304   1.328   5.966   7.011  0.3741  0.0099 -0.0260
 6890TIP3    H142305   1.420   5.986   6.995  1.1329 -1.7688  1.5828
 6890TIP3    H242306   1.310   6.003   7.097 -0.1844 -0.2994 -0.0045
 6891TIP3   OH242307   0.634   4.870   7.115  0.2499 -0.1937 -0.1745
 6891TIP3    H142308   0.543   4.841   7.119  0.9372 -2.5004  0.1657
 6891TIP3    H242309   0.635   4.951   7.166 -1.5588 -0.2327 -0.0033
 6892TIP3   OH242310   5.893   0.051   1.672 -0.6626  0.0694  0.0317
 6892TIP3    H142311   5.835   0.033   1.598  1.3514  1.4650 -2.0247
 6892TIP3    H242312   5.980   0.062   1.633  0.4331  1.2954  2.5566
 6893TIP3   OH242313   2.472   4.889   2.372 -0.4972 -0.3608 -0.5475
 6893TIP3    H142314   2.379   4.869   2.380 -0.5006 -0.1450 -0.0146
 6893TIP3    H242315   2.492   4.945   2.447 -0.8212  2.9543 -2.7514
 6894TIP3   OH242316   0.691   3.398   7.761  0.2651  0.0931 -0.3097
 6894TIP3    H142317   0.643   3.455   7.700 -0.1276 -0.0194 -0.1104
 6894TIP3    H242318   0.716   3.323   7.708  0.8436  0.4760 -0.5926
 6895TIP3   OH242319   2.129   1.610   1.609 -0.7403  0.1447  0.0237
 6895TIP3    H142320   2.065   1.677   1.635 -1.9378 -1.1141  0.4445
 6895TIP3    H242321   2.111   1.536   1.667  1.3588 -0.1496  0.3956
 6896TIP3   OH242322   5.855   5.648   6.954  0.0951  0.2141 -0.1619
 6896TIP3    H142323   5.874   5.627   6.862 -0.3724 -1.0400  0.0186
 6896TIP3    H242324   5.936   5.626   7.000  0.7282  1.8813 -0.3859
 6897TIP3   OH242325   0.081   6.205   1.122 -0.0293 -0.0493 -0.2202
 6897TIP3    H142326   0.138   6.222   1.197 -1.4031  0.1831  0.7981
 6897TIP3    H242327   0.122   6.131   1.077  1.2715  0.3557  0.2633
 6898TIP3   OH242328   1.536   4.081   8.666 -0.0790  0.0749  0.4620
 6898TIP3    H142329   1.484   4.075   8.747 -0.4663 -0.2304  0.1952
 6898TIP3    H242330   1.481   4.039   8.600 -0.8237  2.3871 -0.4838
 6899TIP3   OH242331   0.567   5.578   7.385  0.2705  0.1280  0.1395
 6899TIP3    H142332   0.540   5.618   7.467  0.5703  0.1473  0.2292
 6899TIP3    H242333   0.497   5.601   7.323 -2.2252 -3.4012  1.3341
 6900TIP3   OH242334   4.507   1.836   8.545 -0.2234 -0.2823 -0.0052
 6900TIP3    H142335   4.579   1.894   8.571 -0.2000  0.7573 -2.1513
 6900TIP3    H242336   4.550   1.760   8.506 -0.2401 -0.0334 -0.5318
 6901TIP3   OH242337   2.086   2.355   1.012 -0.2795  0.4738 -0.0603
 6901TIP3    H142338   2.049   2.413   0.945  0.0621  0.9192  0.1293
 6901TIP3    H242339   2.079   2.267   0.975  1.7235  0.8725 -1.5791
 6902TIP3   OH242340   0.570   4.770   6.667 -0.1424 -0.2749  0.0456
 6902TIP3    H142341   0.496   4.799   6.615  0.6024 -1.8033 -2.0000
 6902TIP3    H242342   0.541   4.688   6.707  0.2258 -0.5408 -0.2301
 6903TIP3   OH242343   1.046   4.011   7.656 -0.0052  0.1403  0.1538
 6903TIP3    H142344   1.114   3.946   7.672 -1.4734 -1.1382  1.5591
 6903TIP3    H242345   1.017   3.995   7.566  0.0344 -0.8087  0.3022
 6904TIP3   OH242346   3.635   2.653   0.661  0.4983  0.2031 -0.3557
 6904TIP3    H142347   3.565   2.718   0.657 -1.0176 -1.3725 -0.7222
 6904TIP3    H242348   3.650   2.639   0.754  1.3071  1.5257 -0.2679
 6905TIP3   OH242349   4.449   3.239   1.151  0.2657 -0.0778 -0.3522
 6905TIP3    H142350   4.438   3.229   1.057  1.7126  1.0285 -0.6801
 6905TIP3    H242351   4.491   3.157   1.179 -0.1327 -0.3919 -0.6594
 6906TIP3   OH242352   0.688   1.645   7.881 -0.4090 -0.0179 -0.1783
 6906TIP3    H142353   0.594   1.643   7.863 -0.1035  0.1439 -1.9707
 6906TIP3    H242354   0.711   1.554   7.901 -0.4874 -0.5968 -2.5179
 6907TIP3   OH242355   0.546   6.488   0.007  0.4220 -0.0307  0.3823
 6907TIP3    H142356   0.487   6.443  -0.054  1.0402  0.2017 -0.3985
 6907TIP3    H242357   0.599   6.418   0.045 -0.3700 -0.2508  1.1380
 6908TIP3   OH242358   6.449   4.688   8.130  0.1431  0.6872 -0.5304
 6908TIP3    H142359   6.376   4.670   8.071 -0.6234  1.2007  0.2458
 6908TIP3    H242360   6.479   4.601   8.158 -0.5946  0.4846 -0.3457
 6909TIP3   OH242361   1.313   1.447   1.879  0.5091  0.5660  0.2160
 6909TIP3    H142362   1.391   1.478   1.925  2.4449 -1.7252 -1.2313
 6909TIP3    H242363   1.347   1.409   1.798 -2.3298  0.8273 -1.2146
 6910TIP3   OH242364   0.062   1.293   0.865  0.0832 -0.2284  0.2302
 6910TIP3    H142365   0.029   1.260   0.948  0.5303  0.3786  0.6536
 6910TIP3    H242366   0.006   1.252   0.799  0.6408 -1.8299  0.7287
 6911TIP3   OH242367   0.222   2.892   0.346  0.0776  0.4847 -0.5806
 6911TIP3    H142368   0.283   2.952   0.303 -1.3910  2.6061  0.0962
 6911TIP3    H242369   0.172   2.852   0.275  1.1331 -0.0151 -1.0515
 6912TIP3   OH242370   5.678   3.615   8.506 -0.0732  0.0993  0.6283
 6912TIP3    H142371   5.603   3.625   8.448  0.1090 -0.9897  0.1825
 6912TIP3    H242372   5.729   3.695   8.494  0.3820 -0.4427 -1.3479
 6913TIP3   OH242373   0.709   6.374   1.156 -0.1324 -0.3910 -0.4289
 6913TIP3    H142374   0.744   6.349   1.242 -0.6968  2.2815  0.7041
 6913TIP3    H242375   0.786   6.398   1.105  0.1451 -1.0856 -0.3492
 6914TIP3   OH242376   2.936   4.412   8.169 -0.6337 -0.1049 -0.2927
 6914TIP3    H142377   2.933   4.354   8.245  3.4084  1.3934  1.2611
 6914TIP3    H242378   2.984   4.362   8.103 -0.3270  0.1305 -0.2531
 6915TIP3   OH242379   4.142   0.462   7.233 -0.4081 -0.0819 -0.0813
 6915TIP3    H142380   4.180   0.388   7.282  1.6633  1.3315  0.6051
 6915TIP3    H242381   4.190   0.463   7.150  0.4098  1.1163  0.3741
 6916TIP3   OH242382   4.118   3.061   0.389 -0.1247 -0.3528  0.1571
 6916TIP3    H142383   4.195   3.065   0.333  0.3292  0.1106  0.7891
 6916TIP3    H242384   4.132   3.131   0.454 -0.8072 -0.6267  0.6166
 6917TIP3   OH242385   0.738   1.179   8.637  0.2045 -0.1839 -0.2725
 6917TIP3    H142386   0.768   1.165   8.547  0.9175  2.2173 -0.4847
 6917TIP3    H242387   0.818   1.201   8.685 -0.6628  3.6972 -0.2546
 6918TIP3   OH242388   5.165   1.215   2.168 -0.2387 -0.1940  0.1584
 6918TIP3    H142389   5.210   1.143   2.123 -0.1457  0.1272 -0.2638
 6918TIP3    H242390   5.233   1.281   2.181 -0.7817  0.7475 -1.4319
 6919TIP3   OH242391   3.961   1.072   0.282  0.3941  0.0027  0.6339
 6919TIP3    H142392   3.968   1.033   0.195  2.3770 -1.0339  1.1797
 6919TIP3    H242393   3.869   1.098   0.290  0.2790  0.6046 -1.9299
 6920TIP3   OH242394   2.776   6.692   8.036 -0.7905 -0.6235 -0.2607
 6920TIP3    H142395   2.807   6.604   8.015  0.1815 -0.4646  0.4371
 6920TIP3    H242396   2.712   6.679   8.106  1.3881 -0.6170  1.8550
 6921TIP3   OH242397   0.088   6.342   6.781  0.0083  0.5907  0.5279
 6921TIP3    H142398   0.044   6.419   6.817 -0.1187 -0.3199  2.4374
 6921TIP3    H242399   0.026   6.306   6.718  0.3357  2.3694 -0.8932
 6922TIP3   OH242400   4.735   5.646   6.567  0.4376 -0.4068  0.4247
 6922TIP3    H142401   4.734   5.604   6.653  1.7439 -0.1236  0.5972
 6922TIP3    H242402   4.649   5.688   6.560  0.3950 -0.2513  1.6782
 6923TIP3   OH242403   4.486   4.735   6.458  0.5291 -0.0559  0.1482
 6923TIP3    H142404   4.470   4.645   6.431 -0.0023 -0.1416  0.7200
 6923TIP3    H242405   4.398   4.770   6.476  0.5420  1.1453 -1.8135
 6924TIP3   OH242406   0.026   0.691   8.218 -0.0666 -0.5258 -0.3012
 6924TIP3    H142407  -0.033   0.675   8.144 -0.5914  2.7257 -0.7208
 6924TIP3    H242408   0.113   0.694   8.179 -0.1789 -0.2570 -0.5277
 6925TIP3   OH242409   2.394   0.611   8.163 -0.5170 -0.4478 -0.0406
 6925TIP3    H142410   2.356   0.524   8.145 -2.7349  0.6341 -0.9919
 6925TIP3    H242411   2.409   0.649   8.077  2.5274 -0.6228  0.3081
 6926TIP3   OH242412   6.309   4.171   0.471 -0.3902  0.5649  0.0035
 6926TIP3    H142413   6.248   4.098   0.463 -1.0964  1.1393 -0.0583
 6926TIP3    H242414   6.252   4.249   0.475  0.3049  1.0485  0.8408
 6927TIP3   OH242415   6.169   2.573   8.429 -0.0018 -0.5528  0.0248
 6927TIP3    H142416   6.198   2.664   8.424 -3.1749  0.5714 -0.7764
 6927TIP3    H242417   6.233   2.524   8.378  1.2070  1.3937 -0.4449
 6928TIP3   OH242418   5.040   6.283   6.598 -0.0694 -0.1243 -0.1978
 6928TIP3    H142419   4.974   6.353   6.598 -0.0956 -0.1454  0.5120
 6928TIP3    H242420   5.055   6.265   6.505  0.4624  1.3197 -0.4196
 6929TIP3   OH242421   5.745   6.333   0.041 -0.8877 -0.2617 -0.3109
 6929TIP3    H142422   5.809   6.385  -0.007 -0.1298 -1.3983 -0.5495
 6929TIP3    H242423   5.748   6.367   0.130 -0.4488  0.1370 -0.4777
 6930TIP3   OH242424   4.912   3.822   2.481  0.2861  0.0528  0.3992
 6930TIP3    H142425   4.861   3.774   2.546 -0.0148  1.0976  0.9554
 6930TIP3    H242426   4.847   3.875   2.434  0.3856 -1.2109 -1.2677
 6931TIP3   OH242427   2.468   1.279   8.059  0.1761 -0.2786  0.1645
 6931TIP3    H142428   2.423   1.194   8.064  0.6666 -0.4942  1.2014
 6931TIP3    H242429   2.407   1.336   8.012 -2.1680  0.0357  3.2561
 6932TIP3   OH242430   4.922   0.585   1.314  0.0080  0.0319  0.1762
 6932TIP3    H142431   4.889   0.544   1.234 -0.2742 -0.5240  0.5748
 6932TIP3    H242432   5.009   0.545   1.327 -0.5994 -1.0660  1.0081
 6933TIP3   OH242433   5.917   1.534   8.398  0.3925 -0.2693 -0.0779
 6933TIP3    H142434   5.928   1.444   8.428  0.3383  0.3969  2.1329
 6933TIP3    H242435   5.963   1.587   8.463 -0.6351  1.3810 -0.6320
 6934TIP3   OH242436   5.820   1.721   7.024 -0.1615  0.3458 -0.1648
 6934TIP3    H142437   5.870   1.701   6.945 -1.8487 -2.5341 -0.6422
 6934TIP3    H242438   5.873   1.688   7.096 -0.8278 -1.7956 -0.5868
 6935TIP3   OH242439   2.243   1.086   8.038  0.5026 -0.0721 -0.2136
 6935TIP3    H142440   2.249   1.002   8.082  2.0556  0.5106  0.7686
 6935TIP3    H242441   2.153   1.114   8.051  0.2983 -1.0284  0.4930
 6936TIP3   OH242442   5.200   2.063   8.593 -0.0126 -0.0115 -0.1758
 6936TIP3    H142443   5.246   2.118   8.530  0.4095  0.5606  0.6056
 6936TIP3    H242444   5.118   2.041   8.550 -0.6808  2.1264 -0.1274
 6937TIP3   OH242445   2.453   3.587   0.305 -0.2376  0.0738  0.7576
 6937TIP3    H142446   2.436   3.680   0.321  1.5731  1.0011 -2.0016
 6937TIP3    H242447   2.448   3.578   0.210  0.2795 -2.5495  0.9084
 6938TIP3   OH242448   1.894   0.943   2.015 -0.0177 -0.0057 -0.0218
 6938TIP3    H142449   1.862   0.904   1.934  2.2268  1.5686 -1.7937
 6938TIP3    H242450   1.962   1.004   1.987  0.5200  0.9704  3.0377
 6939TIP3   OH242451   3.531   0.398   1.629 -0.0316 -0.5256  0.0750
 6939TIP3    H142452   3.435   0.388   1.634  0.1320 -2.6731  0.0976
 6939TIP3    H242453   3.545   0.492   1.624 -2.1718 -0.1638 -0.2955
 6940TIP3   OH242454   0.964   4.175   1.093  0.5534 -0.8653  0.4149
 6940TIP3    H142455   1.046   4.131   1.113  1.8443  1.4085  0.4248
 6940TIP3    H242456   0.985   4.268   1.096 -1.6622 -0.2251 -1.1120
 6941TIP3   OH242457   5.522   6.779   7.903 -0.0858 -0.2413 -0.3614
 6941TIP3    H142458   5.458   6.808   7.838 -0.3250 -0.2769 -0.1432
 6941TIP3    H242459   5.481   6.798   7.988  0.0755 -0.5159 -0.2192
 6942TIP3   OH242460   0.366   3.849   2.006  0.6399 -0.2056  0.0079
 6942TIP3    H142461   0.361   3.936   2.046  1.5209 -0.3497  0.4748
 6942TIP3    H242462   0.276   3.820   2.000  0.1606  1.3813 -1.6208
 6943TIP3   OH242463   0.317   3.602   1.176 -0.3021 -0.2058 -0.3347
 6943TIP3    H142464   0.276   3.687   1.188  0.1917  0.1040 -0.7851
 6943TIP3    H242465   0.377   3.615   1.102 -0.9849 -1.2123 -1.0942
 6944TIP3   OH242466   5.840   1.137   1.022  0.0276 -0.1778 -0.0161
 6944TIP3    H142467   5.909   1.174   0.967 -0.3335  0.3494 -0.1290
 6944TIP3    H242468   5.886   1.097   1.096  0.5609 -1.5076 -1.0386
 6945TIP3   OH242469   2.303   0.141   8.199  0.4079 -0.1910 -0.1157
 6945TIP3    H142470   2.350   0.150   8.282  2.5147 -1.8445 -1.0480
 6945TIP3    H242471   2.286   0.231   8.172  1.3944  0.4293  1.1930
 6946TIP3   OH242472   6.348   1.527   7.499  0.1604 -0.5343 -0.3051
 6946TIP3    H142473   6.343   1.561   7.410  1.1618 -1.5349 -0.7710
 6946TIP3    H242474   6.261   1.490   7.515  0.0684 -0.6352 -0.9905
 6947TIP3   OH242475   2.349   5.986   1.855  0.2284 -0.0376  0.0283
 6947TIP3    H142476   2.294   6.062   1.875 -0.2091 -0.2007 -0.4962
 6947TIP3    H242477   2.418   5.988   1.920  0.0148  0.6039  0.2456
 6948TIP3   OH242478   2.689   3.586   7.573 -0.1417 -0.4463  0.8397
 6948TIP3    H142479   2.673   3.492   7.576  0.2368 -0.5059  1.0178
 6948TIP3    H242480   2.620   3.620   7.516 -0.8950 -0.6970  1.5793
 6949TIP3   OH242481   3.830   4.752   1.036  0.1818 -0.2054  0.2416
 6949TIP3    H142482   3.832   4.804   0.956  1.6853 -0.1248  0.2975
 6949TIP3    H242483   3.906   4.783   1.086  0.3871 -1.5953  0.8233
 6950TIP3   OH242484   1.980   4.680   8.475  0.3487 -0.2366 -0.3072
 6950TIP3    H142485   2.013   4.611   8.418 -0.0938 -0.7684  0.0689
 6950TIP3    H242486   1.955   4.751   8.415 -0.8023 -1.0705 -0.8537
 6951TIP3   OH242487   1.572   1.848   2.180 -0.0301  0.3983  0.2224
 6951TIP3    H142488   1.543   1.923   2.128 -1.7030  1.4060  2.4594
 6951TIP3    H242489   1.662   1.870   2.205  0.3402  0.4914 -1.1332
 6952TIP3   OH242490   3.976   1.689   2.092  0.0614 -0.6561  0.0260
 6952TIP3    H142491   4.043   1.652   2.035  1.2234  0.4985  0.5877
 6952TIP3    H242492   3.948   1.616   2.147 -1.1170 -1.8062 -1.9756
 6953TIP3   OH242493   4.358   4.443   7.751  0.1706 -0.4263 -0.1601
 6953TIP3    H142494   4.292   4.407   7.692  0.5787  0.9814 -1.5485
 6953TIP3    H242495   4.434   4.386   7.740 -0.2604 -1.0576  0.1502
 6954TIP3   OH242496   4.734   6.427   7.826 -0.0688 -0.5875  0.2323
 6954TIP3    H142497   4.800   6.427   7.895  2.6661  1.6262 -2.1271
 6954TIP3    H242498   4.674   6.498   7.849 -0.9072 -1.7097  1.6751
 6955TIP3   OH242499   4.678   2.090   8.632  0.1632 -0.1161  0.0543
 6955TIP3    H142500   4.751   2.029   8.633  0.5352  0.2763 -1.2658
 6955TIP3    H242501   4.717   2.175   8.655 -0.2626 -0.2676  1.3983
 6956TIP3   OH242502   3.660   3.190   0.866  0.0985  0.3625 -0.0103
 6956TIP3    H142503   3.591   3.205   0.800 -0.0064  0.5290  0.1391
 6956TIP3    H242504   3.738   3.169   0.814  0.1491  1.0054 -0.2060
 6957TIP3   OH242505   6.530   5.819   7.090 -0.2540 -0.7330 -0.3774
 6957TIP3    H142506   6.454   5.766   7.114 -1.7961  1.0754 -1.0715
 6957TIP3    H242507   6.493   5.900   7.056  2.0107  0.2340 -0.6814
 6958TIP3   OH242508   2.911   5.638   1.369  0.3555  0.2042  0.2027
 6958TIP3    H142509   2.981   5.679   1.421 -0.4871  2.1653 -0.1274
 6958TIP3    H242510   2.832   5.650   1.421  0.0786 -1.1515  0.1358
 6959TIP3   OH242511   4.809   3.279   0.144  0.3523  0.7436 -0.2487
 6959TIP3    H142512   4.769   3.346   0.200  0.5255  0.9704 -0.3995
 6959TIP3    H242513   4.898   3.311   0.128  0.7863 -0.0241  0.5402
 6960TIP3   OH242514   4.996   1.571   8.033 -0.3082 -0.0882 -0.1667
 6960TIP3    H142515   5.090   1.554   8.036 -0.2837  0.2065  1.0108
 6960TIP3    H242516   4.964   1.517   7.960  0.9166  0.5643 -1.2264
 6961TIP3   OH242517   3.086   3.478   6.239 -0.3893  0.3207 -0.2315
 6961TIP3    H142518   3.132   3.559   6.260  0.3162 -0.2221  0.3482
 6961TIP3    H242519   2.996   3.493   6.268 -0.3594  1.0246 -0.4733
 6962TIP3   OH242520   2.057   0.996   0.375  0.1082  0.3455  0.2695
 6962TIP3    H142521   2.073   0.980   0.469 -1.0855  0.2136  0.4617
 6962TIP3    H242522   2.120   1.065   0.352  1.0577 -0.2704  0.9352
 6963TIP3   OH242523   4.857   4.978   0.989  0.8389  0.0122  0.6075
 6963TIP3    H142524   4.853   4.927   0.908  1.2039  0.5351  0.2626
 6963TIP3    H242525   4.942   4.956   1.027  0.8678  0.1381  0.6132
 6964TIP3   OH242526   6.226   2.332   8.592  0.1937 -0.3310 -0.4553
 6964TIP3    H142527   6.266   2.337   8.679  0.6874 -0.5577 -0.6668
 6964TIP3    H242528   6.206   2.423   8.569  1.1877 -0.1548 -0.6270
 6965TIP3   OH242529   1.429   0.324   1.675  0.2722  0.0639  0.8534
 6965TIP3    H142530   1.375   0.342   1.751 -1.0549 -1.4912  0.3332
 6965TIP3    H242531   1.381   0.362   1.601  0.3962 -0.4125  0.5201
 6966TIP3   OH242532   2.486   0.419   2.386  0.0717  0.3822  0.2336
 6966TIP3    H142533   2.578   0.424   2.412  0.4680  2.2831 -1.2830
 6966TIP3    H242534   2.450   0.505   2.410 -2.1652 -1.2712  3.5079
 6967TIP3   OH242535   1.276   1.839   0.174 -0.2446 -0.4571  0.1389
 6967TIP3    H142536   1.242   1.795   0.252  0.0125 -0.3664  0.3050
 6967TIP3    H242537   1.219   1.810   0.103 -0.2571 -0.8289  0.2968
 6968TIP3   OH242538   6.481   2.000   1.719 -0.2489 -0.3200 -0.0217
 6968TIP3    H142539   6.457   1.923   1.668  2.3585 -0.7777 -0.6751
 6968TIP3    H242540   6.527   1.966   1.795  1.6155  0.5475 -0.6977
 6969TIP3   OH242541   3.272   2.160   2.349 -0.2141  0.9187 -0.0496
 6969TIP3    H142542   3.367   2.161   2.340 -0.0464 -1.0591  0.9660
 6969TIP3    H242543   3.241   2.113   2.271 -0.1392 -0.4302  0.6957
 6970TIP3   OH242544   1.302   2.309   1.600 -0.4250  0.2535 -0.8857
 6970TIP3    H142545   1.235   2.280   1.662  1.3995 -2.5574 -0.0366
 6970TIP3    H242546   1.384   2.273   1.634  1.2820  1.9306 -2.8981
 6971TIP3   OH242547   6.799   0.392   6.905 -0.4263 -0.3128  0.2095
 6971TIP3    H142548   6.789   0.298   6.892  0.3567 -0.3466 -0.2153
 6971TIP3    H242549   6.866   0.419   6.842  0.6339  0.2134  1.4978
 6972TIP3   OH242550   2.232   2.711   8.104  0.1692  0.1948 -0.6820
 6972TIP3    H142551   2.266   2.625   8.078 -0.2552 -0.2148  0.0943
 6972TIP3    H242552   2.152   2.721   8.052 -0.8804 -0.7892  0.6871
 6973TIP3   OH242553   2.623   2.716   2.035 -0.4257 -0.4807  0.3074
 6973TIP3    H142554   2.572   2.732   2.115  0.0097  0.5547  0.3866
 6973TIP3    H242555   2.702   2.768   2.046 -0.4815 -0.1106 -0.9337
 6974TIP3   OH242556   3.958   2.161   0.423 -0.0054 -0.1267 -0.7013
 6974TIP3    H142557   3.906   2.162   0.503  0.8331 -0.1900 -0.1390
 6974TIP3    H242558   4.048   2.178   0.452  0.6856 -2.2961 -1.3391
 6975TIP3   OH242559   3.197   5.333   7.681  0.8323 -0.3145 -0.3996
 6975TIP3    H142560   3.275   5.338   7.626  1.8690 -0.3589  1.0094
 6975TIP3    H242561   3.134   5.391   7.638  1.8078  0.1255 -1.2943
 6976TIP3   OH242562   6.470   2.702   7.770 -0.3699  0.2257  0.3621
 6976TIP3    H142563   6.460   2.791   7.802  0.1886 -0.0004  1.2223
 6976TIP3    H242564   6.496   2.711   7.679 -2.3806  0.8931 -0.1942
 6977TIP3   OH242565   0.076   2.160   8.457  0.4058 -0.3580  0.5469
 6977TIP3    H142566   0.125   2.157   8.539 -0.3928 -0.4695  1.0285
 6977TIP3    H242567   0.047   2.070   8.443 -1.5159  0.0691  1.4357
 6978TIP3   OH242568   6.266   6.694   7.426 -0.3581  0.5648  0.4290
 6978TIP3    H142569   6.189   6.742   7.398 -1.6584 -1.6016  0.0599
 6978TIP3    H242570   6.332   6.713   7.360 -0.6990  2.0350  0.4687
 6979TIP3   OH242571   4.992   6.605   7.213  0.5486  0.0933 -0.0977
 6979TIP3    H142572   4.939   6.682   7.191  1.2853  0.4743 -0.5944
 6979TIP3    H242573   5.079   6.641   7.229  0.7205 -0.5549  0.4287
 6980TIP3   OH242574   3.646   2.015   0.688 -0.2505 -0.3885  0.3592
 6980TIP3    H142575   3.611   1.948   0.748 -1.2772  0.2638  0.5149
 6980TIP3    H242576   3.738   1.991   0.677 -0.3963 -1.3550  1.0552
 6981TIP3   OH242577   0.299   4.331   1.928  0.3483  0.1353 -0.5272
 6981TIP3    H142578   0.251   4.295   2.003  0.8417  0.0843 -0.2335
 6981TIP3    H242579   0.342   4.409   1.963  2.3779 -1.0646 -0.1480
 6982TIP3   OH242580   1.234   0.279   7.327 -0.3348  0.2882  0.3704
 6982TIP3    H142581   1.181   0.358   7.329  0.7104  1.0047  1.1421
 6982TIP3    H242582   1.286   0.283   7.408 -1.6315 -2.1728  1.4126
 6983TIP3   OH242583   3.325   0.065   8.704 -0.0206 -0.0661 -1.0560
 6983TIP3    H142584   3.283   0.067   8.789 -0.6858  1.6283 -1.3924
 6983TIP3    H242585   3.382   0.142   8.703  0.1447 -0.1860 -2.0611
 6984TIP3   OH242586   3.344   3.272   7.181 -0.3428 -0.6088 -0.2414
 6984TIP3    H142587   3.322   3.216   7.106  0.1130 -0.8827 -0.1717
 6984TIP3    H242588   3.259   3.298   7.216 -0.5698 -0.1205 -1.1138
 6985TIP3   OH242589   4.237   2.446   7.543  0.6318 -0.6897  0.1202
 6985TIP3    H142590   4.326   2.481   7.551  0.6645 -0.6630 -0.3070
 6985TIP3    H242591   4.212   2.467   7.452 -1.0184  2.1792  1.0915
 6986TIP3   OH242592   5.339   5.966   8.711  0.0834  0.1944 -0.7635
 6986TIP3    H142593   5.387   6.043   8.680  1.5640 -0.4811 -0.2062
 6986TIP3    H242594   5.376   5.893   8.661  1.3102 -0.6746  1.2745
 6987TIP3   OH242595   3.584   1.940   0.110  0.7150 -0.3573  0.1245
 6987TIP3    H142596   3.591   1.978   0.198 -0.4302 -0.9380  0.4976
 6987TIP3    H242597   3.495   1.962   0.082  1.2390  0.2514 -1.1152
 6988TIP3   OH242598   5.789   6.507   1.305  0.4100  0.6587  0.0159
 6988TIP3    H142599   5.848   6.435   1.283  0.9004  0.4080  1.9417
 6988TIP3    H242600   5.834   6.585   1.272 -0.4824  0.1240 -2.7861
 6989TIP3   OH242601   2.910   3.811   8.199  0.1232  0.5474 -0.0419
 6989TIP3    H142602   2.865   3.861   8.268  0.9501 -1.3001  1.9299
 6989TIP3    H242603   2.840   3.764   8.155 -0.2622  0.5407  0.5635
 6990TIP3   OH242604   5.240   2.812   0.681  0.7564  0.2786 -0.1713
 6990TIP3    H142605   5.263   2.818   0.588 -1.6363  1.8879 -0.7451
 6990TIP3    H242606   5.236   2.718   0.699  1.5690 -0.0567 -1.5926
 6991TIP3   OH242607   5.654   2.049   7.085 -0.3151 -0.2396  0.0056
 6991TIP3    H142608   5.675   1.972   7.033 -0.0615 -0.4951  0.4842
 6991TIP3    H242609   5.613   2.109   7.022  0.2410 -0.4295 -0.5520
 6992TIP3   OH242610   5.162   6.641   8.494  0.0682  0.0228 -0.3610
 6992TIP3    H142611   5.113   6.719   8.520 -0.6372 -0.5314  0.0197
 6992TIP3    H242612   5.095   6.577   8.471  0.6521 -0.2340 -1.4112
 6993TIP3   OH242613   2.078   2.688   1.091 -0.1981 -0.3075 -1.1175
 6993TIP3    H142614   2.068   2.709   0.998  1.9476  0.5099 -1.2271
 6993TIP3    H242615   2.165   2.723   1.114 -0.7029 -0.4295  1.2136
 6994TIP3   OH242616   6.391   0.857   2.227  1.2548  0.5592 -0.0046
 6994TIP3    H142617   6.353   0.854   2.315 -0.0174  0.5440 -0.5374
 6994TIP3    H242618   6.486   0.850   2.242  1.2248  2.5402  1.4817
 6995TIP3   OH242619   5.589   5.794   0.132  0.4612 -0.1307  0.3388
 6995TIP3    H142620   5.558   5.883   0.115  2.2136  0.4522  0.0296
 6995TIP3    H242621   5.546   5.769   0.214 -1.5506  0.2354 -0.5419
 6996TIP3   OH242622   3.247   2.139   7.830  0.5144 -0.0999  0.0910
 6996TIP3    H142623   3.151   2.145   7.830  0.5221  1.5046  2.4241
 6996TIP3    H242624   3.267   2.081   7.904  1.3130  2.5050  2.0590
 6997TIP3   OH242625   3.265   5.444   8.435 -0.1731 -0.3037 -0.4100
 6997TIP3    H142626   3.261   5.539   8.420  0.5806 -0.3871 -1.2362
 6997TIP3    H242627   3.187   5.411   8.391  0.0381 -0.1499 -0.9108
 6998TIP3   OH242628   1.157   1.874   6.421 -0.1202 -0.3006 -0.0724
 6998TIP3    H142629   1.091   1.924   6.374 -1.9466 -0.1495  2.4721
 6998TIP3    H242630   1.108   1.823   6.484  2.1753 -0.1269  1.9860
 6999TIP3   OH242631   5.163   0.353   0.641 -0.1273  0.0582  0.0790
 6999TIP3    H142632   5.082   0.306   0.660  0.1706  0.5393  2.9124
 6999TIP3    H242633   5.219   0.336   0.716  1.5744  1.5441 -0.7750
 7000TIP3   OH242634   2.151   4.114   7.649  0.1625 -0.1858  0.5855
 7000TIP3    H142635   2.163   4.205   7.677 -2.1665  0.6538 -0.8547
 7000TIP3    H242636   2.238   4.075   7.656  1.5899  2.5914 -0.2695
 7001TIP3   OH242637   1.500   3.489   1.298 -0.1042 -0.2923 -0.1394
 7001TIP3    H142638   1.460   3.480   1.211  0.0535 -1.8848 -0.0910
 7001TIP3    H242639   1.428   3.509   1.356 -0.5283 -1.0872 -0.3729
 7002TIP3   OH242640   5.481   3.745   7.373  0.5814  0.2441 -0.2028
 7002TIP3    H142641   5.532   3.682   7.322  2.0424  1.3105 -0.1225
 7002TIP3    H242642   5.394   3.706   7.379  0.9741 -0.9433 -1.6192
 7003TIP3   OH242643   6.311   3.740   7.794  0.2619 -0.3664  0.6248
 7003TIP3    H142644   6.351   3.675   7.737 -2.2898 -2.5133  1.0928
 7003TIP3    H242645   6.272   3.805   7.735  0.3289 -0.8647  0.0363
 7004TIP3   OH242646   5.067   6.469   7.818  0.0145  0.1476 -0.2270
 7004TIP3    H142647   5.023   6.459   7.902  0.4321  0.8868  0.0815
 7004TIP3    H242648   5.109   6.383   7.803 -0.4037 -0.1192  0.1137
 7005TIP3   OH242649   1.739   3.926   0.937  0.0100  0.0367 -1.0368
 7005TIP3    H142650   1.831   3.921   0.962 -0.0786 -0.4670 -0.7883
 7005TIP3    H242651   1.740   3.919   0.842  0.1834 -0.7920 -0.9810
 7006TIP3   OH242652   0.776   1.087   7.855  0.5531 -0.8189 -0.3014
 7006TIP3    H142653   0.800   1.035   7.779 -2.2856 -2.0665 -0.4756
 7006TIP3    H242654   0.695   1.131   7.830  1.6530  2.0056  0.6598
 7007TIP3   OH242655   3.009   0.491   0.529  0.1446 -0.4443  0.8908
 7007TIP3    H142656   3.081   0.519   0.585  1.1218 -1.2298  0.0845
 7007TIP3    H242657   3.019   0.396   0.524 -0.8950 -0.5482  0.6852
 7008TIP3   OH242658   0.036   2.076   2.861 -0.1836 -0.2580 -0.2285
 7008TIP3    H142659   0.087   2.009   2.907  0.2493  0.4669  0.3804
 7008TIP3    H242660   0.102   2.135   2.824 -0.5348 -0.7770 -1.7242
 7009TIP3   OH242661   3.583   5.535   1.912  0.3163 -0.0514 -0.6720
 7009TIP3    H142662   3.587   5.553   2.006 -1.2184 -0.0164 -0.5877
 7009TIP3    H242663   3.539   5.450   1.905  0.3620 -0.0278 -1.3688
 7010TIP3   OH242664   4.225   6.290   7.087 -0.1057 -0.0728 -0.2277
 7010TIP3    H142665   4.138   6.309   7.120 -0.9771  0.8406 -2.7715
 7010TIP3    H242666   4.250   6.369   7.039  1.9371 -0.4975  0.0596
 7011TIP3   OH242667   0.776   1.585   2.708  0.2123 -0.7606 -0.0194
 7011TIP3    H142668   0.712   1.623   2.647  2.2422  0.7445 -1.3714
 7011TIP3    H242669   0.795   1.656   2.769  0.3732 -1.3007  0.5697
 7012TIP3   OH242670   2.930   6.281   0.581 -0.3195  0.1923  0.4432
 7012TIP3    H142671   2.877   6.318   0.510  0.6796  1.3953  0.2874
 7012TIP3    H242672   2.912   6.187   0.577 -0.0044  0.1580 -1.6846
 7013TIP3   OH242673   6.240   5.936   0.704 -0.1870  0.2678 -0.2880
 7013TIP3    H142674   6.254   5.955   0.796  0.0944 -0.2183 -0.2283
 7013TIP3    H242675   6.222   5.842   0.701 -2.3651  0.6182 -0.4679
 7014TIP3   OH242676   1.041   0.842   8.381 -0.0027 -0.3840 -0.4166
 7014TIP3    H142677   1.106   0.788   8.425  0.9290  0.5559 -0.5894
 7014TIP3    H242678   1.092   0.902   8.326 -1.0408 -0.0278 -1.0341
 7015TIP3   OH242679   5.371   3.869   0.231  0.1567  0.7785 -0.2954
 7015TIP3    H142680   5.347   3.778   0.214 -1.3955  0.3845  3.1627
 7015TIP3    H242681   5.466   3.870   0.229  0.1887 -0.3496 -2.5770
 7016TIP3   OH242682   0.883   1.617   7.574 -0.2611  0.2730  0.2746
 7016TIP3    H142683   0.960   1.575   7.611 -1.0577 -0.1959  1.4903
 7016TIP3    H242684   0.822   1.545   7.557 -0.9251  0.7478  0.5792
 7017TIP3   OH242685   2.670   3.374   1.673 -0.0135 -0.0466  0.0065
 7017TIP3    H142686   2.714   3.360   1.589  1.1488 -0.9167  0.7223
 7017TIP3    H242687   2.733   3.425   1.724 -0.3631 -0.2352  0.6357
 7018TIP3   OH242688   2.420   6.248   2.385  0.2304  0.2740  0.0931
 7018TIP3    H142689   2.444   6.282   2.471 -1.3349 -0.8836  1.0415
 7018TIP3    H242690   2.492   6.191   2.360  0.7064  0.6323  0.6415
 7019TIP3   OH242691   0.369   3.012   0.174  0.0741 -0.3006 -0.4676
 7019TIP3    H142692   0.360   3.104   0.149  1.1614 -0.4890 -1.6479
 7019TIP3    H242693   0.421   2.973   0.104 -0.8090 -1.9484 -0.2553
 7020TIP3   OH242694   2.465   5.246   1.492  0.8358  0.1378  0.1118
 7020TIP3    H142695   2.401   5.226   1.424 -0.0386 -0.4617  1.0760
 7020TIP3    H242696   2.491   5.160   1.526  0.5177  0.4539  1.1865
 7021TIP3   OH242697   5.193   4.039   0.132 -0.2300  0.3781  0.3745
 7021TIP3    H142698   5.254   3.979   0.175  1.9719  1.4871 -1.0422
 7021TIP3    H242699   5.116   4.038   0.189  0.5050 -2.1790  1.4828
 7022TIP3   OH242700   4.164   5.425   7.952 -0.1502 -0.2035 -0.2166
 7022TIP3    H142701   4.079   5.451   7.917  0.3768 -1.5095 -2.6387
 7022TIP3    H242702   4.219   5.502   7.941 -0.8430  0.4834  0.8992
 7023TIP3   OH242703   4.128   0.171   7.952  0.1124 -0.3264 -0.3342
 7023TIP3    H142704   4.177   0.203   7.877 -0.4654  0.1652 -0.5024
 7023TIP3    H242705   4.149   0.232   8.023  0.5733 -0.7280 -0.1187
 7024TIP3   OH242706   6.318   4.462   1.389  0.2196 -0.1693  0.2974
 7024TIP3    H142707   6.331   4.545   1.434 -0.5368 -0.3643  0.9063
 7024TIP3    H242708   6.227   4.464   1.361  0.9112  0.3515 -2.1189
 7025TIP3   OH242709   2.841   2.442   6.329 -0.0973  0.2579 -0.1238
 7025TIP3    H142710   2.802   2.515   6.376 -0.9319 -0.3217  0.1154
 7025TIP3    H242711   2.770   2.378   6.321  0.8982 -0.9743  0.6085
 7026TIP3   OH242712   6.360   3.267   1.964  0.3598  0.4573 -0.1491
 7026TIP3    H142713   6.279   3.311   1.987 -0.2011 -0.9269  0.6605
 7026TIP3    H242714   6.402   3.325   1.901  0.2153  2.6791  1.6688
 7027TIP3   OH242715   5.757   0.959   8.284 -0.6299  0.1423  0.2769
 7027TIP3    H142716   5.759   1.048   8.249 -2.4938  0.1746  0.1412
 7027TIP3    H242717   5.726   0.969   8.374 -0.1813 -0.3210  0.4889
 7028TIP3   OH242718   2.654   6.671   0.107 -0.4191 -0.2514 -0.0445
 7028TIP3    H142719   2.744   6.681   0.138 -0.2692 -0.2564 -0.4606
 7028TIP3    H242720   2.622   6.761   0.098 -0.5297 -0.2543  0.3089
 7029TIP3   OH242721   5.637   1.945   0.867  0.5508  0.3185  0.2470
 7029TIP3    H142722   5.716   1.998   0.874  0.2180  0.7371  0.9353
 7029TIP3    H242723   5.565   2.006   0.883  0.0087  0.1666 -1.4491
 7030TIP3   OH242724   5.412   6.836   1.334  0.1658  0.3516  0.0439
 7030TIP3    H142725   5.449   6.752   1.362 -0.8264 -0.7242 -1.6366
 7030TIP3    H242726   5.317   6.821   1.333 -0.1561  2.0451  1.2959
 7031TIP3   OH242727   0.664   5.778   7.007  0.0445 -0.4300  0.0375
 7031TIP3    H142728   0.711   5.701   7.039 -1.6805 -1.3230  0.5838
 7031TIP3    H242729   0.573   5.763   7.034 -0.5580  1.2263 -0.9178
 7032TIP3   OH242730   2.608   1.477   7.650  0.3041  0.2760  0.2386
 7032TIP3    H142731   2.584   1.569   7.661 -0.6042 -0.0057  0.7362
 7032TIP3    H242732   2.637   1.450   7.737  2.3511  0.5555 -0.2982
 7033TIP3   OH242733   6.161   3.464   0.112 -0.2273  0.0140  0.7691
 7033TIP3    H142734   6.194   3.431   0.196 -1.1744 -0.0295  1.1412
 7033TIP3    H242735   6.072   3.429   0.107 -0.1822  0.0275 -0.2560
 7034TIP3   OH242736   6.725   2.008   8.780  0.5288 -0.4560 -0.0518
 7034TIP3    H142737   6.733   1.984   8.872  0.4971  0.8055  0.2903
 7034TIP3    H242738   6.733   1.924   8.733  0.7563 -1.0849  1.0702
 7035TIP3   OH242739   5.602   5.598   7.971 -0.3681 -0.3964  0.9784
 7035TIP3    H142740   5.597   5.544   8.050  1.3085 -2.1452 -0.0206
 7035TIP3    H242741   5.606   5.535   7.899  1.7916  1.0006 -0.2479
 7036TIP3   OH242742   5.439   4.549   8.312  0.2616  0.1814  0.4135
 7036TIP3    H142743   5.518   4.551   8.367  0.3052 -0.5977  0.3972
 7036TIP3    H242744   5.440   4.462   8.272 -1.4317 -0.4768  1.6539
 7037TIP3   OH242745   4.427   0.705   6.928  0.1208 -0.1313  0.5937
 7037TIP3    H142746   4.460   0.678   6.842  0.6046 -0.0322  0.7467
 7037TIP3    H242747   4.506   0.717   6.981 -0.1953 -0.6290  1.1859
 7038TIP3   OH242748   3.913   2.883   0.723 -0.0533  0.1200 -0.5011
 7038TIP3    H142749   3.903   2.962   0.670  0.3956  0.2271 -0.4293
 7038TIP3    H242750   3.824   2.860   0.750 -0.0386  1.6385  0.9952
 7039TIP3   OH242751   5.761   0.916   7.115  0.2768 -0.6058  0.4518
 7039TIP3    H142752   5.820   0.889   7.044  1.2236  0.4823  0.7930
 7039TIP3    H242753   5.677   0.930   7.072  0.5684 -1.0154 -0.2729
 7040TIP3   OH242754   2.008   6.750   8.685 -0.4313 -0.2076 -0.1582
 7040TIP3    H142755   2.064   6.690   8.734 -2.7116 -0.4739  2.3621
 7040TIP3    H242756   1.989   6.705   8.603  2.2131 -0.4630 -0.7318
 7041TIP3   OH242757   1.661   5.043   0.314  0.0128  0.1420  0.1202
 7041TIP3    H142758   1.732   4.985   0.286 -0.0517  0.0477  0.1519
 7041TIP3    H242759   1.585   5.011   0.265  0.4242  1.5778 -1.5722
 7042TIP3   OH242760   3.825   0.190   7.807 -0.2901  0.0429 -0.1049
 7042TIP3    H142761   3.891   0.148   7.751 -0.7522 -0.7583 -0.0636
 7042TIP3    H242762   3.875   0.229   7.878  0.2992  0.9543 -0.9773
 7043TIP3   OH242763   2.599   0.938   1.879 -0.0763 -0.2847 -0.0799
 7043TIP3    H142764   2.514   0.907   1.912 -0.4905  2.1059  1.2690
 7043TIP3    H242765   2.644   0.972   1.956  1.0580  0.7945 -1.1818
 7044TIP3   OH242766   4.935   1.474   7.111  0.0118 -0.1992  0.6022
 7044TIP3    H142767   4.980   1.558   7.115  1.0902 -0.7001 -0.3605
 7044TIP3    H242768   4.915   1.462   7.018  1.9697 -2.0382  0.3429
 7045TIP3   OH242769   6.540   3.141   0.859  0.1841 -0.1083  0.4013
 7045TIP3    H142770   6.612   3.091   0.820 -0.3325 -0.6305  0.1109
 7045TIP3    H242771   6.464   3.121   0.804  0.0573  1.3293  0.0241
 7046TIP3   OH242772   4.948   4.087   6.987  0.0784 -0.2989 -0.4503
 7046TIP3    H142773   4.944   4.125   6.899  0.5823  0.2195 -0.2577
 7046TIP3    H242774   5.024   4.029   6.984 -0.4213 -0.9560 -0.6094
 7047TIP3   OH242775   4.165   2.483   6.237 -0.2299  0.2554 -0.2586
 7047TIP3    H142776   4.079   2.477   6.194 -0.0237 -0.0153 -0.6344
 7047TIP3    H242777   4.163   2.415   6.303 -0.4887  0.5688  0.0621
 7048TIP3   OH242778   3.811   5.182   0.681 -0.0359 -0.0832  0.2015
 7048TIP3    H142779   3.770   5.219   0.760  2.6405 -0.1759  1.7471
 7048TIP3    H242780   3.824   5.257   0.624 -1.6138  0.0557 -0.0292
 7049TIP3   OH242781   3.574   6.698   6.657  0.4478  0.3832 -0.4539
 7049TIP3    H142782   3.491   6.663   6.625  0.0076  0.7740  0.2291
 7049TIP3    H242783   3.580   6.666   6.747 -0.4554  2.7623  0.5583
 7050TIP3   OH242784   3.040   3.204   2.028 -0.6411 -0.0322  0.4949
 7050TIP3    H142785   2.952   3.231   2.052 -0.1873 -0.0737  2.4175
 7050TIP3    H242786   3.062   3.135   2.092  1.4425  1.2842  1.3142
 7051TIP3   OH242787   5.944   3.575   1.313  0.3824 -0.1600  0.0046
 7051TIP3    H142788   5.907   3.624   1.387  0.9296  0.0651  0.1371
 7051TIP3    H242789   5.875   3.514   1.287 -0.0533  0.2086  0.2853
 7052TIP3   OH242790   3.538   6.444   1.506  0.1736 -0.1294 -0.7368
 7052TIP3    H142791   3.566   6.368   1.556  3.1385  0.7160 -0.9460
 7052TIP3    H242792   3.442   6.438   1.505  0.2129 -2.5882  1.1547
 7053TIP3   OH242793   6.737   2.479   8.263  0.1983 -0.0310  0.3178
 7053TIP3    H142794   6.681   2.487   8.186 -0.7920  0.0721  1.0243
 7053TIP3    H242795   6.733   2.565   8.305 -0.5736 -0.5399  1.3349
 7054TIP3   OH242796   2.602   4.860   8.664 -0.7213 -0.2181 -0.2468
 7054TIP3    H142797   2.659   4.927   8.627 -2.0418  0.3729 -1.3127
 7054TIP3    H242798   2.550   4.829   8.589 -0.5135 -2.0639  0.3246
 7055TIP3   OH242799   4.685   4.614   0.882  0.3922  0.1245 -0.0188
 7055TIP3    H142800   4.642   4.533   0.854 -0.0148  0.1746  0.4510
 7055TIP3    H242801   4.638   4.683   0.836  0.3439  0.1375  0.0502
 7056TIP3   OH242802   6.165   5.295   7.560  0.0414 -0.3403 -0.1576
 7056TIP3    H142803   6.097   5.281   7.494 -0.9125 -1.0595  0.9137
 7056TIP3    H242804   6.241   5.326   7.512  0.0708 -2.7998 -1.8900
 7057TIP3   OH242805   5.409   5.153   8.754  0.3559 -0.1408 -0.1931
 7057TIP3    H142806   5.388   5.073   8.802 -1.0394 -0.4838 -1.3361
 7057TIP3    H242807   5.398   5.130   8.662  0.0682  1.3189 -0.5522
 7058TIP3   OH242808   0.111   0.915   0.073 -0.3470  0.0650 -0.3969
 7058TIP3    H142809   0.158   0.985   0.118 -0.7648  1.1074 -1.5346
 7058TIP3    H242810   0.120   0.936  -0.020 -0.6084 -1.3205 -0.7569
 7059TIP3   OH242811   1.759   1.745   7.202  0.4017  0.1745  0.0145
 7059TIP3    H142812   1.744   1.660   7.243  0.5530  0.0464 -0.1986
 7059TIP3    H242813   1.687   1.756   7.141 -0.3534  0.7789  0.9746
 7060TIP3   OH242814   3.304   1.359   8.785  0.5520 -0.3093 -0.0374
 7060TIP3    H142815   3.299   1.327   8.875 -0.8183  0.1894  0.0959
 7060TIP3    H242816   3.395   1.384   8.772  1.1240 -1.9168  0.6673
 7061TIP3   OH242817   6.323   3.751   8.555 -0.0953  0.2149  0.3198
 7061TIP3    H142818   6.287   3.801   8.482 -0.5171  0.9361  0.9956
 7061TIP3    H242819   6.246   3.710   8.596  0.0747  0.2256  0.6549
 7062TIP3   OH242820   0.312   3.201   6.266  0.2105  0.4223 -0.3350
 7062TIP3    H142821   0.274   3.118   6.295 -1.7161  1.4053  0.1865
 7062TIP3    H242822   0.318   3.254   6.346  0.4947  1.0998 -0.7939
 7063TIP3   OH242823   0.493   2.399   8.132  0.1788 -0.2361 -0.0103
 7063TIP3    H142824   0.516   2.308   8.111  0.8471  0.2372 -1.4627
 7063TIP3    H242825   0.411   2.414   8.084  0.5728  0.2095 -0.5493
 7064TIP3   OH242826   1.996   3.335   8.003  0.2998 -0.2056  0.5443
 7064TIP3    H142827   1.996   3.319   8.097  0.8853 -0.5104  0.4937
 7064TIP3    H242828   2.021   3.427   7.994 -0.8280  0.1397  0.7262
 7065TIP3   OH242829   6.072   1.275   8.693 -0.1450  0.9575 -0.5718
 7065TIP3    H142830   6.156   1.270   8.648 -0.3287 -2.1571 -0.8124
 7065TIP3    H242831   6.089   1.330   8.769  1.8142  1.2725 -1.1709
 7066TIP3   OH242832   6.200   1.990   7.122  0.0641  0.4811  0.4458
 7066TIP3    H142833   6.211   1.913   7.066  2.6651  1.4205 -0.4822
 7066TIP3    H242834   6.227   2.064   7.068 -0.1990  1.8099  2.0243
 7067TIP3   OH242835   0.669   3.582   7.005 -0.3143 -0.2247 -0.0625
 7067TIP3    H142836   0.581   3.612   7.027 -0.5848 -1.5139  0.7033
 7067TIP3    H242837   0.660   3.540   6.919 -0.9167 -2.2418  0.9433
 7068TIP3   OH242838   0.823   6.602   6.958 -0.3740  0.4240 -0.2336
 7068TIP3    H142839   0.873   6.521   6.948 -0.9110  0.1501 -0.7109
 7068TIP3    H242840   0.871   6.666   6.905 -0.5205  0.1685 -0.6713
 7069TIP3   OH242841   1.182   2.795   0.399 -0.3537  0.0415 -0.7467
 7069TIP3    H142842   1.094   2.772   0.368 -0.8644  0.4452  0.3487
 7069TIP3    H242843   1.212   2.716   0.444 -0.1642 -0.0842 -1.0909
 7070TIP3   OH242844   6.826   0.138   8.416  0.0378  1.0214  0.3913
 7070TIP3    H142845   6.763   0.074   8.382 -0.1799  1.1613  0.5264
 7070TIP3    H242846   6.780   0.180   8.489  0.7345  0.2701  1.2806
 7071TIP3   OH242847   4.681   1.667   0.169  0.2042 -0.1930  0.3151
 7071TIP3    H142848   4.669   1.735   0.236  0.1170 -0.6860  0.8044
 7071TIP3    H242849   4.730   1.711   0.099 -0.0938  0.4499  0.5036
 7072TIP3   OH242850   0.906   4.966   1.345 -0.2877 -0.5534 -0.1992
 7072TIP3    H142851   0.878   4.882   1.308  1.1471 -0.6414 -1.1611
 7072TIP3    H242852   0.958   4.941   1.422 -0.5966 -0.5033  0.0272
 7073TIP3   OH242853   3.757   4.657   6.214 -0.0320 -0.1203 -0.5535
 7073TIP3    H142854   3.770   4.689   6.303 -2.0785  0.8982 -0.5711
 7073TIP3    H242855   3.842   4.671   6.171  0.5164  0.8865  0.7866
 7074TIP3   OH242856   2.669   6.278   7.551  0.0069 -0.2304  0.0665
 7074TIP3    H142857   2.623   6.362   7.548 -0.7646 -0.6628 -0.8519
 7074TIP3    H242858   2.751   6.293   7.505 -0.1259  0.0254 -0.0869
 7075TIP3   OH242859   2.218   6.652   2.036 -0.1982 -0.3124 -0.4836
 7075TIP3    H142860   2.128   6.684   2.033 -0.5660 -1.3374 -0.7624
 7075TIP3    H242861   2.213   6.568   2.081  0.8546  0.3221  0.8868
 7076TIP3   OH242862   2.515   4.801   7.961 -0.1543  1.0243  0.5926
 7076TIP3    H142863   2.534   4.715   7.925 -1.0092  0.5183  1.3163
 7076TIP3    H242864   2.600   4.841   7.976  0.2408  0.4051  0.0156
 7077TIP3   OH242865   5.817   3.016   1.342 -0.0042 -0.3980  0.4278
 7077TIP3    H142866   5.912   3.029   1.331 -0.1089 -1.6104 -3.4773
 7077TIP3    H242867   5.783   3.105   1.353  1.5250  0.0519  2.1319
 7078TIP3   OH242868   5.994   6.716   1.312 -0.0556 -0.5310 -0.4190
 7078TIP3    H142869   6.034   6.653   1.373  0.3330 -0.3392 -0.4682
 7078TIP3    H242870   6.048   6.795   1.321 -0.3175 -0.3262 -0.6263
 7079TIP3   OH242871   4.124   3.570   1.425 -0.1793 -0.4736  0.2299
 7079TIP3    H142872   4.034   3.545   1.407 -0.5092  0.1583  0.9692
 7079TIP3    H242873   4.177   3.506   1.377 -1.0099 -1.1732  0.2381
 7080TIP3   OH242874   2.071   6.507   0.303 -0.2481  0.2153 -0.2198
 7080TIP3    H142875   2.077   6.601   0.321  0.0458  0.0401  0.6424
 7080TIP3    H242876   2.064   6.501   0.208 -0.0719  1.1032 -0.2937
 7081TIP3   OH242877   0.577   4.137   0.755  0.4497  0.0763  0.0321
 7081TIP3    H142878   0.558   4.162   0.665 -1.2434 -0.1767  0.2802
 7081TIP3    H242879   0.525   4.058   0.769  1.1620 -0.2365  1.0591
 7082TIP3   OH242880   3.656   0.112   6.599  0.5400  0.5543  0.1182
 7082TIP3    H142881   3.621   0.033   6.640  0.2346  1.3458  1.4497
 7082TIP3    H242882   3.638   0.102   6.506  1.4154 -1.4057  0.1128
 7083TIP3   OH242883   4.106   0.570   0.992 -0.0163 -0.5201  0.0245
 7083TIP3    H142884   4.057   0.650   0.972 -1.9231 -1.1209  1.9116
 7083TIP3    H242885   4.140   0.584   1.081  0.8570 -1.2647 -0.1709
 7084TIP3   OH242886   5.927   0.912   6.907 -0.1417  0.2615  0.7900
 7084TIP3    H142887   6.012   0.874   6.927  0.5016  0.6647 -0.9843
 7084TIP3    H242888   5.913   0.892   6.814 -1.2378  1.5961  0.6344
 7085TIP3   OH242889   1.346   6.179   7.231 -0.0018 -0.4696  0.1898
 7085TIP3    H142890   1.293   6.251   7.197  0.6931  0.7108  1.5143
 7085TIP3    H242891   1.283   6.111   7.255 -0.6255 -0.5580 -1.5714
 7086TIP3   OH242892   6.596   1.917   1.126 -0.6818  0.0945 -0.7248
 7086TIP3    H142893   6.632   1.829   1.130  0.5834  0.6303  0.9480
 7086TIP3    H242894   6.593   1.938   1.033 -0.7064 -1.5623 -1.1335
 7087TIP3   OH242895   3.647   6.521   8.394  0.2792  0.3791  0.1463
 7087TIP3    H142896   3.571   6.494   8.445  0.5340  2.2719  1.6501
 7087TIP3    H242897   3.648   6.462   8.319 -1.0371 -1.4976  1.5089
 7088TIP3   OH242898   1.778   6.010   7.185  0.2289  0.1411  0.6558
 7088TIP3    H142899   1.832   6.089   7.191  0.6766  0.0214 -1.1565
 7088TIP3    H242900   1.839   5.942   7.156 -0.5762 -0.3853  0.1686
 7089TIP3   OH242901   4.250   2.031   1.050 -0.0770  0.3211 -0.1730
 7089TIP3    H142902   4.309   2.102   1.075 -0.7778  1.3306 -1.2761
 7089TIP3    H242903   4.226   1.989   1.133  2.9600 -0.8295  0.2419
 7090TIP3   OH242904   1.313   3.116   8.004 -0.0843 -0.4673  0.2392
 7090TIP3    H142905   1.320   3.175   7.928  0.3701 -0.0571  0.5926
 7090TIP3    H242906   1.350   3.034   7.973  0.6117 -0.1381  0.1833
 7091TIP3   OH242907   5.672   5.885   7.111  0.2853  0.4264  0.5109
 7091TIP3    H142908   5.697   5.913   7.023  0.1078 -0.3989  0.1860
 7091TIP3    H242909   5.744   5.827   7.139 -0.7181 -1.1496 -0.0213
 7092TIP3   OH242910   3.479   3.125   6.274 -0.1304 -0.2162 -0.3056
 7092TIP3    H142911   3.394   3.166   6.257  1.0078  1.9005 -1.2901
 7092TIP3    H242912   3.542   3.183   6.230  1.8868 -1.3171  1.0234
 7093TIP3   OH242913   3.368   0.675   2.064  0.0190  0.1771 -0.1776
 7093TIP3    H142914   3.310   0.610   2.025  1.0099  0.3031 -1.9616
 7093TIP3    H242915   3.431   0.623   2.114 -1.3739  0.0293  1.5445
 7094TIP3   OH242916   5.171   4.111   2.221 -0.5623  0.3663  0.2090
 7094TIP3    H142917   5.249   4.166   2.230 -0.8213  0.7480  0.1212
 7094TIP3    H242918   5.168   4.059   2.301 -0.1737  0.2921  0.1777
 7095TIP3   OH242919   0.643   4.484   7.790 -0.0239 -0.0110 -0.4056
 7095TIP3    H142920   0.569   4.480   7.851  0.4870  1.8694  0.4012
 7095TIP3    H242921   0.637   4.402   7.741 -1.9851 -0.4130  0.3866
 7096TIP3   OH242922   0.177   1.733   0.488 -0.0780  0.1314 -0.1834
 7096TIP3    H142923   0.215   1.713   0.573  0.8924  0.6566 -0.4786
 7096TIP3    H242924   0.176   1.649   0.442  2.1429  0.3288 -0.7009
 7097TIP3   OH242925   0.887   4.886   7.691  0.2408 -0.4517 -0.1326
 7097TIP3    H142926   0.937   4.956   7.650  0.2167 -0.4907 -0.2282
 7097TIP3    H242927   0.824   4.859   7.624 -0.7467  0.4433  0.4129
 7098TIP3   OH242928   1.696   2.040   8.717 -0.1167  0.7169  0.0349
 7098TIP3    H142929   1.744   1.957   8.717 -0.2014  0.6487  1.2146
 7098TIP3    H242930   1.723   2.083   8.637 -0.6296 -0.7749 -0.9912
 7099TIP3   OH242931   2.242   3.586   6.952 -0.2350  0.7923  0.4091
 7099TIP3    H142932   2.297   3.554   6.880 -0.5977  0.8231  0.1153
 7099TIP3    H242933   2.200   3.507   6.987 -0.6148  0.8628  0.1171
 7100TIP3   OH242934   4.567   1.917   1.111  0.5744  0.2428 -0.3090
 7100TIP3    H142935   4.564   1.978   1.185  2.3659 -1.2984  1.1209
 7100TIP3    H242936   4.515   1.841   1.140  1.5630 -0.5126 -0.4675
 7101TIP3   OH242937   5.379   5.169   6.909 -0.0043 -0.6909 -0.0469
 7101TIP3    H142938   5.306   5.211   6.865  1.0306 -0.6817 -1.8371
 7101TIP3    H242939   5.426   5.240   6.952  1.5694  0.0511 -2.8137
 7102TIP3   OH242940   4.002   1.840   0.430  0.2454 -0.7461  0.4607
 7102TIP3    H142941   3.962   1.899   0.494  0.7446  1.3029 -0.9830
 7102TIP3    H242942   3.940   1.838   0.357  1.1746 -0.2390 -0.3825
 7103TIP3   OH242943   3.194   6.546   0.205 -0.3353 -0.1668 -0.4661
 7103TIP3    H142944   3.193   6.451   0.205  1.0593 -0.2329 -2.0525
 7103TIP3    H242945   3.283   6.570   0.178 -0.2422  1.6166  1.1697
 7104TIP3   OH242946   5.240   4.202   0.609  0.2965 -0.1484  0.3040
 7104TIP3    H142947   5.219   4.111   0.629 -0.0719 -0.1017  0.1443
 7104TIP3    H242948   5.182   4.253   0.666  0.6236 -0.0155  0.5149
 7105TIP3   OH242949   1.071   4.465   7.678  0.0936  0.0835 -0.6517
 7105TIP3    H142950   1.015   4.436   7.751  0.9569 -1.8958 -0.7125
 7105TIP3    H242951   1.141   4.400   7.674  0.1167  0.1559 -3.2107
 7106TIP3   OH242952   6.658   6.396   2.048 -0.3956  0.0321 -0.1537
 7106TIP3    H142953   6.672   6.429   2.137 -1.9770 -1.5458  0.7257
 7106TIP3    H242954   6.647   6.475   1.995 -1.9211  0.9912  1.4988
 7107TIP3   OH242955   4.157   2.244   6.794  0.2616  0.2288 -0.2910
 7107TIP3    H142956   4.101   2.305   6.746 -0.5721 -0.9830 -0.9292
 7107TIP3    H242957   4.240   2.246   6.746 -0.0968  0.0990 -0.9312
 7108TIP3   OH242958   1.816   4.653   7.007  0.2926  0.1280 -0.1854
 7108TIP3    H142959   1.876   4.640   7.081 -1.0881 -2.7586  0.5557
 7108TIP3    H242960   1.823   4.572   6.956 -2.1490  0.1298 -0.6427
 7109TIP3   OH242961   3.305   6.449   8.395  0.2208 -0.3819  0.1313
 7109TIP3    H142962   3.235   6.490   8.447  0.2331  0.0735 -0.2042
 7109TIP3    H242963   3.378   6.442   8.455  0.9523  2.0951 -0.3514
 7110TIP3   OH242964   5.779   6.447   0.277 -0.5048 -0.3284 -0.4698
 7110TIP3    H142965   5.737   6.431   0.362  0.2588 -0.4202 -0.1056
 7110TIP3    H242966   5.816   6.534   0.284  1.2913 -1.0971  0.0280
 7111TIP3   OH242967   2.709   5.818   7.184 -0.3141  0.3565  0.1409
 7111TIP3    H142968   2.646   5.767   7.134  0.0094  1.6925 -1.7205
 7111TIP3    H242969   2.763   5.862   7.118  2.8216 -0.9543  1.5896
 7112TIP3   OH242970   4.220   0.005   2.233 -0.3421  0.0175  0.3064
 7112TIP3    H142971   4.258   0.064   2.168  0.3953 -0.9975 -0.2195
 7112TIP3    H242972   4.289  -0.007   2.298 -0.8842  0.5932  1.0035
 7113TIP3   OH242973   1.136   6.087   2.615  0.1132 -0.4821  0.4994
 7113TIP3    H142974   1.222   6.115   2.582 -0.4376  0.9268  0.2241
 7113TIP3    H242975   1.087   6.168   2.628 -1.2742 -1.2756  0.4026
 7114TIP3   OH242976   4.259   4.437   0.652 -0.3861 -0.4671 -0.0625
 7114TIP3    H142977   4.189   4.373   0.662 -0.1745 -0.4217  2.2801
 7114TIP3    H242978   4.222   4.519   0.684 -0.8476  0.8543 -3.5516
 7115TIP3   OH242979   5.283   2.550   0.752  0.9174  0.1661  0.4556
 7115TIP3    H142980   5.275   2.495   0.674  1.6543  0.4219  0.1951
 7115TIP3    H242981   5.271   2.490   0.826 -1.4631  0.1732  0.1711
 7116TIP3   OH242982   0.152   4.117   7.613 -0.7280 -0.0427 -0.2701
 7116TIP3    H142983   0.075   4.122   7.670 -0.9740  0.0392 -0.6062
 7116TIP3    H242984   0.155   4.202   7.570  0.4685  0.5357  0.9074
 7117TIP3   OH242985   1.391   5.762   2.319  0.2791 -0.3628 -0.5745
 7117TIP3    H142986   1.472   5.713   2.305  1.4335  0.8231  1.4400
 7117TIP3    H242987   1.338   5.705   2.375 -0.3469 -1.1768 -1.9661
 7118TIP3   OH242988   3.426   2.814   0.875  0.2591  0.4012  0.2135
 7118TIP3    H142989   3.367   2.875   0.919  0.2601 -1.1897  2.6460
 7118TIP3    H242990   3.375   2.734   0.866  2.0183 -1.1701  2.7883
 7119TIP3   OH242991   1.100   0.596   7.287 -0.1569  0.0107  0.3908
 7119TIP3    H142992   1.050   0.629   7.212  0.2914 -0.5958 -0.1972
 7119TIP3    H242993   1.037   0.547   7.339 -0.5261  0.6413  0.5431
 7120TIP3   OH242994   0.919   6.189   7.873 -0.0367 -0.5987  0.8086
 7120TIP3    H142995   1.004   6.178   7.916  0.3219 -3.6652 -0.4890
 7120TIP3    H242996   0.866   6.116   7.905 -0.6659 -1.3469 -1.7573
 7121TIP3   OH242997   6.853   1.291   2.323  0.2046  0.0866  0.1434
 7121TIP3    H142998   6.795   1.330   2.258  1.8320  0.7724 -0.9896
 7121TIP3    H242999   6.891   1.214   2.279 -0.1511 -0.6043  1.0098
 7122TIP3   OH243000   1.824   3.054   0.381 -0.7638  0.3466 -0.2902
 7122TIP3    H143001   1.866   2.968   0.381 -1.9765 -0.2825  1.1501
 7122TIP3    H243002   1.769   3.054   0.303 -0.1726  0.1236 -0.7142
 7123TIP3   OH243003   1.314   3.914   7.858  0.3511 -0.3996 -0.8765
 7123TIP3    H143004   1.238   3.857   7.846 -0.1183  0.1880 -0.7073
 7123TIP3    H243005   1.389   3.854   7.858 -0.1563 -1.0459 -0.4360
 7124TIP3   OH243006   0.908   4.739   7.015 -0.2005 -0.4688 -0.3149
 7124TIP3    H143007   0.823   4.780   6.996  1.3375  2.0958 -2.5450
 7124TIP3    H243008   0.914   4.668   6.951 -1.2182 -1.6211  0.8298
 7125TIP3   OH243009   3.069   1.816   0.371  0.6215 -0.0611 -0.3484
 7125TIP3    H143010   3.101   1.881   0.308  2.0250 -2.0460 -1.7709
 7125TIP3    H243011   3.037   1.869   0.444  1.3964  2.2470 -1.5642
 7126TIP3   OH243012   2.724   4.312   1.110 -0.1224 -0.4800  0.1269
 7126TIP3    H143013   2.760   4.396   1.082 -1.2851 -0.2013 -0.6331
 7126TIP3    H243014   2.749   4.251   1.041  0.9352 -0.8328  0.8021
 7127TIP3   OH243015   0.984   2.108   1.590  0.3663  0.1606  0.0894
 7127TIP3    H143016   0.902   2.130   1.634  0.3260  2.1763 -0.8625
 7127TIP3    H243017   1.004   2.186   1.537  1.9341 -1.0098 -1.1283
 7128TIP3   OH243018   5.158   0.822   0.160  0.3330  0.6480  0.1681
 7128TIP3    H143019   5.160   0.727   0.170 -1.1720  0.6260  0.5340
 7128TIP3    H243020   5.240   0.852   0.199  0.5493 -0.4646  0.6025
 7129TIP3   OH243021   2.735   2.024   7.638 -0.0043 -0.4053  0.1254
 7129TIP3    H143022   2.708   1.959   7.703  0.7659 -0.0598  0.8154
 7129TIP3    H243023   2.664   2.087   7.636 -0.6813 -1.1580 -0.4231
 7130TIP3   OH243024   4.194   2.368   1.087  0.2990 -0.1261  0.6698
 7130TIP3    H143025   4.131   2.332   1.150  0.8827 -2.3352  0.0911
 7130TIP3    H243026   4.160   2.341   1.001  0.2505  1.6387  0.0967
 7131TIP3   OH243027   3.260   0.282   7.745 -0.2021  0.6347  0.2176
 7131TIP3    H143028   3.294   0.244   7.826  2.5752 -1.2128 -1.6008
 7131TIP3    H243029   3.336   0.322   7.704 -0.2277 -2.5191 -3.5188
 7132TIP3   OH243030   2.241   3.685   6.665 -0.0824 -0.2139 -0.2309
 7132TIP3    H143031   2.310   3.629   6.700 -2.1033 -1.5598  1.8956
 7132TIP3    H243032   2.247   3.765   6.718  0.5704  0.1681 -0.8664
 7133TIP3   OH243033   5.249   0.900   7.357 -0.0404  0.2353  0.3679
 7133TIP3    H143034   5.215   0.983   7.326 -1.1857 -0.0545  0.8222
 7133TIP3    H243035   5.241   0.841   7.282  1.0437  0.5952 -0.0450
 7134TIP3   OH243036   5.602   1.929   7.418 -0.0513 -0.4676  0.2006
 7134TIP3    H143037   5.578   1.853   7.366 -1.3197  0.8257 -1.2055
 7134TIP3    H243038   5.543   1.998   7.388  1.2659  1.1688  1.2024
 7135TIP3   OH243039   5.113   4.942   8.426  0.1959  0.8517 -0.7012
 7135TIP3    H143040   5.037   4.922   8.371  0.1466  2.1218 -1.1338
 7135TIP3    H243041   5.157   4.858   8.438 -2.4509 -0.3943  1.4156
 7136TIP3   OH243042   6.410   1.796   1.582 -0.2373  0.4029  0.3964
 7136TIP3    H143043   6.370   1.717   1.618 -0.3125  0.9243  1.4895
 7136TIP3    H243044   6.474   1.763   1.518 -0.3360 -0.5309  0.7567
 7137TIP3   OH243045   2.295   4.180   6.930 -1.0974 -0.0742  0.0584
 7137TIP3    H143046   2.384   4.217   6.926 -0.8888 -0.4840  0.7844
 7137TIP3    H243047   2.293   4.132   7.012 -2.0278  0.0030  0.0862
 7138TIP3   OH243048   4.298   4.911   0.665  0.1082  0.7659  0.5277
 7138TIP3    H143049   4.241   4.984   0.643 -0.3420  0.0560 -0.8053
 7138TIP3    H243050   4.351   4.898   0.586 -1.4083 -1.7666 -0.1851
 7139TIP3   OH243051   3.981   5.804   6.795  0.3580  0.2278  0.0618
 7139TIP3    H143052   3.905   5.822   6.739  0.7764  1.6700 -0.0554
 7139TIP3    H243053   4.034   5.744   6.743 -0.6697 -0.8044  0.1397
 7140TIP3   OH243054   6.163   3.392   7.562 -0.3268 -0.5067 -0.3430
 7140TIP3    H143055   6.203   3.452   7.500 -0.5342 -0.8468 -0.8140
 7140TIP3    H243056   6.109   3.447   7.619  1.0446  0.0058  0.5146
 7141TIP3   OH243057   0.136   3.137   1.263 -0.8579  0.3256 -0.0272
 7141TIP3    H143058   0.136   3.221   1.218 -0.1512  0.2405 -0.1940
 7141TIP3    H243059   0.186   3.152   1.343  1.3584 -0.5022 -1.1776
 7142TIP3   OH243060   5.617   6.153   1.305 -0.0670 -0.1353 -0.1369
 7142TIP3    H143061   5.546   6.212   1.329 -0.1226 -0.6529  1.0040
 7142TIP3    H243062   5.584   6.106   1.228 -0.7053  0.0855 -0.0003
 7143TIP3   OH243063   5.017   1.119   8.142 -0.0364 -0.3953 -0.1509
 7143TIP3    H143064   5.029   1.025   8.127 -0.2945 -0.3245 -0.8499
 7143TIP3    H243065   4.923   1.132   8.139 -0.3186 -0.6309  3.3287
 7144TIP3   OH243066   1.876   1.513   2.880  0.8568  0.0393  0.0555
 7144TIP3    H143067   1.937   1.469   2.820  0.9753  3.6393 -2.8124
 7144TIP3    H243068   1.931   1.568   2.935  0.4992  2.9523 -2.2376
 7145TIP3   OH243069   5.640   5.052   6.611  0.2290  0.0561 -0.5061
 7145TIP3    H143070   5.734   5.036   6.603 -0.0878 -2.2325 -0.2224
 7145TIP3    H243071   5.613   4.999   6.686 -1.4724 -0.1238 -1.2130
 7146TIP3   OH243072   0.006   1.534   0.765  0.7757  0.0342  0.0843
 7146TIP3    H143073   0.084   1.589   0.778  1.0652  0.1426 -1.7941
 7146TIP3    H243074   0.029   1.450   0.805  1.5222  0.3442  0.3193
 7147TIP3   OH243075   6.659   3.492   1.558 -0.0009  0.4876 -0.4708
 7147TIP3    H143076   6.581   3.448   1.592 -1.1044  0.8850 -2.3583
 7147TIP3    H243077   6.666   3.572   1.610  0.8367 -0.8633  1.6103
 7148TIP3   OH243078   0.888   1.369   1.519 -0.4601 -0.0561  0.0126
 7148TIP3    H143079   0.843   1.451   1.500  2.2873  1.0758 -2.3058
 7148TIP3    H243080   0.838   1.303   1.471 -1.0965  0.7299 -0.4249
 7149TIP3   OH243081   5.215   0.735   7.598  0.2394  0.0700  0.5072
 7149TIP3    H143082   5.290   0.746   7.540  0.3971 -2.5016  0.1035
 7149TIP3    H243083   5.249   0.686   7.673 -1.1995 -2.4974 -0.3648
 7150TIP3   OH243084   3.092   0.711   2.171 -0.0135 -0.1194 -0.1134
 7150TIP3    H143085   3.122   0.656   2.242  1.7079  1.3459  0.3572
 7150TIP3    H243086   3.141   0.681   2.094 -0.0422 -0.0910 -0.1431
 7151TIP3   OH243087   6.594   5.527   2.246 -0.3855  0.3512 -0.2963
 7151TIP3    H143088   6.680   5.543   2.207  1.4505  0.0174  3.1970
 7151TIP3    H243089   6.609   5.534   2.340 -3.5801 -2.6130  0.6387
 7152TIP3   OH243090   6.181   4.882   1.515  0.0846 -0.4192  0.0789
 7152TIP3    H143091   6.103   4.885   1.461  0.1435 -0.6447 -0.0190
 7152TIP3    H243092   6.228   4.963   1.494 -1.0630  0.6884  1.5648
 7153TIP3   OH243093   4.465   2.354   0.996  0.0159  0.0264 -0.2715
 7153TIP3    H143094   4.382   2.375   1.039  0.5760  1.9139 -0.0401
 7153TIP3    H243095   4.440   2.336   0.905 -0.7263 -0.2629 -0.0215
 7154TIP3   OH243096   6.353   3.186   0.663 -0.0718 -0.4991  0.6036
 7154TIP3    H143097   6.272   3.182   0.713 -0.4258 -1.4701 -0.0103
 7154TIP3    H243098   6.331   3.146   0.579  0.8128  0.0427  0.1035
 7155TIP3   OH243099   2.610   4.095   0.171  0.5260  0.9109  0.3983
 7155TIP3    H143100   2.694   4.141   0.172  1.3982 -0.5946  0.2251
 7155TIP3    H243101   2.600   4.061   0.260  1.9328 -1.9278 -0.3883
 7156TIP3   OH243102   5.026   6.746   0.860  0.2354 -0.1074  0.7553
 7156TIP3    H143103   5.015   6.658   0.895  1.7676 -0.3919  0.5806
 7156TIP3    H243104   4.941   6.788   0.874 -0.6223 -1.6967  0.5583
 7157TIP3   OH243105   1.059   1.953   7.772 -0.4023  0.4219 -0.0776
 7157TIP3    H143106   1.116   2.013   7.820 -0.1140  0.7843 -0.8584
 7157TIP3    H243107   1.002   1.916   7.839  0.4735  0.3616  0.6620
 7158TIP3   OH243108   2.615   1.196   2.307  0.3361 -0.1836 -0.7857
 7158TIP3    H143109   2.651   1.262   2.367  2.1127 -0.9935 -0.9241
 7158TIP3    H243110   2.568   1.136   2.364  2.0554 -0.9792 -0.1328
 7159TIP3   OH243111   6.460   3.940   1.610  0.4957 -0.1276 -0.0892
 7159TIP3    H143112   6.402   3.928   1.685 -0.0779 -0.7579 -0.6248
 7159TIP3    H243113   6.451   3.859   1.560  1.1917  0.1221 -0.6198
 7160TIP3   OH243114   1.135   3.734   7.740  0.0215  0.1836  0.0495
 7160TIP3    H143115   1.074   3.711   7.670  1.6978 -2.1719 -0.7638
 7160TIP3    H243116   1.221   3.716   7.704  1.3474  3.7914  1.0157
 7161TIP3   OH243117   0.453   1.761   6.306  0.6188  0.1849  0.0249
 7161TIP3    H143118   0.479   1.677   6.269  0.4818  0.2499 -0.2244
 7161TIP3    H243119   0.387   1.795   6.245  1.0822  0.7283 -0.1931
 7162TIP3   OH243120   5.232   4.328   7.115 -0.0769 -0.1248 -0.6785
 7162TIP3    H143121   5.288   4.314   7.038  2.5885 -0.0968  1.1501
 7162TIP3    H243122   5.198   4.417   7.104  0.2872 -0.1095 -1.8084
 7163TIP3   OH243123   5.562   2.551   8.409 -0.0930  0.1822 -0.5445
 7163TIP3    H143124   5.623   2.510   8.470  0.1640 -0.2443 -1.0775
 7163TIP3    H243125   5.602   2.539   8.323 -0.0936  1.4196 -0.7400
 7164TIP3   OH243126   5.050   1.710   0.693  0.8871  0.1183  0.2642
 7164TIP3    H143127   5.087   1.707   0.781 -0.9095  0.1587  1.0566
 7164TIP3    H243128   4.976   1.650   0.696  0.1271  0.9649 -0.8948
 7165TIP3   OH243129   5.445   0.586   8.313  0.3521  0.3112 -0.0340
 7165TIP3    H143130   5.494   0.613   8.390  0.0964 -0.0917  0.2689
 7165TIP3    H243131   5.426   0.493   8.327  1.6871 -0.1862 -1.3079
 7166TIP3   OH243132   2.648   0.744   8.320  0.3832  0.1040  0.3783
 7166TIP3    H143133   2.615   0.752   8.231  3.6028 -0.5754 -0.9921
 7166TIP3    H243134   2.680   0.831   8.343 -1.6053  0.6257  1.5059
 7167TIP3   OH243135   6.534   1.123   7.121  0.3493  0.1492  0.5197
 7167TIP3    H143136   6.567   1.194   7.176  1.3350 -0.2482  0.4621
 7167TIP3    H243137   6.585   1.129   7.041  0.0744 -0.2995  0.3056
 7168TIP3   OH243138   0.320   3.460   8.322  0.3552 -0.0865  0.1986
 7168TIP3    H143139   0.269   3.473   8.402  0.4497 -2.0927  0.6491
 7168TIP3    H243140   0.384   3.393   8.346  0.5346 -0.5564 -1.4997
 7169TIP3   OH243141   4.706   5.108   6.884 -0.3157 -0.3264 -0.1420
 7169TIP3    H143142   4.743   5.134   6.969 -1.9926  1.5901  0.0931
 7169TIP3    H243143   4.637   5.172   6.868 -1.0404 -1.5451 -2.2762
 7170TIP3   OH243144   4.185   5.183   7.821 -0.7069  0.3161  0.3901
 7170TIP3    H143145   4.169   5.256   7.882 -0.4692 -0.0458  0.8939
 7170TIP3    H243146   4.183   5.224   7.735  2.1932  1.4936  0.7400
 7171TIP3   OH243147   3.000   1.292   2.299 -0.7312 -0.2358  0.0116
 7171TIP3    H143148   2.915   1.327   2.273 -2.1649 -2.5344  1.2507
 7171TIP3    H243149   2.999   1.294   2.395  1.7074  1.9786  0.0961
 7172TIP3   OH243150   2.320   2.888   6.830 -0.5456 -0.0301 -0.0178
 7172TIP3    H143151   2.246   2.931   6.872 -0.2716  1.1540 -0.6792
 7172TIP3    H243152   2.397   2.921   6.877 -0.2132  1.5377 -1.5275
 7173TIP3   OH243153   0.707   5.694   0.975  0.1527  0.4368  0.2318
 7173TIP3    H143154   0.744   5.696   0.887 -0.0288  1.2635  0.1644
 7173TIP3    H243155   0.756   5.761   1.024 -0.8024  1.1089  0.3102
 7174TIP3   OH243156   5.145   3.649   7.793 -0.0451 -0.1794  0.1804
 7174TIP3    H143157   5.228   3.687   7.819 -0.5158  2.0723 -1.2773
 7174TIP3    H243158   5.111   3.709   7.726 -2.2453 -1.6934 -0.1839
 7175TIP3   OH243159   3.299   3.880   1.597 -0.1821  0.0405  0.5982
 7175TIP3    H143160   3.351   3.960   1.606 -0.4667  0.2917  0.0643
 7175TIP3    H243161   3.310   3.854   1.505  0.4487 -0.9109  0.9364
 7176TIP3   OH243162   1.847   5.502   8.105 -0.2221 -0.4592  0.6465
 7176TIP3    H143163   1.936   5.480   8.079 -0.8514 -3.0889  0.4376
 7176TIP3    H243164   1.824   5.436   8.170 -1.2015  1.6558  2.5993
 7177TIP3   OH243165   4.211   6.621   1.286  0.4502  0.4096  0.1408
 7177TIP3    H143166   4.150   6.693   1.271  0.7159  0.2598 -1.8892
 7177TIP3    H243167   4.295   6.663   1.303  0.1980  0.5848  0.9905
 7178TIP3   OH243168   4.291   0.628   7.603  0.0297  0.1403  0.1031
 7178TIP3    H143169   4.197   0.635   7.584 -0.4528 -0.1367  2.0906
 7178TIP3    H243170   4.312   0.712   7.644  0.8688  0.5035 -1.0190
 7179TIP3   OH243171   1.870   3.567   7.409  0.2782  0.5834  0.3826
 7179TIP3    H143172   1.947   3.575   7.465 -0.2501  1.2600  1.0315
 7179TIP3    H243173   1.866   3.651   7.362  0.2231  0.3510 -0.0380
 7180TIP3   OH243174   1.453   2.803   1.289  0.2933 -0.4777  0.0625
 7180TIP3    H143175   1.540   2.762   1.287 -0.2803 -1.7583  0.3738
 7180TIP3    H243176   1.410   2.763   1.364  0.3167  2.0666  1.5488
 7181TIP3   OH243177   3.809   0.785   0.366  0.6440  0.5428  0.2984
 7181TIP3    H143178   3.766   0.826   0.441 -0.7257  1.7098 -1.0600
 7181TIP3    H243179   3.900   0.813   0.372  0.6369  0.3088  1.7193
 7182TIP3   OH243180   4.854   0.925   8.347 -0.3727 -0.5698 -0.3866
 7182TIP3    H143181   4.923   0.898   8.408  0.5822  2.5622  0.0928
 7182TIP3    H243182   4.825   1.010   8.379 -3.2450 -0.9486 -1.6415
 7183LIG      O43183   4.781   2.049   7.968 -0.2341  0.2453 -0.1558
 7183LIG     C143184   4.698   2.162   7.954  0.3723  0.1603  0.0554
 7183LIG     C243185   4.693   2.218   8.100 -0.5739  0.3524  0.2772
 7183LIG     C343186   4.766   2.248   7.845 -0.2339 -0.3802  0.1959
 7183LIG     H143187   4.591   2.145   7.931  0.1507 -1.4855  1.9833
 7183LIG     H243188   4.640   2.147   8.167 -0.7611 -1.8027 -2.0021
 7183LIG     H343189   4.641   2.314   8.082 -0.1797  0.2468 -1.6830
 7183LIG     H443190   4.795   2.234   8.142 -0.2615  0.1537 -0.3910
 7183LIG     H543191   4.723   2.349   7.830 -1.7711 -0.9604  0.4738
 7183LIG     H643192   4.766   2.197   7.746 -1.2862 -0.2982  0.1411
 7183LIG     H743193   4.868   2.275   7.880 -0.0369  0.0226 -0.6577
 7183LIG     H843194   4.755   1.984   7.902 -0.7506  1.2899 -1.0068
   6.86960   6.86960   8.78836
