Title
43209
    1CHL1    C3    1   2.583   1.023   6.149  0.4467  0.1898 -1.0055
    1CHL1    H3    2   2.688   1.025   6.112  1.6005  3.1646  1.9224
    1CHL1    O3    3   2.575   0.990   6.288 -0.1812 -0.0591  0.5282
    1CHL1   H3'    4   2.485   1.008   6.317  0.1155  1.4923  0.5471
    1CHL1    C4    5   2.530   1.169   6.138 -0.2441 -0.4719  0.5198
    1CHL1   H4A    6   2.427   1.168   6.179 -0.8769 -1.3616 -1.0162
    1CHL1   H4B    7   2.589   1.234   6.206 -0.1866  1.1378 -0.9742
    1CHL1    C5    8   2.548   1.210   5.993  0.5411  0.9435 -0.3841
    1CHL1    C6    9   2.627   1.314   5.958 -0.1302 -0.2469  0.1922
    1CHL1    H6   10   2.673   1.381   6.032  0.3578  1.2684 -1.4423
    1CHL1    C7   11   2.651   1.354   5.812  0.0927 -0.0195 -0.2491
    1CHL1   H7A   12   2.668   1.462   5.792  0.1754  0.2938  1.3742
    1CHL1   H7B   13   2.741   1.292   5.792 -1.3965 -1.7449 -1.9762
    1CHL1    C8   14   2.557   1.296   5.712 -0.2962  0.3897 -0.3657
    1CHL1    H8   15   2.459   1.349   5.713 -1.1178 -0.9406 -2.5417
    1CHL1   C14   16   2.615   1.320   5.570 -0.3085 -0.4451  0.1779
    1CHL1   H14   17   2.718   1.280   5.576  0.4172  1.4258  1.1727
    1CHL1   C15   18   2.630   1.467   5.521 -0.5333  0.6818  0.3712
    1CHL1  H15A   19   2.549   1.533   5.560 -2.3673 -0.7091 -0.8897
    1CHL1  H15B   20   2.733   1.499   5.548 -0.2394 -1.3996  2.0106
    1CHL1   C16   21   2.626   1.444   5.370  0.0611  0.0082  0.1843
    1CHL1  H16A   22   2.535   1.486   5.322 -0.4661 -2.2943 -1.0167
    1CHL1  H16B   23   2.718   1.481   5.321  0.0918 -0.0220  0.2196
    1CHL1   C17   24   2.615   1.299   5.341 -0.2424 -0.9123 -0.0824
    1CHL1   H17   25   2.718   1.256   5.347 -1.2825 -3.2866  2.3174
    1CHL1   C13   26   2.530   1.249   5.466  0.1939 -0.3501  0.3990
    1CHL1   C18   27   2.389   1.312   5.450  0.0012  0.1174  0.2998
    1CHL1  H18A   28   2.322   1.266   5.526 -1.2736 -0.1232 -0.9348
    1CHL1  H18B   29   2.380   1.419   5.478 -0.6875  0.1148  0.0967
    1CHL1  H18C   30   2.351   1.302   5.346  1.6716  1.6402 -0.5109
    1CHL1   C12   31   2.518   1.096   5.490 -0.3309  0.1571  0.4199
    1CHL1  H12A   32   2.454   1.054   5.409  0.9472 -1.1953  0.0562
    1CHL1  H12B   33   2.622   1.057   5.490 -1.3265 -2.9411 -1.6552
    1CHL1   C11   34   2.456   1.074   5.630 -0.6717  0.3907  0.0359
    1CHL1  H11A   35   2.348   1.100   5.632 -1.2710 -1.8598 -0.2112
    1CHL1  H11B   36   2.449   0.965   5.649 -1.7597 -0.1146 -2.7671
    1CHL1    C9   37   2.541   1.139   5.745  0.2795 -0.2545  0.5597
    1CHL1    H9   38   2.646   1.102   5.741  0.3978 -0.2058  2.3949
    1CHL1   C10   39   2.485   1.114   5.891 -0.0619 -0.0352  0.4323
    1CHL1   C19   40   2.334   1.128   5.883 -0.1829  0.5372 -0.0452
    1CHL1  H19A   41   2.281   1.049   5.825 -0.4596  0.0307  0.8682
    1CHL1  H19B   42   2.297   1.139   5.987 -0.2891  4.2883 -0.3602
    1CHL1  H19C   43   2.311   1.216   5.819 -2.2482 -1.1129 -1.7346
    1CHL1    C1   44   2.516   0.959   5.915  0.5360 -0.1380 -0.0083
    1CHL1   H1A   45   2.451   0.892   5.854  0.2135  0.3700 -0.2299
    1CHL1   H1B   46   2.617   0.934   5.876 -0.7239 -0.7902 -3.1556
    1CHL1    C2   47   2.502   0.921   6.059 -1.1249  0.0337  0.3384
    1CHL1   H2A   48   2.539   0.820   6.085  0.5673 -0.0446 -2.0646
    1CHL1   H2B   49   2.394   0.924   6.087 -1.6020  1.2240 -1.4530
    1CHL1   C20   50   2.575   1.276   5.193 -0.3460 -0.8534  0.0982
    1CHL1   H20   51   2.467   1.297   5.179 -0.6200 -0.4381  2.4361
    1CHL1   C21   52   2.592   1.129   5.152 -0.6557 -0.7397  0.5598
    1CHL1  H21A   53   2.699   1.107   5.171  0.0698  1.6830 -0.3406
    1CHL1  H21B   54   2.576   1.117   5.043 -0.0494 -2.2692  0.6167
    1CHL1  H21C   55   2.526   1.062   5.210 -2.3579  0.3173 -0.0839
    1CHL1   C22   56   2.644   1.378   5.091 -0.2642 -0.4631  0.0301
    1CHL1  H22A   57   2.630   1.484   5.121 -2.8215 -0.2956 -1.4870
    1CHL1  H22B   58   2.752   1.354   5.104  0.4528  2.6817  0.7925
    1CHL1   C23   59   2.601   1.360   4.940 -0.2946  0.0949  0.1333
    1CHL1  H23A   60   2.632   1.258   4.911 -1.1375  0.4231 -2.1076
    1CHL1  H23B   61   2.491   1.371   4.931 -0.2333  0.5036 -0.1767
    1CHL1   C24   62   2.665   1.470   4.851  0.1045 -0.5691 -0.0034
    1CHL1  H24A   63   2.623   1.572   4.866  0.2826 -0.2696 -1.4321
    1CHL1  H24B   64   2.775   1.478   4.866 -0.0857  0.2859  1.0218
    1CHL1   C25   65   2.642   1.441   4.692  0.2492 -0.2985 -0.6020
    1CHL1   H25   66   2.533   1.432   4.677 -0.2986 -1.7964  3.0413
    1CHL1   C26   67   2.692   1.556   4.610  0.0244 -0.2882 -0.2673
    1CHL1  H26A   68   2.625   1.645   4.614  0.2305 -0.1670  0.8443
    1CHL1  H26B   69   2.788   1.595   4.649 -1.1510  2.1775  0.3589
    1CHL1  H26C   70   2.703   1.528   4.503  0.2753  1.2227 -0.6666
    1CHL1   C27   71   2.712   1.312   4.651  0.3091 -0.2945 -0.3110
    1CHL1  H27A   72   2.711   1.304   4.541 -2.3958  0.4610 -0.4031
    1CHL1  H27B   73   2.819   1.323   4.682  0.7104  2.0390 -2.2402
    1CHL1  H27C   74   2.664   1.221   4.691  0.7495 -0.3202  0.1775
    2CHL1    C3   75   5.167   2.258   5.784  0.0308 -0.2185 -0.4649
    2CHL1    H3   76   5.076   2.231   5.726 -0.4913  1.4579 -0.4817
    2CHL1    O3   77   5.154   2.222   5.922  0.4394 -0.8018 -0.1213
    2CHL1   H3'   78   5.230   2.256   5.971 -0.3115  0.8935 -0.0830
    2CHL1    C4   79   5.285   2.185   5.718 -0.7904 -0.3827 -0.0059
    2CHL1   H4A   80   5.373   2.200   5.784  1.3418  0.8504 -2.9397
    2CHL1   H4B   81   5.256   2.078   5.728 -2.4947 -0.0101 -0.5402
    2CHL1    C5   82   5.310   2.233   5.576  0.0465 -0.1535 -1.1586
    2CHL1    C6   83   5.313   2.157   5.463 -0.1227 -0.0242 -0.2691
    2CHL1    H6   84   5.309   2.048   5.473  0.5430  0.0035  0.3796
    2CHL1    C7   85   5.358   2.210   5.327  0.2823  0.5832 -0.3780
    2CHL1   H7A   86   5.443   2.150   5.289  2.4239  2.8588  0.5340
    2CHL1   H7B   87   5.266   2.203   5.265  0.2080  0.0667 -0.2157
    2CHL1    C8   88   5.416   2.357   5.320 -0.2489  0.5498 -0.3843
    2CHL1    H8   89   5.521   2.346   5.355  0.0328  0.5631 -1.2034
    2CHL1   C14   90   5.416   2.419   5.183 -0.6635  0.1033  1.0986
    2CHL1   H14   91   5.307   2.411   5.166 -1.0754  3.0642  1.9464
    2CHL1   C15   92   5.481   2.335   5.076  0.7958  0.1608  0.3433
    2CHL1  H15A   93   5.583   2.300   5.104  0.2768 -0.4547  1.4994
    2CHL1  H15B   94   5.418   2.246   5.053  2.3138 -0.2544 -2.8773
    2CHL1   C16   95   5.491   2.425   4.962  0.6412  0.0967  0.3141
    2CHL1  H16A   96   5.598   2.431   4.933  0.2554 -2.3209 -2.0227
    2CHL1  H16B   97   5.426   2.391   4.878 -0.6526 -0.2866  1.4253
    2CHL1   C17   98   5.444   2.567   5.004  0.2273  0.1680 -0.0808
    2CHL1   H17   99   5.336   2.571   4.975  0.7103 -0.0593 -2.0485
    2CHL1   C13  100   5.454   2.561   5.155 -0.0059 -0.3509 -0.0376
    2CHL1   C18  101   5.601   2.582   5.198 -0.4692 -0.3209  0.1034
    2CHL1  H18A  102   5.631   2.514   5.281  3.2488 -1.4453 -1.9714
    2CHL1  H18B  103   5.682   2.585   5.123  2.0420  0.3437  2.6352
    2CHL1  H18C  104   5.601   2.685   5.239  0.5362 -0.2642 -0.0204
    2CHL1   C12  105   5.360   2.641   5.245 -0.0310 -0.4819 -0.7215
    2CHL1  H12A  106   5.365   2.752   5.245 -0.6110 -0.4423 -2.0221
    2CHL1  H12B  107   5.252   2.630   5.221 -0.4350  2.2781 -0.4750
    2CHL1   C11  108   5.362   2.594   5.397 -0.1203 -0.2397 -0.4812
    2CHL1  H11A  109   5.463   2.623   5.432  0.5892 -1.0778 -1.7400
    2CHL1  H11B  110   5.284   2.653   5.449  2.3392  0.6404  2.4864
    2CHL1    C9  111   5.331   2.440   5.416 -0.0167 -0.4751  0.4492
    2CHL1    H9  112   5.231   2.423   5.373 -0.1630  1.0007  0.1832
    2CHL1   C10  113   5.332   2.389   5.562 -0.3906  0.1968  0.0741
    2CHL1   C19  114   5.464   2.430   5.632  0.9429 -0.0616  0.1277
    2CHL1  H19A  115   5.478   2.540   5.640  0.8409 -0.1585  2.4536
    2CHL1  H19B  116   5.461   2.399   5.739 -0.2592  0.2118  0.1856
    2CHL1  H19C  117   5.552   2.386   5.581  1.9212 -0.4324  2.0326
    2CHL1    C1  118   5.206   2.447   5.623 -0.0265 -1.1135  0.1420
    2CHL1   H1A  119   5.221   2.557   5.629  2.2179 -1.4107  1.2809
    2CHL1   H1B  120   5.116   2.429   5.560 -0.2518  0.6712 -0.0908
    2CHL1    C2  121   5.188   2.410   5.770  0.1855 -0.0378 -0.6171
    2CHL1   H2A  122   5.098   2.458   5.814  0.2241 -0.7809  0.3138
    2CHL1   H2B  123   5.274   2.446   5.830  0.3529 -0.5390 -0.5590
    2CHL1   C20  124   5.501   2.688   4.925 -0.2881 -0.3430  0.2647
    2CHL1   H20  125   5.600   2.723   4.961 -0.6121 -0.2742  1.1174
    2CHL1   C21  126   5.406   2.813   4.940 -0.1418 -0.6524  0.2392
    2CHL1  H21A  127   5.395   2.835   5.048  2.1428  0.1854  0.3736
    2CHL1  H21B  128   5.312   2.810   4.881  1.1018  3.2872 -2.3451
    2CHL1  H21C  129   5.455   2.905   4.901 -0.5985 -0.0889  0.9804
    2CHL1   C22  130   5.531   2.658   4.776 -0.0881  1.3007 -0.1447
    2CHL1  H22A  131   5.624   2.598   4.770 -0.3212  0.6190  1.9443
    2CHL1  H22B  132   5.455   2.600   4.720  0.3192 -0.2854  0.8825
    2CHL1   C23  133   5.555   2.773   4.689  0.8304  0.4388 -0.2017
    2CHL1  H23A  134   5.466   2.838   4.674  0.7924  0.8368  1.5585
    2CHL1  H23B  135   5.626   2.835   4.748  2.3008 -2.4226  1.2275
    2CHL1   C24  136   5.613   2.730   4.552  0.0459 -0.7776  0.1751
    2CHL1  H24A  137   5.693   2.654   4.564  0.6197 -0.4182 -1.1483
    2CHL1  H24B  138   5.524   2.681   4.508 -0.2009  1.3050 -1.8214
    2CHL1   C25  139   5.663   2.830   4.447  0.1456 -0.1581  0.1101
    2CHL1   H25  140   5.752   2.881   4.488  0.0634 -0.1150  0.2364
    2CHL1   C26  141   5.706   2.764   4.324  0.1940  0.2392 -0.9009
    2CHL1  H26A  142   5.754   2.666   4.341  0.7576  0.6857  0.1669
    2CHL1  H26B  143   5.611   2.747   4.268 -0.6739 -2.6639  1.2440
    2CHL1  H26C  144   5.783   2.833   4.283  1.6468 -1.0039 -0.3140
    2CHL1   C27  145   5.564   2.940   4.404 -0.8006 -0.1478  0.4528
    2CHL1  H27A  146   5.544   3.016   4.483 -0.4202  1.1815 -0.6874
    2CHL1  H27B  147   5.594   2.998   4.314 -1.0356  1.8446  1.6078
    2CHL1  H27C  148   5.470   2.889   4.372  0.3387 -1.9854 -0.0787
    3CHL1    C3  149   4.815   1.848   5.955  0.2305  0.2246 -0.0157
    3CHL1    H3  150   4.743   1.923   5.916  0.6687  1.3652  1.2774
    3CHL1    O3  151   4.801   1.827   6.097  0.1041 -0.4220  0.9993
    3CHL1   H3'  152   4.865   1.757   6.117 -1.1948 -2.0266 -0.1971
    3CHL1    C4  153   4.776   1.714   5.877  0.5935  0.1108  0.4602
    3CHL1   H4A  154   4.836   1.637   5.931 -1.9435 -1.5478  1.1238
    3CHL1   H4B  155   4.669   1.685   5.887  0.0652  0.3505 -3.3351
    3CHL1    C5  156   4.814   1.727   5.727 -0.5088 -0.1503  0.0418
    3CHL1    C6  157   4.730   1.685   5.635 -0.1312  0.2425  0.3705
    3CHL1    H6  158   4.633   1.641   5.662  0.1462 -0.8009 -0.2996
    3CHL1    C7  159   4.758   1.680   5.492 -0.5934 -0.1294  0.6465
    3CHL1   H7A  160   4.720   1.585   5.449 -3.4537  1.6121 -1.0316
    3CHL1   H7B  161   4.710   1.756   5.427 -1.2170 -2.1850 -1.4117
    3CHL1    C8  162   4.908   1.689   5.459  0.4112 -0.1801 -0.0857
    3CHL1    H8  163   4.954   1.590   5.479 -0.0404 -0.6571 -1.3260
    3CHL1   C14  164   4.923   1.720   5.308  0.2965 -0.3092 -0.9913
    3CHL1   H14  165   4.872   1.818   5.300 -2.2063 -1.6059 -1.9991
    3CHL1   C15  166   4.858   1.633   5.195 -0.1540  0.3592  0.2687
    3CHL1  H15A  167   4.865   1.525   5.221  0.1966  0.3820  0.2729
    3CHL1  H15B  168   4.755   1.663   5.168  0.6956  2.0466 -1.3402
    3CHL1   C16  169   4.953   1.670   5.070 -0.6146  0.0238  0.1638
    3CHL1  H16A  170   5.019   1.584   5.045  2.1643  2.1234 -0.1781
    3CHL1  H16B  171   4.881   1.692   4.988  0.6260  1.6300 -0.5401
    3CHL1   C17  172   5.050   1.785   5.117 -0.1611  0.5583  0.0596
    3CHL1   H17  173   4.999   1.883   5.104  0.0903  0.4357 -2.3986
    3CHL1   C13  174   5.065   1.741   5.271 -0.6739 -0.0792  0.4482
    3CHL1   C18  175   5.147   1.611   5.281 -0.1889 -0.5261 -0.7512
    3CHL1  H18A  176   5.167   1.582   5.386  0.2107 -0.5205 -0.8237
    3CHL1  H18B  177   5.101   1.524   5.230 -2.7578 -1.9219  3.4738
    3CHL1  H18C  178   5.247   1.629   5.236  0.2803  1.5265  0.9284
    3CHL1   C12  179   5.136   1.853   5.346  0.4631 -1.0078  0.1223
    3CHL1  H12A  180   5.246   1.852   5.330  0.5835  2.0740  0.2214
    3CHL1  H12B  181   5.099   1.952   5.312  0.0575 -1.0476  0.4485
    3CHL1   C11  182   5.116   1.840   5.496  0.0179 -0.0843  0.6288
    3CHL1  H11A  183   5.181   1.756   5.530 -1.2938 -0.6834  1.7324
    3CHL1  H11B  184   5.153   1.929   5.552 -0.5055  2.6667 -3.0265
    3CHL1    C9  185   4.973   1.801   5.542  0.1556  0.3557 -0.0678
    3CHL1    H9  186   4.914   1.892   5.516 -0.6472 -0.0848  0.1876
    3CHL1   C10  187   4.956   1.781   5.694 -0.1362  0.0942 -0.2308
    3CHL1   C19  188   5.058   1.669   5.739 -0.0739 -0.6764 -0.0867
    3CHL1  H19A  189   5.040   1.573   5.687 -1.4507  0.8506 -2.6485
    3CHL1  H19B  190   5.165   1.695   5.726  0.8049 -3.9781 -0.1701
    3CHL1  H19C  191   5.044   1.639   5.845  0.4881 -0.2228  0.1202
    3CHL1    C1  192   4.981   1.911   5.771  0.3534 -0.0037  0.1045
    3CHL1   H1A  193   5.085   1.937   5.743  0.2660 -0.5533 -0.7903
    3CHL1   H1B  194   4.922   1.996   5.731 -0.3168 -1.0785 -1.3242
    3CHL1    C2  195   4.958   1.894   5.920  0.4121 -0.7397  0.5856
    3CHL1   H2A  196   4.973   1.987   5.979  0.8104 -1.7244  2.0804
    3CHL1   H2B  197   5.026   1.819   5.965 -0.5267 -0.6625  2.2050
    3CHL1   C20  198   5.174   1.795   5.027 -0.0889  0.3006 -0.1973
    3CHL1   H20  199   5.252   1.724   5.063  0.3624  1.5803  1.5061
    3CHL1   C21  200   5.225   1.941   5.034  0.4623 -0.0886  0.8280
    3CHL1  H21A  201   5.155   2.010   4.983 -0.4096 -1.2892  0.3509
    3CHL1  H21B  202   5.317   1.955   4.973 -0.3569 -0.9445 -0.6372
    3CHL1  H21C  203   5.243   1.986   5.134  0.3326  3.2312 -0.5039
    3CHL1   C22  204   5.169   1.752   4.879  0.2463  0.0837  0.2498
    3CHL1  H22A  205   5.271   1.754   4.834 -0.5279  1.0708 -1.5380
    3CHL1  H22B  206   5.138   1.646   4.868  1.8429 -0.3543 -0.3291
    3CHL1   C23  207   5.074   1.830   4.790 -0.6065  0.0215  0.0770
    3CHL1  H23A  208   4.968   1.843   4.822 -0.5820  1.0387 -0.2240
    3CHL1  H23B  209   5.124   1.928   4.776 -0.8664 -0.0812 -1.7555
    3CHL1   C24  210   5.051   1.767   4.647 -0.2676  0.0590  0.8820
    3CHL1  H24A  211   5.150   1.731   4.613 -0.0480 -0.3656  1.9430
    3CHL1  H24B  212   4.977   1.684   4.641 -0.1965  0.0370  0.1939
    3CHL1   C25  213   5.013   1.871   4.533 -1.0478 -0.4370 -0.1349
    3CHL1   H25  214   5.098   1.943   4.522 -3.2064  2.2660 -0.1251
    3CHL1   C26  215   4.989   1.795   4.404 -0.1177 -0.8613 -0.7822
    3CHL1  H26A  216   5.073   1.723   4.390 -0.1591 -1.4361  1.5780
    3CHL1  H26B  217   4.888   1.752   4.418 -0.3480 -0.0771  0.0573
    3CHL1  H26C  218   4.986   1.855   4.310  2.6733 -0.3184 -0.6266
    3CHL1   C27  219   4.897   1.958   4.575 -0.5655 -0.2253 -0.0917
    3CHL1  H27A  220   4.909   2.021   4.665  1.7722  0.8407 -1.0689
    3CHL1  H27B  221   4.881   2.038   4.500 -0.6252 -0.6871 -0.5841
    3CHL1  H27C  222   4.802   1.902   4.562  0.2457 -1.2707 -2.0681
    4CHL1    C3  223   3.993   1.444   5.847  0.3956 -0.0691 -0.1749
    4CHL1    H3  224   3.993   1.334   5.828 -1.6841 -0.3481  1.1684
    4CHL1    O3  225   3.970   1.457   5.989  0.0390 -0.3841  0.4347
    4CHL1   H3'  226   3.944   1.548   6.006  0.3721 -0.0878 -0.6182
    4CHL1    C4  227   4.121   1.518   5.819 -0.2452  0.5902 -0.5864
    4CHL1   H4A  228   4.097   1.624   5.839 -0.5970  0.9919 -2.8498
    4CHL1   H4B  229   4.195   1.483   5.894 -0.3215  1.0517 -0.2975
    4CHL1    C5  230   4.169   1.495   5.680  0.4409  0.4083 -0.0707
    4CHL1    C6  231   4.280   1.423   5.657  0.3671 -0.2252  0.4824
    4CHL1    H6  232   4.339   1.374   5.736  1.3653  0.0705 -0.0560
    4CHL1    C7  233   4.328   1.415   5.518  0.8968 -0.1467 -0.0058
    4CHL1   H7A  234   4.435   1.439   5.502  0.5173  0.5102 -1.8965
    4CHL1   H7B  235   4.314   1.306   5.498  1.2131 -0.1612 -0.1512
    4CHL1    C8  236   4.249   1.502   5.416  0.4371  0.3213 -0.1297
    4CHL1    H8  237   4.286   1.606   5.432  0.4292  0.6319 -1.9977
    4CHL1   C14  238   4.286   1.450   5.276  0.4712 -0.1386 -0.1645
    4CHL1   H14  239   4.238   1.350   5.270  1.5275 -0.6218 -0.8579
    4CHL1   C15  240   4.432   1.423   5.235 -0.2249 -0.7514  0.1879
    4CHL1  H15A  241   4.486   1.516   5.260 -0.8800 -0.3874  0.2871
    4CHL1  H15B  242   4.482   1.338   5.287  2.7552  1.0955  0.5253
    4CHL1   C16  243   4.417   1.408   5.085 -0.3816 -0.2823  0.0377
    4CHL1  H16A  244   4.504   1.457   5.037 -0.0736 -2.9487 -2.4110
    4CHL1  H16B  245   4.440   1.305   5.050  1.5875  0.4312 -0.8682
    4CHL1   C17  246   4.266   1.454   5.041 -0.3470  0.1380  0.2207
    4CHL1   H17  247   4.206   1.361   5.046 -2.1305  1.2020 -0.4364
    4CHL1   C13  248   4.214   1.538   5.161  0.5785  0.6366  0.3292
    4CHL1   C18  249   4.271   1.676   5.162 -0.2951  0.3729 -0.9978
    4CHL1  H18A  250   4.252   1.730   5.257  1.3243  2.2304 -1.6464
    4CHL1  H18B  251   4.381   1.685   5.144  0.0197  2.3960  1.4173
    4CHL1  H18C  252   4.211   1.734   5.089 -1.3385 -2.6710 -2.7392
    4CHL1   C12  253   4.061   1.529   5.188 -0.5709  0.0193  0.3648
    4CHL1  H12A  254   4.014   1.602   5.118 -0.3034  2.0051  2.1521
    4CHL1  H12B  255   4.017   1.431   5.162 -1.3916  0.3480  0.4931
    4CHL1   C11  256   4.028   1.580   5.326  0.4067 -0.1353 -0.6334
    4CHL1  H11A  257   4.041   1.690   5.315  1.7278 -0.0959  0.9656
    4CHL1  H11B  258   3.919   1.569   5.346  0.5134 -0.3580 -0.1610
    4CHL1    C9  259   4.097   1.506   5.441  0.0193  0.5610 -0.0300
    4CHL1    H9  260   4.072   1.398   5.432  2.1542 -0.0893  1.1486
    4CHL1   C10  261   4.066   1.550   5.586  0.1087  0.2036 -0.3254
    4CHL1   C19  262   4.060   1.703   5.586 -0.3971  0.1942 -0.1956
    4CHL1  H19A  263   4.151   1.750   5.542 -0.1260 -0.0652  0.0887
    4CHL1  H19B  264   3.977   1.747   5.526 -0.6854 -2.5780 -1.9834
    4CHL1  H19C  265   4.043   1.743   5.688 -0.1132 -0.4409  0.1015
    4CHL1    C1  266   3.919   1.508   5.621  0.2506 -0.5203 -0.4958
    4CHL1   H1A  267   3.848   1.569   5.561  1.8677  0.9368 -1.0178
    4CHL1   H1B  268   3.906   1.401   5.596  2.6719 -0.3517 -2.8412
    4CHL1    C2  269   3.880   1.510   5.770  0.2021 -0.0651  0.1507
    4CHL1   H2A  270   3.782   1.460   5.783  0.3857 -0.5416 -0.2844
    4CHL1   H2B  271   3.866   1.610   5.816  0.4720  0.7628 -1.5121
    4CHL1   C20  272   4.255   1.514   4.902 -0.6394  0.0013 -0.2159
    4CHL1   H20  273   4.318   1.605   4.899 -0.4101 -0.1744 -0.7727
    4CHL1   C21  274   4.110   1.549   4.858  0.2968  0.2992 -0.4144
    4CHL1  H21A  275   4.054   1.454   4.874 -1.8712  1.8696  2.3994
    4CHL1  H21B  276   4.106   1.575   4.751  0.4522  0.0804 -0.4744
    4CHL1  H21C  277   4.062   1.632   4.914  0.8323 -0.0837  0.6356
    4CHL1   C22  278   4.322   1.428   4.790  0.3655  0.2537  0.9547
    4CHL1  H22A  279   4.308   1.480   4.693 -0.1385 -3.1636 -0.9794
    4CHL1  H22B  280   4.430   1.408   4.808  0.1123 -0.6101  1.6389
    4CHL1   C23  281   4.248   1.298   4.769  0.8257  0.9646  0.6127
    4CHL1  H23A  282   4.255   1.231   4.858 -0.9675 -2.4269 -1.5897
    4CHL1  H23B  283   4.141   1.316   4.745  0.3951  1.7991  2.9007
    4CHL1   C24  284   4.318   1.207   4.661 -0.6059  0.2898 -0.4333
    4CHL1  H24A  285   4.260   1.240   4.572 -3.7039 -0.5742  1.1351
    4CHL1  H24B  286   4.424   1.237   4.652  0.2677 -1.8555  1.6734
    4CHL1   C25  287   4.318   1.053   4.685 -0.4231 -0.8535  0.0257
    4CHL1   H25  288   4.217   1.017   4.713 -0.4293 -0.2396  0.8320
    4CHL1   C26  289   4.355   0.974   4.549  0.4853  0.6164 -0.2458
    4CHL1  H26A  290   4.370   0.869   4.580 -0.6838  0.4848 -0.0637
    4CHL1  H26B  291   4.275   0.978   4.472  2.0294 -0.3822 -1.9693
    4CHL1  H26C  292   4.445   1.010   4.495  0.3465  0.8121 -0.3502
    4CHL1   C27  293   4.416   1.011   4.796  0.0028 -0.4778  0.0040
    4CHL1  H27A  294   4.519   1.052   4.790 -0.4625  1.2653  2.2626
    4CHL1  H27B  295   4.376   1.048   4.893  0.4693  1.3650 -0.4546
    4CHL1  H27C  296   4.427   0.901   4.806 -2.4706 -1.5765 -5.4225
    5CHL1    C3  297   4.153   3.793   6.117 -0.5427  0.1846  0.2220
    5CHL1    H3  298   4.043   3.789   6.100 -0.5584  0.8811  0.1555
    5CHL1    O3  299   4.166   3.776   6.252  0.1375  0.3301 -0.7853
    5CHL1   H3'  300   4.260   3.766   6.270  0.4948  2.9259 -0.9026
    5CHL1    C4  301   4.219   3.677   6.037 -0.1060 -0.1723 -0.4963
    5CHL1   H4A  302   4.325   3.684   6.067  1.1223  0.1022 -4.3415
    5CHL1   H4B  303   4.173   3.580   6.065 -0.6398  1.1164  3.8344
    5CHL1    C5  304   4.216   3.693   5.885  0.0599  0.8140 -0.4677
    5CHL1    C6  305   4.168   3.597   5.802 -0.3120  0.3962  0.2774
    5CHL1    H6  306   4.136   3.503   5.850 -0.3962  0.2582 -0.0482
    5CHL1    C7  307   4.166   3.613   5.649  0.6272  0.1121 -0.9302
    5CHL1   H7A  308   4.208   3.527   5.593  0.5637 -0.9694  0.6012
    5CHL1   H7B  309   4.057   3.627   5.637  0.0501 -1.8617  1.2166
    5CHL1    C8  310   4.234   3.738   5.598 -0.2787  0.3766  0.0419
    5CHL1    H8  311   4.343   3.718   5.599 -0.9141 -4.2772  2.4374
    5CHL1   C14  312   4.168   3.774   5.456 -0.3584  0.4465 -1.5501
    5CHL1   H14  313   4.065   3.804   5.486 -0.1561 -1.2266  1.0901
    5CHL1   C15  314   4.169   3.666   5.350  0.3631  0.5860  0.0222
    5CHL1  H15A  315   4.274   3.636   5.333  0.7747  1.2214  1.2557
    5CHL1  H15B  316   4.120   3.568   5.371  0.1556  0.1166 -2.3811
    5CHL1   C16  317   4.135   3.741   5.226 -0.6884 -0.2920 -0.0020
    5CHL1  H16A  318   4.199   3.710   5.141  0.2599 -1.3000  1.0459
    5CHL1  H16B  319   4.034   3.721   5.184 -0.1398  1.3329 -2.2731
    5CHL1   C17  320   4.161   3.894   5.250 -0.4274  0.1404 -0.1667
    5CHL1   H17  321   4.058   3.929   5.268 -0.9793 -1.4807 -0.0017
    5CHL1   C13  322   4.235   3.892   5.387  0.3205 -0.4354 -1.2436
    5CHL1   C18  323   4.392   3.882   5.363 -0.1266  0.6737  0.0584
    5CHL1  H18A  324   4.433   3.972   5.312  2.1903 -1.6343 -2.5084
    5CHL1  H18B  325   4.445   3.864   5.459  0.8517 -1.4296 -0.8143
    5CHL1  H18C  326   4.437   3.807   5.295  0.6151  0.3458  0.8849
    5CHL1   C12  327   4.202   4.015   5.480 -0.1649  0.8602  0.1711
    5CHL1  H12A  328   4.252   4.103   5.434  3.0866 -0.3356  1.1530
    5CHL1  H12B  329   4.091   4.022   5.476 -0.2675 -0.5707  0.0737
    5CHL1   C11  330   4.262   3.989   5.621  0.5859  0.0650  0.9846
    5CHL1  H11A  331   4.372   3.980   5.613  0.5137  0.6353 -1.9744
    5CHL1  H11B  332   4.227   4.075   5.682 -1.1846 -0.0912  0.2555
    5CHL1    C9  333   4.213   3.859   5.687 -0.2535 -0.3812 -0.0296
    5CHL1    H9  334   4.102   3.868   5.688 -0.6478 -0.4821 -6.1231
    5CHL1   C10  335   4.264   3.832   5.830  0.2191 -0.2514 -0.5950
    5CHL1   C19  336   4.416   3.849   5.831 -0.1120  0.5187 -0.0580
    5CHL1  H19A  337   4.462   3.763   5.777  1.2762  1.4244 -0.3712
    5CHL1  H19B  338   4.442   3.952   5.799  0.8983  1.2383  2.8029
    5CHL1  H19C  339   4.461   3.850   5.933  4.0172  3.3199 -1.6632
    5CHL1    C1  340   4.205   3.950   5.917  0.2482 -0.9121 -0.4899
    5CHL1   H1A  341   4.259   4.042   5.886 -0.9342 -0.3912 -1.0735
    5CHL1   H1B  342   4.098   3.961   5.890 -0.6981 -1.5220  2.6549
    5CHL1    C2  343   4.211   3.931   6.073 -1.1614  0.5469 -0.3049
    5CHL1   H2A  344   4.164   4.016   6.127  0.6560  0.2139  1.9352
    5CHL1   H2B  345   4.317   3.919   6.104 -1.7620 -0.4314  1.4830
    5CHL1   C20  346   4.205   3.967   5.124 -0.3749  0.6646 -0.1794
    5CHL1   H20  347   4.299   3.919   5.090 -0.6777 -0.0995  0.0402
    5CHL1   C21  348   4.247   4.111   5.151  0.3099 -0.7944 -0.5572
    5CHL1  H21A  349   4.315   4.154   5.075 -1.0707  0.6609 -1.0378
    5CHL1  H21B  350   4.313   4.115   5.240  0.9864  0.6540 -1.0872
    5CHL1  H21C  351   4.161   4.177   5.176  1.6839  1.0206 -0.4481
    5CHL1   C22  352   4.105   3.952   5.019  0.3572  0.3879  0.3956
    5CHL1  H22A  353   4.069   3.847   5.013  1.9143 -0.1298 -0.8549
    5CHL1  H22B  354   4.014   4.009   5.046 -2.6581 -3.1376 -1.4375
    5CHL1   C23  355   4.151   4.005   4.884  0.5775 -1.2564 -0.1124
    5CHL1  H23A  356   4.136   4.115   4.889  0.1223 -1.3602  1.0677
    5CHL1  H23B  357   4.260   3.984   4.872 -0.0191 -3.1115 -3.9762
    5CHL1   C24  358   4.058   3.959   4.769 -0.1410  1.0085 -0.3564
    5CHL1  H24A  359   4.058   3.848   4.773 -0.1700  1.0195  0.0212
    5CHL1  H24B  360   3.953   3.982   4.798 -0.4499  0.4614 -1.0145
    5CHL1   C25  361   4.093   4.015   4.623  0.2206 -0.0766 -0.6701
    5CHL1   H25  362   4.107   4.124   4.643  1.4541 -0.3502  0.0938
    5CHL1   C26  363   4.234   3.957   4.584  0.3133 -0.2164  0.4440
    5CHL1  H26A  364   4.216   3.849   4.562 -2.9166  0.4538 -0.7422
    5CHL1  H26B  365   4.256   3.999   4.483 -0.3914 -1.6126 -0.3212
    5CHL1  H26C  366   4.311   3.948   4.663 -0.0495 -0.5155  0.7628
    5CHL1   C27  367   3.978   3.990   4.524  0.2311  0.1167 -0.0004
    5CHL1  H27A  368   4.002   4.029   4.423  1.4276 -1.9604 -0.5770
    5CHL1  H27B  369   3.974   3.879   4.524  0.9512  0.0213  2.8718
    5CHL1  H27C  370   3.879   4.032   4.551  0.7217  2.2895 -1.3888
    6CHL1    C3  371   4.474   6.108   6.159  0.0843 -0.5469 -0.3585
    6CHL1    H3  372   4.574   6.058   6.159  0.5658  0.1580 -3.6160
    6CHL1    O3  373   4.431   6.142   6.286 -0.3394 -0.6842  0.0768
    6CHL1   H3'  374   4.482   6.074   6.331 -0.0551 -1.1239 -0.8732
    6CHL1    C4  375   4.482   6.246   6.091  0.3846  0.1496  0.5226
    6CHL1   H4A  376   4.391   6.308   6.107  1.1731  1.1592  1.1913
    6CHL1   H4B  377   4.565   6.303   6.138  2.9844 -2.5773 -0.4212
    6CHL1    C5  378   4.499   6.251   5.944 -0.6492  0.1710  0.0563
    6CHL1    C6  379   4.596   6.327   5.882  0.2495 -0.1385 -0.2083
    6CHL1    H6  380   4.659   6.391   5.946  0.5622 -0.0268 -0.6212
    6CHL1    C7  381   4.624   6.324   5.736  0.1450  0.2717  0.1357
    6CHL1   H7A  382   4.637   6.420   5.682 -1.1789  0.2501 -0.2829
    6CHL1   H7B  383   4.725   6.281   5.719  0.0974 -1.2737  3.1837
    6CHL1    C8  384   4.521   6.247   5.648  0.5984  0.3424 -0.3180
    6CHL1    H8  385   4.438   6.320   5.632 -0.0162 -0.5415 -1.1910
    6CHL1   C14  386   4.576   6.191   5.511  0.1251  0.7067 -0.3902
    6CHL1   H14  387   4.652   6.118   5.545  0.3849  1.4424  0.6694
    6CHL1   C15  388   4.650   6.288   5.420  0.1110 -0.1764 -0.0916
    6CHL1  H15A  389   4.592   6.382   5.405 -0.3902 -0.3226  0.8844
    6CHL1  H15B  390   4.754   6.313   5.451  1.2187 -2.4797 -1.6225
    6CHL1   C16  391   4.649   6.206   5.293  0.1593 -0.0662 -0.4432
    6CHL1  H16A  392   4.615   6.277   5.214  2.7752  2.0973  0.2125
    6CHL1  H16B  393   4.752   6.175   5.265  0.2938  1.1588 -1.3766
    6CHL1   C17  394   4.558   6.085   5.308 -0.2028 -0.1664  0.5084
    6CHL1   H17  395   4.623   5.998   5.330  2.1722  1.1163 -1.0108
    6CHL1   C13  396   4.474   6.116   5.431 -0.7060  0.5043 -0.1811
    6CHL1   C18  397   4.352   6.209   5.387  0.2924  0.3517 -0.0209
    6CHL1  H18A  398   4.322   6.272   5.474  0.9682  1.6261 -0.6805
    6CHL1  H18B  399   4.387   6.274   5.304  1.7137  0.6905  0.8180
    6CHL1  H18C  400   4.266   6.144   5.362  0.4445  0.7752 -1.7574
    6CHL1   C12  401   4.436   5.988   5.510  0.4269  0.3097  0.3230
    6CHL1  H12A  402   4.362   5.927   5.453  0.3945  1.0279 -0.4239
    6CHL1  H12B  403   4.517   5.913   5.526 -0.2093 -0.5206 -0.2476
    6CHL1   C11  404   4.367   6.029   5.642 -0.7153 -0.3678 -0.6054
    6CHL1  H11A  405   4.273   6.083   5.617 -1.7523 -0.6673  2.3498
    6CHL1  H11B  406   4.344   5.936   5.698 -0.6325  0.0692  0.1687
    6CHL1    C9  407   4.467   6.119   5.728 -0.1742  0.2720  0.0568
    6CHL1    H9  408   4.551   6.047   5.738  0.4175  0.9354 -0.0448
    6CHL1   C10  409   4.409   6.148   5.869 -0.3890 -0.4335  0.8262
    6CHL1   C19  410   4.264   6.198   5.846  0.1770  0.2176 -0.5686
    6CHL1  H19A  411   4.221   6.242   5.939  0.7060 -1.2150  0.3818
    6CHL1  H19B  412   4.276   6.290   5.784 -1.6123  0.1698 -1.0305
    6CHL1  H19C  413   4.200   6.122   5.796 -0.8460  1.6976 -1.5825
    6CHL1    C1  414   4.403   6.013   5.943 -0.7847  0.2799  0.3020
    6CHL1   H1A  415   4.342   5.933   5.897  0.6380 -0.5429 -0.2386
    6CHL1   H1B  416   4.502   5.963   5.938 -1.9919 -2.1000 -1.7375
    6CHL1    C2  417   4.369   6.019   6.089  0.4730 -0.2195  0.5543
    6CHL1   H2A  418   4.381   5.915   6.127  0.4528  0.1164  1.5191
    6CHL1   H2B  419   4.265   6.053   6.105 -0.5432 -1.6890 -2.2569
    6CHL1   C20  420   4.488   6.049   5.175  0.0169 -0.7745 -0.3215
    6CHL1   H20  421   4.436   6.141   5.140 -1.2456 -0.1081  2.9402
    6CHL1   C21  422   4.389   5.933   5.178  0.2718 -0.1522 -0.2927
    6CHL1  H21A  423   4.433   5.838   5.217 -0.3968 -0.8340 -1.1341
    6CHL1  H21B  424   4.348   5.902   5.079  0.4380 -0.1725 -0.3545
    6CHL1  H21C  425   4.305   5.938   5.250  1.1078 -0.3074  0.7217
    6CHL1   C22  426   4.599   6.023   5.062  0.1477 -0.0185 -0.1609
    6CHL1  H22A  427   4.667   6.109   5.050  1.1665 -0.8958 -0.9104
    6CHL1  H22B  428   4.660   5.939   5.103  0.0743  0.2831  0.5775
    6CHL1   C23  429   4.538   5.978   4.925 -0.2888 -0.2737  0.4891
    6CHL1  H23A  430   4.513   5.870   4.920 -1.4171  0.0302 -1.4380
    6CHL1  H23B  431   4.442   6.033   4.912  0.7772  1.1799 -1.8640
    6CHL1   C24  432   4.635   6.014   4.823 -0.2296 -0.3452 -0.2946
    6CHL1  H24A  433   4.666   6.120   4.837  0.9862 -0.4033 -2.1372
    6CHL1  H24B  434   4.722   5.947   4.838  0.6361  1.0322  1.0463
    6CHL1   C25  435   4.585   6.003   4.676 -0.0896  0.0003  0.3167
    6CHL1   H25  436   4.536   5.904   4.666 -3.0047  1.2261  1.3988
    6CHL1   C26  437   4.487   6.116   4.628  0.7579  0.3745 -0.4508
    6CHL1  H26A  438   4.553   6.205   4.616  4.4761 -2.1845 -0.7023
    6CHL1  H26B  439   4.443   6.082   4.532 -1.4303 -1.7953  1.1841
    6CHL1  H26C  440   4.415   6.139   4.710  2.3931  3.8255  0.2084
    6CHL1   C27  441   4.703   6.003   4.581  0.1490  0.9624 -0.3615
    6CHL1  H27A  442   4.674   5.979   4.477  0.4950 -0.8166 -0.0731
    6CHL1  H27B  443   4.760   6.098   4.577 -0.1355  1.2767  1.6879
    6CHL1  H27C  444   4.762   5.919   4.623 -0.9745  1.0037  1.4242
    7CHL1    C3  445   6.234   1.922   6.150 -0.1231  0.6220 -0.1416
    7CHL1    H3  446   6.341   1.949   6.161 -0.5457  3.0299 -1.2879
    7CHL1    O3  447   6.163   1.894   6.266  0.2700  0.9777 -0.3074
    7CHL1   H3'  448   6.146   1.984   6.295  3.1885  1.7638 -0.7724
    7CHL1    C4  449   6.165   2.042   6.081  0.4750 -0.3448 -0.1838
    7CHL1   H4A  450   6.059   2.013   6.064 -0.0664  0.4098  1.6612
    7CHL1   H4B  451   6.164   2.135   6.141 -1.3628 -0.3811 -0.0975
    7CHL1    C5  452   6.211   2.069   5.934  0.5240 -0.2146  0.2632
    7CHL1    C6  453   6.267   2.184   5.909  0.0916 -0.2954  0.0315
    7CHL1    H6  454   6.272   2.268   5.980 -3.6985  1.3676 -1.3645
    7CHL1    C7  455   6.301   2.227   5.777  0.1042 -0.3053  0.3452
    7CHL1   H7A  456   6.242   2.316   5.745  1.3187  0.3914 -0.0211
    7CHL1   H7B  457   6.411   2.242   5.763 -0.2478  1.3704 -1.0262
    7CHL1    C8  458   6.269   2.134   5.653 -0.0945  0.9808 -0.0250
    7CHL1    H8  459   6.164   2.157   5.627 -0.7020  1.4373  2.5092
    7CHL1   C14  460   6.367   2.163   5.539 -0.5232 -0.5609 -0.3086
    7CHL1   H14  461   6.467   2.139   5.581 -0.2845 -2.4679 -1.8320
    7CHL1   C15  462   6.387   2.309   5.474 -0.0930  0.7023 -0.5829
    7CHL1  H15A  463   6.286   2.356   5.474 -0.7809 -0.6068  1.8870
    7CHL1  H15B  464   6.447   2.373   5.540 -0.1349 -0.1155  0.2725
    7CHL1   C16  465   6.456   2.274   5.341  0.6832 -0.3477 -0.6630
    7CHL1  H16A  466   6.428   2.345   5.260  3.0169 -0.6987 -1.8667
    7CHL1  H16B  467   6.567   2.283   5.347  0.5527  1.1331 -0.0284
    7CHL1   C17  468   6.440   2.124   5.319 -0.3346 -0.2316  0.3022
    7CHL1   H17  469   6.536   2.088   5.362  1.0091  1.1495 -1.3723
    7CHL1   C13  470   6.336   2.071   5.420 -0.0372 -0.2827  0.2098
    7CHL1   C18  471   6.198   2.107   5.360 -0.1619 -0.0560  1.0891
    7CHL1  H18A  472   6.197   2.205   5.308 -2.1489 -0.7078 -0.2344
    7CHL1  H18B  473   6.172   2.028   5.286  1.1482  1.3337 -0.9769
    7CHL1  H18C  474   6.116   2.120   5.433 -1.4311 -2.0721  0.1320
    7CHL1   C12  475   6.348   1.929   5.464 -0.3149 -0.3808 -0.2681
    7CHL1  H12A  476   6.308   1.861   5.385 -0.9430 -0.8859  0.4718
    7CHL1  H12B  477   6.452   1.904   5.494 -0.1706  1.1787  0.6375
    7CHL1   C11  478   6.259   1.894   5.586  0.1335 -0.0908 -0.4135
    7CHL1  H11A  479   6.153   1.912   5.558  0.7208  2.8806 -1.0600
    7CHL1  H11B  480   6.267   1.786   5.610 -0.9535 -0.1408 -0.2661
    7CHL1    C9  481   6.285   1.991   5.705 -0.2136 -0.9290 -0.5198
    7CHL1    H9  482   6.390   1.983   5.738  0.0751  3.0021 -0.0955
    7CHL1   C10  483   6.201   1.958   5.831  0.5848 -0.4350 -0.6956
    7CHL1   C19  484   6.049   1.940   5.790  0.3332 -0.1308  1.1272
    7CHL1  H19A  485   6.009   2.029   5.736 -1.4616 -2.0647 -0.9290
    7CHL1  H19B  486   6.029   1.848   5.731  0.4471  1.5992 -1.8038
    7CHL1  H19C  487   5.994   1.930   5.885 -1.6210 -0.5979 -0.0072
    7CHL1    C1  488   6.246   1.825   5.906 -0.8213  0.3483  0.2499
    7CHL1   H1A  489   6.209   1.741   5.843  0.5272 -0.0822  0.0167
    7CHL1   H1B  490   6.356   1.825   5.896 -0.8051  2.0456  0.2023
    7CHL1    C2  491   6.215   1.800   6.055  0.2296  0.2278 -0.6302
    7CHL1   H2A  492   6.254   1.701   6.089 -1.5568 -0.5655 -0.8159
    7CHL1   H2B  493   6.105   1.794   6.052  0.2333 -2.7157  1.2179
    7CHL1   C20  494   6.455   2.072   5.171  0.5901 -0.0642 -0.8629
    7CHL1   H20  495   6.430   1.963   5.174  0.5654 -0.0785 -1.4898
    7CHL1   C21  496   6.600   2.092   5.136 -0.6030  0.6171 -0.3185
    7CHL1  H21A  497   6.676   2.032   5.191 -0.7595 -0.6771 -1.4756
    7CHL1  H21B  498   6.635   2.198   5.141 -0.8262  0.6710  0.2890
    7CHL1  H21C  499   6.625   2.059   5.033 -1.7129 -2.8424  0.3968
    7CHL1   C22  500   6.362   2.126   5.059  0.9786  0.2954  0.0149
    7CHL1  H22A  501   6.261   2.132   5.104  0.3174 -0.1040 -1.3889
    7CHL1  H22B  502   6.394   2.231   5.038 -0.7096  0.7307 -0.4901
    7CHL1   C23  503   6.358   2.040   4.931  0.8107 -0.1196 -0.6811
    7CHL1  H23A  504   6.289   2.101   4.869  1.3466  1.8519  0.5464
    7CHL1  H23B  505   6.461   2.037   4.888  1.2713  2.1933  0.0911
    7CHL1   C24  506   6.296   1.898   4.956  0.8124 -0.3931  0.6113
    7CHL1  H24A  507   6.367   1.827   5.003 -0.0533 -2.0449 -0.4777
    7CHL1  H24B  508   6.218   1.915   5.033  1.5892 -3.1692  2.1234
    7CHL1   C25  509   6.236   1.842   4.828  0.8527 -0.0265 -0.4584
    7CHL1   H25  510   6.164   1.910   4.779  0.5513  0.7090  0.9925
    7CHL1   C26  511   6.354   1.812   4.731  0.4191 -0.4102  0.3023
    7CHL1  H26A  512   6.416   1.725   4.761  0.5160 -0.1824  0.7752
    7CHL1  H26B  513   6.312   1.786   4.632 -1.1396  3.0147 -0.0899
    7CHL1  H26C  514   6.419   1.902   4.720 -0.9997  0.7736  1.2311
    7CHL1   C27  515   6.151   1.716   4.862 -0.6504  0.5229 -0.2219
    7CHL1  H27A  516   6.072   1.747   4.934 -0.8048 -1.5105  0.5691
    7CHL1  H27B  517   6.095   1.680   4.773  1.6110  0.4561 -1.7144
    7CHL1  H27C  518   6.212   1.629   4.894 -1.7919 -0.3300 -0.3024
    8CHL1    C3  519   3.803   0.198   5.892 -0.3526 -0.4693  0.3422
    8CHL1    H3  520   3.845   0.298   5.867 -1.5161 -0.8290 -3.8978
    8CHL1    O3  521   3.781   0.191   6.032 -0.0391  0.3024 -0.7429
    8CHL1   H3'  522   3.865   0.150   6.056 -1.0153 -1.2080  0.2223
    8CHL1    C4  523   3.663   0.187   5.826  0.0428 -0.0590  0.0234
    8CHL1   H4A  524   3.607   0.105   5.876 -0.8574  0.9425  0.7077
    8CHL1   H4B  525   3.613   0.283   5.853  3.6298  1.6893  1.0522
    8CHL1    C5  526   3.663   0.174   5.676  0.0638 -0.2650 -0.2697
    8CHL1    C6  527   3.588   0.258   5.595  0.3139  0.1870 -0.4466
    8CHL1    H6  528   3.529   0.338   5.642  0.8568  0.3081  0.0438
    8CHL1    C7  529   3.583   0.257   5.450  0.1390  0.3452  0.1941
    8CHL1   H7A  530   3.481   0.249   5.406  1.6186 -0.2370 -3.5503
    8CHL1   H7B  531   3.630   0.352   5.419 -0.5589  0.5985 -0.1046
    8CHL1    C8  532   3.660   0.136   5.382  0.1445  0.2257  0.4566
    8CHL1    H8  533   3.585   0.054   5.375 -0.1580  0.3564  1.9494
    8CHL1   C14  534   3.706   0.167   5.234 -0.3797  0.0873 -0.4465
    8CHL1   H14  535   3.769   0.258   5.236 -0.6934  0.4115 -2.3873
    8CHL1   C15  536   3.600   0.206   5.134  0.3168 -0.0254  0.1212
    8CHL1  H15A  537   3.506   0.147   5.146  0.2021 -0.0806 -0.9265
    8CHL1  H15B  538   3.567   0.312   5.144 -0.3383 -0.2487  0.3958
    8CHL1   C16  539   3.672   0.191   5.000  0.3294 -0.2019 -0.1171
    8CHL1  H16A  540   3.600   0.145   4.928  1.0174 -0.9845 -0.3198
    8CHL1  H16B  541   3.691   0.294   4.961 -0.2980  0.4951  1.3571
    8CHL1   C17  542   3.812   0.121   5.025  0.3863  0.4341  0.0527
    8CHL1   H17  543   3.896   0.192   5.044  0.2805 -0.1600  3.4281
    8CHL1   C13  544   3.787   0.055   5.167 -0.2349  0.6407 -0.0462
    8CHL1   C18  545   3.696  -0.069   5.153  0.7622 -0.0777 -0.2649
    8CHL1  H18A  546   3.662  -0.112   5.250  1.7284 -4.1368 -1.5195
    8CHL1  H18B  547   3.612  -0.054   5.081  0.2018 -0.7572  0.2273
    8CHL1  H18C  548   3.762  -0.149   5.114  0.3585 -0.9394  0.7434
    8CHL1   C12  549   3.919   0.023   5.252  0.4589  0.3749  0.1844
    8CHL1  H12A  550   3.972  -0.058   5.198 -0.5697  1.3234 -2.4723
    8CHL1  H12B  551   3.982   0.114   5.242 -0.2050  0.8466  0.1509
    8CHL1   C11  552   3.883  -0.007   5.396 -0.0495  0.7516  0.3654
    8CHL1  H11A  553   3.834  -0.107   5.400  1.0187  0.2208  0.5362
    8CHL1  H11B  554   3.986  -0.013   5.438  0.7110  1.4163 -1.2895
    8CHL1    C9  555   3.787   0.096   5.460  0.5491  0.2782  0.1223
    8CHL1    H9  556   3.853   0.185   5.459  0.2362  0.5134  0.4117
    8CHL1   C10  557   3.758   0.070   5.614  0.2739  0.5074  0.1216
    8CHL1   C19  558   3.692  -0.068   5.626 -0.0802  0.3432 -0.0439
    8CHL1  H19A  559   3.762  -0.142   5.583 -1.0308 -0.5793 -0.0374
    8CHL1  H19B  560   3.693  -0.097   5.733 -0.1363  0.2430 -0.0704
    8CHL1  H19C  561   3.594  -0.090   5.579 -0.5111  0.3044  0.8489
    8CHL1    C1  562   3.895   0.077   5.694  0.2477 -0.7310  0.1760
    8CHL1   H1A  563   3.945  -0.020   5.677  1.6242 -0.1579  0.8373
    8CHL1   H1B  564   3.964   0.154   5.655  0.4783  0.7147  3.1357
    8CHL1    C2  565   3.892   0.087   5.846  0.3420 -0.3359  0.3084
    8CHL1   H2A  566   3.997   0.088   5.883  0.6100  0.9050 -0.4277
    8CHL1   H2B  567   3.847  -0.010   5.879  0.9943 -0.6471  0.2926
    8CHL1   C20  568   3.845   0.034   4.903  0.6954  0.6465 -0.9724
    8CHL1   H20  569   3.764  -0.042   4.892  1.9105 -1.4829  2.8764
    8CHL1   C21  570   3.976  -0.041   4.933 -0.1723 -1.0915 -0.4925
    8CHL1  H21A  571   3.968  -0.113   5.017 -2.6875 -2.0776 -1.4676
    8CHL1  H21B  572   4.057   0.025   4.971 -1.3020 -1.2947  2.6013
    8CHL1  H21C  573   4.010  -0.104   4.848  1.7481 -1.8964  0.8014
    8CHL1   C22  574   3.847   0.116   4.775 -0.7269  0.2365 -0.2377
    8CHL1  H22A  575   3.747   0.165   4.765 -0.3129  2.2736  3.6091
    8CHL1  H22B  576   3.935   0.184   4.772 -1.1504  1.0148  2.2594
    8CHL1   C23  577   3.875   0.030   4.649 -0.2275 -0.0635  0.8468
    8CHL1  H23A  578   3.959  -0.042   4.658  0.0409 -0.5188 -3.3924
    8CHL1  H23B  579   3.784  -0.029   4.625 -0.5235 -0.5367  2.9121
    8CHL1   C24  580   3.915   0.115   4.527 -0.4081 -0.4713 -0.2266
    8CHL1  H24A  581   3.850   0.205   4.519 -0.6613 -0.2619  3.1591
    8CHL1  H24B  582   4.012   0.168   4.542  0.1907 -1.4299 -0.5741
    8CHL1   C25  583   3.919   0.032   4.396 -0.1313  0.5989 -0.3360
    8CHL1   H25  584   3.818  -0.012   4.378  0.0633 -0.4163  0.9060
    8CHL1   C26  585   3.981   0.123   4.284  0.7552 -0.5785  0.0085
    8CHL1  H26A  586   3.915   0.210   4.266 -1.1112 -1.9530 -0.1158
    8CHL1  H26B  587   4.089   0.140   4.305  0.9969 -0.4686 -1.2460
    8CHL1  H26C  588   3.973   0.067   4.188 -0.4440  2.6172 -1.8755
    8CHL1   C27  589   4.005  -0.099   4.407  0.6771  0.0760 -0.6461
    8CHL1  H27A  590   4.011  -0.144   4.306  1.4515  1.1755 -1.1128
    8CHL1  H27B  591   4.113  -0.077   4.420  1.1773 -3.2829  2.1734
    8CHL1  H27C  592   3.958  -0.164   4.484 -2.9852  0.5760 -2.2404
    9CHL1    C3  593   5.342   1.704   5.979 -0.0314 -0.1651  0.8393
    9CHL1    H3  594   5.257   1.716   5.909  0.2568 -1.9816  0.1518
    9CHL1    O3  595   5.289   1.646   6.096 -0.4267 -0.5329  0.3646
    9CHL1   H3'  596   5.368   1.641   6.150  0.7645 -0.1779 -1.2825
    9CHL1    C4  597   5.445   1.601   5.912  0.5406  0.0325 -0.8894
    9CHL1   H4A  598   5.522   1.580   5.989  0.0834  1.0759 -0.1253
    9CHL1   H4B  599   5.394   1.504   5.891  1.8852 -1.2778  1.3958
    9CHL1    C5  600   5.499   1.658   5.785 -0.0248  0.3800 -0.1253
    9CHL1    C6  601   5.476   1.597   5.666  0.3103 -0.1529  0.4920
    9CHL1    H6  602   5.427   1.499   5.674 -1.2428  0.4283 -1.2283
    9CHL1    C7  603   5.493   1.653   5.529  0.2736 -0.4041  0.0491
    9CHL1   H7A  604   5.519   1.586   5.445  0.0805  1.3591 -1.4926
    9CHL1   H7B  605   5.403   1.709   5.496  0.7916  1.1640  1.1715
    9CHL1    C8  606   5.595   1.770   5.532 -0.1718  1.0496 -0.2472
    9CHL1    H8  607   5.691   1.715   5.545 -0.5246 -0.0188 -1.8337
    9CHL1   C14  608   5.617   1.841   5.398 -1.0580  0.1378  0.2221
    9CHL1   H14  609   5.524   1.895   5.370 -1.0840  0.7904  1.4794
    9CHL1   C15  610   5.654   1.752   5.275  0.0547  0.3172 -0.5138
    9CHL1  H15A  611   5.736   1.684   5.307  1.5750  1.8239 -1.0712
    9CHL1  H15B  612   5.564   1.695   5.242  0.3644 -0.2838 -0.3512
    9CHL1   C16  613   5.715   1.854   5.176  0.1065 -0.7508  0.2541
    9CHL1  H16A  614   5.806   1.817   5.125 -0.7560  2.3667 -4.1025
    9CHL1  H16B  615   5.646   1.876   5.093  0.8613 -2.4545 -0.8690
    9CHL1   C17  616   5.735   1.987   5.254  0.0219  0.0061  0.3991
    9CHL1   H17  617   5.642   2.045   5.232 -0.3677  0.0379  2.0288
    9CHL1   C13  618   5.722   1.952   5.402 -0.3228  0.0557 -0.5448
    9CHL1   C18  619   5.860   1.902   5.450  0.6596  0.0910  0.1292
    9CHL1  H18A  620   5.929   1.989   5.463 -0.5547  0.8043  2.3383
    9CHL1  H18B  621   5.844   1.862   5.553 -0.5293 -0.6597 -0.3316
    9CHL1  H18C  622   5.900   1.833   5.374  1.7603  0.8928 -0.0555
    9CHL1   C12  623   5.675   2.067   5.498  0.5763 -0.6121 -0.2065
    9CHL1  H12A  624   5.755   2.144   5.502  0.7419 -0.7986  0.1553
    9CHL1  H12B  625   5.582   2.111   5.457  0.3674  0.0260  0.9279
    9CHL1   C11  626   5.657   2.007   5.637  0.3171 -0.2555  0.1433
    9CHL1  H11A  627   5.753   2.016   5.693  0.5565 -1.3375 -0.0628
    9CHL1  H11B  628   5.610   2.090   5.694  0.5632  0.5556 -0.8018
    9CHL1    C9  629   5.573   1.874   5.645  0.4656  0.1147 -0.0483
    9CHL1    H9  630   5.473   1.915   5.621  1.0083  0.9378 -0.9688
    9CHL1   C10  631   5.557   1.804   5.782  0.4025  0.0298 -0.6981
    9CHL1   C19  632   5.694   1.795   5.860  0.0310  0.3989  0.4914
    9CHL1  H19A  633   5.681   1.728   5.947 -2.0213 -1.0784 -0.8615
    9CHL1  H19B  634   5.770   1.741   5.799  0.5658  1.3456  0.3011
    9CHL1  H19C  635   5.735   1.893   5.891  0.0185  0.6174 -0.1670
    9CHL1    C1  636   5.459   1.891   5.868  0.0113 -0.6717 -0.8952
    9CHL1   H1A  637   5.503   1.991   5.888  0.8411 -0.9274 -1.3885
    9CHL1   H1B  638   5.366   1.908   5.810  0.0310  0.1576 -0.6988
    9CHL1    C2  639   5.414   1.834   6.004  0.1943  0.9393 -0.1107
    9CHL1   H2A  640   5.348   1.907   6.054 -0.5278 -0.9713  1.9028
    9CHL1   H2B  641   5.499   1.808   6.071 -0.1722 -1.6387 -0.5469
    9CHL1   C20  642   5.854   2.071   5.198 -0.7670  0.3332 -0.2768
    9CHL1   H20  643   5.941   2.021   5.247 -1.5474 -0.7985 -0.0016
    9CHL1   C21  644   5.843   2.216   5.249 -0.3563 -0.3886  0.0788
    9CHL1  H21A  645   5.923   2.273   5.197 -3.1852  1.8720 -2.1480
    9CHL1  H21B  646   5.849   2.228   5.360 -1.1558  0.7708  0.0181
    9CHL1  H21C  647   5.742   2.260   5.232 -0.8857 -1.6141 -0.0349
    9CHL1   C22  648   5.883   2.067   5.050 -0.0429 -0.0272  0.0795
    9CHL1  H22A  649   5.972   2.125   5.020 -0.7924  0.5111 -1.1815
    9CHL1  H22B  650   5.902   1.959   5.035 -0.5019  0.0454 -1.0964
    9CHL1   C23  651   5.773   2.125   4.967  0.8308 -0.2399 -0.5835
    9CHL1  H23A  652   5.671   2.090   4.994  0.0982  1.8336 -0.4739
    9CHL1  H23B  653   5.772   2.236   4.974  1.0771 -0.1299 -2.0845
    9CHL1   C24  654   5.791   2.098   4.811 -0.0535 -0.2986 -0.4476
    9CHL1  H24A  655   5.781   1.988   4.799  0.8269 -0.4506  0.1425
    9CHL1  H24B  656   5.701   2.144   4.765 -0.0154 -0.1130 -0.3386
    9CHL1   C25  657   5.926   2.136   4.756  0.0051  0.2700  0.1733
    9CHL1   H25  658   6.010   2.094   4.814  1.1043 -0.1734 -1.6804
    9CHL1   C26  659   5.946   2.077   4.612 -0.0951  0.5042 -0.1749
    9CHL1  H26A  660   5.854   2.112   4.559  0.0851  1.4927  0.1536
    9CHL1  H26B  661   6.039   2.110   4.560  0.2665 -0.4728 -0.1734
    9CHL1  H26C  662   5.951   1.966   4.620 -1.5094  0.4396  0.1262
    9CHL1   C27  663   5.958   2.288   4.765  0.3447 -0.3329  0.1852
    9CHL1  H27A  664   6.034   2.307   4.686 -1.0789 -0.1253 -1.1812
    9CHL1  H27B  665   5.866   2.343   4.737 -0.8051 -2.1568  0.2074
    9CHL1  H27C  666   5.987   2.326   4.865  0.4391 -1.9041  0.7918
   10CHL1    C3  667   5.143   2.953   5.937  0.2070 -0.6267 -0.6504
   10CHL1    H3  668   5.249   2.983   5.920  0.2203 -0.0289  0.4283
   10CHL1    O3  669   5.126   2.939   6.075  0.4009  0.4311  0.4686
   10CHL1   H3'  670   5.052   2.878   6.080  1.3358 -0.7229  0.4740
   10CHL1    C4  671   5.053   3.069   5.894 -0.8445 -1.1612 -0.3646
   10CHL1   H4A  672   4.953   3.054   5.940 -1.2918 -1.5191 -1.4114
   10CHL1   H4B  673   5.116   3.151   5.935  0.0168 -2.0065  0.0234
   10CHL1    C5  674   5.041   3.077   5.742  0.0167 -0.3483 -0.7469
   10CHL1    C6  675   5.055   3.203   5.691 -0.9448 -0.0876  0.2975
   10CHL1    H6  676   5.097   3.277   5.762 -0.4514 -1.0211  1.0021
   10CHL1    C7  677   5.040   3.229   5.544 -0.5530 -0.3353  0.6988
   10CHL1   H7A  678   4.979   3.319   5.521 -0.1251 -0.1474  0.2591
   10CHL1   H7B  679   5.139   3.241   5.493 -1.5387 -0.5115 -1.3541
   10CHL1    C8  680   4.968   3.113   5.472 -0.4387 -0.5475 -0.2390
   10CHL1    H8  681   4.861   3.120   5.499 -0.5148  1.4003 -0.8698
   10CHL1   C14  682   4.995   3.124   5.321 -0.1908  0.2235 -0.1697
   10CHL1   H14  683   5.105   3.126   5.305 -0.2132  1.1556 -0.2906
   10CHL1   C15  684   4.961   3.260   5.246  0.6552  0.1685 -0.2386
   10CHL1  H15A  685   4.860   3.304   5.257 -0.9756 -2.8983 -1.6042
   10CHL1  H15B  686   5.033   3.343   5.260 -0.9293  1.4840  0.3875
   10CHL1   C16  687   4.967   3.223   5.101 -0.9379  0.3038  0.6719
   10CHL1  H16A  688   4.866   3.244   5.059 -0.4064  2.5189  0.3388
   10CHL1  H16B  689   5.043   3.278   5.041 -0.1884 -1.4253 -0.0251
   10CHL1   C17  690   4.996   3.071   5.089  0.6495 -0.3702 -0.0743
   10CHL1   H17  691   5.107   3.065   5.099  0.8192  1.0697 -0.7410
   10CHL1   C13  692   4.946   3.010   5.226 -1.1856 -0.4210  0.6494
   10CHL1   C18  693   4.790   3.007   5.243 -0.7645  0.5629  0.4221
   10CHL1  H18A  694   4.748   2.921   5.187  1.7056  0.2708 -1.1493
   10CHL1  H18B  695   4.760   3.008   5.350 -1.8489 -0.6481  0.1627
   10CHL1  H18C  696   4.734   3.091   5.199 -2.5246  0.2813  1.9814
   10CHL1   C12  697   5.010   2.881   5.272 -0.2336  0.3259  0.8306
   10CHL1  H12A  698   4.982   2.794   5.210  1.6185 -0.6377  1.2741
   10CHL1  H12B  699   5.119   2.895   5.256  0.3355  1.2660  4.5257
   10CHL1   C11  700   4.981   2.864   5.418  0.4489  0.2604 -0.1587
   10CHL1  H11A  701   4.873   2.845   5.441  1.0343 -3.3508  0.2689
   10CHL1  H11B  702   5.030   2.771   5.453 -0.9412  0.4798  2.6403
   10CHL1    C9  703   5.027   2.975   5.515 -0.0124 -0.3100  0.7318
   10CHL1    H9  704   5.138   2.979   5.502 -0.0724 -0.3250  0.1842
   10CHL1   C10  705   5.008   2.955   5.661 -0.1648 -0.1476 -0.3373
   10CHL1   C19  706   4.863   2.920   5.688  0.0697 -0.4649 -0.4106
   10CHL1  H19A  707   4.789   2.986   5.638  0.4421  1.8546  1.9339
   10CHL1  H19B  708   4.846   2.814   5.658 -0.1128 -1.4531  2.8743
   10CHL1  H19C  709   4.839   2.923   5.796  1.0791 -1.1573 -0.1560
   10CHL1    C1  710   5.103   2.840   5.711 -0.3847 -0.1477 -0.5196
   10CHL1   H1A  711   5.071   2.744   5.666 -0.8708  0.6609 -1.9821
   10CHL1   H1B  712   5.208   2.846   5.675 -0.3733 -1.7720 -0.8123
   10CHL1    C2  713   5.114   2.824   5.860 -0.0537 -0.1664  0.0168
   10CHL1   H2A  714   5.207   2.765   5.878 -1.2160 -1.9601  0.3617
   10CHL1   H2B  715   5.020   2.778   5.897  0.5307  0.5098  2.5127
   10CHL1   C20  716   4.943   2.996   4.966 -0.3124 -0.0904  0.4629
   10CHL1   H20  717   4.843   2.954   4.991 -0.8382 -0.3807 -1.9400
   10CHL1   C21  718   5.051   2.881   4.941  0.4991 -0.1968 -0.3505
   10CHL1  H21A  719   5.073   2.827   5.036  0.5874 -0.4050 -0.4895
   10CHL1  H21B  720   5.140   2.944   4.919  1.4922 -0.0093  3.4015
   10CHL1  H21C  721   5.025   2.807   4.863 -0.5311 -0.8564  0.5772
   10CHL1   C22  722   4.922   3.082   4.836 -0.1001 -1.1704 -0.4043
   10CHL1  H22A  723   4.860   3.171   4.859  1.7107 -0.0932  0.5959
   10CHL1  H22B  724   5.020   3.118   4.799 -0.4779 -1.7909 -2.0951
   10CHL1   C23  725   4.869   3.005   4.717  0.8746  0.2620  0.0201
   10CHL1  H23A  726   4.850   3.077   4.634  0.0171 -0.6007 -0.5600
   10CHL1  H23B  727   4.953   2.941   4.685  0.8128 -0.0750  0.5247
   10CHL1   C24  728   4.739   2.940   4.747  0.0223  0.5930 -0.0914
   10CHL1  H24A  729   4.735   2.857   4.820 -0.3677 -2.3219 -3.1440
   10CHL1  H24B  730   4.661   3.012   4.778 -1.0288 -0.8277  0.6801
   10CHL1   C25  731   4.674   2.868   4.625  0.2237 -0.7038 -0.2408
   10CHL1   H25  732   4.645   2.949   4.555 -1.8162 -1.2704 -0.1247
   10CHL1   C26  733   4.755   2.761   4.549 -0.0482 -0.2225  0.4779
   10CHL1  H26A  734   4.846   2.805   4.503  0.2725 -1.6277 -0.2848
   10CHL1  H26B  735   4.782   2.678   4.617  1.5604 -0.3744 -0.2983
   10CHL1  H26C  736   4.677   2.731   4.475 -0.4162  1.3068  0.2024
   10CHL1   C27  737   4.540   2.799   4.661  0.0269  0.0479 -0.1507
   10CHL1  H27A  738   4.464   2.874   4.694  0.1150 -0.3464  1.0101
   10CHL1  H27B  739   4.500   2.747   4.571  1.3759 -0.2519 -0.6024
   10CHL1  H27C  740   4.562   2.724   4.740 -1.7125  0.4311  0.7564
   11CHL1    C3  741   3.907   5.732   6.241  0.1406 -0.4568 -0.0353
   11CHL1    H3  742   3.870   5.628   6.240 -0.8302 -0.1280  0.6120
   11CHL1    O3  743   3.907   5.767   6.377 -0.6308  0.1791  0.6441
   11CHL1   H3'  744   3.936   5.858   6.380  0.9716 -0.3327  2.4041
   11CHL1    C4  745   4.044   5.755   6.184 -0.3886 -0.1612 -0.9485
   11CHL1   H4A  746   4.078   5.854   6.221 -0.0951 -1.3476  2.3451
   11CHL1   H4B  747   4.124   5.700   6.239 -1.6118 -0.2446  0.8170
   11CHL1    C5  748   4.051   5.742   6.035 -0.2886  0.6005 -0.2381
   11CHL1    C6  749   4.133   5.652   5.976 -0.1772 -0.1028 -0.0619
   11CHL1    H6  750   4.205   5.592   6.035 -2.3001 -1.2785  1.4788
   11CHL1    C7  751   4.146   5.636   5.828 -0.4855 -0.2688  0.1200
   11CHL1   H7A  752   4.254   5.636   5.802 -0.6916 -1.5748 -0.8795
   11CHL1   H7B  753   4.103   5.542   5.787 -1.1806  0.1329 -0.0691
   11CHL1    C8  754   4.076   5.749   5.748  0.7102  0.2589 -0.0353
   11CHL1    H8  755   4.147   5.835   5.748  0.2769  0.6402  1.0235
   11CHL1   C14  756   4.058   5.700   5.605  0.7569 -0.6052 -0.2818
   11CHL1   H14  757   3.994   5.609   5.609 -2.4628  1.4184 -1.5797
   11CHL1   C15  758   4.181   5.653   5.533  0.1708  0.0784 -0.4240
   11CHL1  H15A  759   4.262   5.728   5.550  0.2719 -0.4673  1.8468
   11CHL1  H15B  760   4.223   5.557   5.571  0.8384  0.6902  0.3995
   11CHL1   C16  761   4.141   5.646   5.386 -0.0770 -0.1232  0.3758
   11CHL1  H16A  762   4.219   5.670   5.311 -0.7797 -1.2775 -0.7678
   11CHL1  H16B  763   4.118   5.542   5.355  1.9692  0.0538 -2.0297
   11CHL1   C17  764   4.008   5.725   5.375  0.1488  0.0693  0.0264
   11CHL1   H17  765   3.927   5.649   5.365  0.2688 -0.0682  0.1088
   11CHL1   C13  766   3.985   5.789   5.512 -0.6712 -0.0271  0.7475
   11CHL1   C18  767   4.058   5.927   5.507 -0.0974 -0.1106  0.2982
   11CHL1  H18A  768   4.008   6.001   5.440  2.8715  2.2775  0.4943
   11CHL1  H18B  769   4.062   5.983   5.603  0.3679  0.9960 -0.3440
   11CHL1  H18C  770   4.160   5.908   5.467  0.0529 -1.3573  1.2173
   11CHL1   C12  771   3.841   5.810   5.574  0.0614  0.7387 -0.4395
   11CHL1  H12A  772   3.776   5.879   5.517 -0.3045  1.3348  0.6617
   11CHL1  H12B  773   3.790   5.712   5.568 -1.8866  1.7623 -1.5343
   11CHL1   C11  774   3.852   5.863   5.721  0.2355 -0.1759  0.2419
   11CHL1  H11A  775   3.892   5.966   5.711 -0.0035 -0.3355 -3.8990
   11CHL1  H11B  776   3.753   5.877   5.770 -0.1361  2.9007 -1.1382
   11CHL1    C9  777   3.944   5.782   5.815  0.3010  0.1430 -0.0644
   11CHL1    H9  778   3.902   5.680   5.817  2.3075 -0.7201  1.0348
   11CHL1   C10  779   3.951   5.830   5.959  0.4158  0.3991  0.2480
   11CHL1   C19  780   4.001   5.977   5.969  0.2949  0.0134 -0.5444
   11CHL1  H19A  781   4.019   6.006   6.075 -1.5496  1.0107 -0.4581
   11CHL1  H19B  782   4.100   5.990   5.920  0.2868 -0.3027 -0.6458
   11CHL1  H19C  783   3.922   6.044   5.929 -1.6786 -1.9690 -0.1223
   11CHL1    C1  784   3.809   5.814   6.024 -0.3502 -0.2032  1.0223
   11CHL1   H1A  785   3.746   5.896   5.983  1.7285  1.1772  0.4668
   11CHL1   H1B  786   3.777   5.716   5.981  0.9826 -1.0226  1.8345
   11CHL1    C2  787   3.797   5.825   6.175 -0.1468  0.1290  0.7430
   11CHL1   H2A  788   3.692   5.798   6.198 -0.6935  1.3374 -0.1980
   11CHL1   H2B  789   3.819   5.927   6.214 -0.0014 -0.0177  1.0456
   11CHL1   C20  790   3.989   5.807   5.244  0.0873 -0.0471  0.2915
   11CHL1   H20  791   4.068   5.885   5.239 -0.0362  0.0272 -0.5617
   11CHL1   C21  792   3.856   5.889   5.237  0.4184  0.5123  0.0102
   11CHL1  H21A  793   3.773   5.820   5.264  1.7446 -1.6935 -1.2192
   11CHL1  H21B  794   3.846   5.928   5.133  2.7336 -1.2948 -1.0031
   11CHL1  H21C  795   3.850   5.970   5.312 -0.4571 -0.6249  1.2216
   11CHL1   C22  796   4.012   5.711   5.127  0.0734  0.6259 -0.5687
   11CHL1  H22A  797   4.108   5.657   5.140  0.8616  1.9246 -0.7890
   11CHL1  H22B  798   3.928   5.639   5.120  0.0305  0.6450 -0.2547
   11CHL1   C23  799   4.011   5.780   4.993  0.2226 -0.4111 -0.7576
   11CHL1  H23A  800   3.913   5.813   4.953 -0.4470 -2.1501 -0.6219
   11CHL1  H23B  801   4.083   5.863   5.012 -0.2743 -0.0400 -0.4697
   11CHL1   C24  802   4.066   5.699   4.881 -0.0442  0.0702 -0.0260
   11CHL1  H24A  803   4.157   5.641   4.907 -0.3110 -1.1444 -1.6357
   11CHL1  H24B  804   3.986   5.629   4.850  0.7714 -1.0338  0.2688
   11CHL1   C25  805   4.088   5.778   4.750 -0.0183 -0.7703  0.3125
   11CHL1   H25  806   3.996   5.841   4.745  0.6254  0.1163 -0.8113
   11CHL1   C26  807   4.205   5.876   4.763  0.7767 -0.2614  0.3969
   11CHL1  H26A  808   4.202   5.949   4.679 -1.4647  0.2436  0.8558
   11CHL1  H26B  809   4.198   5.935   4.858  1.1783 -0.4999  0.5752
   11CHL1  H26C  810   4.304   5.827   4.771  2.0840  1.5880 -2.7077
   11CHL1   C27  811   4.091   5.687   4.628  0.3253 -0.0157  0.0838
   11CHL1  H27A  812   4.012   5.609   4.638  0.2518  0.0372 -0.0939
   11CHL1  H27B  813   4.081   5.751   4.538  0.3805 -0.8372 -0.5120
   11CHL1  H27C  814   4.192   5.646   4.608  0.0020 -0.8373  0.0854
   12CHL1    C3  815   5.436   0.656   5.674 -0.3412 -0.2514 -0.5479
   12CHL1    H3  816   5.390   0.555   5.674 -2.2869  0.5378 -2.4042
   12CHL1    O3  817   5.486   0.684   5.805  0.1974  0.2407 -0.0714
   12CHL1   H3'  818   5.410   0.682   5.864  0.0299 -0.4629 -0.2959
   12CHL1    C4  819   5.545   0.665   5.571 -0.4672 -0.6251 -0.0553
   12CHL1   H4A  820   5.585   0.768   5.571 -0.8658 -0.4493 -1.1976
   12CHL1   H4B  821   5.619   0.589   5.604 -0.0092 -0.2574 -0.2440
   12CHL1    C5  822   5.494   0.634   5.430 -0.3958 -0.1610  0.2025
   12CHL1    C6  823   5.539   0.527   5.362 -0.1375  0.9178 -0.5006
   12CHL1    H6  824   5.614   0.459   5.405 -0.2884  1.2747  0.3501
   12CHL1    C7  825   5.511   0.494   5.217 -0.3624 -0.1893  0.3065
   12CHL1   H7A  826   5.596   0.468   5.150 -0.2406  0.0539  0.3649
   12CHL1   H7B  827   5.446   0.404   5.205  0.5404 -1.1549  2.2545
   12CHL1    C8  828   5.429   0.605   5.147  0.3084 -0.4289 -0.3919
   12CHL1    H8  829   5.499   0.685   5.115 -0.8923  0.8673  0.1164
   12CHL1   C14  830   5.358   0.552   5.018 -0.5293  0.3298 -0.0141
   12CHL1   H14  831   5.291   0.470   5.050 -1.5725 -0.1219 -3.0195
   12CHL1   C15  832   5.443   0.473   4.917 -0.2461  0.2805 -0.1616
   12CHL1  H15A  833   5.534   0.532   4.892 -1.5860  1.5615 -2.4395
   12CHL1  H15B  834   5.455   0.369   4.954 -0.7600 -0.1165 -1.0688
   12CHL1   C16  835   5.361   0.482   4.787 -0.4178 -0.9091 -0.7086
   12CHL1  H16A  836   5.424   0.546   4.723 -1.5115  2.5635  1.4141
   12CHL1  H16B  837   5.348   0.377   4.753  3.9626 -1.2207 -1.9463
   12CHL1   C17  838   5.235   0.565   4.822  0.6418  0.0427 -0.0171
   12CHL1   H17  839   5.155   0.497   4.858 -0.6409  0.5929 -1.7048
   12CHL1   C13  840   5.272   0.650   4.948  0.0553  0.1609  1.2184
   12CHL1   C18  841   5.356   0.772   4.911 -0.2042  0.5953 -0.3778
   12CHL1  H18A  842   5.407   0.813   5.001 -1.4246  1.2452  0.0458
   12CHL1  H18B  843   5.435   0.743   4.838  1.3367  2.1103  0.6037
   12CHL1  H18C  844   5.292   0.849   4.863 -0.9306 -0.6189 -1.4371
   12CHL1   C12  845   5.164   0.687   5.046  0.6587  0.4087 -0.1337
   12CHL1  H12A  846   5.087   0.749   4.996 -0.6268 -2.2309 -1.6598
   12CHL1  H12B  847   5.104   0.598   5.075  0.9825 -0.3025 -1.5825
   12CHL1   C11  848   5.216   0.755   5.178 -0.5564 -0.2990  0.3733
   12CHL1  H11A  849   5.256   0.852   5.142 -4.6171  1.2421 -0.5229
   12CHL1  H11B  850   5.134   0.766   5.252  2.3426  0.8781  3.7013
   12CHL1    C9  851   5.320   0.661   5.245 -0.1396 -0.1493 -0.3557
   12CHL1    H9  852   5.264   0.572   5.282  2.4062 -1.6487  0.1154
   12CHL1   C10  853   5.378   0.721   5.376 -0.8610  0.2796 -0.6293
   12CHL1   C19  854   5.433   0.862   5.358  0.3176  0.1550  0.0796
   12CHL1  H19A  855   5.374   0.934   5.297 -2.9721 -1.4445  1.0991
   12CHL1  H19B  856   5.452   0.911   5.456 -0.4111  1.1418 -0.2513
   12CHL1  H19C  857   5.532   0.859   5.309  1.3155  0.6213  1.9752
   12CHL1    C1  858   5.267   0.721   5.492 -0.1984 -0.3035 -0.1942
   12CHL1   H1A  859   5.204   0.811   5.471  0.0428  0.0303  0.4732
   12CHL1   H1B  860   5.201   0.632   5.500 -1.2969  0.4752 -0.2794
   12CHL1    C2  861   5.328   0.755   5.635  0.0462  0.7127 -0.0408
   12CHL1   H2A  862   5.252   0.757   5.716  0.2470  0.5074  0.1507
   12CHL1   H2B  863   5.377   0.854   5.629  1.0697  0.1459 -1.6823
   12CHL1   C20  864   5.186   0.640   4.697  0.0720  0.0786  0.4695
   12CHL1   H20  865   5.265   0.704   4.650  0.3118 -1.3801 -1.2001
   12CHL1   C21  866   5.066   0.729   4.735  0.1309 -0.4894 -0.9197
   12CHL1  H21A  867   4.991   0.674   4.795  1.3377 -2.2150 -0.9207
   12CHL1  H21B  868   5.011   0.771   4.648 -2.9964 -1.4682  0.4514
   12CHL1  H21C  869   5.098   0.814   4.798  0.4606 -0.3592 -1.2561
   12CHL1   C22  870   5.141   0.544   4.582  0.3045 -0.0166  0.0288
   12CHL1  H22A  871   5.218   0.468   4.559 -0.5626 -0.2039 -2.5638
   12CHL1  H22B  872   5.052   0.488   4.618 -2.2908  3.0538 -1.1462
   12CHL1   C23  873   5.119   0.608   4.443 -0.0029 -0.3100 -0.0731
   12CHL1  H23A  874   5.064   0.541   4.374  1.3598 -1.3907 -0.1585
   12CHL1  H23B  875   5.064   0.703   4.463 -0.8227 -0.6833 -0.5091
   12CHL1   C24  876   5.249   0.642   4.375 -0.8763 -0.2403  1.1164
   12CHL1  H24A  877   5.299   0.721   4.435 -1.7879  2.0815 -1.0014
   12CHL1  H24B  878   5.323   0.559   4.376 -0.4550  0.1077  0.2598
   12CHL1   C25  879   5.228   0.683   4.224 -0.2706 -0.6524 -0.4899
   12CHL1   H25  880   5.128   0.730   4.214  0.5142  1.3161  0.3191
   12CHL1   C26  881   5.337   0.784   4.175 -0.4362  0.0109 -0.3546
   12CHL1  H26A  882   5.435   0.732   4.176 -0.2863  0.2899  0.8292
   12CHL1  H26B  883   5.323   0.812   4.068  0.4714  0.1080 -0.4561
   12CHL1  H26C  884   5.359   0.876   4.234  2.0082 -0.7603  0.0666
   12CHL1   C27  885   5.222   0.567   4.128 -0.0877 -0.0686 -0.2642
   12CHL1  H27A  886   5.130   0.506   4.136 -0.5573  0.6663  0.0280
   12CHL1  H27B  887   5.220   0.615   4.027  2.6679  1.6225  0.3747
   12CHL1  H27C  888   5.316   0.508   4.136 -1.0635 -2.1961 -2.8365
   13CHL1    C3  889   4.903   0.056   5.867  0.4065  0.2796 -0.2721
   13CHL1    H3  890   4.926   0.157   5.826  1.0099  0.1792 -0.2024
   13CHL1    O3  891   4.884   0.053   6.004 -0.9901  0.0493  0.3006
   13CHL1   H3'  892   4.969   0.042   6.047 -1.0526 -0.5609  0.2647
   13CHL1    C4  893   4.774   0.006   5.806 -0.2247 -0.0681  0.8135
   13CHL1   H4A  894   4.736  -0.087   5.854 -0.3300  0.2581  1.3680
   13CHL1   H4B  895   4.695   0.075   5.844 -1.0175 -0.7450  0.4467
   13CHL1    C5  896   4.786  -0.003   5.657  0.3754  1.1221  0.7004
   13CHL1    C6  897   4.698   0.057   5.577 -0.0023  0.3155 -0.0656
   13CHL1    H6  898   4.609   0.100   5.626 -0.7633 -0.8559 -0.3733
   13CHL1    C7  899   4.706   0.053   5.428 -0.0264  0.7429 -0.5454
   13CHL1   H7A  900   4.603   0.037   5.391  0.5516 -0.0682 -1.8827
   13CHL1   H7B  901   4.749   0.146   5.384  1.4667 -0.0681 -0.8792
   13CHL1    C8  902   4.798  -0.066   5.384 -0.7967 -0.8897  0.0608
   13CHL1    H8  903   4.736  -0.157   5.400 -0.6469 -0.6068  2.5322
   13CHL1   C14  904   4.843  -0.043   5.232  0.4115  0.4238 -0.3508
   13CHL1   H14  905   4.909   0.046   5.223 -0.3068  1.0906  0.7811
   13CHL1   C15  906   4.731  -0.028   5.133 -0.3404 -0.3567  0.6354
   13CHL1  H15A  907   4.661  -0.113   5.139  2.3357 -2.6984  0.9154
   13CHL1  H15B  908   4.678   0.070   5.132 -2.2076 -1.3305 -0.1824
   13CHL1   C16  909   4.799  -0.055   4.993  0.5700  0.6131  0.2553
   13CHL1  H16A  910   4.734  -0.125   4.936  0.4256 -1.3753  2.7085
   13CHL1  H16B  911   4.809   0.043   4.941  1.6643  0.8624  0.9064
   13CHL1   C17  912   4.927  -0.128   5.018  0.2052  0.4438  0.1716
   13CHL1   H17  913   5.008  -0.054   4.997 -0.3334  0.6916 -1.1461
   13CHL1   C13  914   4.923  -0.162   5.169  0.7319 -0.3305  0.0327
   13CHL1   C18  915   4.848  -0.297   5.173  0.4297 -0.7315  0.0869
   13CHL1  H18A  916   4.753  -0.295   5.116  1.0082  2.1276 -0.9702
   13CHL1  H18B  917   4.917  -0.376   5.136  0.3985  0.0103 -1.6476
   13CHL1  H18C  918   4.815  -0.305   5.279  1.4907  1.1553  0.6184
   13CHL1   C12  919   5.059  -0.166   5.251 -0.4676 -0.4846 -0.0924
   13CHL1  H12A  920   5.116  -0.254   5.216  2.2885  0.3895  1.8784
   13CHL1  H12B  921   5.115  -0.073   5.225  0.1907 -0.7046  0.5285
   13CHL1   C11  922   5.032  -0.187   5.396 -0.5740 -0.3077 -0.1487
   13CHL1  H11A  923   4.983  -0.286   5.399 -1.3106  0.0300 -0.6361
   13CHL1  H11B  924   5.121  -0.179   5.462 -1.4304  0.4317  0.9658
   13CHL1    C9  925   4.932  -0.079   5.455 -0.1367  0.5751  0.1483
   13CHL1    H9  926   4.983   0.019   5.442 -1.7132  1.4639  0.3418
   13CHL1   C10  927   4.906  -0.086   5.608  0.4563  0.1629  0.0238
   13CHL1   C19  928   4.878  -0.231   5.651  0.0319  0.2164  0.2242
   13CHL1  H19A  929   4.823  -0.291   5.576  0.9301  1.0933 -1.1773
   13CHL1  H19B  930   4.981  -0.273   5.644 -1.2908 -2.9866 -2.7648
   13CHL1  H19C  931   4.851  -0.239   5.758  2.4635 -2.3431  0.7658
   13CHL1    C1  932   5.039  -0.047   5.677  0.4702 -0.7105  0.2684
   13CHL1   H1A  933   5.123  -0.113   5.648 -0.3874 -1.8552  0.2815
   13CHL1   H1B  934   5.074   0.056   5.658  0.8815 -0.6727  1.1814
   13CHL1    C2  935   5.017  -0.038   5.831 -0.3937 -0.3023 -0.0550
   13CHL1   H2A  936   5.108   0.008   5.875 -1.0126  0.8571  0.0248
   13CHL1   H2B  937   5.010  -0.134   5.888 -0.6536 -0.9368 -1.1248
   13CHL1   C20  938   4.967  -0.244   4.922  0.6985 -0.1496  0.4572
   13CHL1   H20  939   4.894  -0.325   4.944  0.4655  0.0884  0.5725
   13CHL1   C21  940   5.106  -0.302   4.940  0.5148  0.3186  0.5337
   13CHL1  H21A  941   5.121  -0.380   4.863  0.5183 -0.0878  0.9391
   13CHL1  H21B  942   5.115  -0.349   5.040 -0.5232  0.7791  0.8554
   13CHL1  H21C  943   5.179  -0.219   4.929  0.9488  0.2657  2.5362
   13CHL1   C22  944   4.943  -0.203   4.775 -0.5422 -0.4563  0.8637
   13CHL1  H22A  945   4.836  -0.177   4.757 -0.5049 -0.6474  0.3412
   13CHL1  H22B  946   4.999  -0.110   4.752  2.0804 -2.2453 -0.5617
   13CHL1   C23  947   4.966  -0.297   4.649  0.1190  0.6752  0.2643
   13CHL1  H23A  948   5.055  -0.362   4.668  0.2286  0.9313  0.6540
   13CHL1  H23B  949   4.882  -0.369   4.652  0.4546  0.2779  0.3208
   13CHL1   C24  950   4.974  -0.219   4.522  0.2312 -0.1549 -1.1389
   13CHL1  H24A  951   4.879  -0.163   4.510 -0.8181 -1.5760  0.1610
   13CHL1  H24B  952   5.054  -0.142   4.535 -2.1136  2.6401 -2.1459
   13CHL1   C25  953   5.011  -0.311   4.405  0.4925  0.6068  0.2023
   13CHL1   H25  954   4.951  -0.404   4.397  1.7465 -0.2188  0.0994
   13CHL1   C26  955   4.977  -0.235   4.276  0.0870 -0.3066  0.9966
   13CHL1  H26A  956   5.043  -0.148   4.257 -0.2269 -0.1629  0.5387
   13CHL1  H26B  957   4.987  -0.308   4.192  0.0064  0.6887  0.0996
   13CHL1  H26C  958   4.868  -0.212   4.272  0.1063 -0.1638  1.2983
   13CHL1   C27  959   5.158  -0.363   4.402  0.5645  0.1064 -0.3405
   13CHL1  H27A  960   5.172  -0.414   4.499 -0.1309  0.0642 -0.2591
   13CHL1  H27B  961   5.181  -0.427   4.314 -1.9446 -0.7524 -0.4687
   13CHL1  H27C  962   5.226  -0.275   4.396  1.1209 -0.3063 -0.1981
   14CHL1    C3  963   3.343   3.771   6.145  0.4251 -1.0857 -0.2416
   14CHL1    H3  964   3.439   3.825   6.131 -1.3676  2.5188  0.3571
   14CHL1    O3  965   3.325   3.756   6.285 -0.2361  0.4824  0.1860
   14CHL1   H3'  966   3.386   3.821   6.320 -0.9223  1.0724  0.3172
   14CHL1    C4  967   3.231   3.860   6.081  0.4386  0.1622  0.4292
   14CHL1   H4A  968   3.137   3.811   6.114  0.9161  0.3226  2.1053
   14CHL1   H4B  969   3.232   3.961   6.127  0.2345 -0.1069  1.0439
   14CHL1    C5  970   3.245   3.866   5.930 -0.1303  0.2513  0.6262
   14CHL1    C6  971   3.275   3.979   5.865 -0.2520  0.0984  0.0925
   14CHL1    H6  972   3.291   4.065   5.932 -0.4956 -0.4556  0.8705
   14CHL1    C7  973   3.291   4.000   5.718  0.2185  0.4563  0.0585
   14CHL1   H7A  974   3.236   4.089   5.681  3.1614  2.2992 -0.1979
   14CHL1   H7B  975   3.398   4.021   5.697 -0.0347  0.4028 -1.3516
   14CHL1    C8  976   3.247   3.872   5.630 -0.6060  0.1929 -0.1644
   14CHL1    H8  977   3.137   3.874   5.647 -0.5054  2.4541  0.5591
   14CHL1   C14  978   3.289   3.882   5.491 -0.9064 -0.3799  0.0396
   14CHL1   H14  979   3.400   3.886   5.485 -0.9750  1.8312 -0.8244
   14CHL1   C15  980   3.251   4.010   5.410 -0.7840  0.4294  0.0333
   14CHL1  H15A  981   3.150   4.047   5.438 -1.0944  1.4185 -2.1684
   14CHL1  H15B  982   3.327   4.088   5.433 -1.0060  1.1426 -1.5071
   14CHL1   C16  983   3.259   3.961   5.259  1.4537 -0.0142  0.1780
   14CHL1  H16A  984   3.158   3.961   5.214  0.7415 -1.2682  1.6769
   14CHL1  H16B  985   3.326   4.020   5.192  0.7288  1.4711  0.7122
   14CHL1   C17  986   3.295   3.811   5.260 -0.2633 -0.4928 -0.7441
   14CHL1   H17  987   3.406   3.813   5.270 -0.1407 -1.5132 -1.7286
   14CHL1   C13  988   3.250   3.769   5.400 -0.2714  0.8377  0.6998
   14CHL1   C18  989   3.093   3.753   5.401 -0.0501 -0.0606 -0.1573
   14CHL1  H18A  990   3.061   3.663   5.344 -0.7196  0.0886 -0.0296
   14CHL1  H18B  991   3.060   3.733   5.505 -0.7658 -1.1387 -0.5695
   14CHL1  H18C  992   3.041   3.848   5.373 -0.0271  0.6840  2.1235
   14CHL1   C12  993   3.320   3.642   5.467 -0.1075 -0.7105 -0.0750
   14CHL1  H12A  994   3.285   3.549   5.417 -2.3804 -0.2588  0.5444
   14CHL1  H12B  995   3.431   3.651   5.466  0.0652 -1.8762  1.9230
   14CHL1   C11  996   3.285   3.618   5.617  1.0698  0.4465  0.2318
   14CHL1  H11A  997   3.177   3.593   5.608  0.5610  1.9618  1.6628
   14CHL1  H11B  998   3.338   3.529   5.655  2.0372  0.0678 -1.8545
   14CHL1    C9  999   3.303   3.741   5.701  0.5489 -0.4542  0.1350
   14CHL1    H9 1000   3.412   3.758   5.717  0.8857 -2.2597 -0.0792
   14CHL1   C10 1001   3.246   3.735   5.847  0.4017 -1.0850  0.0396
   14CHL1   C19 1002   3.104   3.677   5.845 -0.5612 -0.2570  0.5874
   14CHL1  H19A 1003   3.036   3.751   5.798  1.5312  0.9536 -0.6899
   14CHL1  H19B 1004   3.098   3.574   5.806 -1.3142 -0.0847  0.2205
   14CHL1  H19C 1005   3.067   3.668   5.949 -2.1488 -0.1164  0.0616
   14CHL1    C1 1006   3.342   3.647   5.927 -0.2372 -0.0819 -0.1446
   14CHL1   H1A 1007   3.347   3.547   5.879 -2.0709  0.4215 -1.4920
   14CHL1   H1B 1008   3.445   3.686   5.913  0.7502 -1.9551  1.4474
   14CHL1    C2 1009   3.317   3.642   6.075  0.4179  0.3519 -1.0252
   14CHL1   H2A 1010   3.393   3.575   6.121 -0.8151 -0.9002 -0.7209
   14CHL1   H2B 1011   3.218   3.596   6.098  0.8409 -1.4933 -2.5869
   14CHL1   C20 1012   3.260   3.723   5.140 -0.2306  0.4716  0.0659
   14CHL1   H20 1013   3.157   3.683   5.154 -0.2185  0.8796  1.5259
   14CHL1   C21 1014   3.353   3.599   5.135 -0.3678 -0.3893  0.1680
   14CHL1  H21A 1015   3.328   3.549   5.039 -0.2512 -0.2452  0.0620
   14CHL1  H21B 1016   3.338   3.536   5.226 -0.9054 -0.1567  0.2417
   14CHL1  H21C 1017   3.461   3.625   5.126 -0.3198 -1.0423 -1.3222
   14CHL1   C22 1018   3.276   3.788   5.000 -0.2560 -0.6949 -0.2472
   14CHL1  H22A 1019   3.366   3.852   5.006  0.8242 -2.2064  0.6409
   14CHL1  H22B 1020   3.304   3.725   4.913 -0.4758 -0.4742 -0.4811
   14CHL1   C23 1021   3.157   3.867   4.949  0.7396 -0.3444  0.5032
   14CHL1  H23A 1022   3.149   3.961   5.009 -0.1207 -0.9567  1.3804
   14CHL1  H23B 1023   3.171   3.894   4.843  0.7259 -2.8177 -0.1920
   14CHL1   C24 1024   3.031   3.778   4.935  0.2410  0.7173 -0.3970
   14CHL1  H24A 1025   3.049   3.692   4.867 -1.7581 -2.0160  2.2235
   14CHL1  H24B 1026   3.003   3.722   5.027  0.1698 -1.1586 -1.4997
   14CHL1   C25 1027   2.909   3.859   4.892  0.2924  0.5514  0.1626
   14CHL1   H25 1028   2.913   3.949   4.957 -1.7906  0.3178  0.6796
   14CHL1   C26 1029   2.917   3.907   4.743 -0.0866 -0.0447 -0.1708
   14CHL1  H26A 1030   2.914   3.820   4.675  0.4639  0.6973 -1.1715
   14CHL1  H26B 1031   2.826   3.967   4.717 -1.3910 -2.8268 -2.6188
   14CHL1  H26C 1032   3.006   3.969   4.718 -0.9110  0.4406 -2.1397
   14CHL1   C27 1033   2.779   3.789   4.924 -0.6421 -0.1760  0.0514
   14CHL1  H27A 1034   2.688   3.850   4.910  0.1805  1.4320  1.4100
   14CHL1  H27B 1035   2.762   3.690   4.876  0.5797 -0.5853  0.4076
   14CHL1  H27C 1036   2.789   3.756   5.030 -0.4228 -0.7945 -0.1522
   15CHL1    C3 1037   5.167   5.012   6.049  0.0197 -0.2581 -0.8195
   15CHL1    H3 1038   5.089   5.090   6.041 -0.3240 -0.5964 -0.8113
   15CHL1    O3 1039   5.231   5.010   6.182  0.7630  0.2928 -0.4031
   15CHL1   H3' 1040   5.294   4.939   6.168  0.4166 -0.1542  0.2797
   15CHL1    C4 1041   5.104   4.871   6.021 -0.3396 -0.4640 -0.3066
   15CHL1   H4A 1042   5.175   4.790   6.045 -1.0929 -0.8351  0.7083
   15CHL1   H4B 1043   5.017   4.852   6.087  0.3194 -2.4354  0.0502
   15CHL1    C5 1044   5.061   4.846   5.873  1.0243  0.0958  0.2199
   15CHL1    C6 1045   4.938   4.785   5.837 -0.5290 -0.0034 -0.3330
   15CHL1    H6 1046   4.860   4.756   5.909 -0.0349  0.5561  0.4406
   15CHL1    C7 1047   4.899   4.756   5.695 -0.2559 -0.7791  0.9515
   15CHL1   H7A 1048   4.859   4.652   5.694 -3.0284  0.1764 -0.0960
   15CHL1   H7B 1049   4.819   4.831   5.674  1.1370  0.6753  0.6097
   15CHL1    C8 1050   5.020   4.755   5.592  0.3006  0.0372  0.7509
   15CHL1    H8 1051   5.071   4.658   5.606 -2.0582 -1.6193 -1.2931
   15CHL1   C14 1052   4.964   4.773   5.448  0.2121  0.7951 -0.4639
   15CHL1   H14 1053   4.923   4.876   5.443 -0.8561  0.4849  1.2286
   15CHL1   C15 1054   4.876   4.662   5.394  0.4559 -0.0823  0.1929
   15CHL1  H15A 1055   4.930   4.566   5.409  0.9143  0.3703  1.5029
   15CHL1  H15B 1056   4.776   4.642   5.438  0.3559 -0.3625 -0.1525
   15CHL1   C16 1057   4.870   4.695   5.247  0.1359  0.4934  0.2686
   15CHL1  H16A 1058   4.886   4.602   5.189 -0.7259  0.5754 -0.1216
   15CHL1  H16B 1059   4.769   4.730   5.216 -0.7868 -2.4759 -0.3516
   15CHL1   C17 1060   4.992   4.793   5.213 -0.0119  0.2158 -0.0176
   15CHL1   H17 1061   4.932   4.886   5.222 -0.3087 -0.1800  2.8547
   15CHL1   C13 1062   5.075   4.782   5.343 -0.4470 -0.0211  0.3033
   15CHL1   C18 1063   5.161   4.654   5.349 -0.6034  0.2297 -0.1825
   15CHL1  H18A 1064   5.263   4.667   5.306  0.2992  0.2553  1.8317
   15CHL1  H18B 1065   5.173   4.599   5.445 -0.6500  0.0751 -0.2643
   15CHL1  H18C 1066   5.125   4.582   5.272  0.2798 -1.6385  1.0836
   15CHL1   C12 1067   5.167   4.899   5.371  0.4769  0.3663  0.0325
   15CHL1  H12A 1068   5.247   4.910   5.295  0.1828 -0.0663 -0.3408
   15CHL1  H12B 1069   5.109   4.992   5.351 -0.0217 -0.0655 -0.5575
   15CHL1   C11 1070   5.218   4.898   5.510  0.1688 -0.2907  0.3185
   15CHL1  H11A 1071   5.296   4.821   5.525 -0.0942 -0.4316  1.0228
   15CHL1  H11B 1072   5.266   4.997   5.527  0.3761  0.0417 -1.9533
   15CHL1    C9 1073   5.109   4.879   5.622  0.1743 -0.4185  0.0711
   15CHL1    H9 1074   5.038   4.963   5.613 -1.1231 -1.7265 -3.3531
   15CHL1   C10 1075   5.167   4.882   5.767  0.3172 -0.0393  0.9242
   15CHL1   C19 1076   5.275   4.767   5.775 -0.0461 -0.2013 -0.2123
   15CHL1  H19A 1077   5.324   4.750   5.873  0.2026 -1.5741 -0.5614
   15CHL1  H19B 1078   5.223   4.672   5.752 -1.3268  0.8888 -1.9988
   15CHL1  H19C 1079   5.363   4.779   5.708  1.2992 -0.6344  1.4140
   15CHL1    C1 1080   5.235   5.012   5.802  0.1706  0.4218 -0.1964
   15CHL1   H1A 1081   5.319   5.031   5.732 -0.5534  0.9688 -0.9327
   15CHL1   H1B 1082   5.170   5.101   5.788 -0.1480  0.2197 -0.0164
   15CHL1    C2 1083   5.283   5.027   5.946  0.8359  0.3545  0.5880
   15CHL1   H2A 1084   5.330   5.128   5.956  2.0438 -0.0033 -1.0533
   15CHL1   H2B 1085   5.367   4.956   5.966  0.6616  0.0168  0.1339
   15CHL1   C20 1086   5.053   4.775   5.076 -0.2829  0.0128  0.2130
   15CHL1   H20 1087   5.120   4.686   5.075 -0.6017 -0.2359  0.7925
   15CHL1   C21 1088   5.148   4.895   5.022 -0.0157  0.1791 -0.2324
   15CHL1  H21A 1089   5.083   4.985   5.027 -0.6151 -0.3151  1.2652
   15CHL1  H21B 1090   5.192   4.887   4.920  0.3904 -1.0390  0.0222
   15CHL1  H21C 1091   5.233   4.922   5.088  0.3844  0.0480 -0.6893
   15CHL1   C22 1092   4.946   4.746   4.971  0.1713 -0.0786  0.2764
   15CHL1  H22A 1093   4.902   4.645   4.985  1.9917 -1.1156 -1.0698
   15CHL1  H22B 1094   4.875   4.832   4.965  0.9379  0.5332 -0.1720
   15CHL1   C23 1095   4.974   4.756   4.823 -0.3755  0.6280 -0.2652
   15CHL1  H23A 1096   5.021   4.853   4.792  3.3014 -0.0783  2.3569
   15CHL1  H23B 1097   5.047   4.678   4.792 -0.0790  1.1106 -0.8174
   15CHL1   C24 1098   4.844   4.733   4.748  0.5714  0.3710 -0.2823
   15CHL1  H24A 1099   4.772   4.671   4.805  0.4958 -1.1164 -1.9046
   15CHL1  H24B 1100   4.804   4.836   4.740  2.6339  1.2106 -0.2158
   15CHL1   C25 1101   4.838   4.670   4.602 -0.0577 -0.0879 -0.3179
   15CHL1   H25 1102   4.733   4.674   4.565 -0.1321 -0.6693 -0.1752
   15CHL1   C26 1103   4.927   4.743   4.501 -0.6048  0.0889 -0.2501
   15CHL1  H26A 1104   5.032   4.746   4.535 -0.9004 -0.7735  0.7841
   15CHL1  H26B 1105   4.935   4.683   4.407  1.7453 -1.3609  0.8014
   15CHL1  H26C 1106   4.904   4.847   4.468 -1.8616 -0.5634 -1.5776
   15CHL1   C27 1107   4.867   4.517   4.613 -0.0203 -0.7381  0.3809
   15CHL1  H27A 1108   4.974   4.494   4.634  0.2656 -0.4732 -0.7069
   15CHL1  H27B 1109   4.812   4.479   4.702  0.1481 -2.2223 -0.1340
   15CHL1  H27C 1110   4.852   4.461   4.519  1.6969  2.1332 -1.7645
   16CHL1    C3 1111   2.595   0.471   6.082  0.5290 -0.3308  0.0944
   16CHL1    H3 1112   2.640   0.569   6.055 -1.6219  0.2208 -1.7929
   16CHL1    O3 1113   2.595   0.445   6.221 -0.2970 -0.4990 -0.4804
   16CHL1   H3' 1114   2.536   0.509   6.262 -0.8671  1.3107 -3.8470
   16CHL1    C4 1115   2.448   0.484   6.034 -0.2399  0.4652 -0.7592
   16CHL1   H4A 1116   2.388   0.394   6.060 -0.2144 -0.0359 -2.3560
   16CHL1   H4B 1117   2.406   0.576   6.080  0.3935 -0.1053  1.0800
   16CHL1    C5 1118   2.443   0.495   5.881  0.1216 -0.3235 -0.6589
   16CHL1    C6 1119   2.381   0.593   5.824  0.4844 -0.1059 -0.0167
   16CHL1    H6 1120   2.319   0.662   5.885  0.6999  0.0440  0.0325
   16CHL1    C7 1121   2.368   0.613   5.685  0.7181  0.1917 -0.0344
   16CHL1   H7A 1122   2.265   0.649   5.663  0.7175  0.0883 -0.2027
   16CHL1   H7B 1123   2.436   0.699   5.664 -0.3725  1.2030  0.4706
   16CHL1    C8 1124   2.416   0.489   5.596  0.4168  0.3300  0.3680
   16CHL1    H8 1125   2.321   0.432   5.596  0.0313  0.7871 -3.1140
   16CHL1   C14 1126   2.457   0.536   5.459  0.3767 -0.2797 -0.4097
   16CHL1   H14 1127   2.552   0.592   5.466 -0.3021  0.7643  1.1645
   16CHL1   C15 1128   2.360   0.633   5.388 -0.0239 -0.2543  0.0433
   16CHL1  H15A 1129   2.255   0.606   5.411  0.0905  0.0231  0.9456
   16CHL1  H15B 1130   2.374   0.741   5.411  1.2092  0.3294 -2.8754
   16CHL1   C16 1131   2.406   0.615   5.239 -0.1070  0.2689 -0.2247
   16CHL1  H16A 1132   2.317   0.595   5.175  1.6324 -0.5017 -2.5309
   16CHL1  H16B 1133   2.447   0.711   5.201  0.5588  0.0973  0.0450
   16CHL1   C17 1134   2.513   0.509   5.221 -0.3367 -0.4223 -0.2635
   16CHL1   H17 1135   2.608   0.563   5.237 -0.7061 -0.1999  1.4192
   16CHL1   C13 1136   2.497   0.426   5.359  0.6217 -0.0965  0.4541
   16CHL1   C18 1137   2.369   0.331   5.340 -0.0921 -0.3611  0.3706
   16CHL1  H18A 1138   2.345   0.281   5.436  0.5480  0.5755  1.0429
   16CHL1  H18B 1139   2.288   0.387   5.288  1.8205 -0.0987 -2.5781
   16CHL1  H18C 1140   2.391   0.244   5.275 -1.4395 -2.0843  2.0931
   16CHL1   C12 1141   2.609   0.341   5.418  0.5908 -0.6750  0.1170
   16CHL1  H12A 1142   2.650   0.264   5.350  2.2189  1.7215 -1.7873
   16CHL1  H12B 1143   2.694   0.407   5.447  1.6446 -2.3200  0.9502
   16CHL1   C11 1144   2.583   0.297   5.563  0.3828 -0.7750 -0.3801
   16CHL1  H11A 1145   2.503   0.220   5.563  0.2134 -0.6312  1.1517
   16CHL1  H11B 1146   2.666   0.254   5.622 -0.2575  0.1444  1.2496
   16CHL1    C9 1147   2.533   0.419   5.653 -0.2189 -0.8493  0.1599
   16CHL1    H9 1148   2.613   0.495   5.646 -1.2675  0.1326 -1.8318
   16CHL1   C10 1149   2.520   0.381   5.809  0.1539 -0.0338  0.0496
   16CHL1   C19 1150   2.436   0.246   5.815  0.1409  0.5458  0.0185
   16CHL1  H19A 1151   2.499   0.167   5.767  1.4980  0.9940  0.9927
   16CHL1  H19B 1152   2.423   0.224   5.923 -0.7846  0.3933 -0.1185
   16CHL1  H19C 1153   2.338   0.247   5.762  0.5747 -0.3913 -0.8588
   16CHL1    C1 1154   2.668   0.366   5.871  0.0137 -0.9800  0.8168
   16CHL1   H1A 1155   2.717   0.276   5.829 -2.9962 -1.7328 -1.4250
   16CHL1   H1B 1156   2.722   0.455   5.834  0.8115 -1.4439  0.8353
   16CHL1    C2 1157   2.676   0.350   6.023 -0.2647 -0.9879  0.4546
   16CHL1   H2A 1158   2.781   0.353   6.059 -0.3406 -2.4495  0.8630
   16CHL1   H2B 1159   2.623   0.262   6.065 -1.3747 -0.0116  1.1769
   16CHL1   C20 1160   2.514   0.442   5.088 -0.1879 -0.1917  0.2652
   16CHL1   H20 1161   2.425   0.375   5.079  0.2276 -0.5021 -2.9281
   16CHL1   C21 1162   2.626   0.330   5.076 -0.8651  0.6546  0.2130
   16CHL1  H21A 1163   2.606   0.239   5.136  0.6754 -2.0241 -3.0154
   16CHL1  H21B 1164   2.728   0.360   5.105 -0.5211  0.4270 -0.7319
   16CHL1  H21C 1165   2.643   0.292   4.973 -0.8194  0.3861  0.3197
   16CHL1   C22 1166   2.532   0.541   4.967 -0.2488  0.5030  0.0645
   16CHL1  H22A 1167   2.487   0.639   4.993  0.0463  0.3615  1.1601
   16CHL1  H22B 1168   2.640   0.558   4.945 -0.1029 -0.3373  0.0743
   16CHL1   C23 1169   2.472   0.487   4.836  0.1954 -0.9985 -0.0321
   16CHL1  H23A 1170   2.533   0.400   4.805  0.1643 -1.5855  1.4856
   16CHL1  H23B 1171   2.371   0.444   4.855  1.1799 -1.8977  4.0148
   16CHL1   C24 1172   2.477   0.577   4.714  0.4878 -0.6171  0.0737
   16CHL1  H24A 1173   2.413   0.668   4.718  0.2053 -0.8401  3.0171
   16CHL1  H24B 1174   2.581   0.616   4.707 -0.6770  2.6300 -0.7693
   16CHL1   C25 1175   2.432   0.514   4.575 -0.1292 -0.0548 -0.5366
   16CHL1   H25 1176   2.497   0.428   4.548  2.0086  1.4671 -0.5491
   16CHL1   C26 1177   2.292   0.454   4.584  0.2462 -0.1064  0.6090
   16CHL1  H26A 1178   2.278   0.385   4.670  0.2007  0.6683  1.2422
   16CHL1  H26B 1179   2.214   0.533   4.594  0.9836  0.7194 -0.0676
   16CHL1  H26C 1180   2.268   0.391   4.496 -1.0382 -1.2092  1.6858
   16CHL1   C27 1181   2.451   0.620   4.465 -0.5336  0.1750  0.2085
   16CHL1  H27A 1182   2.426   0.580   4.365 -1.2545 -1.3266  0.9482
   16CHL1  H27B 1183   2.373   0.699   4.474 -1.4492 -0.2916 -2.7179
   16CHL1  H27C 1184   2.551   0.666   4.477  0.1152 -0.6903 -1.5608
   17CHL1    C3 1185   3.199   4.476   5.909 -0.4318 -0.1137  0.4510
   17CHL1    H3 1186   3.093   4.479   5.879 -0.1816 -0.7362 -0.5493
   17CHL1    O3 1187   3.210   4.439   6.045  0.5026  0.3266  0.3063
   17CHL1   H3' 1188   3.304   4.429   6.060 -0.0005 -0.5369  3.6970
   17CHL1    C4 1189   3.280   4.372   5.823  0.2289  0.4617  0.4016
   17CHL1   H4A 1190   3.380   4.345   5.863  0.6759 -1.7927 -1.9547
   17CHL1   H4B 1191   3.232   4.273   5.832  0.8681 -0.1716 -2.3068
   17CHL1    C5 1192   3.282   4.422   5.678  0.6783 -0.1103  0.3427
   17CHL1    C6 1193   3.223   4.354   5.574 -0.0680  0.0624 -0.1487
   17CHL1    H6 1194   3.188   4.252   5.596  2.4400 -1.0767 -1.0511
   17CHL1    C7 1195   3.221   4.397   5.434 -0.5423 -0.5311 -0.5900
   17CHL1   H7A 1196   3.222   4.320   5.354 -0.1757  0.6347 -1.7344
   17CHL1   H7B 1197   3.144   4.475   5.416  2.3305  3.4906  2.5934
   17CHL1    C8 1198   3.346   4.488   5.405  0.0076  0.7048 -0.0017
   17CHL1    H8 1199   3.437   4.424   5.406  0.6628  1.6143  0.1867
   17CHL1   C14 1200   3.338   4.547   5.266 -0.2945 -0.2751 -0.4708
   17CHL1   H14 1201   3.254   4.620   5.267 -0.9739 -1.0139  0.9613
   17CHL1   C15 1202   3.313   4.446   5.152 -0.0075 -0.3454  0.0532
   17CHL1  H15A 1203   3.376   4.355   5.160  1.3059  0.3411 -1.8295
   17CHL1  H15B 1204   3.208   4.424   5.124  0.2554  1.3755 -2.6098
   17CHL1   C16 1205   3.368   4.533   5.029  0.4616  0.7315  0.9205
   17CHL1  H16A 1206   3.447   4.467   4.988  0.0490  0.8783 -0.1377
   17CHL1  H16B 1207   3.290   4.551   4.952  1.0008  2.3134  0.7217
   17CHL1   C17 1208   3.431   4.669   5.082 -0.2445  0.9022  0.0925
   17CHL1   H17 1209   3.344   4.738   5.083 -1.6996 -0.8551  0.4896
   17CHL1   C13 1210   3.452   4.642   5.235 -0.0540 -0.2319 -0.2365
   17CHL1   C18 1211   3.590   4.574   5.250 -0.7198  0.3052 -0.0445
   17CHL1  H18A 1212   3.673   4.642   5.222  2.1639 -2.1009  2.0290
   17CHL1  H18B 1213   3.618   4.526   5.346 -2.4163 -2.2746 -0.7417
   17CHL1  H18C 1214   3.593   4.496   5.171  1.9029  1.4116 -1.1701
   17CHL1   C12 1215   3.435   4.767   5.329 -0.1036 -0.5976 -0.3544
   17CHL1  H12A 1216   3.511   4.847   5.320 -1.5321  0.6445 -2.2129
   17CHL1  H12B 1217   3.334   4.814   5.328  0.7302  1.4104  1.8054
   17CHL1   C11 1218   3.439   4.722   5.480  0.1643 -0.3276  0.8916
   17CHL1  H11A 1219   3.543   4.689   5.500 -0.0635 -2.6303 -1.2620
   17CHL1  H11B 1220   3.422   4.808   5.548  1.9845  0.1100  0.8294
   17CHL1    C9 1221   3.350   4.598   5.510 -0.7187 -0.2422 -0.2494
   17CHL1    H9 1222   3.253   4.652   5.498  0.0536  2.1309  2.9677
   17CHL1   C10 1223   3.356   4.548   5.653 -0.7171 -0.0333  0.1677
   17CHL1   C19 1224   3.501   4.528   5.700  0.3036  0.4871  1.2098
   17CHL1  H19A 1225   3.506   4.487   5.803 -1.2156 -1.3707  0.5898
   17CHL1  H19B 1226   3.548   4.458   5.628  0.4925  2.6249 -0.8822
   17CHL1  H19C 1227   3.559   4.623   5.699 -1.8141  1.8918  2.6197
   17CHL1    C1 1228   3.288   4.659   5.753 -0.1414 -0.1650  0.2665
   17CHL1   H1A 1229   3.348   4.752   5.746 -0.2561 -0.1871 -1.3350
   17CHL1   H1B 1230   3.187   4.688   5.717 -0.1526 -0.6465 -0.1011
   17CHL1    C2 1231   3.273   4.611   5.898  0.4147  0.2857 -0.0819
   17CHL1   H2A 1232   3.209   4.679   5.959 -1.6090 -0.7203 -0.9786
   17CHL1   H2B 1233   3.370   4.595   5.949  0.2138 -0.6079  0.0339
   17CHL1   C20 1234   3.542   4.729   4.992 -0.3977 -0.3687  0.4838
   17CHL1   H20 1235   3.628   4.658   4.999 -1.0755 -1.2546 -0.0298
   17CHL1   C21 1236   3.585   4.866   5.046 -1.3216 -0.2728 -0.1838
   17CHL1  H21A 1237   3.502   4.941   5.044  0.8239  2.4216  2.3258
   17CHL1  H21B 1238   3.664   4.904   4.977 -0.8865  0.4645  0.6994
   17CHL1  H21C 1239   3.636   4.868   5.144 -1.7372 -1.3987  0.0671
   17CHL1   C22 1240   3.489   4.747   4.848  0.3692 -0.1232  0.8577
   17CHL1  H22A 1241   3.456   4.651   4.802 -0.1524  0.6579 -0.4525
   17CHL1  H22B 1242   3.392   4.801   4.848  1.0411  1.1151  0.0666
   17CHL1   C23 1243   3.577   4.810   4.743  0.2566 -0.0194 -0.0154
   17CHL1  H23A 1244   3.594   4.916   4.770 -0.7881  0.2214 -0.2658
   17CHL1  H23B 1245   3.668   4.745   4.741  0.7228  0.6493 -0.9639
   17CHL1   C24 1246   3.499   4.817   4.608  0.0775  0.3826  0.1157
   17CHL1  H24A 1247   3.484   4.716   4.565 -0.9427  1.6828 -2.7706
   17CHL1  H24B 1248   3.395   4.855   4.618 -0.2599  0.4207 -2.7623
   17CHL1   C25 1249   3.568   4.895   4.494  0.8678  0.5002 -0.5147
   17CHL1   H25 1250   3.674   4.860   4.501  0.2982 -1.1496  0.5894
   17CHL1   C26 1251   3.499   4.875   4.365 -0.1583 -0.1006  0.0549
   17CHL1  H26A 1252   3.548   4.922   4.277 -0.0004 -1.2742 -0.4993
   17CHL1  H26B 1253   3.506   4.766   4.342 -0.0669  0.0438 -0.6443
   17CHL1  H26C 1254   3.393   4.907   4.373  0.0108  0.1564  1.6560
   17CHL1   C27 1255   3.566   5.051   4.519 -0.1609 -0.1793  0.2049
   17CHL1  H27A 1256   3.598   5.075   4.623 -1.0214 -1.2193  0.7482
   17CHL1  H27B 1257   3.636   5.095   4.445  2.7479  0.8125  3.3072
   17CHL1  H27C 1258   3.466   5.095   4.498  0.5049  2.0660  1.4759
   18CHL1    C3 1259   4.944   5.986   6.092 -0.4202 -0.6429  0.0455
   18CHL1    H3 1260   5.032   6.046   6.121 -1.4779  0.2377  1.5724
   18CHL1    O3 1261   4.863   5.963   6.204 -0.1589  0.0156 -0.2371
   18CHL1   H3' 1262   4.837   5.871   6.196  0.9686 -0.6215  2.3531
   18CHL1    C4 1263   4.866   6.080   5.991  0.8836  0.0855 -0.6426
   18CHL1   H4A 1264   4.759   6.052   5.983  0.2193  1.7634  1.4616
   18CHL1   H4B 1265   4.859   6.180   6.039 -2.0616 -1.0255  1.4858
   18CHL1    C5 1266   4.933   6.082   5.856  0.4466 -0.2235  0.8589
   18CHL1    C6 1267   4.971   6.199   5.800  0.7548  0.1917  0.3685
   18CHL1    H6 1268   4.962   6.299   5.844  0.8529  0.4033 -0.0882
   18CHL1    C7 1269   5.019   6.210   5.655  0.3832 -0.1667 -0.1128
   18CHL1   H7A 1270   4.968   6.299   5.610 -0.6284 -0.9255 -0.5094
   18CHL1   H7B 1271   5.128   6.228   5.646  0.4135 -0.7391 -1.1055
   18CHL1    C8 1272   5.000   6.081   5.577 -0.2224  0.6772 -0.2056
   18CHL1    H8 1273   4.893   6.074   5.545 -0.0325 -0.8751 -0.5736
   18CHL1   C14 1274   5.098   6.085   5.458 -0.5207 -1.0508 -0.3489
   18CHL1   H14 1275   5.196   6.077   5.509 -0.0753 -1.5264 -1.2576
   18CHL1   C15 1276   5.093   6.213   5.370 -0.5632  0.1160  0.2523
   18CHL1  H15A 1277   4.985   6.224   5.349 -1.1170 -0.0563  2.7023
   18CHL1  H15B 1278   5.139   6.301   5.420  0.8186 -0.6255  0.3547
   18CHL1   C16 1279   5.161   6.168   5.243 -0.8427  0.3629  0.3506
   18CHL1  H16A 1280   5.084   6.182   5.164  0.5645  0.0552 -1.1283
   18CHL1  H16B 1281   5.258   6.220   5.225 -0.4335  0.5439  2.7912
   18CHL1   C17 1282   5.187   6.016   5.251 -1.0038  0.9197  0.4921
   18CHL1   H17 1283   5.291   6.010   5.290 -0.3300  0.0899 -1.3376
   18CHL1   C13 1284   5.095   5.963   5.365 -0.2955  0.4428 -0.0148
   18CHL1   C18 1285   4.961   5.943   5.307  1.0851 -0.3783  0.1465
   18CHL1  H18A 1286   4.948   5.844   5.260 -0.9265 -0.4402  0.7265
   18CHL1  H18B 1287   4.884   5.945   5.387  0.1969  1.4636 -0.6867
   18CHL1  H18C 1288   4.940   6.029   5.240  0.1553 -1.9076 -1.6002
   18CHL1   C12 1289   5.140   5.846   5.450  0.0801  0.0652 -0.0089
   18CHL1  H12A 1290   5.156   5.752   5.393  0.0829  0.8083 -1.2823
   18CHL1  H12B 1291   5.245   5.875   5.472  0.6286  0.6358 -2.9463
   18CHL1   C11 1292   5.050   5.830   5.574 -0.6283 -0.2111 -0.0310
   18CHL1  H11A 1293   4.950   5.791   5.546 -0.5796 -1.4314  1.3776
   18CHL1  H11B 1294   5.089   5.754   5.645 -0.6675  0.5533  0.8213
   18CHL1    C9 1295   5.038   5.960   5.661  0.0931 -0.3402  0.0184
   18CHL1    H9 1296   5.142   5.979   5.695  0.0899 -0.5470  0.1434
   18CHL1   C10 1297   4.959   5.949   5.789 -0.4273  0.8841  0.3682
   18CHL1   C19 1298   4.821   5.880   5.766  0.4135  0.4994 -0.1074
   18CHL1  H19A 1299   4.751   5.924   5.692 -0.6090  0.7909  1.0035
   18CHL1  H19B 1300   4.839   5.776   5.731  0.7863  0.3256  0.5749
   18CHL1  H19C 1301   4.762   5.881   5.860  1.7445  0.1898  0.7540
   18CHL1    C1 1302   5.041   5.859   5.895  0.8658  0.3231  0.5067
   18CHL1   H1A 1303   5.065   5.763   5.845  2.5224  0.9767 -0.0082
   18CHL1   H1B 1304   5.139   5.910   5.902  0.4684  0.9356  2.1662
   18CHL1    C2 1305   4.970   5.843   6.035 -0.1240 -0.5442 -0.2014
   18CHL1   H2A 1306   5.023   5.778   6.108  0.0048 -1.5599 -1.1645
   18CHL1   H2B 1307   4.871   5.793   6.026 -1.1529  0.5707  3.3540
   18CHL1   C20 1308   5.193   5.935   5.112 -0.0771 -0.4205  0.2592
   18CHL1   H20 1309   5.089   5.937   5.073  0.1991  0.9957 -0.4659
   18CHL1   C21 1310   5.245   5.793   5.122 -0.9715  0.6545  0.7846
   18CHL1  H21A 1311   5.356   5.784   5.128 -0.9463  0.5766  0.3108
   18CHL1  H21B 1312   5.228   5.733   5.030  1.3801 -3.1281  2.5718
   18CHL1  H21C 1313   5.209   5.729   5.205  0.3955 -0.2757  0.6929
   18CHL1   C22 1314   5.282   6.015   5.012  0.5069  0.2613  0.0292
   18CHL1  H22A 1315   5.274   6.126   5.014 -0.4943  0.2857 -2.1308
   18CHL1  H22B 1316   5.388   6.018   5.043  0.3275  2.4019  0.6030
   18CHL1   C23 1317   5.281   5.969   4.868  0.3788  0.0272  0.5039
   18CHL1  H23A 1318   5.332   5.870   4.862 -0.9807 -0.6803  0.4019
   18CHL1  H23B 1319   5.173   5.956   4.848  0.3121  0.9253  0.2540
   18CHL1   C24 1320   5.345   6.075   4.772 -0.4327  0.1509 -0.3612
   18CHL1  H24A 1321   5.322   6.176   4.813 -0.3504  0.3162 -0.7222
   18CHL1  H24B 1322   5.455   6.065   4.781 -0.5823 -1.0921  0.3068
   18CHL1   C25 1323   5.319   6.055   4.624  0.3678  0.3033  0.3737
   18CHL1   H25 1324   5.352   5.953   4.594  0.6778  0.6303 -0.4055
   18CHL1   C26 1325   5.171   6.068   4.580 -0.7237  0.5205  0.1255
   18CHL1  H26A 1326   5.126   5.968   4.599  0.2675  0.0552  0.0634
   18CHL1  H26B 1327   5.125   6.148   4.642  0.6119  0.4334  1.2637
   18CHL1  H26C 1328   5.151   6.092   4.473 -0.8736  1.3704  0.3391
   18CHL1   C27 1329   5.403   6.153   4.543  0.4521 -0.0794 -0.1712
   18CHL1  H27A 1330   5.380   6.260   4.562  0.1048  0.2405 -2.1488
   18CHL1  H27B 1331   5.507   6.139   4.578 -0.7008 -2.0010  2.9140
   18CHL1  H27C 1332   5.392   6.137   4.434 -0.4361 -2.4848  0.2168
   19CHL1    C3 1333   3.207   5.152   6.135  0.7013  0.0310  0.0469
   19CHL1    H3 1334   3.279   5.237   6.130  0.5803  0.2454  1.5005
   19CHL1    O3 1335   3.195   5.127   6.277  0.0184 -0.1980  0.7365
   19CHL1   H3' 1336   3.278   5.089   6.308  0.9953  1.5760  0.4251
   19CHL1    C4 1337   3.065   5.191   6.076  0.1033 -0.3471  0.2033
   19CHL1   H4A 1338   2.994   5.106   6.086 -0.8183  0.4841  1.0001
   19CHL1   H4B 1339   3.030   5.282   6.129  0.0720  1.6170 -2.9602
   19CHL1    C5 1340   3.082   5.221   5.932  0.0981  0.1083  0.5580
   19CHL1    C6 1341   3.046   5.342   5.879 -0.0493 -0.3056 -0.5086
   19CHL1    H6 1342   2.997   5.422   5.938  2.7399  0.6566  0.6883
   19CHL1    C7 1343   3.042   5.367   5.732  0.3982 -0.1085 -0.1628
   19CHL1   H7A 1344   2.944   5.413   5.704  1.1828  0.9308 -1.3030
   19CHL1   H7B 1345   3.123   5.439   5.707 -2.1079  2.7600 -0.6530
   19CHL1    C8 1346   3.058   5.239   5.651 -0.2575  0.6095  0.0749
   19CHL1    H8 1347   2.957   5.192   5.644 -0.6977  0.9928  2.8062
   19CHL1   C14 1348   3.108   5.281   5.506  0.4251  0.0299 -0.1790
   19CHL1   H14 1349   3.212   5.306   5.533  0.4748  0.8551 -1.0478
   19CHL1   C15 1350   3.036   5.398   5.440  0.1176 -0.0634  0.3411
   19CHL1  H15A 1351   2.925   5.385   5.441  0.1792 -1.2173  3.4395
   19CHL1  H15B 1352   3.060   5.498   5.480  0.8726  0.6585 -1.7874
   19CHL1   C16 1353   3.081   5.390   5.296  0.9177  0.2936 -0.3080
   19CHL1  H16A 1354   2.991   5.379   5.232  0.9093  4.2970 -1.2439
   19CHL1  H16B 1355   3.150   5.473   5.271  1.1315  0.3747  0.5297
   19CHL1   C17 1356   3.156   5.253   5.280  0.6332 -0.2125  0.3408
   19CHL1   H17 1357   3.263   5.281   5.283  0.3245  1.0930 -0.0229
   19CHL1   C13 1358   3.126   5.168   5.406 -0.4120 -0.4733  0.1211
   19CHL1   C18 1359   2.987   5.106   5.388  0.2462  0.5396  0.5681
   19CHL1  H18A 1360   2.952   5.066   5.486  3.0375 -0.5109  1.2175
   19CHL1  H18B 1361   2.909   5.176   5.350  0.8886  0.8696 -0.1577
   19CHL1  H18C 1362   2.980   5.020   5.319 -0.0071 -0.4213  1.7705
   19CHL1   C12 1363   3.237   5.081   5.461  0.0401  0.5000 -0.2561
   19CHL1  H12A 1364   3.268   5.007   5.385  0.9039  0.0631  0.5083
   19CHL1  H12B 1365   3.327   5.145   5.450  0.5780 -0.2807 -0.4762
   19CHL1   C11 1366   3.215   5.031   5.607  0.0004 -0.6816  0.4025
   19CHL1  H11A 1367   3.139   4.950   5.600  0.7496 -1.5463  1.8590
   19CHL1  H11B 1368   3.309   4.983   5.642  0.0003 -0.0952  1.2476
   19CHL1    C9 1369   3.167   5.143   5.708 -0.2784 -0.4230 -0.6140
   19CHL1    H9 1370   3.251   5.216   5.718  0.0053 -0.8698  0.4688
   19CHL1   C10 1371   3.132   5.099   5.850  0.3340  0.6510  0.2513
   19CHL1   C19 1372   3.035   4.981   5.848  0.5619 -0.3425 -0.3649
   19CHL1  H19A 1373   2.944   4.997   5.786  0.3473  1.4239  0.3539
   19CHL1  H19B 1374   3.077   4.888   5.804 -2.1513 -0.7630 -2.3294
   19CHL1  H19C 1375   3.017   4.942   5.951 -0.0319  0.5033 -0.1345
   19CHL1    C1 1376   3.262   5.048   5.910  0.3762 -0.2280 -0.3256
   19CHL1   H1A 1377   3.296   4.951   5.867 -0.4026 -1.0022  0.7450
   19CHL1   H1B 1378   3.343   5.122   5.892  0.3870 -0.3539 -0.8079
   19CHL1    C2 1379   3.258   5.022   6.065 -0.2471 -0.0193 -0.5035
   19CHL1   H2A 1380   3.356   4.993   6.108 -0.8058 -1.0195  0.1223
   19CHL1   H2B 1381   3.179   4.947   6.086 -1.1750  0.5235 -1.9035
   19CHL1   C20 1382   3.143   5.179   5.136  0.8122  0.0546  0.2540
   19CHL1   H20 1383   3.036   5.150   5.127  1.2733 -1.6208 -0.3430
   19CHL1   C21 1384   3.217   5.041   5.134 -0.1472 -0.0486 -0.2092
   19CHL1  H21A 1385   3.164   4.972   5.203 -2.2544  1.3507 -0.3413
   19CHL1  H21B 1386   3.323   5.054   5.162 -0.5120 -1.3399  1.9768
   19CHL1  H21C 1387   3.219   5.001   5.030  0.8073  0.7190 -0.4990
   19CHL1   C22 1388   3.189   5.275   5.026  0.4588 -0.0101 -0.9928
   19CHL1  H22A 1389   3.129   5.368   5.032  0.6852  0.0440  2.0862
   19CHL1  H22B 1390   3.287   5.320   5.055 -0.8542  2.8448 -0.6956
   19CHL1   C23 1391   3.201   5.226   4.882 -0.5986  0.9613 -0.8242
   19CHL1  H23A 1392   3.271   5.140   4.876 -0.6642  0.6210  2.0248
   19CHL1  H23B 1393   3.096   5.202   4.858 -0.6690  1.2099 -0.7621
   19CHL1   C24 1394   3.252   5.337   4.783 -0.6379  0.5732  0.2681
   19CHL1  H24A 1395   3.199   5.435   4.786 -1.5810  0.0495  1.4690
   19CHL1  H24B 1396   3.355   5.359   4.819 -0.4405 -0.1748  0.1739
   19CHL1   C25 1397   3.281   5.285   4.645 -0.2562 -0.5571  0.2728
   19CHL1   H25 1398   3.341   5.192   4.654 -0.6486 -0.8947 -0.4585
   19CHL1   C26 1399   3.162   5.246   4.555 -0.1662  0.4166 -0.0595
   19CHL1  H26A 1400   3.106   5.338   4.531  0.7107  1.1612  0.6750
   19CHL1  H26B 1401   3.192   5.215   4.453 -1.2455  1.7786 -0.8119
   19CHL1  H26C 1402   3.109   5.154   4.587  1.2643 -0.1059  0.9530
   19CHL1   C27 1403   3.367   5.387   4.577  0.0718  0.6537 -0.4384
   19CHL1  H27A 1404   3.304   5.478   4.566 -0.3217  0.5557  0.7638
   19CHL1  H27B 1405   3.460   5.410   4.634  0.8300 -1.3416 -0.7928
   19CHL1  H27C 1406   3.408   5.360   4.478  3.6474 -2.0225  1.5287
   20CHL1    C3 1407   2.029   6.583   6.283 -0.1935  0.3379  0.0238
   20CHL1    H3 1408   1.976   6.488   6.263 -0.2115  0.7907 -2.3772
   20CHL1    O3 1409   2.004   6.611   6.418  0.0935  0.3411 -0.1640
   20CHL1   H3' 1410   2.035   6.701   6.430 -0.8432  0.9455 -1.8912
   20CHL1    C4 1411   2.177   6.573   6.246 -0.2001 -0.7244  0.7744
   20CHL1   H4A 1412   2.222   6.661   6.297  0.0706 -0.9653  0.9490
   20CHL1   H4B 1413   2.232   6.490   6.293  1.1479  0.1163  0.7366
   20CHL1    C5 1414   2.210   6.568   6.095  0.3383  0.0607  0.5777
   20CHL1    C6 1415   2.286   6.472   6.037 -0.0382  0.5265  0.2753
   20CHL1    H6 1416   2.338   6.404   6.105 -1.1690 -0.7100 -0.0469
   20CHL1    C7 1417   2.309   6.449   5.892 -0.5023  0.0797  0.5564
   20CHL1   H7A 1418   2.416   6.433   5.864 -0.9927  0.4269 -1.6586
   20CHL1   H7B 1419   2.258   6.362   5.848 -1.0399  1.3327 -1.4377
   20CHL1    C8 1420   2.263   6.575   5.812  0.7976  0.2373 -0.1524
   20CHL1    H8 1421   2.340   6.653   5.826  1.2262 -0.0477 -0.8375
   20CHL1   C14 1422   2.249   6.545   5.665 -0.5803 -0.3346  0.2082
   20CHL1   H14 1423   2.172   6.465   5.653 -0.1267 -0.8438  0.6507
   20CHL1   C15 1424   2.369   6.476   5.596 -0.5299 -0.0568 -0.2925
   20CHL1  H15A 1425   2.462   6.525   5.633 -0.2698 -0.9765  0.2993
   20CHL1  H15B 1426   2.377   6.371   5.632  2.3084  0.0053 -0.5390
   20CHL1   C16 1427   2.361   6.509   5.444  0.3998  0.4268 -0.9823
   20CHL1  H16A 1428   2.440   6.580   5.409  2.6357 -1.1481  0.5987
   20CHL1  H16B 1429   2.368   6.417   5.382 -0.6539 -0.4807  0.1872
   20CHL1   C17 1430   2.223   6.586   5.432 -0.1648 -0.6770 -0.0281
   20CHL1   H17 1431   2.142   6.510   5.439 -0.7084 -0.1597 -0.5636
   20CHL1   C13 1432   2.215   6.662   5.567  0.2492  0.0005 -1.0724
   20CHL1   C18 1433   2.313   6.783   5.563  0.0714  0.7256  0.1846
   20CHL1  H18A 1434   2.414   6.748   5.533 -0.1319  1.7270 -1.8428
   20CHL1  H18B 1435   2.284   6.866   5.496  0.3396  1.7342  1.2725
   20CHL1  H18C 1436   2.326   6.827   5.665  1.0599  0.3970  0.2118
   20CHL1   C12 1437   2.075   6.707   5.613  0.4119 -0.5546  0.4956
   20CHL1  H12A 1438   2.048   6.795   5.551 -0.1802 -1.3517 -0.4051
   20CHL1  H12B 1439   1.998   6.637   5.576 -1.2439  1.3753  0.1309
   20CHL1   C11 1440   2.059   6.735   5.764 -0.4884 -0.9032  0.9152
   20CHL1  H11A 1441   2.099   6.833   5.797 -2.2363 -0.2709  1.2890
   20CHL1  H11B 1442   1.949   6.738   5.784 -0.3667 -1.2796  1.6912
   20CHL1    C9 1443   2.126   6.631   5.863 -0.3570 -0.0671 -0.2188
   20CHL1    H9 1444   2.063   6.540   5.851 -0.3212 -0.1533  0.2467
   20CHL1   C10 1445   2.126   6.667   6.014  0.1787 -1.0501 -0.2361
   20CHL1   C19 1446   2.198   6.803   6.038 -0.0405 -0.3640  0.2819
   20CHL1  H19A 1447   2.298   6.804   5.990 -2.1076  0.1641 -4.4837
   20CHL1  H19B 1448   2.134   6.883   5.995  1.0960 -0.4292 -1.6393
   20CHL1  H19C 1449   2.196   6.825   6.147  1.1827 -0.5018  0.3413
   20CHL1    C1 1450   1.974   6.668   6.056 -0.1667  0.5614 -0.7605
   20CHL1   H1A 1451   1.915   6.743   5.998 -0.9979 -0.1922 -0.9072
   20CHL1   H1B 1452   1.926   6.574   6.022 -1.8169  0.7696  0.8783
   20CHL1    C2 1453   1.952   6.687   6.202  0.1212 -0.5834  0.3201
   20CHL1   H2A 1454   1.845   6.679   6.232 -0.3345  1.1124 -0.6859
   20CHL1   H2B 1455   1.981   6.792   6.225  1.2710 -0.9450  0.5991
   20CHL1   C20 1456   2.204   6.673   5.301  0.5191 -0.5337 -0.2646
   20CHL1   H20 1457   2.228   6.778   5.328 -0.4184 -0.3918  0.0474
   20CHL1   C21 1458   2.058   6.670   5.266 -0.9141 -0.4902  0.3695
   20CHL1  H21A 1459   2.039   6.733   5.176  1.5755  1.8165  1.3246
   20CHL1  H21B 1460   2.004   6.724   5.347 -0.9200 -1.4991  1.0414
   20CHL1  H21C 1461   2.026   6.565   5.254 -0.3672 -0.8083  1.5865
   20CHL1   C22 1462   2.291   6.619   5.182  0.0907 -0.2350  0.3926
   20CHL1  H22A 1463   2.395   6.616   5.221 -0.1222 -0.3407  0.9628
   20CHL1  H22B 1464   2.259   6.514   5.166  0.6250 -0.5574  1.3486
   20CHL1   C23 1465   2.285   6.706   5.061 -0.2060  0.0277 -0.3331
   20CHL1  H23A 1466   2.181   6.721   5.024 -0.6452  0.3994  0.9789
   20CHL1  H23B 1467   2.310   6.811   5.089 -0.6606 -0.0827  0.5298
   20CHL1   C24 1468   2.373   6.656   4.947  0.1850 -0.1003  0.2865
   20CHL1  H24A 1469   2.482   6.652   4.971  0.3737  0.1892 -0.5120
   20CHL1  H24B 1470   2.333   6.556   4.920  1.1687 -0.7657  1.2032
   20CHL1   C25 1471   2.347   6.734   4.813 -0.0657 -0.1031  0.3971
   20CHL1   H25 1472   2.236   6.733   4.811 -0.1549 -1.9966  2.3039
   20CHL1   C26 1473   2.403   6.878   4.810  0.5909  0.0712 -0.4297
   20CHL1  H26A 1474   2.359   6.942   4.889  0.6229  0.6415 -0.8646
   20CHL1  H26B 1475   2.513   6.868   4.826  0.7916 -0.3145 -1.9174
   20CHL1  H26C 1476   2.382   6.922   4.710 -1.5515 -0.5234 -0.2994
   20CHL1   C27 1477   2.397   6.663   4.689 -0.3426 -0.0016  0.2325
   20CHL1  H27A 1478   2.502   6.629   4.697 -1.0347 -3.1186 -2.0825
   20CHL1  H27B 1479   2.335   6.571   4.682 -0.7637  0.3622 -4.7315
   20CHL1  H27C 1480   2.371   6.717   4.595 -1.6736 -0.1923  0.4604
   21CHL1    C3 1481   1.272   6.311   6.382  0.2943  0.8788  0.8930
   21CHL1    H3 1482   1.352   6.235   6.393  0.8911  1.2280 -0.7824
   21CHL1    O3 1483   1.201   6.309   6.503 -0.4191 -0.2134 -0.0256
   21CHL1   H3' 1484   1.126   6.363   6.474  0.0030 -1.8267 -5.1705
   21CHL1    C4 1485   1.323   6.448   6.346 -0.2499 -0.4872  0.0488
   21CHL1   H4A 1486   1.236   6.516   6.337 -0.2229 -0.2717  1.2225
   21CHL1   H4B 1487   1.374   6.490   6.436 -1.0366  0.0296  0.2666
   21CHL1    C5 1488   1.410   6.434   6.220  0.0597  0.1810  1.4434
   21CHL1    C6 1489   1.542   6.458   6.220  0.7797 -0.5671 -0.1284
   21CHL1    H6 1490   1.589   6.511   6.303 -2.2788  3.6707 -0.7773
   21CHL1    C7 1491   1.631   6.443   6.097  0.3067  0.0862 -0.8538
   21CHL1   H7A 1492   1.707   6.523   6.084  2.2321 -1.2100  1.5684
   21CHL1   H7B 1493   1.686   6.346   6.093  1.4671  0.6719  0.1953
   21CHL1    C8 1494   1.542   6.432   5.972  0.2220  0.0231 -0.4252
   21CHL1    H8 1495   1.512   6.536   5.948  3.2742  1.2644  0.7243
   21CHL1   C14 1496   1.627   6.380   5.855 -0.7338 -0.5035  1.1828
   21CHL1   H14 1497   1.646   6.271   5.864  1.1522 -0.2089  1.1737
   21CHL1   C15 1498   1.770   6.436   5.830  0.4893  0.0926 -0.2579
   21CHL1  H15A 1499   1.767   6.547   5.842 -2.3696 -0.0576  1.2913
   21CHL1  H15B 1500   1.841   6.390   5.902  0.2232 -1.8198 -1.1548
   21CHL1   C16 1501   1.796   6.408   5.685  0.0277 -0.2581 -0.5780
   21CHL1  H16A 1502   1.819   6.504   5.633 -3.0570 -0.8701 -3.4223
   21CHL1  H16B 1503   1.881   6.336   5.684  0.1178 -0.1557 -0.3979
   21CHL1   C17 1504   1.668   6.347   5.626 -0.2289  0.2784  0.8823
   21CHL1   H17 1505   1.677   6.238   5.647  0.1242  0.3198  0.9471
   21CHL1   C13 1506   1.549   6.387   5.724 -0.5106  0.0415 -0.3276
   21CHL1   C18 1507   1.480   6.526   5.692  0.2505 -0.2863 -0.0781
   21CHL1  H18A 1508   1.554   6.609   5.695 -1.1376  1.0747 -1.5439
   21CHL1  H18B 1509   1.429   6.527   5.593 -1.1870  1.6891  0.6027
   21CHL1  H18C 1510   1.392   6.546   5.757  0.4009 -1.7019  0.5873
   21CHL1   C12 1511   1.438   6.281   5.728  0.1921  0.0829 -0.0691
   21CHL1  H12A 1512   1.376   6.283   5.636 -1.4309 -3.1217  0.8145
   21CHL1  H12B 1513   1.487   6.183   5.740 -2.5815 -1.5726 -1.2838
   21CHL1   C11 1514   1.348   6.300   5.852 -0.0415  0.0598 -0.0875
   21CHL1  H11A 1515   1.290   6.392   5.829  0.8390  0.9407  1.0685
   21CHL1  H11B 1516   1.276   6.216   5.861  1.2583 -1.2240 -1.2321
   21CHL1    C9 1517   1.424   6.338   5.982  0.1948  0.2971  0.4202
   21CHL1    H9 1518   1.464   6.237   6.007 -0.9592 -0.8243 -2.0199
   21CHL1   C10 1519   1.335   6.370   6.096 -0.7438 -0.1166 -0.6529
   21CHL1   C19 1520   1.242   6.488   6.059  0.8696  0.2269 -0.7272
   21CHL1  H19A 1521   1.183   6.468   5.968  0.8850  0.3506 -0.7652
   21CHL1  H19B 1522   1.164   6.507   6.136  0.7080  0.7692 -1.0206
   21CHL1  H19C 1523   1.293   6.584   6.034 -1.1967  1.4235 -0.5865
   21CHL1    C1 1524   1.258   6.247   6.141 -0.1131 -0.1266 -0.2234
   21CHL1   H1A 1525   1.187   6.210   6.065 -1.3134 -0.7119  1.1217
   21CHL1   H1B 1526   1.330   6.162   6.133 -1.7241 -1.4464 -1.3676
   21CHL1    C2 1527   1.179   6.260   6.268  0.0528  0.3419 -0.6680
   21CHL1   H2A 1528   1.160   6.154   6.294 -3.4105  0.9788 -0.1577
   21CHL1   H2B 1529   1.081   6.312   6.269 -0.2188 -0.1508  0.7687
   21CHL1   C20 1530   1.657   6.353   5.473  0.3208 -0.5509 -0.5547
   21CHL1   H20 1531   1.551   6.329   5.450  0.0996 -1.3757  1.1434
   21CHL1   C21 1532   1.749   6.248   5.403  0.1473 -0.5840  0.3861
   21CHL1  H21A 1533   1.743   6.151   5.458 -1.4767 -0.0895  1.1415
   21CHL1  H21B 1534   1.856   6.274   5.420  0.5435 -2.4735  1.1502
   21CHL1  H21C 1535   1.733   6.238   5.294  1.3576 -1.4461  0.2591
   21CHL1   C22 1536   1.674   6.500   5.424 -0.2842 -0.3899  0.3502
   21CHL1  H22A 1537   1.613   6.568   5.487 -2.1999 -0.8074 -0.9593
   21CHL1  H22B 1538   1.779   6.535   5.435 -0.3314 -0.2364  0.3056
   21CHL1   C23 1539   1.626   6.509   5.278 -0.5262  0.0831  0.2218
   21CHL1  H23A 1540   1.686   6.445   5.211  0.0546 -1.0417  1.7665
   21CHL1  H23B 1541   1.518   6.484   5.267 -0.3773 -0.7404  0.5846
   21CHL1   C24 1542   1.635   6.654   5.238 -0.9754  0.0945  0.2756
   21CHL1  H24A 1543   1.572   6.698   5.319 -0.6269 -1.7169  1.6011
   21CHL1  H24B 1544   1.736   6.700   5.245 -0.9039 -0.1242  0.7035
   21CHL1   C25 1545   1.583   6.693   5.096 -0.1310  0.0769 -0.4672
   21CHL1   H25 1546   1.482   6.649   5.085 -0.2868  0.5937 -1.1811
   21CHL1   C26 1547   1.573   6.844   5.096  0.3302 -0.0604 -0.6853
   21CHL1  H26A 1548   1.531   6.881   5.001  1.0068  0.0205 -0.9596
   21CHL1  H26B 1549   1.514   6.879   5.184  0.4863 -2.7597  0.6217
   21CHL1  H26C 1550   1.677   6.884   5.101  1.3535 -2.4586 -0.9485
   21CHL1   C27 1551   1.676   6.640   4.987 -0.0419  0.3923  0.0312
   21CHL1  H27A 1552   1.630   6.654   4.887  1.9449 -2.9945 -1.5218
   21CHL1  H27B 1553   1.774   6.692   4.991  1.0670 -1.6304  0.5844
   21CHL1  H27C 1554   1.710   6.535   4.998  0.8888  0.8679  2.3256
   22CHL1    C3 1555   0.942   3.572   6.224 -0.4376 -0.5193 -0.3662
   22CHL1    H3 1556   0.873   3.642   6.171  0.0719  0.8627  0.7497
   22CHL1    O3 1557   0.952   3.622   6.354  0.2166 -0.1462  0.2823
   22CHL1   H3' 1558   1.000   3.551   6.399  2.8134  2.3036  1.7457
   22CHL1    C4 1559   0.880   3.434   6.225  0.0452 -0.5380 -0.0312
   22CHL1   H4A 1560   0.927   3.373   6.305  1.2847 -0.7926 -0.9251
   22CHL1   H4B 1561   0.773   3.441   6.253 -0.5916  1.4393 -2.6119
   22CHL1    C5 1562   0.888   3.366   6.088 -0.4070 -0.0099 -0.2334
   22CHL1    C6 1563   0.779   3.319   6.021 -0.0474  0.1984 -0.5176
   22CHL1    H6 1564   0.677   3.314   6.063 -0.7472  1.1667 -2.0268
   22CHL1    C7 1565   0.787   3.250   5.888  0.3931  0.8571  0.3737
   22CHL1   H7A 1566   0.739   3.150   5.897  0.8425  0.6522  0.4964
   22CHL1   H7B 1567   0.722   3.318   5.828 -1.5014 -1.8641 -0.9114
   22CHL1    C8 1568   0.926   3.226   5.833  0.5510  0.1706 -0.4753
   22CHL1    H8 1569   0.971   3.136   5.881  0.8887 -1.1651 -3.0911
   22CHL1   C14 1570   0.923   3.212   5.685  0.0545  0.0169 -0.0335
   22CHL1   H14 1571   0.903   3.313   5.642 -1.3185  0.2251  0.9980
   22CHL1   C15 1572   0.818   3.114   5.636 -0.6346 -0.2813 -0.8648
   22CHL1  H15A 1573   0.810   3.019   5.693 -0.1031 -0.1140 -0.5059
   22CHL1  H15B 1574   0.715   3.153   5.622 -0.8113  0.1737  1.4129
   22CHL1   C16 1575   0.862   3.074   5.502 -0.4905 -0.4034  0.3880
   22CHL1  H16A 1576   0.886   2.965   5.502  1.5656 -0.0628 -2.0436
   22CHL1  H16B 1577   0.796   3.090   5.414  0.4063 -1.7433 -0.5892
   22CHL1   C17 1578   0.999   3.142   5.476 -0.1435 -0.4270 -0.2114
   22CHL1   H17 1579   0.972   3.241   5.435  2.3933  0.9536  1.1788
   22CHL1   C13 1580   1.050   3.160   5.620 -0.5670  0.3746  0.3433
   22CHL1   C18 1581   1.097   3.026   5.671 -0.3307  0.3330 -0.2964
   22CHL1  H18A 1582   1.185   2.988   5.614  0.0149 -0.7885  0.9483
   22CHL1  H18B 1583   1.124   3.023   5.779  1.7996  1.7747 -0.7263
   22CHL1  H18C 1584   1.021   2.948   5.649 -0.9121  1.5337 -2.9387
   22CHL1   C12 1585   1.153   3.267   5.646  0.3351 -0.0934  1.0465
   22CHL1  H12A 1586   1.257   3.247   5.613  1.2029  3.0116  1.5386
   22CHL1  H12B 1587   1.120   3.349   5.579 -1.4999 -2.7940 -1.6277
   22CHL1   C11 1588   1.159   3.302   5.791 -0.1623 -0.1816 -0.4273
   22CHL1  H11A 1589   1.202   3.212   5.838  1.6215 -1.2262 -3.7244
   22CHL1  H11B 1590   1.229   3.388   5.802  0.3778 -0.6432 -0.1811
   22CHL1    C9 1591   1.022   3.338   5.861 -0.0542 -0.4686  0.4545
   22CHL1    H9 1592   0.983   3.424   5.803 -0.7378  0.3292  2.0321
   22CHL1   C10 1593   1.022   3.376   6.012 -0.0873 -0.3383  0.1260
   22CHL1   C19 1594   1.122   3.279   6.085 -0.2575 -0.2453  0.5467
   22CHL1  H19A 1595   1.225   3.275   6.045 -1.0420 -0.7744 -1.5833
   22CHL1  H19B 1596   1.118   3.312   6.191  0.2934  0.9296  0.2234
   22CHL1  H19C 1597   1.092   3.172   6.076  0.2649 -0.3617  0.1546
   22CHL1    C1 1598   1.074   3.518   6.013 -0.0561 -0.7280  0.0362
   22CHL1   H1A 1599   1.166   3.533   5.952 -0.8117 -0.1235 -0.9858
   22CHL1   H1B 1600   1.003   3.575   5.950  1.5082  0.6903 -0.5057
   22CHL1    C2 1601   1.078   3.585   6.150  0.0970  0.1949 -0.9537
   22CHL1   H2A 1602   1.090   3.695   6.139  0.6240  0.3921  1.2328
   22CHL1   H2B 1603   1.157   3.547   6.218 -0.9440  1.1949  0.8947
   22CHL1   C20 1604   1.084   3.064   5.372  0.1736  0.1778 -0.1280
   22CHL1   H20 1605   1.078   2.956   5.394 -0.8614  0.4556  1.1234
   22CHL1   C21 1606   1.230   3.116   5.370 -0.5959 -0.7847 -0.3183
   22CHL1  H21A 1607   1.285   3.065   5.453  2.7334  1.4795 -0.9574
   22CHL1  H21B 1608   1.229   3.227   5.364  1.2428 -0.8132 -1.8053
   22CHL1  H21C 1609   1.279   3.080   5.277 -1.2622  3.0894 -2.3727
   22CHL1   C22 1610   1.028   3.079   5.226  0.0727 -0.1189 -0.0772
   22CHL1  H22A 1611   0.918   3.098   5.229 -0.1674 -1.4232 -0.0122
   22CHL1  H22B 1612   1.064   3.175   5.182 -0.1642 -0.3248 -0.7302
   22CHL1   C23 1613   1.059   2.951   5.146  0.3008 -0.1133  0.0059
   22CHL1  H23A 1614   1.169   2.940   5.148  0.3762  0.6703  0.6621
   22CHL1  H23B 1615   1.014   2.865   5.200 -0.4390 -0.1862 -0.7153
   22CHL1   C24 1616   0.994   2.968   5.006  0.0659 -0.4344  0.1356
   22CHL1  H24A 1617   0.884   2.970   5.022 -0.1357 -1.8715 -0.9289
   22CHL1  H24B 1618   1.020   3.070   4.971 -2.4279  0.2505  0.1080
   22CHL1   C25 1619   1.026   2.864   4.898  0.0800  0.2785  0.0612
   22CHL1   H25 1620   1.136   2.857   4.884  0.2703  0.4760  1.3674
   22CHL1   C26 1621   0.985   2.720   4.938 -0.4201 -0.3215 -1.3660
   22CHL1  H26A 1622   1.043   2.702   5.031 -0.5068  0.0205 -1.2403
   22CHL1  H26B 1623   0.876   2.730   4.960 -0.0777 -0.0842  0.3711
   22CHL1  H26C 1624   0.993   2.636   4.866  0.5154 -0.8594 -0.6465
   22CHL1   C27 1625   0.966   2.897   4.763  0.1964  0.0726  0.2955
   22CHL1  H27A 1626   0.858   2.905   4.785  0.6283 -0.3600  2.9337
   22CHL1  H27B 1627   0.984   2.997   4.719 -3.2982  1.3630  1.4635
   22CHL1  H27C 1628   0.974   2.813   4.691 -0.8856  1.1317 -1.1261
   23CHL1    C3 1629   6.758   2.419   6.336  0.2450  0.4518 -0.0375
   23CHL1    H3 1630   6.670   2.486   6.322  0.2693  0.5794  0.3972
   23CHL1    O3 1631   6.767   2.395   6.480  0.0792  0.0070 -0.5433
   23CHL1   H3' 1632   6.713   2.316   6.490 -2.0481  1.0621 -2.6037
   23CHL1    C4 1633   6.730   2.293   6.249  0.8147 -0.6794 -0.0706
   23CHL1   H4A 1634   6.779   2.199   6.279 -0.0342 -1.1979 -0.2746
   23CHL1   H4B 1635   6.626   2.266   6.278  0.6733  0.1841  0.2745
   23CHL1    C5 1636   6.748   2.312   6.100  1.3632 -0.0573 -1.1282
   23CHL1    C6 1637   6.654   2.285   6.012 -0.0078 -0.5806  0.4792
   23CHL1    H6 1638   6.556   2.245   6.041  0.4127 -1.5309  0.6360
   23CHL1    C7 1639   6.686   2.300   5.867 -0.0130  0.0324 -0.3404
   23CHL1   H7A 1640   6.629   2.222   5.811  1.4536 -0.2874 -1.4686
   23CHL1   H7B 1641   6.647   2.393   5.821 -2.3425 -0.6290  0.1878
   23CHL1    C8 1642   6.828   2.296   5.823  0.2666  0.0980 -0.1352
   23CHL1    H8 1643   6.859   2.192   5.847  0.5491  0.3408  0.5963
   23CHL1   C14 1644   6.853   2.314   5.677  0.5634  0.8070  0.3894
   23CHL1   H14 1645   6.821   2.418   5.653 -0.1893  0.3713 -0.5731
   23CHL1   C15 1646   6.772   2.227   5.581  1.0929 -0.2030  0.1468
   23CHL1  H15A 1647   6.775   2.123   5.620 -2.1481 -0.9841 -1.3264
   23CHL1  H15B 1648   6.665   2.254   5.572  1.0549  0.2523  1.7643
   23CHL1   C16 1649   6.844   2.249   5.449  0.2170 -0.4982  0.4525
   23CHL1  H16A 1650   6.851   2.155   5.392  0.0112  0.2327 -0.8193
   23CHL1  H16B 1651   6.794   2.326   5.386  1.1291  0.0519  0.3809
   23CHL1   C17 1652   6.985   2.314   5.476  0.1977  0.1234 -0.5270
   23CHL1   H17 1653   6.979   2.424   5.463  2.1887  0.4921  1.1763
   23CHL1   C13 1654   7.001   2.304   5.636 -0.3598  0.2325 -0.6401
   23CHL1   C18 1655   7.072   2.164   5.667  0.1930 -0.5278  0.3007
   23CHL1  H18A 1656   7.077   2.155   5.777  0.3608  1.2540  0.4608
   23CHL1  H18B 1657   7.014   2.078   5.626 -2.8010  1.3269  0.3647
   23CHL1  H18C 1658   7.175   2.151   5.628 -0.6265  0.2335 -2.3887
   23CHL1   C12 1659   7.066   2.423   5.705 -0.0592 -0.3419 -0.0051
   23CHL1  H12A 1660   7.173   2.424   5.678  0.1038  0.0740  0.6349
   23CHL1  H12B 1661   7.025   2.519   5.667  1.7889  0.7223  0.6209
   23CHL1   C11 1662   7.056   2.412   5.857  0.6662  0.5170 -0.5787
   23CHL1  H11A 1663   7.109   2.320   5.891 -1.6962 -1.2931 -1.5157
   23CHL1  H11B 1664   7.100   2.504   5.901  1.5497 -0.5147  0.7942
   23CHL1    C9 1665   6.910   2.396   5.912  0.3811  0.1957 -0.6957
   23CHL1    H9 1666   6.867   2.497   5.898  0.0690  0.1081 -0.3676
   23CHL1   C10 1667   6.892   2.375   6.061  0.9052 -0.3157 -0.0079
   23CHL1   C19 1668   6.997   2.284   6.122 -0.0027  0.1196 -0.5489
   23CHL1  H19A 1669   7.099   2.327   6.111  0.0294  0.2925  0.3355
   23CHL1  H19B 1670   6.983   2.259   6.230 -1.3055  0.2837 -0.6639
   23CHL1  H19C 1671   6.989   2.190   6.065 -2.5552  0.0866 -0.2336
   23CHL1    C1 1672   6.900   2.518   6.139  0.2535 -0.1130 -0.1183
   23CHL1   H1A 1673   7.000   2.564   6.128  1.0253 -1.3043  1.4895
   23CHL1   H1B 1674   6.821   2.579   6.092 -2.1926 -1.3872  2.0316
   23CHL1    C2 1675   6.874   2.512   6.291  0.1775  0.5517 -0.6425
   23CHL1   H2A 1676   6.856   2.614   6.331 -0.0518  0.4808 -0.5682
   23CHL1   H2B 1677   6.963   2.465   6.338 -0.8285 -1.6880 -0.8691
   23CHL1   C20 1678   7.088   2.263   5.378 -0.5526 -0.5958  0.0739
   23CHL1   H20 1679   7.103   2.154   5.395 -1.4497 -0.7286  0.0495
   23CHL1   C21 1680   7.224   2.338   5.404 -0.2786  0.5321 -0.6814
   23CHL1  H21A 1681   7.256   2.306   5.506  0.0978  0.6843 -0.7507
   23CHL1  H21B 1682   7.214   2.447   5.389 -2.8522  0.3106 -1.0936
   23CHL1  H21C 1683   7.312   2.301   5.348 -0.3827  0.5972 -0.8860
   23CHL1   C22 1684   7.049   2.271   5.223  1.1891  0.0967 -0.6805
   23CHL1  H22A 1685   6.954   2.217   5.201  0.8515  0.8761 -1.1499
   23CHL1  H22B 1686   7.028   2.379   5.216 -0.4549 -0.1126  0.2932
   23CHL1   C23 1687   7.157   2.218   5.136 -0.4175 -0.6992 -0.0390
   23CHL1  H23A 1688   7.238   2.294   5.143  0.2096 -1.0984 -2.3123
   23CHL1  H23B 1689   7.184   2.119   5.179  1.5426  0.3238  1.2344
   23CHL1   C24 1690   7.103   2.200   4.994  0.8764 -0.3662 -0.1622
   23CHL1  H24A 1691   7.021   2.128   5.008 -1.0875  1.6938 -0.4581
   23CHL1  H24B 1692   7.060   2.298   4.963  1.1471 -0.8122 -2.0843
   23CHL1   C25 1693   7.208   2.161   4.888 -0.4016 -0.2663 -0.1449
   23CHL1   H25 1694   7.154   2.118   4.801 -1.2727  0.5442 -0.0278
   23CHL1   C26 1695   7.299   2.286   4.858 -0.3223 -0.1646 -0.1994
   23CHL1  H26A 1696   7.242   2.380   4.839  1.0629  0.5251 -1.1337
   23CHL1  H26B 1697   7.368   2.308   4.942 -0.0926  1.0012 -0.6712
   23CHL1  H26C 1698   7.364   2.269   4.769 -0.3017  0.0665 -0.2308
   23CHL1   C27 1699   7.314   2.051   4.931  0.2743  0.2242  0.2983
   23CHL1  H27A 1700   7.381   2.065   5.019 -0.1416  0.1397  0.6317
   23CHL1  H27B 1701   7.252   1.961   4.947 -0.0662  0.2571 -0.7478
   23CHL1  H27C 1702   7.373   2.023   4.841 -0.4016 -1.2616  0.2890
   24CHL1    C3 1703   2.900   4.016   6.063 -0.1933 -0.4249  0.2660
   24CHL1    H3 1704   2.962   3.928   6.037 -2.0276 -1.1145 -2.2874
   24CHL1    O3 1705   2.945   4.061   6.184 -0.3911 -0.4297  0.0306
   24CHL1   H3' 1706   2.897   4.144   6.197 -1.4005 -1.0658  0.5691
   24CHL1    C4 1707   2.922   4.124   5.945  0.3885 -0.2209  0.3547
   24CHL1   H4A 1708   2.897   4.224   5.987  0.6882  0.9761 -2.1223
   24CHL1   H4B 1709   3.033   4.122   5.937  0.4791 -1.6235  1.5469
   24CHL1    C5 1710   2.851   4.090   5.820  0.3340 -1.3117  0.6138
   24CHL1    C6 1711   2.927   4.099   5.713 -0.1915 -0.4225  0.8921
   24CHL1    H6 1712   3.029   4.138   5.728 -0.7815  1.3641  0.4340
   24CHL1    C7 1713   2.882   4.087   5.573 -0.0447  1.0006  0.0127
   24CHL1   H7A 1714   2.922   4.168   5.508 -2.3882  0.6468 -2.0215
   24CHL1   H7B 1715   2.908   3.985   5.540  1.6648  1.5082 -0.2770
   24CHL1    C8 1716   2.728   4.087   5.563  0.0279 -0.5129 -0.0119
   24CHL1    H8 1717   2.691   4.191   5.573  0.6077 -0.3605  0.6138
   24CHL1   C14 1718   2.679   4.032   5.433 -0.4163 -0.9109 -0.4475
   24CHL1   H14 1719   2.715   3.926   5.435  0.3283 -0.6517  0.2458
   24CHL1   C15 1720   2.734   4.089   5.300 -0.1704 -0.0608 -0.0354
   24CHL1  H15A 1721   2.759   4.197   5.291  1.9718 -0.5384 -0.1151
   24CHL1  H15B 1722   2.828   4.039   5.270  0.7892  2.5444 -1.6886
   24CHL1   C16 1723   2.629   4.049   5.192 -0.3688  0.1455 -0.0840
   24CHL1  H16A 1724   2.590   4.131   5.129  0.7948  0.1158 -0.8807
   24CHL1  H16B 1725   2.673   3.979   5.118 -0.1775  1.5239 -1.3066
   24CHL1   C17 1726   2.512   3.977   5.271  0.3501 -1.2876 -0.7583
   24CHL1   H17 1727   2.535   3.869   5.289  2.7639 -0.6425  0.3314
   24CHL1   C13 1728   2.525   4.027   5.414 -0.1130  0.5526  0.2872
   24CHL1   C18 1729   2.459   4.168   5.413  0.1523  0.1250  0.6275
   24CHL1  H18A 1730   2.464   4.204   5.518 -2.6651  1.0747  0.5130
   24CHL1  H18B 1731   2.524   4.235   5.352  1.2297  0.0576  1.6622
   24CHL1  H18C 1732   2.354   4.177   5.378  0.5912  2.6711 -0.2288
   24CHL1   C12 1733   2.464   3.946   5.526 -0.6588 -0.2086  0.2756
   24CHL1  H12A 1734   2.353   3.945   5.523 -0.6590  0.4922 -0.1891
   24CHL1  H12B 1735   2.503   3.844   5.511 -0.4849 -0.3184  1.4163
   24CHL1   C11 1736   2.513   3.989   5.664 -1.0442  0.2399  0.7420
   24CHL1  H11A 1737   2.463   4.088   5.675 -0.5514  0.9597 -2.5634
   24CHL1  H11B 1738   2.472   3.922   5.743 -2.3297 -0.4306 -0.4533
   24CHL1    C9 1739   2.660   4.006   5.682 -0.0456  1.2769  0.2762
   24CHL1    H9 1740   2.697   3.902   5.669 -0.5790  1.0908  0.2227
   24CHL1   C10 1741   2.704   4.049   5.825  0.2105  0.0776  0.4583
   24CHL1   C19 1742   2.620   4.166   5.874  0.4150  0.1124 -0.1443
   24CHL1  H19A 1743   2.613   4.254   5.806 -1.0130 -0.6364 -1.0060
   24CHL1  H19B 1744   2.515   4.129   5.884  0.4471 -0.2781 -1.1367
   24CHL1  H19C 1745   2.654   4.194   5.976 -1.9509 -1.9666  1.3383
   24CHL1    C1 1746   2.692   3.934   5.935  0.3584 -0.1985  0.4071
   24CHL1   H1A 1747   2.584   3.909   5.942 -0.1788  2.0587  0.8905
   24CHL1   H1B 1748   2.730   3.838   5.892 -0.1319  0.5084 -1.7234
   24CHL1    C2 1749   2.751   3.972   6.071  0.2597 -0.0934  0.2265
   24CHL1   H2A 1750   2.739   3.882   6.134  2.1447  0.4028  1.3742
   24CHL1   H2B 1751   2.711   4.064   6.119 -1.7133 -1.0494  0.4966
   24CHL1   C20 1752   2.386   3.994   5.183 -0.1762  0.2247 -0.5096
   24CHL1   H20 1753   2.370   4.103   5.168 -2.6873  0.1115  0.8933
   24CHL1   C21 1754   2.270   3.930   5.255  0.7787  0.2412 -0.3079
   24CHL1  H21A 1755   2.181   3.954   5.193  1.2430 -2.5223 -2.2135
   24CHL1  H21B 1756   2.258   3.964   5.360  0.4309 -0.4299 -0.1244
   24CHL1  H21C 1757   2.271   3.820   5.240 -0.2500  0.0110  1.0513
   24CHL1   C22 1758   2.406   3.934   5.043  0.2115 -0.3380 -0.4628
   24CHL1  H22A 1759   2.481   3.991   4.984 -0.5492  0.6095 -0.5525
   24CHL1  H22B 1760   2.448   3.834   5.065  0.5031 -0.0212  0.4390
   24CHL1   C23 1761   2.272   3.939   4.968  0.3585 -0.6120 -0.5431
   24CHL1  H23A 1762   2.204   3.867   5.019  0.6744  1.2348  2.7667
   24CHL1  H23B 1763   2.228   4.039   4.989  1.8771 -0.0520  0.1768
   24CHL1   C24 1764   2.287   3.922   4.818 -0.1173  0.3429 -0.0235
   24CHL1  H24A 1765   2.368   3.989   4.782  2.4255 -1.5771  1.7558
   24CHL1  H24B 1766   2.326   3.819   4.803  0.4017  0.4791  0.3521
   24CHL1   C25 1767   2.167   3.953   4.727  0.1255  0.5884 -0.0018
   24CHL1   H25 1768   2.086   3.888   4.766  1.1874  0.1426  1.5216
   24CHL1   C26 1769   2.128   4.095   4.740  0.7533 -0.5588  0.1354
   24CHL1  H26A 1770   2.053   4.118   4.661  3.2927 -0.7485 -2.4971
   24CHL1  H26B 1771   2.081   4.124   4.837 -0.2181  1.8743 -0.9867
   24CHL1  H26C 1772   2.212   4.167   4.733 -1.1227  2.1600  2.9618
   24CHL1   C27 1773   2.196   3.915   4.582  0.7047 -0.0978  0.5075
   24CHL1  H27A 1774   2.285   3.967   4.539 -0.7082  2.1205  0.1121
   24CHL1  H27B 1775   2.211   3.806   4.564  2.9104  0.4425 -1.4362
   24CHL1  H27C 1776   2.115   3.948   4.514  2.3436 -0.4112 -1.7053
   25CHL1    C3 1777   0.017   0.246   5.745 -0.0395  0.2407 -0.0307
   25CHL1    H3 1778  -0.066   0.172   5.750  0.0364  0.1375 -0.2689
   25CHL1    O3 1779   0.051   0.266   5.882  0.9219 -0.1680 -0.5468
   25CHL1   H3' 1780  -0.029   0.249   5.933  2.2764 -0.8395  1.4447
   25CHL1    C4 1781   0.141   0.205   5.654  0.1624  1.0244 -0.1905
   25CHL1   H4A 1782   0.233   0.266   5.664  0.4322  0.6096 -0.1515
   25CHL1   H4B 1783   0.166   0.109   5.704 -0.8280  0.8822  0.0644
   25CHL1    C5 1784   0.112   0.187   5.509 -1.0571 -0.0960  0.5246
   25CHL1    C6 1785   0.131   0.071   5.435 -0.3277 -0.8754 -0.0550
   25CHL1    H6 1786   0.172  -0.015   5.489 -0.3860 -1.3973 -0.8217
   25CHL1    C7 1787   0.103   0.058   5.290  0.7816 -0.4019 -0.0324
   25CHL1   H7A 1788   0.185   0.006   5.238 -0.3922 -3.2625  0.8130
   25CHL1   H7B 1789   0.014  -0.008   5.279  0.9823 -0.3967 -1.8617
   25CHL1    C8 1790   0.069   0.195   5.220 -0.3496  0.4185  0.0145
   25CHL1    H8 1791   0.157   0.256   5.191 -1.1152  0.8418 -1.5053
   25CHL1   C14 1792  -0.002   0.160   5.083 -0.1002  0.1347 -0.5006
   25CHL1   H14 1793  -0.090   0.105   5.123 -0.4861  2.1902  1.6916
   25CHL1   C15 1794   0.066   0.072   4.979 -0.3954 -1.1075 -0.7816
   25CHL1  H15A 1795   0.164   0.122   4.966 -1.7968  1.9569 -0.4637
   25CHL1  H15B 1796   0.068  -0.034   5.011  2.0757 -0.8011  0.2818
   25CHL1   C16 1797  -0.022   0.093   4.847 -0.4453  0.2223  0.3889
   25CHL1  H16A 1798   0.046   0.114   4.762 -2.0203  1.0087 -0.7103
   25CHL1  H16B 1799  -0.071  -0.004   4.822 -2.2637  1.1264  0.3313
   25CHL1   C17 1800  -0.111   0.212   4.878  0.1481 -0.4233  0.2315
   25CHL1   H17 1801  -0.214   0.174   4.897 -0.5320  1.5181  0.6382
   25CHL1   C13 1802  -0.053   0.274   5.007  0.2041 -0.3143 -0.2852
   25CHL1   C18 1803   0.064   0.365   4.959  0.3371  0.2614 -0.2959
   25CHL1  H18A 1804   0.116   0.407   5.047  0.0303 -2.8046  1.4878
   25CHL1  H18B 1805   0.137   0.312   4.893 -0.3211 -1.9477  0.6446
   25CHL1  H18C 1806   0.018   0.453   4.908 -0.8874  1.0002  1.9690
   25CHL1   C12 1807  -0.150   0.353   5.099 -0.3007 -0.3811  0.3185
   25CHL1  H12A 1808  -0.205   0.431   5.042 -3.1892 -1.7873  0.9761
   25CHL1  H12B 1809  -0.233   0.285   5.128  1.0122 -2.8810 -1.4076
   25CHL1   C11 1810  -0.084   0.396   5.235 -0.3965  0.1336  0.2800
   25CHL1  H11A 1811  -0.012   0.480   5.228 -2.8926  2.3638 -0.3041
   25CHL1  H11B 1812  -0.170   0.428   5.298 -2.3847 -2.4837 -0.8831
   25CHL1    C9 1813  -0.020   0.275   5.311  0.3910  0.5074  0.4498
   25CHL1    H9 1814  -0.107   0.209   5.331  1.6975 -1.6021 -0.4196
   25CHL1   C10 1815   0.041   0.304   5.445 -0.3735  0.3994 -0.2214
   25CHL1   C19 1816   0.149   0.418   5.426 -0.0620 -0.2105  0.1764
   25CHL1  H19A 1817   0.213   0.412   5.335 -0.6142 -0.5466 -0.1942
   25CHL1  H19B 1818   0.097   0.516   5.423  2.6448  1.3541  0.7039
   25CHL1  H19C 1819   0.206   0.438   5.519  0.8095  0.2942 -0.4525
   25CHL1    C1 1820  -0.075   0.354   5.540 -0.3064  0.1268 -0.3127
   25CHL1   H1A 1821  -0.115   0.448   5.496 -1.5186  1.4668  3.2743
   25CHL1   H1B 1822  -0.154   0.278   5.524 -1.2058  1.3886 -2.2113
   25CHL1    C2 1823  -0.046   0.371   5.685 -0.7523  0.4484 -0.0150
   25CHL1   H2A 1824  -0.139   0.389   5.744  1.1626  1.2383  2.9601
   25CHL1   H2B 1825   0.020   0.458   5.704  0.1515 -0.3304  0.5137
   25CHL1   C20 1826  -0.141   0.310   4.760 -0.2067  0.8965 -0.4456
   25CHL1   H20 1827  -0.151   0.412   4.801  2.0545  1.0728 -0.1928
   25CHL1   C21 1828  -0.278   0.270   4.704 -0.2339  0.7532  0.1144
   25CHL1  H21A 1829  -0.357   0.282   4.782 -0.3021  0.3033  0.1166
   25CHL1  H21B 1830  -0.280   0.163   4.675  0.2200  0.8443 -0.2642
   25CHL1  H21C 1831  -0.304   0.332   4.616 -0.2254  0.8636  0.1886
   25CHL1   C22 1832  -0.036   0.315   4.649 -0.6403  0.0174 -0.3929
   25CHL1  H22A 1833   0.063   0.331   4.697 -1.1654 -0.4506  0.8868
   25CHL1  H22B 1834  -0.038   0.222   4.589  0.2859 -0.0886 -0.2720
   25CHL1   C23 1835  -0.048   0.443   4.571 -0.0748 -0.1183  0.2065
   25CHL1  H23A 1836  -0.132   0.439   4.498 -0.5515  0.2752  0.7209
   25CHL1  H23B 1837  -0.069   0.537   4.628 -2.1400 -0.0331 -0.5812
   25CHL1   C24 1838   0.071   0.478   4.484  0.2492  0.0248 -0.5302
   25CHL1  H24A 1839   0.166   0.458   4.537 -0.8144 -4.7649  0.0837
   25CHL1  H24B 1840   0.073   0.395   4.410  1.0804  0.7650 -1.3635
   25CHL1   C25 1841   0.068   0.614   4.418 -0.5966  0.4963  0.7781
   25CHL1   H25 1842   0.048   0.690   4.497  0.5920  0.8917  0.7133
   25CHL1   C26 1843   0.204   0.656   4.364  0.6005 -0.4948 -0.1933
   25CHL1  H26A 1844   0.191   0.747   4.302  0.5161 -0.1056  0.3953
   25CHL1  H26B 1845   0.281   0.667   4.444 -1.7099 -1.8888  2.4099
   25CHL1  H26C 1846   0.242   0.577   4.295 -0.0402 -0.0661 -1.0576
   25CHL1   C27 1847  -0.048   0.644   4.316  0.5461 -0.1332 -0.4257
   25CHL1  H27A 1848  -0.146   0.613   4.359  0.8594 -1.9299 -0.9212
   25CHL1  H27B 1849  -0.054   0.752   4.294  1.7502 -0.1730 -1.0210
   25CHL1  H27C 1850  -0.027   0.593   4.219 -1.0021 -2.1107  0.1846
   26CHL1    C3 1851   3.685   4.822   5.934 -0.2322 -0.2554  0.1258
   26CHL1    H3 1852   3.660   4.740   5.862 -0.6400 -1.5806  1.7045
   26CHL1    O3 1853   3.686   4.779   6.069  0.1940 -0.3002 -0.2098
   26CHL1   H3' 1854   3.765   4.815   6.109  0.5346 -0.3323 -0.8379
   26CHL1    C4 1855   3.823   4.885   5.904 -0.5200 -0.0417 -0.0587
   26CHL1   H4A 1856   3.843   4.973   5.968 -0.8058 -0.3428  0.4542
   26CHL1   H4B 1857   3.898   4.804   5.918 -0.1673  0.2814 -0.0694
   26CHL1    C5 1858   3.821   4.934   5.763  0.3855  0.2920 -0.8994
   26CHL1    C6 1859   3.906   4.890   5.666  0.2964 -0.6373  0.5446
   26CHL1    H6 1860   3.991   4.823   5.688 -1.0527 -2.5883  0.0975
   26CHL1    C7 1861   3.898   4.932   5.522 -0.0757  0.0616 -0.3208
   26CHL1   H7A 1862   4.003   4.943   5.486 -0.3132 -1.3431 -1.4972
   26CHL1   H7B 1863   3.855   4.843   5.473  0.3223  0.1799 -0.8880
   26CHL1    C8 1864   3.818   5.059   5.496  0.3004 -0.7246  0.1583
   26CHL1    H8 1865   3.878   5.145   5.533 -3.2035  2.6011 -1.0860
   26CHL1   C14 1866   3.792   5.079   5.344 -0.1679 -0.4000 -0.2154
   26CHL1   H14 1867   3.721   5.002   5.307  0.6258 -0.9399 -0.6459
   26CHL1   C15 1868   3.916   5.055   5.244 -0.0272  0.1966  0.4605
   26CHL1  H15A 1869   4.001   5.114   5.283 -0.6145  1.9827 -0.8135
   26CHL1  H15B 1870   3.942   4.949   5.228  0.5774  0.3707  0.2677
   26CHL1   C16 1871   3.867   5.124   5.123 -1.1673  0.5204  0.7063
   26CHL1  H16A 1872   3.927   5.209   5.083 -3.0499  1.2596 -0.7411
   26CHL1  H16B 1873   3.842   5.055   5.041  0.5185 -0.3068  0.8655
   26CHL1   C17 1874   3.731   5.198   5.157 -0.2162  0.4888 -0.3993
   26CHL1   H17 1875   3.652   5.123   5.134 -0.8453  0.6618  1.0646
   26CHL1   C13 1876   3.726   5.217   5.304 -0.0713 -0.1504 -0.0093
   26CHL1   C18 1877   3.816   5.342   5.347  0.1307  0.7510 -0.9100
   26CHL1  H18A 1878   3.848   5.348   5.453  0.2160  0.9404 -0.9451
   26CHL1  H18B 1879   3.909   5.353   5.288  1.4224 -0.8684  0.7229
   26CHL1  H18C 1880   3.756   5.433   5.324 -0.3836  0.7275  0.2603
   26CHL1   C12 1881   3.585   5.210   5.370 -0.2380 -0.5257  0.2627
   26CHL1  H12A 1882   3.530   5.306   5.360  0.6253 -0.0421  0.0670
   26CHL1  H12B 1883   3.526   5.133   5.315  0.3091 -0.1005 -0.9521
   26CHL1   C11 1884   3.598   5.184   5.527 -0.9202  0.4693  0.4934
   26CHL1  H11A 1885   3.656   5.268   5.571 -1.1934  0.9745 -0.0931
   26CHL1  H11B 1886   3.494   5.197   5.562 -0.9923  0.0759  0.4205
   26CHL1    C9 1887   3.683   5.059   5.569 -0.4950  0.0587  0.0778
   26CHL1    H9 1888   3.636   4.963   5.539  0.1408 -0.7911  1.6501
   26CHL1   C10 1889   3.707   5.031   5.716 -0.1097 -0.2121 -0.0270
   26CHL1   C19 1890   3.740   5.164   5.790 -0.6868  0.2632 -0.7162
   26CHL1  H19A 1891   3.669   5.248   5.775 -0.2140  0.5414 -1.4890
   26CHL1  H19B 1892   3.742   5.147   5.900  1.0476 -1.7442 -0.9799
   26CHL1  H19C 1893   3.840   5.202   5.760  1.7084 -4.0138  0.8475
   26CHL1    C1 1894   3.575   4.976   5.771  0.6598  0.1065 -0.3471
   26CHL1   H1A 1895   3.497   5.053   5.754  0.4777 -0.1415 -0.6518
   26CHL1   H1B 1896   3.544   4.893   5.704  0.4378 -0.6170  0.6134
   26CHL1    C2 1897   3.585   4.933   5.927  0.3570 -0.5000 -0.0019
   26CHL1   H2A 1898   3.492   4.891   5.970  0.3965 -0.4309  0.1512
   26CHL1   H2B 1899   3.608   5.021   5.990 -0.0051 -0.1116 -0.3993
   26CHL1   C20 1900   3.708   5.315   5.068  0.5439 -0.3633 -0.0700
   26CHL1   H20 1901   3.789   5.391   5.068  2.4973 -2.2946  1.2750
   26CHL1   C21 1902   3.568   5.380   5.095 -0.2300  0.9952  0.3570
   26CHL1  H21A 1903   3.543   5.462   5.025  0.4693  0.3336 -0.6842
   26CHL1  H21B 1904   3.566   5.444   5.186 -0.3931  1.3304  0.1197
   26CHL1  H21C 1905   3.487   5.305   5.102  1.1903 -0.7657 -1.0748
   26CHL1   C22 1906   3.703   5.268   4.915 -0.2459  0.5266 -0.4208
   26CHL1  H22A 1907   3.780   5.190   4.899 -0.8392 -0.0035 -0.7329
   26CHL1  H22B 1908   3.605   5.228   4.882  1.1329 -1.7885 -2.0226
   26CHL1   C23 1909   3.748   5.376   4.823 -0.2315  0.1900  0.4151
   26CHL1  H23A 1910   3.676   5.461   4.832 -1.1840 -0.5730  0.1933
   26CHL1  H23B 1911   3.845   5.422   4.852 -1.0503  1.8319  0.7134
   26CHL1   C24 1912   3.734   5.342   4.674  0.4361  0.0441 -0.2110
   26CHL1  H24A 1913   3.806   5.265   4.639 -1.7735 -0.7363 -3.4999
   26CHL1  H24B 1914   3.642   5.285   4.648  0.5411 -1.7518  2.8167
   26CHL1   C25 1915   3.764   5.467   4.577  0.5202  0.0287 -0.5283
   26CHL1   H25 1916   3.873   5.483   4.571  0.8249 -0.1696  2.7156
   26CHL1   C26 1917   3.721   5.429   4.438 -0.2578 -0.1897 -0.5522
   26CHL1  H26A 1918   3.613   5.406   4.432 -0.2669 -0.2127 -0.3361
   26CHL1  H26B 1919   3.744   5.517   4.374 -2.2552  2.9127  2.6172
   26CHL1  H26C 1920   3.776   5.340   4.402  0.3504  1.0590 -2.9086
   26CHL1   C27 1921   3.699   5.604   4.610 -0.5661 -0.0577 -0.5486
   26CHL1  H27A 1922   3.731   5.676   4.532 -1.0072  0.6508 -0.0806
   26CHL1  H27B 1923   3.589   5.591   4.600 -0.2641 -2.3478 -1.7880
   26CHL1  H27C 1924   3.717   5.645   4.711 -2.2748  1.3154 -0.7496
   27CHL1    C3 1925   3.444   3.267   6.081  0.1088  0.1657  0.3154
   27CHL1    H3 1926   3.485   3.367   6.056 -0.6513  0.6792  1.0590
   27CHL1    O3 1927   3.414   3.267   6.220  0.9363  0.1932 -0.5909
   27CHL1   H3' 1928   3.449   3.185   6.257 -0.7884 -0.2426  0.1940
   27CHL1    C4 1929   3.314   3.248   5.995 -0.0728 -0.4250  0.0856
   27CHL1   H4A 1930   3.266   3.164   6.049  2.2779 -1.4851  0.6677
   27CHL1   H4B 1931   3.248   3.337   6.006  1.2761  0.7714 -1.0300
   27CHL1    C5 1932   3.323   3.211   5.848  0.6801  0.3905 -0.2877
   27CHL1    C6 1933   3.255   3.275   5.753  0.2331  0.2722 -0.0633
   27CHL1    H6 1934   3.175   3.346   5.778 -1.6809 -1.5407 -0.7082
   27CHL1    C7 1935   3.261   3.242   5.608 -0.0634  0.9412 -0.0105
   27CHL1   H7A 1936   3.156   3.235   5.575 -0.0496  3.4276 -0.7658
   27CHL1   H7B 1937   3.307   3.320   5.543  2.2197  0.2571  0.6947
   27CHL1    C8 1938   3.332   3.107   5.580  0.2537  0.3653 -0.6824
   27CHL1    H8 1939   3.261   3.027   5.611 -2.3759  1.4839 -3.3672
   27CHL1   C14 1940   3.358   3.093   5.430 -0.5884  0.1133 -0.5266
   27CHL1   H14 1941   3.440   3.167   5.425  1.4819 -2.0789 -1.1842
   27CHL1   C15 1942   3.254   3.132   5.327  0.1927 -0.6806 -0.1433
   27CHL1  H15A 1943   3.152   3.095   5.348  0.0049  0.0051  0.1554
   27CHL1  H15B 1944   3.251   3.240   5.302 -0.9673 -0.5011  0.6881
   27CHL1   C16 1945   3.290   3.061   5.203  0.3209  0.2803 -0.1542
   27CHL1  H16A 1946   3.217   2.979   5.185  1.4936 -1.0229  0.8001
   27CHL1  H16B 1947   3.304   3.124   5.112 -2.0476 -1.2904 -1.7294
   27CHL1   C17 1948   3.425   2.981   5.231 -0.9587 -0.0499  0.1288
   27CHL1   H17 1949   3.498   3.059   5.202 -0.5566  0.3271  1.9982
   27CHL1   C13 1950   3.427   2.960   5.384 -0.0383  0.6413  0.3003
   27CHL1   C18 1951   3.334   2.840   5.415 -0.5343 -0.1351  0.1754
   27CHL1  H18A 1952   3.365   2.749   5.359  0.2957  0.1912  0.0968
   27CHL1  H18B 1953   3.336   2.820   5.524 -0.6323  3.5227  0.9776
   27CHL1  H18C 1954   3.231   2.861   5.377 -0.1312  0.8867 -0.3986
   27CHL1   C12 1955   3.560   2.955   5.459 -0.2632 -0.1052 -0.4609
   27CHL1  H12A 1956   3.607   2.857   5.434 -0.3435 -0.0452 -0.8472
   27CHL1  H12B 1957   3.625   3.042   5.435 -0.0902  0.3322  1.3995
   27CHL1   C11 1958   3.535   2.966   5.612 -0.6335  0.3645 -0.5143
   27CHL1  H11A 1959   3.484   2.873   5.645 -0.8075  0.4084 -0.6622
   27CHL1  H11B 1960   3.637   2.954   5.655 -0.9196 -1.4435 -0.2761
   27CHL1    C9 1961   3.455   3.089   5.660  0.4647 -0.2548 -1.0081
   27CHL1    H9 1962   3.505   3.185   5.640 -0.0199  0.1728 -0.2317
   27CHL1   C10 1963   3.427   3.105   5.811 -0.8477  0.2041 -0.0504
   27CHL1   C19 1964   3.370   2.965   5.866  0.6718 -0.0783  1.0262
   27CHL1  H19A 1965   3.300   2.914   5.795  0.8534  0.6934  0.2746
   27CHL1  H19B 1966   3.460   2.900   5.870  1.1933  0.5719  0.2436
   27CHL1  H19C 1967   3.331   2.977   5.969  0.0543  0.2076  0.7665
   27CHL1    C1 1968   3.551   3.147   5.889 -0.5339  0.5816 -0.7370
   27CHL1   H1A 1969   3.633   3.076   5.865  0.3603  0.8889  1.1748
   27CHL1   H1B 1970   3.588   3.240   5.839 -1.3205  0.7344 -1.0436
   27CHL1    C2 1971   3.553   3.157   6.041  0.2903 -0.2352  0.1921
   27CHL1   H2A 1972   3.651   3.171   6.092  0.0686 -1.7925  1.1111
   27CHL1   H2B 1973   3.523   3.063   6.092  0.4430 -0.6955 -0.5640
   27CHL1   C20 1974   3.455   2.859   5.135  0.2360 -0.1659 -0.8336
   27CHL1   H20 1975   3.370   2.788   5.142  0.2169 -0.2899 -2.1375
   27CHL1   C21 1976   3.589   2.782   5.177  0.7856  0.4503  0.7231
   27CHL1  H21A 1977   3.666   2.861   5.181 -1.2902  2.5598  1.2481
   27CHL1  H21B 1978   3.599   2.703   5.100 -0.8046  0.6903  0.2267
   27CHL1  H21C 1979   3.582   2.727   5.273 -0.2559 -0.2370  0.2688
   27CHL1   C22 1980   3.449   2.883   4.986 -0.3122  0.5224  0.1333
   27CHL1  H22A 1981   3.483   2.790   4.934  0.2391 -0.0515  1.4864
   27CHL1  H22B 1982   3.345   2.913   4.960 -0.6662  0.6484  1.6331
   27CHL1   C23 1983   3.536   3.004   4.942  0.0844  0.6565  0.3144
   27CHL1  H23A 1984   3.482   3.096   4.973 -1.9996 -0.3292 -0.1944
   27CHL1  H23B 1985   3.640   2.997   4.980 -0.0638 -1.4284  0.4613
   27CHL1   C24 1986   3.553   3.000   4.788  0.3986  0.4060  0.7156
   27CHL1  H24A 1987   3.630   2.922   4.774  0.7489  1.0622 -1.3071
   27CHL1  H24B 1988   3.464   2.962   4.734  0.4958  0.3074  0.6240
   27CHL1   C25 1989   3.624   3.128   4.727 -0.7838 -1.1210  1.2726
   27CHL1   H25 1990   3.696   3.162   4.804 -0.7764 -1.6146  1.4925
   27CHL1   C26 1991   3.692   3.097   4.590 -0.5071 -0.3988  0.0846
   27CHL1  H26A 1992   3.738   2.997   4.583  0.1937 -0.1247  0.6244
   27CHL1  H26B 1993   3.618   3.105   4.508  1.0621  2.5642 -1.2270
   27CHL1  H26C 1994   3.767   3.177   4.571  0.3652 -0.7933  1.6325
   27CHL1   C27 1995   3.521   3.242   4.696 -0.0175  0.9033 -0.4593
   27CHL1  H27A 1996   3.445   3.270   4.772 -1.0954  0.9390 -1.5177
   27CHL1  H27B 1997   3.578   3.337   4.679 -0.8764  1.6568  0.7110
   27CHL1  H27C 1998   3.455   3.216   4.611  0.5435 -1.8597 -0.1462
   28CHL1    C3 1999   2.628   5.641   6.109  0.1401  0.2254  0.2829
   28CHL1    H3 2000   2.684   5.723   6.059 -0.5625  0.8425  0.4928
   28CHL1    O3 2001   2.627   5.662   6.252 -0.5621 -0.2396  0.5464
   28CHL1   H3' 2002   2.603   5.575   6.285  2.8260 -1.7339 -0.4506
   28CHL1    C4 2003   2.485   5.655   6.064 -0.4458  0.7388 -0.2035
   28CHL1   H4A 2004   2.423   5.577   6.114  0.5786 -2.4102 -3.4435
   28CHL1   H4B 2005   2.436   5.747   6.101 -1.7443 -0.4187  1.1316
   28CHL1    C5 2006   2.472   5.649   5.911 -0.1309 -0.2966  0.4400
   28CHL1    C6 2007   2.423   5.752   5.842 -0.5323 -0.6503  0.2725
   28CHL1    H6 2008   2.381   5.844   5.886 -1.4228 -1.2558  0.7013
   28CHL1    C7 2009   2.411   5.762   5.690  0.3215  0.6928  0.1598
   28CHL1   H7A 2010   2.310   5.794   5.656  0.9007  1.2727 -1.0836
   28CHL1   H7B 2011   2.483   5.832   5.641 -0.1151 -0.3486 -2.0604
   28CHL1    C8 2012   2.440   5.624   5.632  0.3901  0.2405 -0.0131
   28CHL1    H8 2013   2.353   5.555   5.633  0.8314 -0.3286 -0.5888
   28CHL1   C14 2014   2.466   5.648   5.481 -0.0987  0.2780  0.0844
   28CHL1   H14 2015   2.569   5.690   5.479 -0.3375  0.9725  1.1372
   28CHL1   C15 2016   2.377   5.741   5.407  0.7523 -0.6800  0.8732
   28CHL1  H15A 2017   2.268   5.725   5.426  0.5792  0.1274  0.5768
   28CHL1  H15B 2018   2.396   5.849   5.428  1.1856 -0.5738 -0.0425
   28CHL1   C16 2019   2.398   5.702   5.257 -0.0886  0.1157 -1.4865
   28CHL1  H16A 2020   2.307   5.666   5.205 -1.5187  1.8788 -0.3122
   28CHL1  H16B 2021   2.440   5.784   5.195  0.8193 -0.4953 -1.7067
   28CHL1   C17 2022   2.499   5.584   5.263 -0.0834 -0.9296 -0.3134
   28CHL1   H17 2023   2.604   5.620   5.262 -0.1435 -0.5731  1.9032
   28CHL1   C13 2024   2.484   5.525   5.399 -0.8682  0.2838 -0.3070
   28CHL1   C18 2025   2.354   5.439   5.394 -0.8850 -0.2483  0.1013
   28CHL1  H18A 2026   2.377   5.357   5.322  1.7011  0.2655  0.2441
   28CHL1  H18B 2027   2.333   5.385   5.490 -0.3550 -0.5969  0.0323
   28CHL1  H18C 2028   2.267   5.494   5.354 -1.4507  0.2799  1.9327
   28CHL1   C12 2029   2.588   5.433   5.465 -0.0776  0.2349 -0.6655
   28CHL1  H12A 2030   2.596   5.331   5.422  2.4804 -0.1609  0.5867
   28CHL1  H12B 2031   2.686   5.484   5.450 -0.6802  1.3951 -0.8242
   28CHL1   C11 2032   2.586   5.416   5.619  0.0862 -1.0596  0.4150
   28CHL1  H11A 2033   2.503   5.344   5.631  0.2774 -1.2961  0.3285
   28CHL1  H11B 2034   2.681   5.375   5.658  0.0412  0.3955  2.1938
   28CHL1    C9 2035   2.558   5.550   5.692  0.1334  0.5100  0.1947
   28CHL1    H9 2036   2.642   5.622   5.678  2.0742 -1.7364 -0.3457
   28CHL1   C10 2037   2.535   5.528   5.847  0.5771 -0.2784  0.0500
   28CHL1   C19 2038   2.435   5.407   5.871 -0.0053 -0.0830 -0.5271
   28CHL1  H19A 2039   2.416   5.395   5.980  0.2993  0.0134 -0.4636
   28CHL1  H19B 2040   2.335   5.423   5.825 -0.5581  1.3264  1.0786
   28CHL1  H19C 2041   2.483   5.311   5.844  0.8906  0.2928 -0.3019
   28CHL1    C1 2042   2.671   5.495   5.915 -0.6599  0.7815  0.1256
   28CHL1   H1A 2043   2.707   5.394   5.886  2.9114  2.7990 -3.3733
   28CHL1   H1B 2044   2.750   5.564   5.879 -0.1483  0.9311  1.4829
   28CHL1    C2 2045   2.691   5.508   6.067 -0.2791 -0.9334 -0.2230
   28CHL1   H2A 2046   2.795   5.494   6.103  0.0695 -1.9954 -1.5668
   28CHL1   H2B 2047   2.631   5.429   6.117  0.8608 -2.3699 -1.0504
   28CHL1   C20 2048   2.494   5.487   5.142  0.1185 -0.2983  0.3347
   28CHL1   H20 2049   2.393   5.444   5.134  0.0875  0.0045 -1.4058
   28CHL1   C21 2050   2.600   5.375   5.152 -0.0582  0.3454  0.1451
   28CHL1  H21A 2051   2.607   5.300   5.234  1.4541  0.1772 -0.1218
   28CHL1  H21B 2052   2.699   5.425   5.160 -0.1582  0.7008 -0.7171
   28CHL1  H21C 2053   2.604   5.312   5.061  2.1096  0.1017  0.3508
   28CHL1   C22 2054   2.501   5.551   4.993  0.8663  0.1099  0.0051
   28CHL1  H22A 2055   2.449   5.650   4.995  1.9351  0.6840  0.0334
   28CHL1  H22B 2056   2.610   5.572   4.985  1.4895 -3.1079 -1.6797
   28CHL1   C23 2057   2.450   5.455   4.883  0.1574  0.2388 -0.1080
   28CHL1  H23A 2058   2.524   5.372   4.882  1.3000  1.1092  2.5776
   28CHL1  H23B 2059   2.347   5.421   4.908 -0.2639  0.1444 -1.8369
   28CHL1   C24 2060   2.462   5.515   4.741  0.0428 -0.2140 -0.6357
   28CHL1  H24A 2061   2.430   5.431   4.676  0.5894 -0.6698 -0.3298
   28CHL1  H24B 2062   2.377   5.585   4.755 -1.5165 -2.1803  0.2283
   28CHL1   C25 2063   2.594   5.581   4.689  0.2772 -0.3638 -0.3082
   28CHL1   H25 2064   2.609   5.671   4.752 -1.0334 -1.2847  1.4085
   28CHL1   C26 2065   2.727   5.502   4.693 -0.4628  0.2378  0.5319
   28CHL1  H26A 2066   2.814   5.563   4.661 -0.9800  0.6636 -0.0958
   28CHL1  H26B 2067   2.743   5.473   4.799 -0.6419 -0.6584  0.3224
   28CHL1  H26C 2068   2.712   5.407   4.637  1.5445  0.6735 -0.8701
   28CHL1   C27 2069   2.563   5.649   4.550 -0.3776  0.0501 -0.3217
   28CHL1  H27A 2070   2.585   5.565   4.481 -2.2599 -0.2949 -0.5397
   28CHL1  H27B 2071   2.454   5.669   4.545 -0.1962  0.9325 -1.0049
   28CHL1  H27C 2072   2.629   5.738   4.534  2.0292 -1.8779 -1.8717
   29CHL1    C3 2073   0.576   1.909   2.863 -0.1012 -0.2252 -0.1576
   29CHL1    H3 2074   0.596   2.019   2.862 -0.3304 -0.1527 -2.2165
   29CHL1    O3 2075   0.571   1.858   2.731 -0.3544  0.1999 -0.2549
   29CHL1   H3' 2076   0.485   1.879   2.692  0.7119 -0.6390 -3.3987
   29CHL1    C4 2077   0.686   1.840   2.949 -0.4918  0.4988 -0.3325
   29CHL1   H4A 2078   0.671   1.730   2.941  0.4311  0.1750  1.5864
   29CHL1   H4B 2079   0.785   1.871   2.908 -0.4354  0.3079 -0.3443
   29CHL1    C5 2080   0.676   1.880   3.095  0.1413  0.0591 -0.3164
   29CHL1    C6 2081   0.783   1.927   3.162 -0.0043 -0.1517  0.5732
   29CHL1    H6 2082   0.877   1.928   3.105 -1.4200  1.1801 -1.9788
   29CHL1    C7 2083   0.794   1.955   3.306 -0.2075 -0.5607  0.0749
   29CHL1   H7A 2084   0.874   1.895   3.355  0.5248 -0.1859 -0.6269
   29CHL1   H7B 2085   0.807   2.065   3.316 -1.2942 -0.2809 -1.3419
   29CHL1    C8 2086   0.657   1.917   3.378  0.7459  0.3312 -0.2644
   29CHL1    H8 2087   0.668   1.811   3.410 -0.2530  0.3046  0.0440
   29CHL1   C14 2088   0.650   2.001   3.503  0.5328 -0.2446  0.3681
   29CHL1   H14 2089   0.627   2.105   3.472 -1.4516 -0.9825 -0.8243
   29CHL1   C15 2090   0.778   2.016   3.588  0.0523  0.2431 -1.0889
   29CHL1  H15A 2091   0.817   1.916   3.616 -2.5120 -0.9025 -1.2912
   29CHL1  H15B 2092   0.859   2.080   3.547  0.7583  0.8463  1.1512
   29CHL1   C16 2093   0.726   2.073   3.720 -0.4234  0.5563  0.5005
   29CHL1  H16A 2094   0.752   1.994   3.794 -0.9285 -2.1934 -2.0483
   29CHL1  H16B 2095   0.763   2.172   3.755  3.6277 -0.2458 -1.0092
   29CHL1   C17 2096   0.569   2.066   3.712 -0.3305  0.3957 -1.1003
   29CHL1   H17 2097   0.538   2.166   3.673  0.8881  1.2535  0.0687
   29CHL1   C13 2098   0.532   1.969   3.594 -0.7213  0.1929  1.4718
   29CHL1   C18 2099   0.542   1.826   3.653  0.5462  0.0435 -0.0625
   29CHL1  H18A 2100   0.466   1.800   3.729  0.0735 -2.4158 -1.2522
   29CHL1  H18B 2101   0.537   1.758   3.565  1.4905 -0.1397  0.0093
   29CHL1  H18C 2102   0.635   1.804   3.709  0.3862 -2.2646 -0.6073
   29CHL1   C12 2103   0.399   1.983   3.520 -0.5384 -0.9545 -0.0850
   29CHL1  H12A 2104   0.320   1.940   3.584 -1.4138 -0.4052 -0.7675
   29CHL1  H12B 2105   0.373   2.091   3.513  1.3122 -0.5357 -1.0786
   29CHL1   C11 2106   0.400   1.912   3.381 -0.3951 -0.9148 -0.5266
   29CHL1  H11A 2107   0.405   1.807   3.416 -3.8506 -0.8121  0.6847
   29CHL1  H11B 2108   0.302   1.927   3.330 -1.7990 -1.4599  1.8473
   29CHL1    C9 2109   0.528   1.939   3.302  0.7353  0.3332 -0.0516
   29CHL1    H9 2110   0.528   2.048   3.281  2.2470  0.4022  0.1909
   29CHL1   C10 2111   0.532   1.868   3.155 -0.0964 -0.5658 -0.2192
   29CHL1   C19 2112   0.495   1.719   3.178 -0.2356 -0.3010 -0.3135
   29CHL1  H19A 2113   0.520   1.650   3.094 -0.7382 -2.0460  0.9150
   29CHL1  H19B 2114   0.526   1.698   3.283 -1.3095  2.5649  0.6571
   29CHL1  H19C 2115   0.385   1.707   3.177 -0.3369  0.4763 -2.0622
   29CHL1    C1 2116   0.433   1.944   3.067  0.6279  0.8100  0.5104
   29CHL1   H1A 2117   0.330   1.926   3.105  0.1248  1.8073 -0.3340
   29CHL1   H1B 2118   0.452   2.053   3.060 -1.1514  1.1373  0.3425
   29CHL1    C2 2119   0.436   1.897   2.922 -0.3318  1.0152 -0.1928
   29CHL1   H2A 2120   0.360   1.952   2.863  0.6389  1.6842 -0.8657
   29CHL1   H2B 2121   0.406   1.790   2.917 -0.7724  1.1573 -0.6007
   29CHL1   C20 2122   0.492   2.044   3.851 -0.3772  0.2402  0.3496
   29CHL1   H20 2123   0.519   1.942   3.887 -0.6457 -0.7575 -2.0761
   29CHL1   C21 2124   0.340   2.041   3.836  0.2421 -0.2707  0.1952
   29CHL1  H21A 2125   0.303   1.947   3.789 -1.1360  0.4225 -0.1468
   29CHL1  H21B 2126   0.314   2.122   3.766  1.7465 -0.2552 -0.3856
   29CHL1  H21C 2127   0.289   2.056   3.934  2.0470  0.9893  0.9925
   29CHL1   C22 2128   0.533   2.147   3.952 -0.0927 -0.6443  0.7670
   29CHL1  H22A 2129   0.634   2.182   3.923 -0.6636  0.2003 -0.3126
   29CHL1  H22B 2130   0.473   2.239   3.971  0.3469 -0.7029  2.5427
   29CHL1   C23 2131   0.543   2.076   4.091  0.3927 -0.2019  0.2906
   29CHL1  H23A 2132   0.440   2.043   4.116 -0.6210  1.9874 -0.6165
   29CHL1  H23B 2133   0.619   1.996   4.084  0.1525 -0.5573  1.5752
   29CHL1   C24 2134   0.604   2.168   4.205  0.3618 -0.0903  0.2137
   29CHL1  H24A 2135   0.712   2.193   4.195  0.5456 -0.4848  1.1287
   29CHL1  H24B 2136   0.556   2.268   4.209  0.1905 -0.1572 -0.0876
   29CHL1   C25 2137   0.580   2.110   4.349  0.5247 -0.5477  0.6133
   29CHL1   H25 2138   0.635   2.177   4.419 -0.0096  1.2669 -0.6509
   29CHL1   C26 2139   0.430   2.111   4.378  0.2605  0.6408 -0.6357
   29CHL1  H26A 2140   0.378   2.032   4.320  0.8713 -0.7171  0.6166
   29CHL1  H26B 2141   0.414   2.085   4.485 -2.1809  0.3804 -1.0006
   29CHL1  H26C 2142   0.382   2.208   4.351 -0.9640 -0.1802 -1.4645
   29CHL1   C27 2143   0.639   1.972   4.355  0.4349  0.0049 -0.0630
   29CHL1  H27A 2144   0.750   1.973   4.344  0.5134  0.6461  0.6553
   29CHL1  H27B 2145   0.605   1.919   4.447 -0.5599  0.1422 -0.3445
   29CHL1  H27C 2146   0.601   1.913   4.270 -0.0163  1.8362 -1.1878
   30CHL1    C3 2147   2.503   6.016   2.841 -0.4082  0.5605 -0.6715
   30CHL1    H3 2148   2.613   6.009   2.851 -0.5140  1.0716  1.2160
   30CHL1    O3 2149   2.473   6.006   2.702  0.3758  0.2659 -0.4961
   30CHL1   H3' 2150   2.397   6.061   2.680 -0.7618 -1.8218 -2.1327
   30CHL1    C4 2151   2.435   5.901   2.917 -0.6205 -0.2933  0.6065
   30CHL1   H4A 2152   2.326   5.905   2.898 -0.5932  1.1527  0.6209
   30CHL1   H4B 2153   2.481   5.811   2.871 -2.1446  0.4479 -2.6268
   30CHL1    C5 2154   2.474   5.902   3.064  0.3988  0.1777 -0.1348
   30CHL1    C6 2155   2.526   5.795   3.124 -0.6665  0.2453 -0.4577
   30CHL1    H6 2156   2.526   5.703   3.063 -1.6585 -1.4775  1.9928
   30CHL1    C7 2157   2.557   5.785   3.273 -0.7428 -0.2642  0.7255
   30CHL1   H7A 2158   2.506   5.695   3.314 -0.4457 -0.2542  1.1242
   30CHL1   H7B 2159   2.666   5.761   3.269 -0.6718  0.0812 -2.9125
   30CHL1    C8 2160   2.516   5.913   3.352 -0.3429 -0.1334 -0.0315
   30CHL1    H8 2161   2.409   5.898   3.377 -0.2964  0.3408  0.4620
   30CHL1   C14 2162   2.595   5.919   3.479 -0.0254  0.8494  0.0707
   30CHL1   H14 2163   2.702   5.915   3.450  0.0818  1.4696  0.3587
   30CHL1   C15 2164   2.595   5.799   3.574 -0.2273  1.1422  0.1418
   30CHL1  H15A 2165   2.498   5.745   3.582  0.6236 -0.9646 -2.4251
   30CHL1  H15B 2166   2.659   5.718   3.535 -0.6732  1.5047 -1.4215
   30CHL1   C16 2167   2.648   5.852   3.708 -0.1853  0.6161 -0.0754
   30CHL1  H16A 2168   2.563   5.834   3.777 -0.0733  2.4485  0.6034
   30CHL1  H16B 2169   2.742   5.806   3.744 -0.5414  1.5700  2.2566
   30CHL1   C17 2170   2.665   6.002   3.696  0.3212 -0.5941 -0.0901
   30CHL1   H17 2171   2.771   6.017   3.667 -0.1472  1.2372 -0.9560
   30CHL1   C13 2172   2.574   6.039   3.575  0.0758  0.3051 -0.0863
   30CHL1   C18 2173   2.425   6.040   3.628 -0.2246  0.4072 -0.0702
   30CHL1  H18A 2174   2.408   5.955   3.698  1.2720 -0.4277 -0.6642
   30CHL1  H18B 2175   2.411   6.135   3.685  1.1123  1.2091 -1.0339
   30CHL1  H18C 2176   2.356   6.028   3.542 -0.2323 -1.6746  0.1710
   30CHL1   C12 2177   2.605   6.170   3.493 -0.4457 -0.8603  0.1729
   30CHL1  H12A 2178   2.587   6.265   3.547 -2.6641 -0.7385 -0.6781
   30CHL1  H12B 2179   2.714   6.158   3.473 -0.3649 -1.3228  0.8752
   30CHL1   C11 2180   2.527   6.170   3.356  0.3014  0.1850  0.4427
   30CHL1  H11A 2181   2.423   6.194   3.387  1.0495 -0.2657  3.7153
   30CHL1  H11B 2182   2.548   6.263   3.298 -1.6779  0.7395  0.5509
   30CHL1    C9 2183   2.537   6.043   3.269  0.0248  0.2810 -0.3826
   30CHL1    H9 2184   2.645   6.038   3.243  0.4975 -2.3476  1.5857
   30CHL1   C10 2185   2.462   6.039   3.131  0.0893 -0.2811 -0.5879
   30CHL1   C19 2186   2.306   6.072   3.146 -0.0662  0.0801  0.4660
   30CHL1  H19A 2187   2.261   6.091   3.046  0.2827 -1.7509 -0.0683
   30CHL1  H19B 2188   2.249   5.986   3.187 -0.7298 -0.6209 -1.7815
   30CHL1  H19C 2189   2.292   6.159   3.215 -1.4034 -0.1998  0.5796
   30CHL1    C1 2190   2.519   6.153   3.038  0.2841  0.3277 -1.0750
   30CHL1   H1A 2191   2.488   6.248   3.086  0.1860 -0.3754  0.3002
   30CHL1   H1B 2192   2.630   6.145   3.047  0.1234 -0.6511  0.3743
   30CHL1    C2 2193   2.481   6.162   2.892  0.7287  0.2186 -0.3794
   30CHL1   H2A 2194   2.536   6.238   2.833  1.9171  0.2114  0.6689
   30CHL1   H2B 2195   2.375   6.193   2.882 -0.1723 -2.5686 -0.4423
   30CHL1   C20 2196   2.658   6.080   3.838  0.5192  0.7384  0.4440
   30CHL1   H20 2197   2.561   6.064   3.890  0.5145  2.0639  0.8856
   30CHL1   C21 2198   2.670   6.230   3.805 -0.6543  0.6317 -0.5322
   30CHL1  H21A 2199   2.583   6.264   3.746  0.3141 -0.5834 -2.8005
   30CHL1  H21B 2200   2.761   6.238   3.742  0.1595  0.2468  0.5514
   30CHL1  H21C 2201   2.684   6.289   3.898 -0.7636 -0.5054  0.2270
   30CHL1   C22 2202   2.766   6.021   3.938  0.0342  0.1977  0.1346
   30CHL1  H22A 2203   2.744   5.912   3.950 -0.6706  0.1798 -1.1706
   30CHL1  H22B 2204   2.866   6.021   3.889  0.5963 -0.0602  1.2447
   30CHL1   C23 2205   2.764   6.091   4.074 -0.4533 -0.5515 -1.0264
   30CHL1  H23A 2206   2.818   6.188   4.067 -0.1222 -0.8547 -3.9796
   30CHL1  H23B 2207   2.659   6.102   4.107 -0.3774 -3.3641  0.4583
   30CHL1   C24 2208   2.849   6.005   4.170 -0.6643 -1.0051  0.1957
   30CHL1  H24A 2209   2.799   5.906   4.179 -2.4810 -0.0829  0.8705
   30CHL1  H24B 2210   2.953   5.991   4.133  0.0258  2.3301  0.5002
   30CHL1   C25 2211   2.860   6.072   4.304 -0.2496 -0.3878  0.3482
   30CHL1   H25 2212   2.754   6.089   4.334 -0.3269  0.6858 -0.4729
   30CHL1   C26 2213   2.926   5.973   4.397 -0.0600  0.4555 -0.2142
   30CHL1  H26A 2214   3.026   5.939   4.360 -0.9271 -3.9385  0.8525
   30CHL1  H26B 2215   2.932   5.994   4.505  0.5937  0.7108 -0.2952
   30CHL1  H26C 2216   2.863   5.881   4.392  1.7094 -0.8505  0.2761
   30CHL1   C27 2217   2.926   6.214   4.299  0.4738 -0.1795  0.8253
   30CHL1  H27A 2218   2.936   6.256   4.401  0.6837 -1.3376  1.3001
   30CHL1  H27B 2219   3.027   6.206   4.252 -0.3295 -2.5739 -0.7194
   30CHL1  H27C 2220   2.865   6.287   4.243 -0.9090 -0.5535  1.7900
   31CHL1    C3 2221   2.882   5.794   2.822  0.3493  0.4173 -0.2003
   31CHL1    H3 2222   2.779   5.821   2.855  0.4629  0.8554 -0.2005
   31CHL1    O3 2223   2.892   5.798   2.678 -0.0216 -0.0832  0.9229
   31CHL1   H3' 2224   2.915   5.709   2.649 -0.9941 -1.0201  2.8443
   31CHL1    C4 2225   2.987   5.888   2.885  0.2265 -1.4529 -0.0812
   31CHL1   H4A 2226   3.090   5.867   2.848  0.2474  0.1470 -1.0244
   31CHL1   H4B 2227   2.966   5.991   2.850  1.7028 -0.0397  2.8499
   31CHL1    C5 2228   2.988   5.864   3.037 -0.0559 -0.0800 -0.7969
   31CHL1    C6 2229   2.966   5.963   3.127 -0.1035  0.7523  0.3367
   31CHL1    H6 2230   2.965   6.066   3.089  1.0214  0.1950 -1.3405
   31CHL1    C7 2231   2.964   5.949   3.272  0.0535 -0.5500  0.1122
   31CHL1   H7A 2232   3.011   6.046   3.297 -0.6972  0.7058 -2.8525
   31CHL1   H7B 2233   2.864   5.959   3.320  0.7280  0.9493  1.2572
   31CHL1    C8 2234   3.036   5.824   3.327 -0.1590  0.0087 -0.5564
   31CHL1    H8 2235   3.146   5.834   3.313 -0.0490  1.9919  1.2330
   31CHL1   C14 2236   3.006   5.802   3.471 -0.0073  0.1726  0.2259
   31CHL1   H14 2237   2.896   5.801   3.485 -0.1508 -1.3716 -0.7265
   31CHL1   C15 2238   3.046   5.912   3.573 -0.2417 -0.0810 -0.5513
   31CHL1  H15A 2239   3.145   5.960   3.556  0.1541 -0.6916 -0.0145
   31CHL1  H15B 2240   2.967   5.990   3.578 -1.2152 -1.0859  2.8192
   31CHL1   C16 2241   3.037   5.836   3.714  0.1648  0.0468  0.6378
   31CHL1  H16A 2242   3.132   5.857   3.767  0.6273  2.0222 -0.8310
   31CHL1  H16B 2243   2.948   5.874   3.769 -0.2420 -0.4031  0.3030
   31CHL1   C17 2244   3.010   5.690   3.682 -0.4213 -0.0440 -0.6690
   31CHL1   H17 2245   2.901   5.673   3.688 -0.5658  1.2446  2.2543
   31CHL1   C13 2246   3.053   5.669   3.527  0.7025 -0.4676  0.3151
   31CHL1   C18 2247   3.211   5.656   3.521  0.1567 -0.3425 -0.1108
   31CHL1  H18A 2248   3.241   5.666   3.414 -2.0277 -0.5603 -0.8118
   31CHL1  H18B 2249   3.256   5.748   3.563  0.2012 -0.3868 -0.0611
   31CHL1  H18C 2250   3.260   5.566   3.563  1.2864 -1.2281 -3.0526
   31CHL1   C12 2251   2.972   5.563   3.456 -0.8473 -0.2680 -0.4122
   31CHL1  H12A 2252   2.999   5.460   3.490  2.1808  0.2068 -1.1541
   31CHL1  H12B 2253   2.862   5.580   3.465 -0.6851  0.3308  0.6864
   31CHL1   C11 2254   3.015   5.567   3.307 -0.5213  0.1096 -0.6788
   31CHL1  H11A 2255   3.123   5.544   3.302 -0.6392 -0.8182  0.6866
   31CHL1  H11B 2256   2.960   5.489   3.249  0.4897 -0.7272 -0.5422
   31CHL1    C9 2257   2.987   5.706   3.246 -0.4806 -0.5801  0.4805
   31CHL1    H9 2258   2.877   5.716   3.254 -0.9331 -2.7859 -1.7247
   31CHL1   C10 2259   3.017   5.720   3.086  0.7258  0.0055 -0.0511
   31CHL1   C19 2260   3.165   5.700   3.067 -0.4905 -0.5368  0.3897
   31CHL1  H19A 2261   3.185   5.689   2.959 -0.7555 -3.2928  0.5428
   31CHL1  H19B 2262   3.220   5.782   3.119 -0.5043 -0.7718  0.7822
   31CHL1  H19C 2263   3.197   5.604   3.114  0.4631 -1.8139 -2.6059
   31CHL1    C1 2264   2.931   5.624   3.003  0.2139  0.7695 -0.2876
   31CHL1   H1A 2265   2.957   5.516   3.011 -0.7970  0.5626  0.4093
   31CHL1   H1B 2266   2.831   5.635   3.051  0.7163 -1.3244  1.3862
   31CHL1    C2 2267   2.924   5.649   2.850 -0.1478 -0.7552  0.4339
   31CHL1   H2A 2268   2.867   5.569   2.798 -0.1038  0.6732 -1.9246
   31CHL1   H2B 2269   3.029   5.654   2.815 -0.2974  0.6481  0.1332
   31CHL1   C20 2270   3.074   5.605   3.790  0.2808  0.2634 -0.0662
   31CHL1   H20 2271   3.182   5.633   3.788 -0.1487  1.9541 -1.7265
   31CHL1   C21 2272   3.062   5.450   3.771 -0.4132 -0.3849 -0.5511
   31CHL1  H21A 2273   3.116   5.426   3.677 -0.2174 -0.0440 -0.5268
   31CHL1  H21B 2274   2.960   5.408   3.756 -0.1141  0.0660 -5.4810
   31CHL1  H21C 2275   3.116   5.399   3.853 -0.2089  0.4853 -0.1279
   31CHL1   C22 2276   3.032   5.640   3.941  0.8499  0.4383 -0.4426
   31CHL1  H22A 2277   3.025   5.750   3.953 -0.2880  0.1915  1.5654
   31CHL1  H22B 2278   2.930   5.602   3.963  0.4764  1.5992 -0.0908
   31CHL1   C23 2279   3.128   5.614   4.056 -0.6637  0.4037  0.3521
   31CHL1  H23A 2280   3.171   5.512   4.068 -0.3044  0.6828  1.5946
   31CHL1  H23B 2281   3.219   5.672   4.030 -0.5901  0.3882  0.5734
   31CHL1   C24 2282   3.071   5.655   4.191 -0.2091  0.6827 -1.1548
   31CHL1  H24A 2283   3.069   5.766   4.191  2.8071  0.8225 -0.8763
   31CHL1  H24B 2284   2.974   5.605   4.212  0.1987  0.1378 -0.5198
   31CHL1   C25 2285   3.162   5.614   4.315 -0.1231 -0.0141 -0.0260
   31CHL1   H25 2286   3.214   5.519   4.294 -0.8790 -0.4299 -0.0637
   31CHL1   C26 2287   3.269   5.719   4.338  0.4048  0.2128 -0.0420
   31CHL1  H26A 2288   3.323   5.722   4.241 -1.5396 -0.7033 -1.2112
   31CHL1  H26B 2289   3.216   5.812   4.367 -0.6103 -0.2791 -0.2688
   31CHL1  H26C 2290   3.332   5.694   4.427  0.9724  0.7587 -0.2833
   31CHL1   C27 2291   3.068   5.600   4.436 -0.3442  0.0927 -0.9596
   31CHL1  H27A 2292   2.989   5.678   4.436 -0.8176 -0.3517 -2.3369
   31CHL1  H27B 2293   3.016   5.502   4.431 -0.6676  0.2622 -0.9525
   31CHL1  H27C 2294   3.130   5.604   4.528  0.8132 -2.1341 -1.5729
   32CHL1    C3 2295   2.847   2.903   2.847  0.7491  0.4416 -0.1659
   32CHL1    H3 2296   2.944   2.885   2.797  0.2732  1.1490 -1.3852
   32CHL1    O3 2297   2.769   2.981   2.758 -0.1642 -0.2749 -0.0879
   32CHL1   H3' 2298   2.683   2.941   2.769 -1.5123  2.8443  2.2493
   32CHL1    C4 2299   2.786   2.763   2.878  0.4399 -0.6496 -0.4832
   32CHL1   H4A 2300   2.680   2.765   2.912  0.7101 -0.9954  0.4102
   32CHL1   H4B 2301   2.793   2.699   2.787  2.1800 -1.8822  0.4767
   32CHL1    C5 2302   2.856   2.688   2.982 -0.1729  0.4278 -0.0954
   32CHL1    C6 2303   2.893   2.563   2.963 -0.0032  0.4565 -0.2277
   32CHL1    H6 2304   2.867   2.499   2.878  0.0424 -0.5605  0.4947
   32CHL1    C7 2305   2.968   2.483   3.061  0.1878  0.0453  2.0970
   32CHL1   H7A 2306   2.928   2.380   3.065  3.2583 -1.4858 -1.0410
   32CHL1   H7B 2307   3.075   2.474   3.032 -0.6015 -1.9622 -0.6835
   32CHL1    C8 2308   2.962   2.545   3.205  0.2071  0.1894 -0.0613
   32CHL1    H8 2309   2.866   2.516   3.251  1.0188 -1.4841  0.6666
   32CHL1   C14 2310   3.057   2.476   3.304  0.1008  1.0758  0.4185
   32CHL1   H14 2311   3.157   2.504   3.264  0.2188 -0.2174 -0.2653
   32CHL1   C15 2312   3.066   2.320   3.307 -0.0047  0.2082 -0.5155
   32CHL1  H15A 2313   2.965   2.276   3.315  0.5706 -0.8837  1.4418
   32CHL1  H15B 2314   3.127   2.281   3.223  0.0175  0.2494 -0.5185
   32CHL1   C16 2315   3.130   2.287   3.443  0.3529  0.0630 -0.3555
   32CHL1  H16A 2316   3.048   2.246   3.506 -0.4519  1.1387 -0.6678
   32CHL1  H16B 2317   3.214   2.214   3.439 -0.4348 -0.8644 -0.3131
   32CHL1   C17 2318   3.176   2.430   3.502  0.1602 -1.0240  0.6087
   32CHL1   H17 2319   3.266   2.462   3.446 -0.5964 -1.5773 -0.9972
   32CHL1   C13 2320   3.067   2.524   3.450 -0.2500 -0.0388  0.7889
   32CHL1   C18 2321   2.935   2.502   3.530 -0.0220 -0.6905 -0.5312
   32CHL1  H18A 2322   2.848   2.563   3.496 -0.5143  0.7756  2.8547
   32CHL1  H18B 2323   2.901   2.396   3.524 -3.7860  0.3738 -0.4884
   32CHL1  H18C 2324   2.939   2.520   3.640 -1.6088 -1.8114 -0.2439
   32CHL1   C12 2325   3.093   2.668   3.439  0.3117 -0.7768  0.5576
   32CHL1  H12A 2326   3.078   2.721   3.535 -2.1919  1.6274 -0.9819
   32CHL1  H12B 2327   3.199   2.687   3.412  0.1656  0.1744  0.6240
   32CHL1   C11 2328   2.992   2.750   3.348 -0.6400 -0.1413 -0.2923
   32CHL1  H11A 2329   2.892   2.754   3.397 -0.7992 -1.5609 -0.4481
   32CHL1  H11B 2330   3.031   2.854   3.345 -0.0102 -0.3909 -0.8799
   32CHL1    C9 2331   2.994   2.695   3.200  0.0174  0.1107 -0.8115
   32CHL1    H9 2332   3.096   2.708   3.159  0.7405  3.0934  1.5490
   32CHL1   C10 2333   2.887   2.768   3.112  0.1790 -0.7796  0.4697
   32CHL1   C19 2334   2.755   2.777   3.185 -0.5869  0.3543 -0.2347
   32CHL1  H19A 2335   2.724   2.675   3.217  2.1892  0.0602  1.8296
   32CHL1  H19B 2336   2.755   2.851   3.268 -1.3243  0.6909 -0.5173
   32CHL1  H19C 2337   2.678   2.820   3.117 -2.1010  0.3782  1.4097
   32CHL1    C1 2338   2.936   2.910   3.082 -0.4988 -0.1859 -0.4742
   32CHL1   H1A 2339   2.928   2.967   3.177 -0.7767  0.4077 -0.8442
   32CHL1   H1B 2340   3.045   2.898   3.067 -0.5037 -3.0056  1.0744
   32CHL1    C2 2341   2.858   2.982   2.974 -0.7223 -0.1487  0.2195
   32CHL1   H2A 2342   2.909   3.080   2.957 -0.7895 -0.1219  0.1729
   32CHL1   H2B 2343   2.757   3.003   3.016 -1.1001 -1.5115  0.0517
   32CHL1   C20 2344   3.213   2.431   3.653  0.4195  0.5898  0.1696
   32CHL1   H20 2345   3.124   2.417   3.718 -0.3945  0.8949 -0.8610
   32CHL1   C21 2346   3.276   2.568   3.694  0.9795  0.3920  0.5427
   32CHL1  H21A 2347   3.202   2.649   3.675 -0.8798 -1.3213  0.1879
   32CHL1  H21B 2348   3.375   2.582   3.646  1.3596  1.4440  1.5720
   32CHL1  H21C 2349   3.307   2.568   3.801  2.0189  0.7275  0.2548
   32CHL1   C22 2350   3.306   2.310   3.696 -0.1617  0.1178 -0.4173
   32CHL1  H22A 2351   3.294   2.221   3.631  0.2202 -0.5469  0.4027
   32CHL1  H22B 2352   3.412   2.335   3.674 -0.3307  0.3502 -0.9817
   32CHL1   C23 2353   3.302   2.257   3.840  0.6243 -0.0297 -0.5475
   32CHL1  H23A 2354   3.290   2.339   3.914  1.3996  0.7981 -1.3153
   32CHL1  H23B 2355   3.215   2.192   3.865  1.1920 -1.0450 -1.1356
   32CHL1   C24 2356   3.430   2.182   3.875 -0.6957  0.9722  0.3312
   32CHL1  H24A 2357   3.445   2.083   3.826  2.0902  0.8706  1.2441
   32CHL1  H24B 2358   3.525   2.236   3.858  0.5197 -1.0603  0.2932
   32CHL1   C25 2359   3.438   2.139   4.026 -0.2383  0.4529  0.3238
   32CHL1   H25 2360   3.350   2.078   4.056 -1.6806  2.2416 -0.1080
   32CHL1   C26 2361   3.554   2.044   4.051  0.2800  0.0665  0.9877
   32CHL1  H26A 2362   3.565   1.969   3.971 -0.7295  0.7348  0.1900
   32CHL1  H26B 2363   3.645   2.108   4.052  0.2762  0.0745  1.7290
   32CHL1  H26C 2364   3.550   1.984   4.144  0.4451  2.0247  2.3285
   32CHL1   C27 2365   3.439   2.255   4.117  0.0013  0.7366 -0.1306
   32CHL1  H27A 2366   3.434   2.224   4.224 -0.3290  3.2737  0.6621
   32CHL1  H27B 2367   3.539   2.299   4.094  1.3031 -2.1059 -0.3474
   32CHL1  H27C 2368   3.350   2.319   4.101 -1.0500 -0.7550 -0.4655
   33CHL1    C3 2369   0.950   3.844   2.962  0.1134 -0.2930  0.3468
   33CHL1    H3 2370   0.926   3.948   2.995 -1.4268 -0.2978 -0.6275
   33CHL1    O3 2371   0.960   3.855   2.816  0.3230  0.2326 -0.0762
   33CHL1   H3' 2372   0.970   3.765   2.784 -0.1429 -0.0219  0.4760
   33CHL1    C4 2373   1.086   3.796   3.019 -0.8702  0.4120  0.2498
   33CHL1   H4A 2374   1.115   3.703   2.965 -1.0166 -1.3086  2.9507
   33CHL1   H4B 2375   1.156   3.877   2.988  1.2022 -1.0080  0.9768
   33CHL1    C5 2376   1.080   3.763   3.161  0.1310  0.2814 -0.3699
   33CHL1    C6 2377   1.171   3.800   3.254  0.1171  0.5250 -0.8615
   33CHL1    H6 2378   1.253   3.862   3.215  1.1709 -0.0666  0.3473
   33CHL1    C7 2379   1.173   3.752   3.397  0.0070 -0.1384  0.1860
   33CHL1   H7A 2380   1.274   3.710   3.417  1.3439  2.5113 -0.5881
   33CHL1   H7B 2381   1.157   3.833   3.472  2.5006 -0.5350  1.2545
   33CHL1    C8 2382   1.075   3.635   3.419 -0.4065  0.4193 -0.1546
   33CHL1    H8 2383   1.127   3.544   3.381  1.5101  0.6876  1.6608
   33CHL1   C14 2384   1.048   3.610   3.566 -0.0900  0.6647  0.8566
   33CHL1   H14 2385   1.007   3.703   3.609  0.4087  0.9847  0.6498
   33CHL1   C15 2386   1.180   3.582   3.652 -0.3078 -0.4373  0.3154
   33CHL1  H15A 2387   1.244   3.499   3.614  1.9621  0.6789  1.5225
   33CHL1  H15B 2388   1.239   3.675   3.661  0.4767 -1.1050  2.6657
   33CHL1   C16 2389   1.111   3.556   3.786  0.0246  0.4407 -0.0503
   33CHL1  H16A 2390   1.164   3.472   3.835 -0.7117  0.6004  1.0497
   33CHL1  H16B 2391   1.112   3.634   3.865  2.3213 -1.0316  1.5100
   33CHL1   C17 2392   0.969   3.513   3.757  0.6202 -0.1227 -0.3681
   33CHL1   H17 2393   0.895   3.592   3.780  1.1406  0.8908 -1.9721
   33CHL1   C13 2394   0.952   3.505   3.600  0.1550  0.1717 -0.4705
   33CHL1   C18 2395   1.008   3.365   3.558 -0.3728 -0.3505 -0.4716
   33CHL1  H18A 2396   0.929   3.287   3.571  0.0928 -0.8229 -0.4205
   33CHL1  H18B 2397   1.037   3.366   3.451 -0.6520  0.2608 -0.5452
   33CHL1  H18C 2398   1.089   3.337   3.629 -0.0028  4.9005  1.6458
   33CHL1   C12 2399   0.816   3.543   3.543  0.0243  0.3141  0.3787
   33CHL1  H12A 2400   0.746   3.459   3.560 -1.0616  1.0506 -0.3803
   33CHL1  H12B 2401   0.777   3.638   3.585 -0.1554  0.8338 -0.9299
   33CHL1   C11 2402   0.833   3.556   3.391 -0.1633  0.3091  0.4390
   33CHL1  H11A 2403   0.834   3.452   3.351 -0.9976  0.7560 -0.7921
   33CHL1  H11B 2404   0.737   3.598   3.354  0.7830  1.2426 -1.0517
   33CHL1    C9 2405   0.944   3.659   3.349 -0.5082 -0.0998 -0.0101
   33CHL1    H9 2406   0.915   3.758   3.390 -0.5966 -0.2872  0.3870
   33CHL1   C10 2407   0.961   3.670   3.193  0.5888  0.0559 -0.8384
   33CHL1   C19 2408   0.985   3.529   3.146 -0.1761 -0.2026  0.5921
   33CHL1  H19A 2409   1.074   3.487   3.197 -0.5116 -0.4511  0.9765
   33CHL1  H19B 2410   0.901   3.457   3.152  0.1722 -0.6224  0.4992
   33CHL1  H19C 2411   0.996   3.527   3.035 -0.6092  1.2001  0.5111
   33CHL1    C1 2412   0.826   3.717   3.143  0.1557  0.0697 -0.7641
   33CHL1   H1A 2413   0.737   3.655   3.165  1.5423 -1.5936  0.3605
   33CHL1   H1B 2414   0.805   3.819   3.183  1.7456  0.1535 -0.0876
   33CHL1    C2 2415   0.831   3.749   2.998 -1.0946  0.0161  0.6697
   33CHL1   H2A 2416   0.738   3.802   2.968 -0.2837  1.1937  0.1474
   33CHL1   H2B 2417   0.844   3.655   2.940 -1.4666  0.1167  0.4205
   33CHL1   C20 2418   0.915   3.391   3.837  0.2247  0.5802 -0.7567
   33CHL1   H20 2419   0.973   3.298   3.819  0.0270 -1.1353  5.1999
   33CHL1   C21 2420   0.771   3.359   3.820  0.0296 -0.2365  0.8887
   33CHL1  H21A 2421   0.703   3.446   3.832  0.6919  0.4133  0.0231
   33CHL1  H21B 2422   0.740   3.278   3.889 -2.8292 -0.1965 -0.2163
   33CHL1  H21C 2423   0.740   3.336   3.716 -0.4765  2.9432  0.2484
   33CHL1   C22 2424   0.943   3.412   3.989 -0.2405  0.3146 -1.0618
   33CHL1  H22A 2425   1.040   3.463   4.010 -0.2654  0.2628 -0.8110
   33CHL1  H22B 2426   0.858   3.476   4.023  0.3686  1.0284 -0.8462
   33CHL1   C23 2427   0.938   3.289   4.077  0.1744 -0.0434 -0.1670
   33CHL1  H23A 2428   0.848   3.226   4.059  0.5680 -0.5762 -0.3107
   33CHL1  H23B 2429   1.034   3.236   4.063  0.3670 -0.0905  1.1806
   33CHL1   C24 2430   0.937   3.316   4.226  0.6966  0.6673 -0.3005
   33CHL1  H24A 2431   0.942   3.220   4.281 -1.6770  0.5047 -0.2471
   33CHL1  H24B 2432   1.032   3.368   4.250  1.3555 -0.6690  0.1268
   33CHL1   C25 2433   0.810   3.384   4.281  0.3061 -0.1787 -0.2870
   33CHL1   H25 2434   0.769   3.445   4.198 -0.9255  0.8852  1.0710
   33CHL1   C26 2435   0.700   3.290   4.332  0.7605  0.5494  0.3893
   33CHL1  H26A 2436   0.727   3.258   4.435  0.7823  0.2459  0.2915
   33CHL1  H26B 2437   0.608   3.352   4.338  0.7409  0.8174 -1.8752
   33CHL1  H26C 2438   0.674   3.203   4.267 -0.1363  0.8326  0.3527
   33CHL1   C27 2439   0.839   3.489   4.384  0.0774  0.4862 -0.6390
   33CHL1  H27A 2440   0.866   3.440   4.480  1.7084 -1.0347 -1.8256
   33CHL1  H27B 2441   0.925   3.551   4.351 -0.4219  1.6630  0.1922
   33CHL1  H27C 2442   0.757   3.563   4.402  0.6317  0.5686  2.0608
   34CHL1    C3 2443   3.530   5.595   2.576  0.6742 -0.4615  0.4974
   34CHL1    H3 2444   3.531   5.699   2.613  2.8093  0.2341 -1.2788
   34CHL1    O3 2445   3.535   5.582   2.432  0.8979  0.3884  0.0284
   34CHL1   H3' 2446   3.565   5.492   2.416  1.6194  1.0334 -2.9885
   34CHL1    C4 2447   3.649   5.524   2.631  0.3018 -0.9861 -0.3595
   34CHL1   H4A 2448   3.648   5.419   2.593 -1.5741 -1.3816  0.6392
   34CHL1   H4B 2449   3.742   5.570   2.593  0.5003 -1.2849 -0.2416
   34CHL1    C5 2450   3.642   5.521   2.791 -0.0137 -0.1823  0.1545
   34CHL1    C6 2451   3.737   5.580   2.857  0.2326 -0.2375 -0.2435
   34CHL1    H6 2452   3.819   5.631   2.805 -0.8873  0.1248 -1.7091
   34CHL1    C7 2453   3.745   5.581   3.010 -0.3619  0.0864 -0.6833
   34CHL1   H7A 2454   3.845   5.562   3.055 -0.2343  1.0555 -0.5250
   34CHL1   H7B 2455   3.715   5.684   3.041  1.1857  0.7553 -1.3183
   34CHL1    C8 2456   3.647   5.478   3.083 -1.6457  0.5695  0.8645
   34CHL1    H8 2457   3.696   5.379   3.074 -1.0312  0.9196  0.1475
   34CHL1   C14 2458   3.629   5.502   3.232 -0.5444 -0.9130  0.0550
   34CHL1   H14 2459   3.569   5.596   3.230  2.1654  0.9389 -1.2400
   34CHL1   C15 2460   3.748   5.537   3.325  0.6129 -0.2234  0.1766
   34CHL1  H15A 2461   3.823   5.459   3.300  1.3096  0.7324 -0.7814
   34CHL1  H15B 2462   3.790   5.638   3.310 -0.7252  0.1546 -1.3597
   34CHL1   C16 2463   3.691   5.512   3.469  0.4210  0.5709  0.4378
   34CHL1  H16A 2464   3.762   5.449   3.527  2.0058  1.0765 -0.9027
   34CHL1  H16B 2465   3.672   5.609   3.520 -1.3442  0.3322  0.2947
   34CHL1   C17 2466   3.554   5.440   3.448 -0.1667  0.5020 -0.5033
   34CHL1   H17 2467   3.477   5.516   3.474 -0.8912 -1.0062  2.1683
   34CHL1   C13 2468   3.546   5.401   3.299  0.2437 -0.1306 -0.1987
   34CHL1   C18 2469   3.612   5.264   3.287 -0.3726  0.8666 -0.3948
   34CHL1  H18A 2470   3.716   5.262   3.325 -0.3699  1.6673 -0.3525
   34CHL1  H18B 2471   3.552   5.190   3.345  1.8711  0.8600  2.1059
   34CHL1  H18C 2472   3.619   5.226   3.182 -2.5113  1.6640 -0.8849
   34CHL1   C12 2473   3.403   5.407   3.235 -0.4074  0.4856  0.4993
   34CHL1  H12A 2474   3.330   5.328   3.263 -1.9754  0.2958 -3.5278
   34CHL1  H12B 2475   3.363   5.508   3.256  0.3346  0.5296  1.8379
   34CHL1   C11 2476   3.412   5.381   3.086 -0.3399  0.3023  0.3586
   34CHL1  H11A 2477   3.448   5.278   3.066 -3.3157 -0.6124 -1.0283
   34CHL1  H11B 2478   3.308   5.378   3.045  0.1273 -2.3667 -0.8230
   34CHL1    C9 2479   3.510   5.481   3.009  0.6160 -0.2882  0.5848
   34CHL1    H9 2480   3.478   5.586   3.021  1.4561  0.0289  0.1207
   34CHL1   C10 2481   3.513   5.459   2.855 -0.3942  0.1022 -0.1555
   34CHL1   C19 2482   3.525   5.306   2.829 -0.4040  0.3102 -0.3363
   34CHL1  H19A 2483   3.543   5.282   2.722 -1.4627 -1.3411 -0.1690
   34CHL1  H19B 2484   3.606   5.260   2.889 -1.0765 -0.1124  0.2627
   34CHL1  H19C 2485   3.424   5.268   2.857  0.7476 -2.1333  0.7758
   34CHL1    C1 2486   3.387   5.517   2.784 -0.1300  0.4094 -0.2183
   34CHL1   H1A 2487   3.305   5.443   2.793 -0.6992  1.1176  0.6334
   34CHL1   H1B 2488   3.345   5.616   2.814 -0.1372  0.2305  0.3761
   34CHL1    C2 2489   3.399   5.526   2.630  0.3155  0.5321 -0.2781
   34CHL1   H2A 2490   3.311   5.581   2.591  0.9391  1.4907 -0.3786
   34CHL1   H2B 2491   3.402   5.424   2.586  0.1533  0.8024 -0.9312
   34CHL1   C20 2492   3.520   5.332   3.557  0.2394 -0.1020  0.9009
   34CHL1   H20 2493   3.580   5.240   3.548  0.0855 -0.3246  2.0723
   34CHL1   C21 2494   3.378   5.287   3.532 -0.3447  0.2798 -0.4669
   34CHL1  H21A 2495   3.376   5.225   3.440 -1.1891  1.0356 -0.9712
   34CHL1  H21B 2496   3.308   5.373   3.522 -0.0015  1.1610  3.1971
   34CHL1  H21C 2497   3.347   5.222   3.617  0.4255 -1.2564 -1.3189
   34CHL1   C22 2498   3.533   5.383   3.698 -0.0052  0.4772 -0.1738
   34CHL1  H22A 2499   3.633   5.430   3.708  1.0807 -1.9146  0.8620
   34CHL1  H22B 2500   3.459   5.465   3.712 -0.2453  0.3468 -0.6369
   34CHL1   C23 2501   3.510   5.279   3.812  0.0375 -0.4029  0.4174
   34CHL1  H23A 2502   3.409   5.232   3.802 -0.5869  1.3510 -2.8196
   34CHL1  H23B 2503   3.593   5.206   3.797  0.1144 -0.0434 -1.0325
   34CHL1   C24 2504   3.522   5.343   3.949 -0.5314  0.0960 -0.2042
   34CHL1  H24A 2505   3.625   5.351   3.991 -1.2930 -0.0860  1.8520
   34CHL1  H24B 2506   3.478   5.445   3.954 -2.1339 -0.6158  2.0326
   34CHL1   C25 2507   3.448   5.260   4.054  0.0609  0.4834 -0.1583
   34CHL1   H25 2508   3.346   5.253   4.011  0.1609  0.8878 -0.4610
   34CHL1   C26 2509   3.507   5.119   4.070  0.7490  0.5405  0.2077
   34CHL1  H26A 2510   3.437   5.052   4.125  2.5924  0.2002  2.2769
   34CHL1  H26B 2511   3.519   5.075   3.969 -1.8830  0.3769 -0.1031
   34CHL1  H26C 2512   3.603   5.116   4.127 -0.5259 -0.9125  2.4482
   34CHL1   C27 2513   3.451   5.327   4.189  0.8264 -0.1417 -0.1519
   34CHL1  H27A 2514   3.399   5.425   4.187  0.6093 -0.2326  0.6683
   34CHL1  H27B 2515   3.395   5.264   4.262 -0.4656  2.0087  0.7886
   34CHL1  H27C 2516   3.559   5.345   4.207  1.3703 -2.0036 -1.2070
   35CHL1    C3 2517   0.467   5.969   3.270  0.2235 -0.4900 -0.3597
   35CHL1    H3 2518   0.547   5.892   3.260  0.2202 -0.5330 -0.0738
   35CHL1    O3 2519   0.379   5.964   3.156  0.3304  0.0913 -0.0785
   35CHL1   H3' 2520   0.326   6.044   3.162 -0.1840 -0.2325 -0.1915
   35CHL1    C4 2521   0.382   5.933   3.395 -0.5778 -0.0608 -0.0853
   35CHL1   H4A 2522   0.286   5.987   3.394 -1.7965 -2.1028 -1.3398
   35CHL1   H4B 2523   0.353   5.826   3.384 -0.3481 -0.2204  0.8024
   35CHL1    C5 2524   0.445   5.956   3.527 -0.7515 -0.1952  0.2376
   35CHL1    C6 2525   0.453   5.852   3.607  0.0804  0.4490 -0.2502
   35CHL1    H6 2526   0.399   5.761   3.576 -1.5531  1.0184  0.8221
   35CHL1    C7 2527   0.510   5.868   3.742  0.2184  0.7754 -0.0493
   35CHL1   H7A 2528   0.453   5.814   3.821 -0.2549  1.5126  0.1171
   35CHL1   H7B 2529   0.614   5.829   3.733 -0.4654 -1.6030  1.4104
   35CHL1    C8 2530   0.525   6.013   3.786  0.1498 -0.4046 -0.5083
   35CHL1    H8 2531   0.425   6.062   3.795 -0.8020 -1.7175 -2.9415
   35CHL1   C14 2532   0.602   6.029   3.919  0.3796 -0.0138 -0.0121
   35CHL1   H14 2533   0.700   5.979   3.903  0.9963  0.7418  1.2738
   35CHL1   C15 2534   0.541   5.962   4.044 -1.0146 -0.4346  0.3189
   35CHL1  H15A 2535   0.435   5.992   4.060 -0.7767  2.0083 -2.0359
   35CHL1  H15B 2536   0.552   5.851   4.043  3.8748 -0.1593 -1.2032
   35CHL1   C16 2537   0.621   6.023   4.152  0.6722 -0.5052  0.3371
   35CHL1  H16A 2538   0.539   6.042   4.225  0.1715  0.2445 -0.3925
   35CHL1  H16B 2539   0.691   5.957   4.207  0.0509 -1.2041  0.3100
   35CHL1   C17 2540   0.690   6.156   4.097  0.2133  0.2798 -0.1972
   35CHL1   H17 2541   0.795   6.135   4.069 -0.4737 -0.2923 -2.6292
   35CHL1   C13 2542   0.628   6.176   3.960  0.0100  0.4975  0.3726
   35CHL1   C18 2543   0.496   6.255   3.967 -0.1661 -0.5301  0.3274
   35CHL1  H18A 2544   0.438   6.235   3.875  3.0278 -2.9681 -1.3319
   35CHL1  H18B 2545   0.433   6.226   4.055  0.7474 -2.9793  0.2297
   35CHL1  H18C 2546   0.512   6.365   3.966  2.2372 -0.8086  1.8549
   35CHL1   C12 2547   0.720   6.234   3.856 -0.6016 -0.5225 -0.9153
   35CHL1  H12A 2548   0.730   6.342   3.880  0.1902 -0.7911  0.0451
   35CHL1  H12B 2549   0.815   6.177   3.860  0.0521  0.6029  1.9196
   35CHL1   C11 2550   0.653   6.231   3.715  0.0734  0.5659  0.3002
   35CHL1  H11A 2551   0.568   6.302   3.711 -0.1855  0.2012 -1.4926
   35CHL1  H11B 2552   0.727   6.261   3.638  2.3751 -1.0134  1.7643
   35CHL1    C9 2553   0.605   6.084   3.679 -0.0311  0.1025  0.5780
   35CHL1    H9 2554   0.698   6.025   3.662 -0.2545 -0.3379  0.8564
   35CHL1   C10 2555   0.514   6.094   3.548 -0.3978 -0.1875 -0.7246
   35CHL1   C19 2556   0.397   6.198   3.555 -0.1817  0.0957  0.3137
   35CHL1  H19A 2557   0.324   6.167   3.632 -1.8594 -2.7091 -2.1942
   35CHL1  H19B 2558   0.424   6.305   3.566  0.1359 -0.0387  0.8889
   35CHL1  H19C 2559   0.335   6.184   3.464 -1.1232 -0.7651  1.0812
   35CHL1    C1 2560   0.606   6.128   3.426  0.6870 -0.5405  0.1852
   35CHL1   H1A 2561   0.643   6.233   3.429 -0.5750 -0.0901  0.3387
   35CHL1   H1B 2562   0.691   6.056   3.435  0.5512 -0.6520  0.6090
   35CHL1    C2 2563   0.530   6.108   3.286  0.1950  0.8395  0.1122
   35CHL1   H2A 2564   0.600   6.097   3.201 -0.2343 -2.7968  0.0434
   35CHL1   H2B 2565   0.463   6.196   3.275  1.5392  1.8725  0.0241
   35CHL1   C20 2566   0.684   6.271   4.200  0.0900 -0.2070  1.1643
   35CHL1   H20 2567   0.579   6.300   4.222 -0.1745 -2.7716  3.8799
   35CHL1   C21 2568   0.754   6.400   4.142  0.0382 -0.1478 -0.5738
   35CHL1  H21A 2569   0.706   6.448   4.054  0.9572  0.0143 -0.9986
   35CHL1  H21B 2570   0.859   6.380   4.111  0.3985  0.3890  0.2519
   35CHL1  H21C 2571   0.763   6.471   4.227  1.9136 -0.5477 -0.3797
   35CHL1   C22 2572   0.740   6.241   4.348 -0.0976  0.4880 -0.2568
   35CHL1  H22A 2573   0.720   6.339   4.396 -0.6570 -0.7788  2.2888
   35CHL1  H22B 2574   0.686   6.162   4.405  0.6314  1.6220  2.1375
   35CHL1   C23 2575   0.896   6.213   4.343 -0.1228 -0.4494  0.6749
   35CHL1  H23A 2576   0.936   6.159   4.255  0.4401 -2.4411  2.1026
   35CHL1  H23B 2577   0.951   6.309   4.347  0.8714 -0.8419 -1.7566
   35CHL1   C24 2578   0.933   6.124   4.463 -0.0691 -0.3431 -0.3008
   35CHL1  H24A 2579   0.910   6.169   4.562 -0.0831 -1.4394  0.2083
   35CHL1  H24B 2580   0.883   6.025   4.454  1.5373 -1.0944 -1.5477
   35CHL1   C25 2581   1.077   6.078   4.461  0.1488  0.0136  0.3600
   35CHL1   H25 2582   1.145   6.165   4.459  2.0805 -1.4335  0.0092
   35CHL1   C26 2583   1.117   6.004   4.601 -0.0177 -0.2633  0.4608
   35CHL1  H26A 2584   1.110   6.075   4.686  1.8029  1.0964 -0.4487
   35CHL1  H26B 2585   1.045   5.921   4.618 -0.9501  0.9231  2.6192
   35CHL1  H26C 2586   1.222   5.969   4.598  0.5654  1.1796  2.2019
   35CHL1   C27 2587   1.120   5.974   4.344 -0.1389 -0.4456 -0.3907
   35CHL1  H27A 2588   1.061   5.881   4.334 -0.5375 -0.0944 -1.4870
   35CHL1  H27B 2589   1.110   6.030   4.248 -0.7193  1.0451  0.5121
   35CHL1  H27C 2590   1.228   5.948   4.346 -0.7953 -3.4055  0.1633
   36CHL1    C3 2591   3.380   1.687   2.991 -0.1649  0.0809 -0.1939
   36CHL1    H3 2592   3.373   1.589   3.044 -1.8402 -0.6897 -1.7277
   36CHL1    O3 2593   3.425   1.685   2.854 -0.0991  0.1813 -0.1968
   36CHL1   H3' 2594   3.349   1.662   2.800  1.4768  2.1944 -3.5983
   36CHL1    C4 2595   3.230   1.733   2.989 -0.8678  0.2799  0.2368
   36CHL1   H4A 2596   3.216   1.836   2.951  1.4814  2.2830  4.1560
   36CHL1   H4B 2597   3.163   1.672   2.925 -1.8455  3.1856 -1.7261
   36CHL1    C5 2598   3.176   1.744   3.130 -0.6332 -0.5016 -0.3970
   36CHL1    C6 2599   3.067   1.669   3.170  0.1782 -0.0959  1.0287
   36CHL1    H6 2600   3.017   1.609   3.093 -1.7001  1.1125  1.2471
   36CHL1    C7 2601   3.002   1.665   3.307  0.1182  0.2465  0.0375
   36CHL1   H7A 2602   2.892   1.663   3.290  0.3122 -0.9967 -1.2186
   36CHL1   H7B 2603   3.024   1.569   3.357  1.9650 -0.4002 -1.8761
   36CHL1    C8 2604   3.059   1.778   3.391 -0.7177 -0.5193  0.6350
   36CHL1    H8 2605   3.009   1.872   3.361  0.5476 -0.2664 -0.8375
   36CHL1   C14 2606   3.037   1.752   3.539  0.1239 -0.9863  0.6967
   36CHL1   H14 2607   3.090   1.656   3.559  2.1852 -0.0730 -0.0970
   36CHL1   C15 2608   2.889   1.730   3.588  0.3326 -0.0489  0.3015
   36CHL1  H15A 2609   2.822   1.815   3.561 -1.8985 -0.6090  3.5796
   36CHL1  H15B 2610   2.843   1.635   3.554  2.1645 -0.9458  0.2421
   36CHL1   C16 2611   2.902   1.734   3.740  0.3529 -0.2187 -0.4820
   36CHL1  H16A 2612   2.839   1.817   3.780  0.4696 -0.7304  0.8329
   36CHL1  H16B 2613   2.876   1.639   3.791  0.6307  0.2872  0.6432
   36CHL1   C17 2614   3.054   1.774   3.767  0.3901  0.1691  0.2026
   36CHL1   H17 2615   3.100   1.673   3.763  1.0247  0.4353  0.6787
   36CHL1   C13 2616   3.101   1.842   3.642 -0.1567  0.6520 -0.0703
   36CHL1   C18 2617   3.044   1.989   3.637 -0.6081  0.9491 -0.2483
   36CHL1  H18A 2618   3.033   2.015   3.530 -1.1963 -2.1881 -1.0357
   36CHL1  H18B 2619   2.940   2.003   3.674 -1.0274 -0.0624 -1.0086
   36CHL1  H18C 2620   3.104   2.056   3.703 -0.3820 -0.4293  1.0162
   36CHL1   C12 2621   3.255   1.851   3.620 -0.4472  0.0798 -0.1249
   36CHL1  H12A 2622   3.303   1.922   3.692  0.9490 -1.1076  0.1582
   36CHL1  H12B 2623   3.301   1.752   3.641 -0.6628  0.0796  0.3736
   36CHL1   C11 2624   3.279   1.889   3.472 -0.0886 -0.5323  0.5674
   36CHL1  H11A 2625   3.238   1.991   3.456 -2.0354 -1.1522  1.2741
   36CHL1  H11B 2626   3.389   1.895   3.463 -0.2615  2.2792 -1.1114
   36CHL1    C9 2627   3.213   1.791   3.374 -0.1020  0.0915  0.3829
   36CHL1    H9 2628   3.250   1.689   3.396 -0.3649  0.1539  1.1201
   36CHL1   C10 2629   3.259   1.823   3.231  0.4099  0.0775  0.3893
   36CHL1   C19 2630   3.243   1.977   3.202  0.6736  0.1657 -0.0796
   36CHL1  H19A 2631   3.265   2.001   3.095 -0.2387  1.3379 -0.0250
   36CHL1  H19B 2632   3.142   2.010   3.232  1.4162  2.7166 -0.1323
   36CHL1  H19C 2633   3.315   2.035   3.264 -1.0520  2.5222 -0.1422
   36CHL1    C1 2634   3.409   1.789   3.217 -0.1865  0.0206 -0.4429
   36CHL1   H1A 2635   3.465   1.872   3.264 -1.3989  1.9204 -2.1682
   36CHL1   H1B 2636   3.427   1.693   3.269 -0.0792 -0.5990 -1.5899
   36CHL1    C2 2637   3.460   1.784   3.074 -0.1730  0.3968 -0.1388
   36CHL1   H2A 2638   3.560   1.737   3.075 -0.7134 -0.8458 -1.2692
   36CHL1   H2B 2639   3.461   1.880   3.018 -0.4321  0.2078 -0.4709
   36CHL1   C20 2640   3.073   1.829   3.910  0.2402  0.0165  0.0019
   36CHL1   H20 2641   3.033   1.932   3.908  0.5802  0.1309 -1.3246
   36CHL1   C21 2642   3.219   1.829   3.960  0.3782  0.5932 -0.4180
   36CHL1  H21A 2643   3.284   1.740   3.950 -3.1669 -2.2853  0.0087
   36CHL1  H21B 2644   3.217   1.858   4.068 -0.2206  1.2634 -0.6003
   36CHL1  H21C 2645   3.269   1.914   3.909  0.6800 -0.2722 -1.5889
   36CHL1   C22 2646   2.994   1.761   4.017  0.0993  0.4034 -0.6910
   36CHL1  H22A 2647   2.990   1.822   4.110 -0.8666  0.2888 -0.6475
   36CHL1  H22B 2648   2.886   1.776   3.996 -0.0984  0.9095  0.5862
   36CHL1   C23 2649   3.027   1.616   4.044 -0.1740  0.1206 -1.0224
   36CHL1  H23A 2650   2.987   1.566   3.954 -0.9768 -1.6792  0.2655
   36CHL1  H23B 2651   3.136   1.598   4.039 -0.2241 -0.0296 -1.6711
   36CHL1   C24 2652   2.972   1.564   4.177  0.3705  0.5145  0.2121
   36CHL1  H24A 2653   3.014   1.620   4.264 -0.1004  1.3252 -0.0699
   36CHL1  H24B 2654   2.866   1.594   4.185  0.1275 -0.4678  0.7810
   36CHL1   C25 2655   2.966   1.416   4.186  0.5243  0.5889  0.0572
   36CHL1   H25 2656   2.911   1.367   4.102  1.8915 -0.4184 -0.2793
   36CHL1   C26 2657   3.103   1.355   4.170 -0.4677  0.3324 -0.0870
   36CHL1  H26A 2658   3.146   1.386   4.072 -1.8340  1.3273 -0.4092
   36CHL1  H26B 2659   3.176   1.397   4.242  0.9686  0.3096 -1.4950
   36CHL1  H26C 2660   3.087   1.246   4.185  0.4359  0.5278  2.7553
   36CHL1   C27 2661   2.909   1.373   4.326  0.0557 -1.0398  0.4395
   36CHL1  H27A 2662   2.799   1.365   4.310  0.1109 -1.9131  0.3997
   36CHL1  H27B 2663   2.954   1.281   4.369 -0.9918 -0.7174  2.3029
   36CHL1  H27C 2664   2.938   1.456   4.393  0.9828 -1.5533  0.6881
   37CHL1    C3 2665   5.474   4.351   3.090  0.3859  0.3501  0.2043
   37CHL1    H3 2666   5.380   4.338   3.147 -0.5656  1.0283 -1.1474
   37CHL1    O3 2667   5.450   4.309   2.954 -0.5839  0.2082  0.0484
   37CHL1   H3' 2668   5.518   4.363   2.912 -0.3197  1.2980  1.7840
   37CHL1    C4 2669   5.533   4.493   3.082  0.0366  0.1062  0.2238
   37CHL1   H4A 2670   5.625   4.496   3.020 -0.2600 -1.6692 -0.3681
   37CHL1   H4B 2671   5.471   4.567   3.026  1.9526  0.8311 -1.0300
   37CHL1    C5 2672   5.565   4.548   3.216  0.2223  0.1691 -0.4990
   37CHL1    C6 2673   5.507   4.660   3.263 -0.5029 -0.0081 -0.1830
   37CHL1    H6 2674   5.438   4.718   3.200  0.7797  2.9288  0.9472
   37CHL1    C7 2675   5.537   4.707   3.406 -0.8149  0.0043  0.3929
   37CHL1   H7A 2676   5.549   4.817   3.415  0.7173 -0.0256 -0.8474
   37CHL1   H7B 2677   5.454   4.683   3.475  0.6155 -2.2110  1.4417
   37CHL1    C8 2678   5.668   4.649   3.472  0.8665 -0.3582 -0.7179
   37CHL1    H8 2679   5.758   4.700   3.432  0.8846  0.9266  0.8396
   37CHL1   C14 2680   5.670   4.672   3.617 -0.2713  0.2878 -0.3271
   37CHL1   H14 2681   5.588   4.621   3.674  1.0529 -0.4455  0.9956
   37CHL1   C15 2682   5.665   4.819   3.660  0.0635  0.4750 -0.0656
   37CHL1  H15A 2683   5.736   4.880   3.600 -0.2673  0.0486 -0.9115
   37CHL1  H15B 2684   5.559   4.849   3.651 -1.3079 -1.5291  5.4219
   37CHL1   C16 2685   5.705   4.822   3.808  0.5004 -0.1701 -0.7775
   37CHL1  H16A 2686   5.773   4.910   3.816  1.1583 -0.4939 -2.4410
   37CHL1  H16B 2687   5.612   4.836   3.867  0.2789  1.4080 -1.4332
   37CHL1   C17 2688   5.767   4.679   3.833  0.0832  0.3793  0.4576
   37CHL1   H17 2689   5.688   4.612   3.873 -0.3006 -0.0963 -1.0617
   37CHL1   C13 2690   5.792   4.621   3.691 -0.4411  0.0407  0.2403
   37CHL1   C18 2691   5.919   4.683   3.635 -0.0211  0.3949 -0.0085
   37CHL1  H18A 2692   6.004   4.629   3.683  2.0587  2.2477 -1.4162
   37CHL1  H18B 2693   5.940   4.669   3.526  1.8419  2.1102  0.0754
   37CHL1  H18C 2694   5.935   4.791   3.650 -4.1096  1.4103 -1.5155
   37CHL1   C12 2695   5.782   4.467   3.676 -0.5219 -0.5017  0.0126
   37CHL1  H12A 2696   5.875   4.428   3.722  0.2376  0.6020 -0.5218
   37CHL1  H12B 2697   5.696   4.440   3.740  0.8227 -1.6770  1.3944
   37CHL1   C11 2698   5.763   4.418   3.532  0.0320  0.0041 -0.0086
   37CHL1  H11A 2699   5.857   4.407   3.474 -0.3993  2.0318 -1.1778
   37CHL1  H11B 2700   5.718   4.319   3.558  0.5291 -0.0655  0.6260
   37CHL1    C9 2701   5.659   4.496   3.443  0.7105  0.0391 -0.0643
   37CHL1    H9 2702   5.566   4.460   3.493  0.6442  0.8247  0.3961
   37CHL1   C10 2703   5.659   4.459   3.298 -0.2078  0.0921  0.3466
   37CHL1   C19 2704   5.803   4.466   3.241 -0.4636  0.5922  0.4744
   37CHL1  H19A 2705   5.870   4.384   3.276  0.7082  1.5674  0.6159
   37CHL1  H19B 2706   5.817   4.462   3.131 -1.6191  0.2889  0.3284
   37CHL1  H19C 2707   5.845   4.565   3.270 -1.0859  0.2486  2.7726
   37CHL1    C1 2708   5.618   4.314   3.287  0.5888  0.3010 -0.0378
   37CHL1   H1A 2709   5.688   4.251   3.346  0.7475  0.9493  0.4695
   37CHL1   H1B 2710   5.524   4.310   3.346  0.9534  2.2742  0.7411
   37CHL1    C2 2711   5.584   4.265   3.148  0.0918  0.4436  0.1272
   37CHL1   H2A 2712   5.545   4.162   3.159 -0.9065  0.9632  1.8303
   37CHL1   H2B 2713   5.675   4.251   3.085  1.1660  1.2055  1.4352
   37CHL1   C20 2714   5.888   4.685   3.931  0.7890  0.1639  0.4260
   37CHL1   H20 2715   5.968   4.745   3.881  0.3847  2.2088  2.0632
   37CHL1   C21 2716   5.941   4.546   3.975  0.0591 -0.3657 -0.1210
   37CHL1  H21A 2717   5.864   4.468   3.996  0.3057 -0.7712 -0.7013
   37CHL1  H21B 2718   6.003   4.556   4.067  0.3987 -2.9814  0.0104
   37CHL1  H21C 2719   6.004   4.507   3.892  0.6637 -1.8514  0.9719
   37CHL1   C22 2720   5.861   4.768   4.054  0.1046 -0.5236  0.2197
   37CHL1  H22A 2721   5.948   4.759   4.123  0.1940 -0.0955  0.1658
   37CHL1  H22B 2722   5.858   4.874   4.020  0.8737 -0.7003 -0.4233
   37CHL1   C23 2723   5.736   4.722   4.138 -0.5723 -0.7969 -0.0673
   37CHL1  H23A 2724   5.651   4.780   4.098  1.2970  2.0077 -0.2669
   37CHL1  H23B 2725   5.722   4.612   4.138  0.3822 -0.9288 -0.1501
   37CHL1   C24 2726   5.755   4.763   4.283  0.4778 -0.4459 -0.0190
   37CHL1  H24A 2727   5.684   4.697   4.337 -2.0310  1.4030 -0.8560
   37CHL1  H24B 2728   5.858   4.736   4.316 -0.1582 -0.6960  1.8651
   37CHL1   C25 2729   5.730   4.914   4.322  0.6026 -0.4934  0.0267
   37CHL1   H25 2730   5.800   4.975   4.262  0.9198 -2.6194 -1.8903
   37CHL1   C26 2731   5.582   4.964   4.302 -0.9307  0.2232 -0.0473
   37CHL1  H26A 2732   5.556   4.951   4.195 -0.5528  3.0536 -0.5587
   37CHL1  H26B 2733   5.514   4.905   4.367 -0.7969 -1.6366 -1.5158
   37CHL1  H26C 2734   5.571   5.073   4.322 -1.5499  0.1051  0.2587
   37CHL1   C27 2735   5.765   4.931   4.475  0.3661 -0.0497  0.3239
   37CHL1  H27A 2736   5.700   4.868   4.539  1.0444 -0.3457  0.7313
   37CHL1  H27B 2737   5.869   4.893   4.488  0.7161  1.1468  1.2322
   37CHL1  H27C 2738   5.786   5.035   4.509  0.6068 -0.0537  0.1932
   38CHL1    C3 2739   2.069   4.170   2.783 -0.1838  0.1271  0.3950
   38CHL1    H3 2740   2.146   4.094   2.759 -0.1360  0.1905  0.3481
   38CHL1    O3 2741   2.010   4.219   2.664 -0.2698 -0.1317 -0.4657
   38CHL1   H3' 2742   1.926   4.249   2.700  0.9106  0.9450  1.6413
   38CHL1    C4 2743   1.967   4.082   2.862 -0.8117  0.4249 -0.0985
   38CHL1   H4A 2744   1.893   4.162   2.882 -1.2595 -0.2389  0.9700
   38CHL1   H4B 2745   1.944   4.002   2.788 -0.2327 -0.5416  0.7276
   38CHL1    C5 2746   2.025   4.032   2.999  0.4115  0.5041 -0.3171
   38CHL1    C6 2747   2.049   3.900   3.030  0.6106 -0.2491  0.0279
   38CHL1    H6 2748   2.021   3.817   2.964 -0.1546 -1.2422  1.5542
   38CHL1    C7 2749   2.096   3.848   3.162 -0.4891 -0.1105  1.0464
   38CHL1   H7A 2750   2.020   3.776   3.199 -1.0008  0.3466  0.8901
   38CHL1   H7B 2751   2.203   3.819   3.148  0.0138  2.7868 -2.6791
   38CHL1    C8 2752   2.085   3.963   3.269  0.2803 -0.1822 -0.0337
   38CHL1    H8 2753   1.983   3.981   3.309  0.7139 -0.0411  1.0483
   38CHL1   C14 2754   2.171   3.922   3.394  0.4201 -0.0945  1.3323
   38CHL1   H14 2755   2.273   3.915   3.350 -0.5132 -2.4627 -0.6918
   38CHL1   C15 2756   2.156   3.787   3.467  0.3834 -0.7030  0.2367
   38CHL1  H15A 2757   2.047   3.771   3.480  0.4980 -3.2544 -1.1355
   38CHL1  H15B 2758   2.211   3.700   3.424  0.8070  0.9111 -2.7620
   38CHL1   C16 2759   2.212   3.811   3.611 -0.7171  0.3179  0.1874
   38CHL1  H16A 2760   2.123   3.806   3.678 -1.3106  2.4435 -0.3759
   38CHL1  H16B 2761   2.291   3.738   3.641 -1.0250 -1.0140 -2.0636
   38CHL1   C17 2762   2.263   3.959   3.611 -0.2616  0.2467  0.0099
   38CHL1   H17 2763   2.360   3.938   3.561 -0.3526 -1.3487  0.4285
   38CHL1   C13 2764   2.178   4.034   3.509 -0.4621 -0.6915 -0.7134
   38CHL1   C18 2765   2.038   4.053   3.557 -0.1187  0.2040 -0.3267
   38CHL1  H18A 2766   2.039   4.132   3.635 -0.6182 -0.6601  0.5786
   38CHL1  H18B 2767   1.966   4.085   3.479  0.2047  1.2536 -0.2116
   38CHL1  H18C 2768   2.009   3.966   3.620  2.6706  0.0897  0.9950
   38CHL1   C12 2769   2.242   4.167   3.452  0.0393  0.4028  0.0522
   38CHL1  H12A 2770   2.243   4.253   3.522 -3.1012  1.2559 -0.8180
   38CHL1  H12B 2771   2.345   4.130   3.430 -0.4055 -0.6192 -0.3670
   38CHL1   C11 2772   2.176   4.208   3.322 -0.3831 -0.1525 -0.0437
   38CHL1  H11A 2773   2.081   4.242   3.371  0.0717 -2.2847  2.5837
   38CHL1  H11B 2774   2.226   4.297   3.278  2.3041 -1.4806  0.1615
   38CHL1    C9 2775   2.145   4.097   3.211  0.2730 -0.5790  0.8527
   38CHL1    H9 2776   2.241   4.064   3.168  1.1613  0.5686  1.8754
   38CHL1   C10 2777   2.070   4.153   3.087 -0.6523  0.0405  0.0183
   38CHL1   C19 2778   1.950   4.242   3.129 -0.2653 -0.1868  0.5803
   38CHL1  H19A 2779   1.882   4.193   3.201 -0.1645  0.0869  0.8642
   38CHL1  H19B 2780   1.996   4.335   3.169 -0.2845 -0.1864  0.6008
   38CHL1  H19C 2781   1.890   4.284   3.046 -0.4883 -0.1364  0.7659
   38CHL1    C1 2782   2.173   4.233   2.999 -0.0954 -0.4006 -0.1465
   38CHL1   H1A 2783   2.208   4.322   3.056  1.5573 -0.2645 -1.2904
   38CHL1   H1B 2784   2.266   4.173   2.996 -0.5279 -1.0850 -0.1267
   38CHL1    C2 2785   2.119   4.278   2.864  0.5759 -0.0297  0.2459
   38CHL1   H2A 2786   2.197   4.331   2.806 -0.1647 -0.2328 -0.9845
   38CHL1   H2B 2787   2.035   4.349   2.884 -0.7464 -1.5355  0.2478
   38CHL1   C20 2788   2.287   4.025   3.748  0.1403  0.2934 -0.0341
   38CHL1   H20 2789   2.296   4.136   3.738 -2.2161  0.4544 -1.0252
   38CHL1   C21 2790   2.425   3.977   3.790 -0.2255  0.0596  0.1074
   38CHL1  H21A 2791   2.505   4.024   3.729  0.2580  0.1402  0.7868
   38CHL1  H21B 2792   2.435   3.866   3.791  0.4884  0.0887 -1.3583
   38CHL1  H21C 2793   2.453   4.008   3.893 -1.6866 -2.5863  1.4109
   38CHL1   C22 2794   2.185   3.993   3.861 -0.8348  0.1095  0.1922
   38CHL1  H22A 2795   2.084   4.031   3.834 -0.7099  2.4029  2.4843
   38CHL1  H22B 2796   2.187   3.883   3.879  0.0969 -0.4263 -2.7512
   38CHL1   C23 2797   2.212   4.055   4.000  0.2406 -0.3742  0.2075
   38CHL1  H23A 2798   2.302   4.016   4.052 -0.0470  0.5289  1.4360
   38CHL1  H23B 2799   2.248   4.160   3.986  2.6487 -1.3447 -1.6610
   38CHL1   C24 2800   2.093   4.049   4.095 -0.4165 -0.7479 -0.2753
   38CHL1  H24A 2801   2.114   4.098   4.193 -0.1271 -0.3961 -0.5136
   38CHL1  H24B 2802   2.010   4.100   4.042  0.3647  0.1312 -0.6786
   38CHL1   C25 2803   2.034   3.912   4.137  0.0876 -0.0656  0.5568
   38CHL1   H25 2804   1.993   3.865   4.044  2.0215  0.0063 -0.3785
   38CHL1   C26 2805   2.143   3.805   4.175 -0.4866  0.8471 -0.5030
   38CHL1  H26A 2806   2.201   3.794   4.081 -1.8052 -0.1826 -1.2243
   38CHL1  H26B 2807   2.196   3.836   4.268  0.4180 -2.4308  0.1947
   38CHL1  H26C 2808   2.101   3.705   4.198  2.2653  0.0994  1.9882
   38CHL1   C27 2809   1.929   3.923   4.245 -0.0414  0.3433  0.3168
   38CHL1  H27A 2810   1.870   3.829   4.244 -0.4941  0.5531 -2.3777
   38CHL1  H27B 2811   1.979   3.948   4.341  1.0876  2.1886 -0.6761
   38CHL1  H27C 2812   1.863   4.008   4.214 -1.1052  0.0260  1.6131
   39CHL1    C3 2813   2.155   5.094   2.880 -0.4000  0.2409  1.0288
   39CHL1    H3 2814   2.158   4.984   2.864  0.4760  0.4033 -0.0880
   39CHL1    O3 2815   2.161   5.149   2.750 -0.3470  0.1320  0.2992
   39CHL1   H3' 2816   2.122   5.236   2.764 -1.5536  0.0840 -2.1007
   39CHL1    C4 2817   2.023   5.147   2.946  0.0710  0.2078  0.4509
   39CHL1   H4A 2818   2.014   5.257   2.937 -0.0561  0.0314 -3.3020
   39CHL1   H4B 2819   1.940   5.107   2.883  0.7387 -2.5049  1.1507
   39CHL1    C5 2820   2.016   5.087   3.078 -0.3625  0.2624 -0.2189
   39CHL1    C6 2821   1.918   5.012   3.124  0.4623  0.5752  0.5718
   39CHL1    H6 2822   1.827   5.004   3.063  0.1957 -0.4622  1.0820
   39CHL1    C7 2823   1.892   4.956   3.262 -0.2374  0.3240  0.2185
   39CHL1   H7A 2824   1.788   4.986   3.283 -0.4858 -0.0061 -0.4955
   39CHL1   H7B 2825   1.885   4.845   3.266  0.3636  0.2323 -0.8459
   39CHL1    C8 2826   1.979   5.036   3.359 -0.0089  0.0194 -0.1856
   39CHL1    H8 2827   1.940   5.139   3.373  0.1105  0.0643 -0.1859
   39CHL1   C14 2828   1.978   4.953   3.489 -1.0899  0.5547 -0.3119
   39CHL1   H14 2829   2.000   4.848   3.460  0.2206  1.1637 -1.6654
   39CHL1   C15 2830   1.846   4.950   3.562 -0.0895  0.3658  0.5366
   39CHL1  H15A 2831   1.808   5.054   3.557  3.4898  1.7734 -0.6024
   39CHL1  H15B 2832   1.766   4.892   3.512 -0.5308  0.6480  0.8954
   39CHL1   C16 2833   1.879   4.912   3.709 -0.2230  0.1995 -0.0421
   39CHL1  H16A 2834   1.839   4.995   3.772 -1.8821  0.1571 -0.9956
   39CHL1  H16B 2835   1.836   4.813   3.733 -3.4510  1.6708  0.8115
   39CHL1   C17 2836   2.035   4.908   3.712  0.8560 -0.2551  0.4007
   39CHL1   H17 2837   2.059   4.806   3.676  0.8468 -0.1060 -0.0237
   39CHL1   C13 2838   2.077   5.001   3.601 -0.4379  0.3060  0.1180
   39CHL1   C18 2839   2.048   5.151   3.640 -0.4261  0.3577  0.3425
   39CHL1  H18A 2840   2.124   5.189   3.712 -0.2057 -0.8708  0.7760
   39CHL1  H18B 2841   2.059   5.211   3.547  0.2131  0.1519  0.2805
   39CHL1  H18C 2842   1.948   5.153   3.688 -0.4185 -4.2653  0.9134
   39CHL1   C12 2843   2.222   4.992   3.535  0.0884  0.6134 -0.1252
   39CHL1  H12A 2844   2.295   5.043   3.601 -1.3328  1.5152  0.8157
   39CHL1  H12B 2845   2.247   4.884   3.530  0.1405  0.5450  1.1482
   39CHL1   C11 2846   2.233   5.067   3.406  0.7121  0.3027  0.2498
   39CHL1  H11A 2847   2.234   5.176   3.427  0.5442  0.7460 -1.8392
   39CHL1  H11B 2848   2.335   5.047   3.367  0.3788 -2.3504  0.5492
   39CHL1    C9 2849   2.124   5.039   3.296  0.0660  0.1376 -0.5387
   39CHL1    H9 2850   2.132   4.931   3.274  0.9764 -0.4672  2.3569
   39CHL1   C10 2851   2.141   5.113   3.167 -0.1809 -0.0324 -0.1145
   39CHL1   C19 2852   2.135   5.270   3.196  0.3354  0.8390  0.0302
   39CHL1  H19A 2853   2.126   5.325   3.100 -2.4847 -0.9491 -0.8628
   39CHL1  H19B 2854   2.050   5.292   3.265  0.2489 -0.3583  0.3359
   39CHL1  H19C 2855   2.228   5.310   3.241  0.9064 -0.9226  0.4903
   39CHL1    C1 2856   2.272   5.091   3.096 -0.2095  0.1850  0.5159
   39CHL1   H1A 2857   2.358   5.119   3.160 -0.3553  0.8468  0.4298
   39CHL1   H1B 2858   2.285   4.982   3.076 -3.0289 -0.6336  2.5467
   39CHL1    C2 2859   2.270   5.151   2.952 -0.7983 -0.1487  0.3867
   39CHL1   H2A 2860   2.363   5.129   2.896 -2.6544  0.6545 -3.3057
   39CHL1   H2B 2861   2.254   5.261   2.952 -4.5644 -0.4745  3.4307
   39CHL1   C20 2862   2.087   4.940   3.857 -0.0412 -0.2594  0.3096
   39CHL1   H20 2863   2.052   5.040   3.890  1.8770  0.4010  0.4671
   39CHL1   C21 2864   2.238   4.923   3.859  0.0751 -0.2783 -0.6378
   39CHL1  H21A 2865   2.280   5.012   3.807  1.8604 -0.1147  0.9500
   39CHL1  H21B 2866   2.265   4.827   3.811 -0.1377 -0.3372 -0.6378
   39CHL1  H21C 2867   2.280   4.940   3.961 -0.7640  1.5081 -0.5419
   39CHL1   C22 2868   2.019   4.851   3.963  0.4362  0.3040 -0.1214
   39CHL1  H22A 2869   1.909   4.865   3.965  0.7325  3.1706  2.3894
   39CHL1  H22B 2870   2.051   4.748   3.935  2.6037  0.4020  1.7161
   39CHL1   C23 2871   2.055   4.893   4.106  0.7348 -0.0221 -0.1392
   39CHL1  H23A 2872   2.164   4.877   4.120  0.5995 -0.9456 -0.0975
   39CHL1  H23B 2873   2.029   5.001   4.108  0.6368 -0.0521  0.3767
   39CHL1   C24 2874   1.948   4.834   4.199 -0.1259 -0.7126  0.0466
   39CHL1  H24A 2875   1.851   4.888   4.192  0.3961  0.1652 -0.6284
   39CHL1  H24B 2876   1.914   4.736   4.159 -1.4679 -0.4616  0.5347
   39CHL1   C25 2877   2.004   4.814   4.346 -0.6164 -0.2127  0.5248
   39CHL1   H25 2878   2.084   4.737   4.341 -0.7503 -0.4367  1.5523
   39CHL1   C26 2879   2.070   4.943   4.399  0.1338 -0.2482 -0.5808
   39CHL1  H26A 2880   1.986   5.014   4.418  0.0574 -0.0208 -1.6729
   39CHL1  H26B 2881   2.123   4.920   4.493 -0.9091  0.6621  0.2567
   39CHL1  H26C 2882   2.154   4.979   4.336  2.5319  0.7540  2.9226
   39CHL1   C27 2883   1.902   4.747   4.434 -1.2288 -1.1979 -0.8587
   39CHL1  H27A 2884   1.935   4.745   4.540 -1.1729 -0.5506 -0.8561
   39CHL1  H27B 2885   1.807   4.803   4.450 -1.7946 -2.5288  0.8158
   39CHL1  H27C 2886   1.873   4.649   4.392  2.0644 -2.0884 -1.3008
   40CHL1    C3 2887   6.006   1.740   2.914 -0.2082  0.3328  0.3453
   40CHL1    H3 2888   6.045   1.842   2.935  0.9653  0.1164 -0.6836
   40CHL1    O3 2889   6.017   1.706   2.775 -0.5885  0.4669 -0.0867
   40CHL1   H3' 2890   5.932   1.735   2.740 -1.2924 -0.3621  0.8875
   40CHL1    C4 2891   6.093   1.636   2.992  0.4893 -0.1219  0.1235
   40CHL1   H4A 2892   6.062   1.536   2.955  0.6937 -0.1586  0.0514
   40CHL1   H4B 2893   6.194   1.633   2.948 -1.3932  1.6891 -5.0816
   40CHL1    C5 2894   6.080   1.640   3.144  0.1996 -0.5208  0.4651
   40CHL1    C6 2895   6.186   1.636   3.219 -0.0775 -0.2042  1.0969
   40CHL1    H6 2896   6.287   1.620   3.177 -0.3219  1.0371 -0.0388
   40CHL1    C7 2897   6.176   1.633   3.364 -0.1606 -0.1875  0.2265
   40CHL1   H7A 2898   6.242   1.554   3.407 -1.2251 -1.2548 -0.0640
   40CHL1   H7B 2899   6.214   1.734   3.389  0.8153 -0.8444  1.4845
   40CHL1    C8 2900   6.035   1.618   3.417 -0.1365 -0.1038 -0.3821
   40CHL1    H8 2901   6.004   1.513   3.398 -0.4555 -0.1702  0.4793
   40CHL1   C14 2902   6.040   1.650   3.566 -0.5126  1.0558 -0.2671
   40CHL1   H14 2903   6.064   1.758   3.565 -2.8551  1.7526  2.7110
   40CHL1   C15 2904   6.162   1.581   3.652 -0.2495 -0.3173  0.5274
   40CHL1  H15A 2905   6.168   1.473   3.625  2.2997  0.2693 -1.6723
   40CHL1  H15B 2906   6.258   1.635   3.633 -0.9941  0.5144 -1.0805
   40CHL1   C16 2907   6.113   1.601   3.799 -0.3233 -0.4231  0.2343
   40CHL1  H16A 2908   6.090   1.500   3.838 -1.0532  0.0862  1.1455
   40CHL1  H16B 2909   6.187   1.650   3.865 -1.1211  1.7976 -0.4460
   40CHL1   C17 2910   5.977   1.677   3.785  0.8149 -0.2344  0.5276
   40CHL1   H17 2911   5.998   1.782   3.758 -1.4451 -0.4922 -2.7515
   40CHL1   C13 2912   5.910   1.641   3.646 -0.3616  0.5364  0.1347
   40CHL1   C18 2913   5.852   1.501   3.652 -0.2030  0.4895 -0.6316
   40CHL1  H18A 2914   5.756   1.508   3.708  0.8740  0.2020  1.3653
   40CHL1  H18B 2915   5.823   1.472   3.549  1.7022  2.2916 -1.7407
   40CHL1  H18C 2916   5.922   1.435   3.708 -0.0152 -0.0027 -1.4403
   40CHL1   C12 2917   5.819   1.735   3.576  0.0657  0.2591 -0.0615
   40CHL1  H12A 2918   5.718   1.713   3.616  0.1825 -2.1412 -0.9559
   40CHL1  H12B 2919   5.843   1.844   3.577  0.0753  0.2875 -1.4694
   40CHL1   C11 2920   5.798   1.691   3.427  0.6258  0.9340 -0.4576
   40CHL1  H11A 2921   5.741   1.597   3.413  1.4282  0.6700 -2.2804
   40CHL1  H11B 2922   5.729   1.766   3.383 -1.1521 -0.6652 -0.5060
   40CHL1    C9 2923   5.932   1.698   3.348 -0.0630 -0.1491  0.8516
   40CHL1    H9 2924   5.958   1.806   3.344 -1.2015  0.1308  0.6071
   40CHL1   C10 2925   5.931   1.653   3.189  0.4737  0.6182  0.6180
   40CHL1   C19 2926   5.873   1.513   3.168 -0.3907 -0.2842  0.5549
   40CHL1  H19A 2927   5.871   1.487   3.060  0.4993 -0.1164  0.4915
   40CHL1  H19B 2928   5.925   1.430   3.221  1.1872 -0.0721 -0.5793
   40CHL1  H19C 2929   5.767   1.506   3.199 -1.8388  0.6647 -3.5200
   40CHL1    C1 2930   5.851   1.762   3.112 -0.1050  0.1740 -0.3744
   40CHL1   H1A 2931   5.744   1.754   3.140  0.2977 -0.0729  1.1868
   40CHL1   H1B 2932   5.878   1.864   3.146  2.5053 -1.0506  1.5368
   40CHL1    C2 2933   5.862   1.744   2.962 -0.1759 -0.3958  0.0717
   40CHL1   H2A 2934   5.805   1.818   2.903  1.4461  1.2960  0.5368
   40CHL1   H2B 2935   5.821   1.649   2.923 -1.1423  0.1300 -0.2159
   40CHL1   C20 2936   5.890   1.667   3.906  1.2536 -0.9312 -0.2003
   40CHL1   H20 2937   5.848   1.564   3.914 -2.0444  0.1043 -2.0453
   40CHL1   C21 2938   5.772   1.769   3.892 -0.0199  0.4574  0.1723
   40CHL1  H21A 2939   5.808   1.860   3.839 -0.0357 -0.2478 -1.0881
   40CHL1  H21B 2940   5.727   1.788   3.991  0.1744  0.2617  0.2997
   40CHL1  H21C 2941   5.691   1.724   3.831  1.2610  0.7082 -1.8157
   40CHL1   C22 2942   5.965   1.690   4.043 -0.3972 -0.3542  0.1778
   40CHL1  H22A 2943   5.899   1.670   4.130  0.9147  0.3896  1.3831
   40CHL1  H22B 2944   6.045   1.613   4.044 -1.6327 -1.8409 -2.5475
   40CHL1   C23 2945   6.028   1.826   4.065  0.3579 -0.8474 -1.1616
   40CHL1  H23A 2946   6.123   1.852   4.012  0.5854 -1.3909 -1.0305
   40CHL1  H23B 2947   5.948   1.898   4.040  1.4613 -0.0889 -2.6519
   40CHL1   C24 2948   6.047   1.873   4.219 -0.0454  0.6674  0.2658
   40CHL1  H24A 2949   6.039   1.984   4.223  1.0567  0.7338  3.0525
   40CHL1  H24B 2950   5.963   1.840   4.284 -0.5222  1.3411  0.0094
   40CHL1   C25 2951   6.182   1.854   4.295 -0.7327  0.5791 -0.3326
   40CHL1   H25 2952   6.158   1.874   4.402 -0.4847 -0.5152 -0.0513
   40CHL1   C26 2953   6.228   1.708   4.299 -0.3645  0.0052  0.2951
   40CHL1  H26A 2954   6.261   1.669   4.200 -1.8659  0.0434 -0.2535
   40CHL1  H26B 2955   6.308   1.708   4.375 -2.8231 -0.1392  3.0433
   40CHL1  H26C 2956   6.138   1.652   4.332  0.4172 -0.3503  1.9194
   40CHL1   C27 2957   6.285   1.959   4.258  0.9371  0.2781 -0.4325
   40CHL1  H27A 2958   6.255   2.053   4.310  1.6612 -1.1116  2.7030
   40CHL1  H27B 2959   6.382   1.934   4.306  0.8786 -2.6595 -1.6634
   40CHL1  H27C 2960   6.295   1.978   4.149  1.2686  0.6945 -0.3328
   41CHL1    C3 2961   3.329   6.734   2.607  0.5577  0.1715 -0.2952
   41CHL1    H3 2962   3.266   6.642   2.613 -0.1978  0.7199  0.2748
   41CHL1    O3 2963   3.316   6.795   2.477  0.2391 -0.3046  0.6365
   41CHL1   H3' 2964   3.327   6.890   2.488  2.3236  0.0341 -2.9134
   41CHL1    C4 2965   3.281   6.836   2.712  0.2806 -0.4274 -0.6283
   41CHL1   H4A 2966   3.341   6.927   2.688 -0.5482  0.8555  1.8425
   41CHL1   H4B 2967   3.175   6.855   2.687  0.0471 -1.8905 -0.8814
   41CHL1    C5 2968   3.301   6.786   2.857  0.7492 -0.4679 -0.1785
   41CHL1    C6 2969   3.201   6.768   2.943 -0.7899  0.1140 -0.1618
   41CHL1    H6 2970   3.100   6.801   2.915 -1.1919  0.6260  1.7307
   41CHL1    C7 2971   3.210   6.728   3.089 -0.3609  0.1237  0.4203
   41CHL1   H7A 2972   3.156   6.801   3.153  0.2913  0.9419  0.0618
   41CHL1   H7B 2973   3.184   6.621   3.100 -1.6519  0.3526 -0.1887
   41CHL1    C8 2974   3.357   6.738   3.138 -0.2463  0.0488 -0.8861
   41CHL1    H8 2975   3.395   6.842   3.144  0.6946 -0.1788 -2.2582
   41CHL1   C14 2976   3.373   6.650   3.265 -0.1823 -0.1742  1.0181
   41CHL1   H14 2977   3.349   6.546   3.232  0.1029  0.6110 -1.8591
   41CHL1   C15 2978   3.268   6.666   3.383  0.2758  0.0146  0.3165
   41CHL1  H15A 2979   3.259   6.776   3.396  1.2684 -0.0081  1.3331
   41CHL1  H15B 2980   3.178   6.608   3.352 -0.6919 -0.5055  3.6687
   41CHL1   C16 2981   3.340   6.602   3.500  0.1906 -0.2214 -0.9705
   41CHL1  H16A 2982   3.315   6.647   3.598 -0.1604 -1.9272 -0.2460
   41CHL1  H16B 2983   3.301   6.499   3.511 -1.7265  0.4957 -0.8142
   41CHL1   C17 2984   3.490   6.593   3.465  0.4494  0.3592  0.4883
   41CHL1   H17 2985   3.510   6.488   3.433  0.8273  0.9388 -1.3320
   41CHL1   C13 2986   3.511   6.663   3.335 -0.0840  0.0429 -0.3203
   41CHL1   C18 2987   3.535   6.812   3.363  0.2944  0.4355  0.1391
   41CHL1  H18A 2988   3.454   6.862   3.421  0.1406  1.1516 -0.6848
   41CHL1  H18B 2989   3.629   6.823   3.421  2.2505 -1.6489 -2.3885
   41CHL1  H18C 2990   3.543   6.872   3.271 -0.6698  0.1239 -0.1595
   41CHL1   C12 2991   3.607   6.596   3.234 -0.1942 -0.3898  0.1419
   41CHL1  H12A 2992   3.713   6.616   3.261 -0.2005 -0.3051  0.1037
   41CHL1  H12B 2993   3.588   6.487   3.233  0.3509 -0.4942  0.4763
   41CHL1   C11 2994   3.597   6.655   3.088 -0.2891  0.8011 -0.4404
   41CHL1  H11A 2995   3.642   6.756   3.096  0.0097  0.5724  0.9347
   41CHL1  H11B 2996   3.644   6.594   3.008 -1.1263  1.3410 -1.3693
   41CHL1    C9 2997   3.452   6.674   3.032 -0.6746 -0.6253  0.7721
   41CHL1    H9 2998   3.417   6.571   3.011  1.1115 -1.3095  1.0250
   41CHL1   C10 2999   3.445   6.747   2.894 -0.0640  0.2611  0.5610
   41CHL1   C19 3000   3.527   6.879   2.892  0.2326  0.0873  0.4208
   41CHL1  H19A 3001   3.501   6.939   2.982  0.9521  0.6102  0.2847
   41CHL1  H19B 3002   3.636   6.861   2.896  0.0856 -0.6562  2.1389
   41CHL1  H19C 3003   3.508   6.927   2.794  0.1036  0.9689  0.8717
   41CHL1    C1 3004   3.495   6.647   2.785 -0.1417  0.1683 -0.5893
   41CHL1   H1A 3005   3.601   6.614   2.790 -0.6152 -1.6291 -1.7723
   41CHL1   H1B 3006   3.437   6.553   2.797  2.0525 -1.1186  0.7064
   41CHL1    C2 3007   3.476   6.702   2.639 -0.1569  0.1405  0.0603
   41CHL1   H2A 3008   3.516   6.617   2.579  7.3887  0.9608  2.7612
   41CHL1   H2B 3009   3.543   6.783   2.604  2.2158  0.1811  4.0847
   41CHL1   C20 3010   3.579   6.610   3.584 -0.1383  0.4805  0.0788
   41CHL1   H20 3011   3.566   6.713   3.623 -2.3114 -0.4379  2.0400
   41CHL1   C21 3012   3.723   6.566   3.537 -0.0352 -0.0401  0.5844
   41CHL1  H21A 3013   3.770   6.638   3.467  2.2310 -0.8695  1.1447
   41CHL1  H21B 3014   3.726   6.460   3.503 -0.6868 -0.6139  2.1876
   41CHL1  H21C 3015   3.790   6.572   3.626  1.5199 -0.3386 -0.5277
   41CHL1   C22 3016   3.553   6.533   3.708  0.0481 -0.1704  0.6749
   41CHL1  H22A 3017   3.443   6.538   3.727  0.1859  0.4011  1.3658
   41CHL1  H22B 3018   3.574   6.424   3.695 -0.1354 -0.2688  1.1793
   41CHL1   C23 3019   3.637   6.572   3.832  0.2048 -0.3868 -0.0578
   41CHL1  H23A 3020   3.741   6.605   3.809 -0.7483  1.2089 -2.4157
   41CHL1  H23B 3021   3.583   6.656   3.881  0.3353 -0.6832  0.6070
   41CHL1   C24 3022   3.646   6.464   3.936 -0.7107  0.5101 -0.2941
   41CHL1  H24A 3023   3.539   6.447   3.960 -0.7654  0.6015 -0.4719
   41CHL1  H24B 3024   3.699   6.373   3.898 -0.2980  0.3778  0.5796
   41CHL1   C25 3025   3.722   6.503   4.069 -0.9180 -0.0963 -0.2270
   41CHL1   H25 3026   3.690   6.604   4.102  0.5599  1.3027 -2.7845
   41CHL1   C26 3027   3.674   6.405   4.177 -0.0635 -0.2231 -0.0261
   41CHL1  H26A 3028   3.565   6.389   4.167  0.0425 -1.0415  0.0745
   41CHL1  H26B 3029   3.731   6.310   4.169  2.2544  1.1562 -1.0312
   41CHL1  H26C 3030   3.696   6.445   4.278 -0.7594  2.0336 -0.6974
   41CHL1   C27 3031   3.868   6.480   4.049  0.3590 -0.5727  0.6253
   41CHL1  H27A 3032   3.908   6.552   3.974 -0.1833 -1.0056 -0.1025
   41CHL1  H27B 3033   3.915   6.490   4.149 -0.6394  1.2852  0.9569
   41CHL1  H27C 3034   3.892   6.379   4.009 -0.8401 -1.1661  1.3557
   42CHL1    C3 3035   6.602   3.959   2.639  0.1915  0.2202 -0.0661
   42CHL1    H3 3036   6.511   3.897   2.654  0.5740 -0.6054 -1.0286
   42CHL1    O3 3037   6.628   3.987   2.505  0.6454 -0.4137  0.4626
   42CHL1   H3' 3038   6.634   3.901   2.463 -3.2745  0.0087 -1.4448
   42CHL1    C4 3039   6.591   4.089   2.722  0.8370  0.8905  0.0911
   42CHL1   H4A 3040   6.686   4.144   2.704  1.6251 -0.7143 -0.8789
   42CHL1   H4B 3041   6.511   4.144   2.667 -0.7330 -1.1212  0.2163
   42CHL1    C5 3042   6.568   4.057   2.872 -0.3828  0.1372  0.7680
   42CHL1    C6 3043   6.456   4.091   2.927  0.2309  0.2111  0.3035
   42CHL1    H6 3044   6.378   4.155   2.883  1.5910  2.6766  1.2127
   42CHL1    C7 3045   6.433   4.057   3.073 -0.2131  0.2944 -0.3151
   42CHL1   H7A 3046   6.377   4.138   3.124 -0.9532  0.9114 -2.0195
   42CHL1   H7B 3047   6.361   3.972   3.071 -0.0502  0.1052  1.2504
   42CHL1    C8 3048   6.556   4.004   3.148  0.2921 -0.8957 -0.2766
   42CHL1    H8 3049   6.626   4.090   3.153  0.1535 -0.5957 -2.6248
   42CHL1   C14 3050   6.524   3.963   3.292  0.4064  0.8514 -0.3133
   42CHL1   H14 3051   6.458   3.874   3.291  1.3361  0.1376 -2.1883
   42CHL1   C15 3052   6.438   4.058   3.385  0.3675 -0.4691  1.1175
   42CHL1  H15A 3053   6.469   4.165   3.377 -2.4716  0.3179 -2.0558
   42CHL1  H15B 3054   6.332   4.056   3.351  0.4504 -2.3508  0.9007
   42CHL1   C16 3055   6.455   4.002   3.525 -0.7031 -0.5371  0.0689
   42CHL1  H16A 3056   6.504   4.074   3.593 -1.7227  1.9569 -1.6804
   42CHL1  H16B 3057   6.361   3.969   3.575 -0.4071 -1.0656  0.2885
   42CHL1   C17 3058   6.558   3.886   3.512  0.3503  0.0010  0.0386
   42CHL1   H17 3059   6.499   3.797   3.482  2.0833 -1.2776  0.2668
   42CHL1   C13 3060   6.635   3.916   3.381 -1.1568 -0.7404  0.2981
   42CHL1   C18 3061   6.731   4.032   3.406 -0.9000 -0.5254  0.1207
   42CHL1  H18A 3062   6.687   4.116   3.465  2.0658  0.9359  0.4263
   42CHL1  H18B 3063   6.819   4.000   3.466 -1.0259  0.0271  0.6149
   42CHL1  H18C 3064   6.764   4.080   3.312 -1.1376 -0.1903  0.2076
   42CHL1   C12 3065   6.703   3.802   3.303 -0.3632  0.8323  0.0759
   42CHL1  H12A 3066   6.802   3.774   3.345 -0.3718 -1.4081 -1.2271
   42CHL1  H12B 3067   6.638   3.711   3.302  1.7097 -0.7653 -2.4999
   42CHL1   C11 3068   6.741   3.836   3.158  0.8378  0.7657  0.4378
   42CHL1  H11A 3069   6.820   3.914   3.167  1.4300  0.0013  2.7136
   42CHL1  H11B 3070   6.783   3.742   3.114  2.9014  1.4853  0.7726
   42CHL1    C9 3071   6.621   3.901   3.070 -0.6291  0.7137 -0.9531
   42CHL1    H9 3072   6.548   3.820   3.050 -1.4797  1.1252  0.3577
   42CHL1   C10 3073   6.668   3.961   2.934  0.0791  0.1190 -0.5538
   42CHL1   C19 3074   6.807   4.034   2.955  0.8609  0.3817  0.0538
   42CHL1  H19A 3075   6.837   4.095   2.867 -1.0583  0.4573 -0.5882
   42CHL1  H19B 3076   6.810   4.098   3.046  1.2553 -0.2227  0.4730
   42CHL1  H19C 3077   6.879   3.952   2.973 -1.4364 -1.6010  0.6150
   42CHL1    C1 3078   6.698   3.841   2.838  0.7201  0.1447 -0.1128
   42CHL1   H1A 3079   6.774   3.772   2.881  1.9693  1.1795 -0.6036
   42CHL1   H1B 3080   6.609   3.775   2.833 -0.0213  1.2213 -1.8096
   42CHL1    C2 3081   6.724   3.881   2.689 -0.0162  0.4958 -0.2816
   42CHL1   H2A 3082   6.767   3.802   2.624  0.2768  1.4098 -1.2133
   42CHL1   H2B 3083   6.808   3.951   2.706 -1.6549  2.6167 -0.5181
   42CHL1   C20 3084   6.641   3.852   3.634  0.0898 -0.6773  0.0397
   42CHL1   H20 3085   6.712   3.935   3.655 -0.2966 -0.6710  1.4626
   42CHL1   C21 3086   6.729   3.727   3.593  0.4574  0.2298 -0.7678
   42CHL1  H21A 3087   6.757   3.676   3.688  2.4348 -0.1139 -1.5011
   42CHL1  H21B 3088   6.821   3.752   3.537  0.1260 -0.3272 -1.5775
   42CHL1  H21C 3089   6.666   3.654   3.539 -0.1352  0.6543 -0.6657
   42CHL1   C22 3090   6.558   3.808   3.763 -0.2507  0.8624  0.3619
   42CHL1  H22A 3091   6.471   3.874   3.783 -1.2784 -0.7452  1.5087
   42CHL1  H22B 3092   6.531   3.703   3.738  1.3993  0.9574 -2.0781
   42CHL1   C23 3093   6.651   3.809   3.893 -0.3382 -0.8278  1.3542
   42CHL1  H23A 3094   6.759   3.790   3.872 -0.4068  0.3619 -0.2870
   42CHL1  H23B 3095   6.659   3.913   3.929  5.0721 -0.5275  0.1391
   42CHL1   C24 3096   6.602   3.706   3.990 -0.3279 -0.9346  0.4823
   42CHL1  H24A 3097   6.492   3.703   4.010 -0.8428 -4.8163 -1.8624
   42CHL1  H24B 3098   6.629   3.611   3.940  1.2047  0.2336 -0.9797
   42CHL1   C25 3099   6.671   3.694   4.126 -0.4953 -1.6075 -0.4813
   42CHL1   H25 3100   6.780   3.714   4.125 -0.5416 -1.2940  0.3719
   42CHL1   C26 3101   6.606   3.798   4.222 -0.8728  0.0435  0.6552
   42CHL1  H26A 3102   6.643   3.781   4.326 -2.1003 -2.2719  0.7696
   42CHL1  H26B 3103   6.636   3.898   4.184  1.7720 -1.0821 -0.4723
   42CHL1  H26C 3104   6.495   3.793   4.216 -0.9122 -1.1402  1.7976
   42CHL1   C27 3105   6.652   3.555   4.185 -0.0313  0.3570 -0.4911
   42CHL1  H27A 3106   6.659   3.553   4.296 -2.0722  0.6815 -0.3199
   42CHL1  H27B 3107   6.549   3.529   4.152 -0.7210 -2.0700  3.0421
   42CHL1  H27C 3108   6.712   3.473   4.139 -2.6511 -2.5670  0.9537
   43CHL1    C3 3109   0.531   4.905   3.441 -0.2674 -0.1445  0.3704
   43CHL1    H3 3110   0.592   4.812   3.434  0.2933  0.3376 -2.2398
   43CHL1    O3 3111   0.547   4.962   3.309  0.5720  0.0865  0.0186
   43CHL1   H3' 3112   0.470   4.931   3.260 -0.1415 -2.7012  2.6148
   43CHL1    C4 3113   0.381   4.895   3.482  0.3458 -0.2929  0.2318
   43CHL1   H4A 3114   0.333   4.995   3.475 -0.0827 -0.5541 -0.6288
   43CHL1   H4B 3115   0.332   4.831   3.407  3.5411 -0.3724 -2.0108
   43CHL1    C5 3116   0.373   4.844   3.623  0.4867  0.0308 -0.5643
   43CHL1    C6 3117   0.300   4.734   3.649  0.4574 -0.7118 -0.8173
   43CHL1    H6 3118   0.230   4.708   3.569  1.1399  0.2228 -1.7342
   43CHL1    C7 3119   0.285   4.678   3.795 -0.8061  0.3183  0.7342
   43CHL1   H7A 3120   0.182   4.652   3.829  0.0147 -3.1220  1.0386
   43CHL1   H7B 3121   0.337   4.580   3.808 -0.6937  0.5219  1.9959
   43CHL1    C8 3122   0.339   4.769   3.904  0.2260  0.1867 -0.5761
   43CHL1    H8 3123   0.262   4.847   3.921  0.7053  0.4462  0.5140
   43CHL1   C14 3124   0.366   4.698   4.035  0.2102  0.0510  0.2857
   43CHL1   H14 3125   0.455   4.634   4.019  1.1999  1.2354  0.8524
   43CHL1   C15 3126   0.265   4.596   4.082  0.3501  0.4170  0.3649
   43CHL1  H15A 3127   0.171   4.656   4.074  0.5211  0.7705  0.9158
   43CHL1  H15B 3128   0.252   4.499   4.030  1.6844  2.0457 -3.2982
   43CHL1   C16 3129   0.296   4.568   4.234 -0.1184 -0.3368 -0.3061
   43CHL1  H16A 3130   0.200   4.589   4.285 -0.7373 -0.2709 -1.4537
   43CHL1  H16B 3131   0.334   4.464   4.230 -0.0022 -0.2740 -1.0356
   43CHL1   C17 3132   0.417   4.670   4.266  0.6863 -0.0014 -0.0326
   43CHL1   H17 3133   0.512   4.618   4.246  0.4107 -0.1076 -1.1368
   43CHL1   C13 3134   0.400   4.781   4.151  0.1474 -0.0048  0.4759
   43CHL1   C18 3135   0.280   4.881   4.186 -0.1116  0.5643  0.1791
   43CHL1  H18A 3136   0.260   4.947   4.099 -1.8977  0.0922  0.2091
   43CHL1  H18B 3137   0.191   4.823   4.217  0.1731  1.0240  1.9800
   43CHL1  H18C 3138   0.317   4.947   4.268  0.1736 -1.1110  1.4708
   43CHL1   C12 3139   0.524   4.868   4.120 -0.0351  0.1997 -0.2436
   43CHL1  H12A 3140   0.542   4.932   4.209  0.3628 -0.0031 -0.1765
   43CHL1  H12B 3141   0.617   4.808   4.114  0.0492  0.0334  2.0286
   43CHL1   C11 3142   0.504   4.947   3.988 -0.1374 -0.3274  0.2779
   43CHL1  H11A 3143   0.424   5.023   3.998 -0.0863 -0.3926  1.2063
   43CHL1  H11B 3144   0.606   4.983   3.961 -0.4287  0.0588 -0.3329
   43CHL1    C9 3145   0.466   4.856   3.869 -0.1038  0.4766  0.9829
   43CHL1    H9 3146   0.550   4.783   3.868 -0.5353 -0.0310 -0.0033
   43CHL1   C10 3147   0.464   4.920   3.731  0.6043 -0.5426 -0.7793
   43CHL1   C19 3148   0.404   5.064   3.747  0.1195 -0.6802 -0.1602
   43CHL1  H19A 3149   0.378   5.103   3.646  1.5221 -2.8510 -1.4560
   43CHL1  H19B 3150   0.313   5.065   3.811 -0.7197  1.0671 -1.3017
   43CHL1  H19C 3151   0.472   5.138   3.793 -1.1192  1.0417 -1.0000
   43CHL1    C1 3152   0.606   4.939   3.673 -0.7773  0.1193  0.2962
   43CHL1   H1A 3153   0.672   5.000   3.739  0.0903 -0.9233  0.4085
   43CHL1   H1B 3154   0.657   4.841   3.668 -0.3074  0.3773 -0.0389
   43CHL1    C2 3155   0.609   4.998   3.530  0.0207 -0.0411  0.0384
   43CHL1   H2A 3156   0.711   5.028   3.498 -0.0332 -0.4165 -0.5197
   43CHL1   H2B 3157   0.543   5.087   3.526 -2.0266 -1.4326  1.0368
   43CHL1   C20 3158   0.424   4.714   4.413  0.5583  0.2273 -0.0433
   43CHL1   H20 3159   0.345   4.791   4.427 -1.8065 -1.2663 -3.7234
   43CHL1   C21 3160   0.558   4.781   4.456 -0.5131 -0.6603  0.0231
   43CHL1  H21A 3161   0.562   4.881   4.407 -0.4396 -0.9849 -0.6513
   43CHL1  H21B 3162   0.649   4.723   4.428 -0.9031 -1.0309 -0.4853
   43CHL1  H21C 3163   0.549   4.793   4.566  0.9259  0.8125  0.0216
   43CHL1   C22 3164   0.404   4.598   4.520  0.2545 -0.5034  0.2729
   43CHL1  H22A 3165   0.404   4.648   4.619  0.1652  1.0374 -0.4917
   43CHL1  H22B 3166   0.299   4.565   4.506  0.6361 -1.1605 -1.1915
   43CHL1   C23 3167   0.503   4.487   4.511  0.6703  0.3705  0.2458
   43CHL1  H23A 3168   0.495   4.448   4.408  1.3481  0.8771 -0.0062
   43CHL1  H23B 3169   0.606   4.526   4.526 -0.1241  2.3758  0.8265
   43CHL1   C24 3170   0.502   4.372   4.618 -0.3396 -0.1652  0.3371
   43CHL1  H24A 3171   0.556   4.419   4.702  2.8018  1.0161 -2.1396
   43CHL1  H24B 3172   0.396   4.358   4.650 -0.2633 -1.7121  0.0097
   43CHL1   C25 3173   0.560   4.232   4.573  0.0011 -0.9303  0.3972
   43CHL1   H25 3174   0.558   4.172   4.666  2.3166 -0.1066  1.0479
   43CHL1   C26 3175   0.483   4.161   4.461  0.0473  1.0320  0.1456
   43CHL1  H26A 3176   0.483   4.209   4.361 -2.2925  2.7305  0.8594
   43CHL1  H26B 3177   0.542   4.069   4.445 -0.9028 -0.4039  3.7580
   43CHL1  H26C 3178   0.378   4.151   4.496  0.1834  1.2964  0.6407
   43CHL1   C27 3179   0.715   4.242   4.543  0.2151  0.0883 -0.0763
   43CHL1  H27A 3180   0.748   4.318   4.469 -0.0681  1.0286  0.7472
   43CHL1  H27B 3181   0.777   4.264   4.632  1.2120  1.0775 -0.9816
   43CHL1  H27C 3182   0.756   4.141   4.517 -0.2179 -0.6828  2.0227
   44CHL1    C3 3183   6.014   5.621   3.058  0.2006 -0.3390  1.0574
   44CHL1    H3 3184   5.933   5.692   3.034  0.4635 -0.4522 -0.2446
   44CHL1    O3 3185   6.043   5.540   2.947  0.0202  0.1340  0.3501
   44CHL1   H3' 3186   6.120   5.491   2.976  1.1593  1.7714  0.1464
   44CHL1    C4 3187   6.140   5.697   3.086 -0.5978 -0.1920  0.0049
   44CHL1   H4A 3188   6.221   5.621   3.095 -0.2542 -0.0991 -1.7902
   44CHL1   H4B 3189   6.165   5.765   3.001 -0.6824 -0.3844 -0.1751
   44CHL1    C5 3190   6.133   5.778   3.217 -0.2610  0.2751 -0.3560
   44CHL1    C6 3191   6.154   5.913   3.237  0.1688 -0.4427 -0.1338
   44CHL1    H6 3192   6.177   5.976   3.149 -2.7107  0.7823 -0.1132
   44CHL1    C7 3193   6.161   5.983   3.373  0.5933  0.4520 -0.5046
   44CHL1   H7A 3194   6.250   6.048   3.390  0.3218  0.1096  3.1581
   44CHL1   H7B 3195   6.071   6.048   3.382  1.6195  1.9133 -0.5510
   44CHL1    C8 3196   6.168   5.877   3.492 -0.1465 -0.0295  0.4194
   44CHL1    H8 3197   6.268   5.830   3.478  0.1862  0.7638  0.0986
   44CHL1   C14 3198   6.166   5.951   3.620 -0.0441 -0.1816 -0.4942
   44CHL1   H14 3199   6.077   6.017   3.612 -0.5353 -0.1946  3.2374
   44CHL1   C15 3200   6.271   6.052   3.650 -0.6818  0.6582  0.2260
   44CHL1  H15A 3201   6.372   6.013   3.624  0.3282  2.7824  0.7790
   44CHL1  H15B 3202   6.265   6.147   3.594  1.1862  0.5686 -0.1671
   44CHL1   C16 3203   6.257   6.072   3.797 -0.2383 -1.1873  1.4003
   44CHL1  H16A 3204   6.358   6.060   3.841 -0.0770 -2.4962  0.7201
   44CHL1  H16B 3205   6.229   6.176   3.825  1.0771 -0.2076 -0.6938
   44CHL1   C17 3206   6.151   5.971   3.849 -0.4613  0.1558 -0.0690
   44CHL1   H17 3207   6.049   6.015   3.834 -0.7776 -0.5245  0.0614
   44CHL1   C13 3208   6.153   5.863   3.744  0.5936  0.6089 -0.4301
   44CHL1   C18 3209   6.277   5.773   3.768  0.0997 -0.2333  0.5030
   44CHL1  H18A 3210   6.364   5.838   3.792 -1.0732  1.6002 -0.0850
   44CHL1  H18B 3211   6.269   5.717   3.864 -0.5280 -2.8434 -0.9570
   44CHL1  H18C 3212   6.315   5.705   3.688 -1.1234 -1.6555  1.0713
   44CHL1   C12 3213   6.026   5.780   3.725 -0.6348  0.5154 -0.0435
   44CHL1  H12A 3214   5.998   5.701   3.799  0.7915 -0.7767 -0.8036
   44CHL1  H12B 3215   5.940   5.849   3.716 -0.5059  0.6862  0.0197
   44CHL1   C11 3216   6.034   5.692   3.596  0.1504  0.2045  0.4359
   44CHL1  H11A 3217   6.122   5.625   3.610  0.5360  0.7058  0.4199
   44CHL1  H11B 3218   5.934   5.643   3.600  0.3021 -0.3625 -1.8086
   44CHL1    C9 3219   6.061   5.777   3.471 -0.3451 -0.6774 -0.4954
   44CHL1    H9 3220   5.975   5.841   3.442  1.0429  1.1972 -0.6824
   44CHL1   C10 3221   6.091   5.694   3.345  0.7216  0.4162  0.7608
   44CHL1   C19 3222   6.206   5.597   3.381  0.3853  0.4118  0.1887
   44CHL1  H19A 3223   6.191   5.528   3.467  0.3753  0.7433  0.4570
   44CHL1  H19B 3224   6.222   5.530   3.294  1.6878 -0.7146  1.2647
   44CHL1  H19C 3225   6.304   5.647   3.393  1.3009 -0.7046 -2.0352
   44CHL1    C1 3226   5.965   5.611   3.296 -0.1396 -0.1044 -0.3722
   44CHL1   H1A 3227   5.946   5.543   3.382 -1.8691  0.4174 -0.2952
   44CHL1   H1B 3228   5.868   5.665   3.286 -1.1381 -1.9237 -1.0682
   44CHL1    C2 3229   5.983   5.525   3.171 -0.0852 -0.2160  0.0421
   44CHL1   H2A 3230   5.886   5.477   3.146  0.1999 -1.7800  1.7778
   44CHL1   H2B 3231   6.061   5.449   3.190 -0.8941 -0.5904  2.1300
   44CHL1   C20 3232   6.173   5.934   3.999  0.1436  0.0054  0.6332
   44CHL1   H20 3233   6.270   5.881   4.010  0.4682  0.5863  0.6082
   44CHL1   C21 3234   6.063   5.829   4.041  0.2695 -0.0072  0.4327
   44CHL1  H21A 3235   6.091   5.729   4.003  0.2468 -0.0978  0.6519
   44CHL1  H21B 3236   5.963   5.860   4.004 -0.3114 -1.8040  0.4116
   44CHL1  H21C 3237   6.053   5.815   4.151 -1.0517 -0.7344  0.2405
   44CHL1   C22 3238   6.164   6.061   4.085 -0.2650 -0.1155  0.8889
   44CHL1  H22A 3239   6.186   6.024   4.188  1.1694  2.9550  1.8282
   44CHL1  H22B 3240   6.255   6.124   4.071 -0.3253  0.0401  1.1808
   44CHL1   C23 3241   6.040   6.144   4.089  0.7685 -0.0474  0.1670
   44CHL1  H23A 3242   6.022   6.180   3.985  0.1945 -0.7272  0.0227
   44CHL1  H23B 3243   5.949   6.081   4.098  0.7640  0.1828  2.1252
   44CHL1   C24 3244   6.032   6.266   4.181 -0.7290 -0.0651  1.0052
   44CHL1  H24A 3245   6.102   6.344   4.143 -2.0929  1.2599  1.1302
   44CHL1  H24B 3246   5.930   6.304   4.163 -0.2472  1.2314  0.9009
   44CHL1   C25 3247   6.072   6.237   4.324 -0.1836 -0.9345 -1.4382
   44CHL1   H25 3248   6.171   6.186   4.323  0.2161 -0.1607 -2.2414
   44CHL1   C26 3249   6.083   6.364   4.403 -0.4215  0.1387  0.6184
   44CHL1  H26A 3250   5.988   6.420   4.393 -0.7663 -0.8465 -3.3443
   44CHL1  H26B 3251   6.112   6.348   4.509 -0.0933  0.9800  0.6593
   44CHL1  H26C 3252   6.166   6.417   4.351 -2.3646  2.6422 -0.1512
   44CHL1   C27 3253   5.987   6.138   4.407 -0.2645 -0.2207  0.2684
   44CHL1  H27A 3254   5.890   6.180   4.442 -0.7177 -0.9894 -0.0508
   44CHL1  H27B 3255   5.965   6.043   4.353 -1.9628 -0.1348  0.7660
   44CHL1  H27C 3256   6.044   6.117   4.500 -0.6184  0.9531  0.7747
   45CHL1    C3 3257   5.815   6.235   2.658 -0.1730 -0.3160 -0.2485
   45CHL1    H3 3258   5.919   6.198   2.667 -1.4137 -4.3192 -0.1741
   45CHL1    O3 3259   5.791   6.260   2.522 -0.2422 -0.2829 -0.2790
   45CHL1   H3' 3260   5.695   6.257   2.517 -0.1978  0.2127 -1.9792
   45CHL1    C4 3261   5.714   6.125   2.696 -1.2371 -0.3042 -0.3381
   45CHL1   H4A 3262   5.610   6.162   2.684 -2.1170 -2.4697  0.1049
   45CHL1   H4B 3263   5.730   6.033   2.636  0.7865 -0.5730  0.5402
   45CHL1    C5 3264   5.728   6.101   2.852 -0.2408 -0.1925  0.3305
   45CHL1    C6 3265   5.736   5.977   2.904  0.0985  0.1826  0.1169
   45CHL1    H6 3266   5.744   5.889   2.839  4.5052  0.4162  0.0385
   45CHL1    C7 3267   5.729   5.947   3.055 -1.0938  0.1356 -0.4032
   45CHL1   H7A 3268   5.638   5.889   3.079 -1.1017  0.7204  1.1021
   45CHL1   H7B 3269   5.824   5.896   3.082 -1.8091 -1.8389 -1.4347
   45CHL1    C8 3270   5.705   6.073   3.132  0.0702  0.5171  0.5910
   45CHL1    H8 3271   5.595   6.083   3.125  0.1103  0.9396  0.5514
   45CHL1   C14 3272   5.739   6.052   3.280  0.2180  0.1910  0.0184
   45CHL1   H14 3273   5.850   6.045   3.281  0.6061  4.0540  0.0090
   45CHL1   C15 3274   5.680   5.931   3.351  0.3419 -0.2718 -0.2065
   45CHL1  H15A 3275   5.574   5.930   3.319 -1.1690 -0.0571  4.1907
   45CHL1  H15B 3276   5.727   5.839   3.310  1.0381 -0.0277  0.0271
   45CHL1   C16 3277   5.692   5.964   3.503 -0.1722  0.1030  0.9296
   45CHL1  H16A 3278   5.589   5.960   3.544 -1.1693 -2.2932 -1.5053
   45CHL1  H16B 3279   5.756   5.884   3.545  2.2674  2.4847  2.0552
   45CHL1   C17 3280   5.754   6.106   3.508 -0.1181 -0.7845  0.0096
   45CHL1   H17 3281   5.862   6.083   3.500 -0.6305 -2.8195 -2.7064
   45CHL1   C13 3282   5.711   6.173   3.375  0.3454  0.2090  0.2259
   45CHL1   C18 3283   5.554   6.204   3.380 -0.8033 -1.1027 -0.3991
   45CHL1  H18A 3284   5.494   6.118   3.418 -0.4489 -0.6393  1.3131
   45CHL1  H18B 3285   5.532   6.280   3.458 -0.0628 -0.9117 -0.3746
   45CHL1  H18C 3286   5.524   6.249   3.284 -0.2025 -0.3368 -0.2384
   45CHL1   C12 3287   5.795   6.285   3.318 -0.0266  0.3068 -0.3477
   45CHL1  H12A 3288   5.780   6.380   3.373 -0.7962 -0.1080  0.1745
   45CHL1  H12B 3289   5.904   6.266   3.333 -0.1120  1.0223  1.3896
   45CHL1   C11 3290   5.764   6.324   3.173  1.1076  0.9354 -0.1978
   45CHL1  H11A 3291   5.662   6.365   3.158  0.9535  0.7247  0.2719
   45CHL1  H11B 3292   5.836   6.404   3.145  1.0683  0.7829 -0.7389
   45CHL1    C9 3293   5.776   6.197   3.079 -0.0834  0.6890  0.1026
   45CHL1    H9 3294   5.886   6.185   3.081 -0.1533  0.0084  0.8337
   45CHL1   C10 3295   5.732   6.226   2.937  0.1696  1.2069 -0.1338
   45CHL1   C19 3296   5.587   6.292   2.928 -0.1153  0.1482 -0.0426
   45CHL1  H19A 3297   5.524   6.248   3.009 -0.1229 -0.5691 -0.4302
   45CHL1  H19B 3298   5.591   6.402   2.945  3.4677 -0.1751  2.2470
   45CHL1  H19C 3299   5.535   6.272   2.832  1.5949 -0.0779 -0.9507
   45CHL1    C1 3300   5.832   6.336   2.889 -0.7323  0.0951  0.1010
   45CHL1   H1A 3301   5.822   6.435   2.938  2.4049  0.8336 -0.5556
   45CHL1   H1B 3302   5.935   6.296   2.899 -0.3164  1.2916  0.9075
   45CHL1    C2 3303   5.805   6.362   2.738 -0.2472 -0.6968 -0.2014
   45CHL1   H2A 3304   5.880   6.437   2.706 -1.2659  1.0666  1.3799
   45CHL1   H2B 3305   5.708   6.412   2.717  1.4769  2.8896 -0.2951
   45CHL1   C20 3306   5.728   6.183   3.636 -0.1348  0.0673  0.0916
   45CHL1   H20 3307   5.629   6.232   3.633 -0.1568 -0.0261 -2.3209
   45CHL1   C21 3308   5.825   6.305   3.645 -0.5810  0.3321  0.1256
   45CHL1  H21A 3309   5.928   6.265   3.656  0.0444  1.7785 -0.2685
   45CHL1  H21B 3310   5.804   6.367   3.736  1.6273  1.0857  0.1823
   45CHL1  H21C 3311   5.820   6.369   3.554  1.2078  1.7548  0.9536
   45CHL1   C22 3312   5.737   6.097   3.764  0.4257  0.1999  0.3934
   45CHL1  H22A 3313   5.677   6.003   3.764 -2.2463  1.7821 -1.1628
   45CHL1  H22B 3314   5.844   6.071   3.781 -0.4035 -3.6978  0.5736
   45CHL1   C23 3315   5.684   6.167   3.889  0.0898  0.0906  0.5947
   45CHL1  H23A 3316   5.754   6.251   3.908  0.5139 -0.2081  0.3775
   45CHL1  H23B 3317   5.588   6.217   3.866  0.9833  1.9348  0.7336
   45CHL1   C24 3318   5.667   6.072   4.001 -0.1263 -0.1356 -0.0474
   45CHL1  H24A 3319   5.581   6.005   3.979  1.7598 -1.8691 -2.7846
   45CHL1  H24B 3320   5.752   6.001   4.013 -1.2992 -1.0824  4.9102
   45CHL1   C25 3321   5.664   6.139   4.137 -0.5800  0.2485 -0.5250
   45CHL1   H25 3322   5.738   6.221   4.136 -1.3445  0.9587 -0.1060
   45CHL1   C26 3323   5.535   6.213   4.160  0.0746  0.2280  0.1722
   45CHL1  H26A 3324   5.524   6.288   4.079  3.6481 -0.6404 -1.2968
   45CHL1  H26B 3325   5.447   6.145   4.157  0.9657 -1.3439  3.7613
   45CHL1  H26C 3326   5.523   6.260   4.260  0.4683  0.7508 -0.0218
   45CHL1   C27 3327   5.693   6.034   4.242  0.2815 -0.1789 -0.9234
   45CHL1  H27A 3328   5.779   5.967   4.224 -1.2700 -2.2262 -1.1431
   45CHL1  H27B 3329   5.716   6.082   4.339 -1.3278  0.5814 -0.8728
   45CHL1  H27C 3330   5.602   5.973   4.259  0.0678  0.3824 -0.0193
   46CHL1    C3 3331   3.231   5.996   2.581 -0.3108  0.5670  0.1304
   46CHL1    H3 3332   3.144   5.946   2.627 -0.5598  0.5624 -0.3362
   46CHL1    O3 3333   3.211   5.991   2.438  0.2660 -0.6513 -0.3914
   46CHL1   H3' 3334   3.204   5.897   2.417 -2.8326 -0.7970  0.8522
   46CHL1    C4 3335   3.242   6.138   2.630 -0.6427  0.1373 -0.4304
   46CHL1   H4A 3336   3.320   6.182   2.565 -1.2798  1.7996 -0.1251
   46CHL1   H4B 3337   3.150   6.195   2.608 -0.3846  0.7325 -0.0046
   46CHL1    C5 3338   3.268   6.137   2.782 -0.6349  0.0794 -0.4803
   46CHL1    C6 3339   3.184   6.193   2.869  1.0462 -0.3658 -1.0822
   46CHL1    H6 3340   3.097   6.248   2.829  1.4744 -0.1244 -1.7052
   46CHL1    C7 3341   3.212   6.198   3.018 -0.0085 -0.2656  0.0494
   46CHL1   H7A 3342   3.185   6.298   3.059  2.1662  0.0980  0.7120
   46CHL1   H7B 3343   3.146   6.122   3.066 -2.5695 -0.3526 -3.1826
   46CHL1    C8 3344   3.362   6.157   3.061  0.7410 -0.3018  0.4425
   46CHL1    H8 3345   3.433   6.238   3.038  1.4916 -1.1167 -0.2069
   46CHL1   C14 3346   3.373   6.125   3.205 -0.2266  0.0732 -0.2451
   46CHL1   H14 3347   3.317   6.030   3.218  1.3866 -0.6117  2.7666
   46CHL1   C15 3348   3.312   6.210   3.314 -0.1643  0.1502  0.5410
   46CHL1  H15A 3349   3.301   6.319   3.293  1.2815  0.3308  0.5818
   46CHL1  H15B 3350   3.210   6.171   3.331 -0.3600  0.4211  0.0154
   46CHL1   C16 3351   3.398   6.190   3.435 -0.9256 -0.2229  0.4001
   46CHL1  H16A 3352   3.461   6.281   3.450  1.0802 -1.5152  0.1220
   46CHL1  H16B 3353   3.343   6.183   3.531 -2.1489  0.1950 -0.2546
   46CHL1   C17 3354   3.504   6.076   3.403 -0.3609  0.4328  0.2052
   46CHL1   H17 3355   3.448   5.983   3.425 -1.3574  0.6944 -1.1347
   46CHL1   C13 3356   3.519   6.087   3.249  0.0023  0.2370  0.5919
   46CHL1   C18 3357   3.616   6.203   3.219  0.1453 -0.6149 -0.3274
   46CHL1  H18A 3358   3.620   6.236   3.113 -3.4066  0.7091 -0.1880
   46CHL1  H18B 3359   3.571   6.294   3.263 -0.0461  0.3897 -2.4698
   46CHL1  H18C 3360   3.716   6.180   3.262 -0.8753 -2.7048  1.1479
   46CHL1   C12 3361   3.550   5.953   3.170 -0.6509 -0.2766 -0.1035
   46CHL1  H12A 3362   3.656   5.928   3.194  0.4487  1.6404 -2.5231
   46CHL1  H12B 3363   3.480   5.875   3.207  0.2217 -0.8571  0.3819
   46CHL1   C11 3364   3.532   5.971   3.018 -0.2892  0.6514  0.1775
   46CHL1  H11A 3365   3.620   6.037   2.999 -0.2531  1.2262  2.1295
   46CHL1  H11B 3366   3.553   5.879   2.960 -0.0764  0.6512  0.2538
   46CHL1    C9 3367   3.403   6.039   2.977  0.1397 -0.2470 -0.3921
   46CHL1    H9 3368   3.318   5.969   2.986 -2.2898  2.6416  1.0533
   46CHL1   C10 3369   3.396   6.061   2.818 -0.4510  0.6440 -0.5224
   46CHL1   C19 3370   3.514   6.146   2.771  0.4368  1.0982  0.3316
   46CHL1  H19A 3371   3.520   6.151   2.660 -1.0178 -1.0822  0.0740
   46CHL1  H19B 3372   3.518   6.240   2.830  1.8392 -0.0986  2.2542
   46CHL1  H19C 3373   3.606   6.091   2.800 -0.0430 -0.3087 -0.6827
   46CHL1    C1 3374   3.400   5.923   2.749  0.3307 -0.1548 -0.1651
   46CHL1   H1A 3375   3.506   5.890   2.754  0.3910  0.1429  0.8048
   46CHL1   H1B 3376   3.338   5.853   2.809  0.6756  1.5558  2.3698
   46CHL1    C2 3377   3.361   5.917   2.601 -0.0891 -0.4053  0.1584
   46CHL1   H2A 3378   3.342   5.816   2.561  1.0148 -0.5828  0.0747
   46CHL1   H2B 3379   3.444   5.969   2.549 -0.7318  0.3850 -0.1181
   46CHL1   C20 3380   3.632   6.063   3.498  0.0162 -0.3999  0.2591
   46CHL1   H20 3381   3.678   6.163   3.510 -0.4422  0.0744 -1.5948
   46CHL1   C21 3382   3.747   5.960   3.449  0.1121 -0.7819  0.1029
   46CHL1  H21A 3383   3.723   5.854   3.467  1.2548 -0.9953  0.4851
   46CHL1  H21B 3384   3.842   5.983   3.503 -0.1084  1.7384 -0.4367
   46CHL1  H21C 3385   3.769   5.981   3.342  1.5888 -1.4776  0.2453
   46CHL1   C22 3386   3.601   6.027   3.647  0.1644 -0.1599 -0.1350
   46CHL1  H22A 3387   3.699   6.019   3.698 -0.0892  1.6719  0.7366
   46CHL1  H22B 3388   3.540   6.104   3.699  1.6088 -0.3027  1.8743
   46CHL1   C23 3389   3.530   5.894   3.673  0.0671  0.0641  0.3568
   46CHL1  H23A 3390   3.433   5.907   3.620  0.8332 -0.4124 -1.2106
   46CHL1  H23B 3391   3.587   5.810   3.628  0.7367  0.2069  0.9161
   46CHL1   C24 3392   3.527   5.854   3.824 -0.0106  0.4799 -0.0879
   46CHL1  H24A 3393   3.542   5.944   3.887 -0.2033  0.0565  0.5782
   46CHL1  H24B 3394   3.437   5.800   3.862  1.0685 -0.5242  1.1373
   46CHL1   C25 3395   3.639   5.746   3.859  0.0676 -0.3349  0.0854
   46CHL1   H25 3396   3.612   5.655   3.800  3.0763 -2.4317  1.7112
   46CHL1   C26 3397   3.786   5.786   3.823  0.9899  0.9390 -0.0795
   46CHL1  H26A 3398   3.849   5.697   3.846  2.4062  1.9041 -0.1251
   46CHL1  H26B 3399   3.794   5.798   3.712 -0.0680 -1.0711 -0.4215
   46CHL1  H26C 3400   3.823   5.880   3.868  1.5425  0.5318  0.3359
   46CHL1   C27 3401   3.622   5.712   4.010 -0.3722 -0.3311  0.3920
   46CHL1  H27A 3402   3.613   5.801   4.076  0.6715 -0.0210  0.1354
   46CHL1  H27B 3403   3.529   5.652   4.007 -0.4126 -0.2750  0.5131
   46CHL1  H27C 3404   3.707   5.649   4.044  2.5289  2.6131 -0.8534
   47CHL1    C3 3405   1.446   6.493   2.896 -0.5917 -0.2252 -0.2011
   47CHL1    H3 3406   1.443   6.383   2.910 -1.6603 -0.2269 -0.4357
   47CHL1    O3 3407   1.411   6.530   2.763 -0.3347 -0.0266 -0.8083
   47CHL1   H3' 3408   1.428   6.624   2.759  0.6800 -0.1596 -0.2737
   47CHL1    C4 3409   1.341   6.554   2.996 -0.0363  0.0861  0.4082
   47CHL1   H4A 3410   1.339   6.661   2.964 -0.0244 -0.5482 -1.8970
   47CHL1   H4B 3411   1.245   6.505   2.970  0.0013  0.9248 -1.5096
   47CHL1    C5 3412   1.371   6.536   3.140  0.1396 -1.0223 -0.1047
   47CHL1    C6 3413   1.279   6.499   3.225  0.1098  0.1229  0.4367
   47CHL1    H6 3414   1.174   6.484   3.195  0.6418 -0.5063 -1.2543
   47CHL1    C7 3415   1.304   6.468   3.369  0.5177  0.4905 -0.2921
   47CHL1   H7A 3416   1.221   6.508   3.432  2.4923  0.6363  2.4252
   47CHL1   H7B 3417   1.315   6.358   3.374 -1.0958  0.3552  1.7447
   47CHL1    C8 3418   1.436   6.518   3.419  0.6975 -0.4803  0.2152
   47CHL1    H8 3419   1.428   6.628   3.434  1.5142 -0.4557  0.5362
   47CHL1   C14 3420   1.469   6.459   3.550  0.9422 -1.0457 -0.0517
   47CHL1   H14 3421   1.479   6.349   3.540 -2.2618 -1.5367  0.9726
   47CHL1   C15 3422   1.358   6.465   3.667  0.1992  0.0545 -0.0540
   47CHL1  H15A 3423   1.293   6.554   3.655  0.7686  0.2229 -2.4991
   47CHL1  H15B 3424   1.303   6.368   3.666  1.6232 -0.8382  1.9159
   47CHL1   C16 3425   1.441   6.449   3.796 -0.1826  0.2956  0.1323
   47CHL1  H16A 3426   1.430   6.546   3.847 -0.2736  0.9797 -1.1485
   47CHL1  H16B 3427   1.424   6.356   3.854 -1.9229  1.3230  1.3459
   47CHL1   C17 3428   1.592   6.443   3.747  0.6236  0.0078  0.4995
   47CHL1   H17 3429   1.616   6.336   3.725  1.4341  0.0853  0.9451
   47CHL1   C13 3430   1.596   6.515   3.609  0.7927  0.1032  0.1390
   47CHL1   C18 3431   1.590   6.667   3.631  0.5300 -0.4809  0.1416
   47CHL1  H18A 3432   1.683   6.698   3.682 -0.2178  0.5983  0.8920
   47CHL1  H18B 3433   1.578   6.728   3.539  0.2544  1.6510  1.5284
   47CHL1  H18C 3434   1.498   6.701   3.684  0.2486  3.3348 -2.3913
   47CHL1   C12 3435   1.718   6.478   3.519 -0.2410 -0.3972  1.1132
   47CHL1  H12A 3436   1.814   6.523   3.553  0.6877  1.6166 -3.4851
   47CHL1  H12B 3437   1.731   6.368   3.514 -0.3927 -0.4484  1.6772
   47CHL1   C11 3438   1.692   6.527   3.375 -0.0618 -0.4947 -0.1074
   47CHL1  H11A 3439   1.712   6.636   3.381 -2.1268 -0.1379  1.0673
   47CHL1  H11B 3440   1.769   6.492   3.303 -1.4004 -0.5046 -1.5821
   47CHL1    C9 3441   1.547   6.488   3.314 -0.2521  0.2557  0.8495
   47CHL1    H9 3442   1.552   6.377   3.314  0.6390  0.2660 -0.5849
   47CHL1   C10 3443   1.517   6.556   3.179  0.4626  0.0339 -0.3632
   47CHL1   C19 3444   1.546   6.707   3.185 -0.3756 -0.6137  0.0582
   47CHL1  H19A 3445   1.483   6.762   3.258  0.4988  0.4040  0.0796
   47CHL1  H19B 3446   1.653   6.731   3.200 -1.1641  3.1509  0.5184
   47CHL1  H19C 3447   1.525   6.760   3.090  1.3837  1.2606  0.6413
   47CHL1    C1 3448   1.617   6.500   3.072 -0.1941  0.4253 -1.0149
   47CHL1   H1A 3449   1.716   6.540   3.101 -0.9298 -0.4674  3.4975
   47CHL1   H1B 3450   1.621   6.390   3.089 -0.2836  0.6436  0.5939
   47CHL1    C2 3451   1.584   6.537   2.928 -0.3286  0.5719 -0.3128
   47CHL1   H2A 3452   1.663   6.487   2.867 -2.4956 -0.4526 -2.4148
   47CHL1   H2B 3453   1.597   6.646   2.911  0.7741  0.3690 -0.8908
   47CHL1   C20 3454   1.715   6.486   3.841  0.1885  1.3716 -0.4104
   47CHL1   H20 3455   1.776   6.567   3.795  2.9541  0.4765  1.4391
   47CHL1   C21 3456   1.811   6.367   3.866  0.3457 -0.0515  0.4409
   47CHL1  H21A 3457   1.831   6.333   3.763 -0.0033  1.1886 -0.0582
   47CHL1  H21B 3458   1.758   6.286   3.921  1.9228 -0.8362  0.8615
   47CHL1  H21C 3459   1.913   6.389   3.903  0.7410 -1.0304 -0.0371
   47CHL1   C22 3460   1.666   6.546   3.978 -0.0758  0.1657  0.0901
   47CHL1  H22A 3461   1.579   6.615   3.973 -1.4221 -1.4968 -0.3167
   47CHL1  H22B 3462   1.623   6.464   4.040 -3.2423  1.8805  0.3930
   47CHL1   C23 3463   1.787   6.600   4.058  0.1098  0.1340  1.1379
   47CHL1  H23A 3464   1.857   6.516   4.080  0.2800 -0.5522 -1.6808
   47CHL1  H23B 3465   1.837   6.673   3.992  0.1066 -0.1959  0.7657
   47CHL1   C24 3466   1.753   6.700   4.166  0.8704  0.7902  0.0034
   47CHL1  H24A 3467   1.846   6.760   4.181  1.4898 -0.1513 -0.0295
   47CHL1  H24B 3468   1.669   6.765   4.133  0.6760  0.0531 -0.9894
   47CHL1   C25 3469   1.714   6.635   4.298 -0.3597 -0.3054 -0.4265
   47CHL1   H25 3470   1.605   6.612   4.293 -0.4033  0.0140 -1.0160
   47CHL1   C26 3471   1.791   6.511   4.330 -0.3678 -0.9460 -0.1495
   47CHL1  H26A 3472   1.901   6.522   4.338 -0.4643  0.4229 -0.3757
   47CHL1  H26B 3473   1.760   6.476   4.431 -0.9532  0.3492  0.1439
   47CHL1  H26C 3474   1.769   6.429   4.259  1.5135 -0.8809 -0.8536
   47CHL1   C27 3475   1.734   6.733   4.424  0.2156 -0.1292  0.7975
   47CHL1  H27A 3476   1.685   6.830   4.405  1.3268 -0.1114 -2.7377
   47CHL1  H27B 3477   1.680   6.686   4.509 -0.7504 -1.4621 -0.4971
   47CHL1  H27C 3478   1.842   6.746   4.447  1.5781 -0.9486 -4.0741
   48CHL1    C3 3479   6.276   3.502   3.054 -0.3124 -0.2949  0.2386
   48CHL1    H3 3480   6.166   3.517   3.054 -0.5295 -1.4573 -2.1308
   48CHL1    O3 3481   6.325   3.506   2.923 -0.1234 -0.4288 -0.2704
   48CHL1   H3' 3482   6.341   3.599   2.908  0.0688 -0.2671  0.8647
   48CHL1    C4 3483   6.343   3.609   3.142 -0.0315  0.9623 -0.3281
   48CHL1   H4A 3484   6.453   3.608   3.128  0.0696 -0.9119  0.2781
   48CHL1   H4B 3485   6.300   3.702   3.100 -0.0723  2.0717  2.0003
   48CHL1    C5 3486   6.311   3.593   3.289 -0.7752 -0.7146 -0.4876
   48CHL1    C6 3487   6.263   3.693   3.356  0.8943  0.0423 -0.1049
   48CHL1    H6 3488   6.246   3.784   3.296 -1.0944  0.5290  1.1296
   48CHL1    C7 3489   6.215   3.676   3.498  0.7707  0.3593 -0.3324
   48CHL1   H7A 3490   6.249   3.766   3.553 -1.2124  1.0220 -0.1038
   48CHL1   H7B 3491   6.105   3.663   3.507  0.8312  1.1341  3.3095
   48CHL1    C8 3492   6.276   3.553   3.575  0.2607  0.6717  0.0888
   48CHL1    H8 3493   6.383   3.572   3.596  0.0028  1.0442  1.0794
   48CHL1   C14 3494   6.210   3.531   3.706 -0.5944 -0.1911 -0.2199
   48CHL1   H14 3495   6.103   3.517   3.679 -0.4940  0.1058 -0.7670
   48CHL1   C15 3496   6.202   3.642   3.820  0.4218 -0.1027 -0.4771
   48CHL1  H15A 3497   6.300   3.693   3.835  1.3344 -1.4376 -1.5718
   48CHL1  H15B 3498   6.131   3.716   3.778  0.1113 -0.7748 -1.1689
   48CHL1   C16 3499   6.154   3.564   3.937 -0.4783 -0.3337  0.6340
   48CHL1  H16A 3500   6.220   3.569   4.025  0.9600  0.2973 -0.4368
   48CHL1  H16B 3501   6.051   3.583   3.976 -0.5923 -2.4667  1.4808
   48CHL1   C17 3502   6.157   3.412   3.897 -0.9888 -0.1779  0.6767
   48CHL1   H17 3503   6.055   3.390   3.859 -1.5538 -2.3932  3.1459
   48CHL1   C13 3504   6.251   3.402   3.779  0.1046 -0.0828 -0.1026
   48CHL1   C18 3505   6.403   3.399   3.822  0.1335  0.6578  0.7315
   48CHL1  H18A 3506   6.459   3.425   3.729 -0.6529 -0.2469 -0.0219
   48CHL1  H18B 3507   6.427   3.480   3.893  0.7758  3.1452 -2.1275
   48CHL1  H18C 3508   6.431   3.298   3.859  1.2934  0.6673 -0.0782
   48CHL1   C12 3509   6.224   3.276   3.693  0.4080 -1.4581 -0.6447
   48CHL1  H12A 3510   6.252   3.178   3.737  0.1204 -1.8992 -1.4263
   48CHL1  H12B 3511   6.118   3.270   3.662  0.3958 -1.6718 -0.5634
   48CHL1   C11 3512   6.296   3.295   3.551 -0.3941  0.5568 -1.4202
   48CHL1  H11A 3513   6.404   3.288   3.575  0.0776  2.5185 -2.8285
   48CHL1  H11B 3514   6.265   3.206   3.491  0.9318 -1.5697  0.8282
   48CHL1    C9 3515   6.261   3.426   3.480 -0.3405  0.2180 -0.3944
   48CHL1    H9 3516   6.154   3.427   3.453 -0.0043 -0.1674 -1.8297
   48CHL1   C10 3517   6.334   3.449   3.342 -0.3952 -0.3756  0.0126
   48CHL1   C19 3518   6.486   3.422   3.359 -0.3591  0.5895  0.3425
   48CHL1  H19A 3519   6.508   3.315   3.379  0.1254  0.1186 -2.3409
   48CHL1  H19B 3520   6.536   3.430   3.260 -0.6330  0.0376  0.1540
   48CHL1  H19C 3521   6.539   3.499   3.420  0.4911  0.7921 -0.6229
   48CHL1    C1 3522   6.267   3.345   3.247 -0.7162 -0.2623 -0.9252
   48CHL1   H1A 3523   6.305   3.244   3.273 -2.6032 -1.4976 -2.6716
   48CHL1   H1B 3524   6.156   3.348   3.254 -0.6790  1.0668 -0.6726
   48CHL1    C2 3525   6.299   3.366   3.103 -0.8878  0.6773  0.0082
   48CHL1   H2A 3526   6.242   3.285   3.054  0.8756 -1.1686  0.8789
   48CHL1   H2B 3527   6.401   3.326   3.088 -0.7498 -0.1206  2.6298
   48CHL1   C20 3528   6.175   3.312   4.020  0.2458 -0.7441  1.0342
   48CHL1   H20 3529   6.192   3.206   3.994 -2.7034 -1.2502  0.8487
   48CHL1   C21 3530   6.036   3.313   4.093 -1.0178  0.6671  0.4650
   48CHL1  H21A 3531   6.041   3.237   4.175  1.8204 -0.4404 -0.6301
   48CHL1  H21B 3532   5.959   3.282   4.019 -1.4694  2.8995 -0.0609
   48CHL1  H21C 3533   6.006   3.414   4.128 -0.6516  1.7835 -2.2655
   48CHL1   C22 3534   6.281   3.346   4.124 -0.4868  0.4323 -0.0917
   48CHL1  H22A 3535   6.373   3.385   4.075 -0.3396  0.9793  0.6043
   48CHL1  H22B 3536   6.227   3.422   4.185 -0.9462  1.8868 -2.2054
   48CHL1   C23 3537   6.326   3.225   4.207  0.5136  0.0283  0.6112
   48CHL1  H23A 3538   6.255   3.204   4.290  0.9929 -3.5701  0.2848
   48CHL1  H23B 3539   6.325   3.142   4.133 -1.5339 -1.3057  2.0271
   48CHL1   C24 3540   6.461   3.254   4.268 -0.4234  1.0025  0.3607
   48CHL1  H24A 3541   6.523   3.285   4.181 -0.0583  0.8796  0.5756
   48CHL1  H24B 3542   6.455   3.337   4.341  1.1147  0.1934  1.4606
   48CHL1   C25 3543   6.534   3.149   4.360 -0.1648  0.3190 -0.5536
   48CHL1   H25 3544   6.461   3.087   4.416 -1.7670  1.9750 -0.7413
   48CHL1   C26 3545   6.616   3.062   4.265  0.0564  0.6238 -0.4510
   48CHL1  H26A 3546   6.704   3.122   4.231 -0.5740  1.2511 -1.0066
   48CHL1  H26B 3547   6.648   2.962   4.302  0.4123  0.7003 -0.5420
   48CHL1  H26C 3548   6.559   3.032   4.175  3.1871 -2.1476 -1.7288
   48CHL1   C27 3549   6.627   3.211   4.460 -0.6615  0.1404  0.7505
   48CHL1  H27A 3550   6.566   3.252   4.543 -3.6207 -0.4469 -1.0057
   48CHL1  H27B 3551   6.704   3.141   4.501  0.6338  1.3179  0.4241
   48CHL1  H27C 3552   6.696   3.290   4.423 -1.4173  0.6979  0.5088
   49CHL1    C3 3553   6.572   0.445   2.795 -0.5795  0.2159  0.2830
   49CHL1    H3 3554   6.673   0.486   2.813 -1.5276  3.5899 -1.4294
   49CHL1    O3 3555   6.541   0.474   2.659  0.4774  1.0486  0.2298
   49CHL1   H3' 3556   6.467   0.418   2.634  0.4337 -0.0375  2.5388
   49CHL1    C4 3557   6.571   0.299   2.820  0.3545  0.7511 -0.2522
   49CHL1   H4A 3558   6.472   0.251   2.804  0.1126  1.0119  0.4476
   49CHL1   H4B 3559   6.625   0.257   2.732 -0.6289  1.4156 -1.1968
   49CHL1    C5 3560   6.613   0.262   2.960 -0.3139 -0.9860  0.3338
   49CHL1    C6 3561   6.717   0.186   2.992 -0.1900 -0.8878 -0.7531
   49CHL1    H6 3562   6.778   0.147   2.908  1.2474 -1.1496  0.3808
   49CHL1    C7 3563   6.752   0.134   3.129 -0.7188  0.9339  0.1583
   49CHL1   H7A 3564   6.747   0.023   3.127 -1.5654  0.9386  1.3309
   49CHL1   H7B 3565   6.855   0.162   3.160 -0.3055 -1.1347  0.8199
   49CHL1    C8 3566   6.646   0.179   3.229 -0.3798 -0.0279 -0.4587
   49CHL1    H8 3567   6.568   0.100   3.232  1.7375 -2.2031  0.8910
   49CHL1   C14 3568   6.708   0.180   3.367 -0.1648 -0.3009 -0.0463
   49CHL1   H14 3569   6.790   0.255   3.366 -0.2183 -0.2372  0.2648
   49CHL1   C15 3570   6.768   0.050   3.414 -0.0956 -0.1393  0.1146
   49CHL1  H15A 3571   6.709  -0.036   3.377  0.1206 -0.4339  0.4514
   49CHL1  H15B 3572   6.872   0.031   3.378 -1.0207  0.6601 -3.3936
   49CHL1   C16 3573   6.753   0.060   3.568  0.3829  0.0528  0.7231
   49CHL1  H16A 3574   6.686  -0.021   3.605 -0.9288  1.4026  1.4203
   49CHL1  H16B 3575   6.854   0.060   3.614  0.4806  1.9786  0.5886
   49CHL1   C17 3576   6.691   0.199   3.601  0.3219 -0.1779  0.7275
   49CHL1   H17 3577   6.779   0.266   3.601 -1.0539  1.7225  1.7124
   49CHL1   C13 3578   6.606   0.229   3.477  0.1801 -0.2711  0.2832
   49CHL1   C18 3579   6.478   0.137   3.495  0.2631  0.4213  0.0822
   49CHL1  H18A 3580   6.388   0.193   3.529  0.3834 -0.2655  1.5954
   49CHL1  H18B 3581   6.449   0.099   3.395 -1.3144 -0.7253  0.9358
   49CHL1  H18C 3582   6.504   0.053   3.563 -0.3034  1.0277  1.0642
   49CHL1   C12 3583   6.566   0.377   3.449  0.4376  0.7165  0.4656
   49CHL1  H12A 3584   6.496   0.412   3.528  0.3587 -0.7261  1.0563
   49CHL1  H12B 3585   6.655   0.444   3.445 -0.9380  2.8392  2.6524
   49CHL1   C11 3586   6.500   0.384   3.311  0.2368 -0.6873 -0.6124
   49CHL1  H11A 3587   6.400   0.338   3.321  0.1832 -0.6412 -0.9410
   49CHL1  H11B 3588   6.491   0.492   3.283  0.0228 -0.9268 -1.4985
   49CHL1    C9 3589   6.587   0.317   3.196 -1.1245 -0.4805 -0.3678
   49CHL1    H9 3590   6.676   0.383   3.195 -1.8642  0.6296  1.6334
   49CHL1   C10 3591   6.520   0.331   3.057 -1.0372  0.7196  0.4072
   49CHL1   C19 3592   6.389   0.245   3.068  0.1174  0.2453 -0.5399
   49CHL1  H19A 3593   6.412   0.138   3.088  0.9571  0.4653 -0.2833
   49CHL1  H19B 3594   6.319   0.269   3.150  1.5123 -1.1089  1.1143
   49CHL1  H19C 3595   6.346   0.265   2.967  2.3350 -0.7626 -1.7697
   49CHL1    C1 3596   6.488   0.478   3.023 -0.0403 -0.1221  0.0905
   49CHL1   H1A 3597   6.405   0.506   3.091 -0.2774 -0.1465 -0.1852
   49CHL1   H1B 3598   6.577   0.537   3.053  1.6515 -2.1235 -0.7248
   49CHL1    C2 3599   6.465   0.514   2.880 -0.1745  0.0156  0.1788
   49CHL1   H2A 3600   6.460   0.625   2.874 -2.7590 -0.0845 -1.0231
   49CHL1   H2B 3601   6.367   0.471   2.849  0.6336  0.5832 -3.6407
   49CHL1   C20 3602   6.637   0.207   3.751 -0.3099  0.4455 -0.3703
   49CHL1   H20 3603   6.541   0.152   3.762  1.4288 -2.6327  0.6199
   49CHL1   C21 3604   6.620   0.355   3.793 -0.1982  0.2091  0.4713
   49CHL1  H21A 3605   6.720   0.401   3.783  0.6839 -1.6561  0.3095
   49CHL1  H21B 3606   6.585   0.374   3.896  1.3323  1.0519  0.8673
   49CHL1  H21C 3607   6.541   0.398   3.727 -0.5612 -1.9644 -0.5794
   49CHL1   C22 3608   6.742   0.142   3.842  0.1099  0.0624  0.1541
   49CHL1  H22A 3609   6.751   0.035   3.813  0.5096 -0.0949  0.8438
   49CHL1  H22B 3610   6.837   0.195   3.821  0.2544  0.0048  0.6749
   49CHL1   C23 3611   6.719   0.151   3.994 -0.1871  0.3407  0.3729
   49CHL1  H23A 3612   6.800   0.101   4.052 -0.1040  0.0944  0.0469
   49CHL1  H23B 3613   6.733   0.257   4.024  3.3401  0.5606 -1.5001
   49CHL1   C24 3614   6.591   0.077   4.048 -0.1485 -0.0197  0.2879
   49CHL1  H24A 3615   6.504   0.121   3.995  0.6840  0.1721 -0.9663
   49CHL1  H24B 3616   6.604  -0.031   4.025  1.6029  0.3273 -0.5289
   49CHL1   C25 3617   6.581   0.085   4.208  0.7582 -0.1711  0.4786
   49CHL1   H25 3618   6.685   0.079   4.248  1.2310 -0.1462 -0.6970
   49CHL1   C26 3619   6.524   0.218   4.251 -0.2922 -0.2296 -0.2799
   49CHL1  H26A 3620   6.414   0.229   4.243 -0.6649 -0.5765  3.0275
   49CHL1  H26B 3621   6.535   0.227   4.361 -0.1183 -0.6603 -0.2595
   49CHL1  H26C 3622   6.565   0.308   4.201 -0.3310 -0.9689 -1.6822
   49CHL1   C27 3623   6.493  -0.023   4.265 -0.6307 -0.4387  0.6694
   49CHL1  H27A 3624   6.411  -0.047   4.195 -1.3310  0.5513  1.1360
   49CHL1  H27B 3625   6.555  -0.115   4.259 -0.0691  0.0221 -1.1620
   49CHL1  H27C 3626   6.470  -0.001   4.372  0.9911  3.3900  0.3915
   50CHL1    C3 3627   4.511   1.290   2.740  0.2913 -0.1200  0.2757
   50CHL1    H3 3628   4.433   1.211   2.751  0.5747 -0.6788 -1.4180
   50CHL1    O3 3629   4.528   1.315   2.605  0.2596  0.7679  0.5014
   50CHL1   H3' 3630   4.616   1.350   2.584  0.1576  0.5928 -0.2503
   50CHL1    C4 3631   4.451   1.419   2.796 -0.6766 -0.0180  0.1476
   50CHL1   H4A 3632   4.520   1.504   2.775  0.0810 -0.0439  2.3184
   50CHL1   H4B 3633   4.358   1.440   2.739 -0.4800  3.0427  0.7538
   50CHL1    C5 3634   4.439   1.416   2.943  0.1892 -0.5350  0.2853
   50CHL1    C6 3635   4.322   1.447   2.998 -0.6317 -1.5624 -0.0243
   50CHL1    H6 3636   4.248   1.497   2.934  1.1924  0.1688 -0.8787
   50CHL1    C7 3637   4.304   1.444   3.145 -0.4453 -0.5668  0.1645
   50CHL1   H7A 3638   4.240   1.531   3.174  0.1447 -0.2443  0.5256
   50CHL1   H7B 3639   4.254   1.350   3.177  1.3882 -1.6031  0.1118
   50CHL1    C8 3640   4.442   1.439   3.222  0.3281 -0.6272  0.6063
   50CHL1    H8 3641   4.493   1.538   3.216 -0.2941 -0.3598 -0.5039
   50CHL1   C14 3642   4.420   1.405   3.369 -0.0347  0.1539  0.8977
   50CHL1   H14 3643   4.388   1.299   3.362 -1.3788  0.6211 -0.7569
   50CHL1   C15 3644   4.300   1.470   3.444 -0.5611 -0.2546  0.0632
   50CHL1  H15A 3645   4.299   1.578   3.415  2.2406 -0.1360  0.1674
   50CHL1  H15B 3646   4.210   1.427   3.394 -1.5607  1.4352  0.3072
   50CHL1   C16 3647   4.335   1.447   3.587 -0.0263 -0.6246  0.0547
   50CHL1  H16A 3648   4.320   1.539   3.648 -1.4642 -1.3969  0.9347
   50CHL1  H16B 3649   4.258   1.375   3.622  2.1717 -3.3775 -0.4429
   50CHL1   C17 3650   4.470   1.375   3.593 -0.2666  0.1146 -0.1571
   50CHL1   H17 3651   4.452   1.265   3.586  2.3170 -0.4243  0.3091
   50CHL1   C13 3652   4.540   1.413   3.463 -0.2102 -0.5093 -0.0716
   50CHL1   C18 3653   4.602   1.557   3.452  0.2535  0.1382  0.2305
   50CHL1  H18A 3654   4.520   1.623   3.490 -1.5689 -1.2424 -1.1189
   50CHL1  H18B 3655   4.689   1.588   3.514 -0.3666  3.0692 -0.1765
   50CHL1  H18C 3656   4.612   1.583   3.344 -1.4932  0.9328  0.2198
   50CHL1   C12 3657   4.635   1.306   3.409  0.1527  0.2286 -0.2423
   50CHL1  H12A 3658   4.720   1.299   3.481 -0.6972 -2.5881  0.6448
   50CHL1  H12B 3659   4.595   1.203   3.418  0.4888  0.0579 -0.6784
   50CHL1   C11 3660   4.659   1.331   3.256  0.6324  0.1937 -0.3842
   50CHL1  H11A 3661   4.722   1.421   3.249 -1.5991  1.9140  0.4412
   50CHL1  H11B 3662   4.717   1.243   3.219  0.3052 -0.6733  1.0578
   50CHL1    C9 3663   4.535   1.339   3.161 -0.1513  0.6562  0.2166
   50CHL1    H9 3664   4.490   1.238   3.167 -1.9287  1.2971 -1.4257
   50CHL1   C10 3665   4.567   1.369   3.018  0.2668  0.3259 -0.1340
   50CHL1   C19 3666   4.663   1.489   3.011 -0.5280 -0.6361  0.0629
   50CHL1  H19A 3667   4.758   1.455   3.058 -1.5663 -1.6928  1.4692
   50CHL1  H19B 3668   4.692   1.515   2.907  0.8967  0.9091  0.7933
   50CHL1  H19C 3669   4.619   1.573   3.068 -2.9074 -1.4810 -0.4411
   50CHL1    C1 3670   4.625   1.246   2.956 -0.1886 -0.2923  0.3446
   50CHL1   H1A 3671   4.716   1.215   3.011 -0.5411  0.1132  1.1863
   50CHL1   H1B 3672   4.554   1.164   2.982 -0.4725 -0.6593 -1.4510
   50CHL1    C2 3673   4.638   1.246   2.806  0.1324  0.2445  0.2687
   50CHL1   H2A 3674   4.677   1.148   2.769 -0.5867 -1.3462  3.3970
   50CHL1   H2B 3675   4.713   1.323   2.779  0.1819  0.1260  0.0658
   50CHL1   C20 3676   4.544   1.400   3.725 -0.5985 -0.5176  0.0882
   50CHL1   H20 3677   4.553   1.507   3.754  0.3242 -0.7777  0.7904
   50CHL1   C21 3678   4.695   1.345   3.735  0.9715 -0.1960 -0.2764
   50CHL1  H21A 3679   4.747   1.367   3.830  0.7716  0.3494 -0.2916
   50CHL1  H21B 3680   4.758   1.395   3.659  1.0026 -0.6697 -0.5672
   50CHL1  H21C 3681   4.684   1.235   3.719 -1.1795  0.2945 -3.0075
   50CHL1   C22 3682   4.459   1.323   3.840 -0.6463 -0.4093  0.3382
   50CHL1  H22A 3683   4.354   1.358   3.844 -0.1959  0.9326  1.1796
   50CHL1  H22B 3684   4.462   1.214   3.821 -0.5917 -0.3371 -0.0740
   50CHL1   C23 3685   4.510   1.366   3.975  0.0299  0.4994 -0.0226
   50CHL1  H23A 3686   4.615   1.335   3.995 -0.0291  0.7099  0.6164
   50CHL1  H23B 3687   4.525   1.475   3.964  1.0794  0.2276 -1.7661
   50CHL1   C24 3688   4.418   1.318   4.088  0.2897 -0.2169 -0.2921
   50CHL1  H24A 3689   4.454   1.341   4.191  2.8312 -0.6051 -1.0275
   50CHL1  H24B 3690   4.322   1.375   4.086  1.2559  1.5587  0.9204
   50CHL1   C25 3691   4.391   1.165   4.093 -0.2402  0.7020  0.5449
   50CHL1   H25 3692   4.344   1.136   3.997  0.2214 -1.0065  0.8102
   50CHL1   C26 3693   4.522   1.090   4.095 -0.8869  0.0670 -0.1902
   50CHL1  H26A 3694   4.594   1.114   4.014  0.1675  0.8538  0.9465
   50CHL1  H26B 3695   4.565   1.102   4.197 -3.7762 -0.7017  1.2316
   50CHL1  H26C 3696   4.509   0.981   4.079  0.0918 -0.0159 -0.4633
   50CHL1   C27 3697   4.308   1.117   4.213  0.7323  0.2543 -1.0277
   50CHL1  H27A 3698   4.357   1.131   4.312 -3.2663  0.6774  1.1119
   50CHL1  H27B 3699   4.207   1.163   4.219  0.7057  0.4935 -2.8855
   50CHL1  H27C 3700   4.288   1.007   4.206  0.1916  0.3880 -1.7118
   51CHL1    C3 3701   6.209   6.523   2.943 -0.2085 -0.0596 -0.4135
   51CHL1    H3 3702   6.312   6.557   2.919  0.6770 -1.6479  0.9510
   51CHL1    O3 3703   6.110   6.541   2.843 -0.0414  0.1160 -0.2304
   51CHL1   H3' 3704   6.129   6.474   2.778  1.5382  0.8826 -0.6017
   51CHL1    C4 3705   6.198   6.377   2.995 -0.3259 -0.0110 -0.0428
   51CHL1   H4A 3706   6.095   6.356   3.028 -0.9237  1.7145 -0.6977
   51CHL1   H4B 3707   6.220   6.315   2.905 -1.7932 -0.0954 -0.3620
   51CHL1    C5 3708   6.300   6.352   3.106 -0.6221 -0.0468 -0.1050
   51CHL1    C6 3709   6.396   6.256   3.105  0.2397  0.5463  0.6551
   51CHL1    H6 3710   6.388   6.174   3.031  0.3898  0.8544  0.2941
   51CHL1    C7 3711   6.488   6.227   3.218  0.1616 -0.0542  0.5898
   51CHL1   H7A 3712   6.482   6.121   3.250  0.9185 -0.9368 -1.9042
   51CHL1   H7B 3713   6.590   6.236   3.175  0.6980 -1.3967  1.5128
   51CHL1    C8 3714   6.465   6.305   3.351 -0.3393  0.2197 -0.6949
   51CHL1    H8 3715   6.386   6.249   3.407  0.5165  0.2291  0.5635
   51CHL1   C14 3716   6.590   6.307   3.431 -0.3405  0.6277  0.1517
   51CHL1   H14 3717   6.674   6.349   3.371  1.4689 -0.6387  1.6846
   51CHL1   C15 3718   6.653   6.180   3.481  0.1950 -0.2833 -0.5086
   51CHL1  H15A 3719   6.572   6.126   3.534  2.1491 -0.2211  2.7911
   51CHL1  H15B 3720   6.697   6.130   3.391  0.6321  1.2097 -1.1490
   51CHL1   C16 3721   6.756   6.216   3.589  0.1237  0.5409  0.4172
   51CHL1  H16A 3722   6.742   6.154   3.681 -3.1844  0.6194  0.0874
   51CHL1  H16B 3723   6.859   6.217   3.547 -0.0820 -0.1494 -0.1190
   51CHL1   C17 3724   6.717   6.362   3.626  0.0833  0.0317 -0.0568
   51CHL1   H17 3725   6.791   6.429   3.577 -0.4885  0.7676  0.0837
   51CHL1   C13 3726   6.583   6.391   3.558  0.0250 -0.5485  0.3816
   51CHL1   C18 3727   6.472   6.337   3.652  0.1926  0.2341  0.1115
   51CHL1  H18A 3728   6.375   6.332   3.597  0.0030 -1.3433  0.5210
   51CHL1  H18B 3729   6.502   6.236   3.687 -2.0060 -0.2077  0.9319
   51CHL1  H18C 3730   6.466   6.407   3.739 -0.7284  0.7904 -0.3814
   51CHL1   C12 3731   6.561   6.532   3.522  0.5313  0.1568  0.1496
   51CHL1  H12A 3732   6.560   6.606   3.605 -1.6145  1.5989 -1.0469
   51CHL1  H12B 3733   6.647   6.563   3.459  0.7946  1.9634  1.3219
   51CHL1   C11 3734   6.432   6.543   3.441 -0.6672  0.0418  0.1221
   51CHL1  H11A 3735   6.339   6.522   3.499 -1.4347 -1.4307 -1.5397
   51CHL1  H11B 3736   6.434   6.648   3.403  1.6226  0.5967  1.6064
   51CHL1    C9 3737   6.426   6.447   3.317  0.3070 -0.1899  0.0509
   51CHL1    H9 3738   6.510   6.484   3.254  0.1172 -0.1247 -0.1665
   51CHL1   C10 3739   6.296   6.454   3.227 -0.7483 -0.3366  0.1445
   51CHL1   C19 3740   6.178   6.418   3.315 -0.1554 -0.2103  0.0642
   51CHL1  H19A 3741   6.188   6.315   3.355 -2.2458 -0.5124 -0.1068
   51CHL1  H19B 3742   6.172   6.482   3.406 -0.6464  0.0332 -0.1384
   51CHL1  H19C 3743   6.078   6.405   3.270 -0.1736 -4.0119  0.8560
   51CHL1    C1 3744   6.270   6.604   3.183  0.2593  0.3021 -0.0794
   51CHL1   H1A 3745   6.239   6.663   3.272  1.2327  2.6325 -1.2169
   51CHL1   H1B 3746   6.370   6.641   3.154  1.5830 -0.1377  3.4759
   51CHL1    C2 3747   6.169   6.614   3.071  0.3665 -0.3977  0.7310
   51CHL1   H2A 3748   6.157   6.718   3.035 -2.7905 -1.6220 -2.2080
   51CHL1   H2B 3749   6.065   6.592   3.102 -0.0030 -1.2166 -0.9836
   51CHL1   C20 3750   6.735   6.400   3.779 -0.1590 -0.0623 -0.0418
   51CHL1   H20 3751   6.652   6.347   3.830  1.8636 -0.9025  2.6259
   51CHL1   C21 3752   6.718   6.552   3.810 -0.5266 -0.2045  0.3944
   51CHL1  H21A 3753   6.613   6.578   3.785 -0.1425  0.2674 -0.7915
   51CHL1  H21B 3754   6.781   6.621   3.751  2.3864 -1.8559  1.3601
   51CHL1  H21C 3755   6.732   6.583   3.915  0.4885  3.1519 -0.6171
   51CHL1   C22 3756   6.863   6.351   3.849 -0.4206 -0.7900 -0.9405
   51CHL1  H22A 3757   6.914   6.262   3.806  1.8827 -0.0010 -0.0546
   51CHL1  H22B 3758   6.953   6.418   3.844 -0.1573 -1.1573 -1.1741
   51CHL1   C23 3759   6.839   6.324   3.994  1.1417 -0.4139 -0.5560
   51CHL1  H23A 3760   6.835   6.422   4.046  2.3234 -0.9825  0.6684
   51CHL1  H23B 3761   6.747   6.267   4.021  0.0038  1.0880 -1.1124
   51CHL1   C24 3762   6.951   6.243   4.052 -0.2980  0.5014 -0.7718
   51CHL1  H24A 3763   6.961   6.142   4.006  1.4408 -0.2546  1.1106
   51CHL1  H24B 3764   7.046   6.302   4.047  0.0876 -0.0819 -0.4635
   51CHL1   C25 3765   6.929   6.212   4.210 -0.1293 -0.0334  0.0628
   51CHL1   H25 3766   6.844   6.142   4.217 -1.4465  1.3530 -1.0945
   51CHL1   C26 3767   7.059   6.141   4.269  0.0440  0.7382 -0.5188
   51CHL1  H26A 3768   7.065   6.041   4.222  0.6151 -0.4253  1.8772
   51CHL1  H26B 3769   7.153   6.195   4.246 -0.3400  2.4806  1.6900
   51CHL1  H26C 3770   7.057   6.124   4.379 -0.2702 -0.3766 -0.6805
   51CHL1   C27 3771   6.897   6.332   4.297 -0.0275  0.0949  0.5171
   51CHL1  H27A 3772   6.853   6.295   4.392  0.1455  0.5854  0.7945
   51CHL1  H27B 3773   6.989   6.389   4.321  1.1279 -2.0784  1.5056
   51CHL1  H27C 3774   6.817   6.396   4.254  0.3789  0.4987  0.3522
   52CHL1    C3 3775   4.709   2.788   2.809  0.0644  0.0715  0.2322
   52CHL1    H3 3776   4.673   2.693   2.853 -2.8386  0.5475 -0.8889
   52CHL1    O3 3777   4.664   2.781   2.670 -1.2312 -0.1932  0.3440
   52CHL1   H3' 3778   4.711   2.701   2.645  1.6029  1.1508  0.9263
   52CHL1    C4 3779   4.633   2.905   2.886  0.1381  0.8601  0.1804
   52CHL1   H4A 3780   4.642   3.001   2.830  1.4743  0.2709 -0.6698
   52CHL1   H4B 3781   4.527   2.873   2.872  0.4509  0.3035 -1.0889
   52CHL1    C5 3782   4.670   2.912   3.031 -0.3257 -0.3077  0.3426
   52CHL1    C6 3783   4.586   2.903   3.134  0.2791 -0.3923  0.1338
   52CHL1    H6 3784   4.482   2.877   3.109  0.8459 -2.3531 -0.3437
   52CHL1    C7 3785   4.620   2.915   3.281  0.3945 -0.5361 -0.1698
   52CHL1   H7A 3786   4.538   2.955   3.344  0.0063 -1.6211  0.0375
   52CHL1   H7B 3787   4.629   2.812   3.320  1.3893 -0.0507  0.9568
   52CHL1    C8 3788   4.754   2.993   3.295 -0.4855  0.1768  0.4889
   52CHL1    H8 3789   4.746   3.102   3.272  0.1555  0.7485  2.7747
   52CHL1   C14 3790   4.815   2.976   3.433 -0.1042 -0.0180  0.0851
   52CHL1   H14 3791   4.830   2.867   3.444 -1.2925 -0.2570 -0.5329
   52CHL1   C15 3792   4.730   3.005   3.553 -0.4009  0.2001 -0.0288
   52CHL1  H15A 3793   4.668   3.096   3.536 -0.1411  0.3187 -0.3413
   52CHL1  H15B 3794   4.661   2.923   3.580  0.4424 -0.0215  1.5604
   52CHL1   C16 3795   4.821   3.031   3.677  0.2542  0.0644 -0.0249
   52CHL1  H16A 3796   4.813   3.136   3.714 -0.2704  0.0774 -0.1712
   52CHL1  H16B 3797   4.792   2.953   3.751 -1.0082 -1.4473 -2.0203
   52CHL1   C17 3798   4.964   3.005   3.616 -0.6301 -0.3659 -0.2479
   52CHL1   H17 3799   4.987   2.897   3.628  1.4395  0.2552  2.5234
   52CHL1   C13 3800   4.947   3.046   3.467 -0.0619 -0.0399  0.4920
   52CHL1   C18 3801   4.924   3.204   3.464 -0.1694  0.6127 -0.6111
   52CHL1  H18A 3802   5.017   3.239   3.513  1.1374 -3.7243  0.5145
   52CHL1  H18B 3803   4.910   3.245   3.362 -2.8900 -0.9604 -0.9731
   52CHL1  H18C 3804   4.834   3.232   3.522 -0.3455  0.0910 -0.6276
   52CHL1   C12 3805   5.057   3.004   3.362 -0.0718  0.2909  0.3741
   52CHL1  H12A 3806   5.153   3.059   3.367  0.7469 -0.7627 -2.2191
   52CHL1  H12B 3807   5.087   2.897   3.373 -0.8725 -0.0592 -0.6607
   52CHL1   C11 3808   4.999   3.013   3.221  0.0708  0.6035  0.0727
   52CHL1  H11A 3809   4.989   3.120   3.191 -0.6772  0.2780 -0.8906
   52CHL1  H11B 3810   5.088   2.985   3.160  0.3342  1.7658 -0.1191
   52CHL1    C9 3811   4.864   2.938   3.199 -0.1904 -0.5622  0.3561
   52CHL1    H9 3812   4.878   2.831   3.224 -0.1868 -0.7027 -0.2154
   52CHL1   C10 3813   4.824   2.942   3.049  0.5330  0.3598  0.1493
   52CHL1   C19 3814   4.866   3.072   2.979 -0.6044  0.5858  0.4823
   52CHL1  H19A 3815   4.843   3.083   2.870 -0.5705  1.9625  0.5932
   52CHL1  H19B 3816   4.823   3.156   3.038  0.0412 -0.5817  2.7269
   52CHL1  H19C 3817   4.976   3.080   2.989 -0.5576 -0.3057  0.7633
   52CHL1    C1 3818   4.900   2.828   2.974  0.0419  0.7721 -0.0330
   52CHL1   H1A 3819   5.009   2.845   2.974  0.1644  0.0447  0.8403
   52CHL1   H1B 3820   4.879   2.736   3.032 -1.5448  0.0728 -1.6037
   52CHL1    C2 3821   4.861   2.799   2.823  0.0569  0.8011 -0.1650
   52CHL1   H2A 3822   4.916   2.711   2.784 -2.2251 -0.0454 -1.6820
   52CHL1   H2B 3823   4.901   2.886   2.766 -0.7413 -0.5518 -2.9250
   52CHL1   C20 3824   5.082   3.068   3.699  0.7309 -0.0307  0.5283
   52CHL1   H20 3825   5.072   3.178   3.706  0.4459 -0.0353  0.1978
   52CHL1   C21 3826   5.220   3.021   3.638  0.2750 -0.4491 -0.2638
   52CHL1  H21A 3827   5.285   3.001   3.726  0.9941  0.1962 -0.6384
   52CHL1  H21B 3828   5.266   3.102   3.577  0.1235 -1.0941 -1.2509
   52CHL1  H21C 3829   5.202   2.933   3.573 -0.8809  0.6265 -1.4739
   52CHL1   C22 3830   5.070   3.025   3.844  0.0742  0.4502 -0.1815
   52CHL1  H22A 3831   4.967   3.026   3.886  0.4433  1.1800  0.7193
   52CHL1  H22B 3832   5.098   2.917   3.845 -0.5761  0.1111 -3.7810
   52CHL1   C23 3833   5.146   3.115   3.952 -1.2179  0.2883  0.0437
   52CHL1  H23A 3834   5.254   3.091   3.940 -1.2295  0.1451  0.2235
   52CHL1  H23B 3835   5.118   3.221   3.935  0.0851  0.6357 -0.0340
   52CHL1   C24 3836   5.106   3.073   4.090 -0.2695 -0.0110  0.4716
   52CHL1  H24A 3837   4.998   3.049   4.077 -0.0620 -1.2935  0.9564
   52CHL1  H24B 3838   5.158   2.981   4.124  1.3709  0.8062  0.2375
   52CHL1   C25 3839   5.129   3.180   4.194  0.2829 -0.2468 -0.2625
   52CHL1   H25 3840   5.099   3.283   4.165  0.9188  0.7427  2.2540
   52CHL1   C26 3841   5.062   3.147   4.327  0.4203  0.1672  0.3643
   52CHL1  H26A 3842   4.954   3.169   4.309  1.0424  1.2382 -2.6288
   52CHL1  H26B 3843   5.073   3.043   4.363  1.3341  0.4214  0.8400
   52CHL1  H26C 3844   5.097   3.218   4.405 -0.1947  0.6665  0.2024
   52CHL1   C27 3845   5.278   3.201   4.217  0.3230 -0.8669 -0.4074
   52CHL1  H27A 3846   5.329   3.105   4.238  1.7713 -0.3038 -1.1328
   52CHL1  H27B 3847   5.327   3.243   4.126 -3.4316  1.5240 -1.5729
   52CHL1  H27C 3848   5.309   3.269   4.299  2.4252 -0.9812 -1.0430
   53CHL1    C3 3849   1.269   5.957   2.928 -0.6720  0.4543  0.0058
   53CHL1    H3 3850   1.174   5.995   2.972 -1.1747 -1.6545  0.9138
   53CHL1    O3 3851   1.263   5.959   2.785 -0.7975 -0.0236 -0.3805
   53CHL1   H3' 3852   1.185   5.908   2.763  0.6756 -1.4492 -2.6479
   53CHL1    C4 3853   1.396   6.041   2.970  0.2593 -0.3111  0.5829
   53CHL1   H4A 3854   1.475   5.997   2.906  0.0006 -0.4765  0.3728
   53CHL1   H4B 3855   1.366   6.145   2.946 -0.6660 -0.3266  1.5662
   53CHL1    C5 3856   1.420   6.022   3.118  0.1893  0.2375 -0.1709
   53CHL1    C6 3857   1.439   6.132   3.195 -0.1938  0.6424  0.0236
   53CHL1    H6 3858   1.434   6.234   3.155  2.7677  0.6483 -0.5796
   53CHL1    C7 3859   1.464   6.120   3.342  0.7004  0.1912  0.0632
   53CHL1   H7A 3860   1.540   6.194   3.375  0.1467  0.0072  1.8587
   53CHL1   H7B 3861   1.365   6.146   3.385 -0.4827 -1.2870 -1.5830
   53CHL1    C8 3862   1.491   5.979   3.399 -0.4997  0.0211  0.0831
   53CHL1    H8 3863   1.600   5.967   3.380  0.0598  3.0460  0.7258
   53CHL1   C14 3864   1.471   5.973   3.555 -0.2244  0.0017 -0.0383
   53CHL1   H14 3865   1.367   5.997   3.585 -0.0044 -1.4540  2.1794
   53CHL1   C15 3866   1.561   6.071   3.632 -0.1557 -0.2513 -0.1585
   53CHL1  H15A 3867   1.658   6.074   3.579 -0.5170  0.1652 -0.7991
   53CHL1  H15B 3868   1.508   6.167   3.644  0.1679 -0.2754  1.9231
   53CHL1   C16 3869   1.569   6.007   3.772 -0.8349  0.0395  0.5803
   53CHL1  H16A 3870   1.675   5.975   3.781  0.0338  2.7248  0.8644
   53CHL1  H16B 3871   1.555   6.073   3.860  1.1059  0.6782  0.4600
   53CHL1   C17 3872   1.494   5.875   3.757  0.3340  0.5676  0.4986
   53CHL1   H17 3873   1.390   5.902   3.782 -0.0687 -0.9410  0.5800
   53CHL1   C13 3874   1.505   5.837   3.608 -0.5635  0.7633 -0.0737
   53CHL1   C18 3875   1.649   5.780   3.575  0.3837 -0.7744 -0.8537
   53CHL1  H18A 3876   1.672   5.700   3.649 -0.1913 -0.8705 -0.7747
   53CHL1  H18B 3877   1.641   5.742   3.470 -0.5337 -2.2508 -0.2913
   53CHL1  H18C 3878   1.728   5.858   3.571 -0.4027 -0.0301 -2.4174
   53CHL1   C12 3879   1.399   5.739   3.551  0.2745  0.1474  0.0239
   53CHL1  H12A 3880   1.417   5.638   3.593  1.2791  0.6570  0.8545
   53CHL1  H12B 3881   1.304   5.784   3.588  0.4938 -0.1742  0.9876
   53CHL1   C11 3882   1.395   5.738   3.395 -0.4659  0.3990  0.2868
   53CHL1  H11A 3883   1.464   5.662   3.353 -0.7895  0.9026 -1.2346
   53CHL1  H11B 3884   1.297   5.692   3.369 -0.1807 -0.8454  1.3369
   53CHL1    C9 3885   1.399   5.879   3.330 -0.1276  0.5206 -0.2373
   53CHL1    H9 3886   1.294   5.913   3.334 -0.3247  0.6925 -3.6388
   53CHL1   C10 3887   1.417   5.876   3.171 -0.2712 -0.1125 -0.0449
   53CHL1   C19 3888   1.562   5.813   3.127  0.7952 -0.0804 -0.1642
   53CHL1  H19A 3889   1.591   5.839   3.023 -0.2606 -1.3933 -0.8293
   53CHL1  H19B 3890   1.630   5.863   3.199 -0.7466 -0.2029  1.4296
   53CHL1  H19C 3891   1.563   5.702   3.138 -0.4217  0.1670  3.7530
   53CHL1    C1 3892   1.299   5.797   3.111  0.8131  0.1545  0.1495
   53CHL1   H1A 3893   1.315   5.688   3.127 -0.6659 -0.1417 -0.2150
   53CHL1   H1B 3894   1.207   5.826   3.167 -0.6532 -1.3163 -1.3971
   53CHL1    C2 3895   1.270   5.818   2.969  0.4082  0.3780  0.3728
   53CHL1   H2A 3896   1.177   5.766   2.938  1.5937 -1.5476 -0.1451
   53CHL1   H2B 3897   1.355   5.778   2.910  0.8199  0.8706  0.6285
   53CHL1   C20 3898   1.512   5.772   3.874  0.0965 -0.0115  0.1302
   53CHL1   H20 3899   1.614   5.730   3.863 -0.3931 -0.7925 -1.7755
   53CHL1   C21 3900   1.415   5.653   3.869  0.3445 -0.7619  0.4217
   53CHL1  H21A 3901   1.316   5.686   3.830 -0.2226 -1.2130  1.4543
   53CHL1  H21B 3902   1.412   5.601   3.967  0.2166 -1.8111 -0.1260
   53CHL1  H21C 3903   1.468   5.579   3.806  1.0277 -0.7010  0.9238
   53CHL1   C22 3904   1.516   5.833   4.011  0.2190 -0.0995 -0.0926
   53CHL1  H22A 3905   1.575   5.928   4.015 -0.0205  0.0087  1.2487
   53CHL1  H22B 3906   1.411   5.857   4.035 -0.6455 -3.6845  0.1817
   53CHL1   C23 3907   1.585   5.733   4.111 -0.0166  0.5895  0.5891
   53CHL1  H23A 3908   1.518   5.648   4.135  0.3731 -0.1429 -0.7960
   53CHL1  H23B 3909   1.676   5.682   4.073 -0.5116 -0.5411  0.8856
   53CHL1   C24 3910   1.620   5.807   4.242 -0.1292  0.0711  0.1125
   53CHL1  H24A 3911   1.687   5.893   4.222 -0.6840  0.4496 -0.1449
   53CHL1  H24B 3912   1.524   5.837   4.290 -0.3932 -0.4236 -0.0983
   53CHL1   C25 3913   1.692   5.713   4.338  0.0191 -0.9735 -0.0282
   53CHL1   H25 3914   1.716   5.765   4.434  0.8385 -2.8628  0.8517
   53CHL1   C26 3915   1.619   5.581   4.368  0.0443 -0.3775  0.5580
   53CHL1  H26A 3916   1.611   5.517   4.278 -1.3828  1.6848 -0.8828
   53CHL1  H26B 3917   1.678   5.525   4.444 -0.7641 -0.6862  0.9702
   53CHL1  H26C 3918   1.518   5.606   4.406  0.0824  1.8702 -0.6796
   53CHL1   C27 3919   1.837   5.691   4.286  0.9778  0.1730  0.2371
   53CHL1  H27A 3920   1.823   5.610   4.211  1.6200 -0.2594  0.5741
   53CHL1  H27B 3921   1.895   5.771   4.237  0.7998 -1.1954 -2.3647
   53CHL1  H27C 3922   1.895   5.648   4.370  1.4881  2.7475  1.2882
   54CHL1    C3 3923   6.575   0.872   2.518  0.2306  0.5526  0.2372
   54CHL1    H3 3924   6.523   0.776   2.538 -0.4119  0.9264  0.3500
   54CHL1    O3 3925   6.584   0.902   2.375 -0.0505  0.1742 -0.6739
   54CHL1   H3' 3926   6.670   0.944   2.369 -0.2491  0.5034 -1.3519
   54CHL1    C4 3927   6.514   0.991   2.595  0.4482 -0.1172  0.1107
   54CHL1   H4A 3928   6.572   1.081   2.565 -0.5409 -0.0580 -1.7790
   54CHL1   H4B 3929   6.410   1.003   2.558  0.4780  0.0911  0.0940
   54CHL1    C5 3930   6.519   0.973   2.746  0.2048  0.2533  0.3045
   54CHL1    C6 3931   6.406   0.974   2.812  0.1458  0.0249 -0.6706
   54CHL1    H6 3932   6.314   0.999   2.757 -0.5755  1.0798  0.9567
   54CHL1    C7 3933   6.396   0.954   2.961  0.2678  0.3093  0.1159
   54CHL1   H7A 3934   6.343   1.038   3.009  1.5339 -0.4223  3.0956
   54CHL1   H7B 3935   6.353   0.852   2.976  0.2460  0.3153  0.0911
   54CHL1    C8 3936   6.533   0.962   3.039  0.7178 -0.2511  0.1626
   54CHL1    H8 3937   6.553   1.071   3.038  1.2060 -0.3270  0.9939
   54CHL1   C14 3938   6.519   0.916   3.179  0.0101  0.2636  0.0626
   54CHL1   H14 3939   6.488   0.810   3.171  0.2505  0.2878 -1.4829
   54CHL1   C15 3940   6.418   0.984   3.268 -0.6121 -0.9382 -0.0818
   54CHL1  H15A 3941   6.423   1.095   3.256  0.5569 -1.1355 -1.8277
   54CHL1  H15B 3942   6.316   0.956   3.237  0.0622 -2.8164 -0.7367
   54CHL1   C16 3943   6.460   0.942   3.414 -0.0233  0.4272  0.5238
   54CHL1  H16A 3944   6.469   1.035   3.475  0.4632  0.9167 -0.2823
   54CHL1  H16B 3945   6.382   0.874   3.454 -0.8991  1.6072  0.9074
   54CHL1   C17 3946   6.597   0.870   3.399  1.1942 -0.4185  0.4262
   54CHL1   H17 3947   6.573   0.764   3.374  2.9191 -0.7380 -0.0207
   54CHL1   C13 3948   6.655   0.910   3.256 -0.0221 -0.2648 -0.6379
   54CHL1   C18 3949   6.716   1.053   3.255  0.6121 -0.3508  0.2828
   54CHL1  H18A 3950   6.654   1.122   3.317  0.2803 -2.0107  1.8617
   54CHL1  H18B 3951   6.817   1.054   3.303  1.9724 -1.8214 -2.3451
   54CHL1  H18C 3952   6.718   1.095   3.152 -1.5668 -0.1203  0.2948
   54CHL1   C12 3953   6.749   0.814   3.187 -0.0616  0.1152  0.0171
   54CHL1  H12A 3954   6.845   0.820   3.242 -0.9100  0.1424  1.5596
   54CHL1  H12B 3955   6.708   0.710   3.187  1.8169 -0.6718 -0.3305
   54CHL1   C11 3956   6.776   0.855   3.037 -0.2216 -0.5733 -0.1329
   54CHL1  H11A 3957   6.832   0.950   3.038  0.2390 -0.7919 -1.8564
   54CHL1  H11B 3958   6.838   0.777   2.988 -1.0364 -1.0398 -0.4453
   54CHL1    C9 3959   6.643   0.891   2.960  0.2196 -0.1545 -0.8463
   54CHL1    H9 3960   6.601   0.789   2.962 -1.7495  0.6344  0.3383
   54CHL1   C10 3961   6.654   0.935   2.807  0.3497 -0.0745 -0.5988
   54CHL1   C19 3962   6.741   1.062   2.795 -0.0254 -0.8504  0.3010
   54CHL1  H19A 3963   6.704   1.144   2.859  1.9287  1.5148 -1.3705
   54CHL1  H19B 3964   6.842   1.026   2.825  0.1274 -0.4129  0.3111
   54CHL1  H19C 3965   6.741   1.101   2.691  0.8209  2.2523  1.3817
   54CHL1    C1 3966   6.727   0.827   2.718 -0.2788  0.6156  0.2723
   54CHL1   H1A 3967   6.836   0.826   2.740 -0.1541  2.7738 -0.0079
   54CHL1   H1B 3968   6.678   0.731   2.743  1.7849  0.1514  2.9593
   54CHL1    C2 3969   6.711   0.847   2.563  0.2820 -0.5078 -0.3895
   54CHL1   H2A 3970   6.742   0.753   2.511  0.7315 -0.0785 -0.9113
   54CHL1   H2B 3971   6.772   0.933   2.527 -0.0066 -0.5055 -0.8953
   54CHL1   C20 3972   6.692   0.875   3.518  0.2587  0.6427 -0.5423
   54CHL1   H20 3973   6.791   0.843   3.480 -0.8835 -2.7328 -0.9824
   54CHL1   C21 3974   6.643   0.756   3.614 -0.1620 -0.9849  0.1142
   54CHL1  H21A 3975   6.664   0.658   3.566  0.6007 -1.1391  0.7316
   54CHL1  H21B 3976   6.532   0.764   3.624 -0.2146 -1.0313 -0.4121
   54CHL1  H21C 3977   6.697   0.761   3.712  0.2904  0.7040 -0.1908
   54CHL1   C22 3978   6.702   1.009   3.592 -0.0419 -0.8666  0.7313
   54CHL1  H22A 3979   6.730   1.082   3.512 -1.0458 -2.3925 -1.1038
   54CHL1  H22B 3980   6.606   1.051   3.630 -0.0330 -0.4932  0.3542
   54CHL1   C23 3981   6.816   1.009   3.689  0.6752 -1.0586  0.4259
   54CHL1  H23A 3982   6.796   0.942   3.775 -0.1638 -2.7638 -1.0224
   54CHL1  H23B 3983   6.892   0.964   3.622 -0.5082  0.1651 -1.8860
   54CHL1   C24 3984   6.852   1.150   3.733 -0.1294  0.0409  0.7300
   54CHL1  H24A 3985   6.912   1.187   3.647 -0.7137  1.2288  0.8127
   54CHL1  H24B 3986   6.759   1.211   3.735  0.0005  0.3312 -0.6774
   54CHL1   C25 3987   6.915   1.178   3.872  0.2220  0.0065  0.5608
   54CHL1   H25 3988   6.919   1.289   3.872 -1.1310  0.0924 -0.9714
   54CHL1   C26 3989   6.843   1.125   3.997  0.2338 -0.4474  0.6298
   54CHL1  H26A 3990   6.822   1.016   3.986 -0.3099 -0.3702  0.8761
   54CHL1  H26B 3991   6.912   1.143   4.082  1.9725  2.2554 -1.2218
   54CHL1  H26C 3992   6.754   1.187   4.021  0.6325 -0.7099  3.0684
   54CHL1   C27 3993   7.061   1.130   3.869  0.1073 -0.5113  0.3261
   54CHL1  H27A 3994   7.071   1.020   3.860 -1.3411 -0.5230 -1.9421
   54CHL1  H27B 3995   7.113   1.168   3.778 -0.1849 -0.3548  0.2213
   54CHL1  H27C 3996   7.120   1.170   3.954 -0.3809  0.2425  0.3217
   55CHL1    C3 3997   5.278   2.282   2.538 -0.7230 -0.1098  0.1587
   55CHL1    H3 3998   5.177   2.312   2.503 -0.4385 -0.4196 -0.9740
   55CHL1    O3 3999   5.358   2.252   2.426  0.1970 -0.0216 -0.0171
   55CHL1   H3' 4000   5.447   2.236   2.459 -0.5220 -1.5368  1.3253
   55CHL1    C4 4001   5.342   2.400   2.613  0.1616  0.5089  0.7117
   55CHL1   H4A 4002   5.447   2.371   2.633  0.1687  0.3845  0.4978
   55CHL1   H4B 4003   5.342   2.495   2.556  0.4437 -0.1911 -0.4903
   55CHL1    C5 4004   5.275   2.418   2.741 -0.2059 -0.4621 -0.0930
   55CHL1    C6 4005   5.219   2.534   2.773 -0.8208  0.7713 -0.3115
   55CHL1    H6 4006   5.244   2.613   2.700  1.0919  0.8103  0.3246
   55CHL1    C7 4007   5.159   2.568   2.908 -0.3295  0.8618 -0.3780
   55CHL1   H7A 4008   5.193   2.664   2.953  0.2354  0.9506 -0.9862
   55CHL1   H7B 4009   5.048   2.567   2.905 -0.3168 -0.6801 -0.8721
   55CHL1    C8 4010   5.202   2.459   3.014 -0.2866 -0.1016 -0.2590
   55CHL1    H8 4011   5.310   2.471   3.039 -0.3976 -0.8088  0.6382
   55CHL1   C14 4012   5.118   2.479   3.145  0.4488 -0.3067  0.0519
   55CHL1   H14 4013   5.013   2.485   3.112  0.4171  0.4642  0.2621
   55CHL1   C15 4014   5.133   2.618   3.222 -0.1289 -0.0156  0.5295
   55CHL1  H15A 4015   5.235   2.648   3.253 -0.4032 -0.3112  1.7540
   55CHL1  H15B 4016   5.082   2.697   3.162  0.0133 -0.6362 -0.4410
   55CHL1   C16 4017   5.068   2.586   3.359 -0.1010  0.7258  0.1438
   55CHL1  H16A 4018   5.139   2.619   3.438  0.1716  1.6480 -0.4711
   55CHL1  H16B 4019   4.973   2.642   3.373 -1.4095 -1.7211  1.7326
   55CHL1   C17 4020   5.042   2.432   3.361  0.2645 -0.1874  0.0941
   55CHL1   H17 4021   4.941   2.418   3.316 -0.6619  0.8831  1.7429
   55CHL1   C13 4022   5.130   2.369   3.252  0.2264  0.2156  0.4369
   55CHL1   C18 4023   5.275   2.361   3.304  0.8338  0.1461 -0.0769
   55CHL1  H18A 4024   5.312   2.451   3.357  0.9771  0.7491 -1.1583
   55CHL1  H18B 4025   5.284   2.274   3.373 -2.3127  0.0079  0.2869
   55CHL1  H18C 4026   5.360   2.351   3.232  1.4960 -0.7712  0.7923
   55CHL1   C12 4027   5.077   2.238   3.181  0.1958 -0.4922 -0.4950
   55CHL1  H12A 4028   5.087   2.164   3.265  2.3639  1.6478  1.2932
   55CHL1  H12B 4029   4.976   2.236   3.137  0.9393 -1.8214 -2.2647
   55CHL1   C11 4030   5.171   2.200   3.067  0.0127 -0.4320 -0.0342
   55CHL1  H11A 4031   5.266   2.170   3.116  0.1054  1.8594  1.3539
   55CHL1  H11B 4032   5.133   2.107   3.020  0.0809 -0.1462 -0.6675
   55CHL1    C9 4033   5.180   2.313   2.959  0.0148 -0.0222  0.0099
   55CHL1    H9 4034   5.076   2.318   2.920  0.7859 -3.4388 -3.0648
   55CHL1   C10 4035   5.272   2.291   2.839  0.6736  0.4405  0.7087
   55CHL1   C19 4036   5.417   2.258   2.874 -0.1858 -0.1817 -0.0587
   55CHL1  H19A 4037   5.480   2.245   2.784  0.9172 -0.6497  0.7574
   55CHL1  H19B 4038   5.471   2.338   2.929  2.2243  0.4256 -3.0837
   55CHL1  H19C 4039   5.422   2.160   2.926 -1.2658 -0.9943 -1.4053
   55CHL1    C1 4040   5.197   2.181   2.759  0.0901 -0.2275 -0.8925
   55CHL1   H1A 4041   5.202   2.085   2.815 -0.8936  0.5632  0.6247
   55CHL1   H1B 4042   5.091   2.205   2.734 -0.6274 -2.6340 -0.3769
   55CHL1    C2 4043   5.258   2.160   2.630 -0.3091  0.4939 -0.0099
   55CHL1   H2A 4044   5.204   2.078   2.577  0.2751  0.5080 -0.6398
   55CHL1   H2B 4045   5.352   2.104   2.648 -0.5895  0.1997  0.5841
   55CHL1   C20 4046   5.024   2.349   3.496  0.2115  0.0041 -0.0655
   55CHL1   H20 4047   5.044   2.243   3.470 -0.0447 -0.4899  1.6417
   55CHL1   C21 4048   4.868   2.353   3.529 -0.6896  0.5783  0.3311
   55CHL1  H21A 4049   4.842   2.295   3.620 -2.3455 -0.3528 -0.6769
   55CHL1  H21B 4050   4.811   2.299   3.450 -1.5954  0.4842  1.0307
   55CHL1  H21C 4051   4.839   2.459   3.546  0.3712  1.0791 -0.8386
   55CHL1   C22 4052   5.121   2.387   3.607  0.2018 -0.9177  0.2078
   55CHL1  H22A 4053   5.225   2.373   3.571 -0.6929 -1.7613 -2.2262
   55CHL1  H22B 4054   5.097   2.491   3.638  2.0192 -0.1870 -0.7134
   55CHL1   C23 4055   5.112   2.293   3.729  0.9810  0.2072 -0.2502
   55CHL1  H23A 4056   5.009   2.283   3.770  1.0885 -0.3526 -0.1066
   55CHL1  H23B 4057   5.148   2.195   3.690 -0.6294 -0.2929 -0.5796
   55CHL1   C24 4058   5.206   2.332   3.846 -0.9206 -0.5742  0.1322
   55CHL1  H24A 4059   5.308   2.328   3.801 -1.6119  0.9664 -1.6952
   55CHL1  H24B 4060   5.181   2.433   3.884  2.6764 -0.2275  1.9765
   55CHL1   C25 4061   5.208   2.233   3.969 -0.1877 -0.4317  0.0244
   55CHL1   H25 4062   5.234   2.131   3.934  0.1003  0.2615 -1.9605
   55CHL1   C26 4063   5.309   2.278   4.072  0.0933  0.8040  0.1546
   55CHL1  H26A 4064   5.410   2.257   4.030 -0.5964  1.5757 -2.0218
   55CHL1  H26B 4065   5.314   2.386   4.097  0.5518  0.7499  0.3146
   55CHL1  H26C 4066   5.304   2.223   4.168 -2.9611 -0.7437 -0.7755
   55CHL1   C27 4067   5.067   2.209   4.036  0.3097  0.6100  0.0249
   55CHL1  H27A 4068   5.029   2.302   4.083  2.1600  1.3274  0.1923
   55CHL1  H27B 4069   5.000   2.162   3.960  2.2613 -1.8905 -0.2816
   55CHL1  H27C 4070   5.075   2.140   4.122 -0.1422  2.0415  1.2640
   56CHL1    C3 4071   5.128   0.499   2.759 -0.2588  0.3220  0.1053
   56CHL1    H3 4072   5.114   0.399   2.807 -1.5352  0.3600 -0.1702
   56CHL1    O3 4073   5.063   0.501   2.633 -0.7223  0.1858  0.4916
   56CHL1   H3' 4074   5.132   0.515   2.569 -0.1211 -0.7706  0.8996
   56CHL1    C4 4075   5.062   0.604   2.850 -0.6581 -0.2074  0.4232
   56CHL1   H4A 4076   5.040   0.692   2.787  3.1307 -0.8204 -2.1111
   56CHL1   H4B 4077   4.961   0.563   2.873 -0.6710 -1.8930 -2.1752
   56CHL1    C5 4078   5.137   0.647   2.975  0.9245  1.2040  0.0903
   56CHL1    C6 4079   5.076   0.637   3.098  0.1755 -0.9855  0.5713
   56CHL1    H6 4080   4.970   0.608   3.101  0.4297 -2.2454 -0.9886
   56CHL1    C7 4081   5.149   0.676   3.224 -0.2425  0.6553  0.6373
   56CHL1   H7A 4082   5.079   0.738   3.284 -0.2012  2.1811 -0.8378
   56CHL1   H7B 4083   5.166   0.584   3.283 -0.0347  0.0415 -0.3642
   56CHL1    C8 4084   5.279   0.747   3.210 -0.6549 -0.3223  1.5586
   56CHL1    H8 4085   5.265   0.852   3.176  1.8463 -0.0804  1.0518
   56CHL1   C14 4086   5.361   0.754   3.334  0.5560  0.4972  0.0595
   56CHL1   H14 4087   5.366   0.647   3.364  0.3842  0.7552  1.0659
   56CHL1   C15 4088   5.286   0.814   3.452 -0.1051  0.1745 -0.5017
   56CHL1  H15A 4089   5.233   0.910   3.434 -0.8815 -0.2219 -0.3699
   56CHL1  H15B 4090   5.209   0.737   3.475  0.8452 -1.7556 -3.3685
   56CHL1   C16 4091   5.403   0.821   3.553  0.3034  0.0495  0.1533
   56CHL1  H16A 4092   5.402   0.923   3.599 -1.1142 -0.3937  1.1450
   56CHL1  H16B 4093   5.382   0.745   3.631  3.1390  0.9627  1.9561
   56CHL1   C17 4094   5.539   0.789   3.473  0.0789  0.2787 -0.7198
   56CHL1   H17 4095   5.558   0.682   3.496  0.1683  0.4929  0.2414
   56CHL1   C13 4096   5.502   0.805   3.325  0.1422  0.0247  0.4503
   56CHL1   C18 4097   5.498   0.957   3.297 -0.0581  0.5405  0.1726
   56CHL1  H18A 4098   5.435   1.013   3.369  0.6926  0.4937  0.8776
   56CHL1  H18B 4099   5.601   0.996   3.289 -0.4706  1.4673 -0.9361
   56CHL1  H18C 4100   5.438   0.972   3.204 -1.9592  2.4955  1.6199
   56CHL1   C12 4101   5.581   0.710   3.226  0.6287 -0.6388  0.5450
   56CHL1  H12A 4102   5.679   0.764   3.228 -0.3822  1.2757  1.0195
   56CHL1  H12B 4103   5.596   0.606   3.262 -0.7383 -0.7697  0.7635
   56CHL1   C11 4104   5.520   0.714   3.091  0.9664  0.4321  0.0406
   56CHL1  H11A 4105   5.517   0.816   3.048 -0.5724 -0.6367 -2.6552
   56CHL1  H11B 4106   5.555   0.642   3.014  1.0458  0.6934 -0.1693
   56CHL1    C9 4107   5.364   0.670   3.104  0.3501  0.1536 -0.4334
   56CHL1    H9 4108   5.368   0.563   3.136  0.5097  0.4719  0.6535
   56CHL1   C10 4109   5.289   0.676   2.968  0.8978 -0.1391  0.1169
   56CHL1   C19 4110   5.307   0.817   2.908  0.5592  0.5601  0.1684
   56CHL1  H19A 4111   5.288   0.904   2.974  1.3462 -0.1439  1.3507
   56CHL1  H19B 4112   5.412   0.831   2.875  1.7990 -2.2348  2.5741
   56CHL1  H19C 4113   5.242   0.829   2.818  0.2047 -0.7376  0.2364
   56CHL1    C1 4114   5.354   0.572   2.873  0.2711  0.2217 -0.3637
   56CHL1   H1A 4115   5.452   0.617   2.846  1.1137 -0.1447  1.8484
   56CHL1   H1B 4116   5.383   0.481   2.930  3.0298  1.9494  1.1973
   56CHL1    C2 4117   5.274   0.530   2.741 -0.7213 -0.2458 -0.3539
   56CHL1   H2A 4118   5.317   0.445   2.685 -1.4415 -0.8733  0.0296
   56CHL1   H2B 4119   5.281   0.623   2.681  0.3137  1.3559  2.1046
   56CHL1   C20 4120   5.661   0.867   3.530 -0.7641  0.0883  0.0986
   56CHL1   H20 4121   5.652   0.973   3.500 -0.1914  0.6899  1.9198
   56CHL1   C21 4122   5.797   0.820   3.462 -0.3492 -0.0029 -0.4652
   56CHL1  H21A 4123   5.822   0.880   3.372  0.7970 -1.1440 -0.9339
   56CHL1  H21B 4124   5.784   0.713   3.436  0.3674 -0.0765 -0.5367
   56CHL1  H21C 4125   5.878   0.818   3.538 -1.2188 -2.1826  0.4653
   56CHL1   C22 4126   5.668   0.863   3.682 -0.3062 -1.1514 -0.2926
   56CHL1  H22A 4127   5.758   0.916   3.719 -0.4206 -1.3488  0.2817
   56CHL1  H22B 4128   5.578   0.922   3.709  2.0761  2.0406  1.2570
   56CHL1   C23 4129   5.679   0.726   3.755  0.0712  0.4795  0.5595
   56CHL1  H23A 4130   5.604   0.658   3.709  1.1698 -2.3894  2.7351
   56CHL1  H23B 4131   5.768   0.666   3.726 -2.1444 -1.6722 -2.5011
   56CHL1   C24 4132   5.664   0.741   3.910  0.2158  0.0412 -0.9486
   56CHL1  H24A 4133   5.565   0.782   3.939  0.9152  1.0076  0.1225
   56CHL1  H24B 4134   5.664   0.642   3.961  1.6589  0.3888 -0.2430
   56CHL1   C25 4135   5.769   0.828   3.981  0.2118 -0.3217 -0.8803
   56CHL1   H25 4136   5.774   0.937   3.958  0.1079 -0.2490 -0.5646
   56CHL1   C26 4137   5.736   0.828   4.130 -1.0399  0.0395 -0.9719
   56CHL1  H26A 4138   5.808   0.892   4.185 -0.8919 -1.9996  1.3721
   56CHL1  H26B 4139   5.631   0.854   4.155 -0.4034  0.1350  1.9259
   56CHL1  H26C 4140   5.758   0.727   4.169  1.7011  0.1828 -1.9279
   56CHL1   C27 4141   5.908   0.771   3.959  0.5959 -0.5513  0.2841
   56CHL1  H27A 4142   5.907   0.660   3.959 -2.8966 -0.6409 -1.2147
   56CHL1  H27B 4143   5.954   0.803   3.862 -1.6105  0.0903 -0.6084
   56CHL1  H27C 4144   5.986   0.804   4.031  1.2035 -1.0759 -0.1153
   57SAPC     N 4145   1.114   1.962   7.042 -0.1262 -0.1570  0.8956
   57SAPC   C12 4146   1.061   1.913   6.911  0.2943 -0.3066  0.6379
   57SAPC  H12A 4147   1.016   1.998   6.863  0.7196  0.1908  1.0990
   57SAPC  H12B 4148   0.984   1.839   6.926  2.1785 -2.3083  1.0689
   57SAPC   C13 4149   0.995   2.033   7.106  0.3492  0.4445  0.7100
   57SAPC  H13A 4150   0.978   2.125   7.052 -0.8699 -0.6725 -0.8828
   57SAPC  H13B 4151   0.910   1.973   7.079  1.2088 -0.2976 -0.4696
   57SAPC  H13C 4152   1.010   2.069   7.207 -0.3135  1.9594  0.3008
   57SAPC   C14 4153   1.147   1.842   7.125 -0.4392  0.1391 -0.2978
   57SAPC  H14A 4154   1.224   1.858   7.198 -0.3323 -2.1651  0.1431
   57SAPC  H14B 4155   1.058   1.811   7.178 -0.8150  1.1760 -0.2844
   57SAPC  H14C 4156   1.178   1.757   7.066  2.6057  0.2903  0.9365
   57SAPC   C15 4157   1.234   2.054   7.043 -0.7197  0.4120 -0.1853
   57SAPC  H15A 4158   1.228   2.141   6.979 -2.5574  0.1109 -0.4865
   57SAPC  H15B 4159   1.261   2.077   7.145 -3.1721  0.3733  0.5340
   57SAPC  H15C 4160   1.319   1.997   7.009 -0.4478  0.7138 -0.0116
   57SAPC   C11 4161   1.156   1.851   6.802  0.0838 -0.1995 -0.0371
   57SAPC  H11A 4162   1.223   1.932   6.766 -0.9301  2.1698  2.9542
   57SAPC  H11B 4163   1.093   1.828   6.714 -1.6182 -0.1692  1.1151
   57SAPC     P 4164   1.199   1.594   6.817 -0.2738 -0.0090  0.0188
   57SAPC   O13 4165   1.324   1.515   6.835  0.3353 -0.5675  0.3710
   57SAPC   O14 4166   1.094   1.554   6.909  0.4157 -0.1146 -0.3774
   57SAPC   O12 4167   1.236   1.740   6.846  0.3648  0.1256  0.1983
   57SAPC   O11 4168   1.159   1.606   6.666  0.2464 -0.0538 -0.1740
   57SAPC    C1 4169   1.265   1.620   6.572 -0.2879  0.2707  0.3027
   57SAPC    HA 4170   1.216   1.651   6.477  2.0916 -0.3038 -1.1874
   57SAPC    HB 4171   1.324   1.712   6.592 -3.0198  1.6926  2.4817
   57SAPC    C2 4172   1.346   1.493   6.530  0.2613  0.2010 -0.0803
   57SAPC    HS 4173   1.430   1.481   6.602  1.6500 -4.6697 -2.0883
   57SAPC   O21 4174   1.401   1.512   6.399 -0.2613  0.6829  0.8946
   57SAPC   C21 4175   1.485   1.423   6.355  0.1440  0.1358  0.2116
   57SAPC   O22 4176   1.530   1.332   6.428  0.0219 -0.1832 -0.2511
   57SAPC   C22 4177   1.508   1.436   6.202  0.6806  0.2678 -0.5662
   57SAPC   H2R 4178   1.454   1.522   6.156 -1.8237 -1.1761 -0.4936
   57SAPC   H2S 4179   1.616   1.460   6.203  0.6068  0.6682  0.9932
   57SAPC    C3 4180   1.255   1.370   6.548  0.1329 -0.3241  0.0506
   57SAPC    HX 4181   1.223   1.358   6.653 -2.4495 -3.4279 -0.9140
   57SAPC    HY 4182   1.316   1.281   6.523  0.1488 -1.0304  2.4308
   57SAPC   O31 4183   1.141   1.387   6.453 -0.0004  0.4296 -0.6000
   57SAPC   C31 4184   1.021   1.403   6.498  0.7977  0.5694 -0.6659
   57SAPC   O32 4185   0.976   1.400   6.612 -0.4107  0.2047 -0.2632
   57SAPC   C32 4186   0.924   1.438   6.388  0.7089  0.6077  0.4259
   57SAPC   H2X 4187   0.878   1.534   6.419  0.3848  0.8110 -0.6676
   57SAPC   H2Y 4188   0.839   1.367   6.386  1.0104  0.2525 -1.5378
   57SAPC   C23 4189   1.476   1.301   6.131  0.9354 -0.4269 -0.5494
   57SAPC   H3R 4190   1.515   1.212   6.185 -0.9474 -1.3686 -0.6463
   57SAPC   H3S 4191   1.518   1.299   6.028  3.9686 -1.3013  0.5868
   57SAPC   C24 4192   1.320   1.300   6.114 -0.2717 -0.0239 -0.1199
   57SAPC   H4R 4193   1.299   1.400   6.071  1.3793  0.4666  0.1419
   57SAPC   H4S 4194   1.273   1.289   6.213  3.5422  2.1548  2.1822
   57SAPC   C25 4195   1.288   1.187   6.014 -0.5263  0.1053  0.2452
   57SAPC   H5R 4196   1.303   1.089   6.063 -1.7641  0.5087  1.5020
   57SAPC   C26 4197   1.254   1.195   5.884  0.0740 -0.3729 -0.4658
   57SAPC   H6R 4198   1.229   1.102   5.830  1.6970 -0.7251 -0.6661
   57SAPC   C27 4199   1.241   1.323   5.807  0.5493 -0.1522 -0.1756
   57SAPC   H7R 4200   1.181   1.400   5.859  1.4943  1.1029 -0.9091
   57SAPC   H7S 4201   1.176   1.296   5.721  2.0902  2.3307 -2.2621
   57SAPC   C28 4202   1.376   1.372   5.753 -0.3156  0.4550 -0.1178
   57SAPC   H8R 4203   1.443   1.421   5.825 -0.8813  1.0220  0.0402
   57SAPC   C29 4204   1.426   1.344   5.631 -0.7512  0.4840 -0.7277
   57SAPC   H9R 4205   1.522   1.387   5.598  0.3382 -1.1398  0.1862
   57SAPC  C210 4206   1.351   1.270   5.525 -0.4791  0.1488  0.3892
   57SAPC  H10R 4207   1.275   1.198   5.562 -1.1513 -0.5171 -2.0949
   57SAPC  H10S 4208   1.427   1.206   5.476  0.3057 -0.4141  2.2551
   57SAPC  C211 4209   1.277   1.363   5.430  0.4991  0.1456 -0.3003
   57SAPC  H11R 4210   1.175   1.388   5.462  0.3423 -0.3271 -0.4278
   57SAPC  C212 4211   1.312   1.383   5.303 -0.6827  1.0712  0.6373
   57SAPC  H12R 4212   1.240   1.430   5.235 -1.4090 -0.7061  0.1233
   57SAPC  C213 4213   1.442   1.344   5.228 -0.0590 -0.3303 -0.5674
   57SAPC  H13R 4214   1.419   1.313   5.124 -0.5212  1.4717 -1.0296
   57SAPC  H13S 4215   1.493   1.260   5.280 -0.3375  0.2459  0.6863
   57SAPC  C214 4216   1.538   1.463   5.233 -0.6168  0.0905 -0.3775
   57SAPC  H14R 4217   1.539   1.520   5.327 -0.7586  0.6877 -0.7379
   57SAPC  C215 4218   1.620   1.505   5.131 -1.0301 -0.3603 -0.3686
   57SAPC  H15R 4219   1.676   1.598   5.148 -0.7273 -0.4655 -0.7616
   57SAPC  C216 4220   1.663   1.434   5.002  0.7720  0.0085 -0.5252
   57SAPC  H16R 4221   1.665   1.323   4.997  1.5020  0.0697 -3.9141
   57SAPC  H16S 4222   1.767   1.468   4.984  1.2788 -0.6046  1.0887
   57SAPC  C217 4223   1.576   1.484   4.886 -0.2969 -0.8193  0.5996
   57SAPC  H17R 4224   1.548   1.590   4.906 -0.4311 -0.8108  0.3812
   57SAPC  H17S 4225   1.482   1.424   4.886 -0.3557 -0.7380 -0.0047
   57SAPC  C218 4226   1.660   1.469   4.758 -0.7540 -0.0127 -0.3656
   57SAPC  H18R 4227   1.752   1.528   4.776  0.7088 -1.5523 -2.3512
   57SAPC  H18S 4228   1.603   1.529   4.684 -1.2327  2.0370  1.5711
   57SAPC  C219 4229   1.677   1.329   4.709  0.3118  1.1227 -0.4410
   57SAPC  H19R 4230   1.659   1.242   4.776  0.3179  0.8576 -0.7822
   57SAPC  H19S 4231   1.781   1.308   4.676 -0.1452 -1.4197 -0.4659
   57SAPC  C220 4232   1.603   1.321   4.570 -0.7119 -0.6815 -0.0142
   57SAPC  H20R 4233   1.507   1.378   4.566 -2.1779 -2.9519  0.5870
   57SAPC  H20S 4234   1.588   1.214   4.543 -1.6128 -1.4739  3.1443
   57SAPC  H20T 4235   1.672   1.360   4.492 -3.3448  1.7002 -1.3392
   57SAPC   C33 4236   0.989   1.462   6.257  0.1024  0.3079  0.8833
   57SAPC   H3X 4237   1.030   1.365   6.221  0.8123 -0.0297  2.5131
   57SAPC   H3Y 4238   1.070   1.538   6.257 -1.1345  1.6793  0.1003
   57SAPC   C34 4239   0.889   1.524   6.165  0.2211  0.5319  0.1224
   57SAPC   H4X 4240   0.854   1.618   6.213 -0.9621 -0.4205  1.2019
   57SAPC   H4Y 4241   0.797   1.462   6.160  0.3489  0.3627 -0.1832
   57SAPC   C35 4242   0.932   1.548   6.021  0.0835 -0.6297  0.1892
   57SAPC   H5X 4243   0.954   1.451   5.970 -2.2490  0.2169 -2.7191
   57SAPC   H5Y 4244   1.026   1.606   6.015 -0.1001 -0.3769 -0.2957
   57SAPC   C36 4245   0.839   1.625   5.927  0.2777 -0.2004 -0.2389
   57SAPC   H6X 4246   0.829   1.731   5.960  0.2526  0.4930 -2.3234
   57SAPC   H6Y 4247   0.739   1.580   5.919  0.4321 -0.3583 -1.3835
   57SAPC   C37 4248   0.892   1.612   5.782 -0.0706  0.6857 -0.5534
   57SAPC   H7X 4249   0.870   1.506   5.758  2.2872 -1.0248  3.7603
   57SAPC   H7Y 4250   1.002   1.618   5.790 -0.2818  2.6054  1.9242
   57SAPC   C38 4251   0.858   1.731   5.691  0.4271  0.0253  1.0813
   57SAPC   H8X 4252   0.893   1.823   5.743 -0.5465  0.5755  0.7912
   57SAPC   H8Y 4253   0.749   1.748   5.683  0.6801  0.6673 -2.3029
   57SAPC   C39 4254   0.921   1.728   5.555 -0.0662 -0.2846  0.1306
   57SAPC   H9X 4255   1.030   1.718   5.575 -0.1261  0.9456  1.1838
   57SAPC   H9Y 4256   0.906   1.829   5.511  3.0956  0.3260  0.2405
   57SAPC  C310 4257   0.877   1.613   5.457  0.2703  0.6582 -0.1062
   57SAPC  H10X 4258   0.774   1.624   5.417 -0.5704 -0.7357  1.5366
   57SAPC  H10Y 4259   0.887   1.515   5.509  0.5354 -0.5871 -2.3891
   57SAPC  C311 4260   0.966   1.601   5.335  0.6872  0.3601 -0.3178
   57SAPC  H11X 4261   0.943   1.508   5.280  1.2937 -0.4449  0.7511
   57SAPC  H11Y 4262   1.069   1.608   5.377 -0.1537  0.3393  1.8943
   57SAPC  C312 4263   0.955   1.710   5.226 -0.3308  0.8938 -0.6617
   57SAPC  H12X 4264   0.974   1.804   5.282  1.2558  0.8120 -1.0342
   57SAPC  H12Y 4265   0.859   1.710   5.169  0.5165  0.2438 -2.1289
   57SAPC  C313 4266   1.076   1.691   5.127  0.4315 -0.3780 -0.4480
   57SAPC  H13X 4267   1.163   1.664   5.190  1.1938  0.9079 -0.9004
   57SAPC  H13Y 4268   1.112   1.783   5.075  1.8042 -2.7601 -4.0588
   57SAPC  C314 4269   1.056   1.584   5.016  0.4195 -0.5427  0.4386
   57SAPC  H14X 4270   0.986   1.619   4.937  0.9946  0.6153  0.4156
   57SAPC  H14Y 4271   1.018   1.499   5.075 -0.4248  1.4274  2.8914
   57SAPC  C315 4272   1.176   1.532   4.940 -0.8905 -0.3702  0.0323
   57SAPC  H15X 4273   1.259   1.507   5.010 -1.5395 -0.0384  0.9331
   57SAPC  H15Y 4274   1.210   1.628   4.895 -3.3063 -0.0464 -1.2777
   57SAPC  C316 4275   1.155   1.425   4.836  0.0382  0.1640 -0.6838
   57SAPC  H16X 4276   1.116   1.332   4.883 -1.9105  0.4927 -1.5501
   57SAPC  H16Y 4277   1.255   1.400   4.797 -0.3191 -0.9529 -0.9153
   57SAPC  C317 4278   1.041   1.453   4.737 -0.2301 -0.9801 -0.0430
   57SAPC  H17X 4279   1.019   1.561   4.752 -0.9031 -0.9471 -1.1100
   57SAPC  H17Y 4280   0.941   1.407   4.751  0.3453 -2.4958 -0.7016
   57SAPC  C318 4281   1.088   1.457   4.585  0.4172 -0.1533  0.3368
   57SAPC  H18X 4282   1.004   1.486   4.517  1.8480 -2.3958 -2.6082
   57SAPC  H18Y 4283   1.124   1.355   4.562  1.0235 -0.5149  2.6149
   57SAPC  H18Z 4284   1.169   1.531   4.569 -0.2921  1.4906  3.4756
   58SAPC     N 4285   3.893   5.513   6.950  0.2821  0.5237 -0.3334
   58SAPC   C12 4286   3.750   5.490   7.008 -0.2292  0.6163  0.3466
   58SAPC  H12A 4287   3.756   5.498   7.116  1.3559 -2.2362  0.5599
   58SAPC  H12B 4288   3.712   5.392   6.982 -0.9113  1.0796 -0.4739
   58SAPC   C13 4289   3.886   5.527   6.803  1.0533 -0.3170  0.3143
   58SAPC  H13A 4290   3.981   5.545   6.754  0.2095  1.3596 -0.8165
   58SAPC  H13B 4291   3.847   5.442   6.751 -0.1905  0.8564 -0.7470
   58SAPC  H13C 4292   3.825   5.615   6.785  1.8449  0.0439 -0.7241
   58SAPC   C14 4293   3.950   5.632   7.017  0.1110  0.4688 -0.3971
   58SAPC  H14A 4294   3.867   5.695   7.046 -0.7178 -1.1687  0.9727
   58SAPC  H14B 4295   4.002   5.587   7.101  1.5343 -1.7853 -2.3575
   58SAPC  H14C 4296   4.019   5.686   6.954  0.5849 -0.7463 -0.9627
   58SAPC   C15 4297   3.977   5.397   6.978  0.5881 -0.5138 -1.0592
   58SAPC  H15A 4298   4.078   5.418   6.947  1.9470 -2.1533  1.8537
   58SAPC  H15B 4299   3.983   5.379   7.084  2.7323 -0.5778 -1.1442
   58SAPC  H15C 4300   3.938   5.306   6.933 -2.1422 -0.0133  0.0942
   58SAPC   C11 4301   3.644   5.596   6.968  0.3291 -0.5382  0.3490
   58SAPC  H11A 4302   3.556   5.549   7.016  2.2330 -2.1069  2.4992
   58SAPC  H11B 4303   3.624   5.589   6.859 -1.7698 -1.7447  0.7573
   58SAPC     P 4304   3.607   5.854   6.947  0.0693  0.1750  0.0653
   58SAPC   O13 4305   3.462   5.859   6.974 -0.3289 -0.4849  0.0141
   58SAPC   O14 4306   3.675   5.982   6.980 -0.1936 -0.5563  0.1731
   58SAPC   O12 4307   3.677   5.733   7.018 -0.4443  0.1653 -0.0104
   58SAPC   O11 4308   3.628   5.831   6.795 -0.2034  0.2009  0.7035
   58SAPC    C1 4309   3.758   5.852   6.740  0.1651  0.7291 -0.0018
   58SAPC    HA 4310   3.836   5.852   6.819  0.2578  0.2521 -0.0902
   58SAPC    HB 4311   3.784   5.764   6.677  1.1964 -0.6503  2.2234
   58SAPC    C2 4312   3.772   5.987   6.656  0.0137  0.4200 -0.2902
   58SAPC    HS 4313   3.737   6.070   6.722  1.4149  1.3328 -0.6328
   58SAPC   O21 4314   3.700   5.982   6.537  0.4380  0.4628 -0.2084
   58SAPC   C21 4315   3.571   6.008   6.549 -0.4141 -0.4502  1.5937
   58SAPC   O22 4316   3.517   6.065   6.638  0.0736  0.3948 -0.1206
   58SAPC   C22 4317   3.481   5.970   6.429  0.1277  0.6984 -0.4196
   58SAPC   H2R 4318   3.541   5.906   6.360 -0.9719 -0.1792 -0.6068
   58SAPC   H2S 4319   3.398   5.907   6.468 -0.0407  1.5541  0.6546
   58SAPC    C3 4320   3.915   6.032   6.629  0.3897 -0.7897 -0.8905
   58SAPC    HX 4321   3.979   5.958   6.576  1.6020  0.5929 -1.4006
   58SAPC    HY 4322   3.949   6.049   6.734 -1.2766  1.7199 -0.6810
   58SAPC   O31 4323   3.903   6.165   6.562 -0.4784 -0.1138  0.6072
   58SAPC   C31 4324   3.948   6.164   6.433  0.2803  0.2968 -0.1818
   58SAPC   O32 4325   4.007   6.070   6.379  0.0054  0.2907  0.5154
   58SAPC   C32 4326   3.932   6.303   6.367 -0.5955 -0.2047 -0.4479
   58SAPC   H2X 4327   3.961   6.386   6.436  1.9627 -1.9816  0.8102
   58SAPC   H2Y 4328   3.825   6.329   6.351 -0.3593  1.9728  1.0028
   58SAPC   C23 4329   3.416   6.085   6.348  1.6071 -0.1924  0.1037
   58SAPC   H3R 4330   3.333   6.137   6.402  1.3890  0.8683 -1.1956
   58SAPC   H3S 4331   3.366   6.040   6.259 -1.1441  2.3126  0.2005
   58SAPC   C24 4332   3.521   6.186   6.294  0.1578  0.8645 -0.7397
   58SAPC   H4R 4333   3.559   6.238   6.384 -1.0794  0.6171 -0.0476
   58SAPC   H4S 4334   3.465   6.274   6.255  1.6425  1.9828 -0.4265
   58SAPC   C25 4335   3.626   6.133   6.199 -0.9387 -0.0841  0.6037
   58SAPC   H5R 4336   3.720   6.109   6.251 -0.7782 -0.7588  0.0149
   58SAPC   C26 4337   3.631   6.127   6.060 -0.3533  0.7564  0.5900
   58SAPC   H6R 4338   3.719   6.092   6.006 -2.0936 -0.9590 -1.2929
   58SAPC   C27 4339   3.509   6.142   5.970  0.1986 -0.9109  0.3469
   58SAPC   H7R 4340   3.513   6.242   5.923  1.5913 -0.4298  1.4223
   58SAPC   H7S 4341   3.420   6.144   6.037 -0.1159  1.8702 -0.0558
   58SAPC   C28 4342   3.486   6.039   5.869  0.8838  0.5597  0.4626
   58SAPC   H8R 4343   3.424   5.959   5.913 -0.4864  0.1357 -2.0714
   58SAPC   C29 4344   3.520   6.033   5.738  0.0333 -0.8473 -0.5247
   58SAPC   H9R 4345   3.487   5.948   5.676 -0.1724  0.3000 -2.0578
   58SAPC  C210 4346   3.595   6.141   5.669  0.7548  0.2438  0.0099
   58SAPC  H10R 4347   3.651   6.097   5.584 -1.7543 -1.7712 -0.7238
   58SAPC  H10S 4348   3.676   6.176   5.736  0.1763  1.8639 -0.0805
   58SAPC  C211 4349   3.517   6.260   5.622  0.5314 -0.4991  0.9294
   58SAPC  H11R 4350   3.477   6.320   5.705 -0.3592 -0.6623  0.6295
   58SAPC  C212 4351   3.489   6.302   5.496  0.5270  0.9797 -0.3492
   58SAPC  H12R 4352   3.423   6.387   5.478 -0.6871  0.0290 -0.5165
   58SAPC  C213 4353   3.543   6.235   5.371 -0.3176 -0.3828 -0.2787
   58SAPC  H13R 4354   3.450   6.206   5.318 -0.2894  0.7520 -0.9832
   58SAPC  H13S 4355   3.602   6.142   5.383  2.6854  1.0553 -2.4496
   58SAPC  C214 4356   3.609   6.335   5.275 -0.8323  0.7516  0.1550
   58SAPC  H14R 4357   3.703   6.370   5.320 -0.5133  0.8049 -0.5476
   58SAPC  C215 4358   3.571   6.386   5.158 -0.3910  0.8575 -0.3613
   58SAPC  H15R 4359   3.635   6.463   5.112  1.9200 -1.4588 -1.2813
   58SAPC  C216 4360   3.445   6.359   5.090 -0.0638  0.1744  0.5165
   58SAPC  H16R 4361   3.381   6.449   5.078  0.3619  1.1133  4.0693
   58SAPC  H16S 4362   3.381   6.295   5.154  0.1966 -0.3207  0.2851
   58SAPC  C217 4363   3.473   6.277   4.963  0.4041  0.1859 -0.0455
   58SAPC  H17R 4364   3.375   6.244   4.924  0.8430 -0.5757 -0.5424
   58SAPC  H17S 4365   3.541   6.191   4.985  2.5764  1.1509 -2.5340
   58SAPC  C218 4366   3.533   6.362   4.851 -0.1262 -0.3469 -0.6527
   58SAPC  H18R 4367   3.642   6.376   4.866 -0.3295 -0.1404  0.6956
   58SAPC  H18S 4368   3.487   6.463   4.854 -2.1176 -1.2034 -0.8048
   58SAPC  C219 4369   3.515   6.296   4.716  0.8937  0.2265  0.5157
   58SAPC  H19R 4370   3.409   6.274   4.693  1.1842 -0.1456 -0.5284
   58SAPC  H19S 4371   3.558   6.195   4.729  0.6490 -0.1068 -1.1317
   58SAPC  C220 4372   3.585   6.367   4.605  0.2926  0.3710  0.2700
   58SAPC  H20R 4373   3.692   6.370   4.634  0.0911  1.5780  0.9719
   58SAPC  H20S 4374   3.540   6.467   4.588 -0.9707 -0.4623 -1.6266
   58SAPC  H20T 4375   3.588   6.314   4.508 -0.6689  0.3995  0.2203
   58SAPC   C33 4376   4.021   6.312   6.238  0.4156 -0.5346  0.6556
   58SAPC   H3X 4377   3.967   6.237   6.177 -0.0585  1.0549 -0.9720
   58SAPC   H3Y 4378   4.127   6.278   6.240  0.9359  0.5571 -2.4066
   58SAPC   C34 4379   4.011   6.454   6.174 -0.8020  0.2492 -0.1155
   58SAPC   H4X 4380   4.092   6.473   6.101 -1.5196  2.5101 -0.4143
   58SAPC   H4Y 4381   4.023   6.528   6.256  0.3279 -2.0212  1.8924
   58SAPC   C35 4382   3.878   6.480   6.101  0.0293 -0.3144 -0.3076
   58SAPC   H5X 4383   3.878   6.588   6.076  2.0914 -0.2289 -0.1494
   58SAPC   H5Y 4384   3.804   6.455   6.181  0.8273 -1.8362 -0.0164
   58SAPC   C36 4385   3.865   6.399   5.971 -0.2538 -0.1865  0.0019
   58SAPC   H6X 4386   3.761   6.398   5.930 -0.2027  0.5277 -0.1687
   58SAPC   H6Y 4387   3.901   6.296   5.989  1.0018  0.5465  1.9163
   58SAPC   C37 4388   3.952   6.453   5.862  0.1959  0.0137 -0.8235
   58SAPC   H7X 4389   4.055   6.430   5.897 -0.0474  0.6332  0.3589
   58SAPC   H7Y 4390   3.939   6.564   5.864 -0.6590 -0.0920  0.0163
   58SAPC   C38 4391   3.917   6.388   5.727  1.0697  0.3502  0.2377
   58SAPC   H8X 4392   3.820   6.433   5.696  1.8588  1.0221 -1.3752
   58SAPC   H8Y 4393   3.913   6.277   5.734 -0.3257  0.3261 -0.4791
   58SAPC   C39 4394   4.011   6.426   5.612 -0.2266  0.1594  0.4258
   58SAPC   H9X 4395   4.109   6.377   5.630 -0.6226 -0.6958  0.2751
   58SAPC   H9Y 4396   4.035   6.533   5.631  1.6298 -0.0015 -0.7732
   58SAPC  C310 4397   3.946   6.401   5.475 -0.6102 -0.1278 -0.0463
   58SAPC  H10X 4398   3.941   6.490   5.410  0.2379  1.6143  2.1561
   58SAPC  H10Y 4399   3.841   6.365   5.479 -0.2226 -1.4395 -0.8187
   58SAPC  C311 4400   4.027   6.293   5.407 -0.1347 -0.5089 -0.0058
   58SAPC  H11X 4401   4.029   6.207   5.478  1.5236  1.0196  1.9117
   58SAPC  H11Y 4402   4.130   6.333   5.405 -1.3342  2.8745 -0.7207
   58SAPC  C312 4403   3.973   6.255   5.279  0.3926  1.2561  0.5396
   58SAPC  H12X 4404   3.863   6.243   5.290  0.3089 -0.4795 -1.6726
   58SAPC  H12Y 4405   4.024   6.160   5.253 -0.0109  0.7675  1.4648
   58SAPC  C313 4406   3.991   6.348   5.162  0.2977  0.0516 -0.2603
   58SAPC  H13X 4407   4.094   6.387   5.150  0.3947 -0.0489  0.2205
   58SAPC  H13Y 4408   3.927   6.436   5.184 -1.1321 -1.0692  0.3155
   58SAPC  C314 4409   3.950   6.288   5.026  0.5682 -0.1086  0.3365
   58SAPC  H14X 4410   3.852   6.235   5.026  1.3841 -1.8002 -1.9323
   58SAPC  H14Y 4411   4.035   6.221   5.004 -0.3857 -1.2756  0.0896
   58SAPC  C315 4412   3.959   6.396   4.910 -0.3222  0.3601  0.1894
   58SAPC  H15X 4413   4.038   6.468   4.942 -0.9155  0.3282  1.8488
   58SAPC  H15Y 4414   3.863   6.452   4.909  0.1631  1.2385 -1.5808
   58SAPC  C316 4415   4.004   6.329   4.778 -0.4763  0.0575 -0.4072
   58SAPC  H16X 4416   3.947   6.234   4.769 -0.1867 -0.2592  0.8726
   58SAPC  H16Y 4417   4.110   6.300   4.793 -0.7042  0.2841  2.1199
   58SAPC  C317 4418   3.983   6.421   4.661 -0.7180  0.4673  1.2977
   58SAPC  H17X 4419   4.038   6.517   4.652 -1.9043  0.9766 -2.4040
   58SAPC  H17Y 4420   3.875   6.451   4.660 -0.6678  0.6652  1.6040
   58SAPC  C318 4421   4.007   6.339   4.527 -0.5314 -0.3289 -0.1978
   58SAPC  H18X 4422   3.993   6.405   4.438 -1.8483  0.3463  0.4780
   58SAPC  H18Y 4423   3.944   6.248   4.523 -1.1515  0.0905 -0.0994
   58SAPC  H18Z 4424   4.112   6.305   4.540 -0.3039 -0.8709 -2.8443
   59SAPC     N 4425   1.737   2.977   7.090 -0.1407  0.3389  1.1790
   59SAPC   C12 4426   1.706   3.128   7.069 -0.0909 -0.2183 -0.3832
   59SAPC  H12A 4427   1.781   3.184   7.015 -1.2969  2.1401  0.2376
   59SAPC  H12B 4428   1.685   3.176   7.163 -1.6602 -0.2040 -0.7186
   59SAPC   C13 4429   1.646   2.931   7.197  0.3667 -0.2841  0.4599
   59SAPC  H13A 4430   1.650   2.823   7.205 -0.3001 -0.2461  1.5873
   59SAPC  H13B 4431   1.664   2.980   7.291 -0.7707 -1.0791  1.1162
   59SAPC  H13C 4432   1.541   2.946   7.177  0.6604 -0.6024 -1.4891
   59SAPC   C14 4433   1.725   2.891   6.969 -0.5883 -0.5677  0.2371
   59SAPC  H14A 4434   1.733   2.786   6.995  0.6910 -0.8920 -1.3475
   59SAPC  H14B 4435   1.636   2.916   6.914 -0.2881  0.9750  0.4159
   59SAPC  H14C 4436   1.806   2.913   6.902 -0.3518 -2.2833 -0.0870
   59SAPC   C15 4437   1.872   2.958   7.152 -0.0050  0.3292  0.3055
   59SAPC  H15A 4438   1.948   2.974   7.077 -2.3783  1.8879 -1.9072
   59SAPC  H15B 4439   1.893   3.029   7.230  1.5369 -2.9092  3.1179
   59SAPC  H15C 4440   1.886   2.861   7.198 -2.0325  0.2613  0.8482
   59SAPC   C11 4441   1.583   3.159   6.982 -0.0903  0.3990 -0.5000
   59SAPC  H11A 4442   1.579   3.106   6.885  0.3530 -0.9218  0.1834
   59SAPC  H11B 4443   1.590   3.266   6.950  0.1028  1.1087  1.7218
   59SAPC     P 4444   1.341   3.048   7.023  0.1510  0.0874  0.0078
   59SAPC   O13 4445   1.306   2.965   7.143 -0.0253  0.3554  0.2117
   59SAPC   O14 4446   1.228   3.132   6.974 -0.8463  0.8725 -0.9225
   59SAPC   O12 4447   1.463   3.139   7.058  0.2707 -0.0377 -0.0438
   59SAPC   O11 4448   1.396   2.956   6.907 -0.0696 -0.2253  0.0168
   59SAPC    C1 4449   1.387   2.978   6.766  0.2128 -0.2328 -0.5975
   59SAPC    HA 4450   1.395   3.084   6.735 -2.9808  0.7548  1.4683
   59SAPC    HB 4451   1.460   2.915   6.710 -1.5974 -0.9636 -2.2542
   59SAPC    C2 4452   1.246   2.927   6.722  0.2988  0.6197  0.2692
   59SAPC    HS 4453   1.166   2.956   6.794 -3.3264 -1.9002 -2.3632
   59SAPC   O21 4454   1.251   2.786   6.702  0.0219 -0.0786  0.3140
   59SAPC   C21 4455   1.145   2.722   6.674  0.5065  0.1310  1.1333
   59SAPC   O22 4456   1.029   2.760   6.692 -0.0753 -1.1059  0.1010
   59SAPC   C22 4457   1.175   2.590   6.619  0.4251  0.2341  0.0567
   59SAPC   H2R 4458   1.233   2.586   6.524  2.0855  0.9426  0.9983
   59SAPC   H2S 4459   1.234   2.534   6.695  0.8646  1.8173  0.9207
   59SAPC    C3 4460   1.204   2.989   6.583  0.1336  0.3784  0.1055
   59SAPC    HX 4461   1.204   3.098   6.605 -0.3093  1.0069 -2.6452
   59SAPC    HY 4462   1.097   2.966   6.561  0.2722  1.2155 -1.5803
   59SAPC   O31 4463   1.287   2.957   6.470  0.3215 -0.0131  0.6078
   59SAPC   C31 4464   1.372   3.051   6.437 -0.2710  0.2674  0.1634
   59SAPC   O32 4465   1.400   3.151   6.499 -0.0575  0.0906 -0.3379
   59SAPC   C32 4466   1.425   3.014   6.303  0.3450  0.3177  0.5375
   59SAPC   H2X 4467   1.339   2.979   6.241 -1.7414  0.8954  2.9291
   59SAPC   H2Y 4468   1.487   2.924   6.324 -0.6594 -1.1070 -2.0593
   59SAPC   C23 4469   1.044   2.513   6.597 -0.0215 -0.0649 -0.1534
   59SAPC   H3R 4470   0.983   2.567   6.521  0.7257 -1.2703 -1.6599
   59SAPC   H3S 4471   0.993   2.514   6.696  2.3888  0.9151  1.1857
   59SAPC   C24 4472   1.073   2.371   6.539 -0.1086  0.3330 -0.5097
   59SAPC   H4R 4473   1.154   2.381   6.464  0.4863  0.5095  0.1384
   59SAPC   H4S 4474   0.979   2.333   6.494 -0.3181  0.4720 -0.1979
   59SAPC   C25 4475   1.109   2.280   6.651  0.0990 -0.1925 -0.1981
   59SAPC   H5R 4476   1.054   2.295   6.745  2.9217  2.5923  1.1951
   59SAPC   C26 4477   1.221   2.201   6.642 -0.1529 -0.3498  0.4122
   59SAPC   H6R 4478   1.250   2.140   6.729 -1.4405 -1.4082  0.1338
   59SAPC   C27 4479   1.297   2.168   6.517 -0.6301  0.6282  0.1754
   59SAPC   H7R 4480   1.235   2.201   6.430 -2.6796 -0.6173  1.0834
   59SAPC   H7S 4481   1.302   2.058   6.512  1.5290  0.7095 -3.0401
   59SAPC   C28 4482   1.436   2.228   6.526 -0.1433 -0.6803  0.0048
   59SAPC   H8R 4483   1.443   2.334   6.554  1.7411 -0.5074 -0.9550
   59SAPC   C29 4484   1.557   2.180   6.503 -0.0781  0.6035  0.4435
   59SAPC   H9R 4485   1.643   2.241   6.534 -1.4493  1.1149  3.6093
   59SAPC  C210 4486   1.585   2.046   6.455  0.3205  0.0227 -0.0643
   59SAPC  H10R 4487   1.694   2.049   6.435  0.0742  0.9397 -1.4226
   59SAPC  H10S 4488   1.528   2.032   6.361 -0.9647 -0.6390  0.7831
   59SAPC  C211 4489   1.557   1.929   6.543 -0.6267 -0.3129 -0.8454
   59SAPC  H11R 4490   1.501   1.956   6.634  0.4273  0.6153 -0.4466
   59SAPC  C212 4491   1.588   1.803   6.515 -0.0160  0.2903  0.1513
   59SAPC  H12R 4492   1.571   1.725   6.591  0.9721  0.7047  0.8093
   59SAPC  C213 4493   1.658   1.758   6.390  0.2492  0.2042  0.6390
   59SAPC  H13R 4494   1.649   1.848   6.326  0.8582 -0.4619 -0.4113
   59SAPC  H13S 4495   1.595   1.686   6.332  1.2876 -0.1917 -0.0252
   59SAPC  C214 4496   1.787   1.698   6.406 -0.3780 -0.3920 -0.4221
   59SAPC  H14R 4497   1.801   1.627   6.489 -0.3273  1.2383  1.0072
   59SAPC  C215 4498   1.896   1.712   6.328 -0.9177  0.0498  0.2162
   59SAPC  H15R 4499   1.981   1.648   6.356 -1.6064 -1.5513 -1.2280
   59SAPC  C216 4500   1.906   1.805   6.210  0.1643 -0.3150 -0.0459
   59SAPC  H16R 4501   2.003   1.858   6.219  1.2047 -2.2581  0.6473
   59SAPC  H16S 4502   1.826   1.882   6.214  1.8578  1.6471 -1.3064
   59SAPC  C217 4503   1.909   1.740   6.072 -0.2063  0.0480 -0.2271
   59SAPC  H17R 4504   1.987   1.662   6.084  0.1548  0.7510  3.0162
   59SAPC  H17S 4505   1.933   1.817   5.995  0.2842 -1.2135 -1.3783
   59SAPC  C218 4506   1.770   1.690   6.029 -0.0587  0.1292  0.1519
   59SAPC  H18R 4507   1.706   1.780   6.019  0.2655  0.7234  2.7090
   59SAPC  H18S 4508   1.736   1.623   6.112 -0.5652  0.7732  0.4750
   59SAPC  C219 4509   1.769   1.605   5.895  0.0470 -0.6024  0.0598
   59SAPC  H19R 4510   1.793   1.661   5.802 -0.7958 -2.5669 -1.4124
   59SAPC  H19S 4511   1.667   1.562   5.880  1.4578 -3.4360 -2.5011
   59SAPC  C220 4512   1.855   1.483   5.904 -0.7565 -1.0374 -0.4342
   59SAPC  H20R 4513   1.958   1.525   5.906 -1.4634  0.7935 -0.6750
   59SAPC  H20S 4514   1.836   1.412   5.821  1.6405 -1.9093 -0.3032
   59SAPC  H20T 4515   1.837   1.438   6.003 -0.0217 -1.6024 -0.5464
   59SAPC   C33 4516   1.506   3.122   6.231 -0.2513  0.1172 -0.1736
   59SAPC   H3X 4517   1.611   3.111   6.268 -0.5234  1.4657  1.1392
   59SAPC   H3Y 4518   1.474   3.228   6.244 -1.0145 -0.2335  0.9715
   59SAPC   C34 4519   1.506   3.101   6.075 -0.1389 -0.0754 -0.1127
   59SAPC   H4X 4520   1.407   3.098   6.025  0.6832 -0.6962 -1.7671
   59SAPC   H4Y 4521   1.557   3.003   6.063  0.3423  0.2468 -0.7608
   59SAPC   C35 4522   1.588   3.213   6.014 -0.5052  0.0987  0.1953
   59SAPC   H5X 4523   1.669   3.234   6.087 -0.6263 -0.5911  0.5369
   59SAPC   H5Y 4524   1.532   3.308   6.006 -0.0003  0.3900  0.0903
   59SAPC   C36 4525   1.659   3.179   5.882 -0.5147 -0.1387 -0.2533
   59SAPC   H6X 4526   1.733   3.100   5.907  0.5731  0.7489 -0.5956
   59SAPC   H6Y 4527   1.708   3.269   5.839  0.1947 -0.7133 -0.6864
   59SAPC   C37 4528   1.571   3.113   5.767 -0.0280  0.0625  0.0524
   59SAPC   H7X 4529   1.483   3.178   5.743  1.9606  3.0862  0.3123
   59SAPC   H7Y 4530   1.529   3.018   5.805  0.8031 -0.6465 -0.7664
   59SAPC   C38 4531   1.645   3.077   5.637 -0.1553 -0.0654 -0.4236
   59SAPC   H8X 4532   1.715   2.995   5.665  0.0646  0.6493  1.2223
   59SAPC   H8Y 4533   1.721   3.154   5.609  0.7384 -0.3437  1.1346
   59SAPC   C39 4534   1.563   3.029   5.526 -0.0881  0.3503 -0.3037
   59SAPC   H9X 4535   1.510   3.119   5.486 -0.4489  1.0095  1.5690
   59SAPC   H9Y 4536   1.481   2.967   5.569  0.5962 -0.5296 -0.2385
   59SAPC  C310 4537   1.651   2.944   5.429 -0.2606  1.3132 -0.4943
   59SAPC  H10X 4538   1.703   2.864   5.485  1.1784  0.5820 -2.7520
   59SAPC  H10Y 4539   1.727   3.017   5.393  0.6231  0.2157 -0.9137
   59SAPC  C311 4540   1.567   2.859   5.321  0.0226 -1.2123 -0.5099
   59SAPC  H11X 4541   1.464   2.867   5.363  0.3868  1.9387  0.0777
   59SAPC  H11Y 4542   1.599   2.753   5.329 -1.2721 -1.8070 -2.4958
   59SAPC  C312 4543   1.563   2.924   5.188  0.5046  0.4947  0.2500
   59SAPC  H12X 4544   1.662   2.894   5.146 -0.1186 -1.0649 -0.1958
   59SAPC  H12Y 4545   1.550   3.034   5.197 -1.6824  0.3296 -0.4320
   59SAPC  C313 4546   1.455   2.868   5.100 -0.3620  0.1853  0.2318
   59SAPC  H13X 4547   1.455   2.912   4.998  1.9096  1.1458  0.5913
   59SAPC  H13Y 4548   1.352   2.891   5.134 -0.4397 -1.1076  0.9669
   59SAPC  C314 4549   1.470   2.721   5.070 -0.8855  0.1382 -0.1315
   59SAPC  H14X 4550   1.452   2.654   5.158  0.5434 -0.7776 -0.4947
   59SAPC  H14Y 4551   1.572   2.695   5.035  0.3983  2.9409  1.2119
   59SAPC  C315 4552   1.377   2.686   4.953  0.0040 -0.1837  0.8836
   59SAPC  H15X 4553   1.391   2.743   4.858 -1.2786 -1.1618  0.0748
   59SAPC  H15Y 4554   1.276   2.719   4.984  0.2657  1.8839 -0.2310
   59SAPC  C316 4555   1.369   2.539   4.915 -0.1975  0.4475 -0.0496
   59SAPC  H16X 4556   1.467   2.515   4.869 -1.0363  0.7975 -2.1218
   59SAPC  H16Y 4557   1.281   2.531   4.848  0.3057  0.6638 -0.7476
   59SAPC  C317 4558   1.359   2.443   5.037  0.6275  0.5878 -0.3310
   59SAPC  H17X 4559   1.448   2.460   5.102  1.4620 -2.2680 -0.6133
   59SAPC  H17Y 4560   1.378   2.343   4.994  2.1567  1.1400 -1.0193
   59SAPC  C318 4561   1.234   2.459   5.121  0.4590 -0.4214 -0.5452
   59SAPC  H18X 4562   1.244   2.387   5.205  1.9888  0.0165 -0.3273
   59SAPC  H18Y 4563   1.141   2.430   5.069 -0.6261 -1.8137  2.0173
   59SAPC  H18Z 4564   1.222   2.561   5.162 -0.2885 -1.7847  2.9774
   60SAPC     N 4565   3.105   3.991   6.575 -0.3857  0.2072 -0.1942
   60SAPC   C12 4566   3.115   3.878   6.481  0.8528 -0.0930 -0.1017
   60SAPC  H12A 4567   3.164   3.790   6.518  0.5178 -0.5934 -0.8289
   60SAPC  H12B 4568   3.190   3.905   6.407 -1.1570 -1.3703 -2.8074
   60SAPC   C13 4569   3.011   3.960   6.682 -0.4893 -0.1594 -0.3230
   60SAPC  H13A 4570   3.044   3.874   6.740 -0.7442  0.6260  1.0329
   60SAPC  H13B 4571   2.992   4.048   6.742  1.8426  0.5781 -0.5510
   60SAPC  H13C 4572   2.921   3.928   6.631 -1.3180  1.3892  0.1083
   60SAPC   C14 4573   3.234   4.012   6.643 -0.1715  0.3621 -0.8444
   60SAPC  H14A 4574   3.311   4.056   6.581  1.8783  0.6161  1.7088
   60SAPC  H14B 4575   3.222   4.080   6.725  1.1543 -2.3452  1.8081
   60SAPC  H14C 4576   3.268   3.923   6.695 -2.7818 -0.3913 -0.2863
   60SAPC   C15 4577   3.070   4.120   6.505 -0.0923  0.0988 -0.1862
   60SAPC  H15A 4578   3.158   4.176   6.476 -1.6881  3.7349  1.3655
   60SAPC  H15B 4579   3.007   4.096   6.421 -2.2073 -1.1019  1.6252
   60SAPC  H15C 4580   3.003   4.176   6.569 -0.6380 -2.2107  1.3905
   60SAPC   C11 4581   2.979   3.821   6.414  0.3639  0.1295  0.4520
   60SAPC  H11A 4582   3.003   3.757   6.326 -2.4734 -0.2771 -0.1012
   60SAPC  H11B 4583   2.924   3.912   6.382  1.9697  0.5872 -1.1895
   60SAPC     P 4584   2.949   3.603   6.567  0.0296  0.2292  0.0638
   60SAPC   O13 4585   3.093   3.595   6.599  0.3232 -0.5447  0.9767
   60SAPC   O14 4586   2.850   3.572   6.667  0.0833  1.0401  0.7079
   60SAPC   O12 4587   2.908   3.752   6.509  1.1068  0.3528 -0.2865
   60SAPC   O11 4588   2.924   3.507   6.452  0.1491  0.3141  0.1467
   60SAPC    C1 4589   2.793   3.480   6.408  0.1058 -0.1634  0.1693
   60SAPC    HA 4590   2.750   3.400   6.472  1.5079  0.8942  2.5753
   60SAPC    HB 4591   2.728   3.569   6.417  0.7080  0.2003  1.0270
   60SAPC    C2 4592   2.795   3.436   6.267 -0.2640 -0.8942 -0.0895
   60SAPC    HS 4593   2.697   3.457   6.218 -0.2476 -0.4108  0.0844
   60SAPC   O21 4594   2.833   3.301   6.274  0.1216  0.9881 -0.5042
   60SAPC   C21 4595   2.788   3.224   6.177 -0.0284 -1.4593  0.1623
   60SAPC   O22 4596   2.693   3.249   6.105  0.4414  0.8835 -0.3153
   60SAPC   C22 4597   2.882   3.104   6.171 -0.0892 -0.0640  0.0987
   60SAPC   H2R 4598   2.921   3.093   6.275  0.2936  0.3451 -0.0009
   60SAPC   H2S 4599   2.820   3.012   6.157  0.0126 -0.0311 -0.5996
   60SAPC    C3 4600   2.890   3.526   6.186 -0.1842  0.4338  0.3800
   60SAPC    HX 4601   2.993   3.509   6.223  0.2282 -1.4492 -1.4595
   60SAPC    HY 4602   2.849   3.628   6.202 -0.4769  0.2831  0.5820
   60SAPC   O31 4603   2.881   3.490   6.048 -1.3180 -0.1863  0.7955
   60SAPC   C31 4604   2.782   3.541   5.975  0.0229  0.0097  0.4972
   60SAPC   O32 4605   2.693   3.616   6.015 -0.1559  0.6822 -0.3430
   60SAPC   C32 4606   2.786   3.482   5.835  0.3643 -0.2065  0.0941
   60SAPC   H2X 4607   2.793   3.371   5.841  1.2371 -0.0888  1.9064
   60SAPC   H2Y 4608   2.876   3.524   5.786  1.2504  0.0210  1.8205
   60SAPC   C23 4609   2.990   3.098   6.050  0.2664 -0.0052  0.3793
   60SAPC   H3R 4610   3.066   3.027   6.088 -0.7966 -1.4423 -0.1210
   60SAPC   H3S 4611   3.046   3.194   6.041  0.9356 -0.3006  1.3301
   60SAPC   C24 4612   2.914   3.067   5.922  0.0477  0.0159  0.3887
   60SAPC   H4R 4613   2.837   3.146   5.913 -1.0736 -1.3272 -3.7538
   60SAPC   H4S 4614   2.861   2.969   5.932 -0.9916  0.6519  1.3850
   60SAPC   C25 4615   2.996   3.064   5.795  0.1842 -0.6233 -0.5152
   60SAPC   H5R 4616   3.104   3.046   5.808  0.1670 -0.3097  0.1115
   60SAPC   C26 4617   2.952   3.071   5.665 -0.1823  0.4365  0.4208
   60SAPC   H6R 4618   3.025   3.045   5.586  0.9305 -1.3003  1.9490
   60SAPC   C27 4619   2.810   3.095   5.606 -0.0009 -0.6658  0.1470
   60SAPC   H7R 4620   2.809   3.183   5.539  0.5116  0.0667  1.0837
   60SAPC   H7S 4621   2.727   3.106   5.679  0.4040 -1.3115  0.7142
   60SAPC   C28 4622   2.763   2.977   5.525 -0.1092 -0.7794 -0.4475
   60SAPC   H8R 4623   2.719   2.891   5.577  0.1791 -0.9350 -0.4593
   60SAPC   C29 4624   2.797   2.955   5.396  0.6530  1.3753 -0.3351
   60SAPC   H9R 4625   2.759   2.859   5.358 -1.1859  0.8321  2.5565
   60SAPC  C210 4626   2.859   3.040   5.288 -0.1050  0.1094  0.3156
   60SAPC  H10R 4627   2.966   3.009   5.284 -0.4062 -1.3725  2.0780
   60SAPC  H10S 4628   2.866   3.149   5.311  0.0728  0.6142 -1.9517
   60SAPC  C211 4629   2.801   3.015   5.150  0.5175  0.0628  0.3118
   60SAPC  H11R 4630   2.719   2.943   5.137  1.1680 -0.5267 -0.6591
   60SAPC  C212 4631   2.842   3.075   5.041 -0.1225 -0.3928  0.2820
   60SAPC  H12R 4632   2.795   3.029   4.953 -2.8062 -3.8375  3.2150
   60SAPC  C213 4633   2.948   3.184   5.024  0.5372 -0.3162 -1.2104
   60SAPC  H13R 4634   2.954   3.231   5.124 -2.5243 -0.1968 -0.9921
   60SAPC  H13S 4635   2.892   3.252   4.957 -1.0431 -1.7063 -1.3580
   60SAPC  C214 4636   3.080   3.149   4.956  0.6131  0.0348  0.8388
   60SAPC  H14R 4637   3.116   3.047   4.977  2.3476  0.3505 -0.3605
   60SAPC  C215 4638   3.145   3.223   4.866 -0.1607 -0.5856 -0.1335
   60SAPC  H15R 4639   3.235   3.188   4.814 -0.2758  2.0211 -2.2718
   60SAPC  C216 4640   3.108   3.366   4.839  0.1365  0.4628  0.0329
   60SAPC  H16R 4641   3.192   3.426   4.879 -0.1670  0.3947  0.8061
   60SAPC  H16S 4642   3.011   3.400   4.883 -0.6087 -1.1671 -0.2740
   60SAPC  C217 4643   3.094   3.387   4.685 -0.1297 -0.0500  0.2349
   60SAPC  H17R 4644   3.180   3.345   4.628 -0.9820 -0.6418 -0.6455
   60SAPC  H17S 4645   3.099   3.496   4.664 -2.0843  0.2636  1.1752
   60SAPC  C218 4646   2.963   3.347   4.607 -0.1508  0.0286  0.0153
   60SAPC  H18R 4647   2.867   3.379   4.654 -1.0134 -2.3366  0.0387
   60SAPC  H18S 4648   2.952   3.236   4.607 -0.0621  0.0027 -1.3943
   60SAPC  C219 4649   2.959   3.388   4.458  0.4778  0.8828  0.5243
   60SAPC  H19R 4650   2.882   3.330   4.402 -0.1400  0.9068  1.3374
   60SAPC  H19S 4651   3.058   3.346   4.428  0.2738 -2.4316  3.7313
   60SAPC  C220 4652   2.941   3.537   4.438  0.5176  0.1588  0.1196
   60SAPC  H20R 4653   2.845   3.577   4.476  0.4962 -0.4808  0.7908
   60SAPC  H20S 4654   2.931   3.557   4.330  0.9405  0.7405  0.1867
   60SAPC  H20T 4655   3.014   3.597   4.497 -0.2304 -0.1814  1.4437
   60SAPC   C33 4656   2.665   3.519   5.748  0.1695 -0.2866 -0.0311
   60SAPC   H3X 4657   2.644   3.627   5.759  0.5868 -0.3059  1.0353
   60SAPC   H3Y 4658   2.572   3.468   5.782  1.7776 -1.4323  2.9914
   60SAPC   C34 4659   2.685   3.495   5.595 -0.8839 -0.3584 -0.0261
   60SAPC   H4X 4660   2.718   3.389   5.588  1.9885  0.3647  1.1708
   60SAPC   H4Y 4661   2.771   3.553   5.555 -0.5017 -0.9322 -0.0496
   60SAPC   C35 4662   2.558   3.523   5.521  0.7708 -0.5444  0.2084
   60SAPC   H5X 4663   2.528   3.629   5.536 -2.4449 -1.2253 -0.6310
   60SAPC   H5Y 4664   2.475   3.458   5.557 -0.7509  1.9711  1.5363
   60SAPC   C36 4665   2.571   3.499   5.372  0.2653 -0.3990  0.0084
   60SAPC   H6X 4666   2.599   3.397   5.338  1.5169  0.4691 -1.7430
   60SAPC   H6Y 4667   2.642   3.575   5.333  0.4071 -1.2576 -1.4946
   60SAPC   C37 4668   2.437   3.533   5.300  0.1341 -0.3710 -0.0826
   60SAPC   H7X 4669   2.383   3.620   5.342 -0.4858 -1.6046  1.8154
   60SAPC   H7Y 4670   2.371   3.446   5.323 -1.3269  1.1524  1.9361
   60SAPC   C38 4671   2.450   3.549   5.148  0.7159  0.2081  0.2099
   60SAPC   H8X 4672   2.513   3.462   5.120 -2.0278 -0.7541 -3.8291
   60SAPC   H8Y 4673   2.490   3.650   5.124 -0.3885  0.6297  0.0709
   60SAPC   C39 4674   2.320   3.521   5.063 -0.2661 -0.1308 -0.2083
   60SAPC   H9X 4675   2.240   3.588   5.101 -1.7809  0.1506 -3.5503
   60SAPC   H9Y 4676   2.311   3.410   5.063  0.5735 -0.2052 -0.3786
   60SAPC  C310 4677   2.344   3.567   4.924 -0.2509  0.2118  0.0859
   60SAPC  H10X 4678   2.402   3.662   4.926 -0.2697  0.2184  1.3996
   60SAPC  H10Y 4679   2.249   3.586   4.870  0.3163  2.5318 -0.1810
   60SAPC  C311 4680   2.432   3.472   4.842 -0.0085 -0.2759 -0.6309
   60SAPC  H11X 4681   2.385   3.375   4.812  1.6566 -0.8748 -1.3982
   60SAPC  H11Y 4682   2.526   3.439   4.891  0.2011  0.8395 -0.2545
   60SAPC  C312 4683   2.479   3.534   4.704 -0.1132  0.3648 -0.1794
   60SAPC  H12X 4684   2.568   3.475   4.674  0.8066  1.4813  0.3041
   60SAPC  H12Y 4685   2.509   3.641   4.714  0.0930  0.2812  0.0819
   60SAPC  C313 4686   2.358   3.532   4.600 -0.2204 -0.5046 -0.0399
   60SAPC  H13X 4687   2.270   3.571   4.655  0.1859 -1.8168  1.6265
   60SAPC  H13Y 4688   2.326   3.426   4.588  1.9682 -1.2230  0.0328
   60SAPC  C314 4689   2.386   3.606   4.463 -0.1941 -0.2506 -0.6292
   60SAPC  H14X 4690   2.419   3.711   4.471 -0.6420 -0.0535 -1.2631
   60SAPC  H14Y 4691   2.285   3.614   4.416 -1.4688  1.2482  2.1527
   60SAPC  C315 4692   2.490   3.526   4.384 -0.1927 -0.4198  0.0538
   60SAPC  H15X 4693   2.470   3.417   4.388  0.5829 -0.5790 -0.1173
   60SAPC  H15Y 4694   2.578   3.569   4.436 -0.0631  3.7724 -3.0785
   60SAPC  C316 4695   2.506   3.560   4.235 -1.0568  0.4680 -0.8818
   60SAPC  H16X 4696   2.400   3.551   4.202 -2.5991 -0.4673  3.5931
   60SAPC  H16Y 4697   2.562   3.477   4.188 -0.4360  1.5254 -2.0598
   60SAPC  C317 4698   2.565   3.695   4.197  0.0740 -0.6021 -0.9679
   60SAPC  H17X 4699   2.478   3.762   4.217 -1.8622 -3.4393  1.0177
   60SAPC  H17Y 4700   2.581   3.702   4.088  1.2568  2.6042 -0.6890
   60SAPC  C318 4701   2.688   3.748   4.274 -0.1969  0.5110  0.2710
   60SAPC  H18X 4702   2.660   3.757   4.381 -0.2543  0.0689  0.2971
   60SAPC  H18Y 4703   2.730   3.845   4.240  0.3846 -0.0496 -0.6554
   60SAPC  H18Z 4704   2.754   3.660   4.260 -2.7387 -1.5829  0.7215
   61SAPC     N 4705   6.125   3.912   6.956  0.5523  0.1977  0.1033
   61SAPC   C12 4706   6.173   3.784   6.912 -0.2424 -0.3739  0.1420
   61SAPC  H12A 4707   6.279   3.786   6.891  0.3607 -3.0307  2.2370
   61SAPC  H12B 4708   6.133   3.763   6.814 -2.4241 -0.4946  1.0042
   61SAPC   C13 4709   6.153   4.014   6.852  0.2486 -0.2853  0.5975
   61SAPC  H13A 4710   6.091   4.001   6.764 -0.0792 -0.0548  0.7936
   61SAPC  H13B 4711   6.123   4.112   6.885  3.4686  0.5853  1.3424
   61SAPC  H13C 4712   6.258   4.017   6.825  0.2530 -1.0785  0.4991
   61SAPC   C14 4713   5.973   3.907   6.976  0.7717  0.6662 -0.4783
   61SAPC  H14A 4714   5.942   3.832   7.047 -1.2128 -1.0778 -3.0412
   61SAPC  H14B 4715   5.945   4.004   7.016 -0.5013 -0.1554  0.7094
   61SAPC  H14C 4716   5.925   3.880   6.884 -0.3155 -1.6633  0.6771
   61SAPC   C15 4717   6.187   3.950   7.083  0.5824  0.7955 -0.8877
   61SAPC  H15A 4718   6.132   4.024   7.139  0.3530  0.5161 -0.7407
   61SAPC  H15B 4719   6.195   3.864   7.148 -1.3915  0.4332 -1.0592
   61SAPC  H15C 4720   6.287   3.985   7.060  0.7425  1.3776  0.6091
   61SAPC   C11 4721   6.168   3.658   7.007 -0.6441 -0.5633 -0.2528
   61SAPC  H11A 4722   6.172   3.557   6.961 -2.2394 -2.0922  2.6279
   61SAPC  H11B 4723   6.069   3.662   7.057  0.4646  0.7250  1.9765
   61SAPC     P 4724   6.416   3.640   7.088 -0.3022  0.1229  0.3810
   61SAPC   O13 4725   6.489   3.698   7.200 -0.4421 -0.0483 -0.1454
   61SAPC   O14 4726   6.442   3.496   7.068  0.2870  0.7699  0.3622
   61SAPC   O12 4727   6.263   3.671   7.115 -0.1118 -0.3501 -0.4091
   61SAPC   O11 4728   6.454   3.709   6.956 -0.0989 -0.3790 -0.2777
   61SAPC    C1 4729   6.580   3.783   6.940 -0.1524  0.4144 -0.3687
   61SAPC    HA 4730   6.560   3.890   6.962  0.3297  0.5313 -0.4721
   61SAPC    HB 4731   6.655   3.759   7.019  0.1829  2.9227  0.1802
   61SAPC    C2 4732   6.639   3.780   6.792 -0.2864  0.1722 -0.4795
   61SAPC    HS 4733   6.709   3.864   6.777  0.3797 -0.4193 -0.7235
   61SAPC   O21 4734   6.527   3.788   6.700 -0.0977  0.7407  0.3372
   61SAPC   C21 4735   6.458   3.897   6.692  0.3952 -0.5986 -0.4939
   61SAPC   O22 4736   6.476   3.998   6.763  0.1784 -0.1226  0.1896
   61SAPC   C22 4737   6.355   3.882   6.575 -0.2552 -0.5720 -0.1180
   61SAPC   H2R 4738   6.263   3.856   6.632 -1.3433  0.1731 -1.4601
   61SAPC   H2S 4739   6.349   3.980   6.523  0.1872  0.7747  2.1971
   61SAPC    C3 4740   6.715   3.652   6.776 -0.4800  0.1124 -0.0461
   61SAPC    HX 4741   6.643   3.569   6.791  0.6964 -0.6596  1.6914
   61SAPC    HY 4742   6.808   3.645   6.838  1.9544 -2.2588 -3.6064
   61SAPC   O31 4743   6.782   3.658   6.645 -0.5768 -0.6847 -0.4838
   61SAPC   C31 4744   6.734   3.567   6.557  0.3789 -0.4829 -0.0930
   61SAPC   O32 4745   6.620   3.525   6.553 -0.4198 -0.4974 -0.6729
   61SAPC   C32 4746   6.834   3.540   6.447 -0.1052  0.1542 -0.0879
   61SAPC   H2X 4747   6.935   3.547   6.493  0.5939 -0.1203 -1.5311
   61SAPC   H2Y 4748   6.816   3.618   6.370  1.3634  1.2344  0.6213
   61SAPC   C23 4749   6.388   3.766   6.478  0.4447  0.5173 -0.6934
   61SAPC   H3R 4750   6.293   3.739   6.427 -0.5923 -1.8948  2.2181
   61SAPC   H3S 4751   6.420   3.665   6.514  1.8168  1.2008  0.1127
   61SAPC   C24 4752   6.490   3.803   6.373  0.0677  0.1075 -0.0624
   61SAPC   H4R 4753   6.581   3.837   6.426  0.4581  0.4672 -0.9472
   61SAPC   H4S 4754   6.449   3.884   6.308  1.3792  1.0843  0.2767
   61SAPC   C25 4755   6.525   3.685   6.277  0.7663  0.1209  0.3048
   61SAPC   H5R 4756   6.521   3.582   6.317  0.1862 -0.0132 -0.0742
   61SAPC   C26 4757   6.551   3.697   6.145 -1.1274  0.0388 -0.1457
   61SAPC   H6R 4758   6.580   3.606   6.091  1.3526  0.3216  0.5603
   61SAPC   C27 4759   6.571   3.821   6.067  0.1779 -0.1704  0.0088
   61SAPC   H7R 4760   6.479   3.883   6.082  0.8352  0.6943  0.5952
   61SAPC   H7S 4761   6.576   3.794   5.960 -0.2071  0.7787 -0.2583
   61SAPC   C28 4762   6.695   3.895   6.116  0.3625 -0.2403  0.6878
   61SAPC   H8R 4763   6.697   3.915   6.224  0.5237  0.2747  0.5937
   61SAPC   C29 4764   6.807   3.936   6.042  1.0637 -0.5775  0.0752
   61SAPC   H9R 4765   6.893   3.985   6.089 -0.0251  1.5814 -0.0653
   61SAPC  C210 4766   6.822   3.907   5.892  0.6996 -0.0649 -0.1476
   61SAPC  H10R 4767   6.890   3.977   5.840  0.0731 -0.3133 -1.3345
   61SAPC  H10S 4768   6.724   3.907   5.840  0.6606  0.1960 -0.0725
   61SAPC  C211 4769   6.874   3.768   5.876 -0.6904 -0.2925 -0.6337
   61SAPC  H11R 4770   6.833   3.689   5.940 -0.5506  0.4988  0.4670
   61SAPC  C212 4771   6.970   3.731   5.781  0.5098  0.1766  0.0916
   61SAPC  H12R 4772   7.004   3.626   5.785  1.4634  0.5039  1.1013
   61SAPC  C213 4773   7.011   3.820   5.664  0.3747 -0.3179 -0.2435
   61SAPC  H13R 4774   7.039   3.913   5.719  2.0705 -0.8359 -0.1869
   61SAPC  H13S 4775   6.936   3.832   5.583 -0.8209 -3.0920  0.3491
   61SAPC  C214 4776   7.137   3.767   5.594  0.2285 -0.6208  0.5825
   61SAPC  H14R 4777   7.230   3.814   5.630  0.0513 -1.5504  2.3717
   61SAPC  C215 4778   7.144   3.667   5.498 -0.5596 -0.6026 -0.1467
   61SAPC  H15R 4779   7.245   3.627   5.485 -1.0344 -1.5834 -1.0015
   61SAPC  C216 4780   7.029   3.584   5.439 -0.6683  0.0343  0.4760
   61SAPC  H16R 4781   6.931   3.602   5.489 -0.9339 -1.9519  0.7596
   61SAPC  H16S 4782   7.060   3.479   5.457 -1.7200 -0.4146 -0.2221
   61SAPC  C217 4783   7.014   3.602   5.284  0.2168 -0.2245  0.4904
   61SAPC  H17R 4784   6.984   3.707   5.266  0.6812 -0.1257  0.2662
   61SAPC  H17S 4785   6.932   3.536   5.247 -0.1490  1.0191 -1.0156
   61SAPC  C218 4786   7.142   3.567   5.201  0.4969 -0.8401  0.1545
   61SAPC  H18R 4787   7.158   3.457   5.204  0.0414 -0.9412 -0.8112
   61SAPC  H18S 4788   7.230   3.620   5.245  1.5852 -0.9287 -1.7665
   61SAPC  C219 4789   7.128   3.607   5.054  0.0864 -0.3079  0.5061
   61SAPC  H19R 4790   7.231   3.613   5.012 -0.0040  0.4962  0.3748
   61SAPC  H19S 4791   7.080   3.708   5.054  0.0135 -0.3402  0.0135
   61SAPC  C220 4792   7.046   3.520   4.961  0.4922  0.7605  0.2038
   61SAPC  H20R 4793   6.937   3.525   4.984 -0.0121  0.1454 -1.8443
   61SAPC  H20S 4794   7.078   3.414   4.970  0.3050  0.4862 -1.8705
   61SAPC  H20T 4795   7.053   3.543   4.852  0.3810 -1.9492 -0.4446
   61SAPC   C33 4796   6.825   3.401   6.381 -0.8449  0.5819  0.2547
   61SAPC   H3X 4797   6.721   3.371   6.359 -0.2999 -1.9527  0.8974
   61SAPC   H3Y 4798   6.869   3.330   6.454 -0.1749  2.0709  1.3765
   61SAPC   C34 4799   6.912   3.398   6.255 -0.0789  0.3256  0.0654
   61SAPC   H4X 4800   6.853   3.444   6.173 -0.3820  2.4023  1.3837
   61SAPC   H4Y 4801   6.914   3.293   6.218  1.9447  0.9073 -1.7439
   61SAPC   C35 4802   7.056   3.448   6.261  0.0765  0.4260  0.7325
   61SAPC   H5X 4803   7.092   3.401   6.355  0.6801 -0.9510 -0.1648
   61SAPC   H5Y 4804   7.056   3.558   6.279 -0.5051  0.3814  1.0323
   61SAPC   C36 4805   7.152   3.406   6.152 -0.2813 -0.3589 -0.1096
   61SAPC   H6X 4806   7.198   3.308   6.179 -3.4530 -2.0287 -0.3379
   61SAPC   H6Y 4807   7.229   3.486   6.145  2.5171 -2.9162 -0.8162
   61SAPC   C37 4808   7.085   3.406   6.012  0.5482 -0.4119  0.1687
   61SAPC   H7X 4809   7.039   3.502   5.982  2.3284  1.2004  2.2527
   61SAPC   H7Y 4810   7.000   3.335   6.021  0.6033 -0.6710 -1.1695
   61SAPC   C38 4811   7.170   3.349   5.902 -0.4016 -0.7630 -0.0462
   61SAPC   H8X 4812   7.223   3.267   5.956  0.5845  0.9464  1.6953
   61SAPC   H8Y 4813   7.243   3.431   5.886 -1.4249 -0.0911 -1.5227
   61SAPC   C39 4814   7.099   3.315   5.780  0.1073 -0.0091  0.3356
   61SAPC   H9X 4815   7.048   3.408   5.746  1.1141  0.7680  0.8922
   61SAPC   H9Y 4816   7.023   3.237   5.801 -1.2772  1.2420  0.1601
   61SAPC  C310 4817   7.192   3.264   5.677 -0.1090 -0.4236  0.0319
   61SAPC  H10X 4818   7.266   3.197   5.727  0.0368 -0.0770  0.2871
   61SAPC  H10Y 4819   7.259   3.337   5.627 -0.6418 -1.2727 -1.9963
   61SAPC  C311 4820   7.120   3.187   5.569  0.3311 -0.0053 -0.4703
   61SAPC  H11X 4821   7.050   3.254   5.514 -0.1101  0.8904  1.1180
   61SAPC  H11Y 4822   7.069   3.096   5.609  1.1199 -0.5213 -0.6282
   61SAPC  C312 4823   7.216   3.134   5.463 -0.6535  0.3778  0.3909
   61SAPC  H12X 4824   7.151   3.057   5.415 -0.8009  0.7820 -0.0605
   61SAPC  H12Y 4825   7.306   3.088   5.510 -0.3426  0.1001 -0.4586
   61SAPC  C313 4826   7.265   3.246   5.369  0.3515  0.8377  0.0736
   61SAPC  H13X 4827   7.301   3.329   5.433 -0.3613  0.8679  0.4442
   61SAPC  H13Y 4828   7.172   3.275   5.315  0.1040  4.8167  2.2564
   61SAPC  C314 4829   7.365   3.207   5.252  0.1065 -0.2081  0.4462
   61SAPC  H14X 4830   7.324   3.119   5.199 -0.9099  0.1911  0.5344
   61SAPC  H14Y 4831   7.462   3.177   5.296 -0.5052  0.3520  2.2647
   61SAPC  C315 4832   7.379   3.312   5.148  0.6375 -0.2671 -0.0155
   61SAPC  H15X 4833   7.412   3.402   5.205 -0.2073 -1.0297  1.7579
   61SAPC  H15Y 4834   7.285   3.352   5.105  1.4941  2.8596  0.7364
   61SAPC  C316 4835   7.482   3.276   5.031 -0.2975  0.5236 -0.2256
   61SAPC  H16X 4836   7.573   3.254   5.092 -0.3047  1.9040  0.3120
   61SAPC  H16Y 4837   7.496   3.371   4.975  0.6144  1.4465  1.4562
   61SAPC  C317 4838   7.438   3.164   4.938  0.2738 -0.2336  0.5181
   61SAPC  H17X 4839   7.395   3.073   4.984 -4.0338  0.9439 -0.7328
   61SAPC  H17Y 4840   7.529   3.127   4.885 -0.6497  0.5999 -1.8215
   61SAPC  C318 4841   7.354   3.217   4.825 -1.3634 -0.2777 -0.4696
   61SAPC  H18X 4842   7.346   3.141   4.744 -0.3666 -0.3411 -0.5176
   61SAPC  H18Y 4843   7.407   3.305   4.783  0.9738 -0.3650  2.0231
   61SAPC  H18Z 4844   7.260   3.244   4.879 -0.2492  1.5989  0.6333
   62SAPC     N 4845   2.801   1.114   6.707 -0.5421  0.6534 -0.3418
   62SAPC   C12 4846   2.663   1.058   6.759  0.1425  0.2251 -0.1995
   62SAPC  H12A 4847   2.645   1.080   6.864  0.2150 -0.5093 -0.0297
   62SAPC  H12B 4848   2.658   0.951   6.760 -1.0225  0.2660  1.1407
   62SAPC   C13 4849   2.806   1.106   6.557 -0.2061 -0.1135  0.3337
   62SAPC  H13A 4850   2.723   1.158   6.513 -0.4281 -1.4464 -0.8970
   62SAPC  H13B 4851   2.891   1.162   6.520 -2.6330  2.3079 -2.0398
   62SAPC  H13C 4852   2.804   1.005   6.517 -0.8727  0.8621 -2.3392
   62SAPC   C14 4853   2.834   1.252   6.753  0.6899  1.7143 -0.1416
   62SAPC  H14A 4854   2.786   1.326   6.691 -1.2154 -1.5759 -2.9557
   62SAPC  H14B 4855   2.821   1.252   6.860 -0.6898  0.6191 -0.2707
   62SAPC  H14C 4856   2.939   1.270   6.734  1.4802 -1.1305  0.9663
   62SAPC   C15 4857   2.897   1.020   6.767 -0.2062  1.5806 -0.0198
   62SAPC  H15A 4858   2.997   1.050   6.740  0.1188  0.5881  0.0519
   62SAPC  H15B 4859   2.894   1.030   6.874 -2.4506  0.5013  0.0748
   62SAPC  H15C 4860   2.900   0.918   6.732  0.4264  1.4336  0.4399
   62SAPC   C11 4861   2.536   1.107   6.693 -0.3941 -0.3084  0.0254
   62SAPC  H11A 4862   2.454   1.046   6.737 -0.1821 -1.3313 -0.9334
   62SAPC  H11B 4863   2.538   1.085   6.584 -0.1043  2.3956 -0.5989
   62SAPC     P 4864   2.491   1.318   6.846 -0.1671  0.1696  0.3038
   62SAPC   O13 4865   2.563   1.243   6.959  0.6292  0.0017 -0.4149
   62SAPC   O14 4866   2.499   1.459   6.838 -0.2904 -0.9420  0.7820
   62SAPC   O12 4867   2.521   1.250   6.708  0.0178  0.0823  0.1401
   62SAPC   O11 4868   2.334   1.279   6.859  0.0028  0.7825 -0.3897
   62SAPC    C1 4869   2.234   1.370   6.803 -0.2990  0.2246  0.1687
   62SAPC    HA 4870   2.141   1.341   6.856 -0.4208  1.0008  0.3982
   62SAPC    HB 4871   2.247   1.478   6.828 -0.7507  0.4125 -0.3681
   62SAPC    C2 4872   2.215   1.350   6.654 -0.5741  0.4409 -0.4098
   62SAPC    HS 4873   2.225   1.242   6.632 -0.6334  0.2662  0.4026
   62SAPC   O21 4874   2.310   1.425   6.575 -0.2651 -0.4894 -0.3237
   62SAPC   C21 4875   2.348   1.369   6.463  0.0424 -0.6608  0.6300
   62SAPC   O22 4876   2.311   1.258   6.417  0.9171 -0.7346  0.0936
   62SAPC   C22 4877   2.437   1.473   6.381  0.2104  0.7330 -0.2363
   62SAPC   H2R 4878   2.519   1.508   6.448  1.1219 -1.4345 -0.1319
   62SAPC   H2S 4879   2.474   1.403   6.303 -0.5434 -1.0728  0.9423
   62SAPC    C3 4880   2.075   1.399   6.613 -0.1931 -0.0751 -0.1362
   62SAPC    HX 4881   2.071   1.507   6.638 -0.9743 -0.1355  0.0321
   62SAPC    HY 4882   1.997   1.354   6.679  0.4561  2.6936  2.7623
   62SAPC   O31 4883   2.051   1.388   6.471  0.1015 -0.2546  0.9966
   62SAPC   C31 4884   2.009   1.266   6.433 -0.5208  0.2438  0.6749
   62SAPC   O32 4885   2.007   1.166   6.502 -0.2173  0.2922  0.0245
   62SAPC   C32 4886   1.969   1.269   6.279 -0.1333  0.2818 -0.5009
   62SAPC   H2X 4887   2.061   1.320   6.243 -0.1381  1.9257  1.6256
   62SAPC   H2Y 4888   1.886   1.342   6.270  0.0293  0.8035  1.6767
   62SAPC   C23 4889   2.355   1.592   6.324  0.3025  0.1630 -0.4358
   62SAPC   H3R 4890   2.429   1.665   6.285  1.9427  0.1048  2.3021
   62SAPC   H3S 4891   2.311   1.647   6.410 -1.4114 -1.5912 -0.1234
   62SAPC   C24 4892   2.250   1.565   6.213  0.4019  0.1910  0.2296
   62SAPC   H4R 4893   2.203   1.661   6.180 -1.9752 -1.5212 -1.7965
   62SAPC   H4S 4894   2.174   1.505   6.268 -0.1497  0.8545  0.2105
   62SAPC   C25 4895   2.313   1.483   6.100 -0.0062 -0.6422  0.3284
   62SAPC   H5R 4896   2.320   1.376   6.124 -0.3757 -0.4206  1.5136
   62SAPC   C26 4897   2.358   1.537   5.985 -0.8008 -0.2629  0.4172
   62SAPC   H6R 4898   2.403   1.469   5.911 -0.3925 -2.0760  2.2124
   62SAPC   C27 4899   2.341   1.678   5.938  0.2850  0.1077  1.0688
   62SAPC   H7R 4900   2.399   1.748   6.002  1.2658  1.3060 -0.9876
   62SAPC   H7S 4901   2.236   1.707   5.960  0.3046 -1.1481  2.9927
   62SAPC   C28 4902   2.388   1.702   5.792 -0.3879  0.4716  0.3129
   62SAPC   H8R 4903   2.476   1.763   5.768 -1.2653  1.2159 -1.1065
   62SAPC   C29 4904   2.316   1.662   5.684 -0.8761  0.1725  0.2843
   62SAPC   H9R 4905   2.343   1.704   5.586  0.3152 -0.7432  0.1878
   62SAPC  C210 4906   2.186   1.583   5.690 -0.5421 -0.4622  0.2590
   62SAPC  H10R 4907   2.181   1.516   5.778 -2.0234 -0.9040 -0.1281
   62SAPC  H10S 4908   2.181   1.504   5.612  1.5709 -2.0840  1.6592
   62SAPC  C211 4909   2.057   1.668   5.697 -0.6717  0.2770  0.5533
   62SAPC  H11R 4910   2.039   1.736   5.781 -0.5072 -0.8385  1.5230
   62SAPC  C212 4911   1.959   1.677   5.599 -0.4016 -0.4350 -0.2356
   62SAPC  H12R 4912   1.878   1.748   5.621 -0.5544 -0.3498 -1.0348
   62SAPC  C213 4913   1.959   1.600   5.466 -0.3289  0.3836 -0.5243
   62SAPC  H13R 4914   1.857   1.557   5.467  0.2176 -1.3116  3.4781
   62SAPC  H13S 4915   2.026   1.511   5.464  0.0269  0.6413 -0.3266
   62SAPC  C214 4916   1.962   1.694   5.344 -0.0724  0.7074  0.7452
   62SAPC  H14R 4917   1.918   1.794   5.359 -1.1432  0.1733  1.2481
   62SAPC  C215 4918   2.014   1.653   5.228  0.6672  0.7304  0.0292
   62SAPC  H15R 4919   2.006   1.721   5.143  0.7212 -0.8162 -1.2492
   62SAPC  C216 4920   2.074   1.519   5.208  0.2881  0.4533  0.0714
   62SAPC  H16R 4921   2.022   1.438   5.263  0.3877  0.2057 -0.1991
   62SAPC  H16S 4922   2.180   1.527   5.243  0.3927  0.1278 -0.1655
   62SAPC  C217 4923   2.079   1.477   5.061  0.4633  0.3100  0.1859
   62SAPC  H17R 4924   2.113   1.570   5.010  1.4902  0.6807  1.4948
   62SAPC  H17S 4925   1.977   1.454   5.022  0.5360  2.7121 -1.6794
   62SAPC  C218 4926   2.168   1.351   5.034 -0.5329 -0.0625  0.4246
   62SAPC  H18R 4927   2.110   1.264   5.071  0.1830 -1.4503 -1.5869
   62SAPC  H18S 4928   2.261   1.360   5.095  0.6912 -0.2813 -1.3538
   62SAPC  C219 4929   2.192   1.332   4.880  0.0741 -0.0628  0.3689
   62SAPC  H19R 4930   2.248   1.237   4.868 -1.6124 -0.8887 -1.2298
   62SAPC  H19S 4931   2.261   1.413   4.846 -0.1800 -0.1704 -0.4246
   62SAPC  C220 4932   2.070   1.319   4.787  0.5300  0.1863 -0.0892
   62SAPC  H20R 4933   2.105   1.312   4.681  1.5231 -2.0766  0.3320
   62SAPC  H20S 4934   2.015   1.414   4.802 -0.7314 -0.6665  0.8467
   62SAPC  H20T 4935   2.019   1.225   4.815  1.3547 -1.0035 -2.2703
   62SAPC   C33 4936   1.950   1.127   6.225 -0.2666 -0.5378 -0.3079
   62SAPC   H3X 4937   1.854   1.081   6.255  0.2318 -0.6958  1.1274
   62SAPC   H3Y 4938   2.037   1.065   6.253  0.3234  0.7489  0.7904
   62SAPC   C34 4939   1.956   1.126   6.073 -0.1592 -0.2105 -0.1623
   62SAPC   H4X 4940   2.055   1.166   6.042 -1.6009  2.5457 -1.6271
   62SAPC   H4Y 4941   1.878   1.193   6.031 -1.0384 -0.4323  1.0725
   62SAPC   C35 4942   1.915   0.988   6.014  0.6663 -1.0990 -0.6875
   62SAPC   H5X 4943   1.808   0.965   6.031  0.6747 -1.0875 -0.6187
   62SAPC   H5Y 4944   1.966   0.909   6.074 -2.0921 -0.7967  2.3726
   62SAPC   C36 4945   1.947   0.961   5.868  0.4391  0.0726 -1.1383
   62SAPC   H6X 4946   1.909   0.858   5.850 -2.1420  0.5933  0.6296
   62SAPC   H6Y 4947   2.054   0.982   5.850  0.5586  1.9022  1.1917
   62SAPC   C37 4948   1.859   1.045   5.780  0.3484 -0.7494 -0.0634
   62SAPC   H7X 4949   1.875   1.154   5.796 -0.1915 -0.4197 -1.5959
   62SAPC   H7Y 4950   1.753   1.024   5.804 -0.3109  1.6292 -0.6823
   62SAPC   C38 4951   1.868   1.024   5.631  0.0768 -1.3201 -0.4188
   62SAPC   H8X 4952   1.775   1.063   5.585  1.0047  1.5104 -0.0607
   62SAPC   H8Y 4953   1.859   0.913   5.632 -1.7429 -1.3133  3.9668
   62SAPC   C39 4954   1.994   1.083   5.575  0.0158  0.3452 -0.4873
   62SAPC   H9X 4955   2.079   1.039   5.631  0.2298  0.8066 -0.4453
   62SAPC   H9Y 4956   1.997   1.192   5.598 -0.2959  0.0613  1.0102
   62SAPC  C310 4957   2.004   1.052   5.424  0.6731 -0.2191  0.9435
   62SAPC  H10X 4958   1.921   1.100   5.368  3.0206 -0.3270 -3.0426
   62SAPC  H10Y 4959   1.993   0.942   5.419 -2.2015  0.0557 -1.7191
   62SAPC  C311 4960   2.131   1.092   5.354 -0.8531  0.3579  0.5155
   62SAPC  H11X 4961   2.211   1.083   5.430 -1.0653 -1.5362  0.5672
   62SAPC  H11Y 4962   2.135   1.199   5.323 -0.6189  0.0090 -0.7160
   62SAPC  C312 4963   2.182   1.011   5.232 -0.0110 -0.1030  0.3768
   62SAPC  H12X 4964   2.222   0.909   5.248 -1.2549 -0.8937 -1.2419
   62SAPC  H12Y 4965   2.265   1.076   5.199 -0.1000  0.2663  0.8619
   62SAPC  C313 4966   2.078   0.998   5.123  0.3107  0.0726 -0.7803
   62SAPC  H13X 4967   2.013   1.087   5.109 -0.7338 -0.7185 -1.0937
   62SAPC  H13Y 4968   2.005   0.923   5.160  0.2415 -0.6246 -2.2552
   62SAPC  C314 4969   2.124   0.957   4.985 -0.4055 -0.5951  0.0056
   62SAPC  H14X 4970   2.204   1.025   4.949  0.9086 -2.0450  0.1062
   62SAPC  H14Y 4971   2.041   0.981   4.915 -1.0138  1.6668  1.3686
   62SAPC  C315 4972   2.168   0.814   4.970  0.5286 -0.5862 -0.0838
   62SAPC  H15X 4973   2.261   0.800   5.030  0.5998  0.7545  0.1466
   62SAPC  H15Y 4974   2.197   0.784   4.867  2.9523 -0.9674  0.6384
   62SAPC  C316 4975   2.063   0.711   5.018 -1.4295  0.2674  0.1239
   62SAPC  H16X 4976   2.037   0.729   5.124 -0.0178 -0.2634  0.5869
   62SAPC  H16Y 4977   2.116   0.614   5.025  0.3188  1.2908  2.6518
   62SAPC  C317 4978   1.946   0.694   4.925 -0.3413  0.3517  0.6864
   62SAPC  H17X 4979   1.976   0.670   4.820  2.1709  0.0014  1.4040
   62SAPC  H17Y 4980   1.889   0.789   4.916 -0.3932  0.4946  2.2339
   62SAPC  C318 4981   1.857   0.583   4.975 -0.3905  0.6822 -0.2016
   62SAPC  H18X 4982   1.760   0.574   4.921 -0.2816  0.2726 -0.3367
   62SAPC  H18Y 4983   1.829   0.591   5.082  2.1650 -0.8815  0.6648
   62SAPC  H18Z 4984   1.904   0.483   4.964 -0.1344  0.8426 -0.5533
   63SAPC     N 4985   3.491   4.572   6.733  0.1341 -0.1061  0.2751
   63SAPC   C12 4986   3.496   4.425   6.762  0.4659  0.0279  0.3610
   63SAPC  H12A 4987   3.455   4.402   6.860 -1.4471  1.2097 -0.1005
   63SAPC  H12B 4988   3.598   4.392   6.776  0.0563 -0.5801  2.2272
   63SAPC   C13 4989   3.350   4.624   6.746 -0.8731  0.4673  0.7631
   63SAPC  H13A 4990   3.337   4.727   6.716 -2.3689  0.4275  1.2139
   63SAPC  H13B 4991   3.276   4.581   6.680  0.8754 -0.3523 -0.7624
   63SAPC  H13C 4992   3.320   4.620   6.849 -0.8409 -2.3959  0.7362
   63SAPC   C14 4993   3.570   4.640   6.842 -0.1513  0.2451 -0.2915
   63SAPC  H14A 4994   3.675   4.615   6.846  0.5358  2.6440 -1.2075
   63SAPC  H14B 4995   3.571   4.742   6.805 -1.5593  0.2633 -0.3291
   63SAPC  H14C 4996   3.525   4.630   6.939  1.2775 -0.8432  0.2853
   63SAPC   C15 4997   3.541   4.589   6.593  0.1861 -0.1554 -0.0991
   63SAPC  H15A 4998   3.525   4.689   6.557  3.2292  0.7249  0.6444
   63SAPC  H15B 4999   3.647   4.568   6.587  0.0243 -0.7803 -0.9384
   63SAPC  H15C 5000   3.497   4.523   6.519  1.9648 -0.5874 -0.8338
   63SAPC   C11 5001   3.426   4.327   6.660 -0.1063 -0.6155 -0.1528
   63SAPC  H11A 5002   3.332   4.380   6.634 -0.7825 -0.8047  1.7406
   63SAPC  H11B 5003   3.396   4.233   6.711  0.2977 -0.0980  1.0865
   63SAPC     P 5004   3.648   4.244   6.545  0.5459  0.1190  0.0130
   63SAPC   O13 5005   3.740   4.289   6.651  0.2685 -0.6035  0.0579
   63SAPC   O14 5006   3.631   4.099   6.536  0.9594 -0.3184  0.2678
   63SAPC   O12 5007   3.504   4.305   6.542 -0.7332  0.2400 -0.1347
   63SAPC   O11 5008   3.698   4.292   6.401 -0.1999  0.0002 -0.1572
   63SAPC    C1 5009   3.838   4.279   6.374  0.0788  0.1708 -0.4463
   63SAPC    HA 5010   3.904   4.367   6.384  2.1629 -1.1862 -1.5219
   63SAPC    HB 5011   3.895   4.205   6.434  1.2090  0.5426 -1.0377
   63SAPC    C2 5012   3.857   4.215   6.225 -0.4184 -0.3531 -0.3703
   63SAPC    HS 5013   3.963   4.182   6.225  0.2455  1.6225 -0.8616
   63SAPC   O21 5014   3.832   4.323   6.133  0.2997  0.1104 -0.0242
   63SAPC   C21 5015   3.943   4.398   6.090  0.8267  0.0136 -0.3291
   63SAPC   O22 5016   4.053   4.377   6.138  0.1001  0.0016 -1.0754
   63SAPC   C22 5017   3.903   4.489   5.975  0.1322 -0.1789 -0.2423
   63SAPC   H2R 5018   3.806   4.450   5.936 -0.2705  1.4386 -0.9125
   63SAPC   H2S 5019   3.881   4.588   6.019  2.0255 -1.0961  3.0972
   63SAPC    C3 5020   3.773   4.091   6.210  0.3852  0.4359  0.0740
   63SAPC    HX 5021   3.667   4.120   6.224  0.1818 -0.6421  0.9130
   63SAPC    HY 5022   3.790   4.017   6.291 -1.7018  0.2275  0.3564
   63SAPC   O31 5023   3.791   4.027   6.081  0.2540  0.3996 -0.1858
   63SAPC   C31 5024   3.733   4.093   5.979 -0.5773 -0.3140  0.1401
   63SAPC   O32 5025   3.635   4.171   5.987 -0.1783 -0.4000 -0.1085
   63SAPC   C32 5026   3.803   4.037   5.853 -0.1204  0.0325  0.3235
   63SAPC   H2X 5027   3.839   3.935   5.878  0.6009  0.3410  0.5809
   63SAPC   H2Y 5028   3.898   4.090   5.828 -2.0207  2.3834 -2.6280
   63SAPC   C23 5029   4.016   4.493   5.868  0.0413  0.1293  0.6866
   63SAPC   H3R 5030   4.119   4.506   5.909  1.0733  1.5807 -2.1168
   63SAPC   H3S 5031   3.988   4.587   5.817  0.5796 -1.0473 -1.9829
   63SAPC   C24 5032   4.016   4.373   5.769  0.6474 -0.1429 -0.8539
   63SAPC   H4R 5033   4.029   4.284   5.834 -1.4298  1.4400  1.9696
   63SAPC   H4S 5034   4.112   4.370   5.713  1.5585 -3.6870  0.5920
   63SAPC   C25 5035   3.889   4.363   5.691  0.0414  0.7357 -0.4208
   63SAPC   H5R 5036   3.801   4.318   5.738 -0.2021  0.3323 -1.2385
   63SAPC   C26 5037   3.877   4.401   5.563 -0.3794 -0.1705 -0.4160
   63SAPC   H6R 5038   3.777   4.388   5.517 -0.6755 -2.7042  0.7580
   63SAPC   C27 5039   3.992   4.438   5.471  0.0551 -0.3700 -0.0987
   63SAPC   H7R 5040   3.998   4.365   5.388  0.0376 -0.4120 -0.0635
   63SAPC   H7S 5041   4.093   4.437   5.517  0.5083  0.6202 -1.0113
   63SAPC   C28 5042   3.982   4.585   5.433 -0.3176 -0.2850  0.2102
   63SAPC   H8R 5043   3.974   4.650   5.521 -1.0359  0.3316 -0.2963
   63SAPC   C29 5044   3.984   4.630   5.308  0.0226  0.2153  0.2082
   63SAPC   H9R 5045   3.962   4.736   5.288  0.2676  0.0712 -0.9348
   63SAPC  C210 5046   4.008   4.547   5.182  0.2819 -0.2790 -0.3234
   63SAPC  H10R 5047   3.954   4.453   5.205 -0.9690  0.6605  0.7444
   63SAPC  H10S 5048   4.115   4.523   5.168  0.5177 -0.0876  1.0060
   63SAPC  C211 5049   3.946   4.597   5.056  0.9046 -0.1129 -0.3719
   63SAPC  H11R 5050   3.906   4.700   5.057  3.1877  0.8937  2.6083
   63SAPC  C212 5051   3.943   4.534   4.940  0.1219  0.0226 -0.2068
   63SAPC  H12R 5052   3.906   4.587   4.851  2.9296 -0.2568 -1.6714
   63SAPC  C213 5053   3.992   4.395   4.926  0.3397 -0.4980  0.2534
   63SAPC  H13R 5054   3.936   4.342   5.006 -0.4658  2.8549  2.0855
   63SAPC  H13S 5055   4.102   4.391   4.943  0.7731 -0.2894 -2.1021
   63SAPC  C214 5056   3.962   4.325   4.794 -0.6537 -0.5624  0.1025
   63SAPC  H14R 5057   4.044   4.289   4.730 -1.4724  0.6295 -1.7053
   63SAPC  C215 5058   3.838   4.313   4.739 -0.2899 -0.3573 -0.6609
   63SAPC  H15R 5059   3.826   4.255   4.646  1.7875 -1.4245 -0.3339
   63SAPC  C216 5060   3.715   4.352   4.810 -1.5029 -1.0312 -0.6207
   63SAPC  H16R 5061   3.689   4.454   4.773  0.7950 -0.0039  0.3438
   63SAPC  H16S 5062   3.737   4.344   4.919 -1.4463  0.3036 -0.5076
   63SAPC  C217 5063   3.584   4.276   4.786  0.4330  0.4023 -0.0864
   63SAPC  H17R 5064   3.507   4.308   4.860  1.7811  3.1185  0.2654
   63SAPC  H17S 5065   3.602   4.169   4.806 -2.0149 -0.2362 -0.9477
   63SAPC  C218 5066   3.520   4.284   4.643 -0.6533  0.7739 -0.3778
   63SAPC  H18R 5067   3.442   4.206   4.648  0.4853 -0.3436  1.5268
   63SAPC  H18S 5068   3.593   4.264   4.562  0.3824 -0.6127  0.8275
   63SAPC  C219 5069   3.455   4.420   4.621  0.3966  0.6436 -0.4357
   63SAPC  H19R 5070   3.537   4.486   4.584  1.8558 -0.7000  0.2763
   63SAPC  H19S 5071   3.413   4.462   4.715 -1.6431  3.2082 -2.3505
   63SAPC  C220 5072   3.357   4.425   4.507  0.0081  0.3033 -0.1365
   63SAPC  H20R 5073   3.401   4.397   4.409 -1.3676  0.6530 -0.8794
   63SAPC  H20S 5074   3.318   4.528   4.495 -0.9872  0.2977  2.3230
   63SAPC  H20T 5075   3.278   4.347   4.521  0.2437  0.2681  1.1696
   63SAPC   C33 5076   3.707   4.042   5.725 -1.0049 -0.6148 -0.2853
   63SAPC   H3X 5077   3.660   4.140   5.704  0.3279 -0.5463 -3.6212
   63SAPC   H3Y 5078   3.630   3.964   5.739 -0.8484 -0.4123  2.1256
   63SAPC   C34 5079   3.780   3.991   5.601 -0.8606 -0.3528  0.0412
   63SAPC   H4X 5080   3.846   3.904   5.625  1.9591  1.8755  0.9316
   63SAPC   H4Y 5081   3.854   4.067   5.568  1.7441 -2.6475  0.2226
   63SAPC   C35 5082   3.684   3.965   5.486 -1.1404 -0.1627 -0.3300
   63SAPC   H5X 5083   3.613   4.050   5.478 -0.2317  0.9312  2.1690
   63SAPC   H5Y 5084   3.625   3.874   5.514  2.6390 -2.2760  1.5391
   63SAPC   C36 5085   3.768   3.950   5.353 -0.5316  0.0833 -0.3917
   63SAPC   H6X 5086   3.849   3.875   5.362 -0.1359  0.3299 -1.7130
   63SAPC   H6Y 5087   3.820   4.044   5.325 -0.7032  0.2615 -0.1208
   63SAPC   C37 5088   3.673   3.913   5.240  0.5174 -1.1605 -0.4294
   63SAPC   H7X 5089   3.601   3.997   5.226  0.3104 -0.9681  1.4984
   63SAPC   H7Y 5090   3.624   3.817   5.266 -0.1717 -1.2195 -1.8573
   63SAPC   C38 5091   3.750   3.900   5.111  0.9035 -0.7664 -0.0379
   63SAPC   H8X 5092   3.821   3.815   5.113  0.8194 -0.8320  0.1776
   63SAPC   H8Y 5093   3.806   3.996   5.103 -1.1789  0.5742  0.7577
   63SAPC   C39 5094   3.644   3.911   4.993  0.2784  0.3716 -0.5700
   63SAPC   H9X 5095   3.586   4.006   5.001  0.1820  0.5928 -2.9895
   63SAPC   H9Y 5096   3.572   3.827   5.004 -1.1361  1.3826 -1.6257
   63SAPC  C310 5097   3.695   3.891   4.852 -0.0884  0.7029  0.0210
   63SAPC  H10X 5098   3.773   3.813   4.840  2.3094  2.9273  0.2869
   63SAPC  H10Y 5099   3.749   3.980   4.813 -2.2955  1.7949 -0.7152
   63SAPC  C311 5100   3.587   3.879   4.740 -0.0418  0.1095 -0.8494
   63SAPC  H11X 5101   3.611   3.914   4.637  1.9583  3.0062  0.4681
   63SAPC  H11Y 5102   3.521   3.956   4.784 -0.0240 -1.5252  2.3290
   63SAPC  C312 5103   3.516   3.740   4.724 -1.0964 -0.7990  0.5039
   63SAPC  H12X 5104   3.499   3.707   4.828 -2.4839 -1.9257 -0.0566
   63SAPC  H12Y 5105   3.576   3.664   4.669  0.7400  0.7018  0.3143
   63SAPC  C313 5106   3.382   3.739   4.647  0.0982 -0.0141 -0.3923
   63SAPC  H13X 5107   3.320   3.797   4.720  1.0820  0.2514  0.2493
   63SAPC  H13Y 5108   3.338   3.638   4.639  0.9667 -0.2689 -3.0368
   63SAPC  C314 5109   3.371   3.815   4.518  0.4676  0.2457 -0.1394
   63SAPC  H14X 5110   3.420   3.761   4.433 -1.7326 -3.8262  0.9041
   63SAPC  H14Y 5111   3.418   3.915   4.517 -1.1541  1.0370  0.0448
   63SAPC  C315 5112   3.227   3.847   4.479 -0.5188  0.0555  0.0307
   63SAPC  H15X 5113   3.185   3.909   4.562 -1.7851  0.5801 -0.9610
   63SAPC  H15Y 5114   3.170   3.752   4.477  1.2824 -1.0528 -0.7380
   63SAPC  C316 5115   3.199   3.930   4.354 -0.2044  0.2786 -0.3757
   63SAPC  H16X 5116   3.263   3.897   4.269 -0.5296 -1.3537 -0.0135
   63SAPC  H16Y 5117   3.226   4.037   4.370 -1.3070  0.8435 -2.0112
   63SAPC  C317 5118   3.054   3.919   4.313  0.8141  0.3537  0.2818
   63SAPC  H17X 5119   3.035   3.809   4.304  0.4237  0.4704 -0.3949
   63SAPC  H17Y 5120   3.041   3.948   4.207  0.3223 -1.5734 -0.2281
   63SAPC  C318 5121   2.945   3.985   4.397  0.3007 -0.1243  0.0296
   63SAPC  H18X 5122   2.923   3.910   4.476  0.9614 -0.2076  0.1465
   63SAPC  H18Y 5123   2.855   4.016   4.341  0.7508 -0.0832 -0.6818
   63SAPC  H18Z 5124   2.998   4.075   4.436  0.8036  0.3962 -1.7693
   64SAPC     N 5125   2.919   5.281   6.926  1.0365  1.0186  0.4210
   64SAPC   C12 5126   2.872   5.351   6.795 -0.4700  0.0921 -0.1529
   64SAPC  H12A 5127   2.892   5.283   6.714  0.9567 -0.0377  0.2815
   64SAPC  H12B 5128   2.941   5.432   6.774 -1.0887  0.4000 -1.0209
   64SAPC   C13 5129   2.918   5.376   7.041  0.1582 -0.2343 -0.4841
   64SAPC  H13A 5130   3.007   5.438   7.037  0.7640 -1.0514  0.0267
   64SAPC  H13B 5131   2.822   5.426   7.045  0.9911  1.3318  2.0474
   64SAPC  H13C 5132   2.916   5.336   7.141  1.6902  2.8526  0.9542
   64SAPC   C14 5133   2.831   5.166   6.961 -0.0084  0.1636  0.4860
   64SAPC  H14A 5134   2.741   5.180   6.904  0.7898 -0.5054 -1.0005
   64SAPC  H14B 5135   2.872   5.071   6.930  0.8291  1.0589 -1.3056
   64SAPC  H14C 5136   2.811   5.164   7.067 -2.1165  1.6735  0.1675
   64SAPC   C15 5137   3.059   5.234   6.903  0.3965 -0.5941 -0.0370
   64SAPC  H15A 5138   3.096   5.179   6.989  0.6972 -1.0082 -0.4313
   64SAPC  H15B 5139   3.066   5.168   6.818 -0.4238  0.4231 -0.9055
   64SAPC  H15C 5140   3.118   5.322   6.883 -0.8781  0.4232  0.5267
   64SAPC   C11 5141   2.729   5.411   6.789  0.1839  0.6488 -0.3777
   64SAPC  H11A 5142   2.714   5.461   6.691 -0.8548 -0.4849 -0.8196
   64SAPC  H11B 5143   2.723   5.480   6.876 -0.8994 -0.5262  0.5243
   64SAPC     P 5144   2.480   5.329   6.785  0.2433 -0.4384  0.2232
   64SAPC   O13 5145   2.410   5.228   6.856 -0.0038 -0.0555  0.3472
   64SAPC   O14 5146   2.446   5.473   6.801  0.7925  0.5135 -0.2277
   64SAPC   O12 5147   2.639   5.306   6.809 -0.0808 -0.1485  0.2934
   64SAPC   O11 5148   2.462   5.293   6.636  0.6980  0.0520 -0.0895
   64SAPC    C1 5149   2.471   5.162   6.585 -0.1781 -0.0425 -0.9252
   64SAPC    HA 5150   2.439   5.089   6.662  2.5724  0.3705  0.7185
   64SAPC    HB 5151   2.402   5.158   6.497 -0.9428 -2.1817 -0.2887
   64SAPC    C2 5152   2.614   5.129   6.550  0.8410  0.3628 -0.8513
   64SAPC    HS 5153   2.670   5.128   6.646  0.9778  2.0555 -0.8758
   64SAPC   O21 5154   2.669   5.229   6.471  0.3385  0.2293  0.3067
   64SAPC   C21 5155   2.796   5.259   6.488 -0.0789  0.0593 -0.5516
   64SAPC   O22 5156   2.878   5.196   6.553  0.5950  0.3298 -0.4819
   64SAPC   C22 5157   2.835   5.379   6.400 -0.6549  0.4394 -0.0529
   64SAPC   H2R 5158   2.814   5.334   6.301  1.2400 -0.4104 -0.1160
   64SAPC   H2S 5159   2.763   5.462   6.415 -1.4626 -0.0462 -1.1022
   64SAPC    C3 5160   2.632   4.993   6.476  0.5876 -0.0438  0.0809
   64SAPC    HX 5161   2.585   4.928   6.553  0.3086  1.7182  1.4601
   64SAPC    HY 5162   2.741   4.978   6.463  0.4621 -1.2536  0.3387
   64SAPC   O31 5163   2.560   4.978   6.350 -0.1481 -0.0817  0.0196
   64SAPC   C31 5164   2.634   5.014   6.245  0.4598 -0.3012 -0.6780
   64SAPC   O32 5165   2.745   5.076   6.254 -0.5068 -0.2004  0.4862
   64SAPC   C32 5166   2.561   4.981   6.119  0.6532  0.1139  0.0976
   64SAPC   H2X 5167   2.466   5.037   6.104  0.7374  0.1397 -0.3452
   64SAPC   H2Y 5168   2.539   4.872   6.127  2.0988 -0.2230 -0.2300
   64SAPC   C23 5169   2.989   5.407   6.401  0.3156  0.5671  0.4366
   64SAPC   H3R 5170   3.035   5.309   6.377 -0.8868  0.3715 -1.2368
   64SAPC   H3S 5171   3.020   5.436   6.504 -1.3660 -0.1635  1.1727
   64SAPC   C24 5172   3.017   5.519   6.306  0.4637 -0.6937 -0.6541
   64SAPC   H4R 5173   2.942   5.597   6.330  0.4054 -1.9345  4.6578
   64SAPC   H4S 5174   2.987   5.477   6.208 -0.8234 -0.6023 -0.3216
   64SAPC   C25 5175   3.160   5.577   6.296  0.0541 -0.0893  1.3065
   64SAPC   H5R 5176   3.240   5.503   6.310  0.3290  0.0401  0.4780
   64SAPC   C26 5177   3.187   5.705   6.251 -0.4174 -0.2531  0.3209
   64SAPC   H6R 5178   3.289   5.745   6.261 -1.4561  2.3698  1.6504
   64SAPC   C27 5179   3.090   5.809   6.199  0.0422  0.1180 -0.4661
   64SAPC   H7R 5180   3.052   5.876   6.279 -1.6332 -1.5652  0.2314
   64SAPC   H7S 5181   2.996   5.755   6.174 -0.1686  0.4390 -0.3836
   64SAPC   C28 5182   3.145   5.894   6.078  0.4532 -0.0742 -0.1836
   64SAPC   H8R 5183   3.202   5.982   6.110  0.9195 -0.6808  0.7114
   64SAPC   C29 5184   3.110   5.876   5.955 -0.0251 -0.1528 -0.0227
   64SAPC   H9R 5185   3.149   5.939   5.874 -0.5658 -1.3329 -1.2454
   64SAPC  C210 5186   3.023   5.758   5.898  0.3220  0.5669  0.3294
   64SAPC  H10R 5187   3.008   5.675   5.970  0.2375  1.1749  1.0310
   64SAPC  H10S 5188   3.070   5.723   5.804  1.9047  0.3359  1.1677
   64SAPC  C211 5189   2.893   5.817   5.871 -0.2591  0.0540  0.4945
   64SAPC  H11R 5190   2.838   5.855   5.959  0.0254  0.1100  0.6500
   64SAPC  C212 5191   2.833   5.852   5.754  0.2378 -1.6552  0.6055
   64SAPC  H12R 5192   2.736   5.902   5.761 -0.2836 -2.5234 -0.2212
   64SAPC  C213 5193   2.891   5.828   5.616 -0.3048 -0.3298 -0.2101
   64SAPC  H13R 5194   2.913   5.720   5.606  2.5663  0.2853 -1.9229
   64SAPC  H13S 5195   2.981   5.894   5.607 -1.1158  1.0372  1.2220
   64SAPC  C214 5196   2.803   5.868   5.503  0.4530  0.3318  1.0741
   64SAPC  H14R 5197   2.725   5.945   5.514 -1.5098 -0.7017 -3.2605
   64SAPC  C215 5198   2.814   5.816   5.377  0.5738 -0.2252  1.0792
   64SAPC  H15R 5199   2.744   5.850   5.299 -0.0221 -1.9250  0.8207
   64SAPC  C216 5200   2.914   5.712   5.321  0.0461  0.8816 -0.6436
   64SAPC  H16R 5201   2.852   5.620   5.329  0.5932  0.4746 -1.0655
   64SAPC  H16S 5202   3.004   5.714   5.385 -1.4580  4.8642  1.7548
   64SAPC  C217 5203   2.954   5.744   5.175  0.3681 -0.1314 -0.7160
   64SAPC  H17R 5204   3.065   5.733   5.170  0.3811 -1.5518  1.5370
   64SAPC  H17S 5205   2.916   5.847   5.156 -3.3639 -1.4824 -1.3743
   64SAPC  C218 5206   2.890   5.644   5.071 -0.2708 -0.2882  0.4652
   64SAPC  H18R 5207   2.780   5.656   5.063 -0.3069  0.4496  1.7967
   64SAPC  H18S 5208   2.908   5.541   5.109 -0.2483  0.2093  1.8348
   64SAPC  C219 5209   2.975   5.631   4.939 -0.0823 -0.3647  0.3617
   64SAPC  H19R 5210   2.955   5.532   4.894  2.8709 -0.8925 -0.0027
   64SAPC  H19S 5211   3.080   5.635   4.975  0.2747 -0.1444 -0.6496
   64SAPC  C220 5212   2.953   5.734   4.830  0.1339 -0.9170  0.3593
   64SAPC  H20R 5213   2.986   5.836   4.857  0.1575 -1.1861  1.3898
   64SAPC  H20S 5214   2.845   5.732   4.802 -0.0951  1.3213  0.8805
   64SAPC  H20T 5215   3.020   5.703   4.748  1.7961 -5.0100  2.9445
   64SAPC   C33 5216   2.638   5.014   5.994 -0.4019  0.5377  0.4163
   64SAPC   H3X 5217   2.736   4.961   6.001 -0.4685  0.3837  0.1817
   64SAPC   H3Y 5218   2.662   5.123   5.990  1.9514  0.0480 -1.5412
   64SAPC   C34 5219   2.559   4.971   5.867  0.0427 -0.2048  0.0464
   64SAPC   H4X 5220   2.450   4.993   5.871  0.0390 -0.4564  2.3932
   64SAPC   H4Y 5221   2.560   4.860   5.865  1.1660 -0.2006  0.2198
   64SAPC   C35 5222   2.617   5.007   5.725  0.0940 -0.2360 -0.5260
   64SAPC   H5X 5223   2.721   4.968   5.719 -0.4323 -1.5863 -1.6220
   64SAPC   H5Y 5224   2.606   5.117   5.718  1.0885 -0.2216 -2.6192
   64SAPC   C36 5225   2.538   4.954   5.605 -0.0653 -0.4226  1.3168
   64SAPC   H6X 5226   2.436   4.997   5.600  0.9509  2.0995 -0.2327
   64SAPC   H6Y 5227   2.548   4.844   5.612  1.4888 -0.4685 -0.5963
   64SAPC   C37 5228   2.609   5.009   5.466  0.4462  0.3697  0.0143
   64SAPC   H7X 5229   2.716   4.980   5.457 -0.0528 -1.5812 -0.2132
   64SAPC   H7Y 5230   2.604   5.119   5.463  0.1509  0.3456 -0.6283
   64SAPC   C38 5231   2.552   4.950   5.343 -0.2342 -0.1091  0.5273
   64SAPC   H8X 5232   2.448   4.988   5.333  0.3624  1.0833 -1.5674
   64SAPC   H8Y 5233   2.552   4.839   5.347 -2.9392 -0.2149 -0.4726
   64SAPC   C39 5234   2.639   4.987   5.222 -0.8759 -0.7919 -0.0353
   64SAPC   H9X 5235   2.747   4.963   5.233 -0.9441 -1.3197 -0.4715
   64SAPC   H9Y 5236   2.637   5.096   5.201  0.8577 -0.9030 -0.9444
   64SAPC  C310 5237   2.604   4.908   5.090  0.5250 -0.1076 -0.1465
   64SAPC  H10X 5238   2.642   4.804   5.096  1.9233  0.4556  1.3413
   64SAPC  H10Y 5239   2.665   4.950   5.007  0.0469 -2.4114 -1.7596
   64SAPC  C311 5240   2.451   4.921   5.046 -0.1138 -0.3690 -0.0048
   64SAPC  H11X 5241   2.417   5.024   5.074  0.6691 -0.1277  0.0892
   64SAPC  H11Y 5242   2.383   4.853   5.100 -0.3222  0.6456  1.0637
   64SAPC  C312 5243   2.406   4.888   4.909 -0.1140 -0.1977 -0.1902
   64SAPC  H12X 5244   2.296   4.873   4.911 -0.0736 -0.5152  1.2217
   64SAPC  H12Y 5245   2.445   4.786   4.886 -0.1959 -0.4114  0.5658
   64SAPC  C313 5246   2.440   4.993   4.802 -0.1646  0.2120  0.2000
   64SAPC  H13X 5247   2.549   4.987   4.785 -0.5398 -0.4640 -2.3173
   64SAPC  H13Y 5248   2.428   5.094   4.848  1.2833  0.0540  0.9710
   64SAPC  C314 5249   2.363   4.973   4.668  0.4538 -0.0977 -0.1055
   64SAPC  H14X 5250   2.254   4.971   4.689 -0.2921  3.8273 -2.5142
   64SAPC  H14Y 5251   2.401   4.880   4.620  1.0674 -0.5356  1.1891
   64SAPC  C315 5252   2.388   5.085   4.563  0.3663  0.1638  0.2694
   64SAPC  H15X 5253   2.390   5.189   4.604  2.0659  0.6817 -0.9824
   64SAPC  H15Y 5254   2.311   5.083   4.484 -0.2675 -0.1410  0.8821
   64SAPC  C316 5255   2.522   5.077   4.497 -0.3055  0.1354 -0.1428
   64SAPC  H16X 5256   2.541   4.973   4.462 -0.1310  0.0108  0.3197
   64SAPC  H16Y 5257   2.607   5.095   4.566  0.7636  0.1208 -1.4123
   64SAPC  C317 5258   2.531   5.184   4.387  0.0972 -0.5624  0.3429
   64SAPC  H17X 5259   2.514   5.288   4.424  1.0363  0.3463 -1.6189
   64SAPC  H17Y 5260   2.456   5.150   4.313 -0.6990 -0.1403  0.9316
   64SAPC  C318 5261   2.670   5.188   4.321 -0.5684  0.1711 -0.6977
   64SAPC  H18X 5262   2.667   5.224   4.215  0.0461  0.2501 -0.6923
   64SAPC  H18Y 5263   2.709   5.085   4.317 -1.1008 -0.2232  2.3084
   64SAPC  H18Z 5264   2.747   5.249   4.373 -0.4535 -0.0743 -0.5840
   65SAPC     N 5265   1.572   0.162   1.551 -0.4125  0.5527  0.7063
   65SAPC   C12 5266   1.460   0.145   1.648 -0.5319 -0.5122 -0.1626
   65SAPC  H12A 5267   1.419   0.046   1.636 -2.2112  0.1967 -0.5629
   65SAPC  H12B 5268   1.379   0.213   1.626  0.6049  2.3281  3.2923
   65SAPC   C13 5269   1.622   0.304   1.554  0.2792 -0.5841  0.6824
   65SAPC  H13A 5270   1.704   0.321   1.485 -0.2515  0.7274  0.3480
   65SAPC  H13B 5271   1.543   0.375   1.535 -0.3317 -1.0340  1.5293
   65SAPC  H13C 5272   1.661   0.315   1.654 -1.0270 -0.1084  1.1603
   65SAPC   C14 5273   1.686   0.072   1.584 -0.3390 -0.0149 -0.8525
   65SAPC  H14A 5274   1.739   0.112   1.669 -1.7479 -0.3592  0.2371
   65SAPC  H14B 5275   1.653  -0.031   1.593 -0.6061 -0.1276 -2.6719
   65SAPC  H14C 5276   1.749   0.060   1.497  0.4172 -0.7515 -0.2163
   65SAPC   C15 5277   1.526   0.130   1.411  0.3341  0.2276 -0.7616
   65SAPC  H15A 5278   1.458   0.208   1.381  1.4009  1.1932 -0.7539
   65SAPC  H15B 5279   1.605   0.136   1.337  1.0707 -2.4517 -0.2939
   65SAPC  H15C 5280   1.484   0.032   1.395  0.5074  0.3017 -1.7725
   65SAPC   C11 5281   1.497   0.169   1.798 -0.0697 -0.2215 -0.5454
   65SAPC  H11A 5282   1.584   0.114   1.840 -0.5892  0.8350  2.1627
   65SAPC  H11B 5283   1.409   0.137   1.857  0.4218 -1.7376 -0.5893
   65SAPC     P 5284   1.472   0.400   1.927 -0.2597 -0.1844  0.0260
   65SAPC   O13 5285   1.538   0.531   1.921 -0.1228  0.1713  0.1999
   65SAPC   O14 5286   1.328   0.397   1.904 -0.4067  0.4722  0.4561
   65SAPC   O12 5287   1.533   0.307   1.818  1.1056 -0.4969  0.1506
   65SAPC   O11 5288   1.494   0.332   2.067 -0.1303  0.1357  0.1496
   65SAPC    C1 5289   1.624   0.288   2.109  0.2975 -0.2528  0.4911
   65SAPC    HA 5290   1.639   0.179   2.099 -0.7086 -0.4134  0.6164
   65SAPC    HB 5291   1.708   0.342   2.059  0.1935  0.6800  1.3023
   65SAPC    C2 5292   1.633   0.322   2.264  0.6851  0.6201  0.0459
   65SAPC    HS 5293   1.623   0.229   2.324  1.6654 -0.4785 -1.4393
   65SAPC   O21 5294   1.543   0.429   2.299  0.6792 -0.3242 -0.1280
   65SAPC   C21 5295   1.425   0.404   2.348 -0.8026  0.4056  0.5160
   65SAPC   O22 5296   1.388   0.289   2.372  0.1292  0.5357 -0.4425
   65SAPC   C22 5297   1.341   0.529   2.366 -0.0917 -0.3957  0.1417
   65SAPC   H2R 5298   1.403   0.620   2.352 -0.0100 -0.4387  0.2242
   65SAPC   H2S 5299   1.254   0.522   2.297  1.2884 -3.8713 -1.5122
   65SAPC    C3 5300   1.775   0.373   2.303  0.0686 -0.8970 -0.4426
   65SAPC    HX 5301   1.802   0.462   2.242  1.3877  0.4114  1.9252
   65SAPC    HY 5302   1.839   0.290   2.266 -0.5976 -1.2402 -0.8737
   65SAPC   O31 5303   1.797   0.401   2.441 -0.8586  0.1281  0.0609
   65SAPC   C31 5304   1.753   0.521   2.481  0.1604  0.6613  0.2146
   65SAPC   O32 5305   1.745   0.625   2.412  1.4011 -0.0293 -0.4398
   65SAPC   C32 5306   1.749   0.520   2.629  1.0647  0.4671  0.4466
   65SAPC   H2X 5307   1.825   0.452   2.674  1.1539  1.0007  1.1292
   65SAPC   H2Y 5308   1.653   0.473   2.660  2.5090 -1.3948  2.3598
   65SAPC   C23 5309   1.289   0.544   2.510 -0.5626  0.0958 -0.2483
   65SAPC   H3R 5310   1.376   0.551   2.579 -0.1455 -1.4824 -0.5634
   65SAPC   H3S 5311   1.222   0.461   2.540 -0.2161  0.6800  2.3522
   65SAPC   C24 5312   1.196   0.668   2.540  0.7816  0.0642 -0.3337
   65SAPC   H4R 5313   1.176   0.675   2.649  0.8123  2.4366 -0.4186
   65SAPC   H4S 5314   1.094   0.659   2.497 -0.3590  0.3205  2.1609
   65SAPC   C25 5315   1.252   0.803   2.499 -0.3931  0.0481 -0.1069
   65SAPC   H5R 5316   1.271   0.816   2.391 -2.9177  1.3212 -0.4695
   65SAPC   C26 5317   1.290   0.906   2.587  0.0465  0.9271  0.3144
   65SAPC   H6R 5318   1.317   1.005   2.549  0.3471  1.4933  1.9052
   65SAPC   C27 5319   1.260   0.900   2.740  0.0213 -0.9361  0.1206
   65SAPC   H7R 5320   1.302   0.808   2.787  3.7340  0.0866 -0.8783
   65SAPC   H7S 5321   1.153   0.890   2.769  0.4630 -1.7780  1.5895
   65SAPC   C28 5322   1.324   1.020   2.814 -0.1599  0.5314  0.0678
   65SAPC   H8R 5323   1.330   1.117   2.763  2.7573  0.7948  0.7138
   65SAPC   C29 5324   1.366   1.022   2.944 -0.0945  0.0640  0.9161
   65SAPC   H9R 5325   1.403   1.112   2.996 -0.4810 -0.8290  2.8154
   65SAPC  C210 5326   1.346   0.911   3.048 -0.0911  0.3910  1.0304
   65SAPC  H10R 5327   1.275   0.835   3.009 -2.1111  2.2901  0.8099
   65SAPC  H10S 5328   1.295   0.948   3.139 -2.3329 -0.6611  0.2790
   65SAPC  C211 5329   1.492   0.860   3.071 -0.3128  0.0928 -0.4307
   65SAPC  H11R 5330   1.568   0.859   2.991 -0.3700  0.2541 -0.4893
   65SAPC  C212 5331   1.545   0.825   3.193  0.4318  0.1739 -0.0039
   65SAPC  H12R 5332   1.655   0.830   3.205  0.1929  3.4331  2.2662
   65SAPC  C213 5333   1.483   0.808   3.338 -0.0981 -0.3895  0.1938
   65SAPC  H13R 5334   1.503   0.701   3.358  3.4959  0.3390  1.2291
   65SAPC  H13S 5335   1.377   0.841   3.327 -0.6003 -1.8833  0.3770
   65SAPC  C214 5336   1.559   0.886   3.438 -0.0061 -1.0242  0.0771
   65SAPC  H14R 5337   1.608   0.827   3.517 -0.6750  0.1745  1.4585
   65SAPC  C215 5338   1.545   1.017   3.477  0.4308  0.6675 -0.5435
   65SAPC  H15R 5339   1.603   1.042   3.567 -1.0877 -1.0321  0.9898
   65SAPC  C216 5340   1.465   1.116   3.394 -0.1449  0.0263 -0.3839
   65SAPC  H16R 5341   1.389   1.152   3.466 -0.0778  1.3528 -0.9513
   65SAPC  H16S 5342   1.408   1.070   3.310  0.5172  1.3645 -1.6132
   65SAPC  C217 5343   1.558   1.234   3.349 -0.0507  0.3293  0.0348
   65SAPC  H17R 5344   1.646   1.193   3.295 -0.4109 -0.8834  0.3437
   65SAPC  H17S 5345   1.604   1.292   3.432 -1.0768 -0.3026  1.0727
   65SAPC  C218 5346   1.489   1.324   3.247 -0.5919  0.4234  0.0656
   65SAPC  H18R 5347   1.438   1.257   3.175  1.8221  1.0851 -2.3808
   65SAPC  H18S 5348   1.569   1.384   3.198 -0.5047 -0.6462 -1.1410
   65SAPC  C219 5349   1.378   1.409   3.311  0.0949  0.0155 -0.4961
   65SAPC  H19R 5350   1.415   1.472   3.395 -1.5650  0.6500 -0.1946
   65SAPC  H19S 5351   1.295   1.356   3.363 -1.1871  1.6831 -0.7518
   65SAPC  C220 5352   1.319   1.509   3.210  0.9870 -0.1130 -0.3659
   65SAPC  H20R 5353   1.233   1.564   3.255  1.4934  0.4910 -0.1269
   65SAPC  H20S 5354   1.280   1.452   3.122 -0.8792  0.6310 -0.0628
   65SAPC  H20T 5355   1.396   1.583   3.181  0.3717  0.8952  0.5270
   65SAPC   C33 5356   1.764   0.656   2.692  0.0920 -0.3774 -0.7258
   65SAPC   H3X 5357   1.718   0.731   2.624  0.2258 -2.0777 -2.8047
   65SAPC   H3Y 5358   1.871   0.686   2.693 -0.2815  0.9775  0.4982
   65SAPC   C34 5359   1.706   0.670   2.825  0.2505 -0.3007  0.5055
   65SAPC   H4X 5360   1.595   0.678   2.820  0.3452  0.6442 -0.5363
   65SAPC   H4Y 5361   1.734   0.771   2.859 -0.4734  0.3933 -0.8484
   65SAPC   C35 5362   1.747   0.570   2.936  0.7544  0.4020 -0.6629
   65SAPC   H5X 5363   1.737   0.464   2.906 -1.8744  1.4728 -4.2141
   65SAPC   H5Y 5364   1.683   0.586   3.025  0.2079 -0.8450 -0.8167
   65SAPC   C36 5365   1.892   0.598   2.990  0.7191  0.7111 -0.3538
   65SAPC   H6X 5366   1.875   0.685   3.056 -2.9746 -1.6609  2.1831
   65SAPC   H6Y 5367   1.967   0.619   2.911  1.5348  1.8734  0.7047
   65SAPC   C37 5368   1.962   0.485   3.078 -0.5999  0.0419 -0.0439
   65SAPC   H7X 5369   1.961   0.394   3.014 -0.8423 -0.6885  0.9662
   65SAPC   H7Y 5370   1.891   0.457   3.159 -0.7178  0.7996  0.1227
   65SAPC   C38 5371   2.100   0.518   3.132 -0.3616  0.1455 -0.0397
   65SAPC   H8X 5372   2.092   0.619   3.177  2.7397  1.3907 -1.9808
   65SAPC   H8Y 5373   2.168   0.528   3.044 -1.2942  1.9038 -0.6201
   65SAPC   C39 5374   2.154   0.415   3.235 -0.7419  0.2435 -1.0507
   65SAPC   H9X 5375   2.163   0.311   3.198  0.2117  0.2491 -0.8824
   65SAPC   H9Y 5376   2.104   0.409   3.334  1.6398  1.5526  0.3376
   65SAPC  C310 5377   2.296   0.459   3.269 -0.4767  0.6116 -0.0183
   65SAPC  H10X 5378   2.300   0.566   3.299 -2.0966  0.7027 -0.0469
   65SAPC  H10Y 5379   2.355   0.456   3.175  0.9807 -0.3904  0.8777
   65SAPC  C311 5380   2.376   0.373   3.370 -0.3441 -0.3993  0.8715
   65SAPC  H11X 5381   2.483   0.400   3.372  0.2829 -2.7026  0.7640
   65SAPC  H11Y 5382   2.374   0.271   3.327 -1.8728  0.6478 -1.8580
   65SAPC  C312 5383   2.312   0.382   3.508  0.4035  0.3346  0.7979
   65SAPC  H12X 5384   2.210   0.338   3.504 -0.1627  1.6628 -2.1672
   65SAPC  H12Y 5385   2.318   0.489   3.539  1.4479  0.4257  0.3287
   65SAPC  C313 5386   2.396   0.307   3.607  0.0288 -0.1157  0.0907
   65SAPC  H13X 5387   2.504   0.332   3.596  0.5886 -2.6981 -0.8611
   65SAPC  H13Y 5388   2.396   0.199   3.583  0.1970  0.2346 -1.6366
   65SAPC  C314 5389   2.355   0.350   3.748 -0.0753 -0.1590 -0.1828
   65SAPC  H14X 5390   2.244   0.358   3.752 -0.0349  3.2111 -2.0352
   65SAPC  H14Y 5391   2.385   0.456   3.762 -1.4835  0.1819  0.4626
   65SAPC  C315 5392   2.412   0.263   3.856  0.4855 -0.0127 -0.6627
   65SAPC  H15X 5393   2.514   0.230   3.828  1.8867  1.5441  2.1526
   65SAPC  H15Y 5394   2.353   0.171   3.875  1.0561 -0.1534  0.4772
   65SAPC  C316 5395   2.420   0.348   3.984 -0.2826 -0.4792 -0.8529
   65SAPC  H16X 5396   2.320   0.371   4.026  1.2713  2.2349  1.7266
   65SAPC  H16Y 5397   2.464   0.447   3.956 -1.3944  0.4392  0.5225
   65SAPC  C317 5398   2.512   0.273   4.087 -0.3642 -0.0775  1.0120
   65SAPC  H17X 5399   2.614   0.299   4.051 -2.2348  1.5795 -3.9195
   65SAPC  H17Y 5400   2.497   0.164   4.083 -2.1636  0.1832 -0.4196
   65SAPC  C318 5401   2.502   0.335   4.224  0.7018 -0.5523  0.0717
   65SAPC  H18X 5402   2.399   0.354   4.259  0.5204  0.9560 -1.1831
   65SAPC  H18Y 5403   2.554   0.433   4.218 -0.7225  0.1719 -0.8024
   65SAPC  H18Z 5404   2.546   0.276   4.307  0.8626 -1.6254 -0.7588
   66SAPC     N 5405   4.932   3.487   2.063  0.5468 -0.1496 -0.2475
   66SAPC   C12 5406   4.829   3.541   2.171  0.1742  0.4166 -0.0923
   66SAPC  H12A 5407   4.879   3.522   2.265 -0.9417  2.1204  0.8949
   66SAPC  H12B 5408   4.741   3.478   2.170  0.7439 -0.4082  0.4654
   66SAPC   C13 5409   5.065   3.551   2.087 -0.0690 -1.1233  0.2394
   66SAPC  H13A 5410   5.146   3.533   2.018  1.1493  2.9961  0.3131
   66SAPC  H13B 5411   5.051   3.657   2.101 -0.6778 -1.3358  1.4281
   66SAPC  H13C 5412   5.099   3.517   2.184  2.4300 -1.9705 -0.8531
   66SAPC   C14 5413   4.945   3.336   2.068  1.5731 -0.0178  0.3296
   66SAPC  H14A 5414   4.857   3.287   2.029 -0.1915  1.5622  2.1007
   66SAPC  H14B 5415   5.035   3.304   2.017  2.8128  2.5261  0.7445
   66SAPC  H14C 5416   4.950   3.307   2.172  0.4107 -1.2647  0.0647
   66SAPC   C15 5417   4.897   3.531   1.925  0.1866 -0.3741  0.2112
   66SAPC  H15A 5418   4.881   3.637   1.919  2.5606  0.0177 -0.2175
   66SAPC  H15B 5419   4.983   3.518   1.862  0.9172 -0.0555  1.1127
   66SAPC  H15C 5420   4.807   3.484   1.889 -0.2591  0.3271  0.3832
   66SAPC   C11 5421   4.788   3.690   2.157  0.0754 -0.2063 -0.4488
   66SAPC  H11A 5422   4.883   3.748   2.160 -0.9212  1.4361  1.3280
   66SAPC  H11B 5423   4.737   3.721   2.250  0.2687  0.2692 -0.4980
   66SAPC     P 5424   4.561   3.694   2.035  0.1881  0.5599  0.0194
   66SAPC   O13 5425   4.500   3.828   2.011  0.0276  0.2099  0.3600
   66SAPC   O14 5426   4.528   3.593   1.930  0.2576 -0.4549 -0.1818
   66SAPC   O12 5427   4.709   3.715   2.045  0.0410 -0.1336 -0.2923
   66SAPC   O11 5428   4.523   3.646   2.177  0.5676  0.1479 -0.5771
   66SAPC    C1 5429   4.449   3.521   2.199 -0.3785 -0.6366  0.1516
   66SAPC    HA 5430   4.357   3.510   2.137 -0.0605  0.1568 -0.4688
   66SAPC    HB 5431   4.525   3.444   2.175  2.5058  2.4423 -1.3796
   66SAPC    C2 5432   4.394   3.501   2.337  0.2922  0.3493 -0.4675
   66SAPC    HS 5433   4.315   3.577   2.358 -0.5284 -1.2534  3.0705
   66SAPC   O21 5434   4.509   3.518   2.424  0.5615  0.1870 -0.0728
   66SAPC   C21 5435   4.529   3.633   2.491  0.1111 -0.1544 -0.5851
   66SAPC   O22 5436   4.455   3.728   2.485 -0.6218 -0.3629 -0.0467
   66SAPC   C22 5437   4.668   3.631   2.561  0.4189  0.8861  0.6790
   66SAPC   H2R 5438   4.684   3.526   2.592  0.4938 -0.2391 -2.7728
   66SAPC   H2S 5439   4.739   3.644   2.477 -0.0563 -2.6856 -0.4347
   66SAPC    C3 5440   4.310   3.371   2.362 -1.1118 -0.7823 -0.1685
   66SAPC    HX 5441   4.369   3.283   2.329  0.2149  0.7763 -2.3120
   66SAPC    HY 5442   4.238   3.386   2.279 -0.2724 -0.0994 -0.7922
   66SAPC   O31 5443   4.247   3.363   2.489  0.0296  0.5265  0.3393
   66SAPC   C31 5444   4.266   3.247   2.561 -0.1229  0.4216 -0.0440
   66SAPC   O32 5445   4.332   3.152   2.521 -0.0784  0.5202  0.4671
   66SAPC   C32 5446   4.183   3.260   2.690  0.2128 -0.2246  0.2072
   66SAPC   H2X 5447   4.091   3.201   2.672  1.0659 -1.9913  1.3084
   66SAPC   H2Y 5448   4.154   3.364   2.714 -0.3498 -0.4647  0.5734
   66SAPC   C23 5449   4.675   3.718   2.680 -0.6785  0.4012  0.2292
   66SAPC   H3R 5450   4.632   3.817   2.653  0.1625  0.3129 -1.5468
   66SAPC   H3S 5451   4.784   3.717   2.697 -0.5313  0.9490 -0.6471
   66SAPC   C24 5452   4.589   3.660   2.793 -0.6146  0.1582 -0.5462
   66SAPC   H4R 5453   4.618   3.556   2.816 -1.0444  0.0845 -0.3401
   66SAPC   H4S 5454   4.481   3.659   2.765 -0.5028 -0.5291 -0.9576
   66SAPC   C25 5455   4.602   3.751   2.908 -0.0632  0.5259  0.0954
   66SAPC   H5R 5456   4.662   3.841   2.888 -2.4974  2.4704  0.9573
   66SAPC   C26 5457   4.555   3.727   3.034 -0.3454  0.2526 -0.5491
   66SAPC   H6R 5458   4.579   3.795   3.118 -0.5352 -0.3427 -0.0007
   66SAPC   C27 5459   4.493   3.602   3.086  0.2435  0.1623  0.5477
   66SAPC   H7R 5460   4.475   3.531   3.002  1.5335  1.1665 -0.6459
   66SAPC   H7S 5461   4.398   3.635   3.132 -1.0014 -1.4572 -0.7056
   66SAPC   C28 5462   4.575   3.530   3.189  0.1531 -0.2572  0.5178
   66SAPC   H8R 5463   4.650   3.468   3.138 -0.3387 -1.8675  1.6852
   66SAPC   C29 5464   4.587   3.564   3.320  0.5024  0.1954 -0.2428
   66SAPC   H9R 5465   4.642   3.500   3.390  2.3870 -0.1491 -1.9726
   66SAPC  C210 5466   4.500   3.658   3.395  0.1758  0.1614  0.3568
   66SAPC  H10R 5467   4.445   3.595   3.468 -0.6935  0.2068 -0.2359
   66SAPC  H10S 5468   4.410   3.692   3.339 -0.2966  1.4737  1.8440
   66SAPC  C211 5469   4.569   3.774   3.458  0.2585  0.1455 -0.1385
   66SAPC  H11R 5470   4.567   3.872   3.408  2.3259  1.1098  1.5279
   66SAPC  C212 5471   4.623   3.771   3.573 -0.5030  0.4175  0.1247
   66SAPC  H12R 5472   4.666   3.863   3.616  4.1796 -1.3157 -0.3077
   66SAPC  C213 5473   4.650   3.646   3.652  0.0564  0.0757 -0.1563
   66SAPC  H13R 5474   4.565   3.576   3.644  0.1744 -0.2145  0.8983
   66SAPC  H13S 5475   4.638   3.675   3.759  1.8178 -0.2562  0.1761
   66SAPC  C214 5476   4.783   3.575   3.631 -0.8595 -0.3796  0.4306
   66SAPC  H14R 5477   4.839   3.597   3.539  0.5414 -1.9980  0.8724
   66SAPC  C215 5478   4.843   3.503   3.729 -0.6506 -0.5049  0.3832
   66SAPC  H15R 5479   4.932   3.447   3.696 -2.0267 -1.7180 -1.4960
   66SAPC  C216 5480   4.789   3.458   3.859  0.2733  0.1416 -0.3447
   66SAPC  H16R 5481   4.786   3.348   3.875  1.8464 -0.1757 -1.9376
   66SAPC  H16S 5482   4.686   3.493   3.883  0.8440 -0.2893  3.3624
   66SAPC  C217 5483   4.872   3.511   3.979  0.1482  1.1873  1.0475
   66SAPC  H17R 5484   4.881   3.621   3.969  0.2564  1.0669 -0.2564
   66SAPC  H17S 5485   4.977   3.477   3.969 -0.3630  0.1984 -2.1669
   66SAPC  C218 5486   4.809   3.485   4.122 -0.4020 -0.0504  0.0979
   66SAPC  H18R 5487   4.738   3.568   4.143 -2.7007 -2.4457  2.5630
   66SAPC  H18S 5488   4.889   3.512   4.194 -3.6069  2.3873  3.0860
   66SAPC  C219 5489   4.759   3.346   4.141 -0.2866  0.0816 -0.3843
   66SAPC  H19R 5490   4.837   3.268   4.137 -1.3566 -0.9789 -0.9340
   66SAPC  H19S 5491   4.687   3.327   4.059  0.4285  2.7152 -1.7553
   66SAPC  C220 5492   4.681   3.319   4.273  0.2249  0.1661  0.4691
   66SAPC  H20R 5493   4.744   3.322   4.365  0.1663  2.7039  0.4922
   66SAPC  H20S 5494   4.641   3.216   4.272  1.6607 -0.4184  0.2023
   66SAPC  H20T 5495   4.603   3.396   4.288 -0.3036 -0.2159 -0.2888
   66SAPC   C33 5496   4.249   3.202   2.815  0.0415  0.3919 -0.0873
   66SAPC   H3X 5497   4.291   3.099   2.806 -0.4850  0.2064 -0.5047
   66SAPC   H3Y 5498   4.166   3.188   2.888 -1.5677  0.0329 -1.8791
   66SAPC   C34 5499   4.353   3.290   2.877 -0.2792 -0.3810  0.0535
   66SAPC   H4X 5500   4.305   3.389   2.893  0.7922  0.5116 -1.8671
   66SAPC   H4Y 5501   4.432   3.300   2.799 -1.0317 -3.8498 -1.3314
   66SAPC   C35 5502   4.396   3.239   3.015  0.1061 -0.0973  0.1118
   66SAPC   H5X 5503   4.491   3.292   3.039 -0.6246  0.4868  1.9578
   66SAPC   H5Y 5504   4.417   3.130   3.023  0.5310 -0.1673 -1.5860
   66SAPC   C36 5505   4.303   3.267   3.136  0.4868  0.9085  0.2331
   66SAPC   H6X 5506   4.203   3.220   3.120  1.3700 -1.1053  0.3215
   66SAPC   H6Y 5507   4.283   3.376   3.145 -0.5739  1.0543 -2.7780
   66SAPC   C37 5508   4.372   3.211   3.263 -0.6393 -0.0576 -0.2562
   66SAPC   H7X 5509   4.474   3.254   3.251 -0.6151  0.8007  2.4450
   66SAPC   H7Y 5510   4.390   3.102   3.267 -0.4369 -0.0214 -0.1533
   66SAPC   C38 5511   4.306   3.258   3.389 -0.2290 -0.3314 -0.1767
   66SAPC   H8X 5512   4.208   3.210   3.407  0.3095 -1.6078 -0.5531
   66SAPC   H8Y 5513   4.300   3.369   3.400 -1.1875 -0.6266  3.7988
   66SAPC   C39 5514   4.398   3.222   3.512 -0.4145  0.1696 -0.2886
   66SAPC   H9X 5515   4.499   3.256   3.480  0.3061 -1.3613  0.2515
   66SAPC   H9Y 5516   4.406   3.113   3.530  1.9110  0.3766  0.2621
   66SAPC  C310 5517   4.359   3.287   3.647  0.4800 -0.1097 -0.1725
   66SAPC  H10X 5518   4.260   3.242   3.669  0.3017 -0.4482 -1.5561
   66SAPC  H10Y 5519   4.348   3.398   3.643  0.3369 -0.0945  0.5703
   66SAPC  C311 5520   4.468   3.267   3.759 -0.2508 -0.3897 -0.6822
   66SAPC  H11X 5521   4.538   3.354   3.765 -1.7384  0.7526  1.8043
   66SAPC  H11Y 5522   4.530   3.178   3.735 -2.2224 -2.1073  0.2738
   66SAPC  C312 5523   4.401   3.243   3.897 -0.5434  0.6771 -0.7787
   66SAPC  H12X 5524   4.311   3.309   3.895 -1.0500 -0.0127 -1.0596
   66SAPC  H12Y 5525   4.478   3.277   3.969 -0.2121  1.0895 -1.3231
   66SAPC  C313 5526   4.365   3.097   3.920 -0.3704 -0.4825  0.4604
   66SAPC  H13X 5527   4.285   3.070   3.848  0.2867 -0.5751 -0.2411
   66SAPC  H13Y 5528   4.318   3.077   4.019  2.7645 -0.8922  2.0109
   66SAPC  C314 5529   4.482   2.993   3.922  1.0171 -0.1561  0.2111
   66SAPC  H14X 5530   4.519   2.985   3.817  1.8449  0.0931  0.4777
   66SAPC  H14Y 5531   4.442   2.899   3.966  0.3291  0.9382  1.9988
   66SAPC  C315 5532   4.610   3.046   4.002 -0.4139 -0.0942  0.4623
   66SAPC  H15X 5533   4.580   3.097   4.096  0.2439  0.1529  0.5415
   66SAPC  H15Y 5534   4.671   3.118   3.944  2.4869 -1.2910  1.8130
   66SAPC  C316 5535   4.702   2.922   4.032  0.2898  0.7124 -0.6929
   66SAPC  H16X 5536   4.807   2.955   4.016  0.4490  0.6624  0.2078
   66SAPC  H16Y 5537   4.679   2.836   3.966 -0.1376  1.9211 -2.1852
   66SAPC  C317 5538   4.688   2.863   4.181  0.0029 -0.5441  0.4311
   66SAPC  H17X 5539   4.720   2.931   4.263 -1.7638  0.0572  0.6677
   66SAPC  H17Y 5540   4.752   2.772   4.186  0.6414 -0.0804  0.7881
   66SAPC  C318 5541   4.541   2.829   4.215 -0.5458 -0.2173  0.4076
   66SAPC  H18X 5542   4.503   2.745   4.152 -0.6076 -1.1687  1.6620
   66SAPC  H18Y 5543   4.469   2.913   4.204 -1.0285 -0.5158  1.1814
   66SAPC  H18Z 5544   4.526   2.799   4.321 -0.9636 -2.0474 -0.1183
   67SAPC     N 5545   1.007   2.034   1.995  0.2673  0.2757 -0.2666
   67SAPC   C12 5546   0.951   2.000   2.131 -0.1579  0.4525 -0.3312
   67SAPC  H12A 5547   0.899   1.906   2.122  1.0340 -0.4484  1.6025
   67SAPC  H12B 5548   0.894   2.083   2.172  2.8880  0.7829  3.9202
   67SAPC   C13 5549   0.894   2.061   1.899  0.0993  0.0274  0.6284
   67SAPC  H13A 5550   0.938   2.103   1.810 -0.7090 -1.4856 -0.5334
   67SAPC  H13B 5551   0.843   1.969   1.873  2.0776 -0.3706 -2.3333
   67SAPC  H13C 5552   0.824   2.136   1.933 -0.1153 -0.6563  1.7420
   67SAPC   C14 5553   1.098   2.156   2.014 -0.1820  0.3372  0.5049
   67SAPC  H14A 5554   1.039   2.241   2.047  0.0558  0.0238  1.8203
   67SAPC  H14B 5555   1.162   2.126   2.096 -0.7073 -0.9223  0.4687
   67SAPC  H14C 5556   1.155   2.184   1.927 -1.6674 -0.1276 -0.6403
   67SAPC   C15 5557   1.094   1.923   1.944 -0.2506 -0.8522  0.2362
   67SAPC  H15A 5558   1.167   1.897   2.019 -0.9430 -2.3417  0.4429
   67SAPC  H15B 5559   1.050   1.825   1.927  1.3850 -1.3030 -1.9480
   67SAPC  H15C 5560   1.149   1.952   1.856 -0.6492 -0.2594  0.1788
   67SAPC   C11 5561   1.053   1.985   2.241  1.0029 -0.0050 -0.7673
   67SAPC  H11A 5562   1.127   1.906   2.216  1.0562 -0.2406  0.1101
   67SAPC  H11B 5563   1.001   1.933   2.324  1.2931 -0.3393 -0.7929
   67SAPC     P 5564   1.015   2.218   2.365  0.1321  0.1642  0.0835
   67SAPC   O13 5565   1.085   2.347   2.379  0.3322 -0.3127 -0.1591
   67SAPC   O14 5566   0.879   2.213   2.309  0.4667  0.1726  0.1074
   67SAPC   O12 5567   1.105   2.108   2.297 -0.0709 -0.0461 -0.1740
   67SAPC   O11 5568   1.002   2.156   2.508  0.4570 -0.3919  0.0615
   67SAPC    C1 5569   1.125   2.126   2.582  0.7710  0.0336 -0.2555
   67SAPC    HA 5570   1.175   2.038   2.535 -1.5324 -0.3165 -2.3294
   67SAPC    HB 5571   1.196   2.210   2.588  0.5838  0.0900  1.5226
   67SAPC    C2 5572   1.089   2.097   2.736  0.1502 -0.3711  0.7279
   67SAPC    HS 5573   1.009   2.021   2.747 -0.9905  0.4567 -1.3299
   67SAPC   O21 5574   1.041   2.219   2.781 -0.7615  0.3202 -0.4274
   67SAPC   C21 5575   0.912   2.233   2.807 -0.4148 -0.4642 -0.0639
   67SAPC   O22 5576   0.828   2.148   2.794  0.4389 -0.3491 -0.5125
   67SAPC   C22 5577   0.886   2.364   2.877 -0.0453  0.1268 -0.4424
   67SAPC   H2R 5578   0.969   2.435   2.860  2.3997 -2.0803  1.3721
   67SAPC   H2S 5579   0.784   2.394   2.846 -1.0753  0.7423  3.1684
   67SAPC    C3 5580   1.215   2.045   2.811 -0.1500 -0.1720 -0.7796
   67SAPC    HX 5581   1.291   2.126   2.809  0.8942 -1.1220 -0.6300
   67SAPC    HY 5582   1.246   1.952   2.761 -2.5002 -2.4693  1.6854
   67SAPC   O31 5583   1.179   2.011   2.946 -0.1772 -0.1129 -0.3846
   67SAPC   C31 5584   1.273   1.985   3.036  0.0611 -0.2608 -0.0770
   67SAPC   O32 5585   1.391   1.997   3.020  0.3001  0.5008 -0.8828
   67SAPC   C32 5586   1.196   1.960   3.168  0.7904 -0.2875  0.8567
   67SAPC   H2X 5587   1.116   1.887   3.143  1.7572 -0.6807 -1.3270
   67SAPC   H2Y 5588   1.136   2.050   3.193  0.1666  0.0480 -1.6379
   67SAPC   C23 5589   0.867   2.347   3.031 -0.1808 -0.1018 -0.2699
   67SAPC   H3R 5590   0.801   2.260   3.054  0.5068  0.0452  2.6853
   67SAPC   H3S 5591   0.806   2.432   3.070  0.6708  0.2532  0.3146
   67SAPC   C24 5592   1.008   2.320   3.095 -0.4227  1.2691  0.0750
   67SAPC   H4R 5593   1.048   2.235   3.037 -0.2463  0.8958  0.7283
   67SAPC   H4S 5594   0.969   2.273   3.188  0.9739  1.4734  0.7887
   67SAPC   C25 5595   1.104   2.434   3.123  0.6584  0.2176 -0.4055
   67SAPC   H5R 5596   1.188   2.441   3.053 -0.3631 -0.2343 -1.7201
   67SAPC   C26 5597   1.094   2.533   3.217 -0.0868 -0.0102  0.1823
   67SAPC   H6R 5598   1.166   2.616   3.225 -1.0452  0.8110  0.5566
   67SAPC   C27 5599   0.989   2.560   3.322  0.3731  0.3452  0.0099
   67SAPC   H7R 5600   1.036   2.605   3.412 -3.2927 -1.4088  3.0788
   67SAPC   H7S 5601   0.938   2.466   3.352  0.3761 -0.2555 -1.7635
   67SAPC   C28 5602   0.864   2.640   3.274 -0.6364  0.1054  0.5348
   67SAPC   H8R 5603   0.866   2.658   3.165 -0.1027 -0.0138  0.5216
   67SAPC   C29 5604   0.760   2.671   3.350 -0.2884 -0.2895 -0.1553
   67SAPC   H9R 5605   0.681   2.732   3.305  0.5318  0.0736 -1.1357
   67SAPC  C210 5606   0.752   2.644   3.501 -1.1406  0.1498  0.4780
   67SAPC  H10R 5607   0.755   2.741   3.556 -0.1237  0.8128 -0.7019
   67SAPC  H10S 5608   0.844   2.602   3.548  0.7764  2.2316 -1.1825
   67SAPC  C211 5609   0.623   2.570   3.532  0.2000 -0.4981  0.4344
   67SAPC  H11R 5610   0.556   2.560   3.446  0.6971  1.6399 -0.2507
   67SAPC  C212 5611   0.601   2.507   3.651  0.3080 -0.5437  0.1280
   67SAPC  H12R 5612   0.511   2.449   3.674  0.4352  0.1397  2.5846
   67SAPC  C213 5613   0.685   2.523   3.778  0.7569  0.1474  0.2805
   67SAPC  H13R 5614   0.789   2.534   3.741 -0.0375  1.1016 -1.8398
   67SAPC  H13S 5615   0.670   2.425   3.827 -0.2952  0.0662 -0.1777
   67SAPC  C214 5616   0.646   2.653   3.858 -0.7865 -0.2880  0.4202
   67SAPC  H14R 5617   0.644   2.746   3.798 -1.8799 -0.9702 -0.6683
   67SAPC  C215 5618   0.624   2.671   3.983  0.9804  0.2495  0.4504
   67SAPC  H15R 5619   0.624   2.774   4.020 -0.1628  0.4339 -0.0141
   67SAPC  C216 5620   0.622   2.566   4.087  0.5474  0.0205  1.0172
   67SAPC  H16R 5621   0.727   2.535   4.103  1.9273  1.7843 -3.2619
   67SAPC  H16S 5622   0.568   2.478   4.044  0.5417  0.6257 -0.2670
   67SAPC  C217 5623   0.551   2.597   4.225 -0.2820  0.8969  0.2816
   67SAPC  H17R 5624   0.531   2.500   4.275 -2.6400 -0.3726 -2.7748
   67SAPC  H17S 5625   0.451   2.638   4.199 -1.5158 -0.4625  2.5903
   67SAPC  C218 5626   0.631   2.704   4.304 -0.4489  0.1506  0.0598
   67SAPC  H18R 5627   0.639   2.800   4.248 -2.8546 -0.0013 -0.6481
   67SAPC  H18S 5628   0.733   2.660   4.302 -0.6660 -0.4256  1.0958
   67SAPC  C219 5629   0.612   2.724   4.454  0.5592 -0.0578 -0.0092
   67SAPC  H19R 5630   0.612   2.624   4.505 -1.0358  0.6237  1.4416
   67SAPC  H19S 5631   0.509   2.756   4.479  0.8650  0.5062  0.5424
   67SAPC  C220 5632   0.712   2.813   4.529  0.6676  0.1539  0.8765
   67SAPC  H20R 5633   0.703   2.916   4.489  0.2463 -0.1286  0.2415
   67SAPC  H20S 5634   0.819   2.784   4.522  0.5977 -0.4023  1.8613
   67SAPC  H20T 5635   0.697   2.821   4.639  2.7427  1.3645  1.1372
   67SAPC   C33 5636   1.285   1.909   3.282  0.2373 -0.5952  0.1935
   67SAPC   H3X 5637   1.363   1.984   3.306  0.1294 -0.2069 -0.6022
   67SAPC   H3Y 5638   1.346   1.823   3.247  0.1688 -0.7114  0.3578
   67SAPC   C34 5639   1.197   1.872   3.400 -0.7997  0.9424  0.0995
   67SAPC   H4X 5640   1.136   1.782   3.376 -0.8688  1.0702 -0.2082
   67SAPC   H4Y 5641   1.126   1.956   3.411  0.9780  2.4758  0.4099
   67SAPC   C35 5642   1.280   1.862   3.528  0.2398 -0.3178  0.7399
   67SAPC   H5X 5643   1.320   1.964   3.543  0.4498  0.2370 -2.7727
   67SAPC   H5Y 5644   1.366   1.792   3.532 -0.3121 -1.1418 -0.9757
   67SAPC   C36 5645   1.189   1.834   3.648  0.1581 -0.0902 -1.0046
   67SAPC   H6X 5646   1.138   1.735   3.647  2.7780 -1.5740  0.6431
   67SAPC   H6Y 5647   1.108   1.909   3.657 -0.1764 -0.6016  0.7747
   67SAPC   C37 5648   1.275   1.851   3.777 -0.1645  0.4095 -0.1816
   67SAPC   H7X 5649   1.281   1.959   3.803 -1.5778  0.3857  0.3220
   67SAPC   H7Y 5650   1.380   1.815   3.771 -0.2789 -0.3104  1.7021
   67SAPC   C38 5651   1.199   1.800   3.895 -0.7864  0.1538 -0.1369
   67SAPC   H8X 5652   1.277   1.804   3.974  0.9999 -3.1715 -1.5288
   67SAPC   H8Y 5653   1.165   1.694   3.890  1.1990 -0.5838  0.8716
   67SAPC   C39 5654   1.081   1.888   3.938  0.1579  0.1689  0.5544
   67SAPC   H9X 5655   1.010   1.879   3.854 -0.3706  2.2086  0.7418
   67SAPC   H9Y 5656   1.109   1.995   3.940 -0.4614  0.3960 -1.3784
   67SAPC  C310 5657   1.003   1.851   4.069 -0.8118 -0.5741  1.0669
   67SAPC  H10X 5658   0.959   1.749   4.067 -0.6457 -0.6477 -1.2193
   67SAPC  H10Y 5659   0.921   1.925   4.083 -1.1891 -0.5912 -0.8770
   67SAPC  C311 5660   1.088   1.865   4.196 -0.2139 -0.6248 -0.3011
   67SAPC  H11X 5661   1.116   1.973   4.193  0.3867 -0.7570  0.2933
   67SAPC  H11Y 5662   1.176   1.797   4.192 -1.2666 -2.2204  1.6599
   67SAPC  C312 5663   1.012   1.839   4.328 -0.7123  0.3275  0.7340
   67SAPC  H12X 5664   0.949   1.748   4.335  0.8068 -0.8143  0.0748
   67SAPC  H12Y 5665   0.942   1.925   4.336 -1.1973  0.0343 -0.1591
   67SAPC  C313 5666   1.104   1.848   4.454 -0.0909  0.1834 -0.4474
   67SAPC  H13X 5667   1.184   1.925   4.443  1.4044 -1.5287 -2.2935
   67SAPC  H13Y 5668   1.156   1.751   4.470 -1.9724 -0.8719 -0.5613
   67SAPC  C314 5669   1.021   1.877   4.588  0.1698 -0.1825  0.4200
   67SAPC  H14X 5670   0.985   1.983   4.587  0.4997  0.0586  3.3570
   67SAPC  H14Y 5671   1.078   1.867   4.683  0.1099 -0.0906  0.4663
   67SAPC  C315 5672   0.890   1.803   4.605 -0.7468 -0.3449 -0.1612
   67SAPC  H15X 5673   0.910   1.694   4.594  1.2855 -0.1562  1.2210
   67SAPC  H15Y 5674   0.821   1.842   4.527  1.2599  3.1853 -0.3339
   67SAPC  C316 5675   0.831   1.819   4.750 -0.8840 -0.3545  0.1552
   67SAPC  H16X 5676   0.804   1.925   4.769  1.5567  0.5739 -1.1579
   67SAPC  H16Y 5677   0.925   1.808   4.809 -0.2993  0.6610 -0.5668
   67SAPC  C317 5678   0.729   1.707   4.784  0.3082 -0.2721 -0.6760
   67SAPC  H17X 5679   0.715   1.700   4.894 -0.8047  1.7588 -0.6330
   67SAPC  H17Y 5680   0.775   1.610   4.755 -0.7968 -0.8380 -0.5886
   67SAPC  C318 5681   0.601   1.718   4.699  0.3786 -0.0989 -1.1242
   67SAPC  H18X 5682   0.528   1.797   4.726 -0.0529  0.7645 -4.3879
   67SAPC  H18Y 5683   0.549   1.620   4.704  1.0163 -0.4259 -0.8418
   67SAPC  H18Z 5684   0.619   1.749   4.593 -2.2591  2.4690 -0.9432
   68SAPC     N 5685   3.670   2.880   1.931 -0.8914 -0.1604  0.2001
   68SAPC   C12 5686   3.710   3.021   1.968  0.3690  0.2544 -0.4506
   68SAPC  H12A 5687   3.647   3.090   1.914 -0.3099  0.3021  0.3640
   68SAPC  H12B 5688   3.812   3.040   1.938  1.0121 -0.6063  1.0454
   68SAPC   C13 5689   3.522   2.861   1.959 -0.2760  1.0198  0.3867
   68SAPC  H13A 5690   3.464   2.924   1.894  1.6721  2.0363 -0.4519
   68SAPC  H13B 5691   3.489   2.758   1.964  1.7162  0.3705  1.5251
   68SAPC  H13C 5692   3.497   2.909   2.053  0.7931  0.0517  1.1951
   68SAPC   C14 5693   3.718   2.851   1.798  0.4794  0.7098  0.0624
   68SAPC  H14A 5694   3.666   2.769   1.752 -0.9857  1.7053 -0.1359
   68SAPC  H14B 5695   3.693   2.936   1.736  1.7230  0.3458 -0.9636
   68SAPC  H14C 5696   3.821   2.821   1.786  0.3168  0.8694 -2.1929
   68SAPC   C15 5697   3.739   2.784   2.026  0.5089  0.3930  0.1040
   68SAPC  H15A 5698   3.708   2.811   2.125  2.5227  0.4835  0.7642
   68SAPC  H15B 5699   3.718   2.679   2.012 -0.3886  0.5513  0.2139
   68SAPC  H15C 5700   3.845   2.798   2.008  0.9091 -2.4414 -0.2745
   68SAPC   C11 5701   3.699   3.066   2.120  0.1001 -0.3805  0.0155
   68SAPC  H11A 5702   3.768   3.152   2.138  0.4434 -0.4725 -0.8412
   68SAPC  H11B 5703   3.739   2.983   2.182 -0.3513  0.1645  1.0634
   68SAPC     P 5704   3.497   3.219   2.157  0.3885 -0.5282  0.1769
   68SAPC   O13 5705   3.499   3.266   2.016 -0.7522  0.0038 -0.6581
   68SAPC   O14 5706   3.365   3.215   2.231  0.5005  0.0014 -0.2538
   68SAPC   O12 5707   3.566   3.081   2.171 -0.7873 -0.1002 -0.1614
   68SAPC   O11 5708   3.592   3.314   2.235  0.4658  0.0619  0.0635
   68SAPC    C1 5709   3.633   3.274   2.368 -0.0196  0.4083  0.1973
   68SAPC    HA 5710   3.553   3.218   2.420 -0.6855  0.7446 -0.4331
   68SAPC    HB 5711   3.731   3.222   2.360 -0.9006 -1.3327  0.2086
   68SAPC    C2 5712   3.635   3.399   2.459  0.0085 -0.5888  0.0087
   68SAPC    HS 5713   3.732   3.452   2.446  0.5818 -1.3246  1.1467
   68SAPC   O21 5714   3.616   3.355   2.592 -0.0914  0.2793  0.0575
   68SAPC   C21 5715   3.735   3.303   2.643 -0.6502  0.0947  0.0357
   68SAPC   O22 5716   3.842   3.310   2.582  0.4952  0.5633  0.3998
   68SAPC   C22 5717   3.717   3.236   2.782 -0.3721 -0.1848  0.1729
   68SAPC   H2R 5718   3.629   3.278   2.835 -0.4068 -1.5215  1.2518
   68SAPC   H2S 5719   3.708   3.125   2.777  2.5631 -0.7449  3.4828
   68SAPC    C3 5720   3.520   3.505   2.424  0.0416  0.1469 -0.2119
   68SAPC    HX 5721   3.425   3.450   2.443  0.1564 -0.9034 -2.3502
   68SAPC    HY 5722   3.531   3.527   2.316 -1.0413  1.0106 -0.1592
   68SAPC   O31 5723   3.530   3.622   2.505  0.0971  0.3602  0.3511
   68SAPC   C31 5724   3.458   3.723   2.455  0.3783 -0.0938  0.2016
   68SAPC   O32 5725   3.397   3.719   2.348  0.2256  0.5039  0.4585
   68SAPC   C32 5726   3.464   3.845   2.541  0.5309  0.2707 -0.1133
   68SAPC   H2X 5727   3.438   3.936   2.483  0.4706  2.7234  3.4045
   68SAPC   H2Y 5728   3.561   3.856   2.594  0.4964 -0.7082  0.1743
   68SAPC   C23 5729   3.838   3.259   2.879  0.1658  0.1056  0.7191
   68SAPC   H3R 5730   3.848   3.363   2.916  0.7023  0.4717 -0.4423
   68SAPC   H3S 5731   3.935   3.239   2.829  0.7854  2.9767  0.6067
   68SAPC   C24 5732   3.826   3.183   3.012  0.3966 -0.3917  0.6082
   68SAPC   H4R 5733   3.922   3.215   3.057  0.7921  2.9225 -2.1300
   68SAPC   H4S 5734   3.815   3.074   2.990  3.4536 -0.6688 -0.0530
   68SAPC   C25 5735   3.719   3.239   3.102  0.4234 -0.1184  0.4056
   68SAPC   H5R 5736   3.668   3.321   3.050  0.5427 -0.2037  0.1472
   68SAPC   C26 5737   3.702   3.217   3.232  0.0551  0.6257  0.5663
   68SAPC   H6R 5738   3.620   3.269   3.283 -0.6178  1.2436 -1.0826
   68SAPC   C27 5739   3.778   3.123   3.319 -0.3376  0.8918  0.3213
   68SAPC   H7R 5740   3.833   3.044   3.262  1.5584  1.1411  1.6856
   68SAPC   H7S 5741   3.703   3.088   3.393 -2.9519  1.0427 -2.1201
   68SAPC   C28 5742   3.881   3.200   3.396  0.1363  0.3774  0.3821
   68SAPC   H8R 5743   3.981   3.184   3.353  0.3434 -2.6657  1.7284
   68SAPC   C29 5744   3.862   3.279   3.504  0.2423 -0.0464 -0.2721
   68SAPC   H9R 5745   3.954   3.324   3.544 -1.4748  0.6777  3.3411
   68SAPC  C210 5746   3.742   3.319   3.583 -0.0698  0.0067  0.2227
   68SAPC  H10R 5747   3.770   3.321   3.690  0.4640 -0.0506  0.0846
   68SAPC  H10S 5748   3.661   3.242   3.582 -0.4608  0.4094  0.4762
   68SAPC  C211 5749   3.679   3.443   3.521  0.7519  0.4240  0.4098
   68SAPC  H11R 5750   3.682   3.435   3.412  1.3886 -2.4467  0.5599
   68SAPC  C212 5751   3.647   3.554   3.585  0.2758  0.2440  0.2868
   68SAPC  H12R 5752   3.611   3.641   3.528  1.6220 -0.8399 -2.3764
   68SAPC  C213 5753   3.640   3.567   3.733 -0.0621 -0.6566 -0.7155
   68SAPC  H13R 5754   3.627   3.475   3.794  0.8560  0.2554  0.9208
   68SAPC  H13S 5755   3.539   3.605   3.759 -0.1071 -0.4132 -1.2321
   68SAPC  C214 5756   3.745   3.661   3.792 -0.1348  0.6716  0.2616
   68SAPC  H14R 5757   3.816   3.691   3.713 -0.5565 -2.0072 -1.2625
   68SAPC  C215 5758   3.746   3.719   3.910  0.0235 -0.2338 -0.7125
   68SAPC  H15R 5759   3.831   3.784   3.937  1.0453 -2.9849  3.5393
   68SAPC  C216 5760   3.652   3.679   4.019 -0.3624  0.6011  0.0623
   68SAPC  H16R 5761   3.576   3.606   3.983 -1.3355  1.3172  0.6173
   68SAPC  H16S 5762   3.598   3.770   4.054  2.0545  2.8875 -1.7053
   68SAPC  C217 5763   3.719   3.622   4.144  0.8135 -0.4835 -0.0344
   68SAPC  H17R 5764   3.795   3.698   4.171  0.9429 -1.5074  2.7194
   68SAPC  H17S 5765   3.782   3.539   4.107 -0.6925 -1.9442  0.5450
   68SAPC  C218 5766   3.628   3.593   4.261  1.1424  0.7073  0.7207
   68SAPC  H18R 5767   3.547   3.527   4.223  2.1697  0.4460 -1.0901
   68SAPC  H18S 5768   3.574   3.688   4.283 -0.2566 -0.4290  2.3816
   68SAPC  C219 5769   3.687   3.545   4.390 -0.3578  0.0521  0.0437
   68SAPC  H19R 5770   3.745   3.453   4.371 -0.1681  0.0447  0.6206
   68SAPC  H19S 5771   3.610   3.511   4.463 -1.5372 -0.9038 -1.5776
   68SAPC  C220 5772   3.782   3.653   4.452 -0.0872 -0.6588  0.3962
   68SAPC  H20R 5773   3.722   3.741   4.482 -0.9379 -1.1225  0.0719
   68SAPC  H20S 5774   3.863   3.684   4.383  0.5746 -2.1361  0.4656
   68SAPC  H20T 5775   3.833   3.616   4.544  1.4926 -0.3429 -0.3150
   68SAPC   C33 5776   3.353   3.841   2.658 -1.2407  0.4665  0.1698
   68SAPC   H3X 5777   3.252   3.815   2.619 -0.5688  0.7865 -1.9465
   68SAPC   H3Y 5778   3.361   3.937   2.712  2.0459 -0.6766  2.0077
   68SAPC   C34 5779   3.391   3.737   2.771 -0.3869  0.8557  0.0798
   68SAPC   H4X 5780   3.400   3.637   2.725 -0.9989  0.5099  0.6998
   68SAPC   H4Y 5781   3.308   3.741   2.844  0.6580  2.2938  1.2762
   68SAPC   C35 5782   3.526   3.769   2.845 -0.6593  0.0339 -0.3192
   68SAPC   H5X 5783   3.512   3.860   2.907 -0.3522  1.7126 -2.6043
   68SAPC   H5Y 5784   3.612   3.789   2.777  0.1792  0.2560  0.7846
   68SAPC   C36 5785   3.565   3.647   2.932  0.2617 -0.8118  1.4376
   68SAPC   H6X 5786   3.673   3.651   2.962  0.1821 -0.2203  1.6540
   68SAPC   H6Y 5787   3.538   3.548   2.889 -2.0231 -1.3392  3.7987
   68SAPC   C37 5788   3.494   3.627   3.069  0.8728  0.5982 -0.2489
   68SAPC   H7X 5789   3.549   3.550   3.128  1.6840  1.5313  0.2523
   68SAPC   H7Y 5790   3.389   3.592   3.057  0.7669  1.4124 -1.8082
   68SAPC   C38 5791   3.498   3.752   3.154 -0.5529 -0.1023 -0.3467
   68SAPC   H8X 5792   3.436   3.835   3.113 -1.4090  0.0390  1.1534
   68SAPC   H8Y 5793   3.604   3.785   3.159 -1.3096  2.3644  2.8120
   68SAPC   C39 5794   3.434   3.720   3.294 -0.3264 -0.2276 -0.1985
   68SAPC   H9X 5795   3.463   3.628   3.349  1.5232  1.9077  2.7535
   68SAPC   H9Y 5796   3.325   3.712   3.280 -0.7811  2.0544  1.4629
   68SAPC  C310 5797   3.469   3.835   3.400  0.4004 -0.1528  0.6101
   68SAPC  H10X 5798   3.428   3.927   3.355 -1.4640 -0.6507  1.2041
   68SAPC  H10Y 5799   3.580   3.837   3.408  0.5480 -0.0173 -1.1425
   68SAPC  C311 5800   3.404   3.815   3.539 -0.1454  0.0360  0.3639
   68SAPC  H11X 5801   3.413   3.713   3.583  3.2810  0.8531  1.9209
   68SAPC  H11Y 5802   3.296   3.837   3.529  0.0009  0.0378 -1.4424
   68SAPC  C312 5803   3.452   3.927   3.630  0.3596 -0.6991  0.4725
   68SAPC  H12X 5804   3.402   4.019   3.594 -0.6006 -0.1797  2.9228
   68SAPC  H12Y 5805   3.563   3.930   3.636  0.4093  1.1171 -0.7421
   68SAPC  C313 5806   3.400   3.906   3.769 -0.5488 -0.3683  0.8295
   68SAPC  H13X 5807   3.440   3.812   3.812  1.3743 -0.7080 -1.4726
   68SAPC  H13Y 5808   3.289   3.901   3.766 -0.5892  0.6172 -1.6673
   68SAPC  C314 5809   3.445   4.020   3.866 -0.6360 -0.3749  0.2663
   68SAPC  H14X 5810   3.430   4.122   3.825  1.1751  1.1666  3.0642
   68SAPC  H14Y 5811   3.553   4.008   3.889 -0.4781 -2.1657 -1.1587
   68SAPC  C315 5812   3.356   4.015   3.993 -0.5253 -0.1110  0.6706
   68SAPC  H15X 5813   3.345   3.914   4.036  0.5782 -0.3703  0.3703
   68SAPC  H15Y 5814   3.259   4.063   3.966  0.5599  3.2674  2.1093
   68SAPC  C316 5815   3.394   4.115   4.104 -0.4858  0.0754  0.2866
   68SAPC  H16X 5816   3.314   4.108   4.181  0.3866 -2.8814  1.0348
   68SAPC  H16Y 5817   3.402   4.213   4.053  2.8910 -0.0265  0.4080
   68SAPC  C317 5818   3.521   4.077   4.179 -0.0939 -0.2525  0.4216
   68SAPC  H17X 5819   3.613   4.095   4.119 -0.9459  1.0457 -0.5449
   68SAPC  H17Y 5820   3.518   3.967   4.199  0.7925 -0.3943 -0.1685
   68SAPC  C318 5821   3.542   4.154   4.308  0.5348 -0.1862  0.1020
   68SAPC  H18X 5822   3.643   4.160   4.354 -0.4194  0.3539  2.2389
   68SAPC  H18Y 5823   3.488   4.106   4.392  2.9539  1.5035  2.7932
   68SAPC  H18Z 5824   3.505   4.256   4.285 -1.0848 -0.9212 -0.7132
   69SAPC     N 5825   4.551   0.907   1.982 -0.3686  0.3971 -0.1896
   69SAPC   C12 5826   4.479   0.883   2.113 -0.7059  0.5274 -0.3690
   69SAPC  H12A 5827   4.374   0.896   2.091 -1.2707 -0.2720  1.6066
   69SAPC  H12B 5828   4.513   0.953   2.188 -1.7418 -0.0586  0.6863
   69SAPC   C13 5829   4.504   1.044   1.926  0.0746  0.2425 -0.5242
   69SAPC  H13A 5830   4.399   1.043   1.902 -0.1627 -0.9428  0.4610
   69SAPC  H13B 5831   4.514   1.122   2.000  0.6620  0.2597 -0.6163
   69SAPC  H13C 5832   4.555   1.069   1.834 -0.5308  0.1796 -0.8809
   69SAPC   C14 5833   4.704   0.895   1.998  0.4558 -0.1761 -0.4991
   69SAPC  H14A 5834   4.716   0.941   2.094 -0.0494 -0.3987 -0.3253
   69SAPC  H14B 5835   4.748   0.800   2.023  1.9258  1.1232  2.2595
   69SAPC  H14C 5836   4.763   0.935   1.917  0.2041  1.2036 -0.0191
   69SAPC   C15 5837   4.516   0.808   1.876 -0.1485  0.0157  0.0832
   69SAPC  H15A 5838   4.572   0.819   1.784  0.3846 -1.7400  0.1568
   69SAPC  H15B 5839   4.548   0.713   1.916  2.7873 -0.0954 -2.1594
   69SAPC  H15C 5840   4.412   0.811   1.847  0.0537  1.1064 -0.6075
   69SAPC   C11 5841   4.486   0.743   2.172  0.2040 -0.1153  0.6895
   69SAPC  H11A 5842   4.432   0.741   2.269 -0.4562  0.3509  0.3366
   69SAPC  H11B 5843   4.591   0.723   2.201  0.7856  0.9620 -0.5617
   69SAPC     P 5844   4.289   0.617   2.054  0.0103 -0.3510  0.1433
   69SAPC   O13 5845   4.228   0.745   2.003 -0.3191 -0.1262  0.4141
   69SAPC   O14 5846   4.265   0.491   1.971  0.6299 -0.3435  0.1430
   69SAPC   O12 5847   4.446   0.636   2.087 -0.4961 -0.5171 -0.3641
   69SAPC   O11 5848   4.240   0.597   2.210 -0.5033 -0.4554  0.2428
   69SAPC    C1 5849   4.207   0.470   2.264  0.2783  0.1900 -0.6357
   69SAPC    HA 5850   4.096   0.461   2.262  0.1108  1.6207  0.4123
   69SAPC    HB 5851   4.259   0.389   2.208  2.8527  2.5869 -1.9640
   69SAPC    C2 5852   4.245   0.439   2.413 -0.6148  0.4924 -0.1892
   69SAPC    HS 5853   4.193   0.341   2.423 -2.1499  1.1778 -0.9479
   69SAPC   O21 5854   4.207   0.546   2.503 -0.0313 -0.1254 -0.4702
   69SAPC   C21 5855   4.095   0.531   2.570  0.0099 -0.1336  0.5055
   69SAPC   O22 5856   4.010   0.442   2.551  0.1568  0.2636 -0.1970
   69SAPC   C22 5857   4.068   0.657   2.654  0.5107  0.1546 -0.5082
   69SAPC   H2R 5858   4.140   0.735   2.622  0.5607 -0.5453 -2.2115
   69SAPC   H2S 5859   3.976   0.709   2.620  0.4548  0.3206 -0.1038
   69SAPC    C3 5860   4.398   0.414   2.420  0.5821 -0.3634 -0.4856
   69SAPC    HX 5861   4.441   0.516   2.411  2.0940 -0.6910  2.0620
   69SAPC    HY 5862   4.434   0.345   2.340 -0.4655 -3.5235  1.5560
   69SAPC   O31 5863   4.437   0.370   2.556 -0.1160  0.5657 -0.1314
   69SAPC   C31 5864   4.559   0.400   2.587 -0.5502  0.0874  0.0337
   69SAPC   O32 5865   4.632   0.470   2.512  0.1891 -0.2991  0.1148
   69SAPC   C32 5866   4.599   0.353   2.729 -0.8436 -0.1938 -0.3204
   69SAPC   H2X 5867   4.508   0.352   2.792 -1.8731 -0.0390 -1.7469
   69SAPC   H2Y 5868   4.672   0.427   2.768 -0.5752 -0.3859 -0.4525
   69SAPC   C23 5869   4.072   0.625   2.802 -0.3630 -0.2324 -1.4073
   69SAPC   H3R 5870   3.981   0.575   2.843 -0.2112  1.3017  1.0332
   69SAPC   H3S 5871   4.059   0.729   2.841  2.1750  0.8189 -3.1203
   69SAPC   C24 5872   4.203   0.555   2.863 -0.4464 -0.4569 -0.6986
   69SAPC   H4R 5873   4.209   0.603   2.963  2.2090 -0.1788 -0.9069
   69SAPC   H4S 5874   4.276   0.589   2.786 -1.1221  3.0089  0.0289
   69SAPC   C25 5875   4.201   0.404   2.870 -0.0482  0.1051 -0.3594
   69SAPC   H5R 5876   4.179   0.346   2.780  0.1892  1.4582 -1.3185
   69SAPC   C26 5877   4.224   0.347   2.996  0.1574  0.0310  0.0036
   69SAPC   H6R 5878   4.227   0.237   3.002 -0.7255  0.0680  1.5077
   69SAPC   C27 5879   4.246   0.420   3.130 -0.1984 -0.4071  0.4565
   69SAPC   H7R 5880   4.158   0.396   3.195 -1.8867  0.2268 -1.4798
   69SAPC   H7S 5881   4.238   0.531   3.130  0.3077 -0.3045  2.9137
   69SAPC   C28 5882   4.380   0.374   3.186  0.1521 -0.2782 -0.2430
   69SAPC   H8R 5883   4.458   0.350   3.113 -0.0647 -1.4938 -0.0931
   69SAPC   C29 5884   4.409   0.379   3.320 -0.4973  0.1329  0.2757
   69SAPC   H9R 5885   4.506   0.332   3.340 -0.0384 -1.1883 -4.0938
   69SAPC  C210 5886   4.320   0.399   3.434  0.1994  0.4202  0.5623
   69SAPC  H10R 5887   4.298   0.302   3.484  0.9286 -0.3907 -0.6320
   69SAPC  H10S 5888   4.220   0.433   3.401  1.4099  1.4391 -2.3881
   69SAPC  C211 5889   4.366   0.515   3.522 -0.4084 -0.1703 -0.8131
   69SAPC  H11R 5890   4.342   0.619   3.496  0.9271  0.5745  0.7337
   69SAPC  C212 5891   4.432   0.490   3.640  0.1400 -0.8794 -0.1257
   69SAPC  H12R 5892   4.466   0.569   3.708  0.6342 -1.2028  0.0103
   69SAPC  C213 5893   4.459   0.353   3.696 -0.3370 -0.1911  0.0010
   69SAPC  H13R 5894   4.554   0.347   3.752 -0.2172  0.0250 -0.1791
   69SAPC  H13S 5895   4.496   0.295   3.608  2.2154 -1.3419  1.6993
   69SAPC  C214 5896   4.356   0.287   3.779  0.1803 -0.7877 -0.9638
   69SAPC  H14R 5897   4.294   0.218   3.719 -0.4759 -0.2806 -0.8765
   69SAPC  C215 5898   4.331   0.302   3.911  0.5156 -0.2940 -0.6929
   69SAPC  H15R 5899   4.253   0.241   3.959 -0.0780  1.1926  0.2876
   69SAPC  C216 5900   4.387   0.416   3.992  0.4276 -0.0876 -0.0197
   69SAPC  H16R 5901   4.422   0.497   3.925 -0.1319  0.1401 -0.0357
   69SAPC  H16S 5902   4.475   0.381   4.052 -0.6955 -1.0152  1.1490
   69SAPC  C217 5903   4.288   0.492   4.094  0.5934  0.6082  0.7027
   69SAPC  H17R 5904   4.213   0.420   4.132  1.2231  0.2856  1.3530
   69SAPC  H17S 5905   4.235   0.561   4.025  0.9563 -0.8568 -1.1209
   69SAPC  C218 5906   4.345   0.571   4.203  0.3015  0.5778 -0.5943
   69SAPC  H18R 5907   4.269   0.641   4.246 -0.4484 -1.2299  1.2185
   69SAPC  H18S 5908   4.436   0.626   4.172  0.2887  1.2344  0.4580
   69SAPC  C219 5909   4.374   0.480   4.326  0.5566  0.2818 -0.4635
   69SAPC  H19R 5910   4.455   0.409   4.298 -1.1163 -2.3548  0.9627
   69SAPC  H19S 5911   4.280   0.428   4.355  2.2503 -2.8267 -0.1527
   69SAPC  C220 5912   4.438   0.557   4.443  0.3871 -0.0868 -0.1332
   69SAPC  H20R 5913   4.374   0.639   4.483  0.9038  0.6632 -0.8087
   69SAPC  H20S 5914   4.535   0.602   4.412  1.5729 -1.3851  1.5577
   69SAPC  H20T 5915   4.458   0.491   4.529 -1.0164  0.9864  1.0837
   69SAPC   C33 5916   4.663   0.206   2.733 -0.2058  0.4125 -0.3915
   69SAPC   H3X 5917   4.756   0.200   2.674  0.0976  1.6574 -0.0713
   69SAPC   H3Y 5918   4.582   0.141   2.692 -2.6212  2.7041  0.4165
   69SAPC   C34 5919   4.701   0.164   2.878 -0.5556 -0.1660 -0.1760
   69SAPC   H4X 5920   4.718   0.054   2.875  0.7128 -0.0041  0.3785
   69SAPC   H4Y 5921   4.614   0.188   2.943 -0.7992  0.5910 -0.7630
   69SAPC   C35 5922   4.835   0.231   2.916  0.2224 -0.0490 -0.2296
   69SAPC   H5X 5923   4.821   0.341   2.905  0.8184 -0.0367 -0.9099
   69SAPC   H5Y 5924   4.901   0.186   2.839 -2.7081 -2.8858 -1.3141
   69SAPC   C36 5925   4.884   0.218   3.057 -0.7219 -0.0694  0.1527
   69SAPC   H6X 5926   4.890   0.109   3.080 -0.3397  0.0881  0.8343
   69SAPC   H6Y 5927   4.811   0.261   3.129 -2.7313 -0.2197 -1.6962
   69SAPC   C37 5928   5.028   0.271   3.075 -0.2817  1.0388 -0.0295
   69SAPC   H7X 5929   5.043   0.374   3.036  1.4498  0.3985 -1.1515
   69SAPC   H7Y 5930   5.091   0.210   3.007  0.3677  1.6048  0.0564
   69SAPC   C38 5931   5.076   0.260   3.220 -0.3612  0.5983  0.2550
   69SAPC   H8X 5932   5.045   0.164   3.265  1.9817 -0.7788 -0.9019
   69SAPC   H8Y 5933   5.023   0.334   3.284  3.9353  0.5103  4.5294
   69SAPC   C39 5934   5.228   0.273   3.234 -0.3084 -0.2973 -0.0766
   69SAPC   H9X 5935   5.243   0.371   3.184  0.8210 -0.9015 -0.9618
   69SAPC   H9Y 5936   5.285   0.194   3.181  2.0223  1.8857 -1.0452
   69SAPC  C310 5937   5.279   0.275   3.373 -0.9715 -0.0696  0.4368
   69SAPC  H10X 5938   5.276   0.182   3.434 -0.8736  0.4548  1.2532
   69SAPC  H10Y 5939   5.219   0.351   3.428 -0.3237  0.0144  1.0402
   69SAPC  C311 5940   5.428   0.314   3.378 -0.0048 -0.5854  1.0648
   69SAPC  H11X 5941   5.428   0.418   3.339 -1.0870 -0.8283  0.3418
   69SAPC  H11Y 5942   5.487   0.243   3.316 -1.0539 -0.0448 -0.6497
   69SAPC  C312 5943   5.488   0.311   3.516  0.3632  0.0563 -0.0274
   69SAPC  H12X 5944   5.493   0.203   3.543 -0.3655  0.4006  1.5980
   69SAPC  H12Y 5945   5.409   0.351   3.582  1.8176  1.6653  0.7993
   69SAPC  C313 5946   5.624   0.371   3.528 -0.0375  0.1615  0.8791
   69SAPC  H13X 5947   5.609   0.481   3.526  1.8018  0.4388 -1.1725
   69SAPC  H13Y 5948   5.697   0.337   3.452  0.4465  2.5974  0.1905
   69SAPC  C314 5949   5.683   0.326   3.662 -0.4302 -0.0723  0.0850
   69SAPC  H14X 5950   5.790   0.351   3.674  0.5838 -2.8509 -1.9904
   69SAPC  H14Y 5951   5.669   0.216   3.674  0.9254 -0.1130  1.6260
   69SAPC  C315 5952   5.611   0.375   3.790 -0.2516 -0.3591 -0.9593
   69SAPC  H15X 5953   5.511   0.329   3.778 -0.5648  0.5380 -1.9209
   69SAPC  H15Y 5954   5.619   0.485   3.800  1.8974 -0.5621  0.3328
   69SAPC  C316 5955   5.669   0.324   3.920 -0.2818  0.1381 -0.1069
   69SAPC  H16X 5956   5.766   0.378   3.932  0.4537 -0.4843 -2.6563
   69SAPC  H16Y 5957   5.696   0.217   3.909 -0.8448  0.0183 -0.3572
   69SAPC  C317 5958   5.571   0.336   4.040 -0.3965  0.6504  0.2978
   69SAPC  H17X 5959   5.472   0.287   4.028  0.3597 -0.9982  0.4902
   69SAPC  H17Y 5960   5.550   0.438   4.076  0.6478  1.1044 -0.3293
   69SAPC  C318 5961   5.631   0.255   4.164  0.2741 -0.2608  0.6827
   69SAPC  H18X 5962   5.636   0.145   4.145  1.6514  0.1889 -2.1651
   69SAPC  H18Y 5963   5.566   0.281   4.250 -3.4002 -0.8081 -1.6888
   69SAPC  H18Z 5964   5.733   0.290   4.190 -0.0141  0.6227  0.6384
   70SAPC     N 5965   5.104   4.474   2.447 -0.3305  0.9539 -0.2413
   70SAPC   C12 5966   5.046   4.446   2.309  0.2069 -0.5266 -0.4944
   70SAPC  H12A 5967   5.103   4.372   2.256  0.0038 -0.8814 -0.2260
   70SAPC  H12B 5968   5.064   4.537   2.254  0.4483 -0.6223 -0.5741
   70SAPC   C13 5969   5.098   4.352   2.538  0.3120 -0.3336  0.2099
   70SAPC  H13A 5970   5.000   4.309   2.546  1.7147 -3.9900 -0.4209
   70SAPC  H13B 5971   5.147   4.263   2.502  1.7671  0.0927  1.0350
   70SAPC  H13C 5972   5.145   4.375   2.633  1.3354 -1.3599 -0.0208
   70SAPC   C14 5973   5.247   4.496   2.415  0.1109 -0.2103 -0.0824
   70SAPC  H14A 5974   5.256   4.555   2.325  1.4356 -0.5535 -0.1949
   70SAPC  H14B 5975   5.308   4.516   2.501 -0.2005 -3.6589  1.1049
   70SAPC  H14C 5976   5.286   4.398   2.391 -1.3644 -1.0463  0.7615
   70SAPC   C15 5977   5.039   4.593   2.513  0.1473 -0.0124 -0.8557
   70SAPC  H15A 5978   5.055   4.679   2.449  0.3209 -0.4805 -1.4543
   70SAPC  H15B 5979   4.933   4.575   2.522 -0.0035  0.5912 -1.3562
   70SAPC  H15C 5980   5.077   4.623   2.609 -4.0161  3.4245  0.0273
   70SAPC   C11 5981   4.901   4.407   2.307 -0.2664  0.5911 -0.7734
   70SAPC  H11A 5982   4.904   4.302   2.345 -2.1510  0.7401 -0.0999
   70SAPC  H11B 5983   4.860   4.388   2.205  1.1480  0.4992 -1.3482
   70SAPC     P 5984   4.698   4.418   2.468 -0.1672 -0.0756  0.1688
   70SAPC   O13 5985   4.587   4.512   2.487  0.1626  0.5904  0.1162
   70SAPC   O14 5986   4.667   4.296   2.399  0.2764  0.1686  0.5732
   70SAPC   O12 5987   4.806   4.490   2.381 -0.7077  0.1752  0.1113
   70SAPC   O11 5988   4.764   4.385   2.606  0.4496  0.6761  0.4196
   70SAPC    C1 5989   4.745   4.257   2.655 -1.4888 -0.1023  0.0703
   70SAPC    HA 5990   4.751   4.174   2.581 -0.8573  1.1841 -1.3730
   70SAPC    HB 5991   4.819   4.237   2.736 -1.1547  0.3133 -0.1273
   70SAPC    C2 5992   4.604   4.233   2.718 -0.4110  0.7429  0.5376
   70SAPC    HS 5993   4.541   4.283   2.642  0.8429  0.8381 -0.4570
   70SAPC   O21 5994   4.593   4.301   2.847  0.0968  0.4418 -0.1862
   70SAPC   C21 5995   4.485   4.367   2.868  0.1742 -1.1893  0.2550
   70SAPC   O22 5996   4.400   4.391   2.783 -0.4817  0.2875 -0.1657
   70SAPC   C22 5997   4.485   4.419   3.017  0.2495  0.7398 -0.3927
   70SAPC   H2R 5998   4.464   4.322   3.067  1.1569  0.3816 -0.6822
   70SAPC   H2S 5999   4.581   4.458   3.057  2.3961 -0.8315 -3.5619
   70SAPC    C3 6000   4.566   4.082   2.730 -0.5065 -0.4602 -0.1544
   70SAPC    HX 6001   4.638   4.037   2.801  0.0454  0.3970 -0.1523
   70SAPC    HY 6002   4.573   4.032   2.631 -0.2405  0.0363 -0.3924
   70SAPC   O31 6003   4.440   4.074   2.794 -0.1317 -0.1667  0.1880
   70SAPC   C31 6004   4.343   4.032   2.721 -0.0395  0.4395  0.8460
   70SAPC   O32 6005   4.353   3.968   2.616  0.5166 -0.0555  0.3766
   70SAPC   C32 6006   4.210   4.052   2.789  0.0079 -0.6720  0.4076
   70SAPC   H2X 6007   4.143   3.963   2.780 -1.3137  0.4280 -1.0893
   70SAPC   H2Y 6008   4.167   4.143   2.745  3.0923  1.4696  1.4581
   70SAPC   C23 6009   4.379   4.525   3.057  0.3797 -0.3860  0.7026
   70SAPC   H3R 6010   4.287   4.483   3.013  0.0606 -0.5562  1.5197
   70SAPC   H3S 6011   4.385   4.627   3.013 -2.6759 -0.7239 -0.7377
   70SAPC   C24 6012   4.355   4.522   3.210  0.2209 -0.3471  0.3025
   70SAPC   H4R 6013   4.343   4.414   3.234 -3.6709 -0.3289 -0.8700
   70SAPC   H4S 6014   4.257   4.569   3.232  0.2929  0.5731 -1.2340
   70SAPC   C25 6015   4.469   4.591   3.269 -0.0479 -0.4843  0.6460
   70SAPC   H5R 6016   4.566   4.540   3.268  0.9141  1.2368 -0.9219
   70SAPC   C26 6017   4.468   4.718   3.312  0.0037 -0.0239  0.1585
   70SAPC   H6R 6018   4.558   4.750   3.367 -0.5526  0.5807  0.7365
   70SAPC   C27 6019   4.349   4.808   3.323  0.7148 -0.2861 -0.1587
   70SAPC   H7R 6020   4.272   4.750   3.379  2.8268 -0.4917  2.7736
   70SAPC   H7S 6021   4.314   4.822   3.219 -0.6862 -3.3661 -0.2267
   70SAPC   C28 6022   4.375   4.940   3.391  0.7037  0.2126 -0.2941
   70SAPC   H8R 6023   4.406   5.019   3.321  0.6673 -0.9540 -1.6760
   70SAPC   C29 6024   4.377   4.971   3.521  0.3338 -0.2943 -0.0807
   70SAPC   H9R 6025   4.396   5.075   3.553 -2.1308  0.5308 -1.0282
   70SAPC  C210 6026   4.343   4.868   3.631  0.6245  0.1765 -0.6405
   70SAPC  H10R 6027   4.445   4.830   3.652  1.6085  0.9627 -3.5122
   70SAPC  H10S 6028   4.280   4.784   3.596  0.7491 -0.3330  0.3282
   70SAPC  C211 6029   4.290   4.935   3.755  0.4815  0.2364 -0.5537
   70SAPC  H11R 6030   4.244   5.035   3.748  1.0939  0.7181  1.5897
   70SAPC  C212 6031   4.270   4.874   3.873  0.2406 -0.2979 -0.4670
   70SAPC  H12R 6032   4.214   4.931   3.950 -0.4309  2.8979 -3.0827
   70SAPC  C213 6033   4.297   4.728   3.903  0.1677  0.1661 -0.0501
   70SAPC  H13R 6034   4.402   4.725   3.939 -0.2407 -2.2152  1.0809
   70SAPC  H13S 6035   4.292   4.659   3.817 -1.0591  1.1096 -0.7727
   70SAPC  C214 6036   4.201   4.666   4.003 -0.5651  0.3504 -0.0215
   70SAPC  H14R 6037   4.127   4.596   3.962 -1.4078  0.8029  0.6818
   70SAPC  C215 6038   4.198   4.684   4.138  0.1707  0.1711 -0.4141
   70SAPC  H15R 6039   4.113   4.651   4.200 -1.2263  0.0815 -2.2962
   70SAPC  C216 6040   4.298   4.769   4.217 -0.7153  0.1996 -0.2568
   70SAPC  H16R 6041   4.269   4.876   4.208 -0.4978  0.3345  0.6286
   70SAPC  H16S 6042   4.399   4.760   4.171 -0.1560  0.0056  0.9739
   70SAPC  C217 6043   4.316   4.728   4.366  0.1168 -0.3431 -0.1470
   70SAPC  H17R 6044   4.363   4.628   4.378  3.7595  1.3787  1.5472
   70SAPC  H17S 6045   4.217   4.728   4.417 -0.7042 -0.5654 -1.6848
   70SAPC  C218 6046   4.410   4.828   4.436 -0.1455 -0.1807 -0.0023
   70SAPC  H18R 6047   4.369   4.930   4.431 -2.6974 -1.1311  0.1784
   70SAPC  H18S 6048   4.501   4.828   4.372 -0.3853 -0.0471 -0.3460
   70SAPC  C219 6049   4.440   4.794   4.578 -0.2376  0.3249 -0.0954
   70SAPC  H19R 6050   4.494   4.698   4.589 -0.3614  0.1590 -0.9039
   70SAPC  H19S 6051   4.340   4.775   4.623  0.2824  0.5899  1.2304
   70SAPC  C220 6052   4.514   4.901   4.661  0.1775 -0.7653  0.8155
   70SAPC  H20R 6053   4.616   4.908   4.618 -0.2140 -0.1092 -0.0507
   70SAPC  H20S 6054   4.523   4.880   4.770 -2.9417  0.2452  1.3856
   70SAPC  H20T 6055   4.467   5.001   4.652  0.7258 -0.6390 -1.0267
   70SAPC   C33 6056   4.221   4.099   2.938  0.2309 -0.2544 -0.4612
   70SAPC   H3X 6057   4.120   4.136   2.966  0.1965 -0.0953 -0.7889
   70SAPC   H3Y 6058   4.297   4.179   2.955  0.9695 -1.1201  0.4070
   70SAPC   C34 6059   4.251   3.983   3.037 -0.0537 -0.2396  0.7347
   70SAPC   H4X 6060   4.360   3.968   3.024  0.1839  1.6845  0.2085
   70SAPC   H4Y 6061   4.207   3.887   3.001 -2.5907  0.6831  1.1975
   70SAPC   C35 6062   4.217   4.015   3.184  0.3876  0.0035 -0.2108
   70SAPC   H5X 6063   4.256   3.934   3.250  1.8157  0.9638  0.1606
   70SAPC   H5Y 6064   4.107   4.023   3.193  0.5824  1.7313  1.0699
   70SAPC   C36 6065   4.285   4.146   3.231 -0.3353  0.4413 -0.4115
   70SAPC   H6X 6066   4.262   4.232   3.165 -0.8376 -0.3653 -1.3052
   70SAPC   H6Y 6067   4.396   4.136   3.223 -0.4687 -1.1451 -0.5835
   70SAPC   C37 6068   4.252   4.176   3.377  0.1519  0.8649 -0.5735
   70SAPC   H7X 6069   4.287   4.279   3.399  1.5511  0.0493  1.2498
   70SAPC   H7Y 6070   4.144   4.158   3.394  0.6338  0.4743  2.7152
   70SAPC   C38 6071   4.339   4.080   3.466 -0.3275 -0.6899  0.0776
   70SAPC   H8X 6072   4.446   4.104   3.446 -0.8439  1.8566 -0.0499
   70SAPC   H8Y 6073   4.318   3.975   3.439  0.2894 -0.6070 -0.7779
   70SAPC   C39 6074   4.320   4.094   3.617  0.2660 -0.9255 -0.4286
   70SAPC   H9X 6075   4.214   4.071   3.638 -0.0611 -1.0889 -2.1412
   70SAPC   H9Y 6076   4.353   4.199   3.632  0.8945 -1.1273 -0.3760
   70SAPC  C310 6077   4.408   4.005   3.705  0.1190  0.1964  0.3274
   70SAPC  H10X 6078   4.515   4.021   3.680  0.7243 -0.0074  2.5595
   70SAPC  H10Y 6079   4.394   3.899   3.674  3.4078 -0.3877  0.3826
   70SAPC  C311 6080   4.385   3.998   3.856  0.3573 -0.3629 -0.6596
   70SAPC  H11X 6081   4.284   3.953   3.872 -0.0180  0.9012  0.6646
   70SAPC  H11Y 6082   4.377   4.098   3.903 -0.1411 -0.5487 -0.3328
   70SAPC  C312 6083   4.495   3.928   3.939  0.6528  0.1814 -0.0596
   70SAPC  H12X 6084   4.588   3.983   3.915  1.6285 -0.6114  1.7384
   70SAPC  H12Y 6085   4.504   3.825   3.897  3.7507  0.3350  0.0394
   70SAPC  C313 6086   4.452   3.925   4.081  0.0078  0.5756  0.1598
   70SAPC  H13X 6087   4.358   3.871   4.106  0.0317  1.1226  1.5221
   70SAPC  H13Y 6088   4.427   4.031   4.099  0.1700  1.0098 -1.8864
   70SAPC  C314 6089   4.560   3.865   4.178  0.2860 -0.0996  0.5971
   70SAPC  H14X 6090   4.657   3.888   4.128 -0.7456  1.4821 -0.8180
   70SAPC  H14Y 6091   4.555   3.755   4.184  1.5486 -0.2394 -0.4426
   70SAPC  C315 6092   4.558   3.935   4.311  0.2406 -0.4802 -0.0767
   70SAPC  H15X 6093   4.460   3.974   4.345  0.8314 -0.5195  1.8343
   70SAPC  H15Y 6094   4.625   4.024   4.311 -2.7913  1.9860  0.9919
   70SAPC  C316 6095   4.614   3.845   4.417 -0.6175 -0.6254 -0.0475
   70SAPC  H16X 6096   4.556   3.751   4.417 -1.6608 -0.0082 -1.0080
   70SAPC  H16Y 6097   4.604   3.897   4.515 -2.4749  0.9074 -0.9791
   70SAPC  C317 6098   4.761   3.816   4.402  0.0381 -0.0603  0.0973
   70SAPC  H17X 6099   4.812   3.910   4.369  0.0217 -0.3701 -0.8189
   70SAPC  H17Y 6100   4.776   3.741   4.322  1.5239  0.1942  0.1016
   70SAPC  C318 6101   4.838   3.767   4.524 -0.1239  0.2319  0.8047
   70SAPC  H18X 6102   4.794   3.678   4.573 -0.5175 -0.5543 -0.9063
   70SAPC  H18Y 6103   4.841   3.837   4.610 -1.5373 -1.0157  1.9314
   70SAPC  H18Z 6104   4.944   3.749   4.494 -0.5125 -1.2426  0.2602
   71SAPC     N 6105   3.997   4.206   1.501  0.0109 -0.0229  0.2000
   71SAPC   C12 6106   3.958   4.090   1.595 -0.0830 -0.0574  0.6539
   71SAPC  H12A 6107   3.948   4.000   1.537 -2.3034  1.2075 -1.0767
   71SAPC  H12B 6108   3.864   4.108   1.644  0.0535  3.0399 -0.0018
   71SAPC   C13 6109   4.015   4.332   1.592 -0.2114  0.3527 -0.1143
   71SAPC  H13A 6110   4.076   4.412   1.551  0.9648  0.3724  1.5731
   71SAPC  H13B 6111   3.922   4.381   1.616 -0.2204 -0.1261  0.8600
   71SAPC  H13C 6112   4.072   4.311   1.681  1.1757  3.3470 -0.1659
   71SAPC   C14 6113   4.118   4.158   1.423 -0.1458  0.5598 -0.0579
   71SAPC  H14A 6114   4.124   4.217   1.333  0.2162 -1.0166 -1.0906
   71SAPC  H14B 6115   4.211   4.164   1.479 -0.8558 -1.3359  1.4071
   71SAPC  H14C 6116   4.106   4.052   1.410 -0.0386  0.3074  1.6490
   71SAPC   C15 6117   3.883   4.237   1.411 -0.1279  0.0361  0.3489
   71SAPC  H15A 6118   3.910   4.312   1.337  0.8841  0.2500  0.9127
   71SAPC  H15B 6119   3.860   4.145   1.358  1.5713 -0.2143 -0.0231
   71SAPC  H15C 6120   3.788   4.267   1.452  0.4049  0.5941  1.2146
   71SAPC   C11 6121   4.053   4.061   1.711  0.3886  0.1072  0.5585
   71SAPC  H11A 6122   4.099   4.156   1.748  0.2844 -0.4217  2.1340
   71SAPC  H11B 6123   4.143   4.007   1.677 -0.5731 -1.0583 -0.2173
   71SAPC     P 6124   4.002   3.869   1.890 -0.3610 -0.0277  0.2165
   71SAPC   O13 6125   3.909   3.775   1.829  0.9893  0.2748  0.3992
   71SAPC   O14 6126   4.148   3.841   1.890 -0.0989 -0.0088  0.2588
   71SAPC   O12 6127   3.980   4.008   1.826 -0.0936 -0.3394  0.1035
   71SAPC   O11 6128   3.964   3.891   2.039  0.2899 -0.1589 -0.8044
   71SAPC    C1 6129   4.049   3.986   2.113 -0.1540 -0.2080 -0.2376
   71SAPC    HA 6130   4.153   3.950   2.123  0.1365  0.5735 -0.3933
   71SAPC    HB 6131   4.062   4.087   2.069 -1.9723  0.0969 -0.1472
   71SAPC    C2 6132   3.993   4.018   2.259  0.7337  0.6307  0.1726
   71SAPC    HS 6133   4.071   4.077   2.312 -0.4213  2.5394 -0.1322
   71SAPC   O21 6134   3.951   3.901   2.329 -1.0123  0.2793  0.0740
   71SAPC   C21 6135   4.060   3.839   2.387 -0.0389 -0.4099  0.3836
   71SAPC   O22 6136   4.167   3.896   2.403 -0.7197  0.0198 -0.0541
   71SAPC   C22 6137   4.032   3.691   2.427  0.5565  0.2354  0.1405
   71SAPC   H2R 6138   3.976   3.647   2.342  0.8908 -1.2751  0.6699
   71SAPC   H2S 6139   4.129   3.640   2.445  0.0541 -0.2538  1.6086
   71SAPC    C3 6140   3.870   4.110   2.241 -0.1360  0.1058  0.3239
   71SAPC    HX 6141   3.793   4.069   2.172 -0.9804  2.2316 -0.1088
   71SAPC    HY 6142   3.909   4.197   2.183 -1.1627  0.4502  0.1337
   71SAPC   O31 6143   3.810   4.151   2.366 -0.2213 -0.3547  0.3168
   71SAPC   C31 6144   3.717   4.080   2.414 -0.2056  0.6550 -0.4151
   71SAPC   O32 6145   3.657   3.987   2.358  0.1648  0.1331 -0.0196
   71SAPC   C32 6146   3.677   4.125   2.553  0.1488 -0.9187  0.4152
   71SAPC   H2X 6147   3.567   4.125   2.568 -0.0911 -1.9276 -1.0734
   71SAPC   H2Y 6148   3.688   4.236   2.549  0.4207 -0.9857 -2.1373
   71SAPC   C23 6149   3.932   3.673   2.541  0.8146  0.0565  0.0712
   71SAPC   H3R 6150   3.906   3.567   2.561 -0.0085 -0.0957 -1.6677
   71SAPC   H3S 6151   3.834   3.717   2.516  1.7526  1.6725 -0.9482
   71SAPC   C24 6152   3.979   3.742   2.672 -0.2453 -0.3696 -0.0116
   71SAPC   H4R 6153   3.896   3.728   2.745 -1.5434 -0.8298 -1.4968
   71SAPC   H4S 6154   3.974   3.851   2.652  1.2069  0.0142  1.5089
   71SAPC   C25 6155   4.113   3.702   2.736 -0.3378 -0.1257  0.0447
   71SAPC   H5R 6156   4.203   3.703   2.672  0.0645  1.2816  0.5836
   71SAPC   C26 6157   4.129   3.657   2.861 -0.6114 -0.2588  0.1831
   71SAPC   H6R 6158   4.231   3.629   2.894 -1.1512 -1.6835  0.7213
   71SAPC   C27 6159   4.021   3.637   2.961 -0.0932  0.4455 -0.2286
   71SAPC   H7R 6160   3.933   3.584   2.918  2.4195 -3.4304 -1.1386
   71SAPC   H7S 6161   3.989   3.732   3.010  0.6394  0.3487  0.4536
   71SAPC   C28 6162   4.058   3.536   3.067  0.4319  0.6033 -0.3421
   71SAPC   H8R 6163   4.128   3.457   3.037 -2.1161 -1.5675 -0.9731
   71SAPC   C29 6164   4.017   3.530   3.201  0.1404 -0.2593  0.4842
   71SAPC   H9R 6165   4.073   3.458   3.261  4.6756  1.6970 -0.9976
   71SAPC  C210 6166   3.936   3.632   3.274 -0.0830  0.3052 -0.0165
   71SAPC  H10R 6167   3.886   3.586   3.362 -1.2683 -2.3695 -1.9483
   71SAPC  H10S 6168   3.846   3.666   3.218  0.3958  0.0165 -0.9738
   71SAPC  C211 6169   4.006   3.753   3.318  0.4564 -0.4170  0.6337
   71SAPC  H11R 6170   3.974   3.841   3.260 -0.3732 -1.0692  0.0783
   71SAPC  C212 6171   4.093   3.756   3.415 -0.8001 -0.2460 -0.0900
   71SAPC  H12R 6172   4.141   3.851   3.443  2.4470 -1.3170 -1.4409
   71SAPC  C213 6173   4.148   3.636   3.495  0.4873 -0.3007  0.1684
   71SAPC  H13R 6174   4.243   3.670   3.543 -0.4070 -0.2677  2.0165
   71SAPC  H13S 6175   4.179   3.551   3.430 -1.5845 -2.2315  1.5631
   71SAPC  C214 6176   4.069   3.586   3.610  0.2415  0.2873  0.9308
   71SAPC  H14R 6177   4.007   3.500   3.580  1.9092 -0.9043  0.7281
   71SAPC  C215 6178   4.068   3.621   3.740 -0.4115  0.1228 -0.2224
   71SAPC  H15R 6179   4.005   3.563   3.809 -0.6082 -1.5271 -1.6997
   71SAPC  C216 6180   4.148   3.727   3.812  0.2135 -0.1913  0.4274
   71SAPC  H16R 6181   4.082   3.807   3.852 -0.0879 -0.2117 -0.0197
   71SAPC  H16S 6182   4.210   3.781   3.738  0.0361  0.3221  0.6515
   71SAPC  C217 6183   4.235   3.664   3.923 -0.0594  0.0225  0.0448
   71SAPC  H17R 6184   4.321   3.729   3.951 -1.4173  1.8617  0.1298
   71SAPC  H17S 6185   4.283   3.571   3.886  0.6407 -0.4002  1.8709
   71SAPC  C218 6186   4.155   3.640   4.052  0.1831  0.0509 -0.1846
   71SAPC  H18R 6187   4.066   3.576   4.030  0.1528 -0.5187  1.4995
   71SAPC  H18S 6188   4.112   3.730   4.099  1.4042 -0.4260  1.9548
   71SAPC  C219 6189   4.235   3.566   4.160 -0.4430  0.1603  0.8864
   71SAPC  H19R 6190   4.320   3.634   4.183  0.5092 -0.7124  0.0656
   71SAPC  H19S 6191   4.277   3.472   4.119 -1.3945  0.2145 -0.2521
   71SAPC  C220 6192   4.148   3.547   4.287  0.3015  0.2578 -0.0312
   71SAPC  H20R 6193   4.063   3.478   4.268  1.2459 -0.9026 -0.1796
   71SAPC  H20S 6194   4.097   3.644   4.306 -3.3994 -1.8211  1.5912
   71SAPC  H20T 6195   4.201   3.511   4.378 -0.4212  0.6551  0.5555
   71SAPC   C33 6196   3.749   4.069   2.676 -0.5133  0.2376 -0.7335
   71SAPC   H3X 6197   3.856   4.099   2.673 -0.3472  0.0935  1.7688
   71SAPC   H3Y 6198   3.747   3.959   2.688 -0.7580  0.4811  2.0023
   71SAPC   C34 6199   3.692   4.122   2.814 -0.0303  0.3291 -0.1193
   71SAPC   H4X 6200   3.597   4.072   2.844 -0.7117  0.8413 -1.3556
   71SAPC   H4Y 6201   3.669   4.230   2.805 -0.7128  0.1831 -0.1991
   71SAPC   C35 6202   3.788   4.111   2.938  0.3615  0.5497  0.0447
   71SAPC   H5X 6203   3.868   4.185   2.922  0.8561  0.1913  0.8165
   71SAPC   H5Y 6204   3.828   4.007   2.938 -0.6688  0.1082 -1.7579
   71SAPC   C36 6205   3.723   4.142   3.070  0.7617  0.1122  0.7933
   71SAPC   H6X 6206   3.632   4.079   3.074  1.2960 -0.6446  1.3842
   71SAPC   H6Y 6207   3.700   4.250   3.074 -0.3132 -0.1364  1.7045
   71SAPC   C37 6208   3.813   4.107   3.187  0.1607 -0.2896 -0.4315
   71SAPC   H7X 6209   3.909   4.163   3.183 -0.1307  0.3355  0.8173
   71SAPC   H7Y 6210   3.832   3.998   3.180 -1.3504 -0.5220 -1.4780
   71SAPC   C38 6211   3.754   4.153   3.328 -0.2023 -0.3945  0.0425
   71SAPC   H8X 6212   3.647   4.125   3.324 -0.3216  0.0848 -0.2183
   71SAPC   H8Y 6213   3.760   4.264   3.335 -2.5125 -0.2998  1.4183
   71SAPC   C39 6214   3.833   4.087   3.441 -1.0484 -0.8220  0.1945
   71SAPC   H9X 6215   3.942   4.106   3.427 -1.3020  2.9181  2.0604
   71SAPC   H9Y 6216   3.809   3.979   3.449  0.0442 -1.0892 -0.0128
   71SAPC  C310 6217   3.791   4.143   3.575 -0.5031 -0.2652 -0.0761
   71SAPC  H10X 6218   3.683   4.121   3.595 -0.4016 -1.7476 -0.9764
   71SAPC  H10Y 6219   3.799   4.253   3.583 -1.5588  0.0735 -2.6467
   71SAPC  C311 6220   3.886   4.095   3.686  0.2006 -0.0596  1.0246
   71SAPC  H11X 6221   3.981   4.150   3.671  0.6256 -1.3315 -1.4291
   71SAPC  H11Y 6222   3.912   3.987   3.681  0.9985 -0.0302  3.2852
   71SAPC  C312 6223   3.831   4.111   3.830 -0.1959 -0.5307 -0.1537
   71SAPC  H12X 6224   3.737   4.052   3.823 -0.3548 -0.0998 -3.3343
   71SAPC  H12Y 6225   3.803   4.219   3.831  1.3109 -0.1077  1.5299
   71SAPC  C313 6226   3.907   4.075   3.956 -0.1966  0.4989  0.6111
   71SAPC  H13X 6227   3.929   3.967   3.970  1.5476  0.7615  0.1626
   71SAPC  H13Y 6228   3.842   4.108   4.039  0.7793  1.1374  1.1454
   71SAPC  C314 6229   4.043   4.148   3.989 -0.2746 -0.0877 -0.1797
   71SAPC  H14X 6230   4.027   4.246   3.939 -0.0547  0.7522  1.3351
   71SAPC  H14Y 6231   4.118   4.088   3.933  0.6467  1.0504 -0.2123
   71SAPC  C315 6232   4.075   4.163   4.139  0.0094  0.1528 -0.4470
   71SAPC  H15X 6233   4.106   4.059   4.166  1.1968 -0.2124 -2.9626
   71SAPC  H15Y 6234   3.989   4.201   4.198 -2.4769 -0.5205 -3.3826
   71SAPC  C316 6235   4.201   4.256   4.171 -0.0498  0.5590 -1.2340
   71SAPC  H16X 6236   4.182   4.360   4.136 -3.4716  0.5559  0.2319
   71SAPC  H16Y 6237   4.287   4.216   4.113  0.0173  1.5097 -1.8104
   71SAPC  C317 6238   4.258   4.261   4.318 -0.3723 -0.3823  0.3379
   71SAPC  H17X 6239   4.350   4.324   4.320  1.8880 -3.3609 -1.4291
   71SAPC  H17Y 6240   4.286   4.157   4.343  0.5652 -0.1824  0.1516
   71SAPC  C318 6241   4.157   4.319   4.416 -0.5686  1.0905  0.3362
   71SAPC  H18X 6242   4.068   4.252   4.425 -2.1178  3.0832  0.8146
   71SAPC  H18Y 6243   4.110   4.418   4.396 -1.9654  0.6079  1.0510
   71SAPC  H18Z 6244   4.198   4.326   4.519  1.0909  0.5193 -0.2658
   72SAPC     N 6245   5.653   2.318   2.175 -0.8163 -0.4138  0.0330
   72SAPC   C12 6246   5.802   2.327   2.223  0.8565  0.3870 -0.9402
   72SAPC  H12A 6247   5.837   2.426   2.198  2.5061  0.4351  1.2828
   72SAPC  H12B 6248   5.861   2.256   2.168 -0.2851  0.4630 -2.3241
   72SAPC   C13 6249   5.566   2.412   2.263  0.2237  0.2277 -0.1630
   72SAPC  H13A 6250   5.567   2.370   2.362  0.1101 -1.9687 -1.0440
   72SAPC  H13B 6251   5.590   2.517   2.266 -1.1364  0.5801 -0.9564
   72SAPC  H13C 6252   5.463   2.413   2.233  0.2534  0.7154 -0.2509
   72SAPC   C14 6253   5.646   2.374   2.035 -0.1320 -0.0879 -1.0288
   72SAPC  H14A 6254   5.695   2.305   1.968  0.2472 -0.1879 -0.6556
   72SAPC  H14B 6255   5.544   2.382   2.002 -0.1550  0.5222 -0.8158
   72SAPC  H14C 6256   5.682   2.476   2.031 -0.8716  0.3249  1.2436
   72SAPC   C15 6257   5.601   2.186   2.189 -0.3648  0.6077  0.2559
   72SAPC  H15A 6258   5.650   2.110   2.129 -0.5757 -0.8870  1.8955
   72SAPC  H15B 6259   5.608   2.146   2.289 -1.8603  0.7084  0.4243
   72SAPC  H15C 6260   5.494   2.180   2.173 -0.0291 -2.1536 -1.8763
   72SAPC   C11 6261   5.846   2.335   2.379  0.2426 -0.1330  0.2976
   72SAPC  H11A 6262   5.767   2.394   2.431 -2.3800 -3.2631  0.1772
   72SAPC  H11B 6263   5.944   2.386   2.380  0.8213 -0.9971 -2.8567
   72SAPC     P 6264   5.979   2.126   2.471  0.0013 -0.2895 -0.4810
   72SAPC   O13 6265   5.935   2.005   2.540  0.9947  0.3791 -0.1395
   72SAPC   O14 6266   6.069   2.110   2.352 -0.3278 -0.5789 -0.5124
   72SAPC   O12 6267   5.848   2.205   2.432  0.3777 -0.0574 -0.7427
   72SAPC   O11 6268   6.053   2.229   2.572  0.1016  0.0576 -0.2591
   72SAPC    C1 6269   6.170   2.205   2.649  0.3485 -0.4265 -0.2436
   72SAPC    HA 6270   6.232   2.138   2.587  0.2862  0.3192 -1.1250
   72SAPC    HB 6271   6.228   2.295   2.677 -0.9266 -0.1087  1.5648
   72SAPC    C2 6272   6.123   2.145   2.783 -0.5288 -0.1190 -0.1490
   72SAPC    HS 6273   6.047   2.065   2.774  0.8162 -1.6066  1.1126
   72SAPC   O21 6274   6.082   2.251   2.872 -0.4105 -0.2255 -0.0229
   72SAPC   C21 6275   5.959   2.251   2.921  0.1031  0.0001 -0.0364
   72SAPC   O22 6276   5.863   2.178   2.885  0.4969 -0.4708  0.5358
   72SAPC   C22 6277   5.954   2.337   3.049 -0.5925 -0.1428  0.4437
   72SAPC   H2R 6278   6.031   2.296   3.118  0.2401  0.3718 -0.1475
   72SAPC   H2S 6279   5.978   2.439   3.011 -0.1893  0.4726  2.2431
   72SAPC    C3 6280   6.234   2.059   2.848  0.1832  0.0405  0.1600
   72SAPC    HX 6281   6.329   2.117   2.853  1.2896 -1.5938 -0.6926
   72SAPC    HY 6282   6.253   1.965   2.792 -1.3294 -0.2763  0.1480
   72SAPC   O31 6283   6.200   2.017   2.977  0.3929  0.0212 -0.1344
   72SAPC   C31 6284   6.226   2.105   3.078  0.5184 -0.4334 -0.2134
   72SAPC   O32 6285   6.296   2.205   3.068 -0.4945  0.0097  0.6530
   72SAPC   C32 6286   6.158   2.042   3.201  0.8142  0.8212  0.1745
   72SAPC   H2X 6287   6.195   1.939   3.221 -3.1424 -0.4286  2.0798
   72SAPC   H2Y 6288   6.050   2.032   3.179  0.4510  2.4693  1.0367
   72SAPC   C23 6289   5.819   2.338   3.118 -0.4042 -0.1253 -0.3368
   72SAPC   H3R 6290   5.736   2.331   3.044 -2.0641 -2.4639  1.5952
   72SAPC   H3S 6291   5.804   2.428   3.181  0.0750  1.0188 -1.7929
   72SAPC   C24 6292   5.800   2.225   3.216 -0.0162  0.9609  0.1341
   72SAPC   H4R 6293   5.872   2.255   3.294 -0.7237  4.1659 -0.3377
   72SAPC   H4S 6294   5.824   2.124   3.174 -5.1159 -0.9209  1.0669
   72SAPC   C25 6295   5.659   2.223   3.259  0.6235  1.1103  0.3509
   72SAPC   H5R 6296   5.589   2.157   3.206  0.3567 -0.0472  2.0530
   72SAPC   C26 6297   5.607   2.278   3.369 -0.0611 -0.6540 -0.6430
   72SAPC   H6R 6298   5.501   2.262   3.394  0.1338 -0.8368  0.0769
   72SAPC   C27 6299   5.684   2.363   3.459 -0.3944 -0.2418  0.1423
   72SAPC   H7R 6300   5.744   2.447   3.417  0.9994 -1.5417 -0.5671
   72SAPC   H7S 6301   5.756   2.290   3.503 -0.2994 -0.7156 -0.7755
   72SAPC   C28 6302   5.595   2.414   3.567 -0.2820 -0.2955  0.0618
   72SAPC   H8R 6303   5.538   2.504   3.540 -0.2043  0.2157  1.5249
   72SAPC   C29 6304   5.583   2.359   3.692  0.1218 -0.4627 -0.7123
   72SAPC   H9R 6305   5.508   2.402   3.760 -1.9763 -1.4035 -2.3260
   72SAPC  C210 6306   5.654   2.235   3.745  0.8014 -0.5261  0.3477
   72SAPC  H10R 6307   5.733   2.256   3.820 -0.1639 -0.4783  1.3689
   72SAPC  H10S 6308   5.698   2.189   3.654  1.3941 -0.6480  0.6930
   72SAPC  C211 6309   5.565   2.138   3.816  0.4013  0.2267  0.0323
   72SAPC  H11R 6310   5.557   2.168   3.921  2.0777  2.2075 -0.3352
   72SAPC  C212 6311   5.484   2.048   3.764 -0.4592 -0.2670 -0.6130
   72SAPC  H12R 6312   5.422   1.996   3.838  0.6382  1.4245  1.6322
   72SAPC  C213 6313   5.487   1.998   3.622 -0.0043 -0.2670 -0.2119
   72SAPC  H13R 6314   5.590   2.020   3.584 -0.2773  1.7484  0.0798
   72SAPC  H13S 6315   5.415   2.055   3.560 -1.6193 -2.0658 -0.0524
   72SAPC  C214 6316   5.467   1.845   3.611 -0.1874  0.0425 -0.1456
   72SAPC  H14R 6317   5.497   1.782   3.696 -0.4344 -1.6733 -1.2858
   72SAPC  C215 6318   5.426   1.790   3.491  0.7619  0.5629 -0.2084
   72SAPC  H15R 6319   5.413   1.681   3.488 -1.6095  0.8293 -1.2546
   72SAPC  C216 6320   5.405   1.871   3.364  0.1691 -0.2136 -0.4847
   72SAPC  H16R 6321   5.460   1.967   3.360  0.6286 -0.5291 -3.1117
   72SAPC  H16S 6322   5.296   1.895   3.369  0.5472  1.3784  3.1034
   72SAPC  C217 6323   5.424   1.800   3.231 -0.1135 -0.3654 -0.2326
   72SAPC  H17R 6324   5.350   1.717   3.232  1.8256 -2.2936  3.7066
   72SAPC  H17S 6325   5.526   1.755   3.228 -0.7583 -1.8699 -0.9514
   72SAPC  C218 6326   5.387   1.903   3.124  0.3223  0.5006 -0.5350
   72SAPC  H18R 6327   5.459   1.988   3.130  0.1367  0.5675  2.0212
   72SAPC  H18S 6328   5.287   1.944   3.151 -0.8863 -1.4152 -1.8293
   72SAPC  C219 6329   5.386   1.844   2.980 -0.2273 -0.0577  0.8753
   72SAPC  H19R 6330   5.333   1.906   2.904 -0.0338  1.0997  1.6653
   72SAPC  H19S 6331   5.344   1.741   2.978 -0.6035  0.0954  0.7830
   72SAPC  C220 6332   5.533   1.829   2.926  0.3340  0.6655 -0.3768
   72SAPC  H20R 6333   5.539   1.836   2.815  0.0958  1.6391 -0.3317
   72SAPC  H20S 6334   5.590   1.740   2.963 -0.0261  0.5929  0.0147
   72SAPC  H20T 6335   5.592   1.916   2.962 -0.4938 -0.2237  3.6678
   72SAPC   C33 6336   6.177   2.130   3.324  0.2001  0.6418 -0.5869
   72SAPC   H3X 6337   6.127   2.229   3.319  1.7480  1.8794  3.9611
   72SAPC   H3Y 6338   6.283   2.145   3.352  0.4640  1.4446 -1.9302
   72SAPC   C34 6339   6.110   2.066   3.448  0.3073  0.9727  0.0646
   72SAPC   H4X 6340   6.152   1.967   3.477 -0.5497  0.5456 -0.1314
   72SAPC   H4Y 6341   6.004   2.047   3.421  0.3069 -0.2876  0.8573
   72SAPC   C35 6342   6.123   2.150   3.569  0.3715  0.4396 -0.1502
   72SAPC   H5X 6343   6.086   2.250   3.538 -0.4854 -0.2952 -1.5727
   72SAPC   H5Y 6344   6.228   2.162   3.604 -0.3058  4.6889  1.0228
   72SAPC   C36 6345   6.038   2.082   3.679 -0.1747 -0.6371 -0.6874
   72SAPC   H6X 6346   6.104   1.997   3.707  2.6192  1.7352  0.4528
   72SAPC   H6Y 6347   5.941   2.042   3.644 -1.0895 -0.7064  1.7001
   72SAPC   C37 6348   6.002   2.172   3.798  1.5512 -0.1450  0.7949
   72SAPC   H7X 6349   5.915   2.119   3.841  0.0065  2.7636  1.5116
   72SAPC   H7Y 6350   5.968   2.269   3.757 -1.5839 -1.3795  0.2225
   72SAPC   C38 6351   6.118   2.203   3.900 -0.6315  1.1412 -0.0693
   72SAPC   H8X 6352   6.188   2.282   3.864  0.0269  1.8533  2.5543
   72SAPC   H8Y 6353   6.180   2.111   3.909 -1.0849  0.9444  1.1830
   72SAPC   C39 6354   6.056   2.231   4.042 -0.7036 -0.1003 -0.0195
   72SAPC   H9X 6355   6.134   2.212   4.119 -1.2152 -1.2006  0.2507
   72SAPC   H9Y 6356   5.964   2.176   4.073 -0.2517 -0.2696  1.0761
   72SAPC  C310 6357   6.019   2.376   4.051  1.0081 -0.0903 -0.2854
   72SAPC  H10X 6358   5.956   2.404   3.964  1.3658 -1.6645 -1.1015
   72SAPC  H10Y 6359   6.109   2.441   4.044  1.7356 -0.9596  0.7282
   72SAPC  C311 6360   5.951   2.405   4.188 -0.4441 -0.5616  0.3287
   72SAPC  H11X 6361   5.983   2.508   4.215  2.1646 -1.0217 -0.7397
   72SAPC  H11Y 6362   5.997   2.335   4.262 -1.2022 -2.6701 -1.0852
   72SAPC  C312 6363   5.806   2.380   4.187  0.5749 -0.0662  0.2092
   72SAPC  H12X 6364   5.792   2.280   4.141  0.6137 -1.2039  2.5190
   72SAPC  H12Y 6365   5.761   2.465   4.131 -0.2612 -0.6579 -0.0274
   72SAPC  C313 6366   5.747   2.379   4.328  0.1922 -0.0526  0.2976
   72SAPC  H13X 6367   5.779   2.474   4.375 -0.2443  1.3196 -1.9789
   72SAPC  H13Y 6368   5.792   2.294   4.383  1.3010  0.5973  0.4124
   72SAPC  C314 6369   5.597   2.357   4.314 -0.0516  0.6851 -0.1609
   72SAPC  H14X 6370   5.569   2.274   4.246  0.7563  0.9415 -0.8189
   72SAPC  H14Y 6371   5.556   2.449   4.267 -0.5394 -2.0998 -6.1963
   72SAPC  C315 6372   5.510   2.355   4.435  0.6091 -0.6369  0.3431
   72SAPC  H15X 6373   5.405   2.377   4.406  0.2177 -1.3790  1.1353
   72SAPC  H15Y 6374   5.518   2.439   4.507 -2.1705 -1.2008  1.4449
   72SAPC  C316 6375   5.531   2.228   4.523  0.1464 -0.2673  0.6183
   72SAPC  H16X 6376   5.514   2.264   4.627 -0.9771 -1.3002  0.8198
   72SAPC  H16Y 6377   5.635   2.191   4.507  0.6434  0.7902  1.3034
   72SAPC  C317 6378   5.430   2.122   4.486  0.5985 -0.0162  0.4013
   72SAPC  H17X 6379   5.453   2.084   4.384 -1.6470 -1.3595  0.3229
   72SAPC  H17Y 6380   5.331   2.172   4.489  0.1031 -1.0015  2.5128
   72SAPC  C318 6381   5.411   2.004   4.585  0.0363 -0.0407  0.8313
   72SAPC  H18X 6382   5.504   1.957   4.623 -0.5720 -0.4658  1.8190
   72SAPC  H18Y 6383   5.347   1.927   4.538 -1.3425  0.0736  2.4121
   72SAPC  H18Z 6384   5.352   2.043   4.671 -1.5009  1.2894 -0.7562
   73SLPC     N 6385   3.227   1.557   6.327  0.4015  0.5411 -0.1364
   73SLPC   C13 6386   3.149   1.520   6.206  0.5478  0.1583  0.5485
   73SLPC  H13A 6387   3.204   1.444   6.153  0.1895  0.4962 -0.3389
   73SLPC  H13B 6388   3.052   1.482   6.235 -0.5857  2.9926  0.8003
   73SLPC  H13C 6389   3.137   1.599   6.133  0.3260 -2.2910 -2.2434
   73SLPC   C14 6390   3.237   1.435   6.413  0.7301  0.4627 -0.0840
   73SLPC  H14A 6391   3.286   1.352   6.364  0.2718 -0.1410  0.4592
   73SLPC  H14B 6392   3.307   1.455   6.493  1.2453  1.1277 -0.6788
   73SLPC  H14C 6393   3.144   1.402   6.455  0.9308 -1.4762 -1.0391
   73SLPC   C15 6394   3.150   1.663   6.403 -0.3106 -0.0348 -0.0557
   73SLPC  H15A 6395   3.060   1.623   6.447 -2.3803  3.2288 -0.9992
   73SLPC  H15B 6396   3.215   1.702   6.481  0.3222 -2.4525  0.7255
   73SLPC  H15C 6397   3.131   1.744   6.334  4.4909  0.3637 -1.2681
   73SLPC   C12 6398   3.367   1.611   6.287 -0.0590 -0.2511 -0.1399
   73SLPC  H12A 6399   3.355   1.682   6.207 -0.0359  0.5882  0.5941
   73SLPC  H12B 6400   3.426   1.530   6.246 -0.0245 -0.8231  1.0052
   73SLPC   C11 6401   3.462   1.677   6.392  0.9203 -0.0769  0.4087
   73SLPC  H11A 6402   3.407   1.761   6.440  0.6725  0.2968 -0.5206
   73SLPC  H11B 6403   3.553   1.712   6.338  0.8562  2.2726  1.6666
   73SLPC     P 6404   3.581   1.467   6.483 -0.0566 -0.0722  0.2472
   73SLPC   O13 6405   3.720   1.497   6.524 -0.0614  0.1904 -0.3777
   73SLPC   O14 6406   3.509   1.360   6.557  0.2698  0.2484  0.0403
   73SLPC   O12 6407   3.497   1.591   6.497  0.8980  0.2539  0.1613
   73SLPC   O11 6408   3.580   1.425   6.321 -0.1900 -0.4575 -0.0559
   73SLPC    C1 6409   3.691   1.437   6.231  0.2593  0.1268  0.5528
   73SLPC    HA 6410   3.760   1.513   6.272  0.2525  0.1302  0.5579
   73SLPC    HB 6411   3.751   1.344   6.226  2.7808  1.7290 -0.3639
   73SLPC    C2 6412   3.645   1.491   6.091 -0.5185  0.4055 -0.2109
   73SLPC    HS 6413   3.725   1.468   6.017 -0.4125 -2.6246  0.7050
   73SLPC   O21 6414   3.611   1.627   6.105  0.4281  0.1092 -0.4401
   73SLPC   C21 6415   3.717   1.710   6.079 -0.4839 -0.8685 -0.3271
   73SLPC   O22 6416   3.831   1.678   6.060  0.1022  0.1305 -0.4663
   73SLPC   C22 6417   3.659   1.845   6.094  0.1511 -0.6861 -0.2717
   73SLPC   H2R 6418   3.559   1.854   6.047 -0.2689  0.4355  0.7862
   73SLPC   H2S 6419   3.645   1.849   6.204 -0.2621  0.0934 -0.3465
   73SLPC    C3 6420   3.525   1.417   6.040  0.2493  0.2333  0.0422
   73SLPC    HX 6421   3.435   1.436   6.101  1.2555  1.7716  1.1210
   73SLPC    HY 6422   3.555   1.310   6.029  2.9849  0.7071  1.8158
   73SLPC   O31 6423   3.510   1.458   5.898  0.1451  0.8799 -0.2180
   73SLPC   C31 6424   3.399   1.530   5.865 -0.0605  0.8132 -1.3853
   73SLPC   O32 6425   3.318   1.582   5.943  0.3295 -0.2078  0.5296
   73SLPC   C32 6426   3.385   1.554   5.711  0.4709  0.8842 -0.2852
   73SLPC   H2X 6427   3.292   1.605   5.681 -0.4416 -0.1326  0.7210
   73SLPC   H2Y 6428   3.397   1.454   5.664  0.0724  0.6136  0.1861
   73SLPC   C23 6429   3.742   1.964   6.055 -0.7461 -0.4449 -0.4473
   73SLPC   H3R 6430   3.839   1.956   6.109 -1.2804  1.0964  0.8053
   73SLPC   H3S 6431   3.693   2.047   6.109  0.6563 -1.5867  2.8174
   73SLPC   C24 6432   3.789   2.002   5.910  0.0746 -0.3287 -0.2597
   73SLPC   H4R 6433   3.854   1.920   5.873  2.8499  1.9014 -0.6101
   73SLPC   H4S 6434   3.845   2.098   5.910 -1.3837  0.5514 -0.1189
   73SLPC   C25 6435   3.665   2.019   5.824 -0.6837 -0.1325 -0.1346
   73SLPC   H5R 6436   3.603   2.096   5.875 -0.2798  1.4421 -1.9198
   73SLPC   H5S 6437   3.620   1.918   5.827 -1.3873  0.1483 -0.8888
   73SLPC   C26 6438   3.692   2.090   5.688 -0.5535 -0.0380 -0.1796
   73SLPC   H6R 6439   3.729   2.194   5.698 -3.6911  1.1757 -0.2874
   73SLPC   H6S 6440   3.594   2.086   5.637 -0.1311  1.2406 -1.1457
   73SLPC   C27 6441   3.786   2.018   5.588  0.6048  0.3147 -0.4873
   73SLPC   H7R 6442   3.731   1.925   5.560 -1.4771  1.2348  0.3690
   73SLPC   H7S 6443   3.877   1.982   5.640 -0.6297 -1.2454  0.6967
   73SLPC   C28 6444   3.815   2.100   5.462 -0.2198 -0.5149  0.5664
   73SLPC   H8R 6445   3.853   2.201   5.491 -4.0957  1.7526 -1.3912
   73SLPC   H8S 6446   3.735   2.136   5.394  1.2814 -0.7893 -1.4445
   73SLPC   C29 6447   3.919   2.035   5.370 -0.1636 -0.2959 -0.3500
   73SLPC   H9R 6448   4.023   2.040   5.405  0.3142  1.0438 -1.8555
   73SLPC  C210 6449   3.890   1.981   5.251 -0.2362 -0.1365 -0.2997
   73SLPC  H10R 6450   3.966   1.926   5.193 -0.9662 -0.4155 -1.0226
   73SLPC  C211 6451   3.754   1.956   5.191 -0.2030 -0.4345  0.1631
   73SLPC  H11R 6452   3.686   1.942   5.278 -2.4480  0.5964 -1.3443
   73SLPC  H11S 6453   3.736   1.863   5.133  0.4487 -1.7260  1.9419
   73SLPC  C212 6454   3.702   2.088   5.130  0.6120  0.2030 -0.0802
   73SLPC  H12R 6455   3.738   2.180   5.179 -1.4677  2.0690 -1.8470
   73SLPC  C213 6456   3.624   2.103   5.027 -0.0161  0.3335 -0.3918
   73SLPC  H13R 6457   3.609   2.209   5.000  1.7362  0.9878  1.0078
   73SLPC  C214 6458   3.574   1.989   4.944  0.5419 -0.0965 -0.3582
   73SLPC  H14R 6459   3.645   1.904   4.945 -0.1115 -0.7009 -1.6980
   73SLPC  H14S 6460   3.584   2.022   4.838  0.3283  0.7160 -0.1323
   73SLPC  C215 6461   3.424   1.953   4.966  0.3489 -0.0702 -0.4119
   73SLPC  H15R 6462   3.410   1.921   5.071 -1.1263 -0.3351 -0.6742
   73SLPC  H15S 6463   3.411   1.865   4.900 -0.3187 -0.4187  0.1820
   73SLPC  C216 6464   3.322   2.064   4.949 -0.1730  0.0815 -0.7255
   73SLPC  H16R 6465   3.335   2.136   5.033 -2.0567 -0.8955  0.4864
   73SLPC  H16S 6466   3.225   2.009   4.952 -0.0198 -0.2647 -1.7862
   73SLPC  C217 6467   3.340   2.154   4.822  0.4509 -0.7435 -0.3335
   73SLPC  H17R 6468   3.348   2.101   4.725 -2.7248  1.1995 -1.8291
   73SLPC  H17S 6469   3.432   2.216   4.824  0.6283 -1.0001 -0.5796
   73SLPC  C218 6470   3.229   2.262   4.807  0.2729 -0.4183 -0.0095
   73SLPC  H18R 6471   3.215   2.324   4.898  0.6014 -1.6694  0.9279
   73SLPC  H18S 6472   3.137   2.204   4.784 -1.5665  2.0558  0.7221
   73SLPC  H18T 6473   3.241   2.334   4.723 -0.8214  1.7268  1.5728
   73SLPC   C33 6474   3.507   1.641   5.667  1.0367  0.1126 -0.4120
   73SLPC   H3X 6475   3.604   1.602   5.703  0.9287  1.1763  1.1588
   73SLPC   H3Y 6476   3.500   1.744   5.708 -1.1556  0.1162 -0.6793
   73SLPC   C34 6477   3.520   1.657   5.520  0.3722 -0.3659 -0.0586
   73SLPC   H4X 6478   3.497   1.573   5.450 -0.0062 -0.5345  0.2700
   73SLPC   H4Y 6479   3.627   1.681   5.498  0.6638  0.9488  2.5015
   73SLPC   C35 6480   3.444   1.768   5.445  0.5492 -0.6409 -0.1742
   73SLPC   H5X 6481   3.483   1.758   5.342  0.5829 -0.7570 -0.1499
   73SLPC   H5Y 6482   3.493   1.861   5.483 -0.2855 -0.2967  0.0917
   73SLPC   C36 6483   3.287   1.766   5.437 -0.5067 -0.1734 -0.0973
   73SLPC   H6X 6484   3.240   1.863   5.464 -2.9204  0.0451 -4.2381
   73SLPC   H6Y 6485   3.244   1.681   5.494 -2.1996  0.9030  0.3076
   73SLPC   C37 6486   3.246   1.758   5.282 -0.5616  0.6003 -0.6135
   73SLPC   H7X 6487   3.309   1.678   5.236 -1.7849 -0.0409 -1.2430
   73SLPC   H7Y 6488   3.269   1.852   5.228 -1.7069  0.7659 -0.8563
   73SLPC   C38 6489   3.095   1.741   5.266  1.0566 -0.1446 -0.9771
   73SLPC   H8X 6490   3.045   1.835   5.299 -0.6061 -0.9284 -1.1474
   73SLPC   H8Y 6491   3.044   1.656   5.316  1.2435  0.1272 -0.3180
   73SLPC   C39 6492   3.069   1.724   5.116  0.0692  0.1979 -0.2528
   73SLPC   H9X 6493   3.104   1.625   5.079 -0.1716 -0.4148  1.0742
   73SLPC   H9Y 6494   3.141   1.797   5.073  0.0547  0.3914  0.0536
   73SLPC  C310 6495   2.916   1.753   5.070 -0.3364  1.1170  0.3342
   73SLPC  H10X 6496   2.888   1.854   5.107  0.3502  1.1605  0.7632
   73SLPC  H10Y 6497   2.853   1.677   5.119  0.8935 -0.3855 -0.3237
   73SLPC  C311 6498   2.903   1.739   4.914  0.2228 -0.1329  0.1434
   73SLPC  H11X 6499   2.800   1.749   4.873  0.6192  0.0956 -0.8143
   73SLPC  H11Y 6500   2.942   1.640   4.884  1.2361  0.4785 -0.6116
   73SLPC  C312 6501   2.977   1.853   4.844 -0.4713  0.0008  0.2622
   73SLPC  H12X 6502   3.084   1.841   4.871 -0.2503  0.4569 -0.3928
   73SLPC  H12Y 6503   2.944   1.949   4.889  3.1181  1.6297 -0.2764
   73SLPC  C313 6504   2.965   1.853   4.690  0.1409 -0.8801  0.2044
   73SLPC  H13X 6505   2.859   1.849   4.659 -0.4234 -1.0580  2.0060
   73SLPC  H13Y 6506   3.020   1.762   4.660  2.2948  0.5354 -0.3937
   73SLPC  C314 6507   3.056   1.967   4.641  0.1819  0.1474 -0.7829
   73SLPC  H14X 6508   3.160   1.943   4.673 -0.8726 -2.1047  1.3272
   73SLPC  H14Y 6509   3.009   2.056   4.687 -0.4844 -0.5197 -0.1521
   73SLPC  C315 6510   3.054   1.972   4.489 -0.1694  0.6351  0.6997
   73SLPC  H15X 6511   2.952   1.966   4.445  1.4887 -2.6430 -3.3716
   73SLPC  H15Y 6512   3.106   1.879   4.457  1.8534  2.4739 -1.6958
   73SLPC  C316 6513   3.138   2.087   4.429 -0.5197 -0.8354  0.1673
   73SLPC  H16X 6514   3.134   2.076   4.319  2.3182  1.0348 -0.2101
   73SLPC  H16Y 6515   3.243   2.069   4.460  0.1530 -1.3595 -2.2634
   73SLPC  C317 6516   3.083   2.227   4.465 -0.0907  0.1698  0.6853
   73SLPC  H17X 6517   3.076   2.236   4.576 -0.3737 -0.0563  0.6872
   73SLPC  H17Y 6518   2.975   2.249   4.447  0.2253  3.3288  1.9103
   73SLPC  C318 6519   3.163   2.344   4.402 -0.2808  0.2550  0.0097
   73SLPC  H18X 6520   3.127   2.446   4.432  0.1438  0.7699 -1.1794
   73SLPC  H18Y 6521   3.144   2.344   4.293 -0.6213  1.8130  0.0430
   73SLPC  H18Z 6522   3.271   2.330   4.423 -0.2350  0.5990  0.0089
   74SLPC     N 6523   3.134   3.187   6.530 -0.2205  0.3518 -0.2722
   74SLPC   C13 6524   2.995   3.165   6.562 -0.3669 -0.0223  0.3678
   74SLPC  H13A 6525   2.984   3.094   6.643 -3.9481  0.9769  0.9235
   74SLPC  H13B 6526   2.947   3.258   6.587  0.4756  0.6516 -0.4480
   74SLPC  H13C 6527   2.954   3.117   6.475  1.2592 -1.3304  0.2498
   74SLPC   C14 6528   3.199   3.261   6.644  0.1842 -0.5051  0.2134
   74SLPC  H14A 6529   3.302   3.278   6.614 -0.0596 -0.9221 -0.9156
   74SLPC  H14B 6530   3.151   3.355   6.666 -1.4824 -1.4260  0.6577
   74SLPC  H14C 6531   3.191   3.204   6.735 -1.9817 -1.8477 -0.7609
   74SLPC   C15 6532   3.131   3.272   6.403  0.2430 -0.1916 -0.3039
   74SLPC  H15A 6533   3.070   3.231   6.325 -0.8050 -0.3770  0.5897
   74SLPC  H15B 6534   3.075   3.360   6.431  0.3207 -0.5748  1.1106
   74SLPC  H15C 6535   3.228   3.305   6.368 -0.5537  0.4289 -2.0442
   74SLPC   C12 6536   3.208   3.064   6.502  0.2025 -0.3935  0.4145
   74SLPC  H12A 6537   3.226   3.007   6.592  0.6739 -2.2484 -0.8031
   74SLPC  H12B 6538   3.309   3.077   6.466  0.5659 -2.6749  0.4699
   74SLPC   C11 6539   3.158   2.969   6.387 -0.4025  0.0025 -0.2656
   74SLPC  H11A 6540   3.247   2.902   6.380 -0.2603  0.0001  1.2607
   74SLPC  H11B 6541   3.155   3.026   6.292 -1.3633  0.0041 -0.2416
   74SLPC     P 6542   3.024   2.759   6.460 -0.1567 -0.1168  0.1787
   74SLPC   O13 6543   3.150   2.714   6.520 -0.4193 -0.3723  0.6574
   74SLPC   O14 6544   2.902   2.733   6.535 -0.0207  0.0545  0.0280
   74SLPC   O12 6545   3.029   2.909   6.412 -0.6830 -0.6883  0.0628
   74SLPC   O11 6546   3.020   2.676   6.332 -0.2550  0.1126 -0.3170
   74SLPC    C1 6547   3.016   2.746   6.210 -0.4080  0.1248 -0.7159
   74SLPC    HA 6548   2.947   2.834   6.209 -0.0407  0.4206 -0.2949
   74SLPC    HB 6549   3.120   2.765   6.177 -0.7755 -0.8047 -2.5180
   74SLPC    C2 6550   2.966   2.657   6.081  0.6389 -0.1228 -0.6399
   74SLPC    HS 6551   3.011   2.557   6.093 -1.9475 -1.4159 -0.9400
   74SLPC   O21 6552   2.991   2.726   5.959 -0.7235  0.0820  0.4283
   74SLPC   C21 6553   3.015   2.650   5.857 -0.6775  0.2506 -0.3193
   74SLPC   O22 6554   3.056   2.532   5.861  0.6069  0.0177  0.7700
   74SLPC   C22 6555   2.999   2.726   5.725 -0.0104 -0.1676  0.5972
   74SLPC   H2R 6556   2.896   2.764   5.706  0.6313  0.7431 -1.3509
   74SLPC   H2S 6557   3.080   2.802   5.720  2.0969 -2.2224  1.4223
   74SLPC    C3 6558   2.812   2.631   6.095 -0.2390 -0.0142  0.1379
   74SLPC    HX 6559   2.790   2.584   6.193 -0.8364  1.2786  0.6470
   74SLPC    HY 6560   2.781   2.558   6.018 -0.0074  1.4185 -1.3800
   74SLPC   O31 6561   2.741   2.759   6.091  0.4022 -0.2050 -0.3763
   74SLPC   C31 6562   2.656   2.763   5.989 -0.4006 -0.6182  0.2424
   74SLPC   O32 6563   2.649   2.685   5.900  0.2208 -0.3532  0.8249
   74SLPC   C32 6564   2.570   2.890   5.996 -0.1301 -0.0992 -0.0034
   74SLPC   H2X 6565   2.616   2.956   6.073  0.7282 -0.1803 -0.4333
   74SLPC   H2Y 6566   2.474   2.859   6.042 -0.0598  1.4848  1.3348
   74SLPC   C23 6567   3.022   2.628   5.612  0.6006 -0.0084  0.4554
   74SLPC   H3R 6568   2.974   2.530   5.633 -0.1553  0.3905  0.6526
   74SLPC   H3S 6569   3.129   2.601   5.603  0.3503 -0.8880 -0.0173
   74SLPC   C24 6570   2.979   2.690   5.479 -0.0278  0.0367 -0.4793
   74SLPC   H4R 6571   3.018   2.794   5.469 -0.5659  0.4166  1.0952
   74SLPC   H4S 6572   2.869   2.701   5.494  0.0514  0.8901 -0.4762
   74SLPC   C25 6573   3.015   2.601   5.361  0.4221  0.3480  0.4127
   74SLPC   H5R 6574   2.957   2.509   5.384 -1.0557  1.6216  2.0627
   74SLPC   H5S 6575   3.123   2.575   5.352  0.0943 -1.9630  2.1914
   74SLPC   C26 6576   2.963   2.662   5.226 -0.2776  0.9452 -0.1113
   74SLPC   H6R 6577   3.026   2.750   5.200  1.2127  0.1284  0.6259
   74SLPC   H6S 6578   2.858   2.695   5.242 -0.2561  0.5830  0.8042
   74SLPC   C27 6579   2.968   2.557   5.112 -0.3567  1.0626 -0.1600
   74SLPC   H7R 6580   2.893   2.476   5.127  0.5966 -0.2216 -2.0754
   74SLPC   H7S 6581   3.070   2.515   5.099 -0.3884  0.6853  0.7206
   74SLPC   C28 6582   2.932   2.624   4.972  0.0958  0.0927 -0.4723
   74SLPC   H8R 6583   3.007   2.706   4.973 -1.0563  1.1830 -0.7284
   74SLPC   H8S 6584   2.830   2.668   4.981  1.0369  2.2639  0.4202
   74SLPC   C29 6585   2.934   2.531   4.857  0.3323  1.0142 -0.3909
   74SLPC   H9R 6586   2.874   2.441   4.875 -0.8678  1.6006 -1.3326
   74SLPC  C210 6587   2.990   2.553   4.736 -1.0923 -0.3542  0.1788
   74SLPC  H10R 6588   2.992   2.478   4.656  3.1085 -1.5379  1.1302
   74SLPC  C211 6589   3.070   2.678   4.702  0.3966 -0.8268  0.2713
   74SLPC  H11R 6590   3.027   2.772   4.743 -0.4679 -0.1433 -2.0779
   74SLPC  H11S 6591   3.073   2.696   4.592  2.7888  1.0287  0.5517
   74SLPC  C212 6592   3.210   2.660   4.747  0.0775 -0.3962  0.4276
   74SLPC  H12R 6593   3.222   2.639   4.854 -0.3208  0.1299  0.5753
   74SLPC  C213 6594   3.321   2.645   4.670 -0.0402 -0.4370  0.3425
   74SLPC  H13R 6595   3.418   2.623   4.716  0.1046  4.0761  2.7040
   74SLPC  C214 6596   3.335   2.662   4.514  0.2515  0.2483 -0.0730
   74SLPC  H14R 6597   3.243   2.633   4.460  0.3844  0.4477 -0.4105
   74SLPC  H14S 6598   3.420   2.603   4.475 -0.7925 -0.9406 -0.6092
   74SLPC  C215 6599   3.356   2.809   4.469 -0.0930 -0.0521 -0.1648
   74SLPC  H15R 6600   3.385   2.803   4.362 -1.4349  2.2364 -0.7190
   74SLPC  H15S 6601   3.447   2.854   4.515  0.2823 -0.7083 -0.2574
   74SLPC  C216 6602   3.231   2.900   4.476  0.2150 -0.4574  0.3905
   74SLPC  H16R 6603   3.190   2.921   4.577 -1.2135 -1.5968  0.0842
   74SLPC  H16S 6604   3.140   2.854   4.431 -0.7461  1.3852  0.3498
   74SLPC  C217 6605   3.255   3.035   4.408 -1.1143  0.3337 -0.2013
   74SLPC  H17R 6606   3.356   3.069   4.440 -1.6244  0.7246  1.0245
   74SLPC  H17S 6607   3.166   3.098   4.426 -0.3599  1.9002 -1.6097
   74SLPC  C218 6608   3.263   3.014   4.256 -0.2049  0.4468  0.5575
   74SLPC  H18R 6609   3.347   2.952   4.218 -2.2199 -0.7237 -2.3806
   74SLPC  H18S 6610   3.274   3.115   4.209 -1.6204 -0.4389 -1.8867
   74SLPC  H18T 6611   3.171   2.975   4.206  1.1583  0.1478 -1.9098
   74SLPC   C33 6612   2.551   2.958   5.861 -0.0658  0.1588 -0.2736
   74SLPC   H3X 6613   2.524   2.877   5.790  1.0728 -0.9558  0.5155
   74SLPC   H3Y 6614   2.642   3.014   5.830  0.3433  0.2670  1.0475
   74SLPC   C34 6615   2.435   3.065   5.846 -0.5182 -0.2985  0.3090
   74SLPC   H4X 6616   2.440   3.151   5.916 -1.3288 -0.0456  0.0629
   74SLPC   H4Y 6617   2.338   3.018   5.871 -0.9116 -0.0124 -0.6243
   74SLPC   C35 6618   2.430   3.137   5.714  0.1219 -0.1824  0.5634
   74SLPC   H5X 6619   2.522   3.194   5.694  0.0875 -0.3516 -0.0879
   74SLPC   H5Y 6620   2.342   3.204   5.727  0.1024 -0.3570  1.3841
   74SLPC   C36 6621   2.414   3.045   5.586  0.1747 -0.1823  0.2916
   74SLPC   H6X 6622   2.333   2.970   5.604 -0.3474 -0.1829 -1.7528
   74SLPC   H6Y 6623   2.504   2.980   5.586  0.5054  0.2654  1.3213
   74SLPC   C37 6624   2.403   3.125   5.453 -0.0391 -0.1020  0.2701
   74SLPC   H7X 6625   2.487   3.196   5.442 -1.6705  1.5995 -2.1786
   74SLPC   H7Y 6626   2.311   3.187   5.456 -0.8188 -1.0162 -2.2091
   74SLPC   C38 6627   2.393   3.031   5.336 -0.1037 -0.1885  0.2745
   74SLPC   H8X 6628   2.324   2.947   5.357  0.3677 -0.5204  0.5141
   74SLPC   H8Y 6629   2.486   2.971   5.331 -0.6317 -1.4415  3.4118
   74SLPC   C39 6630   2.366   3.109   5.205  0.3735  0.3693 -0.0260
   74SLPC   H9X 6631   2.431   3.199   5.203  0.4940  0.3241  1.1812
   74SLPC   H9Y 6632   2.267   3.158   5.191  0.1611 -0.6870 -2.9031
   74SLPC  C310 6633   2.392   3.020   5.077  0.8953 -0.9681  0.3201
   74SLPC  H10X 6634   2.331   2.928   5.084 -0.9817  0.2263  0.4792
   74SLPC  H10Y 6635   2.498   2.990   5.060  0.9553 -0.4063 -0.3610
   74SLPC  C311 6636   2.347   3.112   4.958  0.2750  0.5279 -0.2738
   74SLPC  H11X 6637   2.413   3.201   4.960 -0.6154  1.2102 -0.6427
   74SLPC  H11Y 6638   2.240   3.133   4.978  0.1383 -1.1800  1.0644
   74SLPC  C312 6639   2.349   3.033   4.824 -0.4856 -0.1549  0.8929
   74SLPC  H12X 6640   2.299   3.089   4.743  3.4160  2.1017 -0.1822
   74SLPC  H12Y 6641   2.309   2.930   4.835 -0.7234 -0.6528 -3.2568
   74SLPC  C313 6642   2.493   3.004   4.766  0.5038  0.2204 -0.0245
   74SLPC  H13X 6643   2.485   2.901   4.725  0.4611  1.4176 -3.3265
   74SLPC  H13Y 6644   2.571   3.021   4.843 -0.6946  2.6378  0.7468
   74SLPC  C314 6645   2.528   3.103   4.643  0.3021  0.2122  0.2664
   74SLPC  H14X 6646   2.508   3.209   4.668 -1.8809  0.1481 -0.9589
   74SLPC  H14Y 6647   2.457   3.073   4.563 -0.5318 -2.4708  1.8656
   74SLPC  C315 6648   2.673   3.090   4.586 -0.2080  0.0234  0.0859
   74SLPC  H15X 6649   2.754   3.108   4.660  1.3012  0.3357 -1.5768
   74SLPC  H15Y 6650   2.694   3.156   4.499  3.2021 -1.1229 -0.0999
   74SLPC  C316 6651   2.695   2.948   4.528 -0.2285 -0.0436 -0.6205
   74SLPC  H16X 6652   2.608   2.920   4.466  0.2733 -0.7020 -1.0364
   74SLPC  H16Y 6653   2.692   2.874   4.610  0.5073 -0.6145 -1.0992
   74SLPC  C317 6654   2.808   2.920   4.436 -0.1270 -0.2491 -0.5980
   74SLPC  H17X 6655   2.905   2.943   4.486 -0.3465 -1.2040  0.2882
   74SLPC  H17Y 6656   2.802   2.983   4.345  1.2094  0.0801 -0.4893
   74SLPC  C318 6657   2.816   2.771   4.383 -0.1329 -0.2358 -0.2714
   74SLPC  H18X 6658   2.896   2.761   4.306 -1.8148  2.7487 -2.6037
   74SLPC  H18Y 6659   2.725   2.732   4.333 -0.4753 -1.5952  1.3439
   74SLPC  H18Z 6660   2.831   2.709   4.474  1.3074 -0.0956 -0.3847
   75SLPC     N 6661   5.751   3.176   7.196  0.7598 -0.5413  0.3725
   75SLPC   C13 6662   5.727   3.290   7.093 -0.6578  0.3071 -0.1901
   75SLPC  H13A 6663   5.622   3.302   7.069 -0.5540  0.7762 -0.4143
   75SLPC  H13B 6664   5.772   3.382   7.127 -0.9361 -0.3035  1.9266
   75SLPC  H13C 6665   5.783   3.277   7.001  1.6897  1.7707  0.9241
   75SLPC   C14 6666   5.684   3.218   7.321 -0.4242  0.2043 -0.1125
   75SLPC  H14A 6667   5.699   3.149   7.402  0.3962 -0.1422 -0.5479
   75SLPC  H14B 6668   5.726   3.310   7.360 -0.3854 -0.5885  1.7854
   75SLPC  H14C 6669   5.581   3.220   7.289 -0.5528 -3.1291 -0.2119
   75SLPC   C15 6670   5.894   3.179   7.224 -1.0653  0.1267 -0.7114
   75SLPC  H15A 6671   5.933   3.276   7.250 -1.4263  0.1001 -0.0535
   75SLPC  H15B 6672   5.911   3.120   7.313  3.2011  1.1124 -0.6744
   75SLPC  H15C 6673   5.959   3.133   7.151 -1.8271 -0.0888 -1.2703
   75SLPC   C12 6674   5.707   3.040   7.140 -0.4253  0.5384  0.1503
   75SLPC  H12A 6675   5.601   3.051   7.122 -0.7613 -0.8564  1.1072
   75SLPC  H12B 6676   5.707   2.974   7.225  0.1555 -0.3207 -0.4989
   75SLPC   C11 6677   5.781   2.991   7.018 -0.5887  0.4426 -0.3898
   75SLPC  H11A 6678   5.808   3.073   6.949 -0.6010 -0.0540 -1.0031
   75SLPC  H11B 6679   5.699   2.932   6.970 -0.4307 -0.3147  0.2394
   75SLPC     P 6680   6.039   2.927   6.982 -0.3884 -0.1079 -0.1266
   75SLPC   O13 6681   6.124   3.029   7.050  0.0206  0.2850 -0.8170
   75SLPC   O14 6682   6.101   2.793   6.982  0.0998  0.5378 -0.1853
   75SLPC   O12 6683   5.894   2.905   7.048 -0.6178  0.2095 -0.0648
   75SLPC   O11 6684   6.020   2.967   6.832  0.2360  0.2450 -0.5149
   75SLPC    C1 6685   5.947   2.885   6.742  0.2861 -0.8228 -0.3298
   75SLPC    HA 6686   5.854   2.843   6.786  0.0257 -1.1894 -1.1936
   75SLPC    HB 6687   5.914   2.943   6.652  0.2413  1.7482  1.2234
   75SLPC    C2 6688   6.037   2.769   6.681  0.2543  0.5653  0.3129
   75SLPC    HS 6689   6.097   2.728   6.765 -1.9427 -2.4904  0.5541
   75SLPC   O21 6690   6.114   2.823   6.574 -0.0858 -0.6786 -0.1341
   75SLPC   C21 6691   6.248   2.819   6.588  0.3350 -0.4561 -0.5590
   75SLPC   O22 6692   6.311   2.789   6.685 -0.3469  0.0569  0.3597
   75SLPC   C22 6693   6.303   2.870   6.454  0.5038  0.7168  0.2936
   75SLPC   H2R 6694   6.238   2.829   6.375  0.2071 -0.5778  1.1768
   75SLPC   H2S 6695   6.290   2.980   6.448 -1.7254  0.4201 -1.9523
   75SLPC    C3 6696   5.955   2.651   6.626  0.7887 -0.2993 -0.7301
   75SLPC    HX 6697   5.882   2.616   6.702  1.5561 -2.6633 -1.0289
   75SLPC    HY 6698   6.031   2.571   6.621  0.7347 -0.6336  2.1553
   75SLPC   O31 6699   5.878   2.700   6.504  0.0708 -0.4000  0.0373
   75SLPC   C31 6700   5.941   2.674   6.390  0.2509  0.0730  0.4165
   75SLPC   O32 6701   6.043   2.609   6.383 -0.6051 -0.6746  0.0023
   75SLPC   C32 6702   5.858   2.725   6.271  0.2950  0.3051  0.6197
   75SLPC   H2X 6703   5.788   2.804   6.306  0.6323  0.6591  0.5000
   75SLPC   H2Y 6704   5.800   2.635   6.243  2.2774 -0.7108 -0.4206
   75SLPC   C23 6705   6.450   2.823   6.432 -0.4980  0.4863 -0.1623
   75SLPC   H3R 6706   6.464   2.712   6.432 -0.6745  0.4381  1.5251
   75SLPC   H3S 6707   6.516   2.853   6.516  1.8459 -2.8487 -0.6066
   75SLPC   C24 6708   6.512   2.871   6.300  0.1324 -0.6129  0.0183
   75SLPC   H4R 6709   6.497   2.980   6.282 -0.1112 -0.7984 -0.9553
   75SLPC   H4S 6710   6.458   2.821   6.217  0.5375  0.5701 -0.9959
   75SLPC   C25 6711   6.658   2.841   6.304 -0.7885 -0.4239  0.1517
   75SLPC   H5R 6712   6.656   2.730   6.307 -1.2699 -0.5247 -2.2454
   75SLPC   H5S 6713   6.711   2.879   6.394 -0.2348 -0.4569 -0.1565
   75SLPC   C26 6714   6.743   2.890   6.180  0.6278  1.2635 -0.2171
   75SLPC   H6R 6715   6.842   2.838   6.183  0.1483  0.3348 -0.0319
   75SLPC   H6S 6716   6.754   3.000   6.189  0.5828  1.4209 -1.6951
   75SLPC   C27 6717   6.680   2.845   6.046  0.1746 -0.8575 -0.5333
   75SLPC   H7R 6718   6.610   2.926   6.015 -0.1462 -0.8738  0.1302
   75SLPC   H7S 6719   6.626   2.752   6.074 -1.5712  0.2888  0.1194
   75SLPC   C28 6720   6.778   2.820   5.927 -0.3376 -0.0387  0.1079
   75SLPC   H8R 6721   6.727   2.753   5.855 -1.2471 -0.2357  0.9137
   75SLPC   H8S 6722   6.867   2.767   5.968 -0.3424 -0.0975  0.0428
   75SLPC   C29 6723   6.814   2.945   5.844  0.0167  0.1132  0.0895
   75SLPC   H9R 6724   6.823   3.034   5.908 -1.0704 -1.2366  2.2533
   75SLPC  C210 6725   6.842   2.952   5.714  0.6963 -0.2516 -0.1596
   75SLPC  H10R 6726   6.844   3.050   5.664 -1.1475  1.1260  2.2142
   75SLPC  C211 6727   6.858   2.830   5.616  0.1091 -0.2057 -0.1580
   75SLPC  H11R 6728   6.891   2.751   5.687 -0.0834 -0.0374  0.1205
   75SLPC  H11S 6729   6.948   2.847   5.554  0.7929  1.1453  1.1490
   75SLPC  C212 6730   6.737   2.765   5.553  0.2069 -0.0111 -0.3010
   75SLPC  H12R 6731   6.652   2.754   5.622 -0.7795 -2.5099 -1.7773
   75SLPC  C213 6732   6.712   2.742   5.428 -0.8353 -0.6604  0.5408
   75SLPC  H13R 6733   6.614   2.696   5.409 -2.2236  1.9881  0.7773
   75SLPC  C214 6734   6.813   2.770   5.313 -0.1877  0.0851  0.2600
   75SLPC  H14R 6735   6.909   2.789   5.364  0.5413 -2.5172 -0.0019
   75SLPC  H14S 6736   6.772   2.857   5.257  1.7154  0.8428 -0.0141
   75SLPC  C215 6737   6.845   2.651   5.211 -0.1137  0.3063  0.2381
   75SLPC  H15R 6738   6.882   2.564   5.268  1.2356  1.8660  1.8422
   75SLPC  H15S 6739   6.933   2.693   5.157 -0.7319  2.9505  1.1022
   75SLPC  C216 6740   6.728   2.624   5.114  0.0083 -0.0876 -0.1995
   75SLPC  H16R 6741   6.691   2.721   5.074  0.4693 -0.4139 -1.4553
   75SLPC  H16S 6742   6.641   2.599   5.179  1.1466 -3.1402  0.3271
   75SLPC  C217 6743   6.754   2.517   5.007  0.4599  0.3527 -0.2591
   75SLPC  H17R 6744   6.661   2.507   4.948  1.0382  0.5592 -1.2203
   75SLPC  H17S 6745   6.773   2.423   5.065  1.2755  1.1103  0.7529
   75SLPC  C218 6746   6.873   2.555   4.921  0.4044 -0.2828  0.5554
   75SLPC  H18R 6747   6.886   2.477   4.843 -0.7120 -1.3417  1.3854
   75SLPC  H18S 6748   6.966   2.565   4.981  1.2116 -0.1332 -0.6967
   75SLPC  H18T 6749   6.847   2.647   4.866 -1.6639 -2.8084 -3.0847
   75SLPC   C33 6750   5.943   2.776   6.159 -0.0852 -0.1826  0.5431
   75SLPC   H3X 6751   6.022   2.706   6.122 -0.1834  0.1791 -0.3795
   75SLPC   H3Y 6752   5.991   2.875   6.174 -0.7858  0.2332  0.0834
   75SLPC   C34 6753   5.848   2.804   6.035 -0.5581 -0.1700 -0.1506
   75SLPC   H4X 6754   5.770   2.877   6.066 -1.3356 -1.2986  0.6185
   75SLPC   H4Y 6755   5.804   2.703   6.020 -0.4839 -0.3425  0.7402
   75SLPC   C35 6756   5.936   2.849   5.924 -0.2692 -0.1344  0.8323
   75SLPC   H5X 6757   6.015   2.771   5.916  1.1238  1.2591  0.4163
   75SLPC   H5Y 6758   5.991   2.943   5.946 -1.5547  1.3939 -1.9022
   75SLPC   C36 6759   5.855   2.867   5.795  0.5666  0.5605 -0.0811
   75SLPC   H6X 6760   5.779   2.947   5.808  1.1988  1.0923  0.4260
   75SLPC   H6Y 6761   5.804   2.772   5.768  2.1037  0.3045 -2.3596
   75SLPC   C37 6762   5.938   2.909   5.675 -0.2400  0.2396  0.6834
   75SLPC   H7X 6763   6.024   2.839   5.678 -3.2009 -3.8558 -0.9540
   75SLPC   H7Y 6764   5.969   3.012   5.704 -1.4176 -0.0099  3.0771
   75SLPC   C38 6765   5.873   2.901   5.530 -0.3684 -0.5792 -0.3790
   75SLPC   H8X 6766   5.780   2.961   5.541 -0.8656 -1.2557 -0.8236
   75SLPC   H8Y 6767   5.846   2.800   5.493 -2.6184 -0.1270 -0.1122
   75SLPC   C39 6768   5.955   2.970   5.427 -0.6082 -0.5279  0.0074
   75SLPC   H9X 6769   6.040   2.905   5.396 -0.1186  1.1005 -2.3979
   75SLPC   H9Y 6770   6.006   3.059   5.469  0.6339 -1.2240  0.0425
   75SLPC  C310 6771   5.875   3.012   5.306 -0.2750 -0.8364  0.0417
   75SLPC  H10X 6772   5.795   3.078   5.346 -0.0445  0.1455 -1.0551
   75SLPC  H10Y 6773   5.827   2.925   5.258 -0.6635 -1.4657  1.5064
   75SLPC  C311 6774   5.963   3.072   5.195 -0.0442  0.0694  0.1601
   75SLPC  H11X 6775   6.043   2.999   5.172 -0.2441 -0.3260  0.6929
   75SLPC  H11Y 6776   6.016   3.168   5.214 -1.3903  0.8027  0.3372
   75SLPC  C312 6777   5.882   3.094   5.065  0.0163  0.2265  1.1859
   75SLPC  H12X 6778   5.786   3.146   5.086 -0.4883  0.7973 -2.0522
   75SLPC  H12Y 6779   5.857   2.990   5.036  1.5606  0.5294 -1.5328
   75SLPC  C313 6780   5.962   3.155   4.947  0.1829 -0.2856  0.3009
   75SLPC  H13X 6781   6.057   3.098   4.935 -0.4573 -0.7980 -3.7049
   75SLPC  H13Y 6782   5.987   3.261   4.971  0.3989 -0.7557  2.3910
   75SLPC  C314 6783   5.902   3.142   4.808 -0.3338  0.5076  0.5136
   75SLPC  H14X 6784   5.821   3.214   4.784  1.1781  2.6232  1.4776
   75SLPC  H14Y 6785   5.866   3.037   4.800 -1.7402  1.0820 -1.3434
   75SLPC  C315 6786   5.999   3.144   4.687  0.0932  0.9269 -0.7330
   75SLPC  H15X 6787   5.939   3.127   4.594 -1.8407 -0.7674  0.7341
   75SLPC  H15Y 6788   6.059   3.052   4.705 -0.6996  0.1560 -1.8445
   75SLPC  C316 6789   6.087   3.266   4.689 -0.0015 -1.0044  0.2053
   75SLPC  H16X 6790   6.131   3.282   4.789 -0.6840  0.6807  0.2759
   75SLPC  H16Y 6791   6.019   3.355   4.691 -1.1174 -1.8492  1.8612
   75SLPC  C317 6792   6.187   3.283   4.584  0.1375  1.1326  0.3533
   75SLPC  H17X 6793   6.135   3.259   4.488 -0.0536  1.7933  0.2836
   75SLPC  H17Y 6794   6.268   3.207   4.584 -0.0534  0.9279  0.8117
   75SLPC  C318 6795   6.248   3.423   4.567 -0.3002 -0.2922  0.1333
   75SLPC  H18X 6796   6.331   3.417   4.494  0.1407 -1.3207  0.6985
   75SLPC  H18Y 6797   6.297   3.450   4.663  0.1141 -2.2524  0.5139
   75SLPC  H18Z 6798   6.171   3.502   4.557 -0.7276 -0.6127  0.7799
   76SLPC     N 6799   2.161   2.012   6.817 -0.1400  0.6286 -0.3027
   76SLPC   C13 6800   2.191   1.866   6.838 -0.1712  0.4247  0.0929
   76SLPC  H13A 6801   2.229   1.810   6.754 -1.1004 -2.4203  1.4185
   76SLPC  H13B 6802   2.258   1.861   6.922  1.2056 -0.2892 -1.0110
   76SLPC  H13C 6803   2.104   1.806   6.861  1.0041 -1.2645  0.3366
   76SLPC   C14 6804   2.297   2.073   6.786 -0.9953 -0.2199  0.8966
   76SLPC  H14A 6805   2.371   2.030   6.852 -0.8788 -0.1243  0.8275
   76SLPC  H14B 6806   2.324   2.060   6.683  0.8283 -0.0590  1.3224
   76SLPC  H14C 6807   2.283   2.180   6.799  0.4389 -0.1207  1.8104
   76SLPC   C15 6808   2.102   2.078   6.941 -0.0975  0.2406  0.3535
   76SLPC  H15A 6809   2.055   2.170   6.912  0.1047  0.1801 -0.1782
   76SLPC  H15B 6810   2.034   2.008   6.988 -0.2352 -0.0585 -0.2840
   76SLPC  H15C 6811   2.192   2.091   7.001  1.5878 -1.5667 -1.6068
   76SLPC   C12 6812   2.068   2.037   6.698 -0.0769  0.0366 -0.1428
   76SLPC  H12A 6813   1.971   2.004   6.734 -0.8647  2.1896 -0.1192
   76SLPC  H12B 6814   2.097   1.968   6.621 -1.0025  0.4601 -0.8945
   76SLPC   C11 6815   2.043   2.177   6.635 -0.1126 -0.2985 -0.2704
   76SLPC  H11A 6816   1.971   2.188   6.551 -3.0427  1.6514  2.2722
   76SLPC  H11B 6817   2.140   2.220   6.603 -0.3733  0.3545 -0.2163
   76SLPC     P 6818   1.853   2.306   6.775  0.4984  0.3408  0.0267
   76SLPC   O13 6819   1.774   2.183   6.788 -0.6838  0.3990 -0.0728
   76SLPC   O14 6820   1.860   2.389   6.893  0.3619 -0.1684 -0.1729
   76SLPC   O12 6821   2.005   2.271   6.735 -0.3833 -0.4432  0.0760
   76SLPC   O11 6822   1.803   2.402   6.660  0.1685  0.2194  0.7608
   76SLPC    C1 6823   1.873   2.522   6.619 -0.1008  0.5329  0.2778
   76SLPC    HA 6824   1.858   2.605   6.691 -0.3906  1.9074 -1.3234
   76SLPC    HB 6825   1.981   2.498   6.619 -0.5357 -1.6302  0.7437
   76SLPC    C2 6826   1.830   2.566   6.476 -0.0248 -0.1779 -0.1347
   76SLPC    HS 6827   1.869   2.667   6.450 -1.9957  0.4466 -0.8461
   76SLPC   O21 6828   1.690   2.561   6.465 -0.2450  0.0718  0.1245
   76SLPC   C21 6829   1.633   2.650   6.376 -0.8053 -0.7876  0.3812
   76SLPC   O22 6830   1.688   2.755   6.341 -0.1835 -0.0841  0.4461
   76SLPC   C22 6831   1.495   2.607   6.351 -1.1327  0.1875  0.1484
   76SLPC   H2R 6832   1.475   2.504   6.386 -0.2334 -0.2555 -0.6321
   76SLPC   H2S 6833   1.436   2.677   6.414  0.0335  0.6527  0.7445
   76SLPC    C3 6834   1.889   2.466   6.369 -0.1611  0.5377  0.5441
   76SLPC    HX 6835   1.853   2.365   6.396 -1.1547  0.3419 -1.3558
   76SLPC    HY 6836   2.000   2.470   6.368 -0.1625  0.8346 -1.3096
   76SLPC   O31 6837   1.836   2.500   6.235 -0.6849 -0.3241  0.2415
   76SLPC   C31 6838   1.896   2.594   6.162  0.0253 -0.5129 -0.1597
   76SLPC   O32 6839   1.994   2.656   6.197  0.1015 -0.1972  1.1248
   76SLPC   C32 6840   1.822   2.594   6.022  0.4282  0.2082 -0.0598
   76SLPC   H2X 6841   1.755   2.506   6.012  2.2177 -1.4493  1.6865
   76SLPC   H2Y 6842   1.903   2.558   5.956 -1.9602 -1.0596 -2.5375
   76SLPC   C23 6843   1.461   2.620   6.205  0.5884 -0.4526  0.3528
   76SLPC   H3R 6844   1.520   2.545   6.150 -0.0357 -1.5959  1.2019
   76SLPC   H3S 6845   1.490   2.720   6.166  0.1054 -1.0306 -1.6191
   76SLPC   C24 6846   1.312   2.584   6.178 -0.3716  0.2816 -0.2927
   76SLPC   H4R 6847   1.281   2.608   6.074 -0.7538  0.6566 -0.0932
   76SLPC   H4S 6848   1.241   2.636   6.245  1.2198  1.8146  0.2967
   76SLPC   C25 6849   1.280   2.434   6.209 -0.1448  0.5393 -0.1092
   76SLPC   H5R 6850   1.299   2.423   6.318  2.0396 -1.2692 -0.5942
   76SLPC   H5S 6851   1.356   2.372   6.158  0.1120 -0.3680  1.3141
   76SLPC   C26 6852   1.135   2.388   6.179  0.0565  0.6568  0.0941
   76SLPC   H6R 6853   1.068   2.476   6.191  1.5042  1.7473  0.4466
   76SLPC   H6S 6854   1.104   2.312   6.253  0.2426 -0.2857 -0.7794
   76SLPC   C27 6855   1.117   2.325   6.039 -0.0096 -0.2547 -0.6646
   76SLPC   H7R 6856   1.148   2.403   5.966  0.0687 -0.0739 -0.4400
   76SLPC   H7S 6857   1.007   2.311   6.034  0.1087 -1.1270 -1.0820
   76SLPC   C28 6858   1.187   2.186   6.012  0.4835 -0.3543  0.4802
   76SLPC   H8R 6859   1.187   2.114   6.097  2.3699 -3.5432 -1.9971
   76SLPC   H8S 6860   1.294   2.210   5.993 -0.0164  0.4862 -1.5263
   76SLPC   C29 6861   1.127   2.112   5.892 -0.1101 -0.2260  0.6737
   76SLPC   H9R 6862   1.050   2.043   5.928  1.3610 -2.0070  0.5190
   76SLPC  C210 6863   1.163   2.105   5.761 -0.1727 -0.2586  0.4235
   76SLPC  H10R 6864   1.112   2.029   5.701 -0.2974  1.5318 -1.8677
   76SLPC  C211 6865   1.278   2.174   5.692  0.3438  0.1038 -0.3173
   76SLPC  H11R 6866   1.362   2.106   5.670  1.4646  0.9035  1.3052
   76SLPC  H11S 6867   1.326   2.258   5.747 -0.6143  0.0939  0.5688
   76SLPC  C212 6868   1.217   2.244   5.573 -0.6465 -0.1052 -0.5426
   76SLPC  H12R 6869   1.125   2.301   5.591 -0.6951 -0.8956  2.1162
   76SLPC  C213 6870   1.248   2.222   5.445 -0.5143 -0.9940  0.0784
   76SLPC  H13R 6871   1.181   2.266   5.369  1.5928  0.1726 -1.1920
   76SLPC  C214 6872   1.368   2.145   5.390 -0.6996  0.7438 -0.2933
   76SLPC  H14R 6873   1.440   2.117   5.470  0.2697 -0.4867 -1.5585
   76SLPC  H14S 6874   1.431   2.197   5.314  0.5396  1.6745  1.3061
   76SLPC  C215 6875   1.329   2.012   5.319 -0.4334 -0.3296  0.0089
   76SLPC  H15R 6876   1.283   2.031   5.220  0.2632  3.2306  0.2365
   76SLPC  H15S 6877   1.252   1.961   5.380  0.5130 -0.4435  1.1616
   76SLPC  C216 6878   1.444   1.916   5.288 -0.1092 -0.1567 -0.3694
   76SLPC  H16R 6879   1.405   1.825   5.238 -0.3956 -1.1950  1.6050
   76SLPC  H16S 6880   1.483   1.877   5.385 -1.7779  0.6714  0.6844
   76SLPC  C217 6881   1.563   1.974   5.211  0.1900 -1.1265 -0.4090
   76SLPC  H17R 6882   1.627   2.027   5.284 -0.4655  0.4247 -0.9130
   76SLPC  H17S 6883   1.534   2.055   5.141 -1.3623  0.4059  1.8578
   76SLPC  C218 6884   1.654   1.877   5.134  0.9920 -0.1602 -0.5223
   76SLPC  H18R 6885   1.585   1.826   5.063 -1.5917  2.1479  0.1831
   76SLPC  H18S 6886   1.707   1.797   5.191  0.5474  0.0352  0.1805
   76SLPC  H18T 6887   1.730   1.940   5.083  1.0338 -0.7343 -1.1850
   76SLPC   C33 6888   1.767   2.729   5.970  0.2394 -0.0021  0.5450
   76SLPC   H3X 6889   1.843   2.809   5.957  0.8429  0.3269  4.6087
   76SLPC   H3Y 6890   1.691   2.768   6.041 -0.1722 -1.7635  1.1415
   76SLPC   C34 6891   1.702   2.709   5.832 -0.4450 -0.1088 -0.1687
   76SLPC   H4X 6892   1.771   2.644   5.775  0.1054 -0.1055  0.4816
   76SLPC   H4Y 6893   1.685   2.800   5.770 -1.7230 -1.8455 -2.5236
   76SLPC   C35 6894   1.569   2.630   5.847  1.1439  0.0007 -0.3002
   76SLPC   H5X 6895   1.525   2.660   5.945  1.0672  0.3477 -0.4410
   76SLPC   H5Y 6896   1.591   2.525   5.877  1.1129  0.4547  1.4300
   76SLPC   C36 6897   1.463   2.639   5.734 -0.0444 -0.2824  0.7395
   76SLPC   H6X 6898   1.418   2.740   5.730  2.8571  1.0625 -0.5256
   76SLPC   H6Y 6899   1.381   2.566   5.754 -0.9793  1.0174  1.8408
   76SLPC   C37 6900   1.518   2.610   5.589  0.1609  0.3495  0.1174
   76SLPC   H7X 6901   1.599   2.679   5.559  1.6962 -1.3591  0.1259
   76SLPC   H7Y 6902   1.435   2.612   5.516  0.1256 -1.2913  0.0735
   76SLPC   C38 6903   1.584   2.471   5.572 -0.4753 -0.0858 -1.1415
   76SLPC   H8X 6904   1.503   2.396   5.565 -1.2950  0.7768 -1.0761
   76SLPC   H8Y 6905   1.643   2.451   5.664 -3.0778 -0.2160  0.6107
   76SLPC   C39 6906   1.667   2.467   5.442 -0.0014 -0.2999  0.2322
   76SLPC   H9X 6907   1.759   2.528   5.454  0.8380 -1.5227  0.1262
   76SLPC   H9Y 6908   1.602   2.502   5.359 -0.1384 -0.1573  0.3981
   76SLPC  C310 6909   1.727   2.329   5.420  1.5256 -0.1031 -0.4765
   76SLPC  H10X 6910   1.647   2.252   5.425  0.3275  1.1370  2.1623
   76SLPC  H10Y 6911   1.788   2.287   5.503 -1.6864  0.4983  2.4209
   76SLPC  C311 6912   1.796   2.310   5.284  0.1392 -0.6763 -0.5446
   76SLPC  H11X 6913   1.820   2.202   5.280 -1.0955 -1.1143  1.9706
   76SLPC  H11Y 6914   1.889   2.367   5.262 -0.6172  0.4399 -0.9309
   76SLPC  C312 6915   1.703   2.340   5.165  0.0384 -0.0380  0.7479
   76SLPC  H12X 6916   1.693   2.450   5.161 -0.8380 -0.1553 -1.0544
   76SLPC  H12Y 6917   1.607   2.295   5.199 -0.8415  1.0074 -0.2708
   76SLPC  C313 6918   1.772   2.292   5.034  0.3976 -0.5547 -0.2608
   76SLPC  H13X 6919   1.804   2.186   5.036  1.4477 -0.2810 -1.1655
   76SLPC  H13Y 6920   1.873   2.338   5.025 -0.1812  0.6912 -0.6162
   76SLPC  C314 6921   1.679   2.324   4.917  0.5225 -0.3435  0.0680
   76SLPC  H14X 6922   1.648   2.431   4.915 -2.7522 -1.1850 -1.5292
   76SLPC  H14Y 6923   1.586   2.268   4.940  1.0613 -0.6006  1.7876
   76SLPC  C315 6924   1.741   2.278   4.784 -0.2454 -0.5051 -0.4019
   76SLPC  H15X 6925   1.766   2.170   4.774  0.0630 -0.5617  0.7394
   76SLPC  H15Y 6926   1.839   2.330   4.777 -0.6253  0.3807  0.6223
   76SLPC  C316 6927   1.650   2.314   4.664  0.1364 -0.0589  0.9568
   76SLPC  H16X 6928   1.699   2.299   4.565  0.7067  0.0699  1.2173
   76SLPC  H16Y 6929   1.634   2.424   4.670  0.9015  0.0493  1.1283
   76SLPC  C317 6930   1.514   2.242   4.660 -0.0719 -0.5101  0.3505
   76SLPC  H17X 6931   1.454   2.273   4.748  1.0631 -1.1455  1.3658
   76SLPC  H17Y 6932   1.531   2.133   4.671 -0.8787 -0.5431  1.4521
   76SLPC  C318 6933   1.449   2.266   4.522  0.4834 -0.0027  1.0170
   76SLPC  H18X 6934   1.524   2.275   4.440 -1.9846  1.0589 -1.2930
   76SLPC  H18Y 6935   1.398   2.364   4.517 -2.0323 -1.2758  0.2488
   76SLPC  H18Z 6936   1.376   2.193   4.481  0.3018  0.6868  0.0782
   77SLPC     N 6937   6.420   2.578   7.192  0.6740 -0.6423 -0.4161
   77SLPC   C13 6938   6.533   2.589   7.288  0.6395 -0.4981 -0.0860
   77SLPC  H13A 6939   6.501   2.603   7.390 -2.3293 -3.0587 -0.5025
   77SLPC  H13B 6940   6.602   2.506   7.285  0.9386 -0.2740  0.5675
   77SLPC  H13C 6941   6.583   2.680   7.259 -2.8959  1.2529 -1.3391
   77SLPC   C14 6942   6.338   2.712   7.202  0.2557  0.1804  0.0542
   77SLPC  H14A 6943   6.316   2.733   7.306 -1.4471 -3.4116  0.5597
   77SLPC  H14B 6944   6.389   2.801   7.169 -0.0898 -0.0510 -1.1626
   77SLPC  H14C 6945   6.250   2.700   7.140  0.9139  0.5924 -0.9890
   77SLPC   C15 6946   6.338   2.461   7.224  0.4919 -0.2478  0.2346
   77SLPC  H15A 6947   6.287   2.470   7.319  0.1007 -1.1932  0.1279
   77SLPC  H15B 6948   6.259   2.444   7.152 -1.0194  0.5733  1.6196
   77SLPC  H15C 6949   6.398   2.372   7.232 -0.4894 -0.8412  1.3911
   77SLPC   C12 6950   6.482   2.570   7.057 -0.0379 -0.0176  1.1442
   77SLPC  H12A 6951   6.539   2.656   7.026 -1.4685  0.1765 -1.2332
   77SLPC  H12B 6952   6.399   2.568   6.988 -0.2598 -1.2904  1.4190
   77SLPC   C11 6953   6.550   2.438   7.006 -0.6785  1.0721 -0.0219
   77SLPC  H11A 6954   6.560   2.443   6.895  0.0934  0.1270 -0.0089
   77SLPC  H11B 6955   6.480   2.353   7.021 -0.5347  0.9031 -0.2916
   77SLPC     P 6956   6.797   2.496   7.047 -0.3661  0.0419  0.0049
   77SLPC   O13 6957   6.784   2.628   7.107  0.1840  0.7155  0.4227
   77SLPC   O14 6958   6.912   2.419   7.099  0.1246  0.4080 -0.3339
   77SLPC   O12 6959   6.672   2.406   7.074  0.1618  0.2168 -0.0395
   77SLPC   O11 6960   6.812   2.512   6.892 -0.2002 -0.0120  0.0345
   77SLPC    C1 6961   6.935   2.521   6.827  0.6927 -0.0526  0.2522
   77SLPC    HA 6962   6.999   2.442   6.872  0.6750  0.3549  1.0172
   77SLPC    HB 6963   6.928   2.502   6.718  0.5983  1.4147 -0.0150
   77SLPC    C2 6964   7.009   2.653   6.830 -0.2060  0.0827 -0.2909
   77SLPC    HS 6965   7.029   2.692   6.932  1.7547 -0.7046 -0.3345
   77SLPC   O21 6966   6.931   2.738   6.741  0.7331  0.0919  0.3018
   77SLPC   C21 6967   6.956   2.865   6.753  0.1069 -0.5124  0.4967
   77SLPC   O22 6968   7.038   2.909   6.837 -0.1999  0.6838 -0.2827
   77SLPC   C22 6969   6.867   2.947   6.654  0.0344 -0.2793 -0.4250
   77SLPC   H2R 6970   6.788   2.881   6.615 -0.4061  0.1831 -0.3257
   77SLPC   H2S 6971   6.819   3.020   6.723  1.4941 -2.0921  2.7237
   77SLPC    C3 6972   7.160   2.642   6.776  0.2857 -0.5307  0.2992
   77SLPC    HX 6973   7.223   2.589   6.850  2.0688 -2.5670 -2.4447
   77SLPC    HY 6974   7.200   2.745   6.783 -0.1139 -0.1683 -1.8805
   77SLPC   O31 6975   7.162   2.565   6.654 -0.0503 -0.2056 -0.1741
   77SLPC   C31 6976   7.274   2.586   6.577 -0.0911  0.4207  0.0251
   77SLPC   O32 6977   7.365   2.655   6.616  0.5742 -0.0460 -0.7330
   77SLPC   C32 6978   7.245   2.541   6.434  0.7340  0.1041  0.0389
   77SLPC   H2X 6979   7.140   2.572   6.420  0.6605  1.2501  2.5138
   77SLPC   H2Y 6980   7.273   2.433   6.427  4.3080  0.7835  1.2944
   77SLPC   C23 6981   6.937   3.033   6.542  0.2994 -0.3356  0.2575
   77SLPC   H3R 6982   7.009   3.102   6.591  0.9351 -1.7038  1.3319
   77SLPC   H3S 6983   6.858   3.091   6.491  1.4333  0.7683 -0.2868
   77SLPC   C24 6984   7.001   2.948   6.434 -0.0145 -0.4775  0.5951
   77SLPC   H4R 6985   6.942   2.859   6.406  0.6610 -0.9966  0.7802
   77SLPC   H4S 6986   7.092   2.923   6.494 -0.1307 -1.0450  0.5413
   77SLPC   C25 6987   7.048   3.027   6.313  0.0890 -0.7561  0.5967
   77SLPC   H5R 6988   7.085   3.128   6.338 -0.8997 -0.5891  1.4350
   77SLPC   H5S 6989   6.959   3.055   6.253  0.7807  0.7003  0.2158
   77SLPC   C26 6990   7.134   2.935   6.222 -0.3010  0.0447 -0.0067
   77SLPC   H6R 6991   7.068   2.849   6.199 -2.4455  1.4300  0.5939
   77SLPC   H6S 6992   7.225   2.903   6.276  0.5108  2.7794  0.4162
   77SLPC   C27 6993   7.166   3.004   6.087 -0.4220 -0.0157 -0.0668
   77SLPC   H7R 6994   7.257   3.067   6.088 -0.6371  0.4483 -2.7949
   77SLPC   H7S 6995   7.084   3.068   6.049  0.1624  0.5731 -0.3397
   77SLPC   C28 6996   7.183   2.910   5.963 -0.4059 -0.2500 -0.2540
   77SLPC   H8R 6997   7.152   2.968   5.874 -0.9384  0.7646  0.5724
   77SLPC   H8S 6998   7.111   2.829   5.987  0.5881 -1.1673 -0.2605
   77SLPC   C29 6999   7.317   2.838   5.959 -0.4502  0.3755 -0.2183
   77SLPC   H9R 7000   7.363   2.820   6.058 -0.1709  0.0168 -0.4101
   77SLPC  C210 7001   7.394   2.806   5.856  0.2360  0.7179 -0.1040
   77SLPC  H10R 7002   7.497   2.774   5.876  0.7298  1.8722 -0.7165
   77SLPC  C211 7003   7.365   2.833   5.714 -0.3731  0.4636  0.0787
   77SLPC  H11R 7004   7.407   2.931   5.681 -0.8802  1.1588  1.3757
   77SLPC  H11S 7005   7.258   2.861   5.704  0.0859  2.7398  0.7422
   77SLPC  C212 7006   7.397   2.712   5.632 -0.1597  0.1792  0.1052
   77SLPC  H12R 7007   7.480   2.648   5.665  0.3126  0.6279 -0.2027
   77SLPC  C213 7008   7.334   2.669   5.519 -0.0178  0.8463 -0.7647
   77SLPC  H13R 7009   7.380   2.577   5.482 -0.9961  0.3739 -0.8310
   77SLPC  C214 7010   7.215   2.739   5.456  0.0804  0.8651  0.1220
   77SLPC  H14R 7011   7.182   2.823   5.520 -1.0370  0.2701  0.3732
   77SLPC  H14S 7012   7.132   2.665   5.449  1.5857 -0.8802  0.0119
   77SLPC  C215 7013   7.233   2.801   5.313 -0.6213  0.3874 -0.4629
   77SLPC  H15R 7014   7.306   2.884   5.305  0.5663 -0.7117 -1.4881
   77SLPC  H15S 7015   7.133   2.845   5.293 -1.1163 -0.8613 -0.8258
   77SLPC  C216 7016   7.267   2.703   5.196  0.7297  0.2457  0.1764
   77SLPC  H16R 7017   7.192   2.626   5.169  2.4416 -1.3509 -0.1276
   77SLPC  H16S 7018   7.362   2.653   5.225  0.4815 -2.2976 -2.9029
   77SLPC  C217 7019   7.303   2.771   5.062  0.2478 -0.1019 -0.2262
   77SLPC  H17R 7020   7.392   2.836   5.072 -1.1317  2.2532 -2.0848
   77SLPC  H17S 7021   7.216   2.835   5.035  1.1012  1.7298  1.1848
   77SLPC  C218 7022   7.327   2.664   4.960 -0.0523  0.5268 -0.0322
   77SLPC  H18R 7023   7.348   2.720   4.866  0.2691  0.8011  0.2012
   77SLPC  H18S 7024   7.232   2.606   4.951 -1.1474  2.1132  0.7651
   77SLPC  H18T 7025   7.408   2.594   4.986  0.4525  1.4499  0.9180
   77SLPC   C33 7026   7.317   2.622   6.327 -0.4646  0.0899  0.0976
   77SLPC   H3X 7027   7.310   2.727   6.365 -0.3793  0.4955 -0.9716
   77SLPC   H3Y 7028   7.268   2.618   6.227 -1.6004  0.9799  0.5929
   77SLPC   C34 7029   7.460   2.570   6.309  0.1091 -0.4378  0.4242
   77SLPC   H4X 7030   7.502   2.563   6.412 -1.9920  1.4486  1.4881
   77SLPC   H4Y 7031   7.521   2.646   6.257 -1.5848  1.1225  0.6424
   77SLPC   C35 7032   7.482   2.432   6.239  0.5186  0.1206  0.7441
   77SLPC   H5X 7033   7.443   2.344   6.294 -1.5618  1.3087  1.2790
   77SLPC   H5Y 7034   7.591   2.413   6.231  0.6566  0.5957  1.4000
   77SLPC   C36 7035   7.415   2.432   6.095 -0.1597 -0.1881 -0.3666
   77SLPC   H6X 7036   7.444   2.531   6.053  0.9212  0.5389  1.9422
   77SLPC   H6Y 7037   7.304   2.427   6.102 -0.1341  0.4277  0.7948
   77SLPC   C37 7038   7.466   2.323   6.005  0.1977  0.2606 -0.0396
   77SLPC   H7X 7039   7.419   2.228   6.038  2.5044 -0.9475 -0.0197
   77SLPC   H7Y 7040   7.576   2.308   6.017  0.2436 -1.9862 -2.3246
   77SLPC   C38 7041   7.443   2.354   5.857  0.0755  0.3988 -0.4881
   77SLPC   H8X 7042   7.520   2.431   5.836  2.1931 -1.7557 -1.0063
   77SLPC   H8Y 7043   7.339   2.394   5.850  0.1319  0.5519 -0.4702
   77SLPC   C39 7044   7.467   2.235   5.772  0.0037 -0.1036  0.2280
   77SLPC   H9X 7045   7.366   2.192   5.759 -0.4181  0.5640  1.2210
   77SLPC   H9Y 7046   7.542   2.166   5.816  1.2527  1.2443  0.2972
   77SLPC  C310 7047   7.513   2.281   5.635  0.2086 -0.1135  0.8038
   77SLPC  H10X 7048   7.613   2.326   5.646 -0.3801  1.8106 -0.9886
   77SLPC  H10Y 7049   7.452   2.367   5.598  1.1115  0.8026  1.3983
   77SLPC  C311 7050   7.529   2.156   5.537  0.4550 -0.1027 -0.1750
   77SLPC  H11X 7051   7.421   2.132   5.524  0.7248 -0.3677 -2.1356
   77SLPC  H11Y 7052   7.567   2.070   5.596 -1.0911 -0.2398  0.6739
   77SLPC  C312 7053   7.618   2.193   5.420 -0.4964 -0.6150  0.4587
   77SLPC  H12X 7054   7.723   2.223   5.443 -0.9183  0.9891  0.3631
   77SLPC  H12Y 7055   7.572   2.285   5.380 -2.1153 -0.9176  1.5351
   77SLPC  C313 7056   7.625   2.092   5.295 -0.0970 -0.2777  0.0024
   77SLPC  H13X 7057   7.519   2.087   5.263 -0.5878  1.8903  1.1071
   77SLPC  H13Y 7058   7.662   2.001   5.347  2.5525  1.1568  0.8102
   77SLPC  C314 7059   7.715   2.147   5.180 -0.1937 -0.3463 -0.0649
   77SLPC  H14X 7060   7.822   2.138   5.208 -0.1956 -1.5376 -0.3704
   77SLPC  H14Y 7061   7.694   2.254   5.160 -1.2112 -0.2434  1.4393
   77SLPC  C315 7062   7.717   2.062   5.053 -0.1670 -0.0413  0.2438
   77SLPC  H15X 7063   7.617   2.061   5.004  0.3429  0.5118 -0.8567
   77SLPC  H15Y 7064   7.737   1.955   5.078  2.8198 -0.0832 -1.8450
   77SLPC  C316 7065   7.815   2.095   4.939  0.0961 -0.0771 -0.3664
   77SLPC  H16X 7066   7.810   2.202   4.912 -1.5146  0.3782  1.4870
   77SLPC  H16Y 7067   7.786   2.042   4.846 -0.8572  0.8942 -0.6441
   77SLPC  C317 7068   7.968   2.067   4.964 -0.4237  0.1097 -0.6602
   77SLPC  H17X 7069   7.982   1.965   5.006 -0.5354 -0.7701 -2.6604
   77SLPC  H17Y 7070   8.003   2.141   5.040  0.7964  0.0664 -1.1622
   77SLPC  C318 7071   8.059   2.090   4.839  0.3134  0.6120 -0.7755
   77SLPC  H18X 7072   8.026   2.021   4.758 -0.7879 -0.1781  0.3099
   77SLPC  H18Y 7073   8.166   2.079   4.866 -0.0910  1.6201  1.4957
   77SLPC  H18Z 7074   8.049   2.191   4.792 -0.0328  0.3826 -1.2012
   78SLPC     N 7075   1.999   6.002   7.057  0.2507  0.3687  0.9387
   78SLPC   C13 7076   1.869   6.024   7.121 -0.3798  1.0415  0.4308
   78SLPC  H13A 7077   1.840   5.923   7.150 -1.0732  0.9297 -0.5998
   78SLPC  H13B 7078   1.876   6.078   7.214 -1.6588 -0.5155  1.4935
   78SLPC  H13C 7079   1.799   6.061   7.047  0.9790 -2.9204 -3.2756
   78SLPC   C14 7080   2.103   5.949   7.152  0.0364 -0.7070 -0.2514
   78SLPC  H14A 7081   2.198   5.937   7.102 -0.3855  1.1163 -1.5827
   78SLPC  H14B 7082   2.120   6.016   7.235 -1.6505 -1.9580  1.2072
   78SLPC  H14C 7083   2.077   5.858   7.205 -0.4358  0.3638  1.4449
   78SLPC   C15 7084   2.040   6.139   7.008 -0.6696  0.9510 -0.1432
   78SLPC  H15A 7085   2.117   6.117   6.936  1.8018  0.7676  2.3588
   78SLPC  H15B 7086   1.964   6.205   6.969 -1.0892 -0.0413 -1.0353
   78SLPC  H15C 7087   2.090   6.189   7.090  0.9972 -0.2824 -0.3707
   78SLPC   C12 7088   1.990   5.911   6.936  0.6009 -0.0691 -0.1629
   78SLPC  H12A 7089   1.929   5.972   6.872 -1.2851 -1.1134  0.5623
   78SLPC  H12B 7090   1.936   5.823   6.969 -0.9832  0.2098 -1.8655
   78SLPC   C11 7091   2.122   5.866   6.867  0.0980  0.0888  0.6971
   78SLPC  H11A 7092   2.099   5.794   6.785  2.0102 -1.8493  1.7457
   78SLPC  H11B 7093   2.187   5.805   6.934  0.7369 -0.1475 -0.1138
   78SLPC     P 7094   2.326   5.985   6.748  0.3878 -0.0768 -0.0792
   78SLPC   O13 7095   2.367   6.123   6.700  0.5091 -0.3046 -0.3841
   78SLPC   O14 7096   2.419   5.922   6.846 -0.5053 -0.4818 -0.1890
   78SLPC   O12 7097   2.188   5.988   6.823 -0.2465 -0.1087  0.5940
   78SLPC   O11 7098   2.305   5.892   6.618 -0.3950 -0.3071 -0.1835
   78SLPC    C1 7099   2.206   5.918   6.517  0.0001  0.4950  0.0081
   78SLPC    HA 7100   2.176   5.820   6.473 -0.3501  1.5095 -2.1360
   78SLPC    HB 7101   2.111   5.957   6.558 -0.0764  0.0777  0.2396
   78SLPC    C2 7102   2.271   5.996   6.395  0.3964  0.2168 -0.6051
   78SLPC    HS 7103   2.300   6.092   6.442  2.9362 -0.8549  0.1615
   78SLPC   O21 7104   2.169   5.994   6.299 -0.2283 -0.1420 -0.2061
   78SLPC   C21 7105   2.147   6.111   6.253  0.0840 -0.5878  0.5217
   78SLPC   O22 7106   2.188   6.222   6.290 -0.1410  0.0053  0.2765
   78SLPC   C22 7107   2.063   6.089   6.130  0.8235  0.4061 -1.6752
   78SLPC   H2R 7108   2.027   5.985   6.141  0.4485  0.6860  0.1711
   78SLPC   H2S 7109   1.980   6.164   6.134  0.8745  0.3968  1.2795
   78SLPC    C3 7110   2.397   5.927   6.339 -0.1253 -0.0432 -0.0738
   78SLPC    HX 7111   2.379   5.824   6.302 -0.6171 -0.0152  0.0764
   78SLPC    HY 7112   2.463   5.918   6.428  1.3319  1.9323 -0.8944
   78SLPC   O31 7113   2.463   6.003   6.237 -0.0111  0.3305  0.0090
   78SLPC   C31 7114   2.579   6.053   6.261  0.5805 -0.0756  0.3183
   78SLPC   O32 7115   2.644   6.041   6.364  0.3824  0.2899 -0.8753
   78SLPC   C32 7116   2.637   6.117   6.139 -0.0303 -0.0081  0.2385
   78SLPC   H2X 7117   2.737   6.071   6.124 -1.0766 -2.0817 -0.7610
   78SLPC   H2Y 7118   2.657   6.226   6.151 -0.5233  0.2791 -1.3189
   78SLPC   C23 7119   2.146   6.115   6.003  0.6062  0.6120 -0.1078
   78SLPC   H3R 7120   2.236   6.050   6.005  0.6704  0.7042 -0.0234
   78SLPC   H3S 7121   2.188   6.217   6.009  0.0795  0.7528  1.6811
   78SLPC   C24 7122   2.069   6.082   5.877 -0.5792 -0.5331 -0.2721
   78SLPC   H4R 7123   2.103   6.153   5.798  1.2565 -1.1494 -0.0922
   78SLPC   H4S 7124   1.962   6.107   5.889  0.2231  2.9859  0.4930
   78SLPC   C25 7125   2.088   5.929   5.834  0.1112 -0.2074  1.5164
   78SLPC   H5R 7126   2.038   5.860   5.905 -1.7421  1.2495  1.7263
   78SLPC   H5S 7127   2.196   5.903   5.831  0.2819  0.5724 -0.1540
   78SLPC   C26 7128   2.028   5.895   5.690 -0.0857 -0.4585  0.0847
   78SLPC   H6R 7129   1.921   5.871   5.711  0.2003 -0.7896  1.2351
   78SLPC   H6S 7130   2.067   5.800   5.646  0.8227  0.1784 -0.5212
   78SLPC   C27 7131   2.023   6.001   5.586 -0.3954  0.6576  0.3398
   78SLPC   H7R 7132   1.976   6.090   5.632 -0.4451  0.4737  0.6473
   78SLPC   H7S 7133   1.958   5.968   5.503 -0.7443  0.6205  0.6259
   78SLPC   C28 7134   2.162   6.041   5.529  0.0601  0.1562  0.4312
   78SLPC   H8R 7135   2.184   5.959   5.458  1.0115  2.3294 -1.9381
   78SLPC   H8S 7136   2.242   6.020   5.604  2.0205 -0.5952 -1.7509
   78SLPC   C29 7137   2.183   6.179   5.470 -0.2244 -0.4937  0.1856
   78SLPC   H9R 7138   2.181   6.263   5.541 -1.4790 -0.5621  0.2470
   78SLPC  C210 7139   2.198   6.208   5.338 -0.5817 -0.1318 -0.1803
   78SLPC  H10R 7140   2.206   6.313   5.306  0.7505  0.6256  2.3607
   78SLPC  C211 7141   2.208   6.109   5.224 -0.5791 -0.6073 -0.9043
   78SLPC  H11R 7142   2.259   6.014   5.251  2.5475  1.7659  2.4744
   78SLPC  H11S 7143   2.274   6.155   5.147  0.5067 -0.6689 -0.0436
   78SLPC  C212 7144   2.064   6.091   5.185 -0.0636  0.0825 -0.3580
   78SLPC  H12R 7145   2.031   5.991   5.217  1.5813  0.4308  2.8379
   78SLPC  C213 7146   1.985   6.169   5.107 -0.1507 -0.0098  0.0856
   78SLPC  H13R 7147   1.880   6.147   5.086 -0.7102  0.8793  1.7490
   78SLPC  C214 7148   2.026   6.303   5.037  0.1679 -0.6195  0.5813
   78SLPC  H14R 7149   2.136   6.318   5.038 -0.0823  1.4268  0.8511
   78SLPC  H14S 7150   1.966   6.380   5.089  1.4562  0.2176  0.8590
   78SLPC  C215 7151   1.979   6.306   4.888  0.2269 -0.2139 -0.3257
   78SLPC  H15R 7152   1.869   6.318   4.900  0.1476 -1.6033  0.5278
   78SLPC  H15S 7153   2.009   6.220   4.825 -2.3246 -0.0667 -1.9280
   78SLPC  C216 7154   2.033   6.438   4.823  0.2113 -0.5243 -0.3731
   78SLPC  H16R 7155   2.143   6.436   4.809  0.1884  2.8121 -2.0662
   78SLPC  H16S 7156   2.017   6.525   4.890 -3.0384 -1.6703  0.5404
   78SLPC  C217 7157   1.972   6.467   4.680  0.6190  0.3477 -0.4203
   78SLPC  H17R 7158   1.875   6.521   4.683  0.5916  0.2754  0.1387
   78SLPC  H17S 7159   1.948   6.368   4.636 -0.8379 -0.5718  2.2511
   78SLPC  C218 7160   2.068   6.539   4.583 -0.1994 -0.6124 -0.3309
   78SLPC  H18R 7161   2.026   6.558   4.482 -0.6740 -0.7997 -0.1720
   78SLPC  H18S 7162   2.158   6.474   4.574  0.5357  0.4277 -0.7468
   78SLPC  H18T 7163   2.101   6.636   4.625 -3.1344  1.2778 -2.0056
   78SLPC   C33 7164   2.552   6.115   6.005 -0.1322 -0.0458 -0.5254
   78SLPC   H3X 7165   2.455   6.168   6.020 -0.0464  0.0836 -0.4312
   78SLPC   H3Y 7166   2.523   6.009   5.987 -0.5271 -0.0548  0.1544
   78SLPC   C34 7167   2.623   6.185   5.884  0.4230  0.0710 -0.7646
   78SLPC   H4X 7168   2.730   6.155   5.877  0.5166 -1.0814  3.2473
   78SLPC   H4Y 7169   2.616   6.293   5.907  1.3200 -0.1102  0.4648
   78SLPC   C35 7170   2.544   6.148   5.756 -0.4324  0.3295 -0.6658
   78SLPC   H5X 7171   2.441   6.189   5.745  0.6556  3.8203  0.7564
   78SLPC   H5Y 7172   2.534   6.038   5.762 -1.5792  0.4631  0.6212
   78SLPC   C36 7173   2.620   6.195   5.630 -0.2251 -0.9289  0.1859
   78SLPC   H6X 7174   2.728   6.170   5.635  0.1653  0.7945  0.7535
   78SLPC   H6Y 7175   2.618   6.304   5.649 -1.2338 -0.8735 -0.1685
   78SLPC   C37 7176   2.556   6.157   5.502 -1.0683  0.1974 -0.3386
   78SLPC   H7X 7177   2.452   6.196   5.503 -1.1904  0.0491 -2.3919
   78SLPC   H7Y 7178   2.555   6.046   5.501 -1.1531  0.1457  1.8112
   78SLPC   C38 7179   2.633   6.213   5.384  1.0371  0.9060 -0.1883
   78SLPC   H8X 7180   2.736   6.172   5.374  0.6305  0.3360 -2.9754
   78SLPC   H8Y 7181   2.650   6.322   5.397  1.5205  0.7262  0.7273
   78SLPC   C39 7182   2.571   6.186   5.248  0.3608 -0.0823 -0.2688
   78SLPC   H9X 7183   2.468   6.228   5.243 -0.2606 -1.5615 -0.2126
   78SLPC   H9Y 7184   2.562   6.077   5.232  2.0728 -0.0260 -2.0612
   78SLPC  C310 7185   2.644   6.231   5.128 -0.2020  0.2827 -0.0388
   78SLPC  H10X 7186   2.729   6.161   5.112 -1.0914 -1.0059  0.7015
   78SLPC  H10Y 7187   2.705   6.324   5.135  2.2936 -1.1336 -1.2976
   78SLPC  C311 7188   2.556   6.225   5.003 -1.2763  0.8193  0.1203
   78SLPC  H11X 7189   2.596   6.286   4.920 -2.1964 -0.0729 -1.0043
   78SLPC  H11Y 7190   2.459   6.274   5.023 -0.9765  1.0983  0.9373
   78SLPC  C312 7191   2.514   6.086   4.954  0.5282 -0.5718 -0.7910
   78SLPC  H12X 7192   2.448   6.038   5.029 -0.8907  2.0128 -0.2557
   78SLPC  H12Y 7193   2.603   6.022   4.939 -1.0351 -3.3918  1.0850
   78SLPC  C313 7194   2.433   6.099   4.826  0.4781 -1.0003 -0.1471
   78SLPC  H13X 7195   2.488   6.162   4.753 -1.4220  2.0072  0.8181
   78SLPC  H13Y 7196   2.327   6.135   4.831  1.2797  1.4482  1.1138
   78SLPC  C314 7197   2.412   5.954   4.774 -0.4486  0.5319 -0.7241
   78SLPC  H14X 7198   2.383   5.891   4.860  0.7181  0.5395 -0.3133
   78SLPC  H14Y 7199   2.516   5.925   4.748  0.6599  2.0188  1.6392
   78SLPC  C315 7200   2.300   5.939   4.675  0.0415 -0.4230  0.7200
   78SLPC  H15X 7201   2.203   5.963   4.724 -1.0108 -2.4610 -0.2435
   78SLPC  H15Y 7202   2.310   5.832   4.646 -0.0436 -1.0979  3.0268
   78SLPC  C316 7203   2.305   6.025   4.544 -0.5735  0.0069 -0.8797
   78SLPC  H16X 7204   2.295   6.128   4.585 -1.8778  0.7874 -3.0198
   78SLPC  H16Y 7205   2.210   6.014   4.488 -1.5529 -0.5445  0.8143
   78SLPC  C317 7206   2.427   5.999   4.451 -0.4536 -0.2768  0.0816
   78SLPC  H17X 7207   2.414   5.896   4.414  0.9840 -1.2367  2.0647
   78SLPC  H17Y 7208   2.517   6.007   4.515 -1.0563  1.1644  0.8157
   78SLPC  C318 7209   2.427   6.101   4.339 -0.1746 -0.5340  0.5384
   78SLPC  H18X 7210   2.482   6.067   4.249 -1.2917  0.1328 -0.4227
   78SLPC  H18Y 7211   2.462   6.202   4.367 -0.9675  0.6847 -2.5033
   78SLPC  H18Z 7212   2.321   6.113   4.309 -1.1112 -2.0684  2.9008
   79SLPC     N 7213   0.709   1.420   6.828  0.0424  0.1265  0.2341
   79SLPC   C13 7214   0.681   1.335   6.712  0.2633 -1.2729 -0.5103
   79SLPC  H13A 7215   0.654   1.385   6.621 -1.2711 -1.5954 -0.2518
   79SLPC  H13B 7216   0.769   1.279   6.684  1.2533  0.3621 -0.7871
   79SLPC  H13C 7217   0.609   1.257   6.730 -0.7478 -1.1194 -3.3566
   79SLPC   C14 7218   0.793   1.339   6.926 -0.5539  0.1775  0.1009
   79SLPC  H14A 7219   0.877   1.301   6.870 -0.5504 -1.1617  0.9685
   79SLPC  H14B 7220   0.836   1.406   6.999  1.0298 -2.0613  1.3592
   79SLPC  H14C 7221   0.742   1.254   6.968  0.6075 -1.9659 -2.5295
   79SLPC   C15 7222   0.580   1.456   6.882  0.3256  0.3890 -0.1606
   79SLPC  H15A 7223   0.533   1.524   6.813  1.3437  1.6640  0.3566
   79SLPC  H15B 7224   0.518   1.368   6.895  0.7669  0.0121 -0.5643
   79SLPC  H15C 7225   0.581   1.517   6.971  1.1812  1.9358 -1.1822
   79SLPC   C12 7226   0.797   1.546   6.790  0.6190  0.2421 -0.1918
   79SLPC  H12A 7227   0.891   1.511   6.750  0.7598 -0.8910  1.0482
   79SLPC  H12B 7228   0.822   1.603   6.878 -1.4427 -0.1861  0.7393
   79SLPC   C11 7229   0.744   1.650   6.691  0.0478 -0.4922 -0.0723
   79SLPC  H11A 7230   0.689   1.596   6.611 -0.7758 -0.3713  0.3918
   79SLPC  H11B 7231   0.828   1.702   6.641 -1.1897 -0.3891 -2.1408
   79SLPC     P 7232   0.707   1.848   6.862 -0.3237  0.6109 -0.0591
   79SLPC   O13 7233   0.593   1.930   6.916 -0.0251 -0.1157 -0.5815
   79SLPC   O14 7234   0.791   1.780   6.966  0.5439  0.4870  0.3553
   79SLPC   O12 7235   0.650   1.731   6.764 -0.1671 -0.5520  0.9055
   79SLPC   O11 7236   0.807   1.921   6.772 -0.2401 -0.7190 -0.6911
   79SLPC    C1 7237   0.762   2.040   6.700 -0.6416 -0.9912  0.5148
   79SLPC    HA 7238   0.665   2.080   6.737 -0.4786  0.1155 -0.2167
   79SLPC    HB 7239   0.823   2.131   6.714 -2.0384 -0.0269  0.4920
   79SLPC    C2 7240   0.764   2.015   6.547  0.2364 -0.2542  0.7239
   79SLPC    HS 7241   0.727   1.913   6.523  2.0918 -0.6707 -0.6279
   79SLPC   O21 7242   0.899   2.032   6.507  0.0252  0.6231  0.4833
   79SLPC   C21 7243   0.938   1.943   6.413 -0.0798 -0.7257 -0.0445
   79SLPC   O22 7244   0.863   1.867   6.351  0.5082 -0.1143  0.2765
   79SLPC   C22 7245   1.093   1.961   6.392  0.4293 -0.2036  0.6137
   79SLPC   H2R 7246   1.111   2.068   6.367  1.0702 -0.2816  0.7240
   79SLPC   H2S 7247   1.143   1.944   6.490 -2.5420  1.0000  2.4864
   79SLPC    C3 7248   0.671   2.112   6.467  0.1432  0.2995  0.0434
   79SLPC    HX 7249   0.715   2.212   6.487 -0.8041  0.4908  1.3330
   79SLPC    HY 7250   0.567   2.116   6.507 -0.1899  2.6368 -0.9151
   79SLPC   O31 7251   0.674   2.090   6.324  0.3507  1.1275  0.3231
   79SLPC   C31 7252   0.590   1.994   6.292  0.1632  0.0764  1.1732
   79SLPC   O32 7253   0.511   1.936   6.364  0.5006 -0.1417 -0.0722
   79SLPC   C32 7254   0.617   1.953   6.141  0.4921 -0.5442 -0.3162
   79SLPC   H2X 7255   0.673   1.857   6.147 -1.5595 -1.8237 -0.6107
   79SLPC   H2Y 7256   0.679   2.035   6.099 -2.5986  2.4277  0.4736
   79SLPC   C23 7257   1.145   1.870   6.283  0.3070  0.3793  0.7870
   79SLPC   H3R 7258   1.089   1.888   6.189 -1.6120 -1.5238  1.4764
   79SLPC   H3S 7259   1.131   1.763   6.312 -1.8676  0.0914 -1.0657
   79SLPC   C24 7260   1.294   1.888   6.251 -0.2875 -0.4775  0.2707
   79SLPC   H4R 7261   1.351   1.905   6.345  0.9536  0.5982 -0.6284
   79SLPC   H4S 7262   1.316   1.979   6.191  2.7216 -0.6608  0.9111
   79SLPC   C25 7263   1.354   1.778   6.160 -0.1611 -0.9584  0.3167
   79SLPC   H5R 7264   1.319   1.684   6.209 -0.9369 -0.4024  0.8684
   79SLPC   H5S 7265   1.465   1.778   6.161 -0.1595 -0.5857  0.0372
   79SLPC   C26 7266   1.304   1.806   6.019  0.7935 -0.3614 -0.2914
   79SLPC   H6R 7267   1.351   1.896   5.973  0.5993  0.1592  0.5212
   79SLPC   H6S 7268   1.194   1.818   6.014  0.6288 -1.7337 -0.0713
   79SLPC   C27 7269   1.342   1.689   5.931  0.6303 -0.0172 -0.0837
   79SLPC   H7R 7270   1.295   1.594   5.964  2.0669 -1.1075 -1.0642
   79SLPC   H7S 7271   1.451   1.669   5.942  0.4385 -1.0153  0.0364
   79SLPC   C28 7272   1.307   1.712   5.778  0.5685 -0.2612 -0.3355
   79SLPC   H8R 7273   1.278   1.817   5.758 -0.7045 -0.6193 -0.4634
   79SLPC   H8S 7274   1.209   1.663   5.761  0.1627  0.6748 -0.7770
   79SLPC   C29 7275   1.406   1.683   5.665 -1.0499 -0.0198  0.2523
   79SLPC   H9R 7276   1.395   1.597   5.598 -0.8714  0.7806 -0.8377
   79SLPC  C210 7277   1.527   1.749   5.660 -0.4616 -0.0326  0.3801
   79SLPC  H10R 7278   1.606   1.716   5.591  1.7385 -1.2642  3.2819
   79SLPC  C211 7279   1.577   1.875   5.731 -0.6636  0.8048 -0.5438
   79SLPC  H11R 7280   1.652   1.845   5.808 -0.6525  1.7324 -0.1838
   79SLPC  H11S 7281   1.491   1.925   5.781  0.1684  2.5769 -0.7981
   79SLPC  C212 7282   1.641   1.961   5.629 -0.2347 -0.4691 -0.0912
   79SLPC  H12R 7283   1.575   1.969   5.541 -1.1561 -1.3435  0.4951
   79SLPC  C213 7284   1.755   2.029   5.638  0.0316 -0.0621  0.1076
   79SLPC  H13R 7285   1.784   2.093   5.553  1.8895 -0.6667  0.2345
   79SLPC  C214 7286   1.847   2.039   5.760  1.1677  0.0257  0.9830
   79SLPC  H14R 7287   1.948   2.004   5.729  0.9447  0.0110  0.2630
   79SLPC  H14S 7288   1.824   1.977   5.850  2.2037  1.0169  1.9644
   79SLPC  C215 7289   1.850   2.179   5.817  1.2632  0.3723 -0.0424
   79SLPC  H15R 7290   1.874   2.249   5.734 -2.0360  0.0569 -1.4286
   79SLPC  H15S 7291   1.934   2.179   5.890  0.6096 -0.7974  0.7421
   79SLPC  C216 7292   1.724   2.232   5.877 -0.3114  0.1619  0.4084
   79SLPC  H16R 7293   1.633   2.206   5.818 -0.1250  1.8829 -0.6998
   79SLPC  H16S 7294   1.732   2.342   5.882 -1.6909  0.2952  0.1231
   79SLPC  C217 7295   1.698   2.175   6.024 -0.7839 -0.4350 -0.4810
   79SLPC  H17R 7296   1.788   2.192   6.088 -1.9264  1.3611  0.7520
   79SLPC  H17S 7297   1.671   2.067   6.023 -0.7651 -0.4626 -2.5637
   79SLPC  C218 7298   1.599   2.247   6.113  0.0118 -0.1114  0.6319
   79SLPC  H18R 7299   1.497   2.224   6.075  0.0992  0.0123  0.3214
   79SLPC  H18S 7300   1.616   2.357   6.117 -1.2675  0.1025  0.6613
   79SLPC  H18T 7301   1.597   2.213   6.219  2.3333 -0.6450  0.5516
   79SLPC   C33 7302   0.486   1.952   6.051 -0.2901 -0.5920 -0.6997
   79SLPC   H3X 7303   0.442   2.053   6.034 -1.3600 -0.6612  1.3131
   79SLPC   H3Y 7304   0.413   1.892   6.111 -0.1688 -0.9901 -0.9505
   79SLPC   C34 7305   0.518   1.884   5.925  0.2646 -0.1309  0.2890
   79SLPC   H4X 7306   0.579   1.791   5.932  0.2321 -0.0989  1.1269
   79SLPC   H4Y 7307   0.591   1.937   5.860 -0.9505  0.8356 -0.3343
   79SLPC   C35 7308   0.388   1.837   5.856  0.6412  0.0011 -0.2978
   79SLPC   H5X 7309   0.329   1.927   5.825  1.4347  0.1272 -1.5076
   79SLPC   H5Y 7310   0.337   1.781   5.937 -0.3594  0.0707 -0.8551
   79SLPC   C36 7311   0.401   1.746   5.730  0.2552  0.0281  0.0386
   79SLPC   H6X 7312   0.298   1.708   5.711  1.0107 -0.6949 -3.2558
   79SLPC   H6Y 7313   0.465   1.662   5.763 -3.4846 -2.8056  0.7510
   79SLPC   C37 7314   0.436   1.816   5.600  0.0399 -0.1062  0.4370
   79SLPC   H7X 7315   0.533   1.869   5.608  0.0444  0.5064 -2.5682
   79SLPC   H7Y 7316   0.364   1.897   5.575  3.1507  3.1884  1.3516
   79SLPC   C38 7317   0.441   1.711   5.485  0.3982  0.1559 -0.3591
   79SLPC   H8X 7318   0.336   1.677   5.478  0.6470 -1.3370  2.1322
   79SLPC   H8Y 7319   0.510   1.630   5.516  1.3339  0.3363 -1.8308
   79SLPC   C39 7320   0.485   1.768   5.353  0.3076 -0.0252  0.1664
   79SLPC   H9X 7321   0.592   1.800   5.358  0.3681 -0.3005  0.6463
   79SLPC   H9Y 7322   0.426   1.862   5.349 -0.2734 -0.4214 -0.8327
   79SLPC  C310 7323   0.470   1.670   5.240  0.8673  0.6908  0.7975
   79SLPC  H10X 7324   0.520   1.730   5.160 -0.7317  1.4452  0.3218
   79SLPC  H10Y 7325   0.364   1.650   5.216  1.6615 -0.5425 -2.1413
   79SLPC  C311 7326   0.541   1.530   5.255 -0.3584  0.1396 -0.8602
   79SLPC  H11X 7327   0.483   1.471   5.329 -0.3727  0.3906 -0.6736
   79SLPC  H11Y 7328   0.648   1.533   5.282 -0.7998 -1.7289  1.3807
   79SLPC  C312 7329   0.545   1.443   5.125 -0.2097 -0.2149 -0.2373
   79SLPC  H12X 7330   0.556   1.516   5.041 -0.6796  2.7454  2.1252
   79SLPC  H12Y 7331   0.444   1.396   5.119 -0.4837  0.4519 -1.2055
   79SLPC  C313 7332   0.643   1.330   5.119 -0.8415 -0.6541 -0.1389
   79SLPC  H13X 7333   0.627   1.255   5.200 -2.1332  0.3123  0.5356
   79SLPC  H13Y 7334   0.741   1.381   5.125 -1.4646  0.9020 -2.0985
   79SLPC  C314 7335   0.641   1.250   4.989 -0.3306  0.5122  0.4122
   79SLPC  H14X 7336   0.545   1.193   4.984  0.9017 -1.5805 -1.3622
   79SLPC  H14Y 7337   0.723   1.176   4.993 -0.8427 -0.0244  2.2257
   79SLPC  C315 7338   0.652   1.341   4.862 -0.0464  0.1252 -0.4169
   79SLPC  H15X 7339   0.721   1.428   4.876 -1.6523  1.4134 -0.2044
   79SLPC  H15Y 7340   0.562   1.403   4.843  0.1753 -0.0177 -2.1264
   79SLPC  C316 7341   0.674   1.255   4.736  0.0013  0.3753 -0.6086
   79SLPC  H16X 7342   0.596   1.178   4.721  0.7081 -0.7257  1.1012
   79SLPC  H16Y 7343   0.772   1.204   4.744 -0.3674 -0.0213  2.4866
   79SLPC  C317 7344   0.671   1.352   4.611 -0.3891  0.3828 -0.9447
   79SLPC  H17X 7345   0.748   1.432   4.614  0.3062 -0.1070 -3.4484
   79SLPC  H17Y 7346   0.575   1.408   4.616 -1.1656 -1.0121  0.9917
   79SLPC  C318 7347   0.692   1.278   4.483 -0.7424 -0.1778 -0.1798
   79SLPC  H18X 7348   0.694   1.359   4.408  1.0787  0.0617  0.0787
   79SLPC  H18Y 7349   0.610   1.205   4.467 -1.9038  0.6080  1.8216
   79SLPC  H18Z 7350   0.791   1.228   4.471 -0.6469  0.2376 -1.1854
   80SLPC     N 7351   1.007   0.667   6.710 -0.6538  0.2011 -0.0653
   80SLPC   C13 7352   1.141   0.739   6.727 -1.1736  0.3760  0.2389
   80SLPC  H13A 7353   1.209   0.675   6.781  0.3905  1.9304  0.1947
   80SLPC  H13B 7354   1.196   0.754   6.636  0.0379  1.1981  1.0782
   80SLPC  H13C 7355   1.138   0.835   6.778 -0.2079  1.0271 -0.8738
   80SLPC   C14 7356   1.021   0.515   6.690  0.1628 -0.4617 -0.5510
   80SLPC  H14A 7357   1.083   0.462   6.760 -0.0963 -0.2200 -0.1357
   80SLPC  H14B 7358   0.925   0.467   6.702 -1.2788  2.0212 -1.4423
   80SLPC  H14C 7359   1.057   0.503   6.589  0.0642  0.7862 -0.7471
   80SLPC   C15 7360   0.932   0.724   6.590 -0.0880  0.3749  0.1765
   80SLPC  H15A 7361   0.937   0.832   6.593 -0.4718  0.3753  1.1206
   80SLPC  H15B 7362   0.975   0.695   6.495  0.3932 -1.1287  0.8153
   80SLPC  H15C 7363   0.831   0.691   6.604  0.5178 -1.7581 -0.1450
   80SLPC   C12 7364   0.926   0.683   6.841  0.2801 -0.2545  0.4260
   80SLPC  H12A 7365   0.963   0.775   6.884 -1.0715  2.5565 -3.8302
   80SLPC  H12B 7366   0.954   0.601   6.907  1.3062 -1.3183 -1.2470
   80SLPC   C11 7367   0.773   0.681   6.841  0.4748 -0.7503  0.1702
   80SLPC  H11A 7368   0.741   0.776   6.792 -2.4943 -1.1189  1.1943
   80SLPC  H11B 7369   0.727   0.690   6.941 -4.0810 -1.2023 -1.6697
   80SLPC     P 7370   0.699   0.433   6.832 -0.3987  0.2882 -0.0484
   80SLPC   O13 7371   0.813   0.346   6.793  0.2723 -0.2400  0.7483
   80SLPC   O14 7372   0.680   0.465   6.973  0.0831 -0.2779  0.0521
   80SLPC   O12 7373   0.730   0.570   6.771  0.2184  0.3104  0.2388
   80SLPC   O11 7374   0.566   0.384   6.767 -1.0141  0.2325  0.1596
   80SLPC    C1 7375   0.537   0.427   6.632 -0.8359  0.0197 -0.4038
   80SLPC    HA 7376   0.437   0.398   6.594 -0.4523 -2.4745  0.3134
   80SLPC    HB 7377   0.531   0.538   6.631 -0.7188  0.0446  0.4730
   80SLPC    C2 7378   0.640   0.381   6.528 -0.3034 -0.8474  0.2483
   80SLPC    HS 7379   0.745   0.410   6.549 -0.0245 -1.1796 -0.6519
   80SLPC   O21 7380   0.596   0.451   6.403 -0.4703 -0.5187 -0.0529
   80SLPC   C21 7381   0.688   0.465   6.315 -0.2475  0.1242  0.1808
   80SLPC   O22 7382   0.808   0.432   6.321  0.0765 -0.0040 -0.5390
   80SLPC   C22 7383   0.626   0.542   6.192  0.1628  0.6941  0.1033
   80SLPC   H2R 7384   0.519   0.511   6.186  0.2805  0.4334 -0.9952
   80SLPC   H2S 7385   0.630   0.649   6.219  1.6532  0.4644  0.9343
   80SLPC    C3 7386   0.647   0.225   6.506 -0.3933 -0.4784  0.0125
   80SLPC    HX 7387   0.542   0.192   6.517 -0.4543  0.1216  1.4415
   80SLPC    HY 7388   0.730   0.185   6.568  1.6443  2.1800 -0.7812
   80SLPC   O31 7389   0.700   0.193   6.376 -0.2689  0.0444  0.1083
   80SLPC   C31 7390   0.705   0.059   6.330 -0.0506 -1.2178  0.0170
   80SLPC   O32 7391   0.667  -0.031   6.403  0.0865  0.4393 -0.8281
   80SLPC   C32 7392   0.768   0.063   6.187 -0.5856 -0.0757 -0.4695
   80SLPC   H2X 7393   0.874   0.095   6.198  0.2942 -2.5394 -1.1458
   80SLPC   H2Y 7394   0.717   0.142   6.128  0.2237  1.0858  0.3306
   80SLPC   C23 7395   0.701   0.503   6.066  0.4592  0.8915  0.0418
   80SLPC   H3R 7396   0.706   0.393   6.058 -0.8005  0.8976 -0.9433
   80SLPC   H3S 7397   0.809   0.531   6.068  0.9328 -0.8177 -0.2377
   80SLPC   C24 7398   0.642   0.572   5.951  0.3880  1.2707 -0.1394
   80SLPC   H4R 7399   0.627   0.680   5.969  2.0757  1.4519  0.3942
   80SLPC   H4S 7400   0.548   0.519   5.928  1.3647 -0.0004 -1.4302
   80SLPC   C25 7401   0.734   0.572   5.831  0.6098 -0.2118 -0.0345
   80SLPC   H5R 7402   0.742   0.466   5.797 -1.2240  0.1538 -1.7783
   80SLPC   H5S 7403   0.835   0.611   5.859  1.6206 -0.9280 -2.4241
   80SLPC   C26 7404   0.685   0.671   5.723 -0.2435 -0.4421  1.2554
   80SLPC   H6R 7405   0.730   0.666   5.621 -4.0094  2.0997 -0.7789
   80SLPC   H6S 7406   0.700   0.779   5.744 -1.3736 -0.1795  0.7725
   80SLPC   C27 7407   0.535   0.656   5.692  0.4251  0.0869 -0.3043
   80SLPC   H7R 7408   0.473   0.708   5.769  2.3169  1.7661  0.1605
   80SLPC   H7S 7409   0.526   0.546   5.683 -0.3610  0.1332 -0.1796
   80SLPC   C28 7410   0.498   0.699   5.549  0.3853  0.1508 -0.0172
   80SLPC   H8R 7411   0.403   0.662   5.505  0.8067 -0.5051 -0.3774
   80SLPC   H8S 7412   0.573   0.647   5.486  2.6090 -1.6914  3.7745
   80SLPC   C29 7413   0.508   0.851   5.541  0.7511  0.0841 -0.2525
   80SLPC   H9R 7414   0.478   0.906   5.631 -4.1315 -0.3025 -1.3556
   80SLPC  C210 7415   0.569   0.916   5.438 -0.5840  0.0104 -0.2409
   80SLPC  H10R 7416   0.568   1.026   5.437 -2.2243  0.0048 -1.0748
   80SLPC  C211 7417   0.611   0.860   5.310  0.3001  0.4659  0.4438
   80SLPC  H11R 7418   0.655   0.758   5.320  0.0078 -0.0137 -2.3447
   80SLPC  H11S 7419   0.696   0.920   5.272  0.9292  0.5771  1.9572
   80SLPC  C212 7420   0.497   0.854   5.212  0.8510  0.2654 -0.3742
   80SLPC  H12R 7421   0.394   0.843   5.251  0.3509 -1.5160 -2.0573
   80SLPC  C213 7422   0.504   0.852   5.077  0.2192  0.6310 -0.2113
   80SLPC  H13R 7423   0.410   0.858   5.021 -0.0025  0.7662  0.1729
   80SLPC  C214 7424   0.626   0.858   4.986  0.1820 -0.7805  0.1930
   80SLPC  H14R 7425   0.690   0.772   5.015 -0.6452 -0.8528  1.9332
   80SLPC  H14S 7426   0.672   0.957   5.001 -1.6183 -0.0200  1.0842
   80SLPC  C215 7427   0.595   0.835   4.838 -0.2721  0.2553 -0.2160
   80SLPC  H15R 7428   0.537   0.925   4.808  0.6621  1.3328  1.1126
   80SLPC  H15S 7429   0.528   0.748   4.821  1.0447 -1.3046  2.1446
   80SLPC  C216 7430   0.716   0.843   4.742 -0.3629 -0.1046 -0.4298
   80SLPC  H16R 7431   0.788   0.766   4.778 -2.1493 -1.6167  0.0755
   80SLPC  H16S 7432   0.771   0.937   4.765  2.4932 -2.0560  1.3889
   80SLPC  C217 7433   0.682   0.853   4.594 -0.0925  0.6131 -0.2000
   80SLPC  H17R 7434   0.779   0.851   4.541  0.4798  1.4777  0.7750
   80SLPC  H17S 7435   0.636   0.953   4.579 -1.1360  0.2018  0.1972
   80SLPC  C218 7436   0.588   0.747   4.518  0.3053 -0.2075 -0.0251
   80SLPC  H18R 7437   0.483   0.761   4.553  0.1758  0.0640 -0.5210
   80SLPC  H18S 7438   0.620   0.642   4.532  1.2270  0.1821  0.9928
   80SLPC  H18T 7439   0.594   0.762   4.408  0.5834  0.3618  0.0623
   80SLPC   C33 7440   0.772  -0.073   6.115 -0.1360 -0.3268  0.2513
   80SLPC   H3X 7441   0.670  -0.116   6.106 -1.4917  2.4522  1.3348
   80SLPC   H3Y 7442   0.830  -0.147   6.174 -1.0408 -1.5334 -0.3283
   80SLPC   C34 7443   0.826  -0.063   5.969  0.6529 -0.4237 -0.4211
   80SLPC   H4X 7444   0.770   0.012   5.910  0.5270 -2.1181 -2.5523
   80SLPC   H4Y 7445   0.808  -0.156   5.911  2.5750 -0.5608 -0.8632
   80SLPC   C35 7446   0.974  -0.036   5.957 -0.4177  0.0936  0.3293
   80SLPC   H5X 7447   1.038  -0.121   5.989  1.3304  1.9042  1.9391
   80SLPC   H5Y 7448   0.997   0.054   6.018 -0.5414  2.2514 -2.5674
   80SLPC   C36 7449   1.010  -0.011   5.808 -0.2953 -0.6180 -0.2629
   80SLPC   H6X 7450   0.964   0.082   5.769  0.9477 -0.0221 -0.3682
   80SLPC   H6Y 7451   0.970  -0.095   5.749  1.8203 -0.5349 -1.9466
   80SLPC   C37 7452   1.165  -0.008   5.778 -0.0982  0.0893 -0.2477
   80SLPC   H7X 7453   1.206  -0.077   5.855  0.4369  1.6791  0.9339
   80SLPC   H7Y 7454   1.206   0.094   5.794 -1.7348  0.8703 -0.7934
   80SLPC   C38 7455   1.199  -0.054   5.635  0.1696  0.3598 -0.0923
   80SLPC   H8X 7456   1.209  -0.164   5.624  0.3362  0.3505  0.1372
   80SLPC   H8Y 7457   1.304  -0.024   5.614  0.1607 -1.2147 -2.8879
   80SLPC   C39 7458   1.117   0.001   5.515 -0.4073  0.2477 -0.2205
   80SLPC   H9X 7459   1.134   0.110   5.503 -2.9718  0.6837 -0.5221
   80SLPC   H9Y 7460   1.010  -0.006   5.542 -0.5195  2.0504 -0.1071
   80SLPC  C310 7461   1.145  -0.070   5.385 -0.0586  0.3040  1.0138
   80SLPC  H10X 7462   1.145  -0.180   5.403 -0.3748  0.1946  0.3793
   80SLPC  H10Y 7463   1.244  -0.041   5.344  0.2503  0.1466  1.6533
   80SLPC  C311 7464   1.036  -0.045   5.279 -0.2838  0.3704 -0.5460
   80SLPC  H11X 7465   1.020   0.065   5.278  2.6934  0.8938 -1.6420
   80SLPC  H11Y 7466   0.940  -0.093   5.306 -1.0038  1.2738 -1.4105
   80SLPC  C312 7467   1.072  -0.080   5.132  0.2554  0.1073 -0.1064
   80SLPC  H12X 7468   0.981  -0.098   5.072  1.1458 -0.4372 -1.3416
   80SLPC  H12Y 7469   1.128  -0.175   5.119  0.3490  0.4903 -3.2956
   80SLPC  C313 7470   1.148   0.044   5.069  0.9818 -0.3543 -0.2356
   80SLPC  H13X 7471   1.241   0.067   5.126  0.0420 -1.5681  1.8738
   80SLPC  H13Y 7472   1.084   0.135   5.069  0.2396 -0.7889 -2.9003
   80SLPC  C314 7473   1.183   0.004   4.929  0.7734 -0.2509  0.0766
   80SLPC  H14X 7474   1.096  -0.041   4.878  0.8395  0.5882 -0.7953
   80SLPC  H14Y 7475   1.259  -0.077   4.939 -1.0498 -2.2556 -1.5234
   80SLPC  C315 7476   1.225   0.119   4.841  0.1338 -0.4598  0.1353
   80SLPC  H15X 7477   1.294   0.189   4.892  0.0722  0.1776 -0.6360
   80SLPC  H15Y 7478   1.136   0.182   4.816  0.4003 -0.1861 -0.1296
   80SLPC  C316 7479   1.287   0.066   4.708  0.1440 -0.0332 -0.5243
   80SLPC  H16X 7480   1.232  -0.010   4.649  1.4937 -1.1422 -0.4250
   80SLPC  H16Y 7481   1.393   0.032   4.715  0.5758  1.3776  0.1492
   80SLPC  C317 7482   1.287   0.175   4.600 -0.4197 -0.2907  0.1408
   80SLPC  H17X 7483   1.327   0.265   4.651  1.8108 -1.6125  0.8900
   80SLPC  H17Y 7484   1.180   0.175   4.573  0.0749 -0.5158 -2.0034
   80SLPC  C318 7485   1.379   0.156   4.476 -0.1639 -0.0689 -0.0799
   80SLPC  H18X 7486   1.334   0.079   4.410  0.1703 -0.2279 -0.1263
   80SLPC  H18Y 7487   1.475   0.108   4.504  0.8700  1.7478 -0.4172
   80SLPC  H18Z 7488   1.393   0.251   4.421  1.2131 -0.1101  0.1592
   81SLPC     N 7489   2.650   4.825   1.619 -0.1143  0.0443  0.0426
   81SLPC   C13 7490   2.640   4.680   1.577 -0.7550 -0.6692 -0.1017
   81SLPC  H13A 7491   2.740   4.639   1.575 -0.5962 -0.3542 -2.4911
   81SLPC  H13B 7492   2.595   4.617   1.651  0.4848 -0.2607  1.0270
   81SLPC  H13C 7493   2.599   4.661   1.478  2.6561  0.0316 -1.8201
   81SLPC   C14 7494   2.515   4.890   1.599 -0.5554  0.6588  0.5108
   81SLPC  H14A 7495   2.486   4.859   1.499  1.6994 -1.3384  0.3815
   81SLPC  H14B 7496   2.448   4.837   1.665  1.0047 -1.1669  0.7391
   81SLPC  H14C 7497   2.507   4.996   1.618  1.9879  0.5353  2.8593
   81SLPC   C15 7498   2.746   4.890   1.525 -0.0017  1.1681 -0.7721
   81SLPC  H15A 7499   2.842   4.841   1.518  1.0040  2.6226  1.7798
   81SLPC  H15B 7500   2.709   4.897   1.424  1.3578  1.8527 -1.2397
   81SLPC  H15C 7501   2.770   4.988   1.563 -1.4210  0.7417  1.3962
   81SLPC   C12 7502   2.691   4.848   1.765  1.1673  0.5738 -0.9569
   81SLPC  H12A 7503   2.616   4.799   1.826 -1.0352 -1.8828 -5.1627
   81SLPC  H12B 7504   2.689   4.951   1.796 -2.1444 -0.1353  1.8608
   81SLPC   C11 7505   2.828   4.801   1.813  0.0456 -0.5373 -0.0246
   81SLPC  H11A 7506   2.848   4.694   1.793  0.7975 -1.1959  3.5681
   81SLPC  H11B 7507   2.824   4.814   1.924  0.4638 -1.4235  0.1012
   81SLPC     P 7508   2.956   5.031   1.820  0.2010 -0.3094  0.0380
   81SLPC   O13 7509   3.065   5.112   1.752  0.3429  0.5922  0.1002
   81SLPC   O14 7510   2.831   5.103   1.853  0.0236 -0.4999  0.1533
   81SLPC   O12 7511   2.924   4.891   1.754  0.2976 -0.3114  0.2847
   81SLPC   O11 7512   3.021   4.971   1.941  0.1712 -0.1363  0.3198
   81SLPC    C1 7513   3.017   5.032   2.077  0.0601  0.1141  0.1279
   81SLPC    HA 7514   3.075   5.126   2.063 -0.4137  0.0170 -3.0461
   81SLPC    HB 7515   2.913   5.051   2.111  0.9633  1.7805  2.2321
   81SLPC    C2 7516   3.077   4.933   2.189 -0.8677 -0.1089  0.3187
   81SLPC    HS 7517   3.066   4.983   2.288  0.6534  1.5648 -0.3161
   81SLPC   O21 7518   3.211   4.891   2.168  0.3887  0.2052  0.0632
   81SLPC   C21 7519   3.299   4.993   2.176 -0.3645 -0.4747 -0.6318
   81SLPC   O22 7520   3.270   5.106   2.206 -1.0296 -0.4711 -0.2591
   81SLPC   C22 7521   3.436   4.930   2.157 -0.2085  0.3928 -0.0336
   81SLPC   H2R 7522   3.431   4.824   2.124 -0.9591  0.0221  1.2001
   81SLPC   H2S 7523   3.481   4.994   2.078 -1.6175  2.5510  0.8223
   81SLPC    C3 7524   2.995   4.799   2.183  0.3308 -0.1334  0.0356
   81SLPC    HX 7525   3.014   4.751   2.084 -2.2376  0.1453 -0.6474
   81SLPC    HY 7526   2.885   4.814   2.178  0.1909 -0.9939  0.2938
   81SLPC   O31 7527   3.034   4.709   2.287  0.3797  0.2029  0.6586
   81SLPC   C31 7528   2.978   4.721   2.404  0.0728  0.1953 -0.0765
   81SLPC   O32 7529   2.881   4.785   2.434  0.2397 -0.8415  0.4629
   81SLPC   C32 7530   3.055   4.628   2.500  0.4813  0.0785  0.2515
   81SLPC   H2X 7531   3.130   4.561   2.454  0.1241 -0.5032  0.5074
   81SLPC   H2Y 7532   2.979   4.560   2.544 -0.3736  0.8414  0.0037
   81SLPC   C23 7533   3.533   4.963   2.272  0.6711  0.3023  0.0340
   81SLPC   H3R 7534   3.532   5.072   2.292  0.5767  0.1565  0.8460
   81SLPC   H3S 7535   3.636   4.932   2.247  0.8393  1.1888 -0.4064
   81SLPC   C24 7536   3.507   4.889   2.401 -0.0388 -0.4560 -0.0362
   81SLPC   H4R 7537   3.548   4.786   2.391  4.3430  0.9918  0.7163
   81SLPC   H4S 7538   3.398   4.893   2.422 -0.3489  2.8433 -1.6871
   81SLPC   C25 7539   3.558   4.967   2.523  0.2174  0.6027 -0.4593
   81SLPC   H5R 7540   3.503   5.062   2.539  0.5725  0.8078 -0.4370
   81SLPC   H5S 7541   3.667   4.989   2.517  0.6004 -1.2143 -0.7302
   81SLPC   C26 7542   3.516   4.886   2.648 -0.7763  0.4435 -0.5913
   81SLPC   H6R 7543   3.555   4.783   2.634  1.3731  1.3290 -1.6019
   81SLPC   H6S 7544   3.407   4.891   2.667 -0.8626  1.9675 -1.3693
   81SLPC   C27 7545   3.598   4.942   2.772  0.2314  0.3715 -0.3984
   81SLPC   H7R 7546   3.614   5.052   2.762  1.8360  0.1911 -0.0820
   81SLPC   H7S 7547   3.697   4.891   2.783 -0.3500 -0.6975 -0.0181
   81SLPC   C28 7548   3.524   4.913   2.908  0.0467  0.9231 -0.7530
   81SLPC   H8R 7549   3.460   4.822   2.907  0.9229  0.2478  0.8874
   81SLPC   H8S 7550   3.450   4.994   2.925 -0.5511 -0.3161  3.9813
   81SLPC   C29 7551   3.610   4.932   3.029  0.1995  0.4369 -0.3811
   81SLPC   H9R 7552   3.705   4.985   3.015 -0.2560  1.0640 -1.1479
   81SLPC  C210 7553   3.568   4.900   3.155 -0.4400  0.5463  0.8434
   81SLPC  H10R 7554   3.638   4.916   3.238 -0.3402 -0.6596  1.0118
   81SLPC  C211 7555   3.440   4.839   3.191  0.5427  0.5291  0.4306
   81SLPC  H11R 7556   3.465   4.749   3.251  1.8336  0.8766  0.4554
   81SLPC  H11S 7557   3.384   4.804   3.102 -1.0225 -0.9595  1.9405
   81SLPC  C212 7558   3.349   4.917   3.283  0.6536  0.2430 -0.9368
   81SLPC  H12R 7559   3.273   4.980   3.233  1.1614  1.1186 -0.6357
   81SLPC  C213 7560   3.358   4.924   3.421  0.2609 -0.6128  0.1398
   81SLPC  H13R 7561   3.296   4.994   3.478 -0.0683 -1.3104  0.6467
   81SLPC  C214 7562   3.455   4.851   3.514  0.0200 -0.9620  0.1187
   81SLPC  H14R 7563   3.522   4.793   3.447  1.3748  3.0394 -2.3470
   81SLPC  H14S 7564   3.401   4.786   3.586 -1.5500  0.2468  0.0895
   81SLPC  C215 7565   3.547   4.952   3.586  0.4415 -0.6660 -0.7113
   81SLPC  H15R 7566   3.488   5.000   3.666 -0.0919 -1.8203 -0.3921
   81SLPC  H15S 7567   3.597   5.023   3.517  0.4979 -0.9808 -0.9968
   81SLPC  C216 7568   3.655   4.870   3.663  0.6850 -0.0502  0.2857
   81SLPC  H16R 7569   3.685   4.781   3.603  3.0184  1.2207 -0.5538
   81SLPC  H16S 7570   3.609   4.835   3.758  0.4853 -0.4265  0.0558
   81SLPC  C217 7571   3.783   4.949   3.704 -0.4423  0.1109  0.0112
   81SLPC  H17R 7572   3.754   5.001   3.797  0.5618 -0.5427  0.7041
   81SLPC  H17S 7573   3.800   5.024   3.624  1.6920 -0.3814 -0.0485
   81SLPC  C218 7574   3.922   4.873   3.718  0.0456  0.0596 -0.1790
   81SLPC  H18R 7575   3.918   4.773   3.766 -1.6254 -1.4749 -3.2051
   81SLPC  H18S 7576   3.997   4.942   3.762  1.5334 -0.6430 -1.5476
   81SLPC  H18T 7577   3.957   4.864   3.613  2.5778  1.6771  0.4366
   81SLPC   C33 7578   3.125   4.699   2.620  0.3443 -0.2330 -0.3321
   81SLPC   H3X 7579   3.064   4.790   2.640 -0.7539 -1.2242  1.1416
   81SLPC   H3Y 7580   3.225   4.740   2.596 -0.0973  1.9659  1.2133
   81SLPC   C34 7581   3.125   4.627   2.755  0.0003  0.1833 -0.2984
   81SLPC   H4X 7582   3.186   4.680   2.832 -1.6618  1.3272  0.2985
   81SLPC   H4Y 7583   3.166   4.525   2.738 -1.4680 -0.4368 -0.2003
   81SLPC   C35 7584   2.995   4.612   2.834  0.1761 -0.7416  1.1417
   81SLPC   H5X 7585   2.937   4.542   2.771  0.1821  0.5135 -0.3302
   81SLPC   H5Y 7586   2.949   4.713   2.845  0.7256 -0.4229  0.6165
   81SLPC   C36 7587   3.027   4.547   2.973 -0.2479 -0.2091  0.5813
   81SLPC   H6X 7588   3.122   4.491   2.964 -1.0557 -1.3140 -2.3840
   81SLPC   H6Y 7589   2.958   4.462   2.991 -0.8029  0.4488  1.6695
   81SLPC   C37 7590   3.042   4.637   3.101 -0.1861 -0.1286 -0.1857
   81SLPC   H7X 7591   2.947   4.692   3.118  0.6360  1.2910 -0.0343
   81SLPC   H7Y 7592   3.122   4.713   3.087  1.1059 -1.1055  1.5258
   81SLPC   C38 7593   3.078   4.553   3.221 -0.4096  0.5790  0.1824
   81SLPC   H8X 7594   3.174   4.509   3.187 -0.5194  1.7103 -1.7152
   81SLPC   H8Y 7595   3.003   4.471   3.232 -0.7353  1.0860  2.1600
   81SLPC   C39 7596   3.101   4.634   3.353  0.0514  0.4068  0.5970
   81SLPC   H9X 7597   3.100   4.743   3.331 -0.1946  0.8574  2.5597
   81SLPC   H9Y 7598   3.207   4.617   3.383  1.1601  2.5691 -1.7470
   81SLPC  C310 7599   3.019   4.586   3.471  0.5996  0.3821 -0.0035
   81SLPC  H10X 7600   3.039   4.478   3.486 -0.3693 -0.1750 -2.1883
   81SLPC  H10Y 7601   2.916   4.600   3.432  1.7145 -0.3051 -3.5812
   81SLPC  C311 7602   3.031   4.678   3.595 -0.0148  0.9313 -0.1644
   81SLPC  H11X 7603   2.982   4.777   3.582  0.2042  1.0544 -0.0461
   81SLPC  H11Y 7604   3.135   4.714   3.605 -0.2991  1.9394 -0.6433
   81SLPC  C312 7605   2.973   4.609   3.722 -0.1595 -0.5458 -0.4958
   81SLPC  H12X 7606   2.889   4.550   3.681 -1.1757  0.0333  0.6978
   81SLPC  H12Y 7607   2.930   4.685   3.791  2.4868  0.4930  0.1489
   81SLPC  C313 7608   3.071   4.526   3.796 -0.0491 -0.2269 -0.1486
   81SLPC  H13X 7609   3.165   4.583   3.815  0.3645 -0.8733 -0.2145
   81SLPC  H13Y 7610   3.100   4.443   3.729 -0.7570  0.4495 -1.3385
   81SLPC  C314 7611   3.022   4.478   3.935  0.1771 -1.1311  0.6558
   81SLPC  H14X 7612   2.940   4.407   3.913 -0.5007 -0.3663  0.6863
   81SLPC  H14Y 7613   2.990   4.571   3.986  2.2627 -0.5260  0.9658
   81SLPC  C315 7614   3.141   4.414   4.013 -0.6168  0.1506  0.0660
   81SLPC  H15X 7615   3.224   4.487   4.022  0.8712 -1.4342 -0.3385
   81SLPC  H15Y 7616   3.184   4.322   3.968 -2.1903 -1.1928  1.1731
   81SLPC  C316 7617   3.098   4.358   4.149  0.5687  0.0775 -0.5740
   81SLPC  H16X 7618   3.167   4.274   4.173 -1.4187 -1.3825  0.3561
   81SLPC  H16Y 7619   2.999   4.310   4.132  0.7064 -0.3414 -0.2352
   81SLPC  C317 7620   3.085   4.449   4.266 -0.4976 -0.3645  0.1158
   81SLPC  H17X 7621   3.022   4.537   4.239 -0.2310 -0.9658 -2.8390
   81SLPC  H17Y 7622   3.178   4.502   4.297  0.2237 -0.4806 -1.7350
   81SLPC  C318 7623   3.025   4.375   4.383  0.2406 -0.2921  0.2786
   81SLPC  H18X 7624   3.097   4.300   4.424  1.5265 -0.2656 -1.7886
   81SLPC  H18Y 7625   2.930   4.331   4.347 -0.1376  1.3977 -0.9144
   81SLPC  H18Z 7626   3.002   4.450   4.461 -1.3548 -2.9538  2.5619
   82SLPC     N 7627   1.755   2.370   2.283  0.5218 -0.5164  0.1665
   82SLPC   C13 7628   1.708   2.443   2.169  0.2357 -0.5303 -0.3861
   82SLPC  H13A 7629   1.612   2.399   2.145  0.0206 -0.7398  0.8060
   82SLPC  H13B 7630   1.694   2.548   2.190  0.5431 -0.4402 -0.6229
   82SLPC  H13C 7631   1.775   2.435   2.084  1.9653 -0.6405  0.9248
   82SLPC   C14 7632   1.905   2.375   2.296 -0.1248  0.3592  0.0102
   82SLPC  H14A 7633   1.944   2.476   2.298 -0.3052  0.4243  1.3704
   82SLPC  H14B 7634   1.932   2.312   2.379 -2.5792  1.0576  1.4516
   82SLPC  H14C 7635   1.954   2.336   2.208 -0.9723  1.8398 -1.1799
   82SLPC   C15 7636   1.731   2.226   2.256  0.1275  0.0274  0.2146
   82SLPC  H15A 7637   1.764   2.162   2.336 -0.4503  1.0930  1.3439
   82SLPC  H15B 7638   1.626   2.201   2.244  0.5371 -1.9623  0.4898
   82SLPC  H15C 7639   1.784   2.194   2.168 -1.0147  3.7776 -2.1121
   82SLPC   C12 7640   1.690   2.422   2.409 -0.6210 -0.6218  0.2653
   82SLPC  H12A 7641   1.586   2.394   2.404 -1.1532  1.4343 -2.1298
   82SLPC  H12B 7642   1.714   2.527   2.414  0.1057 -0.8059  0.8992
   82SLPC   C11 7643   1.735   2.383   2.550 -0.1144  0.3116  0.6344
   82SLPC  H11A 7644   1.694   2.453   2.625  1.1731  2.4470 -0.5462
   82SLPC  H11B 7645   1.846   2.389   2.554  0.1959 -3.2379  0.6840
   82SLPC     P 7646   1.545   2.202   2.578 -0.1667  0.4152  0.1056
   82SLPC   O13 7647   1.479   2.208   2.446  0.0695 -0.2140 -0.1233
   82SLPC   O14 7648   1.538   2.078   2.657  0.0152 -0.0673 -0.0611
   82SLPC   O12 7649   1.697   2.243   2.563  0.3953  0.1033 -0.0117
   82SLPC   O11 7650   1.492   2.313   2.677 -0.1048 -0.0524  0.0522
   82SLPC    C1 7651   1.518   2.307   2.818  0.4635  0.5739 -0.1018
   82SLPC    HA 7652   1.458   2.228   2.867  0.5505  1.5398  1.6259
   82SLPC    HB 7653   1.622   2.273   2.834 -0.0172 -1.0554 -0.2888
   82SLPC    C2 7654   1.495   2.443   2.880 -0.0857 -0.9790 -0.2409
   82SLPC    HS 7655   1.574   2.518   2.862 -0.6789 -0.3068 -0.0709
   82SLPC   O21 7656   1.479   2.420   3.015 -0.4532 -0.2587  0.0156
   82SLPC   C21 7657   1.574   2.462   3.101 -0.3267 -0.5755  0.3243
   82SLPC   O22 7658   1.679   2.524   3.078 -0.0384 -0.0745  0.2317
   82SLPC   C22 7659   1.543   2.412   3.245  0.3944  0.2746 -0.2684
   82SLPC   H2R 7660   1.639   2.377   3.288  0.0643  0.9195  1.0402
   82SLPC   H2S 7661   1.515   2.506   3.298 -1.3241  0.9152 -2.1938
   82SLPC    C3 7662   1.363   2.503   2.831  0.3875 -0.3966 -0.5896
   82SLPC    HX 7663   1.285   2.428   2.857 -1.7425  1.6035 -0.9547
   82SLPC    HY 7664   1.362   2.506   2.720 -1.1971 -1.8086 -0.6591
   82SLPC   O31 7665   1.330   2.623   2.899  0.0638 -0.2141  0.2312
   82SLPC   C31 7666   1.357   2.740   2.835 -0.6765  0.3302 -0.2577
   82SLPC   O32 7667   1.411   2.750   2.725  0.0663  0.1057 -0.4211
   82SLPC   C32 7668   1.328   2.864   2.919  0.6191  0.5133 -0.7313
   82SLPC   H2X 7669   1.239   2.853   2.984  1.8930  1.7697  1.3115
   82SLPC   H2Y 7670   1.291   2.949   2.857  1.0070  0.8090 -0.5626
   82SLPC   C23 7671   1.428   2.300   3.258 -0.1112 -0.3421  0.1907
   82SLPC   H3R 7672   1.474   2.215   3.204  0.2503 -0.2366  0.3322
   82SLPC   H3S 7673   1.337   2.335   3.205 -0.4670  0.0683  1.0518
   82SLPC   C24 7674   1.395   2.255   3.403  0.2340 -0.1134  0.0761
   82SLPC   H4R 7675   1.486   2.219   3.456  0.4617  3.3720  2.3629
   82SLPC   H4S 7676   1.323   2.171   3.405  0.9827 -0.8339 -1.5457
   82SLPC   C25 7677   1.343   2.379   3.482  0.4544  0.0406 -0.0704
   82SLPC   H5R 7678   1.245   2.414   3.445 -0.7874 -1.7151  1.3726
   82SLPC   H5S 7679   1.413   2.465   3.476  0.4718  0.0903  0.7807
   82SLPC   C26 7680   1.325   2.365   3.631 -0.6017 -0.2462  0.5949
   82SLPC   H6R 7681   1.296   2.463   3.676  0.8535 -1.1241  3.7282
   82SLPC   H6S 7682   1.421   2.343   3.684  0.9478  1.1674 -1.4282
   82SLPC   C27 7683   1.241   2.244   3.660  0.6238  0.2781 -0.4198
   82SLPC   H7R 7684   1.310   2.157   3.662  0.2639 -0.0054  2.1631
   82SLPC   H7S 7685   1.160   2.224   3.586  0.8594 -0.1519 -0.5683
   82SLPC   C28 7686   1.200   2.239   3.807  0.2123  0.5502 -0.6205
   82SLPC   H8R 7687   1.266   2.310   3.862 -0.0379 -0.4745  1.0640
   82SLPC   H8S 7688   1.211   2.136   3.844 -2.3834  1.3337  2.8458
   82SLPC   C29 7689   1.057   2.274   3.818  0.4040  0.1578 -0.2044
   82SLPC   H9R 7690   0.987   2.221   3.751 -0.2646  1.4650 -0.5841
   82SLPC  C210 7691   1.007   2.368   3.899 -0.1988  0.0770  0.2872
   82SLPC  H10R 7692   0.897   2.373   3.905 -0.2995 -1.6399  0.4245
   82SLPC  C211 7693   1.082   2.448   4.006  0.1619  0.1294 -0.3969
   82SLPC  H11R 7694   1.012   2.501   4.075  0.6135 -1.2875  1.2350
   82SLPC  H11S 7695   1.136   2.531   3.957 -1.0633  0.3667 -1.4018
   82SLPC  C212 7696   1.172   2.372   4.106 -0.3774 -0.3453  0.0556
   82SLPC  H12R 7697   1.279   2.392   4.096 -0.4160 -0.7548 -1.3622
   82SLPC  C213 7698   1.117   2.306   4.211 -0.1541  0.1101 -0.6795
   82SLPC  H13R 7699   1.185   2.273   4.292 -0.1441  0.2573 -0.6288
   82SLPC  C214 7700   0.971   2.283   4.247 -0.1676 -0.1531 -0.1562
   82SLPC  H14R 7701   0.956   2.175   4.269 -1.8784  0.5193  2.3978
   82SLPC  H14S 7702   0.897   2.305   4.168 -2.7653  1.6905  2.5858
   82SLPC  C215 7703   0.927   2.370   4.374 -0.3423  0.2780  0.8211
   82SLPC  H15R 7704   0.817   2.371   4.389 -0.3346  2.3079  1.0501
   82SLPC  H15S 7705   0.943   2.479   4.360 -0.7765  0.5184  2.0110
   82SLPC  C216 7706   1.002   2.333   4.506  0.0879 -0.3089  0.6324
   82SLPC  H16R 7707   1.108   2.352   4.479  0.2462 -1.5822  0.3013
   82SLPC  H16S 7708   0.988   2.224   4.523  0.5995 -0.4844 -0.0460
   82SLPC  C217 7709   0.976   2.411   4.635  0.3426 -0.2674 -0.1139
   82SLPC  H17R 7710   1.004   2.516   4.616 -0.5071 -0.2507 -1.4151
   82SLPC  H17S 7711   1.048   2.383   4.714 -0.3939 -0.4318  0.5100
   82SLPC  C218 7712   0.827   2.415   4.684 -0.0034 -0.2073  0.7800
   82SLPC  H18R 7713   0.799   2.317   4.727 -3.0185 -0.1104 -0.7404
   82SLPC  H18S 7714   0.762   2.436   4.597 -0.0980  0.4587  1.0044
   82SLPC  H18T 7715   0.819   2.488   4.768  1.0245  3.1019 -1.7518
   82SLPC   C33 7716   1.443   2.902   3.008  0.1645 -0.3900 -0.8319
   82SLPC   H3X 7717   1.434   3.009   3.038 -1.0875 -0.8886  0.6447
   82SLPC   H3Y 7718   1.544   2.899   2.961  0.3451 -2.1883 -0.3866
   82SLPC   C34 7719   1.453   2.814   3.135  0.5402 -0.6283  0.1719
   82SLPC   H4X 7720   1.448   2.707   3.106 -1.4875 -0.3056 -0.8763
   82SLPC   H4Y 7721   1.369   2.842   3.202  1.2151  1.1170  0.3350
   82SLPC   C35 7722   1.583   2.843   3.210 -0.3231 -0.2322 -0.1479
   82SLPC   H5X 7723   1.563   2.942   3.257 -1.5740 -0.3433 -0.4103
   82SLPC   H5Y 7724   1.669   2.845   3.140 -0.4478 -1.3092 -0.3492
   82SLPC   C36 7725   1.625   2.760   3.337  0.4290 -0.7727  0.0680
   82SLPC   H6X 7726   1.720   2.799   3.379  0.6633 -0.0478 -1.0972
   82SLPC   H6Y 7727   1.651   2.656   3.308 -0.5753 -0.8478 -0.6160
   82SLPC   C37 7728   1.526   2.767   3.445 -0.4609  0.3137  0.4324
   82SLPC   H7X 7729   1.437   2.703   3.425 -0.6298  0.1551  1.5996
   82SLPC   H7Y 7730   1.487   2.870   3.465 -2.0133 -0.0745 -0.4411
   82SLPC   C38 7731   1.586   2.715   3.579  0.2545 -0.3519  0.4204
   82SLPC   H8X 7732   1.669   2.781   3.612  2.3555 -3.2947  1.4630
   82SLPC   H8Y 7733   1.623   2.610   3.574 -2.0551 -1.1839 -0.8491
   82SLPC   C39 7734   1.477   2.740   3.683 -0.0675 -0.0561 -0.2715
   82SLPC   H9X 7735   1.400   2.662   3.670  2.1995 -2.3672 -0.6611
   82SLPC   H9Y 7736   1.439   2.843   3.667  3.1338  1.2266 -0.3552
   82SLPC  C310 7737   1.510   2.715   3.833  0.0838  0.5677  0.5284
   82SLPC  H10X 7738   1.595   2.782   3.858  1.2250  0.2177 -2.0501
   82SLPC  H10Y 7739   1.537   2.610   3.854  0.7133  0.7573  0.6822
   82SLPC  C311 7740   1.393   2.738   3.928  0.0918  0.1428 -0.1408
   82SLPC  H11X 7741   1.319   2.658   3.908 -0.5085  0.5459  0.4327
   82SLPC  H11Y 7742   1.337   2.834   3.923 -0.7240 -0.1793  1.9451
   82SLPC  C312 7743   1.419   2.720   4.081  0.0715 -0.4236  0.8929
   82SLPC  H12X 7744   1.464   2.622   4.106  0.4528 -0.3933  0.3554
   82SLPC  H12Y 7745   1.325   2.741   4.137 -0.7782 -0.6603 -0.4120
   82SLPC  C313 7746   1.516   2.817   4.135  0.2979 -0.0705 -0.2265
   82SLPC  H13X 7747   1.491   2.921   4.105 -2.1741 -0.8680 -1.2021
   82SLPC  H13Y 7748   1.614   2.778   4.102  0.6548  0.5351  0.1003
   82SLPC  C314 7749   1.518   2.819   4.284 -0.3530  0.1165  0.0132
   82SLPC  H14X 7750   1.514   2.712   4.314 -2.3594  0.5339  1.4773
   82SLPC  H14Y 7751   1.422   2.863   4.319 -0.9586 -1.9836  1.1817
   82SLPC  C315 7752   1.638   2.879   4.351  0.4540 -0.3924 -0.0778
   82SLPC  H15X 7753   1.628   2.990   4.343 -1.4160 -0.5304  0.0036
   82SLPC  H15Y 7754   1.740   2.854   4.314  1.3836  0.8115  1.5152
   82SLPC  C316 7755   1.640   2.860   4.500 -0.0786  0.1544 -0.6036
   82SLPC  H16X 7756   1.739   2.894   4.538 -0.6050 -1.0634  2.1122
   82SLPC  H16Y 7757   1.626   2.753   4.527  0.1897  0.3367  0.3021
   82SLPC  C317 7758   1.530   2.936   4.585  0.2051  0.5327  0.3585
   82SLPC  H17X 7759   1.432   2.887   4.566  0.5903 -0.2339  0.3184
   82SLPC  H17Y 7760   1.527   3.041   4.549  0.0836  1.4376  2.7876
   82SLPC  C318 7761   1.566   2.940   4.735  0.7132  0.5995 -0.0430
   82SLPC  H18X 7762   1.640   3.021   4.756  0.9169  0.0916  1.2767
   82SLPC  H18Y 7763   1.596   2.845   4.785  1.5519 -0.1909 -1.9497
   82SLPC  H18Z 7764   1.468   2.968   4.779 -0.6542 -2.0297 -1.2348
   83SLPC     N 7765   3.223   5.552   1.929 -0.0699 -0.9116 -0.4575
   83SLPC   C13 7766   3.359   5.609   1.910 -0.1465  0.4095 -0.0986
   83SLPC  H13A 7767   3.368   5.710   1.945  1.6473  0.3308 -0.2256
   83SLPC  H13B 7768   3.430   5.543   1.957 -0.7361 -0.4414 -0.3732
   83SLPC  H13C 7769   3.383   5.596   1.805  1.4102  1.4871  0.0904
   83SLPC   C14 7770   3.231   5.414   1.863 -0.5044  0.1296  0.4951
   83SLPC  H14A 7771   3.135   5.365   1.876 -1.4970  2.2800  1.6187
   83SLPC  H14B 7772   3.233   5.428   1.756 -2.1417 -0.8166  0.2950
   83SLPC  H14C 7773   3.313   5.355   1.902  0.4137  1.2466  0.2717
   83SLPC   C15 7774   3.135   5.647   1.859  0.3277 -0.8670 -0.2531
   83SLPC  H15A 7775   3.132   5.742   1.910  0.1331 -0.2410 -1.3988
   83SLPC  H15B 7776   3.174   5.667   1.760  0.7524  0.9333  0.2398
   83SLPC  H15C 7777   3.038   5.602   1.841  0.6325 -2.1191  1.0406
   83SLPC   C12 7778   3.188   5.542   2.082 -0.3307  0.3675  0.3486
   83SLPC  H12A 7779   3.174   5.640   2.127  1.9640  0.7171  0.4168
   83SLPC  H12B 7780   3.271   5.501   2.137 -0.4167 -0.6189 -0.2355
   83SLPC   C11 7781   3.076   5.441   2.114  0.3156 -0.0176 -0.3768
   83SLPC  H11A 7782   3.070   5.418   2.222  2.5292 -0.5858 -0.3366
   83SLPC  H11B 7783   3.091   5.342   2.065 -1.4005  0.4631 -2.0142
   83SLPC     P 7784   2.864   5.593   2.130 -0.1631  0.5758 -0.4704
   83SLPC   O13 7785   2.940   5.699   2.205 -0.6022 -0.3092  0.6841
   83SLPC   O14 7786   2.767   5.628   2.028  0.0607 -0.7842  0.1498
   83SLPC   O12 7787   2.948   5.484   2.062  0.3013  0.2869  0.3918
   83SLPC   O11 7788   2.790   5.516   2.254 -0.6656  1.3871  0.7208
   83SLPC    C1 7789   2.739   5.381   2.226 -0.3279 -0.1869 -0.3360
   83SLPC    HA 7790   2.633   5.388   2.193 -0.5061 -0.8520  0.0745
   83SLPC    HB 7791   2.778   5.323   2.140  0.6455 -2.0793  1.2988
   83SLPC    C2 7792   2.750   5.280   2.347 -0.4420 -0.9058  0.8263
   83SLPC    HS 7793   2.703   5.325   2.437  0.0561  2.6015 -0.5273
   83SLPC   O21 7794   2.889   5.271   2.363 -0.7743  0.0255  0.0031
   83SLPC   C21 7795   2.925   5.254   2.488  0.2915 -0.2698  0.8628
   83SLPC   O22 7796   2.870   5.292   2.588  0.2734 -0.1115  0.4889
   83SLPC   C22 7797   3.072   5.213   2.487  0.2298 -0.4031  0.2727
   83SLPC   H2R 7798   3.096   5.189   2.381  2.0584  0.1225  0.5213
   83SLPC   H2S 7799   3.127   5.303   2.521 -0.9387  0.9211 -1.1813
   83SLPC    C3 7800   2.695   5.135   2.315 -0.0025 -0.5421 -0.4668
   83SLPC    HX 7801   2.758   5.102   2.230  1.5932  0.0078  0.4640
   83SLPC    HY 7802   2.589   5.136   2.283  0.2321 -0.2981 -1.2683
   83SLPC   O31 7803   2.725   5.054   2.435  0.3433 -0.3798  0.0022
   83SLPC   C31 7804   2.622   5.048   2.523 -0.3830  0.3167 -0.5535
   83SLPC   O32 7805   2.530   5.122   2.536  0.5510  0.2987 -0.0283
   83SLPC   C32 7806   2.655   4.933   2.623  0.3951 -0.1355 -0.0326
   83SLPC   H2X 7807   2.763   4.947   2.644  0.9021 -2.0153 -1.1479
   83SLPC   H2Y 7808   2.629   4.839   2.569 -2.2099 -0.2450  1.2183
   83SLPC   C23 7809   3.096   5.100   2.583  0.1924 -0.0874 -0.1742
   83SLPC   H3R 7810   3.197   5.056   2.564  0.6342  1.2911 -1.1276
   83SLPC   H3S 7811   3.029   5.013   2.570  2.5430 -2.0915  0.3656
   83SLPC   C24 7812   3.097   5.135   2.726 -0.1203 -0.2738 -0.5782
   83SLPC   H4R 7813   2.998   5.176   2.754 -0.0660  0.9242 -1.9932
   83SLPC   H4S 7814   3.163   5.219   2.758  1.3603 -1.9845  1.0955
   83SLPC   C25 7815   3.139   5.013   2.811  0.0717 -0.1482  0.2976
   83SLPC   H5R 7816   3.246   4.984   2.804  0.0076 -0.4590  0.5768
   83SLPC   H5S 7817   3.070   4.929   2.788  0.9145  0.0544 -3.6599
   83SLPC   C26 7818   3.128   5.046   2.970  0.2862 -0.1513  0.1215
   83SLPC   H6R 7819   3.216   5.106   3.002  0.8041 -0.7038 -0.2479
   83SLPC   H6S 7820   3.139   4.946   3.017  0.5698 -0.5416 -0.7558
   83SLPC   C27 7821   2.992   5.104   3.010 -0.1371 -1.3688 -1.0217
   83SLPC   H7R 7822   2.918   5.045   2.952 -1.1270 -1.8121  0.6000
   83SLPC   H7S 7823   2.994   5.210   2.976 -2.1213 -0.8650  0.2146
   83SLPC   C28 7824   2.953   5.097   3.156  1.0882  0.3731 -0.9580
   83SLPC   H8R 7825   2.955   4.989   3.184  1.8140  0.9345  1.3770
   83SLPC   H8S 7826   2.843   5.111   3.159  1.1995  1.4517 -1.4979
   83SLPC   C29 7827   3.027   5.185   3.258 -0.7978 -0.2237 -0.3161
   83SLPC   H9R 7828   3.086   5.264   3.208  2.0035 -2.3858 -0.6949
   83SLPC  C210 7829   3.039   5.154   3.386  0.0228 -0.4829  0.2105
   83SLPC  H10R 7830   3.089   5.236   3.439 -1.1577  0.1193  0.4199
   83SLPC  C211 7831   2.984   5.039   3.466 -0.7499  0.4814 -0.0464
   83SLPC  H11R 7832   3.069   4.980   3.506 -0.9103 -1.5477 -2.4639
   83SLPC  H11S 7833   2.932   4.966   3.401  0.4778  0.6067 -1.2013
   83SLPC  C212 7834   2.895   5.088   3.575 -0.0538  1.0169 -0.0486
   83SLPC  H12R 7835   2.809   5.151   3.546 -1.6343 -0.9376  0.1619
   83SLPC  C213 7836   2.921   5.085   3.708 -0.7182  0.1161  0.4391
   83SLPC  H13R 7837   2.841   5.112   3.779 -1.2231 -1.1758  0.3784
   83SLPC  C214 7838   3.039   5.013   3.771  0.0940  0.3650  0.4389
   83SLPC  H14R 7839   3.129   5.023   3.708 -0.3482  0.7772 -0.1325
   83SLPC  H14S 7840   3.013   4.905   3.775  0.6419  0.2078 -0.1896
   83SLPC  C215 7841   3.082   5.084   3.904  0.0457 -0.3194  0.1294
   83SLPC  H15R 7842   3.098   5.189   3.872 -0.2344 -0.2985  0.0552
   83SLPC  H15S 7843   3.175   5.035   3.941  0.9410  1.3395  0.1621
   83SLPC  C216 7844   2.980   5.068   4.020 -0.1002  0.0797  0.5549
   83SLPC  H16R 7845   2.992   4.963   4.053  2.2183 -0.3275 -1.2956
   83SLPC  H16S 7846   2.879   5.098   3.986  0.1312 -0.2857 -0.5245
   83SLPC  C217 7847   3.007   5.157   4.140 -0.1044  0.4618  0.5020
   83SLPC  H17R 7848   3.113   5.142   4.172  0.4215  1.1557 -0.8661
   83SLPC  H17S 7849   2.922   5.137   4.209 -0.7018  1.7519  0.1493
   83SLPC  C218 7850   2.995   5.306   4.106 -0.2790  0.4413 -0.0350
   83SLPC  H18R 7851   3.086   5.333   4.048 -0.3758  0.7170 -0.0579
   83SLPC  H18S 7852   2.988   5.357   4.204 -1.8763 -1.9364  1.2053
   83SLPC  H18T 7853   2.907   5.328   4.042 -1.9024 -1.7867  1.2819
   83SLPC   C33 7854   2.571   4.924   2.748  0.1964 -0.0090  0.0484
   83SLPC   H3X 7855   2.472   4.878   2.727  0.9704 -1.6943 -0.1305
   83SLPC   H3Y 7856   2.551   5.029   2.776 -0.4517  0.0043 -0.4467
   83SLPC   C34 7857   2.642   4.851   2.861 -0.3020 -0.2813 -0.2650
   83SLPC   H4X 7858   2.741   4.898   2.878 -0.5590 -0.0988  0.7919
   83SLPC   H4Y 7859   2.650   4.743   2.836  2.0198 -0.6598  1.6559
   83SLPC   C35 7860   2.575   4.882   2.997  0.4504 -0.0561  0.0926
   83SLPC   H5X 7861   2.482   4.824   3.014  1.2865 -1.1080  1.2814
   83SLPC   H5Y 7862   2.551   4.990   3.009  0.8826 -0.0851  1.4093
   83SLPC   C36 7863   2.667   4.850   3.114  0.6759  1.3011 -0.5589
   83SLPC   H6X 7864   2.764   4.904   3.114  1.3407  0.1456 -0.2232
   83SLPC   H6Y 7865   2.694   4.742   3.117  2.8014  1.7685 -1.1941
   83SLPC   C37 7866   2.593   4.877   3.251  0.4043  0.2628  0.9701
   83SLPC   H7X 7867   2.510   4.803   3.253  1.5747 -1.1558 -0.2543
   83SLPC   H7Y 7868   2.551   4.980   3.257 -1.5103 -0.2472 -1.7871
   83SLPC   C38 7869   2.665   4.841   3.378  0.5246 -0.5949  0.7085
   83SLPC   H8X 7870   2.736   4.916   3.419 -0.7247 -0.2419  2.3376
   83SLPC   H8Y 7871   2.719   4.745   3.369  3.8006  1.2212 -1.1345
   83SLPC   C39 7872   2.562   4.831   3.490  0.0840 -0.1862 -0.2235
   83SLPC   H9X 7873   2.476   4.764   3.469  0.4774 -0.3368 -1.4395
   83SLPC   H9Y 7874   2.524   4.935   3.500 -0.4860 -0.2752 -1.3441
   83SLPC  C310 7875   2.642   4.790   3.617  0.0642 -1.0768 -0.0520
   83SLPC  H10X 7876   2.736   4.847   3.605  1.8775 -4.1201 -1.4099
   83SLPC  H10Y 7877   2.674   4.683   3.614 -1.1861 -1.6754  3.2743
   83SLPC  C311 7878   2.566   4.811   3.748 -0.1733  0.4659  0.0168
   83SLPC  H11X 7879   2.479   4.742   3.751  1.5659 -1.9917 -2.0573
   83SLPC  H11Y 7880   2.530   4.916   3.749  1.4951  1.0656  1.3677
   83SLPC  C312 7881   2.647   4.783   3.873  0.1231 -0.0575  0.2860
   83SLPC  H12X 7882   2.721   4.864   3.885 -0.0698  0.0278  0.9508
   83SLPC  H12Y 7883   2.700   4.686   3.857  2.6427  1.4464 -1.0804
   83SLPC  C313 7884   2.563   4.773   3.996 -0.1265 -0.9980 -0.3812
   83SLPC  H13X 7885   2.496   4.685   3.981 -2.5372  0.7860 -0.6019
   83SLPC  H13Y 7886   2.501   4.862   4.019 -1.8141 -1.3826 -3.0365
   83SLPC  C314 7887   2.650   4.764   4.119 -0.4643  0.3800  0.1659
   83SLPC  H14X 7888   2.735   4.834   4.120 -1.0667  1.1659 -0.9025
   83SLPC  H14Y 7889   2.688   4.660   4.113 -1.0675  0.1739 -0.2563
   83SLPC  C315 7890   2.567   4.781   4.246  0.0266  0.0893  0.0165
   83SLPC  H15X 7891   2.500   4.866   4.221 -1.2730 -1.0724 -0.5739
   83SLPC  H15Y 7892   2.638   4.796   4.331  0.3212 -1.8235  0.1532
   83SLPC  C316 7893   2.485   4.654   4.267 -0.1058  0.5774 -0.4504
   83SLPC  H16X 7894   2.561   4.574   4.278 -2.2344 -1.5522 -0.4153
   83SLPC  H16Y 7895   2.421   4.627   4.180  0.9115 -1.7461 -0.5562
   83SLPC  C317 7896   2.392   4.668   4.395  0.6429  0.1997 -0.2599
   83SLPC  H17X 7897   2.322   4.583   4.382  0.0301  0.4012  1.4772
   83SLPC  H17Y 7898   2.324   4.755   4.387  0.3755 -0.0563 -0.8536
   83SLPC  C318 7899   2.461   4.653   4.531 -0.0001  0.1855 -0.2774
   83SLPC  H18X 7900   2.396   4.663   4.621 -0.4444 -0.1473 -0.5567
   83SLPC  H18Y 7901   2.536   4.735   4.538 -1.2670  1.4265 -0.7883
   83SLPC  H18Z 7902   2.511   4.554   4.533  1.1004  0.6548  3.1110
   84SLPC     N 7903   1.395   1.455   1.848 -0.1082  0.0608 -0.5845
   84SLPC   C13 7904   1.329   1.437   1.715 -1.2660  0.3762 -0.1547
   84SLPC  H13A 7905   1.325   1.335   1.679  0.2230  0.2237  0.0269
   84SLPC  H13B 7906   1.227   1.466   1.734 -1.4296 -1.1797  1.6401
   84SLPC  H13C 7907   1.379   1.495   1.639  1.3806  1.7746  2.4225
   84SLPC   C14 7908   1.369   1.595   1.887  0.4859  0.1312 -0.1110
   84SLPC  H14A 7909   1.419   1.672   1.830 -0.2614  1.7689  1.3815
   84SLPC  H14B 7910   1.262   1.609   1.884  0.3429 -0.8013  0.2041
   84SLPC  H14C 7911   1.388   1.600   1.993  0.0238 -0.2203 -0.0076
   84SLPC   C15 7912   1.539   1.423   1.834  0.3550 -0.4108 -0.7181
   84SLPC  H15A 7913   1.589   1.410   1.929 -1.1417 -1.2418 -0.0001
   84SLPC  H15B 7914   1.556   1.336   1.771  1.0127 -0.2722 -0.7338
   84SLPC  H15C 7915   1.596   1.494   1.777  0.8085 -0.2037 -0.0137
   84SLPC   C12 7916   1.337   1.350   1.948  0.4693 -0.0801  0.1425
   84SLPC  H12A 7917   1.363   1.251   1.913 -1.1726 -1.1471  1.7699
   84SLPC  H12B 7918   1.230   1.352   1.941  0.4962 -0.3055 -0.3607
   84SLPC   C11 7919   1.375   1.366   2.096 -0.3422  0.7378  0.9143
   84SLPC  H11A 7920   1.322   1.297   2.165 -0.7674 -0.5970 -0.7006
   84SLPC  H11B 7921   1.334   1.457   2.145 -2.3361 -0.4859  1.6286
   84SLPC     P 7922   1.599   1.284   2.228 -0.0061 -0.0668  0.0502
   84SLPC   O13 7923   1.619   1.148   2.173  0.1398  0.4921  0.4345
   84SLPC   O14 7924   1.720   1.362   2.265  0.3305 -0.0985 -0.2244
   84SLPC   O12 7925   1.519   1.365   2.122  0.2037 -0.1817 -0.0220
   84SLPC   O11 7926   1.511   1.277   2.353  0.2391  0.4718 -0.4982
   84SLPC    C1 7927   1.483   1.388   2.436 -0.3462  0.0308  0.0575
   84SLPC    HA 7928   1.575   1.442   2.469  0.8855 -0.5901 -2.1485
   84SLPC    HB 7929   1.417   1.460   2.383  0.6293  1.2951  0.4909
   84SLPC    C2 7930   1.408   1.342   2.567 -0.5803  0.3883 -0.5743
   84SLPC    HS 7931   1.405   1.431   2.634 -3.0997  1.9901 -2.5971
   84SLPC   O21 7932   1.480   1.234   2.636  0.3513 -0.3663 -0.3339
   84SLPC   C21 7933   1.592   1.285   2.698  0.6558  0.8745 -0.1662
   84SLPC   O22 7934   1.618   1.409   2.702 -0.8428  0.6359  0.2056
   84SLPC   C22 7935   1.668   1.168   2.760  0.9008 -0.1833  0.1352
   84SLPC   H2R 7936   1.635   1.151   2.864 -0.4838  3.3354  0.4201
   84SLPC   H2S 7937   1.663   1.077   2.695 -0.9103  1.7123 -2.6155
   84SLPC    C3 7938   1.257   1.312   2.536 -0.2062 -0.4930 -0.0635
   84SLPC    HX 7939   1.253   1.217   2.479  2.4395  0.0318 -1.3104
   84SLPC    HY 7940   1.211   1.386   2.466  1.7029 -0.4551 -1.3748
   84SLPC   O31 7941   1.183   1.299   2.658  0.4249  0.1423 -0.2296
   84SLPC   C31 7942   1.153   1.413   2.719 -0.4004  0.4694  0.1480
   84SLPC   O32 7943   1.183   1.527   2.684 -0.3968  0.4676 -0.2026
   84SLPC   C32 7944   1.062   1.368   2.840 -0.2005  0.2482  0.2478
   84SLPC   H2X 7945   1.122   1.288   2.889  0.1497  0.7909  0.7216
   84SLPC   H2Y 7946   0.970   1.323   2.797  1.1297 -2.8581  0.4133
   84SLPC   C23 7947   1.808   1.215   2.796  0.0096  0.3805 -0.7916
   84SLPC   H3R 7948   1.803   1.306   2.860  3.9176  1.5590 -1.8359
   84SLPC   H3S 7949   1.864   1.243   2.704 -1.0491  1.4082 -1.1607
   84SLPC   C24 7950   1.880   1.106   2.871  0.5043 -0.1500 -0.1766
   84SLPC   H4R 7951   1.984   1.090   2.836  0.6748  0.0182  0.2413
   84SLPC   H4S 7952   1.824   1.010   2.865 -2.6685  1.5193  0.7045
   84SLPC   C25 7953   1.884   1.134   3.026  0.3163 -0.2586 -0.6426
   84SLPC   H5R 7954   1.802   1.198   3.064  2.0778 -0.0134  3.1271
   84SLPC   H5S 7955   1.974   1.197   3.041 -2.3048  4.3762 -2.3416
   84SLPC   C26 7956   1.902   1.008   3.111  0.1068  0.3501  0.5034
   84SLPC   H6R 7957   2.003   0.964   3.100 -0.2326 -0.5461  0.8714
   84SLPC   H6S 7958   1.822   0.940   3.076 -2.4478  3.1606  0.5092
   84SLPC   C27 7959   1.891   1.029   3.262 -0.0376  0.4718  0.0777
   84SLPC   H7R 7960   1.782   1.023   3.283 -0.5183 -1.0925 -2.4148
   84SLPC   H7S 7961   1.923   1.130   3.296  0.6961  0.1937  0.2162
   84SLPC   C28 7962   1.976   0.923   3.348 -0.3701 -0.3041 -0.1201
   84SLPC   H8R 7963   2.082   0.927   3.317 -0.3712  0.6744 -0.0088
   84SLPC   H8S 7964   1.935   0.824   3.319 -0.4248  0.0688 -1.3602
   84SLPC   C29 7965   1.960   0.953   3.497 -0.5604 -1.0846 -0.6053
   84SLPC   H9R 7966   1.871   1.013   3.524  1.0359  0.3246  1.8896
   84SLPC  C210 7967   2.029   0.890   3.598  0.6489 -0.5722  0.1585
   84SLPC  H10R 7968   2.019   0.938   3.697  1.6350  3.2769 -1.4249
   84SLPC  C211 7969   2.146   0.801   3.584 -0.3640  0.4999 -0.2889
   84SLPC  H11R 7970   2.150   0.754   3.483 -0.8810  1.5851 -0.8319
   84SLPC  H11S 7971   2.124   0.721   3.658 -1.7884  1.6119  0.5299
   84SLPC  C212 7972   2.273   0.865   3.632 -0.2251 -0.0935 -0.5133
   84SLPC  H12R 7973   2.298   0.940   3.556 -0.6921 -0.8220 -1.3974
   84SLPC  C213 7974   2.339   0.867   3.751 -0.3572  0.8543  1.1093
   84SLPC  H13R 7975   2.439   0.913   3.762  1.7659 -3.1591  0.6702
   84SLPC  C214 7976   2.316   0.771   3.862 -0.5772 -0.1883  0.3549
   84SLPC  H14R 7977   2.412   0.717   3.877 -0.5131  0.0108  0.6607
   84SLPC  H14S 7978   2.232   0.701   3.840  0.4362 -1.4353  0.3440
   84SLPC  C215 7979   2.274   0.837   3.994  0.0366 -0.6217 -0.1128
   84SLPC  H15R 7980   2.180   0.894   3.975 -0.1600 -0.4590  1.2541
   84SLPC  H15S 7981   2.340   0.915   4.038  1.8408 -2.3439  0.3780
   84SLPC  C216 7982   2.249   0.737   4.103  0.0682 -0.0869  0.0312
   84SLPC  H16R 7983   2.352   0.711   4.136  0.3643  0.9979 -0.0284
   84SLPC  H16S 7984   2.203   0.645   4.061 -0.8974  0.4248 -0.0586
   84SLPC  C217 7985   2.170   0.785   4.235 -0.2231  0.5402 -0.1324
   84SLPC  H17R 7986   2.242   0.846   4.292  1.5803  0.1465 -1.8745
   84SLPC  H17S 7987   2.132   0.702   4.298 -0.7993  0.0390 -1.1077
   84SLPC  C218 7988   2.046   0.877   4.207 -0.4552  0.3424  0.0895
   84SLPC  H18R 7989   1.973   0.830   4.139 -0.2051  1.1048 -0.7280
   84SLPC  H18S 7990   2.086   0.973   4.167  0.4506  0.1979  0.5987
   84SLPC  H18T 7991   1.995   0.896   4.304  1.5272  1.2201  1.0317
   84SLPC   C33 7992   1.018   1.475   2.948 -0.1758  0.3183  0.4544
   84SLPC   H3X 7993   0.933   1.535   2.911 -0.0157 -0.4053 -1.1715
   84SLPC   H3Y 7994   1.092   1.555   2.968  0.4713  0.2033 -1.2748
   84SLPC   C34 7995   0.988   1.420   3.082 -0.1438 -0.4796 -0.1208
   84SLPC   H4X 7996   1.075   1.368   3.128 -0.7171 -2.7975 -1.4521
   84SLPC   H4Y 7997   0.903   1.349   3.082 -0.4612 -0.1142 -0.9512
   84SLPC   C35 7998   0.947   1.526   3.176 -0.2105 -0.6332  0.3041
   84SLPC   H5X 7999   0.852   1.572   3.143 -0.3124 -1.4236 -0.5086
   84SLPC   H5Y 8000   1.026   1.604   3.168 -1.9732  1.1282 -0.8882
   84SLPC   C36 8001   0.941   1.489   3.325 -0.3327 -0.0844  0.2391
   84SLPC   H6X 8002   1.038   1.466   3.374 -0.2683  1.2306  0.7800
   84SLPC   H6Y 8003   0.893   1.391   3.344  1.8121 -1.2241  0.1245
   84SLPC   C37 8004   0.874   1.600   3.414  0.5869  0.0522  0.1179
   84SLPC   H7X 8005   0.779   1.619   3.360  1.1361  1.1195 -0.5096
   84SLPC   H7Y 8006   0.942   1.687   3.400  1.6515 -0.9696 -1.4068
   84SLPC   C38 8007   0.863   1.567   3.562  0.0902 -0.8072  0.6027
   84SLPC   H8X 8008   0.800   1.647   3.606 -1.6092 -2.2425  0.8906
   84SLPC   H8Y 8009   0.967   1.570   3.601 -0.6096 -1.4075  2.6179
   84SLPC   C39 8010   0.799   1.428   3.599 -0.2654 -0.1834  0.4425
   84SLPC   H9X 8011   0.846   1.342   3.547  0.6834  0.5103  0.1311
   84SLPC   H9Y 8012   0.698   1.433   3.552  0.7323 -0.2844 -1.8342
   84SLPC  C310 8013   0.805   1.415   3.750  0.1252  0.0594  0.7319
   84SLPC  H10X 8014   0.775   1.510   3.799 -0.5406 -0.7537  1.9580
   84SLPC  H10Y 8015   0.911   1.395   3.775 -0.3127 -1.3524  1.6042
   84SLPC  C311 8016   0.711   1.307   3.812  0.0103 -0.0548  0.3425
   84SLPC  H11X 8017   0.733   1.210   3.762  0.2341 -0.9947  2.2039
   84SLPC  H11Y 8018   0.612   1.344   3.778  0.6901  3.9462  2.0865
   84SLPC  C312 8019   0.698   1.297   3.959 -0.5188 -0.0926  0.1261
   84SLPC  H12X 8020   0.599   1.253   3.982 -0.2058 -1.2826 -0.7089
   84SLPC  H12Y 8021   0.700   1.397   4.007 -1.9953 -0.1274  0.3092
   84SLPC  C313 8022   0.823   1.221   4.013  0.6225  0.2048 -0.3780
   84SLPC  H13X 8023   0.911   1.279   3.980 -0.7276  1.1108 -2.6743
   84SLPC  H13Y 8024   0.825   1.116   3.974 -0.0627 -0.5925  1.5941
   84SLPC  C314 8025   0.815   1.222   4.166 -0.4825  0.0476  0.4360
   84SLPC  H14X 8026   0.729   1.159   4.196 -0.4202 -1.6399 -2.4910
   84SLPC  H14Y 8027   0.799   1.326   4.200 -0.7470  1.0694 -2.4929
   84SLPC  C315 8028   0.944   1.172   4.225 -0.4347 -0.5901 -0.8926
   84SLPC  H15X 8029   0.964   1.229   4.319 -0.1207 -3.4941  0.9389
   84SLPC  H15Y 8030   1.027   1.197   4.156  1.4007  0.8354  1.6439
   84SLPC  C316 8031   0.936   1.027   4.269  0.9757  0.0724 -0.7106
   84SLPC  H16X 8032   0.917   0.973   4.174 -1.1611  0.0324 -0.3096
   84SLPC  H16Y 8033   0.843   1.027   4.328  1.2344  1.7939 -0.2436
   84SLPC  C317 8034   1.051   0.959   4.345 -0.1145  0.1241  0.0483
   84SLPC  H17X 8035   1.133   0.957   4.270  0.0017  0.0830  0.1775
   84SLPC  H17Y 8036   1.011   0.856   4.361  0.1061 -0.0357 -0.4081
   84SLPC  C318 8037   1.087   1.025   4.476 -1.0275 -0.2631  0.3380
   84SLPC  H18X 8038   1.114   1.132   4.474  3.0708 -1.1350 -0.3325
   84SLPC  H18Y 8039   1.175   0.980   4.527 -0.9082  1.3669  1.6414
   84SLPC  H18Z 8040   1.006   1.019   4.552 -0.5850  1.0857  0.9426
   85SLPC     N 8041   6.043   5.349   2.328 -0.4043 -0.1407 -0.2515
   85SLPC   C13 8042   5.925   5.268   2.369  0.0640 -0.1680  0.0276
   85SLPC  H13A 8043   5.839   5.333   2.380 -0.6824 -0.7979 -1.7887
   85SLPC  H13B 8044   5.892   5.201   2.292  2.2112 -0.0440 -1.0828
   85SLPC  H13C 8045   5.941   5.215   2.462 -0.7167  1.7407  1.3227
   85SLPC   C14 8046   6.050   5.484   2.403 -0.8948  0.5064 -0.7110
   85SLPC  H14A 8047   6.011   5.471   2.503  0.2309 -0.6293 -0.3939
   85SLPC  H14B 8048   6.150   5.524   2.410 -1.1888  1.4249 -1.5132
   85SLPC  H14C 8049   5.994   5.563   2.355 -0.8217  0.7695 -0.3715
   85SLPC   C15 8050   6.027   5.371   2.177  0.2511 -0.3735 -0.1565
   85SLPC  H15A 8051   6.108   5.426   2.132 -1.3568  1.2433 -1.2292
   85SLPC  H15B 8052   6.017   5.277   2.125  0.8428 -0.9530  0.7421
   85SLPC  H15C 8053   5.935   5.422   2.153  0.1149 -0.9669 -0.9060
   85SLPC   C12 8054   6.164   5.263   2.354 -0.7717 -0.6002 -0.4365
   85SLPC  H12A 8055   6.160   5.176   2.291 -1.6021 -1.5169  0.8320
   85SLPC  H12B 8056   6.154   5.215   2.451 -4.3116 -0.6153 -0.6913
   85SLPC   C11 8057   6.305   5.325   2.330  0.5355  0.2165 -1.0588
   85SLPC  H11A 8058   6.301   5.374   2.230 -0.0896 -1.3438 -1.8437
   85SLPC  H11B 8059   6.383   5.245   2.328  1.9959  1.5957 -2.7832
   85SLPC     P 8060   6.402   5.404   2.554  0.0014  0.4769 -0.0312
   85SLPC   O13 8061   6.546   5.356   2.534  0.7511 -0.1634 -0.4541
   85SLPC   O14 8062   6.390   5.526   2.636  0.2434  0.1140  0.0325
   85SLPC   O12 8063   6.328   5.427   2.424 -0.0684  0.4474  0.5065
   85SLPC   O11 8064   6.323   5.285   2.622  0.2813 -0.2900 -0.0974
   85SLPC    C1 8065   6.216   5.276   2.714 -0.1938  0.2849  0.2168
   85SLPC    HA 8066   6.192   5.377   2.754  0.4487  0.6801 -0.3730
   85SLPC    HB 8067   6.128   5.230   2.665  0.9683 -2.2968  0.3842
   85SLPC    C2 8068   6.254   5.175   2.823  0.2135  0.2142  0.5357
   85SLPC    HS 8069   6.170   5.182   2.895 -0.0317  0.4359  0.2326
   85SLPC   O21 8070   6.384   5.205   2.881  0.3974 -0.2658 -0.0359
   85SLPC   C21 8071   6.377   5.297   2.973  0.1223 -0.0896  0.6250
   85SLPC   O22 8072   6.276   5.354   3.015 -0.1795  0.3820 -0.7993
   85SLPC   C22 8073   6.523   5.319   3.021 -0.1778  0.2079  0.1604
   85SLPC   H2R 8074   6.581   5.224   3.022  0.9403  0.8579 -0.6938
   85SLPC   H2S 8075   6.578   5.381   2.947  0.8523 -3.8057 -2.8059
   85SLPC    C3 8076   6.268   5.034   2.760  0.0864 -0.1195 -0.1526
   85SLPC    HX 8077   6.351   5.034   2.686 -0.1465 -1.3398 -0.4336
   85SLPC    HY 8078   6.172   5.001   2.715 -0.2519  0.7149 -0.0695
   85SLPC   O31 8079   6.290   4.943   2.871  0.0092  0.1347 -0.2294
   85SLPC   C31 8080   6.401   4.880   2.890  0.0059 -0.2005  0.4129
   85SLPC   O32 8081   6.496   4.880   2.810  0.0857  0.3929 -0.5669
   85SLPC   C32 8082   6.401   4.810   3.033  0.7152 -0.0313  0.3525
   85SLPC   H2X 8083   6.501   4.766   3.056  1.5813  1.5137 -0.2545
   85SLPC   H2Y 8084   6.319   4.736   3.025  1.5460 -0.9140 -0.3362
   85SLPC   C23 8085   6.516   5.399   3.156 -0.5940  0.2894  0.3520
   85SLPC   H3R 8086   6.456   5.491   3.141 -0.9653  0.0579  0.4016
   85SLPC   H3S 8087   6.618   5.440   3.165  0.0498 -0.7751 -1.5665
   85SLPC   C24 8088   6.488   5.312   3.276 -0.0267 -0.2085  0.0316
   85SLPC   H4R 8089   6.550   5.220   3.274 -0.9336 -1.0057 -4.9680
   85SLPC   H4S 8090   6.382   5.284   3.255 -0.4739  0.2215  1.5376
   85SLPC   C25 8091   6.500   5.382   3.407 -0.0627 -0.6838 -0.5367
   85SLPC   H5R 8092   6.610   5.371   3.422  0.1441  0.4784 -1.1585
   85SLPC   H5S 8093   6.472   5.489   3.398 -1.1545 -1.0652 -2.1643
   85SLPC   C26 8094   6.409   5.314   3.507 -0.1765 -0.5354  0.6218
   85SLPC   H6R 8095   6.458   5.218   3.532 -0.1076 -1.3974 -2.3797
   85SLPC   H6S 8096   6.306   5.302   3.467 -0.7501  1.8151  1.2590
   85SLPC   C27 8097   6.410   5.406   3.628 -0.1904 -0.0674 -0.3778
   85SLPC   H7R 8098   6.361   5.502   3.600 -1.8932 -0.9943 -0.6887
   85SLPC   H7S 8099   6.512   5.427   3.667 -0.9289 -1.2960  2.4590
   85SLPC   C28 8100   6.335   5.342   3.743 -0.0522 -0.5302 -0.3962
   85SLPC   H8R 8101   6.393   5.249   3.760 -1.4837 -1.4559 -0.4290
   85SLPC   H8S 8102   6.233   5.311   3.713 -0.9625 -0.2838  2.1575
   85SLPC   C29 8103   6.317   5.423   3.870  0.2488 -0.2353  0.4341
   85SLPC   H9R 8104   6.233   5.494   3.865  0.5211  0.2491  2.0775
   85SLPC  C210 8105   6.400   5.410   3.979  0.1479 -0.1274 -0.6253
   85SLPC  H10R 8106   6.378   5.463   4.073  1.6127 -1.9610  0.8025
   85SLPC  C211 8107   6.521   5.325   4.000  0.5081  0.4734  0.0766
   85SLPC  H11R 8108   6.541   5.271   3.905  0.1470  1.4747 -0.5911
   85SLPC  H11S 8109   6.502   5.243   4.073  1.4351 -2.2477 -2.5382
   85SLPC  C212 8110   6.630   5.412   4.056  0.8050 -0.4625  0.2433
   85SLPC  H12R 8111   6.682   5.470   3.978  0.0616  2.0549  1.5042
   85SLPC  C213 8112   6.646   5.452   4.182 -0.0397 -0.2094 -1.3661
   85SLPC  H13R 8113   6.735   5.507   4.216 -0.1972 -0.9748  0.4157
   85SLPC  C214 8114   6.569   5.398   4.294 -0.3511  0.2287  0.0057
   85SLPC  H14R 8115   6.621   5.325   4.359 -2.1912 -1.1775 -0.0032
   85SLPC  H14S 8116   6.477   5.345   4.261 -0.2968  1.0811 -1.6453
   85SLPC  C215 8117   6.525   5.526   4.365 -0.4998  0.5257  0.5425
   85SLPC  H15R 8118   6.491   5.609   4.299 -1.7387  0.3831  0.9699
   85SLPC  H15S 8119   6.621   5.560   4.409  0.3745 -1.1265  0.0064
   85SLPC  C216 8120   6.426   5.514   4.486  0.0402  0.0081  0.0773
   85SLPC  H16R 8121   6.405   5.610   4.537 -1.8624  0.7083 -1.8703
   85SLPC  H16S 8122   6.464   5.441   4.561 -2.6073 -0.2611  1.2925
   85SLPC  C217 8123   6.291   5.467   4.435  0.3396  0.2423 -0.6684
   85SLPC  H17R 8124   6.296   5.365   4.391  0.0835  0.9662 -2.4890
   85SLPC  H17S 8125   6.258   5.531   4.350  1.7578 -0.0768 -1.5025
   85SLPC  C218 8126   6.188   5.472   4.553  0.1759 -0.7607 -1.0762
   85SLPC  H18R 8127   6.189   5.569   4.607  1.8654 -0.5444 -1.4333
   85SLPC  H18S 8128   6.205   5.393   4.630 -2.8457 -1.4810 -1.0207
   85SLPC  H18T 8129   6.089   5.456   4.506 -0.2853 -0.4626 -0.2261
   85SLPC   C33 8130   6.360   4.904   3.146 -0.5756 -0.1999  0.0516
   85SLPC   H3X 8131   6.274   4.971   3.123 -0.4601  0.4520  1.3838
   85SLPC   H3Y 8132   6.444   4.976   3.155  0.8442 -1.6931 -0.7476
   85SLPC   C34 8133   6.338   4.818   3.278  0.1269  0.3103  0.4434
   85SLPC   H4X 8134   6.434   4.774   3.314 -0.6664 -1.7033  0.2765
   85SLPC   H4Y 8135   6.273   4.729   3.262 -1.5714  1.0898  2.5718
   85SLPC   C35 8136   6.305   4.910   3.394 -0.1098  0.7823 -0.3860
   85SLPC   H5X 8137   6.197   4.930   3.378 -0.1164  1.2457  0.2039
   85SLPC   H5Y 8138   6.356   5.009   3.390  0.7715  0.3039 -2.1065
   85SLPC   C36 8139   6.326   4.845   3.531  0.1741  0.3045  0.1877
   85SLPC   H6X 8140   6.433   4.835   3.558 -0.0111 -0.1559  0.7689
   85SLPC   H6Y 8141   6.269   4.750   3.535  1.9428 -0.8310 -0.3589
   85SLPC   C37 8142   6.259   4.930   3.634  0.4677 -0.2971 -0.9035
   85SLPC   H7X 8143   6.149   4.929   3.616  0.0705  0.5880  1.1385
   85SLPC   H7Y 8144   6.288   5.034   3.609 -1.5299  0.2807 -0.9859
   85SLPC   C38 8145   6.290   4.902   3.775 -0.5193  0.3487  0.3159
   85SLPC   H8X 8146   6.398   4.904   3.800 -0.3734  0.5369 -0.3231
   85SLPC   H8Y 8147   6.243   4.803   3.794  0.4725 -0.7151 -2.3121
   85SLPC   C39 8148   6.224   4.994   3.870 -0.6898 -0.5910  0.7962
   85SLPC   H9X 8149   6.115   4.994   3.849 -0.4245 -0.5678 -0.7051
   85SLPC   H9Y 8150   6.269   5.089   3.832  1.8109 -2.5774 -1.6383
   85SLPC  C310 8151   6.253   4.963   4.021 -0.3123  0.0193  0.4194
   85SLPC  H10X 8152   6.361   4.970   4.047  0.1978 -3.3477 -0.3303
   85SLPC  H10Y 8153   6.229   4.856   4.039 -0.2118  0.1369  1.2610
   85SLPC  C311 8154   6.171   5.052   4.108 -0.3569 -0.8959  0.2778
   85SLPC  H11X 8155   6.061   5.046   4.093 -0.2518 -2.5356  0.0299
   85SLPC  H11Y 8156   6.203   5.157   4.091 -1.6929 -0.7105 -1.4230
   85SLPC  C312 8157   6.207   5.020   4.253 -0.4554 -0.1368 -0.1708
   85SLPC  H12X 8158   6.314   5.042   4.271 -0.1010 -0.7955 -1.4108
   85SLPC  H12Y 8159   6.196   4.910   4.266  1.1689 -0.4720 -1.3547
   85SLPC  C313 8160   6.123   5.098   4.356 -0.0100  0.1060 -0.3117
   85SLPC  H13X 8161   6.018   5.079   4.326 -0.4989  0.6956  0.9495
   85SLPC  H13Y 8162   6.134   5.209   4.361  1.3360  0.0220 -1.0104
   85SLPC  C314 8163   6.151   5.039   4.499 -0.2378 -0.0519  1.1544
   85SLPC  H14X 8164   6.069   5.076   4.565  0.7689 -0.3658  2.6289
   85SLPC  H14Y 8165   6.241   5.096   4.533  1.2276 -0.9275 -1.0537
   85SLPC  C315 8166   6.163   4.891   4.497  0.1429  0.6643 -0.6348
   85SLPC  H15X 8167   6.261   4.882   4.445  0.0241  0.4154 -0.8160
   85SLPC  H15Y 8168   6.081   4.837   4.445  1.3268 -2.2032  0.3106
   85SLPC  C316 8169   6.180   4.842   4.643  0.5960  0.0672 -0.3496
   85SLPC  H16X 8170   6.081   4.816   4.685  1.6252 -0.9303  1.5682
   85SLPC  H16Y 8171   6.224   4.926   4.702 -0.6908  0.5689 -0.0690
   85SLPC  C317 8172   6.273   4.722   4.667 -0.1469 -0.5867  0.3804
   85SLPC  H17X 8173   6.376   4.737   4.626  0.1261 -0.8938  0.9507
   85SLPC  H17Y 8174   6.225   4.635   4.617 -0.1342 -0.5886  0.3707
   85SLPC  C318 8175   6.272   4.682   4.815 -0.5419  0.3269  0.8453
   85SLPC  H18X 8176   6.175   4.634   4.838 -0.6128  1.3190  2.8262
   85SLPC  H18Y 8177   6.283   4.772   4.880 -3.7382  1.3889  0.0841
   85SLPC  H18Z 8178   6.356   4.614   4.842  1.5718  2.2236 -0.5237
   86SLPC     N 8179   0.034   0.618   2.075 -0.3152 -0.2780 -0.9620
   86SLPC   C13 8180   0.068   0.697   2.200  0.5061  0.7059 -0.4266
   86SLPC  H13A 8181  -0.010   0.667   2.269  1.7919 -0.9741  0.3589
   86SLPC  H13B 8182   0.169   0.675   2.231  0.5267 -0.5980 -1.3242
   86SLPC  H13C 8183   0.057   0.802   2.175 -1.7985  0.2744 -1.5050
   86SLPC   C14 8184  -0.097   0.668   2.022 -0.1074  0.3870 -0.4109
   86SLPC  H14A 8185  -0.082   0.770   1.990 -1.2498  0.4958 -0.6509
   86SLPC  H14B 8186  -0.112   0.616   1.929  0.6159  2.9740 -2.0923
   86SLPC  H14C 8187  -0.172   0.665   2.100  2.0486  1.1724  1.8239
   86SLPC   C15 8188   0.023   0.471   2.118  0.3355  0.1704 -0.0051
   86SLPC  H15A 8189  -0.009   0.460   2.221  2.0033 -0.9431  0.4323
   86SLPC  H15B 8190  -0.043   0.421   2.050 -0.2161  0.4610  0.3016
   86SLPC  H15C 8191   0.117   0.420   2.123  0.0655 -0.4074 -0.6754
   86SLPC   C12 8192   0.147   0.622   1.972  1.1621 -0.5580 -1.0251
   86SLPC  H12A 8193   0.127   0.537   1.910 -1.8607 -1.9063  1.5225
   86SLPC  H12B 8194   0.237   0.612   2.031  1.2617  0.9845 -0.8773
   86SLPC   C11 8195   0.159   0.757   1.900  0.1068 -0.5742 -0.3070
   86SLPC  H11A 8196   0.067   0.769   1.839  1.1584 -0.2240 -1.8777
   86SLPC  H11B 8197   0.235   0.756   1.819 -0.4220  0.1650 -0.8320
   86SLPC     P 8198   0.314   0.898   2.050  0.5023  0.0248 -0.2952
   86SLPC   O13 8199   0.404   0.953   1.943 -0.2241 -0.2089 -0.0125
   86SLPC   O14 8200   0.287   0.982   2.170 -0.1285  0.3360 -0.6474
   86SLPC   O12 8201   0.177   0.875   1.976  0.1141  0.1623 -0.4901
   86SLPC   O11 8202   0.364   0.753   2.093  0.0254  0.8801 -0.1009
   86SLPC    C1 8203   0.504   0.741   2.140  1.5721  0.5263  0.2322
   86SLPC    HA 8204   0.554   0.668   2.073  0.3673  1.4365 -1.7520
   86SLPC    HB 8205   0.563   0.835   2.138  1.4965  0.6064 -2.5836
   86SLPC    C2 8206   0.514   0.696   2.284 -0.4964  0.1758 -0.0737
   86SLPC    HS 8207   0.440   0.618   2.314 -0.0866  0.3707  1.5292
   86SLPC   O21 8208   0.486   0.818   2.355 -0.2345  0.1880  0.3915
   86SLPC   C21 8209   0.366   0.828   2.416 -0.1661  0.1084 -0.4005
   86SLPC   O22 8210   0.282   0.736   2.407 -0.0538  0.4404 -0.4446
   86SLPC   C22 8211   0.355   0.956   2.503  0.2073 -0.1225  0.7878
   86SLPC   H2R 8212   0.457   1.000   2.512 -0.4259  1.8146 -0.7469
   86SLPC   H2S 8213   0.286   1.018   2.442 -0.0237 -1.9947 -0.9556
   86SLPC    C3 8214   0.663   0.653   2.328 -0.2788  0.2546  1.0410
   86SLPC    HX 8215   0.726   0.744   2.325 -0.5590  0.4303  0.1714
   86SLPC    HY 8216   0.705   0.580   2.256  0.3232  0.3923  1.2498
   86SLPC   O31 8217   0.660   0.606   2.460 -0.6661  0.2338  0.0817
   86SLPC   C31 8218   0.774   0.550   2.501 -0.1640  0.2995  1.0046
   86SLPC   O32 8219   0.876   0.547   2.436  0.6522  0.3389  0.1901
   86SLPC   C32 8220   0.756   0.514   2.654 -0.4173 -0.5181  0.0631
   86SLPC   H2X 8221   0.720   0.409   2.662 -0.1797 -0.5524  0.7193
   86SLPC   H2Y 8222   0.680   0.584   2.695  0.3537 -0.0533  0.7292
   86SLPC   C23 8223   0.275   0.942   2.634  0.2255 -0.4939 -0.5051
   86SLPC   H3R 8224   0.176   0.905   2.600 -0.9233  1.8419  0.1566
   86SLPC   H3S 8225   0.247   1.040   2.677 -1.1336 -1.4615  0.9412
   86SLPC   C24 8226   0.328   0.842   2.738 -0.7460 -0.0084  0.0182
   86SLPC   H4R 8227   0.310   0.747   2.683 -0.0060 -1.3131  1.9216
   86SLPC   H4S 8228   0.275   0.835   2.835 -0.0814  0.7348  0.4564
   86SLPC   C25 8229   0.484   0.848   2.759 -0.0229 -0.0614 -0.6088
   86SLPC   H5R 8230   0.519   0.953   2.773  1.4660  0.1257 -4.5421
   86SLPC   H5S 8231   0.532   0.809   2.666 -1.3894  2.3199 -2.4289
   86SLPC   C26 8232   0.523   0.760   2.873 -0.5705  0.2917 -0.1458
   86SLPC   H6R 8233   0.633   0.771   2.889 -0.7576  1.7779  0.3098
   86SLPC   H6S 8234   0.502   0.652   2.861  1.0867 -0.0357 -0.3166
   86SLPC   C27 8235   0.470   0.803   3.016  0.2067  0.0190  0.4037
   86SLPC   H7R 8236   0.366   0.840   3.003  0.0891  0.6626  2.7206
   86SLPC   H7S 8237   0.526   0.889   3.058  0.6054  1.5019 -2.8464
   86SLPC   C28 8238   0.462   0.694   3.121 -0.5657  0.0507  0.4345
   86SLPC   H8R 8239   0.418   0.612   3.061 -3.0162  0.1935  1.8751
   86SLPC   H8S 8240   0.386   0.717   3.200 -2.0130 -2.5701 -0.0698
   86SLPC   C29 8241   0.599   0.649   3.173  0.0569 -0.1941  0.4285
   86SLPC   H9R 8242   0.663   0.610   3.092  0.7331  0.9466  0.4049
   86SLPC  C210 8243   0.636   0.643   3.297 -0.2412 -0.0184  0.4376
   86SLPC  H10R 8244   0.739   0.612   3.322 -0.3883  0.0071  1.0910
   86SLPC  C211 8245   0.556   0.694   3.412  0.0864 -0.4239  0.5341
   86SLPC  H11R 8246   0.591   0.631   3.496 -1.7098 -0.7736  1.0594
   86SLPC  H11S 8247   0.445   0.688   3.407 -0.2310  3.5550 -0.8650
   86SLPC  C212 8248   0.593   0.842   3.437 -0.0328  0.2119  0.9481
   86SLPC  H12R 8249   0.634   0.894   3.349 -0.4276 -0.6091  0.2593
   86SLPC  C213 8250   0.562   0.927   3.534 -0.0197  0.6965 -0.5428
   86SLPC  H13R 8251   0.597   1.031   3.528  1.4832  0.2641  0.3258
   86SLPC  C214 8252   0.499   0.890   3.662 -0.0938  0.0421 -0.8017
   86SLPC  H14R 8253   0.497   0.781   3.681  0.8628 -0.4697 -3.2468
   86SLPC  H14S 8254   0.394   0.926   3.671  0.9828  3.4332 -0.4410
   86SLPC  C215 8255   0.588   0.941   3.781 -0.1763 -0.1691  0.1091
   86SLPC  H15R 8256   0.552   1.043   3.806 -0.2372 -0.3473  0.7435
   86SLPC  H15S 8257   0.695   0.959   3.756 -0.0320 -0.6383  0.3886
   86SLPC  C216 8258   0.572   0.865   3.911 -0.0802 -0.6820  0.1526
   86SLPC  H16R 8259   0.616   0.764   3.899  0.0544 -0.8782  2.0671
   86SLPC  H16S 8260   0.465   0.855   3.940 -0.5402 -2.2016 -1.8523
   86SLPC  C217 8261   0.642   0.927   4.032  0.0489 -0.5416  0.0069
   86SLPC  H17R 8262   0.616   1.035   4.026  0.4784 -0.5008 -1.6422
   86SLPC  H17S 8263   0.749   0.915   4.005  0.2942 -1.5016  1.3066
   86SLPC  C218 8264   0.605   0.868   4.170  0.5461 -0.4073  0.4453
   86SLPC  H18R 8265   0.654   0.769   4.183  2.4520  0.4360 -0.0573
   86SLPC  H18S 8266   0.496   0.850   4.183  0.9957 -2.1227  2.1766
   86SLPC  H18T 8267   0.655   0.929   4.248 -1.1026  1.0409  0.4295
   86SLPC   C33 8268   0.888   0.535   2.731 -0.0540 -0.2487  0.1904
   86SLPC   H3X 8269   0.936   0.632   2.708 -0.9140  0.2521  0.4657
   86SLPC   H3Y 8270   0.957   0.452   2.704 -0.2540 -0.0978 -0.7982
   86SLPC   C34 8271   0.861   0.546   2.878  0.9368  0.2200 -0.4644
   86SLPC   H4X 8272   0.815   0.449   2.907  3.2839 -0.1515  2.6064
   86SLPC   H4Y 8273   0.794   0.632   2.894  0.5131  0.4351 -2.9322
   86SLPC   C35 8274   0.988   0.556   2.968  1.3765  0.4787  0.6567
   86SLPC   H5X 8275   1.046   0.645   2.934 -0.5913  1.4900 -0.2188
   86SLPC   H5Y 8276   1.049   0.465   2.947  1.3198  1.0610 -2.5629
   86SLPC   C36 8277   0.948   0.574   3.118  0.7694 -0.0926 -0.4559
   86SLPC   H6X 8278   0.910   0.475   3.153  0.0766 -0.4089 -2.0104
   86SLPC   H6Y 8279   0.880   0.658   3.141  1.8165  1.2774 -2.1179
   86SLPC   C37 8280   1.067   0.592   3.208  0.3138  0.5532 -0.4685
   86SLPC   H7X 8281   1.115   0.683   3.166  0.5763  1.9427  2.6169
   86SLPC   H7Y 8282   1.125   0.497   3.196 -2.4261 -1.1402 -1.2353
   86SLPC   C38 8283   1.050   0.610   3.369 -0.3078  0.3624  0.3957
   86SLPC   H8X 8284   1.023   0.518   3.426  1.7651 -0.8789 -0.5103
   86SLPC   H8Y 8285   0.966   0.679   3.392  0.2382  0.8569  0.9484
   86SLPC   C39 8286   1.167   0.682   3.433 -0.3484  0.1385  0.1448
   86SLPC   H9X 8287   1.162   0.787   3.396  0.4651  0.6310  1.3589
   86SLPC   H9Y 8288   1.258   0.628   3.399 -0.2437 -0.6630  1.6159
   86SLPC  C310 8289   1.159   0.683   3.590  0.4142 -0.6527 -0.5552
   86SLPC  H10X 8290   1.118   0.587   3.626 -2.1157  0.7945  0.7466
   86SLPC  H10Y 8291   1.103   0.773   3.624  0.5694 -0.9442  0.4969
   86SLPC  C311 8292   1.302   0.707   3.659 -0.4833  0.5006  0.1790
   86SLPC  H11X 8293   1.334   0.805   3.619 -1.7795  0.8398 -0.0967
   86SLPC  H11Y 8294   1.375   0.636   3.614 -3.2332 -1.4916 -1.4532
   86SLPC  C312 8295   1.317   0.706   3.812 -0.0451  0.1039 -0.0562
   86SLPC  H12X 8296   1.289   0.605   3.849 -0.0034  0.2464  0.3700
   86SLPC  H12Y 8297   1.245   0.770   3.867  0.0999  0.9014 -0.7821
   86SLPC  C313 8298   1.458   0.749   3.855  0.3987 -0.7722 -0.3782
   86SLPC  H13X 8299   1.480   0.849   3.814  1.1857 -0.1593  1.4251
   86SLPC  H13Y 8300   1.537   0.678   3.822  1.1996 -0.5280  0.8977
   86SLPC  C314 8301   1.465   0.763   4.011 -0.3937  0.3153 -0.1056
   86SLPC  H14X 8302   1.456   0.655   4.034 -0.0915 -0.1505 -2.0592
   86SLPC  H14Y 8303   1.380   0.822   4.051  0.4131 -0.0181  2.2528
   86SLPC  C315 8304   1.594   0.824   4.066 -0.1837 -0.0312  0.0647
   86SLPC  H15X 8305   1.684   0.798   4.007  0.0290  1.4379 -0.2973
   86SLPC  H15Y 8306   1.600   0.807   4.175 -1.6703  1.9892  0.5138
   86SLPC  C316 8307   1.593   0.980   4.061  0.5824  0.1051 -0.5381
   86SLPC  H16X 8308   1.501   1.023   4.107  0.3581  2.2033 -2.7643
   86SLPC  H16Y 8309   1.584   1.002   3.953  0.8230 -2.7328 -1.2056
   86SLPC  C317 8310   1.703   1.055   4.131 -0.8280  0.4706  0.6958
   86SLPC  H17X 8311   1.800   1.046   4.077 -0.7100  0.0800  0.9733
   86SLPC  H17Y 8312   1.723   0.997   4.224 -0.5944  1.1383  1.0785
   86SLPC  C318 8313   1.673   1.198   4.163 -0.2149  0.3092  0.0114
   86SLPC  H18X 8314   1.580   1.194   4.223  0.4585 -0.1823  1.0513
   86SLPC  H18Y 8315   1.654   1.266   4.077 -0.7702  1.7179  1.1909
   86SLPC  H18Z 8316   1.752   1.249   4.223  2.0072 -1.3529 -1.3522
   87SLPC     N 8317   4.966   2.671   1.715  0.1229 -0.3722  0.4154
   87SLPC   C13 8318   5.089   2.592   1.680 -0.0491  0.4895 -0.3174
   87SLPC  H13A 8319   5.107   2.571   1.576  1.4408 -0.4641  0.1057
   87SLPC  H13B 8320   5.182   2.636   1.714 -0.6936  1.2158  0.5545
   87SLPC  H13C 8321   5.083   2.497   1.732  2.5462 -0.0951 -0.9702
   87SLPC   C14 8322   4.852   2.604   1.662 -0.3153  0.3952  0.5186
   87SLPC  H14A 8323   4.841   2.505   1.704  0.5498  0.6260  1.3156
   87SLPC  H14B 8324   4.755   2.648   1.679 -0.6812 -0.8980  2.0162
   87SLPC  H14C 8325   4.861   2.578   1.558  0.0166  0.4903  0.5230
   87SLPC   C15 8326   4.986   2.800   1.639 -0.6123 -0.5217 -0.1073
   87SLPC  H15A 8327   5.082   2.847   1.651 -1.2248  1.1690 -1.4641
   87SLPC  H15B 8328   4.981   2.776   1.534 -1.7780 -1.8127  0.2037
   87SLPC  H15C 8329   4.910   2.874   1.661 -0.5033 -0.9279  1.7839
   87SLPC   C12 8330   4.965   2.691   1.866 -0.4330  0.3212 -0.1161
   87SLPC  H12A 8331   4.905   2.779   1.882  0.3068  1.0679 -1.3072
   87SLPC  H12B 8332   5.061   2.727   1.901 -0.2183 -1.0546  0.7943
   87SLPC   C11 8333   4.916   2.576   1.963 -0.5260 -0.2803  0.1850
   87SLPC  H11A 8334   4.948   2.589   2.068  0.5188  0.6323 -0.2182
   87SLPC  H11B 8335   4.964   2.480   1.935  0.1089  0.1806 -0.3519
   87SLPC     P 8336   4.706   2.430   2.013  0.1944  0.5996 -0.0719
   87SLPC   O13 8337   4.564   2.457   1.996  0.3039  0.4838  0.1475
   87SLPC   O14 8338   4.766   2.300   1.963 -0.3251  0.0261  0.8649
   87SLPC   O12 8339   4.772   2.552   1.946  0.0175 -0.0743  0.7795
   87SLPC   O11 8340   4.752   2.450   2.161 -0.1476 -0.0933 -0.4333
   87SLPC    C1 8341   4.688   2.568   2.223 -0.2480 -0.1112  0.1145
   87SLPC    HA 8342   4.768   2.635   2.261 -0.7646  1.0751 -0.8242
   87SLPC    HB 8343   4.639   2.638   2.152 -0.5532 -0.5257 -0.0926
   87SLPC    C2 8344   4.593   2.525   2.335  0.2451  0.2035 -0.1343
   87SLPC    HS 8345   4.573   2.612   2.400  0.9754 -1.6674  2.7999
   87SLPC   O21 8346   4.655   2.421   2.411 -0.2069 -0.6965  0.1147
   87SLPC   C21 8347   4.742   2.461   2.503 -0.1352  0.0647  0.0148
   87SLPC   O22 8348   4.756   2.575   2.539 -0.8598 -0.7194  0.1426
   87SLPC   C22 8349   4.797   2.336   2.566  0.0727  0.0696 -0.1161
   87SLPC   H2R 8350   4.719   2.257   2.565 -0.1294  0.2688 -0.8250
   87SLPC   H2S 8351   4.892   2.304   2.517  0.5284  0.8495  0.2464
   87SLPC    C3 8352   4.458   2.486   2.279  0.6691 -0.0741 -0.5664
   87SLPC    HX 8353   4.468   2.398   2.212 -1.0363  1.4976 -3.0377
   87SLPC    HY 8354   4.430   2.575   2.220  1.0897  0.7204  0.4064
   87SLPC   O31 8355   4.381   2.468   2.398  0.2332  0.7708 -0.0674
   87SLPC   C31 8356   4.372   2.351   2.448 -0.1164  0.7404 -0.0560
   87SLPC   O32 8357   4.388   2.238   2.396 -0.6179 -0.2448 -0.2249
   87SLPC   C32 8358   4.326   2.372   2.590  0.1302 -0.3833 -0.6167
   87SLPC   H2X 8359   4.253   2.456   2.598  1.3897  0.7131 -0.2491
   87SLPC   H2Y 8360   4.408   2.413   2.653 -1.1587  0.9415  0.2615
   87SLPC   C23 8361   4.844   2.377   2.714 -0.3752 -0.5780 -0.8006
   87SLPC   H3R 8362   4.916   2.460   2.700  0.3611 -0.9877  0.4703
   87SLPC   H3S 8363   4.891   2.292   2.767  0.5410  0.0673 -0.5519
   87SLPC   C24 8364   4.716   2.392   2.808 -0.1047  0.4945 -0.1965
   87SLPC   H4R 8365   4.658   2.299   2.791  1.3929 -0.4351 -0.3958
   87SLPC   H4S 8366   4.654   2.483   2.793 -0.1504  0.6515  0.8456
   87SLPC   C25 8367   4.761   2.416   2.952 -0.2836 -0.8439  0.0832
   87SLPC   H5R 8368   4.817   2.512   2.949 -0.9072 -0.4822 -0.3785
   87SLPC   H5S 8369   4.829   2.333   2.980  0.6657  1.3312  5.3731
   87SLPC   C26 8370   4.646   2.439   3.045  0.5428 -0.5539 -0.9634
   87SLPC   H6R 8371   4.599   2.343   3.077 -2.3967  1.6324  1.9324
   87SLPC   H6S 8372   4.559   2.483   2.991  0.5102 -1.2786 -1.5171
   87SLPC   C27 8373   4.681   2.526   3.173 -0.5206 -0.5719  0.6349
   87SLPC   H7R 8374   4.678   2.632   3.141  0.4218 -1.1932 -1.6874
   87SLPC   H7S 8375   4.788   2.517   3.201  0.0728  1.1915 -0.8518
   87SLPC   C28 8376   4.606   2.494   3.304  0.0448  0.3032  0.3707
   87SLPC   H8R 8377   4.664   2.551   3.380  2.4627 -2.7186  0.9887
   87SLPC   H8S 8378   4.626   2.387   3.323 -2.5856 -0.2320  0.3886
   87SLPC   C29 8379   4.460   2.518   3.305  0.3421 -0.1219 -0.4251
   87SLPC   H9R 8380   4.409   2.501   3.210  1.8638 -2.9587 -0.8455
   87SLPC  C210 8381   4.393   2.554   3.422 -0.0101 -0.0148  0.7048
   87SLPC  H10R 8382   4.284   2.567   3.417  0.1238  1.2293  0.7687
   87SLPC  C211 8383   4.451   2.552   3.556  0.0149  1.2138  0.1527
   87SLPC  H11R 8384   4.488   2.646   3.603 -0.1956  0.2464  2.3556
   87SLPC  H11S 8385   4.541   2.488   3.547 -0.4073  0.5414  0.6434
   87SLPC  C212 8386   4.352   2.499   3.659  0.2307  0.4503 -0.1650
   87SLPC  H12R 8387   4.248   2.513   3.626  0.0315 -1.5253 -0.5207
   87SLPC  C213 8388   4.387   2.449   3.777  0.3252 -0.5116 -0.0391
   87SLPC  H13R 8389   4.314   2.434   3.858  2.4083 -0.0990  2.0573
   87SLPC  C214 8390   4.529   2.434   3.831 -0.0691  0.3193 -0.0551
   87SLPC  H14R 8391   4.601   2.452   3.748  1.0804 -1.1275  0.5826
   87SLPC  H14S 8392   4.546   2.327   3.855 -0.5654  0.0977 -0.6611
   87SLPC  C215 8393   4.563   2.532   3.948  0.5700 -0.4159 -0.3668
   87SLPC  H15R 8394   4.488   2.501   4.023  0.3849 -0.8750 -0.7385
   87SLPC  H15S 8395   4.565   2.640   3.921  0.7907 -0.5233 -0.7936
   87SLPC  C216 8396   4.698   2.497   4.009 -0.2686 -0.6806  0.2746
   87SLPC  H16R 8397   4.695   2.393   4.049 -0.1331 -0.5805  0.5467
   87SLPC  H16S 8398   4.717   2.564   4.095 -0.7587  0.3817 -0.4075
   87SLPC  C217 8399   4.821   2.508   3.920 -0.6061 -0.4598  0.3317
   87SLPC  H17R 8400   4.817   2.423   3.849 -0.7320 -0.2688  0.1086
   87SLPC  H17S 8401   4.907   2.497   3.989 -0.6134 -1.5519  0.1767
   87SLPC  C218 8402   4.845   2.641   3.840  0.2684  0.4194 -0.4163
   87SLPC  H18R 8403   4.934   2.631   3.774  2.1783  0.6656  1.9542
   87SLPC  H18S 8404   4.862   2.727   3.909  0.8203  0.0189 -0.0352
   87SLPC  H18T 8405   4.770   2.650   3.759  3.3032  0.4435 -3.4396
   87SLPC   C33 8406   4.280   2.236   2.649 -0.1954 -0.5894 -0.4258
   87SLPC   H3X 8407   4.373   2.176   2.660  0.9996  0.9810 -1.3717
   87SLPC   H3Y 8408   4.208   2.180   2.586 -0.7956 -1.8734  1.3316
   87SLPC   C34 8409   4.209   2.246   2.790 -0.4770 -0.3077  0.0294
   87SLPC   H4X 8410   4.138   2.165   2.817 -2.1952  1.2808  0.4941
   87SLPC   H4Y 8411   4.140   2.334   2.782 -0.0913 -0.0231 -0.2391
   87SLPC   C35 8412   4.306   2.269   2.908 -0.6797 -0.1707  0.5173
   87SLPC   H5X 8413   4.366   2.360   2.890 -0.8179 -0.1207  0.3044
   87SLPC   H5Y 8414   4.388   2.194   2.904  0.9792  1.6203 -0.2376
   87SLPC   C36 8415   4.246   2.263   3.054 -0.3963  0.5327 -0.5167
   87SLPC   H6X 8416   4.326   2.309   3.116 -0.9222 -0.4816  0.9784
   87SLPC   H6Y 8417   4.233   2.155   3.076 -1.3866  0.3436 -1.9140
   87SLPC   C37 8418   4.114   2.333   3.072  0.0181 -0.3353 -0.0362
   87SLPC   H7X 8419   4.040   2.263   3.029 -2.1124  1.2903  0.7648
   87SLPC   H7Y 8420   4.103   2.422   3.005  0.5416 -2.1208 -2.6192
   87SLPC   C38 8421   4.073   2.381   3.219  0.3807 -0.7358 -0.4569
   87SLPC   H8X 8422   3.970   2.421   3.215  1.4230  2.1322 -1.3800
   87SLPC   H8Y 8423   4.143   2.464   3.244  1.0328 -1.2647 -0.4783
   87SLPC   C39 8424   4.086   2.277   3.329 -0.2594 -0.5338  0.4667
   87SLPC   H9X 8425   4.192   2.247   3.343  0.0013 -0.5373 -1.2274
   87SLPC   H9Y 8426   4.024   2.185   3.323  1.1955 -1.6547  1.7803
   87SLPC  C310 8427   4.040   2.331   3.470  0.2446 -0.1041  0.2710
   87SLPC  H10X 8428   3.929   2.341   3.469  0.3110  0.6528  0.4397
   87SLPC  H10Y 8429   4.098   2.423   3.487 -0.4874  0.7779 -1.6965
   87SLPC  C311 8430   4.079   2.239   3.582 -0.2971  0.2356  0.5553
   87SLPC  H11X 8431   4.185   2.208   3.566 -0.0366  1.0635  0.6044
   87SLPC  H11Y 8432   4.031   2.139   3.586  1.3188 -0.5497  2.0804
   87SLPC  C312 8433   4.070   2.301   3.726  0.7599  0.3926  0.0807
   87SLPC  H12X 8434   4.065   2.412   3.718  0.9234  0.5990  2.3553
   87SLPC  H12Y 8435   4.168   2.265   3.766  0.6629  0.2498  0.1877
   87SLPC  C313 8436   3.959   2.249   3.816  0.3768  0.2137 -0.2400
   87SLPC  H13X 8437   3.932   2.142   3.815 -0.7698  0.4540  1.4810
   87SLPC  H13Y 8438   3.868   2.297   3.775  0.4734 -0.9279 -1.8894
   87SLPC  C314 8439   3.987   2.287   3.966  0.4512 -0.5590 -0.4217
   87SLPC  H14X 8440   3.995   2.398   3.965 -3.9163 -0.0495  1.2084
   87SLPC  H14Y 8441   4.088   2.252   3.997 -0.7883 -3.9102  0.2005
   87SLPC  C315 8442   3.887   2.247   4.069  0.0566  0.9149  0.1625
   87SLPC  H15X 8443   3.896   2.136   4.071 -2.4225  0.6386  0.0073
   87SLPC  H15Y 8444   3.783   2.273   4.039  0.2909  2.5981  0.7374
   87SLPC  C316 8445   3.909   2.295   4.214  0.3487 -0.0456  0.3476
   87SLPC  H16X 8446   3.916   2.405   4.230  0.8844 -0.1105  0.5654
   87SLPC  H16Y 8447   4.007   2.260   4.252  0.0996 -0.5179  0.5558
   87SLPC  C317 8448   3.804   2.241   4.322 -1.0309 -0.3585 -0.0036
   87SLPC  H17X 8449   3.701   2.276   4.296 -1.9757 -1.6552  1.8291
   87SLPC  H17Y 8450   3.821   2.296   4.417 -0.9306  1.4134 -0.9959
   87SLPC  C318 8451   3.812   2.087   4.346  0.2668  0.1128  0.2054
   87SLPC  H18X 8452   3.770   2.023   4.265 -3.4457  0.4736  1.6208
   87SLPC  H18Y 8453   3.754   2.037   4.426  1.6558 -0.3419  0.9512
   87SLPC  H18Z 8454   3.916   2.051   4.360 -0.8318 -2.5252  2.3760
   88SLPC     N 8455   6.136   1.474   2.117 -0.0616 -0.0616 -0.4384
   88SLPC   C13 8456   6.273   1.452   2.059 -0.7485 -0.9565  0.5551
   88SLPC  H13A 8457   6.349   1.482   2.130 -0.2229 -1.1959  0.1060
   88SLPC  H13B 8458   6.291   1.347   2.045 -0.9194 -0.8030 -0.9481
   88SLPC  H13C 8459   6.277   1.508   1.967 -3.9879 -1.6412 -0.1112
   88SLPC   C14 8460   6.111   1.383   2.235 -0.1334 -0.4769  0.0780
   88SLPC  H14A 8461   6.173   1.424   2.314 -1.8948  0.1400  1.1957
   88SLPC  H14B 8462   6.006   1.383   2.259 -1.0826 -2.3876 -3.4216
   88SLPC  H14C 8463   6.138   1.279   2.221 -0.2360 -0.4568 -0.2835
   88SLPC   C15 8464   6.037   1.438   2.012  0.3045  0.2791  0.3436
   88SLPC  H15A 8465   5.935   1.454   2.046 -0.2684 -2.5097  0.1927
   88SLPC  H15B 8466   6.051   1.515   1.937  0.6710  1.2903  1.4210
   88SLPC  H15C 8467   6.049   1.340   1.970 -0.2568  0.6487 -0.7280
   88SLPC   C12 8468   6.121   1.616   2.169  0.1810  0.4486  0.1517
   88SLPC  H12A 8469   6.140   1.689   2.092  2.3597 -0.1678  0.0350
   88SLPC  H12B 8470   6.192   1.629   2.250 -0.4567  0.9707  0.6419
   88SLPC   C11 8471   5.993   1.655   2.247  0.1465  0.3744 -0.2742
   88SLPC  H11A 8472   6.005   1.758   2.287  2.0046 -0.4378  1.4439
   88SLPC  H11B 8473   5.986   1.586   2.334 -2.2492  1.7471  0.7181
   88SLPC     P 8474   5.797   1.744   2.081 -0.3774 -0.2677  0.6059
   88SLPC   O13 8475   5.888   1.856   2.038  0.0316 -0.6840  0.1991
   88SLPC   O14 8476   5.731   1.672   1.973  0.3259 -0.2236  0.2267
   88SLPC   O12 8477   5.877   1.642   2.169 -0.3879  0.3277 -0.3438
   88SLPC   O11 8478   5.687   1.801   2.185 -0.0898 -0.0683 -0.3821
   88SLPC    C1 8479   5.734   1.856   2.309 -0.1134  0.6000 -0.2766
   88SLPC    HA 8480   5.842   1.841   2.332  0.1009 -0.9233 -2.0409
   88SLPC    HB 8481   5.726   1.966   2.302  0.6536  0.5611 -3.6227
   88SLPC    C2 8482   5.630   1.806   2.427 -1.0563 -0.0891  0.0285
   88SLPC    HS 8483   5.642   1.867   2.519  0.3695  3.1268 -2.0765
   88SLPC   O21 8484   5.647   1.664   2.445 -0.0723 -0.3702 -0.2878
   88SLPC   C21 8485   5.755   1.641   2.515 -0.2131 -1.2025 -0.0397
   88SLPC   O22 8486   5.832   1.729   2.556 -0.1835  0.4979  0.0400
   88SLPC   C22 8487   5.788   1.491   2.525 -0.4607 -0.1318 -0.8055
   88SLPC   H2R 8488   5.702   1.431   2.489  0.0788 -2.0690  0.9455
   88SLPC   H2S 8489   5.876   1.465   2.463  0.9158  3.3975 -0.5545
   88SLPC    C3 8490   5.485   1.843   2.381  0.4981 -0.8779  0.2837
   88SLPC    HX 8491   5.451   1.766   2.308  0.2486 -0.9320  0.4555
   88SLPC    HY 8492   5.486   1.939   2.327 -1.2735 -0.2378  1.3214
   88SLPC   O31 8493   5.395   1.837   2.495  0.2995 -0.3281 -0.7246
   88SLPC   C31 8494   5.296   1.754   2.498  0.2939 -0.0353  0.0018
   88SLPC   O32 8495   5.243   1.692   2.404  0.4116  0.1264 -0.4629
   88SLPC   C32 8496   5.228   1.748   2.640  0.4394 -0.0730  0.5130
   88SLPC   H2X 8497   5.187   1.851   2.652  2.1521  0.7166 -0.0206
   88SLPC   H2Y 8498   5.313   1.737   2.711  1.4183  1.7927 -0.2839
   88SLPC   C23 8499   5.815   1.444   2.677  0.2587 -0.7980 -0.6905
   88SLPC   H3R 8500   5.901   1.499   2.721 -0.2848  1.1564 -1.9910
   88SLPC   H3S 8501   5.835   1.334   2.671  0.1231 -1.0593  2.0697
   88SLPC   C24 8502   5.690   1.469   2.767 -0.5232 -0.2263  0.0383
   88SLPC   H4R 8503   5.652   1.572   2.782  0.0546  0.2453 -1.4726
   88SLPC   H4S 8504   5.720   1.432   2.868  0.1044 -0.6836 -0.3031
   88SLPC   C25 8505   5.564   1.389   2.731 -0.5663 -0.2188 -0.2460
   88SLPC   H5R 8506   5.587   1.287   2.768  2.4272  0.5625  0.2533
   88SLPC   H5S 8507   5.551   1.393   2.621  0.1470  2.8659 -0.2981
   88SLPC   C26 8508   5.447   1.437   2.814  0.6193  0.4499 -0.8761
   88SLPC   H6R 8509   5.356   1.422   2.752  0.5678 -2.3936 -0.2713
   88SLPC   H6S 8510   5.453   1.542   2.847 -1.8697 -0.1608  1.9006
   88SLPC   C27 8511   5.426   1.347   2.949  0.3760  0.1092  0.0698
   88SLPC   H7R 8512   5.524   1.302   2.977  0.0344 -0.5750  0.1952
   88SLPC   H7S 8513   5.344   1.273   2.935 -1.5665  2.4116 -1.3819
   88SLPC   C28 8514   5.372   1.440   3.059 -0.1665  0.9418 -0.1366
   88SLPC   H8R 8515   5.288   1.497   3.014  0.2886  2.0005  0.3238
   88SLPC   H8S 8516   5.459   1.507   3.078 -0.5289  1.6991 -1.0645
   88SLPC   C29 8517   5.328   1.365   3.184 -0.6256 -0.8274 -0.2448
   88SLPC   H9R 8518   5.232   1.315   3.167 -1.4245  0.9326 -1.2106
   88SLPC  C210 8519   5.399   1.335   3.291 -0.2306 -0.0586  0.1568
   88SLPC  H10R 8520   5.351   1.285   3.376  2.1010 -1.0233  0.9922
   88SLPC  C211 8521   5.537   1.372   3.336  0.1842  0.2138 -0.3082
   88SLPC  H11R 8522   5.537   1.466   3.396 -1.1385  0.6177 -0.9078
   88SLPC  H11S 8523   5.598   1.379   3.243  2.8369 -1.7799  1.1191
   88SLPC  C212 8524   5.602   1.275   3.428  0.1515  0.3369 -0.2205
   88SLPC  H12R 8525   5.698   1.241   3.387 -0.5246 -1.2527 -0.5457
   88SLPC  C213 8526   5.551   1.235   3.549 -0.6819  0.2553 -0.0280
   88SLPC  H13R 8527   5.620   1.174   3.609 -1.2678 -0.8548 -0.4541
   88SLPC  C214 8528   5.415   1.271   3.610 -0.1988  0.1072 -0.3296
   88SLPC  H14R 8529   5.348   1.185   3.590  0.4698 -0.6688  0.6933
   88SLPC  H14S 8530   5.366   1.360   3.565 -1.5306 -0.5540 -0.2323
   88SLPC  C215 8531   5.412   1.297   3.757 -0.7994  0.1381 -1.2017
   88SLPC  H15R 8532   5.305   1.306   3.787  0.1457 -1.9061  3.6217
   88SLPC  H15S 8533   5.466   1.386   3.796  1.8001 -1.1231 -1.7302
   88SLPC  C216 8534   5.471   1.181   3.841 -0.7813  0.1249 -0.0280
   88SLPC  H16R 8535   5.582   1.183   3.846 -0.6725 -1.2789 -1.0545
   88SLPC  H16S 8536   5.436   1.089   3.789 -0.8006  0.7234 -1.0855
   88SLPC  C217 8537   5.419   1.159   3.990  0.4557 -0.0516  0.0370
   88SLPC  H17R 8538   5.464   1.066   4.032 -0.9009 -1.1663 -0.8455
   88SLPC  H17S 8539   5.310   1.136   3.985  0.2997  0.4854  0.8569
   88SLPC  C218 8540   5.431   1.283   4.090 -0.4270 -0.9484  0.0417
   88SLPC  H18R 8541   5.528   1.337   4.085 -0.7456 -0.3925 -0.1426
   88SLPC  H18S 8542   5.424   1.251   4.196  0.6864  0.1072  0.4558
   88SLPC  H18T 8543   5.353   1.360   4.074  0.1767 -0.4701 -0.6712
   88SLPC   C33 8544   5.127   1.630   2.664 -0.3057  0.2250  0.5376
   88SLPC   H3X 8545   5.167   1.534   2.626  2.6057  1.3227  0.5762
   88SLPC   H3Y 8546   5.030   1.647   2.612  0.1437 -2.2928 -1.2997
   88SLPC   C34 8547   5.087   1.620   2.812 -0.2073 -0.5017 -0.3473
   88SLPC   H4X 8548   5.175   1.593   2.873 -0.1879  0.4971  0.0865
   88SLPC   H4Y 8549   5.003   1.551   2.837  0.7122 -1.0218  1.4806
   88SLPC   C35 8550   5.025   1.753   2.866  0.6705 -0.5376  0.3764
   88SLPC   H5X 8551   4.942   1.775   2.796  2.0566 -0.3719 -1.2841
   88SLPC   H5Y 8552   5.090   1.843   2.862 -0.4021  0.3854  2.3494
   88SLPC   C36 8553   4.952   1.754   2.999  0.2605  0.3055 -0.0755
   88SLPC   H6X 8554   4.860   1.692   3.004 -1.1788  2.3733  0.6772
   88SLPC   H6Y 8555   4.924   1.856   3.034  2.4576  1.0475 -0.3530
   88SLPC   C37 8556   5.030   1.717   3.123 -0.4836 -0.0486 -0.5188
   88SLPC   H7X 8557   5.138   1.746   3.125 -0.3499 -0.5729  0.2715
   88SLPC   H7Y 8558   5.028   1.606   3.131  2.6743 -0.2644 -1.3206
   88SLPC   C38 8559   4.969   1.772   3.249  0.1055 -0.4597 -0.1233
   88SLPC   H8X 8560   4.858   1.770   3.240 -0.0881  1.5484  1.2010
   88SLPC   H8Y 8561   4.984   1.881   3.259  1.3575 -0.7750  1.9015
   88SLPC   C39 8562   5.009   1.706   3.385 -0.2858  0.0712  0.6178
   88SLPC   H9X 8563   5.116   1.729   3.402  0.1586 -0.6342 -0.9923
   88SLPC   H9Y 8564   5.004   1.595   3.373 -0.1677  0.1715 -0.4422
   88SLPC  C310 8565   4.932   1.756   3.501 -0.1636 -0.2994 -0.8117
   88SLPC  H10X 8566   4.827   1.743   3.466  0.2209 -2.7291 -1.2634
   88SLPC  H10Y 8567   4.957   1.863   3.520  0.2143 -0.6060  0.5072
   88SLPC  C311 8568   4.952   1.664   3.621 -0.5939  0.0602 -0.6803
   88SLPC  H11X 8569   4.944   1.562   3.579  3.5244  0.0514 -1.9061
   88SLPC  H11Y 8570   4.875   1.673   3.700 -1.3667 -4.4212 -0.6749
   88SLPC  C312 8571   5.092   1.674   3.683 -0.0831  0.0716 -0.4571
   88SLPC  H12X 8572   5.099   1.777   3.725  1.8490 -0.1177 -0.1935
   88SLPC  H12Y 8573   5.165   1.648   3.603  0.7224 -3.3684  1.1946
   88SLPC  C313 8574   5.107   1.575   3.798 -0.5152 -0.0202 -0.3293
   88SLPC  H13X 8575   5.098   1.475   3.750  2.3203 -0.0884 -0.8633
   88SLPC  H13Y 8576   5.027   1.578   3.876  0.8955 -0.7494  1.2203
   88SLPC  C314 8577   5.237   1.597   3.879  0.1479  0.2088  0.1734
   88SLPC  H14X 8578   5.328   1.592   3.815  2.3922 -0.1429  3.1713
   88SLPC  H14Y 8579   5.233   1.517   3.955  0.5764  1.4876  1.5907
   88SLPC  C315 8580   5.240   1.725   3.959  0.3870 -0.0725 -0.6977
   88SLPC  H15X 8581   5.139   1.752   3.995  1.0035 -1.2587  2.1893
   88SLPC  H15Y 8582   5.268   1.811   3.894 -0.7036  0.8272 -0.0233
   88SLPC  C316 8583   5.338   1.717   4.081  0.4363 -0.1839  0.4272
   88SLPC  H16X 8584   5.403   1.628   4.073 -0.4277 -0.7478 -0.5193
   88SLPC  H16Y 8585   5.262   1.706   4.162  1.8619 -1.2925  1.6663
   88SLPC  C317 8586   5.428   1.841   4.083  0.6750 -0.0968 -0.3440
   88SLPC  H17X 8587   5.368   1.932   4.063  1.3116  0.0566 -1.6564
   88SLPC  H17Y 8588   5.499   1.838   3.997  1.2859  0.0348  0.1457
   88SLPC  C318 8589   5.508   1.854   4.213  0.0616  0.8235  0.4764
   88SLPC  H18X 8590   5.576   1.941   4.199  0.4110  0.2024 -2.2186
   88SLPC  H18Y 8591   5.565   1.759   4.222 -0.6466  0.2602 -0.8288
   88SLPC  H18Z 8592   5.433   1.879   4.291 -1.4628 -1.0414 -0.3235
   89SAPE     N 8593   3.169   0.578   6.820  0.2075  0.3408  0.7189
   89SAPE   HN1 8594   3.081   0.543   6.862 -1.9861  1.9312 -2.1634
   89SAPE   HN2 8595   3.251   0.532   6.864  0.2980 -0.8699 -0.6489
   89SAPE   HN3 8596   3.171   0.680   6.842  0.3742  0.5693 -0.2972
   89SAPE   C12 8597   3.155   0.559   6.670 -0.7732  0.0852  0.4003
   89SAPE  H12A 8598   3.056   0.596   6.636 -1.1365 -0.2754  1.0540
   89SAPE  H12B 8599   3.144   0.452   6.646 -0.5033  0.0910  0.2519
   89SAPE   C11 8600   3.275   0.603   6.583 -0.3944  0.8586 -0.0458
   89SAPE  H11A 8601   3.245   0.586   6.477 -0.8988 -1.8690  0.4611
   89SAPE  H11B 8602   3.362   0.541   6.612  0.1818  1.2547 -0.8695
   89SAPE     P 8603   3.207   0.851   6.559 -0.0330  0.0567  0.3592
   89SAPE   O13 8604   3.069   0.806   6.607 -0.5841 -0.4838  0.2197
   89SAPE   O14 8605   3.255   0.983   6.605  0.4237  0.4515  0.1575
   89SAPE   O12 8606   3.312   0.739   6.605  0.4331  0.0333  0.0736
   89SAPE   O11 8607   3.213   0.854   6.403 -0.6621  0.7926  0.2817
   89SAPE    C1 8608   3.339   0.857   6.336  0.0023 -1.1037  0.3270
   89SAPE    HA 8609   3.429   0.847   6.400  0.2706 -2.2278 -0.2084
   89SAPE    HB 8610   3.333   0.773   6.264  0.3039 -0.2882 -0.6746
   89SAPE    C2 8611   3.349   0.996   6.266  0.1417 -0.0053  0.0199
   89SAPE    HS 8612   3.323   1.067   6.347 -0.4988  1.5287 -1.4861
   89SAPE   O21 8613   3.264   0.998   6.145  0.5251  0.1527 -0.2813
   89SAPE   C21 8614   3.229   1.119   6.101  0.6557  0.2878  0.6816
   89SAPE   O22 8615   3.271   1.224   6.145  0.8748  0.1888  0.3228
   89SAPE   C22 8616   3.152   1.112   5.966  0.7879 -0.5024  0.2687
   89SAPE   H2R 8617   3.188   1.022   5.912  1.7317 -0.5227  0.9116
   89SAPE   H2S 8618   3.044   1.092   5.988  0.6941 -1.1760 -0.7305
   89SAPE    C3 8619   3.496   1.046   6.234 -0.0178  0.6359  0.2044
   89SAPE    HX 8620   3.554   0.998   6.316  0.3732 -2.1025 -1.5385
   89SAPE    HY 8621   3.502   1.157   6.236 -3.4336  0.9243  1.9589
   89SAPE   O31 8622   3.543   0.990   6.110 -0.5817  0.0440  0.5023
   89SAPE   C31 8623   3.668   0.980   6.086 -0.1929 -0.3633 -0.3118
   89SAPE   O32 8624   3.760   1.021   6.159  0.3894 -0.2477  0.7995
   89SAPE   C32 8625   3.702   0.926   5.950 -0.4887 -0.0883  0.2157
   89SAPE   H2X 8626   3.655   0.826   5.957  0.6801 -0.7079 -0.5035
   89SAPE   H2Y 8627   3.809   0.914   5.924 -0.7238 -1.8499 -0.0104
   89SAPE   C23 8628   3.174   1.237   5.883 -0.1886 -1.3569 -0.3216
   89SAPE   H3R 8629   3.280   1.246   5.852 -0.1250 -0.4952  0.1062
   89SAPE   H3S 8630   3.145   1.325   5.945  3.6716 -1.3512  1.8541
   89SAPE   C24 8631   3.084   1.230   5.750 -0.6370 -0.4178 -0.5186
   89SAPE   H4R 8632   2.977   1.209   5.770 -0.6914  0.3988  0.1068
   89SAPE   H4S 8633   3.126   1.144   5.693  1.2710 -0.7547  1.2786
   89SAPE   C25 8634   3.102   1.352   5.670  0.8057 -0.0003  0.4818
   89SAPE   H5R 8635   3.043   1.434   5.714 -0.9240 -1.3762  0.8484
   89SAPE   C26 8636   3.133   1.355   5.536 -0.4339  0.1996  0.0790
   89SAPE   H6R 8637   3.144   1.453   5.487  2.0442  0.1345  0.3565
   89SAPE   C27 8638   3.167   1.244   5.431 -0.2625  0.4815  0.0348
   89SAPE   H7R 8639   3.228   1.159   5.468  2.0616  1.8923 -0.3373
   89SAPE   H7S 8640   3.234   1.293   5.357 -0.2577 -2.4486 -2.0426
   89SAPE   C28 8641   3.045   1.183   5.377  0.1736 -0.1823  0.0229
   89SAPE   H8R 8642   2.996   1.125   5.456  0.8123 -1.7961 -0.7350
   89SAPE   C29 8643   3.000   1.199   5.255  0.1821 -0.7791  0.4177
   89SAPE   H9R 8644   2.905   1.147   5.238  0.6270 -0.9139 -1.9948
   89SAPE  C210 8645   3.045   1.284   5.144 -0.3017  0.8292 -1.3542
   89SAPE  H10R 8646   3.154   1.299   5.132 -0.2576  0.6348 -1.2051
   89SAPE  H10S 8647   3.007   1.387   5.162  1.2306  0.9564  1.8825
   89SAPE  C211 8648   2.992   1.226   5.016  0.3773 -0.4303  0.0311
   89SAPE  H11R 8649   2.910   1.153   5.021 -0.6292  0.6853  0.2727
   89SAPE  C212 8650   3.036   1.263   4.896  0.3495  0.4774  0.0013
   89SAPE  H12R 8651   2.995   1.211   4.808 -2.1888 -2.8634  2.8375
   89SAPE  C213 8652   3.140   1.369   4.868  0.0708 -0.0843 -0.6040
   89SAPE  H13R 8653   3.124   1.437   4.955 -0.8332 -1.9336  0.7555
   89SAPE  H13S 8654   3.106   1.432   4.783 -1.9023 -0.5295 -0.2062
   89SAPE  C214 8655   3.288   1.331   4.853 -0.6146  0.0624  0.3548
   89SAPE  H14R 8656   3.340   1.348   4.948  0.8142 -1.9641  0.0169
   89SAPE  C215 8657   3.353   1.294   4.740 -0.1701  0.7717  0.4784
   89SAPE  H15R 8658   3.456   1.255   4.742  0.4275  2.2443 -0.1296
   89SAPE  C216 8659   3.280   1.259   4.614  0.2019 -0.1922  0.2650
   89SAPE  H16R 8660   3.240   1.352   4.569  3.1878  1.5016  0.8003
   89SAPE  H16S 8661   3.188   1.203   4.640  0.1775  0.0774  0.7923
   89SAPE  C217 8662   3.359   1.181   4.511  1.0133 -0.3815 -0.7752
   89SAPE  H17R 8663   3.288   1.147   4.432  0.5651 -0.0138 -0.5404
   89SAPE  H17S 8664   3.409   1.092   4.553  1.1664 -0.4639 -1.1339
   89SAPE  C218 8665   3.472   1.257   4.445  0.3306 -0.0442  0.3154
   89SAPE  H18R 8666   3.541   1.303   4.520  0.1639 -0.4395  0.7131
   89SAPE  H18S 8667   3.431   1.346   4.392  1.0519  0.4084  0.4994
   89SAPE  C219 8668   3.551   1.183   4.341 -0.4061 -0.0709 -0.5503
   89SAPE  H19R 8669   3.499   1.100   4.287  1.0888 -0.1070 -2.0402
   89SAPE  H19S 8670   3.632   1.119   4.383 -1.0745 -1.3233 -1.1126
   89SAPE  C220 8671   3.611   1.280   4.239  0.3134  0.2146  0.6387
   89SAPE  H20R 8672   3.534   1.309   4.165  0.8364 -0.9794 -0.4081
   89SAPE  H20S 8673   3.694   1.230   4.185  0.7832  0.0059  1.5255
   89SAPE  H20T 8674   3.647   1.372   4.290  0.2707 -0.0130  1.0871
   89SAPE   C33 8675   3.638   0.996   5.830  0.0297  0.2830  0.4237
   89SAPE   H3X 8676   3.535   1.030   5.856 -0.9045 -2.9849  1.5157
   89SAPE   H3Y 8677   3.624   0.920   5.750 -0.2175  0.2392  0.5065
   89SAPE   C34 8678   3.722   1.117   5.789  0.5430 -0.5702 -0.0426
   89SAPE   H4X 8679   3.822   1.087   5.752  1.0311  2.4656 -1.4657
   89SAPE   H4Y 8680   3.745   1.175   5.881  2.6290  0.9158 -1.4006
   89SAPE   C35 8681   3.654   1.205   5.681  0.7156 -0.3527 -0.3989
   89SAPE   H5X 8682   3.710   1.294   5.644 -0.5424 -0.0517 -1.6752
   89SAPE   H5Y 8683   3.560   1.247   5.723  0.9935  0.0585 -0.1749
   89SAPE   C36 8684   3.624   1.128   5.548 -0.3889 -0.1945  0.0029
   89SAPE   H6X 8685   3.558   1.047   5.587  0.0121 -1.7679 -2.3683
   89SAPE   H6Y 8686   3.724   1.090   5.517  0.6881 -1.0886  3.9365
   89SAPE   C37 8687   3.545   1.199   5.438 -0.3159  1.0869 -0.0383
   89SAPE   H7X 8688   3.445   1.238   5.466 -0.7312  2.5900 -3.1128
   89SAPE   H7Y 8689   3.523   1.121   5.362 -0.1254  1.0946 -0.1028
   89SAPE   C38 8690   3.620   1.319   5.384  0.1809 -1.0853 -0.3882
   89SAPE   H8X 8691   3.728   1.298   5.368  0.8931 -0.5453  3.0541
   89SAPE   H8Y 8692   3.611   1.407   5.450  0.8099  1.1800 -3.1065
   89SAPE   C39 8693   3.565   1.369   5.254 -0.0800 -0.1824  0.0265
   89SAPE   H9X 8694   3.472   1.427   5.271 -0.1714 -0.1853 -0.4518
   89SAPE   H9Y 8695   3.552   1.292   5.176 -0.5702  1.0575 -1.1699
   89SAPE  C310 8696   3.666   1.454   5.180  0.6867 -0.2444 -0.7140
   89SAPE  H10X 8697   3.764   1.401   5.170  1.4888  0.6446  1.7419
   89SAPE  H10Y 8698   3.695   1.547   5.233  3.5121 -0.0888 -2.3408
   89SAPE  C311 8699   3.616   1.495   5.039 -0.0405  0.0043  0.3108
   89SAPE  H11X 8700   3.533   1.567   5.054 -0.3715 -0.2335 -0.3345
   89SAPE  H11Y 8701   3.586   1.397   4.997  0.3776 -0.1972  0.4794
   89SAPE  C312 8702   3.722   1.576   4.959  0.6394 -0.6315  0.6089
   89SAPE  H12X 8703   3.808   1.513   4.927  1.2630  0.7892 -0.7102
   89SAPE  H12Y 8704   3.763   1.671   5.000  0.2146 -0.3406  0.3690
   89SAPE  C313 8705   3.662   1.615   4.823 -0.9817 -0.1207 -0.0829
   89SAPE  H13X 8706   3.576   1.684   4.835 -1.2697 -0.6182  0.7508
   89SAPE  H13Y 8707   3.620   1.522   4.780 -0.4695  1.0346 -3.4063
   89SAPE  C314 8708   3.767   1.655   4.718 -0.5862 -0.3230  0.5448
   89SAPE  H14X 8709   3.849   1.581   4.717  1.3961  1.7153  1.9701
   89SAPE  H14Y 8710   3.806   1.756   4.744  1.6742 -1.1401  0.5709
   89SAPE  C315 8711   3.706   1.650   4.574  0.4788 -0.3261 -0.4118
   89SAPE  H15X 8712   3.607   1.700   4.579  1.0681  0.8048  0.7630
   89SAPE  H15Y 8713   3.702   1.544   4.541  1.2984 -1.1209  1.7919
   89SAPE  C316 8714   3.793   1.736   4.478  0.0024  0.0283 -0.0258
   89SAPE  H16X 8715   3.893   1.687   4.483 -0.4294 -0.9576 -0.7628
   89SAPE  H16Y 8716   3.794   1.840   4.518  0.6543  0.4350 -1.0489
   89SAPE  C317 8717   3.742   1.733   4.333  0.2409 -0.4407 -0.4962
   89SAPE  H17X 8718   3.660   1.804   4.308  1.1045  0.7929  0.0620
   89SAPE  H17Y 8719   3.691   1.637   4.312 -1.1263 -0.1950  1.4302
   89SAPE  C318 8720   3.852   1.747   4.232 -0.2412 -0.3506  0.3020
   89SAPE  H18X 8721   3.927   1.825   4.256 -2.5908  2.2064 -0.0901
   89SAPE  H18Y 8722   3.810   1.778   4.133 -1.4896 -1.8721  0.3188
   89SAPE  H18Z 8723   3.900   1.648   4.231  0.6055  0.0568 -0.5925
   90SAPE     N 8724   6.314   1.526   6.787  0.4598 -0.0350  0.4060
   90SAPE   HN1 8725   6.244   1.535   6.711  0.4281  0.4844  0.4870
   90SAPE   HN2 8726   6.350   1.429   6.787  0.0312 -0.2010  0.8519
   90SAPE   HN3 8727   6.263   1.541   6.877 -1.6262  2.7777 -1.0642
   90SAPE   C12 8728   6.418   1.636   6.772  0.3576  0.8777 -0.0562
   90SAPE  H12A 8729   6.477   1.656   6.864 -1.5761 -0.5464  1.5687
   90SAPE  H12B 8730   6.358   1.717   6.725 -2.3030 -1.9542 -1.9759
   90SAPE   C11 8731   6.522   1.593   6.661 -0.0757 -0.7216  1.1508
   90SAPE  H11A 8732   6.580   1.682   6.630 -0.2394 -0.5230  1.4194
   90SAPE  H11B 8733   6.484   1.547   6.567  1.2547 -0.4935  0.4712
   90SAPE     P 8734   6.608   1.341   6.703 -0.1279 -0.0868  0.2690
   90SAPE   O13 8735   6.713   1.276   6.783  0.1443  0.4089  0.2102
   90SAPE   O14 8736   6.473   1.285   6.709 -0.5205  0.2231 -0.9051
   90SAPE   O12 8737   6.612   1.497   6.724  0.2087 -0.4404  0.2080
   90SAPE   O11 8738   6.661   1.335   6.550  0.0810 -0.1394  0.0740
   90SAPE    C1 8739   6.785   1.402   6.503 -0.0733  0.7280 -0.2252
   90SAPE    HA 8740   6.843   1.437   6.591  1.5971 -0.5644 -0.7679
   90SAPE    HB 8741   6.837   1.322   6.447  0.3011  0.9014 -0.1272
   90SAPE    C2 8742   6.747   1.516   6.409  0.2696 -0.2497 -0.8946
   90SAPE    HS 8743   6.690   1.587   6.474 -0.3016 -2.4043  1.1139
   90SAPE   O21 8744   6.670   1.457   6.298 -0.0021 -0.2386 -0.2502
   90SAPE   C21 8745   6.562   1.525   6.270 -0.6963  0.4207  0.5266
   90SAPE   O22 8746   6.530   1.632   6.319 -0.3936  0.4197 -0.0267
   90SAPE   C22 8747   6.479   1.452   6.172  0.1822  1.0472 -0.4434
   90SAPE   H2R 8748   6.514   1.347   6.178  2.3975  1.8223  1.9380
   90SAPE   H2S 8749   6.370   1.447   6.197 -0.0791  0.2309 -1.6364
   90SAPE    C3 8750   6.871   1.590   6.350 -0.1310 -0.7360  1.0984
   90SAPE    HX 8751   6.923   1.523   6.278 -0.3181 -0.7431  0.9671
   90SAPE    HY 8752   6.937   1.611   6.436  0.2132  1.6332  0.3538
   90SAPE   O31 8753   6.829   1.720   6.300 -0.0607  0.1279 -0.4837
   90SAPE   C31 8754   6.918   1.773   6.221  0.5562 -0.0492  0.3376
   90SAPE   O32 8755   7.022   1.727   6.181 -0.4387  0.3818 -0.1421
   90SAPE   C32 8756   6.860   1.915   6.172  0.3051 -0.0529 -0.2898
   90SAPE   H2X 8757   6.950   1.980   6.175 -0.3685  0.9985 -1.4476
   90SAPE   H2Y 8758   6.776   1.945   6.238  0.8542 -0.0179  0.3927
   90SAPE   C23 8759   6.494   1.512   6.023  0.1831  0.7750 -0.6024
   90SAPE   H3R 8760   6.602   1.496   6.002 -0.1039 -0.5884 -1.1918
   90SAPE   H3S 8761   6.473   1.620   6.013  3.2459  1.3727 -1.6359
   90SAPE   C24 8762   6.410   1.423   5.926  0.3692 -0.5595 -0.3159
   90SAPE   H4R 8763   6.303   1.444   5.944  0.1290  1.5741 -3.4386
   90SAPE   H4S 8764   6.424   1.313   5.939 -0.1588 -0.5443  0.3961
   90SAPE   C25 8765   6.437   1.451   5.785 -0.4793  0.2764  0.1348
   90SAPE   H5R 8766   6.486   1.548   5.766  2.0765 -0.8612  0.4966
   90SAPE   C26 8767   6.424   1.357   5.683  0.1841 -0.9671 -1.0282
   90SAPE   H6R 8768   6.448   1.380   5.578 -0.5541 -1.1967 -1.2529
   90SAPE   C27 8769   6.363   1.223   5.691  0.2825  0.7588  0.6822
   90SAPE   H7R 8770   6.294   1.206   5.605  1.9620  0.7803 -0.7286
   90SAPE   H7S 8771   6.286   1.220   5.771 -0.0744 -0.9819  0.3080
   90SAPE   C28 8772   6.475   1.121   5.699  0.3952 -0.3355 -0.3151
   90SAPE   H8R 8773   6.507   1.093   5.800 -0.2868 -0.3784 -0.1099
   90SAPE   C29 8774   6.546   1.064   5.594  0.7308  0.4770  0.3590
   90SAPE   H9R 8775   6.613   0.980   5.615  0.0451 -0.2639 -0.3850
   90SAPE  C210 8776   6.516   1.086   5.449 -0.5052 -0.0220 -0.4754
   90SAPE  H10R 8777   6.603   1.034   5.403 -2.7605 -2.4467 -2.3475
   90SAPE  H10S 8778   6.524   1.191   5.414  0.0893  0.3422  0.7187
   90SAPE  C211 8779   6.388   1.020   5.393  0.0710 -1.2257 -0.6109
   90SAPE  H11R 8780   6.341   0.957   5.470  0.4849 -1.0540 -0.2124
   90SAPE  C212 8781   6.334   1.026   5.272 -0.1959  0.4287  0.4254
   90SAPE  H12R 8782   6.239   0.977   5.249 -0.2551  1.2723 -1.2804
   90SAPE  C213 8783   6.382   1.100   5.145 -0.2815  0.5316  0.0832
   90SAPE  H13R 8784   6.295   1.114   5.078 -2.3958 -0.0926  2.5463
   90SAPE  H13S 8785   6.464   1.049   5.091 -0.1846  1.9111 -1.1282
   90SAPE  C214 8786   6.415   1.247   5.174  0.5015  0.4534  0.2426
   90SAPE  H14R 8787   6.383   1.282   5.273 -0.1412  1.4413 -0.3010
   90SAPE  C215 8788   6.483   1.328   5.095  0.3965  0.0955  1.0648
   90SAPE  H15R 8789   6.496   1.431   5.130  0.4760  0.4066  0.1378
   90SAPE  C216 8790   6.533   1.287   4.956  0.1269 -0.4275 -0.2623
   90SAPE  H16R 8791   6.502   1.182   4.935  1.4866 -1.2573  1.6700
   90SAPE  H16S 8792   6.643   1.277   4.967  0.2988  0.2396 -1.1988
   90SAPE  C217 8793   6.479   1.363   4.833  0.7347 -0.3715  0.0414
   90SAPE  H17R 8794   6.551   1.335   4.754  2.2956 -1.3682  1.7331
   90SAPE  H17S 8795   6.489   1.472   4.852 -2.3375  1.0652 -4.7899
   90SAPE  C218 8796   6.337   1.324   4.796  0.4710  0.2926 -0.2003
   90SAPE  H18R 8797   6.265   1.360   4.873  0.6639  1.3772 -0.5120
   90SAPE  H18S 8798   6.321   1.214   4.794 -1.5396  0.5621 -0.7262
   90SAPE  C219 8799   6.285   1.380   4.664 -0.0119  0.2980 -0.2178
   90SAPE  H19R 8800   6.316   1.307   4.586  1.6823  0.4368  0.2798
   90SAPE  H19S 8801   6.333   1.478   4.640  2.6585 -1.0334 -0.6165
   90SAPE  C220 8802   6.133   1.403   4.644 -0.3800  0.2388 -0.5766
   90SAPE  H20R 8803   6.111   1.454   4.548  1.3768  0.8073 -0.7211
   90SAPE  H20S 8804   6.087   1.467   4.723 -4.1101  0.0994 -2.4033
   90SAPE  H20T 8805   6.090   1.302   4.660  0.6972 -0.0303  0.8707
   90SAPE   C33 8806   6.829   1.921   6.022 -0.4399 -0.4613 -0.0045
   90SAPE   H3X 8807   6.927   1.916   5.969  0.5005  2.1798  1.3182
   90SAPE   H3Y 8808   6.798   2.024   5.994 -3.2696 -0.7185  1.8690
   90SAPE   C34 8809   6.725   1.820   5.974  0.1854  0.2237  0.2088
   90SAPE   H4X 8810   6.639   1.810   6.043 -0.6458  3.3630 -0.2305
   90SAPE   H4Y 8811   6.769   1.718   5.965 -0.2951 -0.3691  3.3483
   90SAPE   C35 8812   6.670   1.856   5.835 -0.0986  0.6710 -0.5007
   90SAPE   H5X 8813   6.622   1.956   5.841 -0.4214  0.4194  2.3257
   90SAPE   H5Y 8814   6.588   1.790   5.800 -1.3101  1.8520 -0.0151
   90SAPE   C36 8815   6.787   1.862   5.732 -0.0553  0.5517  0.7996
   90SAPE   H6X 8816   6.858   1.783   5.763 -1.2240 -0.1270  1.8083
   90SAPE   H6Y 8817   6.844   1.957   5.734 -1.3646  1.4297 -0.6999
   90SAPE   C37 8818   6.736   1.821   5.586 -0.1985 -0.5940 -0.1357
   90SAPE   H7X 8819   6.834   1.846   5.540  0.8834 -3.4011  0.4475
   90SAPE   H7Y 8820   6.651   1.888   5.562  1.4223  1.3013 -0.8850
   90SAPE   C38 8821   6.706   1.672   5.562 -0.5462 -0.3643  0.4583
   90SAPE   H8X 8822   6.627   1.645   5.635 -0.9760  1.1858  0.6038
   90SAPE   H8Y 8823   6.799   1.616   5.585  0.5548  0.8193 -0.9210
   90SAPE   C39 8824   6.661   1.643   5.416  0.8995 -0.3277 -0.1909
   90SAPE   H9X 8825   6.562   1.690   5.401 -0.9113 -2.7482  2.8581
   90SAPE   H9Y 8826   6.645   1.535   5.394  1.4777 -0.3890 -0.3367
   90SAPE  C310 8827   6.757   1.698   5.315 -0.4605 -0.4218  0.4803
   90SAPE  H10X 8828   6.853   1.642   5.318  0.1919  0.3767 -2.3133
   90SAPE  H10Y 8829   6.779   1.806   5.327  0.1308 -0.5302  0.4064
   90SAPE  C311 8830   6.700   1.694   5.169  0.0518  0.7822  0.2253
   90SAPE  H11X 8831   6.604   1.750   5.168  0.8485  2.2026 -0.6472
   90SAPE  H11Y 8832   6.677   1.590   5.137  0.1695  0.4467  1.2003
   90SAPE  C312 8833   6.788   1.740   5.056 -0.0318  0.0037  0.9755
   90SAPE  H12X 8834   6.886   1.687   5.059  1.7398  2.7614 -1.7877
   90SAPE  H12Y 8835   6.826   1.842   5.079  2.0116 -0.7720  1.2681
   90SAPE  C313 8836   6.738   1.730   4.912  0.1222  0.0848 -0.4549
   90SAPE  H13X 8837   6.635   1.771   4.899 -0.4357 -1.1733 -0.1727
   90SAPE  H13Y 8838   6.722   1.624   4.881 -0.1000  0.6023 -2.2405
   90SAPE  C314 8839   6.832   1.796   4.813 -0.0657 -1.0811 -0.2794
   90SAPE  H14X 8840   6.879   1.884   4.861  2.0824 -1.7380 -1.0541
   90SAPE  H14Y 8841   6.773   1.845   4.733  0.2715 -0.9007 -0.4180
   90SAPE  C315 8842   6.935   1.707   4.743 -0.4656  0.1558 -0.3120
   90SAPE  H15X 8843   6.884   1.622   4.693 -0.7019 -0.4841  0.9659
   90SAPE  H15Y 8844   7.004   1.662   4.818  2.3058  0.8150 -2.3258
   90SAPE  C316 8845   7.015   1.776   4.632 -0.2515 -0.1831  0.2314
   90SAPE  H16X 8846   7.099   1.710   4.602  1.3559  1.7920  0.1924
   90SAPE  H16Y 8847   7.050   1.872   4.676  0.1429 -0.0706 -0.3269
   90SAPE  C317 8848   6.931   1.808   4.503 -0.1630  0.0408 -0.7731
   90SAPE  H17X 8849   6.940   1.919   4.494 -1.0397  0.3315  1.3255
   90SAPE  H17Y 8850   6.830   1.777   4.535 -0.6439  1.5320 -0.7873
   90SAPE  C318 8851   6.979   1.734   4.376  0.1301 -0.1521 -0.0983
   90SAPE  H18X 8852   7.017   1.632   4.402  1.5128  0.3842  0.0541
   90SAPE  H18Y 8853   7.074   1.777   4.338  0.9706 -1.0122  0.9302
   90SAPE  H18Z 8854   6.903   1.732   4.296 -0.9771  0.1952  0.9153
   91SAPE     N 8855   3.304   2.516   6.556 -0.1071 -0.1003  0.1252
   91SAPE   HN1 8856   3.280   2.460   6.640 -2.6615  1.0152  0.2295
   91SAPE   HN2 8857   3.399   2.559   6.557 -0.1238  0.0132  2.6401
   91SAPE   HN3 8858   3.229   2.588   6.564 -1.2593 -0.7980 -2.8846
   91SAPE   C12 8859   3.284   2.445   6.421  0.1923 -0.3835  0.3990
   91SAPE  H12A 8860   3.235   2.516   6.351  0.9288  1.5164  1.7255
   91SAPE  H12B 8861   3.216   2.358   6.436 -0.0830 -0.6128 -1.7960
   91SAPE   C11 8862   3.413   2.380   6.367 -0.1360 -1.0328 -0.3362
   91SAPE  H11A 8863   3.420   2.389   6.256  3.6241 -0.1196 -0.1358
   91SAPE  H11B 8864   3.411   2.275   6.402 -0.9935 -1.0392 -0.3796
   91SAPE     P 8865   3.670   2.388   6.429 -0.0141  0.6131  0.4472
   91SAPE   O13 8866   3.779   2.489   6.434 -0.0920  0.9889 -0.2818
   91SAPE   O14 8867   3.664   2.290   6.544 -0.3539  0.3989  0.0008
   91SAPE   O12 8868   3.526   2.447   6.419  0.1053 -0.3482  0.3137
   91SAPE   O11 8869   3.689   2.302   6.292  0.4127  0.0830 -0.4143
   91SAPE    C1 8870   3.782   2.337   6.196 -0.2281 -0.0789  0.0868
   91SAPE    HA 8871   3.885   2.341   6.237 -0.0389  2.5802 -0.4410
   91SAPE    HB 8872   3.792   2.255   6.122 -0.0160 -0.5998  0.6856
   91SAPE    C2 8873   3.743   2.469   6.126 -0.3542 -0.6497 -0.5875
   91SAPE    HS 8874   3.749   2.553   6.199  2.8126 -0.5530 -0.7978
   91SAPE   O21 8875   3.608   2.458   6.078 -0.3765  0.0394  0.4071
   91SAPE   C21 8876   3.538   2.567   6.079  0.4057  0.8822  0.6366
   91SAPE   O22 8877   3.552   2.669   6.143  0.1196 -0.5520 -0.6651
   91SAPE   C22 8878   3.417   2.556   5.985  0.0454 -0.2976  0.3802
   91SAPE   H2R 8879   3.351   2.479   6.029  0.3938 -1.0477 -0.3738
   91SAPE   H2S 8880   3.353   2.646   5.994 -1.3286 -1.2349  0.1324
   91SAPE    C3 8881   3.844   2.492   6.006 -1.2580 -0.0539  0.2312
   91SAPE    HX 8882   3.828   2.403   5.941 -0.9713  0.5558 -0.6724
   91SAPE    HY 8883   3.949   2.488   6.041 -1.6048  1.4124  1.5365
   91SAPE   O31 8884   3.811   2.613   5.939  0.3084  0.7262 -0.0039
   91SAPE   C31 8885   3.912   2.687   5.899 -0.1088  0.7119 -0.6885
   91SAPE   O32 8886   4.030   2.659   5.904  0.2841  0.2018 -0.5340
   91SAPE   C32 8887   3.862   2.833   5.869 -0.3556  0.1765  0.1591
   91SAPE   H2X 8888   3.791   2.862   5.950 -0.2477  0.9964 -0.0311
   91SAPE   H2Y 8889   3.801   2.825   5.777 -2.9131  1.7001  1.5865
   91SAPE   C23 8890   3.460   2.545   5.841  0.8957  0.1734  0.3347
   91SAPE   H3R 8891   3.560   2.585   5.815  0.4236  0.9719 -0.2866
   91SAPE   H3S 8892   3.380   2.594   5.781 -0.8759  0.5162  2.8003
   91SAPE   C24 8893   3.463   2.403   5.793 -0.0215  0.4293 -0.7611
   91SAPE   H4R 8894   3.387   2.350   5.854  2.2903  0.4769  2.3865
   91SAPE   H4S 8895   3.559   2.358   5.828 -0.6577  0.9818  1.8383
   91SAPE   C25 8896   3.435   2.368   5.655  0.4761  0.4903  0.0409
   91SAPE   H5R 8897   3.330   2.343   5.631  1.0182 -1.3795 -0.5329
   91SAPE   C26 8898   3.520   2.382   5.548  0.8894 -0.5803 -0.8109
   91SAPE   H6R 8899   3.485   2.358   5.447  2.5269  0.2395 -1.6188
   91SAPE   C27 8900   3.662   2.432   5.555  0.3500 -0.4973 -0.1471
   91SAPE   H7R 8901   3.726   2.390   5.475  2.5788  0.6352  0.9561
   91SAPE   H7S 8902   3.709   2.403   5.651 -0.5125 -0.0814  0.4093
   91SAPE   C28 8903   3.674   2.579   5.540 -0.4297 -0.6316  0.0884
   91SAPE   H8R 8904   3.577   2.628   5.558 -2.1156 -2.6510 -2.5773
   91SAPE   C29 8905   3.792   2.647   5.548 -0.6977  0.1001 -0.9874
   91SAPE   H9R 8906   3.782   2.756   5.542  1.6781  0.3526 -1.2099
   91SAPE  C210 8907   3.931   2.590   5.552 -0.1371  0.4118 -0.5689
   91SAPE  H10R 8908   3.929   2.479   5.552  0.4495  0.3700  1.0765
   91SAPE  H10S 8909   3.979   2.613   5.649  1.5889 -2.4708 -0.6111
   91SAPE  C211 8910   4.022   2.651   5.446  0.1878 -0.2618  1.1317
   91SAPE  H11R 8911   4.101   2.717   5.485 -0.5522  2.3839 -1.4851
   91SAPE  C212 8912   4.011   2.633   5.309  0.3733  0.0913  0.5881
   91SAPE  H12R 8913   4.090   2.676   5.245  0.9527 -2.1342 -0.2887
   91SAPE  C213 8914   3.912   2.555   5.229  0.0111 -0.1963  0.3270
   91SAPE  H13R 8915   3.926   2.602   5.129  2.3563 -0.0352  0.6768
   91SAPE  H13S 8916   3.810   2.576   5.267 -0.2561  1.7653 -1.3097
   91SAPE  C214 8917   3.930   2.403   5.217  0.2971  0.4041 -0.6783
   91SAPE  H14R 8918   3.901   2.345   5.306  0.5939  1.0487 -0.1473
   91SAPE  C215 8919   3.946   2.339   5.101 -0.0952 -0.3597  0.7083
   91SAPE  H15R 8920   3.946   2.229   5.097  1.1275 -0.4291  1.9775
   91SAPE  C216 8921   3.964   2.405   4.973  0.0522  0.4406 -0.6674
   91SAPE  H16R 8922   4.044   2.345   4.923  0.3625 -0.4500  0.8190
   91SAPE  H16S 8923   4.011   2.505   4.988  1.1469 -0.5608  4.1234
   91SAPE  C217 8924   3.837   2.393   4.881 -0.1262  0.1943 -0.0718
   91SAPE  H17R 8925   3.750   2.433   4.937 -1.5694 -1.9847 -0.6148
   91SAPE  H17S 8926   3.818   2.286   4.858 -0.3139  0.0079  0.9099
   91SAPE  C218 8927   3.846   2.461   4.746  0.4689 -0.3256 -0.0942
   91SAPE  H18R 8928   3.875   2.393   4.663  1.3260 -0.2509  0.1361
   91SAPE  H18S 8929   3.937   2.523   4.734  1.3111 -1.5165 -0.0275
   91SAPE  C219 8930   3.710   2.534   4.714 -0.2452 -0.2637  0.4060
   91SAPE  H19R 8931   3.699   2.612   4.792 -1.6637  0.6896 -0.6911
   91SAPE  H19S 8932   3.629   2.461   4.730 -0.4242  0.4363  3.1151
   91SAPE  C220 8933   3.704   2.598   4.573 -0.0472  0.7939 -0.0732
   91SAPE  H20R 8934   3.615   2.664   4.567  0.8684  2.1291  0.4601
   91SAPE  H20S 8935   3.692   2.517   4.499 -0.0816  0.2556  0.5170
   91SAPE  H20T 8936   3.799   2.656   4.565  0.1656  0.3268 -1.0379
   91SAPE   C33 8937   3.972   2.927   5.859 -0.2161 -0.1258 -0.0170
   91SAPE   H3X 8938   4.045   2.900   5.780 -0.1486  1.4714 -0.5311
   91SAPE   H3Y 8939   4.037   2.933   5.950  0.3386  0.7298 -0.4606
   91SAPE   C34 8940   3.916   3.066   5.825  0.3716  0.0905  0.5003
   91SAPE   H4X 8941   3.854   3.108   5.907 -2.2014 -0.9254 -0.8176
   91SAPE   H4Y 8942   3.849   3.063   5.736  0.9681  1.6270 -0.0428
   91SAPE   C35 8943   4.027   3.167   5.791 -0.4583 -0.9190 -0.1833
   91SAPE   H5X 8944   4.126   3.126   5.821  1.0232  3.0788  1.1764
   91SAPE   H5Y 8945   4.012   3.258   5.853  0.0481 -1.6380  1.0393
   91SAPE   C36 8946   4.026   3.214   5.646 -0.2819  0.1775 -0.6543
   91SAPE   H6X 8947   4.082   3.309   5.630  0.0362  0.1551  0.2391
   91SAPE   H6Y 8948   3.922   3.228   5.610 -0.4917  0.0559 -0.1013
   91SAPE   C37 8949   4.077   3.102   5.554 -0.0845 -0.7041 -0.8377
   91SAPE   H7X 8950   4.024   3.007   5.578 -4.4497  1.7368  0.2160
   91SAPE   H7Y 8951   4.184   3.092   5.580 -0.0515  0.8747 -0.2916
   91SAPE   C38 8952   4.057   3.136   5.408  0.5188 -0.1366  0.0672
   91SAPE   H8X 8953   4.127   3.217   5.376 -0.4480 -0.0895 -2.1134
   91SAPE   H8Y 8954   3.958   3.180   5.383  0.0859 -0.0979  1.7738
   91SAPE   C39 8955   4.072   3.015   5.322 -0.6352  0.2492  1.0640
   91SAPE   H9X 8956   4.017   2.928   5.364 -0.1422 -1.2655 -1.1994
   91SAPE   H9Y 8957   4.180   2.992   5.313 -0.4136  1.7231 -0.4849
   91SAPE  C310 8958   4.023   3.040   5.171  0.2059  0.4884 -0.0831
   91SAPE  H10X 8959   4.081   3.120   5.120  0.5991  0.1027 -0.2510
   91SAPE  H10Y 8960   3.918   3.075   5.171  0.1767  0.6550 -3.0257
   91SAPE  C311 8961   4.037   2.918   5.072  0.1699 -0.2462  0.4185
   91SAPE  H11X 8962   3.972   2.834   5.104  2.3084 -2.7855 -1.4597
   91SAPE  H11Y 8963   4.138   2.873   5.074 -0.2814 -1.2716  0.7935
   91SAPE  C312 8964   4.017   2.952   4.926 -0.4628  0.9353  0.3180
   91SAPE  H12X 8965   4.097   3.026   4.902  0.3986  0.5578  1.8842
   91SAPE  H12Y 8966   3.915   2.995   4.920 -2.1522 -2.7926 -0.4044
   91SAPE  C313 8967   4.031   2.825   4.844 -0.5427  0.0461 -0.0213
   91SAPE  H13X 8968   3.968   2.747   4.891  2.7992 -1.7247  1.8989
   91SAPE  H13Y 8969   4.134   2.788   4.864 -0.1078  1.1145 -0.2305
   91SAPE  C314 8970   3.999   2.847   4.694 -0.2260 -1.0809  0.4401
   91SAPE  H14X 8971   3.915   2.915   4.669  0.0768 -0.9362 -0.1947
   91SAPE  H14Y 8972   3.999   2.752   4.638  1.9987  0.6195 -2.7688
   91SAPE  C315 8973   4.125   2.916   4.632  0.4589 -0.6707 -0.0985
   91SAPE  H15X 8974   4.215   2.851   4.635 -0.6614 -2.3418 -1.1148
   91SAPE  H15Y 8975   4.156   3.014   4.676 -0.7910 -0.1748 -0.2852
   91SAPE  C316 8976   4.107   2.937   4.475  0.2106 -0.3075  0.5084
   91SAPE  H16X 8977   4.021   3.007   4.471 -0.4569 -1.1732 -0.5762
   91SAPE  H16Y 8978   4.090   2.837   4.430  3.2147 -1.1533  1.0297
   91SAPE  C317 8979   4.239   3.006   4.430 -0.3851 -0.0647 -0.0597
   91SAPE  H17X 8980   4.267   2.961   4.332  1.6551 -1.6004  1.1730
   91SAPE  H17Y 8981   4.311   2.978   4.509 -1.2418 -0.5098  0.5735
   91SAPE  C318 8982   4.225   3.161   4.416  0.3707  0.1341 -0.6781
   91SAPE  H18X 8983   4.160   3.196   4.333  2.7448 -0.8447 -3.1181
   91SAPE  H18Y 8984   4.325   3.206   4.398  0.4893 -0.1280 -0.6902
   91SAPE  H18Z 8985   4.187   3.207   4.510 -0.0618  0.6324 -1.0935
   92SAPE     N 8986   2.668   2.220   6.751  0.5928  0.0061 -0.5556
   92SAPE   HN1 8987   2.724   2.132   6.755 -0.2679 -0.5103  1.7168
   92SAPE   HN2 8988   2.580   2.205   6.804  0.7825 -2.3280 -0.8109
   92SAPE   HN3 8989   2.654   2.239   6.650 -0.6976 -1.0075 -0.5928
   92SAPE   C12 8990   2.753   2.325   6.816  0.0809 -0.3393  0.1151
   92SAPE  H12A 8991   2.779   2.288   6.918  0.3537  0.7325  0.4518
   92SAPE  H12B 8992   2.691   2.418   6.814  0.2125 -0.2366 -2.3427
   92SAPE   C11 8993   2.881   2.350   6.738  0.4283 -0.4397 -0.2050
   92SAPE  H11A 8994   2.933   2.437   6.784 -2.4675  0.9118  0.7592
   92SAPE  H11B 8995   2.859   2.371   6.631 -1.3517  1.0322  0.3882
   92SAPE     P 8996   3.107   2.231   6.686  0.0371 -0.1452  0.0671
   92SAPE   O13 8997   3.178   2.356   6.724  0.4308 -0.0792 -0.0242
   92SAPE   O14 8998   3.165   2.104   6.724 -0.3916  0.5453 -0.0545
   92SAPE   O12 8999   2.960   2.237   6.753 -0.6182  0.3033 -0.1469
   92SAPE   O11 9000   3.062   2.227   6.537  0.2853  0.2744  0.5227
   92SAPE    C1 9001   2.982   2.121   6.481 -0.1175  0.5049 -1.6273
   92SAPE    HA 9002   3.019   2.017   6.495 -1.8433  0.0052 -0.5611
   92SAPE    HB 9003   2.889   2.130   6.541  1.6361  0.3717  1.3496
   92SAPE    C2 9004   2.973   2.144   6.329 -1.0051  0.2391 -0.7466
   92SAPE    HS 9005   2.915   2.053   6.301 -0.5312 -1.2772  2.7835
   92SAPE   O21 9006   3.101   2.149   6.261  0.0433  0.0942 -0.3415
   92SAPE   C21 9007   3.166   2.029   6.257  0.8308  0.4215  0.2133
   92SAPE   O22 9008   3.112   1.927   6.290  0.3398 -0.0762 -0.7289
   92SAPE   C22 9009   3.311   2.049   6.212  0.0448 -0.2073  0.1979
   92SAPE   H2R 9010   3.359   2.122   6.280 -1.9278  1.0779  0.2754
   92SAPE   H2S 9011   3.356   1.949   6.231  0.1941 -0.2578 -0.3742
   92SAPE    C3 9012   2.890   2.271   6.305 -0.1298 -0.9281  0.1291
   92SAPE    HX 9013   2.947   2.353   6.353 -0.2306 -0.7574 -0.0413
   92SAPE    HY 9014   2.802   2.269   6.373 -1.0561  0.3391 -0.9801
   92SAPE   O31 9015   2.864   2.312   6.167  0.2640  0.3127 -0.4252
   92SAPE   C31 9016   2.801   2.221   6.090  0.0173 -0.1844  0.1682
   92SAPE   O32 9017   2.768   2.107   6.124  0.0778 -0.0171  0.1862
   92SAPE   C32 9018   2.767   2.288   5.952  0.6126  0.5610 -0.6143
   92SAPE   H2X 9019   2.854   2.335   5.903  0.1436  1.0269 -1.0101
   92SAPE   H2Y 9020   2.689   2.366   5.967 -0.7346 -0.7909 -0.2476
   92SAPE   C23 9021   3.322   2.074   6.065 -0.2592 -0.5176 -0.0155
   92SAPE   H3R 9022   3.428   2.106   6.055 -0.8032  1.1292 -0.9602
   92SAPE   H3S 9023   3.275   2.172   6.041  1.8698  0.6078  0.1856
   92SAPE   C24 9024   3.287   1.960   5.975 -0.0808 -0.0151  0.2251
   92SAPE   H4R 9025   3.322   1.864   6.018  0.7673  0.5104  0.7318
   92SAPE   H4S 9026   3.341   1.975   5.878 -0.1361 -1.8479 -0.1316
   92SAPE   C25 9027   3.143   1.960   5.946 -0.8524  0.5945  0.0116
   92SAPE   H5R 9028   3.072   1.925   6.022  0.8089 -1.0048  0.9063
   92SAPE   C26 9029   3.083   1.989   5.831  0.0404  0.5138  0.4635
   92SAPE   H6R 9030   2.974   1.978   5.824  0.1275 -0.8387  0.9556
   92SAPE   C27 9031   3.152   2.049   5.708 -0.2316 -0.3873  0.0791
   92SAPE   H7R 9032   3.144   1.979   5.622  2.6025 -1.3350  0.4750
   92SAPE   H7S 9033   3.261   2.060   5.725 -0.1936  1.4933 -0.9934
   92SAPE   C28 9034   3.085   2.186   5.671  0.0313  0.5312 -0.7220
   92SAPE   H8R 9035   3.040   2.259   5.740  0.5971  0.4626 -0.2713
   92SAPE   C29 9036   3.093   2.222   5.543  0.1969 -0.4061  0.8807
   92SAPE   H9R 9037   3.040   2.314   5.515 -0.4502  0.0182  3.2430
   92SAPE  C210 9038   3.153   2.140   5.431 -0.6819  0.2863 -0.0188
   92SAPE  H10R 9039   3.076   2.070   5.393 -1.9454  2.1023 -0.8936
   92SAPE  H10S 9040   3.235   2.075   5.469 -0.5889 -0.6539 -1.7532
   92SAPE  C211 9041   3.201   2.228   5.319 -0.2731 -0.8984  0.7913
   92SAPE  H11R 9042   3.289   2.293   5.334 -0.5745  0.2091 -1.6486
   92SAPE  C212 9043   3.142   2.252   5.198  0.4847 -0.6780 -0.0791
   92SAPE  H12R 9044   3.194   2.309   5.119 -0.3044  0.1575 -0.0118
   92SAPE  C213 9045   3.021   2.176   5.142  0.0021 -0.2513  0.3053
   92SAPE  H13R 9046   3.048   2.071   5.121 -0.3719 -0.4066  0.6028
   92SAPE  H13S 9047   3.004   2.211   5.038 -1.5735 -3.1541 -0.5228
   92SAPE  C214 9048   2.905   2.191   5.227 -0.6762 -0.2610 -0.0796
   92SAPE  H14R 9049   2.922   2.233   5.327 -0.0328 -0.5944 -0.0467
   92SAPE  C215 9050   2.777   2.155   5.198  0.2138 -0.0259  0.0152
   92SAPE  H15R 9051   2.706   2.169   5.281  0.4817  1.2000  0.0654
   92SAPE  C216 9052   2.735   2.090   5.067  0.3625 -0.1586 -0.6324
   92SAPE  H16R 9053   2.688   1.990   5.077 -1.6958  0.6247 -1.9378
   92SAPE  H16S 9054   2.818   2.089   4.993 -0.6661 -0.6879 -1.8086
   92SAPE  C217 9055   2.633   2.176   5.003  0.0597  0.2860 -0.2753
   92SAPE  H17R 9056   2.684   2.270   4.973  0.1457 -0.0871 -1.3186
   92SAPE  H17S 9057   2.550   2.196   5.075 -1.3606  1.9681 -2.2767
   92SAPE  C218 9058   2.568   2.128   4.867 -0.2292  0.0317  0.2190
   92SAPE  H18R 9059   2.482   2.197   4.850  1.5636  2.8668  1.7206
   92SAPE  H18S 9060   2.527   2.025   4.876  0.6059 -0.2741  0.5859
   92SAPE  C219 9061   2.667   2.119   4.758 -0.5665  0.2424  0.2350
   92SAPE  H19R 9062   2.632   2.049   4.679  1.7939  1.0269 -1.6157
   92SAPE  H19S 9063   2.767   2.086   4.791 -0.9026 -1.7721 -0.6046
   92SAPE  C220 9064   2.687   2.254   4.695 -0.6364 -0.4026 -0.1507
   92SAPE  H20R 9065   2.761   2.323   4.740 -1.0449 -0.1130  0.0734
   92SAPE  H20S 9066   2.594   2.312   4.682  0.1862  1.2550  1.0107
   92SAPE  H20T 9067   2.731   2.232   4.595 -0.7068  1.3692 -0.5879
   92SAPE   C33 9068   2.702   2.186   5.855  0.0281 -0.2495 -0.4947
   92SAPE   H3X 9069   2.635   2.116   5.908 -0.2128 -1.3260 -2.1255
   92SAPE   H3Y 9070   2.775   2.119   5.804  1.3056  1.0478 -0.4257
   92SAPE   C34 9071   2.627   2.265   5.751  0.3461 -0.7318  0.2287
   92SAPE   H4X 9072   2.552   2.327   5.804 -0.7437  1.6504 -3.6684
   92SAPE   H4Y 9073   2.559   2.200   5.693 -1.2639  1.4902 -0.5003
   92SAPE   C35 9074   2.710   2.344   5.644 -0.1794 -0.1922  0.1837
   92SAPE   H5X 9075   2.794   2.281   5.609  0.6515  1.0625 -0.1351
   92SAPE   H5Y 9076   2.759   2.429   5.697 -0.6298 -0.1955  0.6127
   92SAPE   C36 9077   2.640   2.397   5.519 -0.1832  0.1856  0.1998
   92SAPE   H6X 9078   2.562   2.325   5.486 -0.0995  0.3301 -0.3137
   92SAPE   H6Y 9079   2.721   2.407   5.444 -0.8111 -0.2384 -0.5480
   92SAPE   C37 9080   2.582   2.539   5.553  0.1743  0.3153  0.1272
   92SAPE   H7X 9081   2.667   2.601   5.589  1.1590 -0.9287  0.0168
   92SAPE   H7Y 9082   2.505   2.539   5.633  0.9283  0.0799  0.8690
   92SAPE   C38 9083   2.520   2.613   5.425 -0.0694 -0.3659 -0.0410
   92SAPE   H8X 9084   2.604   2.637   5.356 -0.2480  0.3124 -0.0298
   92SAPE   H8Y 9085   2.480   2.711   5.460  0.0762 -0.2532 -0.1888
   92SAPE   C39 9086   2.414   2.544   5.336 -0.0214 -0.2997  0.2391
   92SAPE   H9X 9087   2.317   2.529   5.388 -2.1444  1.4318 -2.8494
   92SAPE   H9Y 9088   2.458   2.443   5.323  1.5449  0.2861  0.7141
   92SAPE  C310 9089   2.403   2.594   5.192 -0.1485  0.3408 -0.0288
   92SAPE  H10X 9090   2.506   2.623   5.160  0.1040 -1.5450 -1.1153
   92SAPE  H10Y 9091   2.339   2.683   5.209 -0.6179 -0.2722  1.5977
   92SAPE  C311 9092   2.334   2.493   5.108 -0.1553  0.3330  0.0725
   92SAPE  H11X 9093   2.228   2.484   5.139 -0.2924 -3.2365 -1.0145
   92SAPE  H11Y 9094   2.380   2.394   5.125  0.0349  0.2276 -1.0208
   92SAPE  C312 9095   2.333   2.533   4.959 -0.0136 -0.0546 -0.5728
   92SAPE  H12X 9096   2.268   2.623   4.960  0.1670  0.0767 -0.6315
   92SAPE  H12Y 9097   2.291   2.447   4.902  2.4665 -2.4261  0.9417
   92SAPE  C313 9098   2.465   2.567   4.884  0.4245  0.1914 -0.3549
   92SAPE  H13X 9099   2.548   2.510   4.931 -1.9947  1.0988  5.8840
   92SAPE  H13Y 9100   2.486   2.675   4.900  2.5630 -0.3542  1.0128
   92SAPE  C314 9101   2.448   2.541   4.737  0.5662 -0.3525  0.2291
   92SAPE  H14X 9102   2.419   2.436   4.715 -1.1044  0.2044 -0.3454
   92SAPE  H14Y 9103   2.541   2.565   4.681 -0.2346  0.4502 -0.7922
   92SAPE  C315 9104   2.340   2.617   4.664 -0.3921  0.9332 -0.2578
   92SAPE  H15X 9105   2.368   2.724   4.670  1.1479  0.5246  0.3051
   92SAPE  H15Y 9106   2.241   2.602   4.711 -0.7039  0.7707 -0.9574
   92SAPE  C316 9107   2.329   2.563   4.520  0.2228 -0.5420  0.2013
   92SAPE  H16X 9108   2.343   2.453   4.528 -1.4915 -0.9661 -1.9048
   92SAPE  H16Y 9109   2.412   2.612   4.465  0.0736  2.2725  2.2967
   92SAPE  C317 9110   2.197   2.601   4.455 -0.3029  0.4284 -0.4854
   92SAPE  H17X 9111   2.205   2.564   4.351  3.3429 -2.9260  0.7507
   92SAPE  H17Y 9112   2.187   2.712   4.456  1.9010  0.6686 -0.8794
   92SAPE  C318 9113   2.075   2.533   4.520  0.1964  0.4624 -0.4971
   92SAPE  H18X 9114   1.976   2.559   4.477  0.5979  1.6805 -0.7259
   92SAPE  H18Y 9115   2.057   2.583   4.617 -1.1026  0.1884 -0.5861
   92SAPE  H18Z 9116   2.079   2.422   4.517 -2.5645  0.3169 -0.4899
   93SAPE     N 9117   0.200   1.198   6.836  0.2744 -0.0372  0.2384
   93SAPE   HN1 9118   0.231   1.296   6.849 -1.5373  0.9511 -2.1707
   93SAPE   HN2 9119   0.245   1.159   6.751 -2.4064 -2.2232 -0.3264
   93SAPE   HN3 9120   0.097   1.212   6.829 -0.0512  1.5137  4.6694
   93SAPE   C12 9121   0.234   1.118   6.960 -0.5346  0.3604 -0.0917
   93SAPE  H12A 9122   0.137   1.096   7.009  0.3912 -0.0402  1.6564
   93SAPE  H12B 9123   0.312   1.173   7.018  0.0606  0.9847 -1.4405
   93SAPE   C11 9124   0.293   0.985   6.919  0.5385 -0.9379 -0.3056
   93SAPE  H11A 9125   0.214   0.931   6.861  0.8294 -0.7969 -0.8402
   93SAPE  H11B 9126   0.310   0.927   7.012 -2.7805 -0.4284  0.7457
   93SAPE     P 9127   0.415   0.969   6.683 -0.0415  0.3055 -0.1135
   93SAPE   O13 9128   0.545   1.018   6.632 -0.3978  0.5820  0.0219
   93SAPE   O14 9129   0.379   0.825   6.665 -0.7261  0.5494  0.3301
   93SAPE   O12 9130   0.403   1.016   6.833  0.0586 -0.0981  0.0869
   93SAPE   O11 9131   0.306   1.055   6.628 -0.5475 -0.7222  0.3478
   93SAPE    C1 9132   0.241   1.043   6.506 -0.3202  0.0965  0.3821
   93SAPE    HA 9133   0.209   0.938   6.491  3.8644 -1.4060  0.4635
   93SAPE    HB 9134   0.155   1.112   6.515  0.2035  0.6985  0.9376
   93SAPE    C2 9135   0.333   1.087   6.388  0.2971 -0.5167  0.4356
   93SAPE    HS 9136   0.431   1.049   6.422  0.5351 -0.1092  0.2117
   93SAPE   O21 9137   0.347   1.230   6.381 -0.7373 -0.0563  0.3830
   93SAPE   C21 9138   0.455   1.277   6.316 -0.1012 -0.1500 -0.3663
   93SAPE   O22 9139   0.551   1.209   6.283 -0.1995  0.5642  0.2149
   93SAPE   C22 9140   0.435   1.426   6.310 -0.1123  0.0490  0.8417
   93SAPE   H2R 9141   0.326   1.443   6.307 -0.1513 -0.3223  0.2395
   93SAPE   H2S 9142   0.492   1.467   6.397  0.1225  1.0561  0.2310
   93SAPE    C3 9143   0.303   1.038   6.245 -0.1139 -0.0987 -0.2165
   93SAPE    HX 9144   0.264   0.933   6.247 -1.8988  0.5224 -0.5447
   93SAPE    HY 9145   0.402   1.038   6.196 -0.0807  2.8475 -0.2869
   93SAPE   O31 9146   0.222   1.127   6.171  0.1591  0.2941 -0.3521
   93SAPE   C31 9147   0.098   1.093   6.176 -0.1232 -1.2111 -0.6357
   93SAPE   O32 9148   0.051   1.004   6.247  0.0371 -0.9227  0.4906
   93SAPE   C32 9149   0.014   1.187   6.090 -0.0972  0.3157 -0.3031
   93SAPE   H2X 9150   0.035   1.290   6.125 -2.6487  0.9825 -0.5220
   93SAPE   H2Y 9151  -0.096   1.174   6.094 -0.3038  2.0637  0.4255
   93SAPE   C23 9152   0.500   1.497   6.188  0.4763  0.0415 -0.7094
   93SAPE   H3R 9153   0.599   1.450   6.174  1.1748  1.2610 -0.0386
   93SAPE   H3S 9154   0.508   1.607   6.202 -0.0094  0.1657 -1.3257
   93SAPE   C24 9155   0.424   1.488   6.053  0.1391  0.7695  0.0864
   93SAPE   H4R 9156   0.477   1.540   5.970  1.0656 -1.5377 -0.8461
   93SAPE   H4S 9157   0.334   1.551   6.071 -2.3312 -2.3880 -0.4136
   93SAPE   C25 9158   0.387   1.344   6.015 -0.1057 -0.6330 -0.3111
   93SAPE   H5R 9159   0.312   1.302   6.085  0.2572  1.0172  1.1271
   93SAPE   C26 9160   0.446   1.267   5.917  0.4854  0.0485  0.1809
   93SAPE   H6R 9161   0.432   1.158   5.913  1.5715 -0.0600 -1.6973
   93SAPE   C27 9162   0.553   1.323   5.831 -0.1424  0.0040  0.6877
   93SAPE   H7R 9163   0.618   1.391   5.889 -0.4084  0.8060  0.0582
   93SAPE   H7S 9164   0.499   1.381   5.753 -0.7678 -0.6163  0.6458
   93SAPE   C28 9165   0.629   1.219   5.754 -0.0764  0.6503 -0.1499
   93SAPE   H8R 9166   0.619   1.221   5.645  0.7379 -2.6462 -0.3993
   93SAPE   C29 9167   0.719   1.130   5.810  0.3054  0.3314 -0.2186
   93SAPE   H9R 9168   0.773   1.066   5.738  0.8597  0.4062  0.1303
   93SAPE  C210 9169   0.752   1.123   5.957 -0.1441  0.4378 -0.0351
   93SAPE  H10R 9170   0.672   1.172   6.016 -0.4774 -0.8343  0.5906
   93SAPE  H10S 9171   0.846   1.178   5.979 -0.2751  1.1848 -1.2418
   93SAPE  C211 9172   0.746   0.983   6.006  0.2346 -0.6662 -0.9051
   93SAPE  H11R 9173   0.646   0.939   6.007 -0.1173 -0.1816  3.2394
   93SAPE  C212 9174   0.844   0.895   6.045 -0.3582  0.0131 -0.7516
   93SAPE  H12R 9175   0.817   0.807   6.106  1.0559  0.0140 -0.0582
   93SAPE  C213 9176   0.992   0.936   6.063  0.1578 -0.5051 -0.3701
   93SAPE  H13R 9177   1.020   0.941   6.171  4.0539 -0.8730 -1.2402
   93SAPE  H13S 9178   1.021   1.032   6.015 -1.9400 -0.0760 -0.9015
   93SAPE  C214 9179   1.089   0.844   5.996  1.0921 -0.1043 -0.4690
   93SAPE  H14R 9180   1.156   0.785   6.060  0.9840  0.6300  0.3485
   93SAPE  C215 9181   1.098   0.816   5.868  0.2858 -0.9195 -0.0624
   93SAPE  H15R 9182   1.163   0.732   5.842 -0.2070 -1.1930 -0.4268
   93SAPE  C216 9183   0.996   0.849   5.764 -0.4143 -0.8787 -0.5745
   93SAPE  H16R 9184   0.899   0.889   5.802 -0.0326 -0.3156 -0.1902
   93SAPE  H16S 9185   0.970   0.760   5.703 -3.2475 -0.9672  0.6069
   93SAPE  C217 9186   1.046   0.957   5.664  0.2397  0.0835  0.3449
   93SAPE  H17R 9187   1.147   0.946   5.619 -0.9756  2.1047 -3.2874
   93SAPE  H17S 9188   1.050   1.049   5.727 -0.3404  0.6226 -0.3915
   93SAPE  C218 9189   0.958   0.994   5.551  0.2468 -0.0512  0.2798
   93SAPE  H18R 9190   0.855   0.970   5.586  1.4521 -2.4847  2.5051
   93SAPE  H18S 9191   0.969   0.923   5.467  0.8090  0.1889  0.1488
   93SAPE  C219 9192   0.963   1.138   5.497 -0.0460 -0.1509  0.0612
   93SAPE  H19R 9193   1.066   1.147   5.457 -0.1466  1.7282  0.1430
   93SAPE  H19S 9194   0.954   1.214   5.577  0.3890 -0.1109  0.0730
   93SAPE  C220 9195   0.855   1.160   5.395 -0.1523  0.1615 -0.2254
   93SAPE  H20R 9196   0.758   1.125   5.437 -1.2468  1.8789 -1.1934
   93SAPE  H20S 9197   0.876   1.101   5.304  2.3770 -0.2214  0.5440
   93SAPE  H20T 9198   0.844   1.268   5.373 -1.5337  0.8385  3.1747
   93SAPE   C33 9199   0.047   1.167   5.944  0.4487 -0.3922 -0.2383
   93SAPE   H3X 9200   0.025   1.064   5.909 -0.0431  0.4641 -2.5844
   93SAPE   H3Y 9201   0.154   1.178   5.914  0.4758  1.5020  0.4484
   93SAPE   C34 9202  -0.025   1.280   5.865  0.9195  0.7812  0.2440
   93SAPE   H4X 9203   0.001   1.380   5.905 -2.1408  2.6835 -1.9477
   93SAPE   H4Y 9204  -0.134   1.259   5.872  1.2632 -1.6242 -0.7640
   93SAPE   C35 9205   0.013   1.287   5.709 -0.2312  0.0995 -0.1837
   93SAPE   H5X 9206  -0.062   1.358   5.668  0.8003  1.7125  0.6234
   93SAPE   H5Y 9207  -0.002   1.184   5.669 -2.9903  1.1115 -1.9850
   93SAPE   C36 9208   0.152   1.354   5.681 -0.2008  0.0859  0.4410
   93SAPE   H6X 9209   0.222   1.336   5.765 -1.3229 -1.2639  1.1376
   93SAPE   H6Y 9210   0.141   1.465   5.680 -2.6035 -0.0583 -1.4561
   93SAPE   C37 9211   0.226   1.306   5.551  0.5479 -0.2079  0.1190
   93SAPE   H7X 9212   0.281   1.211   5.565  1.3245  0.3905  1.3270
   93SAPE   H7Y 9213   0.301   1.380   5.517 -1.0420  0.9460 -1.0391
   93SAPE   C38 9214   0.130   1.293   5.432 -0.0307  0.0689  0.1444
   93SAPE   H8X 9215   0.072   1.388   5.420  0.3911  0.3598  0.3679
   93SAPE   H8Y 9216   0.053   1.215   5.449 -0.0982 -0.0431 -0.6744
   93SAPE   C39 9217   0.208   1.264   5.306  0.0123  0.2687 -0.1176
   93SAPE   H9X 9218   0.253   1.162   5.312  1.9971  1.1756  2.7708
   93SAPE   H9Y 9219   0.296   1.332   5.298  1.4722 -1.3698  1.2615
   93SAPE  C310 9220   0.114   1.283   5.186 -0.4995 -0.0955 -0.3927
   93SAPE  H10X 9221   0.097   1.391   5.169 -1.2471 -0.2472 -0.6589
   93SAPE  H10Y 9222   0.011   1.248   5.210 -0.8817 -1.3250 -3.3256
   93SAPE  C311 9223   0.164   1.213   5.061 -0.0653  0.7634  0.2096
   93SAPE  H11X 9224   0.114   1.116   5.038 -0.3661  0.9686  0.0036
   93SAPE  H11Y 9225   0.273   1.188   5.060  0.0200  0.9490  1.9149
   93SAPE  C312 9226   0.139   1.308   4.937 -0.6443 -0.5977  0.0651
   93SAPE  H12X 9227   0.177   1.411   4.957  2.4531 -1.0030 -2.9577
   93SAPE  H12Y 9228   0.030   1.327   4.925  0.0285  2.0676 -3.4084
   93SAPE  C313 9229   0.190   1.257   4.801 -0.5630 -0.2581 -0.1924
   93SAPE  H13X 9230   0.166   1.150   4.781 -2.3493  0.5686 -3.0771
   93SAPE  H13Y 9231   0.301   1.260   4.810 -0.6317  1.8389  0.5392
   93SAPE  C314 9232   0.147   1.337   4.685 -0.0464 -0.0251  0.3923
   93SAPE  H14X 9233   0.194   1.437   4.690  0.4585 -0.2816  0.8549
   93SAPE  H14Y 9234   0.039   1.360   4.681  0.0356  0.5035  1.0966
   93SAPE  C315 9235   0.181   1.280   4.542  0.1929  1.1692  0.2211
   93SAPE  H15X 9236   0.151   1.360   4.471 -0.0074 -0.0967 -1.1689
   93SAPE  H15Y 9237   0.114   1.193   4.525 -0.5618  1.4947  1.4956
   93SAPE  C316 9238   0.329   1.242   4.522 -0.5968 -0.4640 -0.7035
   93SAPE  H16X 9239   0.366   1.171   4.599 -0.1633  1.0026  0.4751
   93SAPE  H16Y 9240   0.386   1.337   4.531 -0.7754 -0.5141  1.8010
   93SAPE  C317 9241   0.352   1.178   4.388  0.1836  0.0985  0.1989
   93SAPE  H17X 9242   0.289   1.088   4.378 -1.1773  1.0758 -0.3158
   93SAPE  H17Y 9243   0.455   1.138   4.376 -0.2660 -1.3860  1.0859
   93SAPE  C318 9244   0.321   1.277   4.271  0.3371 -0.0750 -0.4948
   93SAPE  H18X 9245   0.215   1.304   4.289  0.8695  0.5944  2.1787
   93SAPE  H18Y 9246   0.334   1.217   4.179 -1.1594  2.3217 -2.4218
   93SAPE  H18Z 9247   0.391   1.364   4.270  1.4098 -0.8678 -2.9665
   94SAPE     N 9248   5.521   3.782   6.787  0.1628  0.2503  0.0496
   94SAPE   HN1 9249   5.605   3.821   6.739  1.9757 -0.0506  2.7239
   94SAPE   HN2 9250   5.483   3.703   6.732  1.2989  0.0750 -0.5149
   94SAPE   HN3 9251   5.447   3.856   6.791  0.4562  0.5010  1.9822
   94SAPE   C12 9252   5.539   3.723   6.927 -0.3989 -0.1834  0.3291
   94SAPE  H12A 9253   5.442   3.694   6.972 -1.3797 -0.9016 -2.0846
   94SAPE  H12B 9254   5.605   3.787   6.989 -1.4251 -1.4649  2.9180
   94SAPE   C11 9255   5.596   3.583   6.920 -0.4072  0.1947 -0.5246
   94SAPE  H11A 9256   5.543   3.522   6.844 -0.9965 -1.0688  0.8594
   94SAPE  H11B 9257   5.584   3.529   7.017  1.8173 -0.2597 -0.4600
   94SAPE     P 9258   5.795   3.501   6.760  0.1111  0.0971  0.1725
   94SAPE   O13 9259   5.916   3.558   6.704 -0.4875  0.4911 -0.6411
   94SAPE   O14 9260   5.795   3.362   6.801  0.2547 -0.0086 -0.7122
   94SAPE   O12 9261   5.736   3.582   6.880  0.6013 -0.1704 -0.3735
   94SAPE   O11 9262   5.689   3.527   6.653 -0.1312  0.0252  0.0423
   94SAPE    C1 9263   5.645   3.436   6.553  0.3124 -0.7406 -0.2841
   94SAPE    HA 9264   5.636   3.330   6.587  3.0333 -1.2884 -1.0113
   94SAPE    HB 9265   5.544   3.466   6.518  0.5485 -0.2194 -0.5309
   94SAPE    C2 9266   5.741   3.459   6.429  0.6975  0.1752  0.4518
   94SAPE    HS 9267   5.687   3.432   6.335  0.0710 -0.3459  0.9507
   94SAPE   O21 9268   5.863   3.390   6.446  0.2728  0.2387 -0.5499
   94SAPE   C21 9269   5.860   3.257   6.408  0.9756 -0.4123 -0.0479
   94SAPE   O22 9270   5.760   3.196   6.375  0.2436  0.3542  0.0444
   94SAPE   C22 9271   6.006   3.205   6.410  0.4561  0.0773  0.3525
   94SAPE   H2R 9272   6.059   3.303   6.409  1.7102 -0.5772  1.0483
   94SAPE   H2S 9273   6.020   3.160   6.510  0.5494  1.8115  1.1584
   94SAPE    C3 9274   5.773   3.606   6.412 -0.3164  0.1161  0.1458
   94SAPE    HX 9275   5.842   3.630   6.497 -0.8257 -2.6303  1.4351
   94SAPE    HY 9276   5.679   3.663   6.426 -0.4366 -0.2452  0.8598
   94SAPE   O31 9277   5.833   3.636   6.284  0.6185 -0.3228 -0.1199
   94SAPE   C31 9278   5.952   3.684   6.290  0.8979 -0.5097  0.3789
   94SAPE   O32 9279   6.017   3.709   6.388 -0.3353 -0.1738 -0.2165
   94SAPE   C32 9280   5.997   3.708   6.148  0.1885 -0.3307 -0.4053
   94SAPE   H2X 9281   5.913   3.765   6.104  0.5673  0.8247  0.3300
   94SAPE   H2Y 9282   5.988   3.613   6.091 -0.2332 -0.0331 -0.8430
   94SAPE   C23 9283   6.059   3.143   6.282 -0.2177  0.1877 -0.1707
   94SAPE   H3R 9284   5.991   3.064   6.241 -0.2929  1.1184 -1.9634
   94SAPE   H3S 9285   6.157   3.095   6.299  0.7467  1.8604 -0.7757
   94SAPE   C24 9286   6.083   3.249   6.176 -0.1597 -0.4378  0.5749
   94SAPE   H4R 9287   6.144   3.331   6.220  1.5804 -0.7866 -1.0583
   94SAPE   H4S 9288   5.987   3.296   6.146 -1.6036 -0.6500  4.3529
   94SAPE   C25 9289   6.157   3.194   6.054  0.0744  0.1102 -0.6096
   94SAPE   H5R 9290   6.097   3.126   5.992 -1.5016 -0.0208  0.9862
   94SAPE   C26 9291   6.290   3.200   6.027 -0.3631 -0.5087  0.0282
   94SAPE   H6R 9292   6.326   3.177   5.926  1.7498 -0.8219  0.7894
   94SAPE   C27 9293   6.384   3.276   6.114  0.4465 -1.1126  0.3367
   94SAPE   H7R 9294   6.366   3.248   6.220  0.1878 -1.8250  0.1094
   94SAPE   H7S 9295   6.381   3.386   6.094 -1.0273 -1.2379 -0.2513
   94SAPE   C28 9296   6.527   3.237   6.112 -0.1048  0.0493 -0.5166
   94SAPE   H8R 9297   6.558   3.193   6.208 -1.3668 -1.3287 -0.7062
   94SAPE   C29 9298   6.618   3.260   6.022 -0.0520  0.3594  0.5087
   94SAPE   H9R 9299   6.718   3.213   6.019 -0.0964  0.3111 -1.2882
   94SAPE  C210 9300   6.584   3.337   5.893  0.6694 -0.1895  0.1099
   94SAPE  H10R 9301   6.490   3.395   5.904  0.5651 -0.3297 -0.0374
   94SAPE  H10S 9302   6.562   3.253   5.824  0.2711  2.3461 -3.0885
   94SAPE  C211 9303   6.684   3.430   5.834 -0.8291  0.6469 -0.8850
   94SAPE  H11R 9304   6.741   3.497   5.900 -0.9710 -0.6740  0.6320
   94SAPE  C212 9305   6.717   3.431   5.702  0.0795  0.2813  0.4029
   94SAPE  H12R 9306   6.800   3.489   5.660 -1.6189  0.0226 -3.8121
   94SAPE  C213 9307   6.645   3.350   5.593 -0.6638 -0.3930  0.1112
   94SAPE  H13R 9308   6.535   3.347   5.611 -0.5604  0.2241  0.9067
   94SAPE  H13S 9309   6.672   3.243   5.604 -0.8398 -0.5359 -0.7785
   94SAPE  C214 9310   6.670   3.411   5.459 -0.1754 -0.0707  0.7682
   94SAPE  H14R 9311   6.638   3.516   5.461  0.3083  0.0718  1.9417
   94SAPE  C215 9312   6.698   3.359   5.334  0.3437  0.3492 -0.1904
   94SAPE  H15R 9313   6.704   3.431   5.251  0.6473  1.8502  1.1043
   94SAPE  C216 9314   6.727   3.217   5.302 -0.1214  0.1291  0.3799
   94SAPE  H16R 9315   6.647   3.182   5.233 -0.8665  1.7705  0.3636
   94SAPE  H16S 9316   6.732   3.154   5.393 -1.3402 -1.2090 -0.4282
   94SAPE  C217 9317   6.874   3.212   5.237  0.0404 -0.1873 -0.3299
   94SAPE  H17R 9318   6.939   3.247   5.320 -1.7192  2.8409 -0.0756
   94SAPE  H17S 9319   6.875   3.282   5.151  2.0384 -1.1156 -1.1394
   94SAPE  C218 9320   6.916   3.082   5.176 -1.0134  0.3466  0.1792
   94SAPE  H18R 9321   6.831   3.042   5.118  0.5427 -1.2165 -1.1595
   94SAPE  H18S 9322   6.927   3.007   5.257 -2.4823 -2.7051 -2.2275
   94SAPE  C219 9323   7.047   3.088   5.098 -0.8736  0.9712  0.2843
   94SAPE  H19R 9324   7.099   2.990   5.109 -1.1616  1.0792  3.6584
   94SAPE  H19S 9325   7.109   3.175   5.127 -2.1045  3.2309 -3.1952
   94SAPE  C220 9326   7.009   3.098   4.948 -0.1955  0.2472 -0.4608
   94SAPE  H20R 9327   6.945   3.188   4.937  1.5053  1.4696 -0.8432
   94SAPE  H20S 9328   6.953   3.010   4.908 -0.7915  0.5638 -0.3412
   94SAPE  H20T 9329   7.092   3.123   4.879  0.5924  1.8681  0.9996
   94SAPE   C33 9330   6.135   3.771   6.122  0.6443 -0.5188 -0.3001
   94SAPE   H3X 9331   6.204   3.716   6.190  0.1569 -0.2628  0.4100
   94SAPE   H3Y 9332   6.150   3.874   6.160  0.5398 -0.2885 -0.8766
   94SAPE   C34 9333   6.181   3.756   5.977  0.1499 -0.1046 -0.5756
   94SAPE   H4X 9334   6.265   3.827   5.962 -1.1281  1.2432 -1.7155
   94SAPE   H4Y 9335   6.108   3.810   5.913  0.5657 -1.8588 -2.6375
   94SAPE   C35 9336   6.200   3.619   5.920  0.0618 -0.0295  0.3071
   94SAPE   H5X 9337   6.103   3.572   5.894  0.3829 -0.1739 -0.6667
   94SAPE   H5Y 9338   6.248   3.554   5.996  0.4526  0.6390  0.6365
   94SAPE   C36 9339   6.270   3.618   5.778  0.3212  0.0717 -0.1744
   94SAPE   H6X 9340   6.380   3.638   5.777  0.7950 -2.2997  0.1226
   94SAPE   H6Y 9341   6.215   3.702   5.731 -0.4679 -0.2205  0.2144
   94SAPE   C37 9342   6.241   3.488   5.701  0.0721 -0.0177  0.4844
   94SAPE   H7X 9343   6.139   3.445   5.708  0.8097 -2.4965 -2.0425
   94SAPE   H7Y 9344   6.313   3.409   5.734 -1.3877 -1.9506 -0.7398
   94SAPE   C38 9345   6.266   3.520   5.550  0.6689 -0.6008 -0.2150
   94SAPE   H8X 9346   6.371   3.554   5.544  0.7936 -0.5325  1.8777
   94SAPE   H8Y 9347   6.196   3.602   5.520  0.1778 -1.5763 -1.8479
   94SAPE   C39 9348   6.236   3.395   5.466  0.3864  0.1072  0.1705
   94SAPE   H9X 9349   6.129   3.376   5.489  0.8600 -1.2873  1.3517
   94SAPE   H9Y 9350   6.301   3.309   5.490  0.8023 -0.1768 -1.7491
   94SAPE  C310 9351   6.231   3.433   5.318  0.5456 -0.1643 -0.1084
   94SAPE  H10X 9352   6.163   3.518   5.295 -0.9543 -1.1792  0.3741
   94SAPE  H10Y 9353   6.193   3.355   5.248 -0.1313  0.7595 -0.8076
   94SAPE  C311 9354   6.374   3.462   5.268 -0.2755 -0.4411  0.4692
   94SAPE  H11X 9355   6.429   3.366   5.275 -0.5858 -0.5187  2.4330
   94SAPE  H11Y 9356   6.429   3.524   5.342 -1.4608 -2.1702  2.9293
   94SAPE  C312 9357   6.374   3.525   5.128  0.1856 -0.6343  0.2650
   94SAPE  H12X 9358   6.371   3.635   5.139 -0.3374 -0.6121 -0.0432
   94SAPE  H12Y 9359   6.289   3.495   5.062  0.2907 -1.6258  0.5620
   94SAPE  C313 9360   6.495   3.479   5.043 -0.4154  0.2676  0.4403
   94SAPE  H13X 9361   6.495   3.368   5.037  1.7305  0.2521  0.2340
   94SAPE  H13Y 9362   6.583   3.515   5.100 -0.9314  1.7037  0.3760
   94SAPE  C314 9363   6.505   3.535   4.897  0.5457 -0.8551 -0.4112
   94SAPE  H14X 9364   6.471   3.641   4.897  2.1752 -0.2952 -1.7008
   94SAPE  H14Y 9365   6.427   3.483   4.838  1.4307 -1.3841 -1.1389
   94SAPE  C315 9366   6.642   3.520   4.842  0.5767  0.9046 -0.4344
   94SAPE  H15X 9367   6.678   3.416   4.855  1.2361  1.1538 -0.1886
   94SAPE  H15Y 9368   6.713   3.586   4.896  0.6410  2.9883 -2.8596
   94SAPE  C316 9369   6.666   3.555   4.694  0.5331 -0.0916 -0.3791
   94SAPE  H16X 9370   6.635   3.658   4.666  0.2451 -0.7733 -2.7293
   94SAPE  H16Y 9371   6.609   3.482   4.633 -0.7132  0.0209  0.5967
   94SAPE  C317 9372   6.812   3.541   4.653  0.1271 -0.3892 -0.0190
   94SAPE  H17X 9373   6.836   3.438   4.686 -3.4486 -1.3963 -0.0694
   94SAPE  H17Y 9374   6.865   3.619   4.712 -1.6689  0.7095  0.2257
   94SAPE  C318 9375   6.840   3.583   4.507  0.2079  0.4915 -0.2869
   94SAPE  H18X 9376   6.805   3.506   4.436  0.7274  0.3966 -0.4480
   94SAPE  H18Y 9377   6.949   3.578   4.486  0.4601 -3.4725  1.1856
   94SAPE  H18Z 9378   6.788   3.676   4.476  1.4009  1.8027  1.3849
   95SAPE     N 9379   2.311   3.421   6.625  0.5138  0.0879 -0.0293
   95SAPE   HN1 9380   2.386   3.417   6.697  2.1461 -2.9978 -1.6682
   95SAPE   HN2 9381   2.254   3.334   6.620 -0.9330  0.8339  2.1729
   95SAPE   HN3 9382   2.364   3.441   6.538  0.2293  0.0286 -0.2175
   95SAPE   C12 9383   2.218   3.531   6.675 -1.0932  0.2371  0.0023
   95SAPE  H12A 9384   2.153   3.568   6.592  0.8940  1.3005 -1.1599
   95SAPE  H12B 9385   2.272   3.623   6.707 -2.3965  1.3115 -0.7487
   95SAPE   C11 9386   2.128   3.473   6.784 -0.5431 -0.3742  0.1744
   95SAPE  H11A 9387   2.061   3.549   6.828  0.8317 -0.6197  2.9408
   95SAPE  H11B 9388   2.188   3.434   6.870 -1.9045 -0.0057  1.3332
   95SAPE     P 9389   1.922   3.299   6.791  0.4057 -0.1735 -0.0422
   95SAPE   O13 9390   1.853   3.207   6.698 -0.0403  0.1247  0.3086
   95SAPE   O14 9391   1.957   3.244   6.923  0.8303 -0.1007  0.8238
   95SAPE   O12 9392   2.057   3.356   6.726 -0.3268  0.6349 -0.2004
   95SAPE   O11 9393   1.838   3.430   6.821  0.3211  0.3746  0.0425
   95SAPE    C1 9394   1.715   3.458   6.754  0.4711 -0.5984  0.6715
   95SAPE    HA 9395   1.668   3.366   6.715  1.6398 -1.3195  0.8959
   95SAPE    HB 9396   1.649   3.500   6.833 -1.6956 -0.8593 -0.9259
   95SAPE    C2 9397   1.736   3.560   6.639  0.1117  0.3451  0.3510
   95SAPE    HS 9398   1.643   3.578   6.582  1.0876 -1.1343 -1.8599
   95SAPE   O21 9399   1.834   3.510   6.542  0.6050 -0.0284 -0.3321
   95SAPE   C21 9400   1.797   3.410   6.469  0.2589 -0.2228  0.3932
   95SAPE   O22 9401   1.688   3.362   6.469  0.4420  0.0295  0.1926
   95SAPE   C22 9402   1.910   3.352   6.383  0.0653 -0.5794  0.3793
   95SAPE   H2R 9403   2.009   3.373   6.429  0.0847 -2.5039  1.3280
   95SAPE   H2S 9404   1.899   3.243   6.399  0.3249 -0.6207  0.2641
   95SAPE    C3 9405   1.787   3.699   6.676  0.2148  0.2396 -0.7711
   95SAPE    HX 9406   1.890   3.685   6.717 -0.9040 -0.2794  2.0661
   95SAPE    HY 9407   1.717   3.742   6.750  0.1382 -1.3930  0.1462
   95SAPE   O31 9408   1.805   3.779   6.555 -0.6436  0.4092 -0.0537
   95SAPE   C31 9409   1.848   3.907   6.579 -0.1592 -0.6060  0.4335
   95SAPE   O32 9410   1.866   3.962   6.689 -0.3231  0.3753  0.1769
   95SAPE   C32 9411   1.862   3.993   6.455  0.3514 -0.6712  0.0581
   95SAPE   H2X 9412   1.931   4.080   6.466 -0.7377  0.5302 -1.8543
   95SAPE   H2Y 9413   1.767   4.040   6.421  1.0441  0.9817  0.3104
   95SAPE   C23 9414   1.906   3.400   6.239 -0.0026  0.4158  0.4138
   95SAPE   H3R 9415   1.805   3.395   6.194  0.3952  1.8442 -0.7391
   95SAPE   H3S 9416   1.966   3.326   6.182 -1.6773 -2.2245  1.8968
   95SAPE   C24 9417   1.950   3.543   6.224  0.4219  0.4085  0.4310
   95SAPE   H4R 9418   1.884   3.601   6.292  0.7747  2.1642 -0.6546
   95SAPE   H4S 9419   1.910   3.584   6.129 -2.0073 -0.3136  1.0652
   95SAPE   C25 9420   2.093   3.571   6.250  0.0869  0.0760 -0.0090
   95SAPE   H5R 9421   2.139   3.544   6.346  1.1136  1.7253  0.0014
   95SAPE   C26 9422   2.179   3.619   6.158 -0.2040 -0.5346 -0.4464
   95SAPE   H6R 9423   2.286   3.630   6.184  0.1941 -1.8976 -1.4185
   95SAPE   C27 9424   2.161   3.642   6.017  0.0732  0.2926  0.3627
   95SAPE   H7R 9425   2.101   3.734   6.000 -0.4637 -0.2097 -0.5269
   95SAPE   H7S 9426   2.102   3.555   5.981  2.8487 -1.2649 -0.7307
   95SAPE   C28 9427   2.285   3.636   5.935  0.4400 -0.4391  0.6251
   95SAPE   H8R 9428   2.378   3.608   5.987  1.0218  0.0677 -0.1196
   95SAPE   C29 9429   2.286   3.657   5.799 -0.2710  0.4955 -0.1615
   95SAPE   H9R 9430   2.387   3.661   5.755  0.2886 -1.3125  0.8322
   95SAPE  C210 9431   2.171   3.699   5.714  0.6738 -0.5401 -0.4326
   95SAPE  H10R 9432   2.152   3.808   5.710 -2.3877 -1.0372 -2.8024
   95SAPE  H10S 9433   2.072   3.675   5.757  0.9611 -2.2161 -0.6436
   95SAPE  C211 9434   2.184   3.643   5.576  0.0079  0.5006  0.0793
   95SAPE  H11R 9435   2.260   3.570   5.544 -0.6261 -0.9233  1.6704
   95SAPE  C212 9436   2.085   3.671   5.488 -0.4233 -0.5115  0.1100
   95SAPE  H12R 9437   2.123   3.648   5.387 -0.5052  1.4122 -0.3830
   95SAPE  C213 9438   1.973   3.761   5.494  0.5586  1.2249 -0.4237
   95SAPE  H13R 9439   2.000   3.853   5.439 -0.8004  1.3888 -0.8553
   95SAPE  H13S 9440   1.946   3.786   5.598 -0.9265 -1.2272 -0.1166
   95SAPE  C214 9441   1.844   3.699   5.432 -0.0640 -0.5773 -0.0432
   95SAPE  H14R 9442   1.777   3.649   5.503  0.8908 -1.2255  0.4335
   95SAPE  C215 9443   1.822   3.708   5.305 -0.5483 -0.5643 -0.1110
   95SAPE  H15R 9444   1.732   3.657   5.267 -1.0453  0.4106 -0.2860
   95SAPE  C216 9445   1.915   3.767   5.196 -0.0050 -0.6866  0.1496
   95SAPE  H16R 9446   1.936   3.690   5.119 -0.4007 -0.5498 -0.0954
   95SAPE  H16S 9447   2.016   3.789   5.239 -0.5529 -0.3122  1.2917
   95SAPE  C217 9448   1.871   3.896   5.127 -0.5616 -0.6915  0.4370
   95SAPE  H17R 9449   1.958   3.963   5.118  0.5308 -1.8989  1.5646
   95SAPE  H17S 9450   1.799   3.954   5.188  1.3338 -0.5534  2.6621
   95SAPE  C218 9451   1.817   3.864   4.991  0.1264  0.4150  0.1705
   95SAPE  H18R 9452   1.740   3.784   5.005  0.4591 -0.4334 -2.2075
   95SAPE  H18S 9453   1.892   3.820   4.921 -1.9459 -0.8438 -1.4098
   95SAPE  C219 9454   1.755   3.987   4.929 -1.0835 -0.3953 -0.2405
   95SAPE  H19R 9455   1.830   4.069   4.942 -0.1615 -1.3319  0.5168
   95SAPE  H19S 9456   1.676   4.015   5.001 -0.2700 -1.4851  1.1315
   95SAPE  C220 9457   1.727   3.964   4.781  0.4363  0.8504 -0.6602
   95SAPE  H20R 9458   1.632   3.906   4.775 -0.0681  1.6788 -0.9104
   95SAPE  H20S 9459   1.813   3.921   4.727 -0.7102 -2.6316  0.0339
   95SAPE  H20T 9460   1.694   4.060   4.735 -0.5800 -0.4690 -2.8404
   95SAPE   C33 9461   1.905   3.912   6.330  0.3095  0.3757 -0.7170
   95SAPE   H3X 9462   1.822   3.844   6.301  1.0563 -1.0026  0.2811
   95SAPE   H3Y 9463   1.998   3.862   6.363  2.5045  3.8049 -1.0990
   95SAPE   C34 9464   1.910   3.986   6.196 -0.0207 -0.2995 -0.1657
   95SAPE   H4X 9465   1.944   3.903   6.131  0.1304 -0.0308 -0.4307
   95SAPE   H4Y 9466   1.988   4.066   6.188 -0.7273  0.3553 -0.5512
   95SAPE   C35 9467   1.781   4.038   6.135  0.0287  0.6255  0.3236
   95SAPE   H5X 9468   1.753   4.131   6.188  0.6047  1.0911 -0.1848
   95SAPE   H5Y 9469   1.701   3.961   6.140  1.0728 -0.5742 -0.7581
   95SAPE   C36 9470   1.803   4.081   5.984 -0.1292 -0.7295  0.1275
   95SAPE   H6X 9471   1.861   4.001   5.934 -0.3095 -0.3512 -0.7148
   95SAPE   H6Y 9472   1.874   4.166   5.982  2.5065 -2.8281 -0.3649
   95SAPE   C37 9473   1.672   4.111   5.914 -0.4944  0.0910 -0.0624
   95SAPE   H7X 9474   1.639   4.208   5.956  1.5426 -0.0809  2.1403
   95SAPE   H7Y 9475   1.598   4.033   5.942 -0.2661 -0.0350  0.1875
   95SAPE   C38 9476   1.699   4.129   5.766  0.4125  0.3739  0.0373
   95SAPE   H8X 9477   1.736   4.029   5.738  0.3988  0.4659 -0.3111
   95SAPE   H8Y 9478   1.768   4.212   5.739  1.3429 -1.1332 -2.5547
   95SAPE   C39 9479   1.569   4.148   5.680 -0.0041 -0.9719  0.6204
   95SAPE   H9X 9480   1.510   4.239   5.704  0.0978 -0.1102 -2.0988
   95SAPE   H9Y 9481   1.495   4.066   5.694 -1.1824 -0.7659 -3.2004
   95SAPE  C310 9482   1.603   4.155   5.529  0.0367 -0.2076 -0.0462
   95SAPE  H10X 9483   1.654   4.062   5.495  0.5385  0.1436 -0.2703
   95SAPE  H10Y 9484   1.667   4.245   5.515  0.6080 -0.2378  2.0336
   95SAPE  C311 9485   1.476   4.179   5.437  0.0061  0.4061 -0.1795
   95SAPE  H11X 9486   1.418   4.271   5.461  0.1995  0.3320  0.6128
   95SAPE  H11Y 9487   1.400   4.099   5.453 -1.3142  1.9946  1.9617
   95SAPE  C312 9488   1.516   4.189   5.292  0.8352  0.6888 -0.1957
   95SAPE  H12X 9489   1.562   4.096   5.253  2.3008  1.8025 -1.2243
   95SAPE  H12Y 9490   1.608   4.251   5.290  0.9838  0.7301  2.6443
   95SAPE  C313 9491   1.393   4.226   5.210 -0.1269  0.1643 -0.2297
   95SAPE  H13X 9492   1.359   4.330   5.227 -1.2246 -0.2126  0.0098
   95SAPE  H13Y 9493   1.312   4.161   5.251  0.5947  0.1511  1.2375
   95SAPE  C314 9494   1.421   4.217   5.061  0.5657 -0.0649  0.6038
   95SAPE  H14X 9495   1.478   4.124   5.039 -0.1095 -0.5526  0.8931
   95SAPE  H14Y 9496   1.486   4.302   5.032 -1.0745  0.4660 -1.6868
   95SAPE  C315 9497   1.294   4.212   4.978 -0.3208 -0.3692  0.5838
   95SAPE  H15X 9498   1.231   4.298   5.008 -0.6128 -0.8709  1.4201
   95SAPE  H15Y 9499   1.229   4.129   5.009 -0.8421  0.7328  2.5801
   95SAPE  C316 9500   1.346   4.200   4.831 -0.0969 -0.1938  0.2348
   95SAPE  H16X 9501   1.412   4.111   4.828  1.6135  1.0288  0.4332
   95SAPE  H16Y 9502   1.415   4.285   4.819 -0.4050  0.0491  0.1724
   95SAPE  C317 9503   1.239   4.180   4.720 -0.4223 -0.2680 -0.4033
   95SAPE  H17X 9504   1.199   4.080   4.746  0.6538 -0.1710  1.9243
   95SAPE  H17Y 9505   1.295   4.170   4.624  0.4314 -0.7807  0.1270
   95SAPE  C318 9506   1.131   4.284   4.721 -0.5352 -0.0370 -0.0083
   95SAPE  H18X 9507   1.077   4.287   4.818  0.8283 -0.8912  0.8117
   95SAPE  H18Y 9508   1.059   4.272   4.638 -1.6661  0.0345  0.9323
   95SAPE  H18Z 9509   1.174   4.386   4.707 -0.4855 -0.0465  0.0733
   96SAPE     N 9510   5.907   6.474   6.708 -0.1729  0.5418 -0.3716
   96SAPE   HN1 9511   5.967   6.502   6.788  0.2208  0.1223 -0.5119
   96SAPE   HN2 9512   5.851   6.557   6.681 -1.4115 -0.7840 -2.1985
   96SAPE   HN3 9513   5.836   6.405   6.743  0.2313 -1.0882 -2.5260
   96SAPE   C12 9514   5.975   6.417   6.587  0.6413 -0.4879 -0.3664
   96SAPE  H12A 9515   6.046   6.339   6.622 -1.5512 -3.8666 -2.8967
   96SAPE  H12B 9516   6.030   6.499   6.536  0.3468 -1.2475 -1.9660
   96SAPE   C11 9517   5.875   6.354   6.490  0.5165  0.6458  0.3533
   96SAPE  H11A 9518   5.925   6.349   6.391 -0.0520  0.7305  0.0568
   96SAPE  H11B 9519   5.785   6.419   6.486  1.5817  2.1884  0.6740
   96SAPE     P 9520   5.897   6.094   6.492 -0.2502 -0.2551 -0.1045
   96SAPE   O13 9521   5.992   6.048   6.597  0.4051 -0.0547  0.0475
   96SAPE   O14 9522   5.790   6.004   6.449 -0.2424  0.1898 -0.1992
   96SAPE   O12 9523   5.832   6.231   6.537  0.2032  0.4570 -0.0746
   96SAPE   O11 9524   6.000   6.123   6.371 -0.3505 -0.0736  1.1776
   96SAPE    C1 9525   5.961   6.134   6.232 -1.1859  0.1429  0.2212
   96SAPE    HA 9526   5.853   6.160   6.226 -1.0393  0.7596  0.1734
   96SAPE    HB 9527   6.021   6.208   6.174 -0.7124  0.1208  0.6755
   96SAPE    C2 9528   5.983   5.997   6.161 -0.2464 -0.5093  0.0069
   96SAPE    HS 9529   5.942   5.917   6.226  0.0605 -0.8538 -0.2183
   96SAPE   O21 9530   6.118   5.981   6.120  0.4254  0.2732  0.2542
   96SAPE   C21 9531   6.175   5.898   6.193  0.0362  0.2544 -0.2826
   96SAPE   O22 9532   6.143   5.853   6.307 -0.0912 -0.1673  0.6352
   96SAPE   C22 9533   6.295   5.845   6.118  0.2015  0.5013  0.2280
   96SAPE   H2R 9534   6.295   5.876   6.011  3.0183  1.4891  0.4213
   96SAPE   H2S 9535   6.390   5.887   6.157  0.3393  1.5978 -1.1708
   96SAPE    C3 9536   5.896   5.993   6.030  1.0474  0.1311 -0.7081
   96SAPE    HX 9537   5.944   6.057   5.953 -0.6089  1.2205 -0.8964
   96SAPE    HY 9538   5.794   6.029   6.057  0.3133 -0.8349 -2.1004
   96SAPE   O31 9539   5.896   5.856   5.979  0.1662 -0.1488  0.4733
   96SAPE   C31 9540   5.817   5.771   6.040 -0.4980  0.4608  1.1887
   96SAPE   O32 9541   5.737   5.790   6.127 -0.4535  0.0036 -0.5070
   96SAPE   C32 9542   5.838   5.628   5.987 -0.2123  0.2501 -0.2200
   96SAPE   H2X 9543   5.870   5.570   6.077  0.1725  1.1907  0.2731
   96SAPE   H2Y 9544   5.923   5.618   5.916 -2.2081 -2.4140 -2.3910
   96SAPE   C23 9545   6.306   5.694   6.135  0.8631  0.6857  0.4630
   96SAPE   H3R 9546   6.207   5.645   6.122  0.1322  1.9453  1.0798
   96SAPE   H3S 9547   6.330   5.667   6.240  3.3820  0.1262 -0.1891
   96SAPE   C24 9548   6.412   5.620   6.048  0.5167  0.4167 -0.0269
   96SAPE   H4R 9549   6.444   5.527   6.100  2.3168 -0.0394 -1.8030
   96SAPE   H4S 9550   6.512   5.669   6.041  1.5286 -1.7524 -3.9975
   96SAPE   C25 9551   6.358   5.592   5.916 -0.5566  0.5277  0.1673
   96SAPE   H5R 9552   6.249   5.589   5.904 -0.3763 -1.7159 -1.7456
   96SAPE   C26 9553   6.438   5.564   5.817  0.0767 -0.3995  0.2552
   96SAPE   H6R 9554   6.394   5.552   5.717 -3.0175  0.3450  1.4284
   96SAPE   C27 9555   6.590   5.558   5.814  0.2112  0.1953  0.2497
   96SAPE   H7R 9556   6.629   5.515   5.908  2.8274  0.4591 -0.6251
   96SAPE   H7S 9557   6.616   5.665   5.829 -2.6059  0.9685  0.2520
   96SAPE   C28 9558   6.657   5.485   5.701 -0.4566 -0.2693 -0.2917
   96SAPE   H8R 9559   6.646   5.377   5.716 -0.3066  0.0459  2.6480
   96SAPE   C29 9560   6.710   5.549   5.596 -0.0571 -0.2592  0.1807
   96SAPE   H9R 9561   6.755   5.486   5.518  0.7141 -0.4053  0.7345
   96SAPE  C210 9562   6.721   5.696   5.570 -0.4765  0.0073 -0.4163
   96SAPE  H10R 9563   6.663   5.754   5.645  1.4530  1.1330  0.2637
   96SAPE  H10S 9564   6.665   5.719   5.477  2.2485 -0.1334 -2.2113
   96SAPE  C211 9565   6.869   5.741   5.561 -0.0931  0.8647  0.2605
   96SAPE  H11R 9566   6.925   5.707   5.650  2.1676 -1.6158 -1.9459
   96SAPE  C212 9567   6.927   5.805   5.457 -0.0150 -0.1769  0.2661
   96SAPE  H12R 9568   7.027   5.848   5.475  0.2003 -1.1282  1.4770
   96SAPE  C213 9569   6.873   5.838   5.323  0.2922 -0.6862  0.3977
   96SAPE  H13R 9570   6.893   5.943   5.295 -0.4113 -0.8858 -0.9321
   96SAPE  H13S 9571   6.762   5.840   5.327  0.2631 -0.9135 -0.2371
   96SAPE  C214 9572   6.903   5.720   5.226  0.4186  0.7210 -0.1499
   96SAPE  H14R 9573   6.903   5.619   5.270  1.7350 -0.3950 -2.5184
   96SAPE  C215 9574   6.921   5.736   5.095  1.0492 -0.1375 -0.5535
   96SAPE  H15R 9575   6.956   5.656   5.028  1.2173 -0.7346  0.2235
   96SAPE  C216 9576   6.921   5.868   5.027 -0.2882 -0.0089  0.0145
   96SAPE  H16R 9577   7.025   5.905   5.031 -0.3723  0.1113  2.1755
   96SAPE  H16S 9578   6.868   5.946   5.086  2.1580  1.1020  0.8593
   96SAPE  C217 9579   6.850   5.866   4.895  0.3060  0.4850 -0.5847
   96SAPE  H17R 9580   6.835   5.971   4.863 -0.2776  0.3417 -0.8094
   96SAPE  H17S 9581   6.751   5.815   4.899  0.1166  0.8932 -0.0173
   96SAPE  C218 9582   6.931   5.798   4.780 -0.2923 -0.0217  0.6554
   96SAPE  H18R 9583   6.959   5.695   4.811 -2.0785 -0.8047 -0.1978
   96SAPE  H18S 9584   7.029   5.850   4.772  0.5452 -1.7732 -1.0227
   96SAPE  C219 9585   6.855   5.809   4.649 -0.5324  0.0530  0.0913
   96SAPE  H19R 9586   6.758   5.755   4.654 -0.6138  0.1480 -0.3771
   96SAPE  H19S 9587   6.923   5.758   4.577  1.4176  1.5453  0.7768
   96SAPE  C220 9588   6.830   5.953   4.593  0.1292 -0.0119 -0.5917
   96SAPE  H20R 9589   6.928   6.003   4.574  0.7011 -1.7150 -2.4715
   96SAPE  H20S 9590   6.767   5.995   4.674  2.1890 -0.3351  1.2746
   96SAPE  H20T 9591   6.780   5.954   4.494 -0.1897 -2.2559 -0.4974
   96SAPE   C33 9592   5.717   5.558   5.933  0.3071 -0.5061  0.5060
   96SAPE   H3X 9593   5.698   5.589   5.828  0.5309  1.9113  1.1084
   96SAPE   H3Y 9594   5.618   5.580   5.977  0.5936 -0.1955  1.0105
   96SAPE   C34 9595   5.730   5.411   5.933 -0.1918  0.1245  0.0323
   96SAPE   H4X 9596   5.754   5.374   6.035  1.7068  1.5014  0.1407
   96SAPE   H4Y 9597   5.819   5.379   5.875 -1.2433 -1.2560 -0.8721
   96SAPE   C35 9598   5.617   5.328   5.867  0.0006  0.0924  0.3194
   96SAPE   H5X 9599   5.522   5.332   5.924 -0.0568  0.6085  0.1877
   96SAPE   H5Y 9600   5.652   5.222   5.868  3.2317  1.0463  2.0651
   96SAPE   C36 9601   5.585   5.366   5.717 -0.0310 -0.4003  0.3916
   96SAPE   H6X 9602   5.680   5.387   5.663 -0.1526 -0.9596 -0.0405
   96SAPE   H6Y 9603   5.526   5.460   5.710 -1.8628 -1.5811 -1.0814
   96SAPE   C37 9604   5.512   5.260   5.637 -0.0868 -0.0665  0.0020
   96SAPE   H7X 9605   5.402   5.266   5.654 -0.2605 -0.1167 -0.9878
   96SAPE   H7Y 9606   5.532   5.162   5.686  0.6049  0.4607  0.7995
   96SAPE   C38 9607   5.547   5.258   5.485  0.3384  0.2631  0.2525
   96SAPE   H8X 9608   5.474   5.184   5.446  0.2199 -0.2412  1.3757
   96SAPE   H8Y 9609   5.652   5.220   5.481  0.0323 -1.0092  2.4866
   96SAPE   C39 9610   5.529   5.396   5.420  0.0208  0.8507  0.2502
   96SAPE   H9X 9611   5.587   5.470   5.479  0.7483 -0.7999  1.7231
   96SAPE   H9Y 9612   5.422   5.424   5.428 -0.0819  1.0872 -1.5717
   96SAPE  C310 9613   5.568   5.391   5.270 -0.4882  0.4266 -0.2913
   96SAPE  H10X 9614   5.513   5.311   5.216 -1.1733  1.0927 -0.5794
   96SAPE  H10Y 9615   5.677   5.368   5.262 -0.8670 -2.2466  1.1303
   96SAPE  C311 9616   5.559   5.523   5.201  0.2638  0.1608  0.0346
   96SAPE  H11X 9617   5.615   5.601   5.258  0.4487  0.9393 -1.1541
   96SAPE  H11Y 9618   5.451   5.546   5.194  0.8183  3.0555 -0.3489
   96SAPE  C312 9619   5.619   5.534   5.062 -0.3075  0.7388 -0.0544
   96SAPE  H12X 9620   5.589   5.443   5.006 -0.6529  0.3799  0.7130
   96SAPE  H12Y 9621   5.730   5.531   5.058 -0.3329 -1.3741 -0.3059
   96SAPE  C313 9622   5.576   5.653   4.973  0.2742 -0.0445 -0.0392
   96SAPE  H13X 9623   5.602   5.743   5.033  1.4457 -1.1213  1.1178
   96SAPE  H13Y 9624   5.465   5.655   4.962 -0.1025  1.4868  3.0121
   96SAPE  C314 9625   5.625   5.647   4.829  0.2926  0.2778  0.0637
   96SAPE  H14X 9626   5.553   5.584   4.774 -1.2147 -0.0380  2.2729
   96SAPE  H14Y 9627   5.723   5.595   4.821  0.4892  0.6606 -0.0392
   96SAPE  C315 9628   5.615   5.780   4.760  0.1185 -0.1287  0.1278
   96SAPE  H15X 9629   5.682   5.860   4.798 -0.0335  0.6522 -1.1659
   96SAPE  H15Y 9630   5.513   5.823   4.753  0.5944  0.9585 -0.3286
   96SAPE  C316 9631   5.667   5.768   4.610 -0.3034 -0.6380 -0.4132
   96SAPE  H16X 9632   5.633   5.846   4.538 -0.9229 -0.1822  0.3665
   96SAPE  H16Y 9633   5.624   5.677   4.563 -0.3178 -0.2780 -1.1102
   96SAPE  C317 9634   5.821   5.758   4.581  0.1980  0.2170  0.3559
   96SAPE  H17X 9635   5.850   5.677   4.650 -1.1621  1.3672  2.3939
   96SAPE  H17Y 9636   5.875   5.846   4.622  2.4255 -2.3109  3.2800
   96SAPE  C318 9637   5.847   5.742   4.439  1.2361  0.9156  0.7824
   96SAPE  H18X 9638   5.852   5.842   4.390 -0.2131  0.3317 -0.6932
   96SAPE  H18Y 9639   5.771   5.674   4.394  0.7231 -0.2385  3.2016
   96SAPE  H18Z 9640   5.947   5.695   4.434  1.0394  0.1703  2.9548
   97SAPE     N 9641   6.518   0.326   6.492  0.4205  0.3144  0.0038
   97SAPE   HN1 9642   6.615   0.292   6.500  0.8664  1.1155 -1.4978
   97SAPE   HN2 9643   6.465   0.278   6.417  0.2456  2.1296 -1.0979
   97SAPE   HN3 9644   6.525   0.423   6.454  1.4112  0.1664 -0.2033
   97SAPE   C12 9645   6.441   0.330   6.616  0.6370  0.8275  0.0768
   97SAPE  H12A 9646   6.479   0.403   6.690 -0.7388  0.6615  0.9928
   97SAPE  H12B 9647   6.436   0.226   6.655 -4.6363  0.8852  0.2810
   97SAPE   C11 9648   6.298   0.369   6.575 -0.3584 -0.7347 -0.0295
   97SAPE  H11A 9649   6.242   0.377   6.670 -1.6397 -2.3276 -0.5963
   97SAPE  H11B 9650   6.248   0.284   6.523 -0.5451 -0.6574  0.0209
   97SAPE     P 9651   6.290   0.636   6.553  0.0862 -0.0213  0.1462
   97SAPE   O13 9652   6.183   0.630   6.656  0.0011  0.1039  0.4619
   97SAPE   O14 9653   6.423   0.693   6.588 -0.2831 -0.0933  0.4788
   97SAPE   O12 9654   6.311   0.489   6.491  0.0520 -0.6275 -0.2181
   97SAPE   O11 9655   6.234   0.706   6.421 -0.0890 -0.1185 -0.0706
   97SAPE    C1 9656   6.313   0.697   6.296 -0.3296  0.1104 -0.2205
   97SAPE    HA 9657   6.394   0.622   6.309 -0.2294  0.1402 -0.6540
   97SAPE    HB 9658   6.248   0.655   6.216 -1.1537  3.2523 -1.3177
   97SAPE    C2 9659   6.372   0.836   6.263 -0.6886 -0.7003  0.7453
   97SAPE    HS 9660   6.424   0.878   6.352 -0.2276  2.0348 -0.6664
   97SAPE   O21 9661   6.265   0.931   6.226 -0.0303 -0.1846  0.4953
   97SAPE   C21 9662   6.293   1.055   6.191 -0.7508 -0.1659  0.8415
   97SAPE   O22 9663   6.403   1.109   6.197  0.3119 -0.2654  0.0329
   97SAPE   C22 9664   6.169   1.109   6.117  0.1475 -0.1845 -0.2769
   97SAPE   H2R 9665   6.117   1.171   6.194 -0.4218 -0.6161 -0.3098
   97SAPE   H2S 9666   6.199   1.175   6.034 -2.5586 -1.2832 -2.2589
   97SAPE    C3 9667   6.487   0.832   6.152  0.4801  0.4871  0.2083
   97SAPE    HX 9668   6.563   0.755   6.177 -0.9816 -1.9338 -2.3041
   97SAPE    HY 9669   6.543   0.928   6.165  1.4197 -0.0191 -0.0301
   97SAPE   O31 9670   6.430   0.805   6.025 -0.0313 -0.2718  0.0637
   97SAPE   C31 9671   6.469   0.704   5.951  0.3986  0.5526 -0.7426
   97SAPE   O32 9672   6.558   0.619   5.987  0.7862  0.1960  0.2490
   97SAPE   C32 9673   6.386   0.693   5.824  0.3572 -0.0582 -0.4644
   97SAPE   H2X 9674   6.327   0.786   5.817  0.4830  0.2822  2.1534
   97SAPE   H2Y 9675   6.337   0.594   5.834 -1.2257  0.8297  0.9898
   97SAPE   C23 9676   6.055   1.007   6.075 -0.2656 -0.3769  0.1209
   97SAPE   H3R 9677   5.968   1.069   6.045  0.7247  0.3656 -1.2672
   97SAPE   H3S 9678   6.021   0.928   6.146  3.9964 -0.9327  1.8433
   97SAPE   C24 9679   6.107   0.932   5.954  0.2167  0.2911 -0.4433
   97SAPE   H4R 9680   6.177   0.852   5.988 -0.0204 -0.2596 -1.2330
   97SAPE   H4S 9681   6.169   0.998   5.889 -0.7793  2.0367  0.3314
   97SAPE   C25 9682   6.002   0.854   5.878 -0.0244 -0.2730 -0.1630
   97SAPE   H5R 9683   5.923   0.801   5.932 -0.1428  2.1510  2.2354
   97SAPE   C26 9684   5.987   0.872   5.743 -0.1291 -0.2276  0.1203
   97SAPE   H6R 9685   5.909   0.810   5.697  0.8693 -1.2983 -0.1789
   97SAPE   C27 9686   6.087   0.931   5.647  0.4000 -0.1730  0.6647
   97SAPE   H7R 9687   6.130   0.848   5.588  2.0931 -0.6572  2.4677
   97SAPE   H7S 9688   6.175   0.972   5.702  0.4393  1.1043 -0.3004
   97SAPE   C28 9689   6.029   1.046   5.563 -0.0631 -0.9440 -0.6189
   97SAPE   H8R 9690   6.049   1.147   5.603 -0.8113 -1.3207  0.7378
   97SAPE   C29 9691   5.977   1.036   5.437 -0.1559  0.0923 -0.2833
   97SAPE   H9R 9692   5.949   1.130   5.388  2.6517  0.4337 -1.3765
   97SAPE  C210 9693   5.951   0.906   5.370 -0.4227 -0.1472  0.6067
   97SAPE  H10R 9694   5.930   0.827   5.444  1.5210 -2.2874 -0.9732
   97SAPE  H10S 9695   6.047   0.873   5.326  0.6110  2.0388  1.0634
   97SAPE  C211 9696   5.839   0.898   5.268  0.2248  0.4159  0.4092
   97SAPE  H11R 9697   5.748   0.877   5.325 -0.0269  0.1771 -0.0728
   97SAPE  C212 9698   5.847   0.896   5.129  0.5527  0.5495  0.2142
   97SAPE  H12R 9699   5.748   0.909   5.084 -0.1369 -0.1439  1.4691
   97SAPE  C213 9700   5.961   0.922   5.037 -0.2824 -0.3794  0.3842
   97SAPE  H13R 9701   5.971   0.835   4.969 -1.4861  0.7453 -1.3193
   97SAPE  H13S 9702   6.060   0.926   5.088 -0.0861  1.6787 -0.0562
   97SAPE  C214 9703   5.946   1.053   4.970  0.7160 -0.5624  0.0789
   97SAPE  H14R 9704   5.924   1.130   5.045  0.0837  0.5074 -1.1522
   97SAPE  C215 9705   5.960   1.083   4.837  0.4808  0.5524 -0.1631
   97SAPE  H15R 9706   5.974   1.191   4.818  0.8981  0.4983 -0.1805
   97SAPE  C216 9707   5.982   0.994   4.723 -0.0544  0.1250  0.2646
   97SAPE  H16R 9708   5.981   0.885   4.739  0.7052 -0.2960 -2.1199
   97SAPE  H16S 9709   6.075   1.019   4.667 -0.4432 -1.1118 -0.9994
   97SAPE  C217 9710   5.879   1.030   4.611  0.0281  0.0809  0.4780
   97SAPE  H17R 9711   5.924   1.020   4.510  0.6135  2.7955  0.3730
   97SAPE  H17S 9712   5.844   1.136   4.615  0.5369  0.2183  2.9735
   97SAPE  C218 9713   5.749   0.950   4.631 -0.1371 -0.0544  0.6843
   97SAPE  H18R 9714   5.701   0.984   4.725  1.9131 -1.1127  2.1881
   97SAPE  H18S 9715   5.776   0.843   4.644  2.0717  0.3740  0.0748
   97SAPE  C219 9716   5.659   0.965   4.502  0.7496 -0.2348  0.8086
   97SAPE  H19R 9717   5.716   0.940   4.410 -0.5159 -0.1088 -0.0406
   97SAPE  H19S 9718   5.634   1.073   4.500  1.0785 -0.1422  1.4321
   97SAPE  C220 9719   5.521   0.899   4.517  0.4017 -0.0169 -0.1748
   97SAPE  H20R 9720   5.479   0.917   4.619  2.3810  0.8457  0.5234
   97SAPE  H20S 9721   5.530   0.788   4.509  2.3820  0.1248 -0.2008
   97SAPE  H20T 9722   5.443   0.941   4.450 -2.5492 -0.2694  2.7894
   97SAPE   C33 9723   6.465   0.684   5.687 -0.5957  0.5138 -0.7099
   97SAPE   H3X 9724   6.547   0.610   5.699  0.1965  1.5868  1.0141
   97SAPE   H3Y 9725   6.503   0.786   5.662 -0.1202  0.5908  0.2473
   97SAPE   C34 9726   6.375   0.629   5.576 -0.0028 -0.0047  0.0394
   97SAPE   H4X 9727   6.278   0.680   5.594 -0.0233  0.0862 -0.3258
   97SAPE   H4Y 9728   6.366   0.522   5.604  1.5781 -0.0336  0.5601
   97SAPE   C35 9729   6.426   0.658   5.438  0.4094  0.4782  0.4623
   97SAPE   H5X 9730   6.525   0.610   5.417 -1.0096 -1.6798 -1.8935
   97SAPE   H5Y 9731   6.445   0.767   5.431 -0.5396  0.6492  0.4558
   97SAPE   C36 9732   6.321   0.619   5.330  0.0186  0.2146  0.5553
   97SAPE   H6X 9733   6.227   0.667   5.365 -0.2417 -0.3228  0.6113
   97SAPE   H6Y 9734   6.307   0.509   5.339  0.6535  0.1028  0.2306
   97SAPE   C37 9735   6.367   0.662   5.190 -0.1129 -0.5056  1.4712
   97SAPE   H7X 9736   6.465   0.614   5.171  0.5374  1.9768 -2.7502
   97SAPE   H7Y 9737   6.376   0.773   5.196 -4.1132  0.0866 -0.2946
   97SAPE   C38 9738   6.275   0.634   5.071  0.5230  0.3210 -0.0073
   97SAPE   H8X 9739   6.174   0.647   5.114  0.2771 -0.7722 -0.2227
   97SAPE   H8Y 9740   6.286   0.527   5.043 -1.1833  0.2919 -0.6951
   97SAPE   C39 9741   6.315   0.716   4.951  0.0899  0.4341  0.0548
   97SAPE   H9X 9742   6.421   0.691   4.929 -0.0610 -0.9276  0.7122
   97SAPE   H9Y 9743   6.307   0.826   4.960  1.2465  0.5132  0.2522
   97SAPE  C310 9744   6.237   0.676   4.826 -0.6800  0.4362  0.3515
   97SAPE  H10X 9745   6.130   0.700   4.843 -0.8891 -0.6345  0.6219
   97SAPE  H10Y 9746   6.239   0.565   4.818 -1.4618  0.4169  0.3825
   97SAPE  C311 9747   6.283   0.752   4.690 -0.3604  0.8319 -0.3491
   97SAPE  H11X 9748   6.393   0.738   4.677 -1.0470 -2.6708 -4.9742
   97SAPE  H11Y 9749   6.253   0.859   4.688 -2.2743  0.3313 -0.4836
   97SAPE  C312 9750   6.219   0.676   4.575  0.2006 -0.5106 -1.1022
   97SAPE  H12X 9751   6.117   0.720   4.572  0.3515 -0.0525  0.1174
   97SAPE  H12Y 9752   6.210   0.569   4.603 -1.0053  0.3922  2.4268
   97SAPE  C313 9753   6.291   0.695   4.444 -0.6084 -0.4599  0.6912
   97SAPE  H13X 9754   6.312   0.595   4.398 -0.9049 -0.0955 -0.2718
   97SAPE  H13Y 9755   6.389   0.746   4.454 -1.6633  1.7558  0.1843
   97SAPE  C314 9756   6.210   0.781   4.344 -0.1282  0.2120 -0.3115
   97SAPE  H14X 9757   6.111   0.731   4.340  0.7661 -1.7270  0.4932
   97SAPE  H14Y 9758   6.257   0.779   4.244 -1.9211 -0.8708 -1.1800
   97SAPE  C315 9759   6.196   0.930   4.388 -0.0364 -0.2474  0.0578
   97SAPE  H15X 9760   6.298   0.965   4.414 -0.2178 -0.0936  0.5801
   97SAPE  H15Y 9761   6.126   0.931   4.474  1.4946  1.8255  1.3827
   97SAPE  C316 9762   6.134   1.024   4.281  0.2646 -0.3223  0.1008
   97SAPE  H16X 9763   6.032   0.984   4.263  0.1839  0.1792 -0.6003
   97SAPE  H16Y 9764   6.185   1.005   4.184 -1.0168  0.0249 -0.6601
   97SAPE  C317 9765   6.119   1.175   4.301  0.2261  0.0848  0.9019
   97SAPE  H17X 9766   6.212   1.228   4.274  1.1701  0.9163  5.0076
   97SAPE  H17Y 9767   6.089   1.189   4.407 -0.9825 -0.0674  0.5967
   97SAPE  C318 9768   6.012   1.248   4.216  0.0911 -0.2359  0.7231
   97SAPE  H18X 9769   6.048   1.255   4.111  0.2137  1.0105  0.8314
   97SAPE  H18Y 9770   5.995   1.353   4.247 -1.1881  0.6617 -2.5914
   97SAPE  H18Z 9771   5.921   1.185   4.206 -0.0912  0.3079 -1.6827
   98SAPE     N 9772   4.851   0.229   6.609  0.0197 -0.2526  0.3281
   98SAPE   HN1 9773   4.809   0.188   6.523 -0.1193  0.3947  0.0812
   98SAPE   HN2 9774   4.839   0.156   6.682 -0.9556  0.3657  0.8090
   98SAPE   HN3 9775   4.804   0.318   6.634  1.5340  1.3882 -2.1795
   98SAPE   C12 9776   5.002   0.245   6.596  0.1595  0.2744 -0.1121
   98SAPE  H12A 9777   5.048   0.260   6.696  2.6584 -2.0273 -0.7905
   98SAPE  H12B 9778   5.021   0.330   6.527 -0.5770  0.5914  0.0649
   98SAPE   C11 9779   5.063   0.115   6.532  0.0371  0.2130 -0.2068
   98SAPE  H11A 9780   5.028   0.032   6.598 -0.8325  1.5520  1.0612
   98SAPE  H11B 9781   5.173   0.127   6.539  0.2291  0.8118 -3.0201
   98SAPE     P 9782   5.060  -0.049   6.335  0.2380  0.4893  0.2412
   98SAPE   O13 9783   5.170  -0.106   6.412 -0.2352 -0.8150 -0.2647
   98SAPE   O14 9784   4.929  -0.121   6.342 -0.2244 -0.0230 -0.3486
   98SAPE   O12 9785   5.025   0.091   6.398  0.1109  0.2554 -0.0824
   98SAPE   O11 9786   5.111  -0.028   6.188 -0.2029  0.2727  0.1561
   98SAPE    C1 9787   5.215   0.070   6.165 -0.5026 -0.4782 -0.0913
   98SAPE    HA 9788   5.307   0.047   6.223 -0.0819 -0.7897 -0.8612
   98SAPE    HB 9789   5.240   0.056   6.058 -1.6167  0.8844 -0.5561
   98SAPE    C2 9790   5.176   0.219   6.187  0.0902  0.0501  0.7065
   98SAPE    HS 9791   5.173   0.245   6.295  0.4031  1.6424  0.3486
   98SAPE   O21 9792   5.043   0.244   6.137  0.1146 -0.3782 -0.4188
   98SAPE   C21 9793   4.993   0.353   6.182  0.0021  0.2870  0.2962
   98SAPE   O22 9794   5.049   0.434   6.254  0.4397  0.3383 -1.2470
   98SAPE   C22 9795   4.846   0.360   6.141 -1.0475 -0.7373 -0.0158
   98SAPE   H2R 9796   4.832   0.352   6.031  1.1882 -3.0291 -0.2298
   98SAPE   H2S 9797   4.796   0.267   6.177 -1.6585 -0.9276 -1.2976
   98SAPE    C3 9798   5.281   0.304   6.114  0.3494  0.2209 -0.4694
   98SAPE    HX 9799   5.377   0.281   6.165 -0.4121  0.5162  1.1511
   98SAPE    HY 9800   5.267   0.413   6.130  1.5733  0.0701  2.0970
   98SAPE   O31 9801   5.301   0.262   5.982  0.0763  0.1322 -0.3345
   98SAPE   C31 9802   5.228   0.330   5.889 -0.2474 -0.5881  0.2706
   98SAPE   O32 9803   5.148   0.419   5.917  0.7955 -0.2901 -0.5269
   98SAPE   C32 9804   5.261   0.286   5.751  0.2963 -0.5461 -0.2666
   98SAPE   H2X 9805   5.256   0.175   5.760  2.1054 -0.7733 -1.6112
   98SAPE   H2Y 9806   5.366   0.309   5.724 -0.0706 -1.4218 -2.7478
   98SAPE   C23 9807   4.770   0.487   6.184 -0.3355  0.8754 -0.1276
   98SAPE   H3R 9808   4.838   0.567   6.147  1.7524 -1.3674 -1.4102
   98SAPE   H3S 9809   4.775   0.506   6.293 -1.1557  0.9775 -0.1020
   98SAPE   C24 9810   4.631   0.501   6.120 -0.0417 -0.6124 -0.8445
   98SAPE   H4R 9811   4.645   0.509   6.011  2.1754  1.2252 -0.4896
   98SAPE   H4S 9812   4.586   0.596   6.154  0.9099  0.7922 -3.2725
   98SAPE   C25 9813   4.534   0.394   6.164  0.0229 -0.0286  0.3298
   98SAPE   H5R 9814   4.551   0.343   6.260  0.7122 -3.3730 -1.4029
   98SAPE   C26 9815   4.461   0.320   6.070 -0.8476 -0.1065 -0.4681
   98SAPE   H6R 9816   4.398   0.243   6.117  1.4496 -1.2573  0.8501
   98SAPE   C27 9817   4.415   0.352   5.934  0.5452 -0.0646 -0.1366
   98SAPE   H7R 9818   4.494   0.328   5.859  0.2889 -2.0889  0.1943
   98SAPE   H7S 9819   4.415   0.463   5.920  0.6850 -0.0534 -0.0494
   98SAPE   C28 9820   4.277   0.305   5.894 -0.3712  0.3927 -0.1158
   98SAPE   H8R 9821   4.222   0.264   5.980 -0.3500 -0.2252 -0.3899
   98SAPE   C29 9822   4.226   0.298   5.765  0.0872 -0.0421 -0.2189
   98SAPE   H9R 9823   4.136   0.239   5.742 -0.2795 -0.8241  2.7252
   98SAPE  C210 9824   4.298   0.344   5.644  0.2439  0.1055  0.2699
   98SAPE  H10R 9825   4.286   0.264   5.567  0.7036 -1.5471  1.8480
   98SAPE  H10S 9826   4.408   0.337   5.659  0.5000  2.1517 -0.4029
   98SAPE  C211 9827   4.268   0.478   5.583  0.5880 -0.4964  0.3449
   98SAPE  H11R 9828   4.270   0.557   5.659 -0.2435  1.9802 -2.0224
   98SAPE  C212 9829   4.213   0.496   5.466 -0.0692 -0.1569 -0.1795
   98SAPE  H12R 9830   4.186   0.600   5.443  1.2138  0.9187  2.6611
   98SAPE  C213 9831   4.180   0.397   5.362  0.8589  1.0458 -0.6062
   98SAPE  H13R 9832   4.096   0.421   5.294 -0.1093 -1.2045 -0.3238
   98SAPE  H13S 9833   4.157   0.295   5.401  0.4614  0.5689 -2.0357
   98SAPE  C214 9834   4.312   0.373   5.292 -0.3276  0.2779 -0.3655
   98SAPE  H14R 9835   4.394   0.361   5.364  0.4414  2.1436 -0.8584
   98SAPE  C215 9836   4.333   0.359   5.154 -0.2803 -0.6549  0.0783
   98SAPE  H15R 9837   4.433   0.331   5.117 -0.9085 -1.3840 -1.1371
   98SAPE  C216 9838   4.228   0.370   5.046  0.3786 -0.0248  0.6601
   98SAPE  H16R 9839   4.250   0.461   4.986 -0.5575  0.4378  0.9961
   98SAPE  H16S 9840   4.125   0.387   5.084  0.4054 -1.7507  1.5647
   98SAPE  C217 9841   4.214   0.241   4.956  0.1200 -0.1394 -0.2808
   98SAPE  H17R 9842   4.114   0.218   4.912 -0.6326  2.0242  0.1705
   98SAPE  H17S 9843   4.231   0.164   5.034 -0.2393  0.3137  0.2526
   98SAPE  C218 9844   4.330   0.235   4.854 -0.3970 -0.0772 -0.5395
   98SAPE  H18R 9845   4.364   0.129   4.849 -1.2754 -0.3626 -0.6761
   98SAPE  H18S 9846   4.416   0.295   4.890 -1.6729  0.5139  1.6756
   98SAPE  C219 9847   4.296   0.275   4.710  0.3194  0.7648  0.2083
   98SAPE  H19R 9848   4.242   0.189   4.664  1.4804 -0.4456  1.0044
   98SAPE  H19S 9849   4.390   0.293   4.653  1.2833 -0.0695  1.4613
   98SAPE  C220 9850   4.206   0.401   4.696 -0.3738 -0.2503 -0.2164
   98SAPE  H20R 9851   4.119   0.398   4.765 -0.1434 -1.1374  0.0531
   98SAPE  H20S 9852   4.160   0.403   4.595 -0.0045  0.3670 -0.3770
   98SAPE  H20T 9853   4.266   0.494   4.708  0.1466 -0.6527  0.3180
   98SAPE   C33 9854   5.158   0.348   5.648 -0.1654 -0.4741  0.1924
   98SAPE   H3X 9855   5.162   0.459   5.650 -1.7262 -0.3875 -0.1116
   98SAPE   H3Y 9856   5.056   0.308   5.669 -1.5943  1.6922 -2.1103
   98SAPE   C34 9857   5.194   0.299   5.511  0.1107  0.0468  0.2098
   98SAPE   H4X 9858   5.183   0.188   5.507 -1.1093  0.1456  0.4987
   98SAPE   H4Y 9859   5.301   0.323   5.495 -0.2612  0.5778 -1.7090
   98SAPE   C35 9860   5.105   0.354   5.395  0.2028  0.2314  1.1048
   98SAPE   H5X 9861   5.119   0.464   5.392  0.9837  0.2434  3.2152
   98SAPE   H5Y 9862   5.001   0.329   5.423  0.5023 -0.3968  1.6891
   98SAPE   C36 9863   5.127   0.290   5.265 -0.1130  0.0538  0.1067
   98SAPE   H6X 9864   5.147   0.181   5.278  0.4721 -0.2001 -2.3868
   98SAPE   H6Y 9865   5.225   0.324   5.226 -1.1247  0.4780 -2.2203
   98SAPE   C37 9866   5.007   0.311   5.171  0.6020  0.4158 -0.5138
   98SAPE   H7X 9867   4.982   0.420   5.169 -1.4880  0.0477  1.2790
   98SAPE   H7Y 9868   4.920   0.259   5.216  1.9440  0.6334  2.5309
   98SAPE   C38 9869   5.036   0.259   5.027  0.4081  0.1709 -0.4154
   98SAPE   H8X 9870   5.051   0.150   5.046  1.5977  0.4959  0.6821
   98SAPE   H8Y 9871   5.133   0.302   4.995 -0.0124  0.1713 -1.7537
   98SAPE   C39 9872   4.931   0.286   4.919 -0.2629  0.1870  0.5847
   98SAPE   H9X 9873   4.933   0.395   4.901  0.8781  0.4506  2.0487
   98SAPE   H9Y 9874   4.830   0.249   4.946 -0.6837 -1.9199 -3.1290
   98SAPE  C310 9875   4.971   0.225   4.780  0.3152  0.0030  0.2362
   98SAPE  H10X 9876   4.974   0.114   4.786  1.3521 -0.0621 -1.0907
   98SAPE  H10Y 9877   5.070   0.266   4.748  0.4911  0.1189  0.9164
   98SAPE  C311 9878   4.860   0.250   4.673 -0.2977  0.3797  0.2770
   98SAPE  H11X 9879   4.869   0.357   4.645 -0.5810  0.4057  0.2849
   98SAPE  H11Y 9880   4.768   0.233   4.733 -1.4147  0.1506 -1.4406
   98SAPE  C312 9881   4.860   0.164   4.553  0.9045 -0.7454 -0.1867
   98SAPE  H12X 9882   4.861   0.056   4.580  2.6838 -0.4288  1.2084
   98SAPE  H12Y 9883   4.954   0.174   4.493  0.4844  2.3260 -0.4740
   98SAPE  C313 9884   4.741   0.196   4.457 -0.0301  0.0524  0.4848
   98SAPE  H13X 9885   4.753   0.302   4.426 -0.4063  0.2637  1.0505
   98SAPE  H13Y 9886   4.637   0.190   4.496 -0.4754 -0.2238 -0.6830
   98SAPE  C314 9887   4.739   0.115   4.325 -0.4715 -0.1245 -0.8958
   98SAPE  H14X 9888   4.685   0.018   4.330 -0.8378  0.1400  0.7965
   98SAPE  H14Y 9889   4.844   0.091   4.296  0.1695  0.1323  1.0409
   98SAPE  C315 9890   4.664   0.198   4.218  0.2721  0.1118 -0.8931
   98SAPE  H15X 9891   4.728   0.286   4.193  1.1032  1.7895  5.3890
   98SAPE  H15Y 9892   4.573   0.239   4.267 -0.7684 -0.1178 -2.5617
   98SAPE  C316 9893   4.628   0.120   4.096 -0.4008 -0.3178  0.5014
   98SAPE  H16X 9894   4.559   0.181   4.034 -1.7717 -2.2758  0.0135
   98SAPE  H16Y 9895   4.579   0.024   4.121 -0.1314 -0.8559 -0.9086
   98SAPE  C317 9896   4.753   0.097   4.020 -0.4105  0.0155 -0.0029
   98SAPE  H17X 9897   4.822   0.023   4.066  0.7533 -0.2497 -2.0716
   98SAPE  H17Y 9898   4.807   0.193   4.004  0.7900 -0.2451  2.1060
   98SAPE  C318 9899   4.735   0.036   3.879 -0.6728 -0.5698 -0.2091
   98SAPE  H18X 9900   4.828  -0.013   3.843 -0.6389  0.0105 -0.9419
   98SAPE  H18Y 9901   4.712   0.117   3.806  0.8774 -0.1982 -0.3298
   98SAPE  H18Z 9902   4.651  -0.036   3.874 -1.6002  0.4690 -0.1231
   99SAPE     N 9903   5.385   6.555   6.531 -0.3442  0.4536 -0.6067
   99SAPE   HN1 9904   5.363   6.469   6.586  1.4416 -0.7754 -1.7079
   99SAPE   HN2 9905   5.404   6.630   6.601  0.3452 -0.3917  0.1305
   99SAPE   HN3 9906   5.294   6.578   6.486 -1.3561  0.7322  1.4445
   99SAPE   C12 9907   5.490   6.524   6.429 -0.6284  0.6068  0.4322
   99SAPE  H12A 9908   5.452   6.439   6.367 -1.1548  1.5381 -0.5556
   99SAPE  H12B 9909   5.578   6.491   6.487 -1.7169  0.2139  1.9367
   99SAPE   C11 9910   5.525   6.646   6.347  0.2212  0.4226  0.4150
   99SAPE  H11A 9911   5.435   6.678   6.291  0.9030  1.3032 -0.2156
   99SAPE  H11B 9912   5.597   6.619   6.267  0.5802  0.9169  0.5643
   99SAPE     P 9913   5.733   6.740   6.488  0.3530  0.2243  0.1120
   99SAPE   O13 9914   5.788   6.872   6.525  0.4192  0.9173 -0.1917
   99SAPE   O14 9915   5.732   6.649   6.607 -0.2310  0.0125  0.2269
   99SAPE   O12 9916   5.587   6.746   6.429  0.4873  0.2262  0.1166
   99SAPE   O11 9917   5.822   6.668   6.381  0.2448  0.4089  0.1821
   99SAPE    C1 9918   5.904   6.733   6.287  0.3399 -0.0989 -0.1197
   99SAPE    HA 9919   5.902   6.844   6.296 -1.8265 -0.1890  1.1725
   99SAPE    HB 9920   6.009   6.703   6.309  0.7051  1.8164  0.9703
   99SAPE    C2 9921   5.884   6.690   6.148  0.0446 -0.2259 -0.0509
   99SAPE    HS 9922   5.966   6.732   6.085 -0.1680  4.5707  2.4395
   99SAPE   O21 9923   5.761   6.737   6.094 -0.1453 -0.4593  0.3216
   99SAPE   C21 9924   5.765   6.868   6.066  0.6467  0.0036 -0.9094
   99SAPE   O22 9925   5.857   6.946   6.076 -0.1261 -0.1502  0.0185
   99SAPE   C22 9926   5.631   6.910   6.021  0.0407 -0.0650  0.2238
   99SAPE   H2R 9927   5.560   6.888   6.103  2.3587 -3.3897  1.5396
   99SAPE   H2S 9928   5.641   7.018   6.000 -0.1635 -0.2068 -0.6394
   99SAPE    C3 9929   5.906   6.544   6.126 -0.1945  0.4209 -0.5238
   99SAPE    HX 9930   5.829   6.486   6.180 -0.5524  0.9485 -0.4551
   99SAPE    HY 9931   6.004   6.518   6.171 -0.0426  1.6900 -0.0576
   99SAPE   O31 9932   5.898   6.518   5.985  0.3906  0.3579  0.8204
   99SAPE   C31 9933   5.858   6.396   5.939  0.0133 -0.8138  0.0106
   99SAPE   O32 9934   5.831   6.305   6.013 -0.6987 -0.3451 -0.2224
   99SAPE   C32 9935   5.827   6.412   5.795  0.1923  0.1354  0.1623
   99SAPE   H2X 9936   5.900   6.487   5.758  1.3675 -0.3536  1.4354
   99SAPE   H2Y 9937   5.729   6.463   5.791  0.8117  1.2932 -1.4834
   99SAPE   C23 9938   5.583   6.831   5.895  0.0949 -0.4127 -0.5494
   99SAPE   H3R 9939   5.491   6.878   5.852 -1.0033  0.4595  2.5222
   99SAPE   H3S 9940   5.567   6.727   5.930 -0.8599  0.4165  1.6323
   99SAPE   C24 9941   5.695   6.801   5.790  0.0228  0.1938  0.1635
   99SAPE   H4R 9942   5.673   6.725   5.712  1.9834  1.7679 -2.0727
   99SAPE   H4S 9943   5.780   6.754   5.844  1.4237 -0.2663 -2.2904
   99SAPE   C25 9944   5.732   6.939   5.736 -0.2121 -0.0510  0.2931
   99SAPE   H5R 9945   5.808   6.997   5.791  0.4485  0.3206 -0.9580
   99SAPE   C26 9946   5.691   6.986   5.616  0.6429  0.1143 -0.2170
   99SAPE   H6R 9947   5.706   7.092   5.591  1.1663  0.0690 -0.1027
   99SAPE   C27 9948   5.594   6.914   5.514 -0.9510  0.2591  0.2643
   99SAPE   H7R 9949   5.535   6.983   5.449  1.2069 -0.3499 -2.5271
   99SAPE   H7S 9950   5.515   6.867   5.576 -0.6512 -0.9639 -0.2618
   99SAPE   C28 9951   5.673   6.809   5.431 -1.0317 -0.5012 -0.5816
   99SAPE   H8R 9952   5.720   6.725   5.485  0.6802 -0.8214 -2.4625
   99SAPE   C29 9953   5.677   6.794   5.302  0.6985 -0.0691 -0.1225
   99SAPE   H9R 9954   5.732   6.714   5.251  0.3179  0.9855 -2.3541
   99SAPE  C210 9955   5.588   6.881   5.205 -0.1038 -0.3290  0.3074
   99SAPE  H10R 9956   5.636   6.897   5.106  0.5199 -2.1393  0.2755
   99SAPE  H10S 9957   5.571   6.980   5.251  1.8038  1.2758 -2.1969
   99SAPE  C211 9958   5.450   6.811   5.186  0.5428 -0.4361  0.0368
   99SAPE  H11R 9959   5.391   6.793   5.277  0.4529 -0.4296 -0.0200
   99SAPE  C212 9960   5.400   6.779   5.066 -0.7292  0.2708 -0.0343
   99SAPE  H12R 9961   5.305   6.725   5.057  1.3869 -3.6330 -1.5291
   99SAPE  C213 9962   5.470   6.785   4.925 -0.0209  0.1601  0.0377
   99SAPE  H13R 9963   5.578   6.761   4.935  0.1010  0.5977 -0.2281
   99SAPE  H13S 9964   5.467   6.889   4.888  0.0811 -0.2978 -1.3177
   99SAPE  C214 9965   5.397   6.682   4.833  0.2713 -0.3326 -0.5749
   99SAPE  H14R 9966   5.426   6.576   4.843 -0.0633 -0.3240  0.5930
   99SAPE  C215 9967   5.309   6.707   4.733 -0.0144  0.7101  0.8159
   99SAPE  H15R 9968   5.257   6.628   4.677 -0.4119  2.2363 -1.0706
   99SAPE  C216 9969   5.265   6.849   4.703  0.4810  0.0886  1.0964
   99SAPE  H16R 9970   5.286   6.914   4.790 -3.4358 -1.0322  3.0931
   99SAPE  H16S 9971   5.155   6.838   4.704  0.2739  1.4196 -0.7350
   99SAPE  C217 9972   5.317   6.911   4.570 -0.3903  0.4425 -0.1248
   99SAPE  H17R 9973   5.426   6.928   4.579 -0.1819 -1.6524  1.8765
   99SAPE  H17S 9974   5.278   7.015   4.572 -2.5094 -0.3132  0.1069
   99SAPE  C218 9975   5.265   6.845   4.439  0.8767  0.1943  0.5284
   99SAPE  H18R 9976   5.155   6.854   4.434  0.7877 -0.6183  0.8960
   99SAPE  H18S 9977   5.283   6.735   4.444 -2.6675 -0.5305 -0.3125
   99SAPE  C219 9978   5.322   6.899   4.307 -0.0556  0.6805 -0.0627
   99SAPE  H19R 9979   5.428   6.867   4.307 -0.4376 -0.6881  0.5200
   99SAPE  H19S 9980   5.318   7.010   4.311  0.4611  0.7118 -0.3826
   99SAPE  C220 9981   5.262   6.847   4.175  0.0115  0.0963  0.2366
   99SAPE  H20R 9982   5.305   6.901   4.088 -0.5608 -0.1709 -0.2182
   99SAPE  H20S 9983   5.154   6.870   4.184  0.7292  3.1743  3.2484
   99SAPE  H20T 9984   5.271   6.737   4.159  2.4695  0.3519 -0.7133
   99SAPE   C33 9985   5.831   6.275   5.715  0.2696  0.6486 -0.1817
   99SAPE   H3X 9986   5.784   6.296   5.616  0.9882  0.6471 -0.5299
   99SAPE   H3Y 9987   5.773   6.193   5.761 -0.9145  0.9234 -1.1428
   99SAPE   C34 9988   5.977   6.222   5.695  0.3583 -0.0539  0.1027
   99SAPE   H4X 9989   6.027   6.216   5.794  0.8642  1.3321 -0.0471
   99SAPE   H4Y 9990   6.035   6.300   5.643  3.6444 -1.8314  0.8534
   99SAPE   C35 9991   5.977   6.083   5.629 -0.6762 -0.5594  0.1606
   99SAPE   H5X 9992   5.924   6.085   5.531 -0.6014  0.3015  0.1219
   99SAPE   H5Y 9993   5.925   6.010   5.694  0.2271 -0.8469  0.5799
   99SAPE   C36 9994   6.120   6.034   5.597 -0.0368 -0.0117 -0.6376
   99SAPE   H6X 9995   6.109   5.930   5.559  2.6332 -2.1864  3.7259
   99SAPE   H6Y 9996   6.181   6.017   5.689  1.4433  0.1171 -1.5663
   99SAPE   C37 9997   6.197   6.116   5.497  0.2582  0.4157 -0.7407
   99SAPE   H7X 9998   6.234   6.203   5.555  1.1232 -1.0389  0.9976
   99SAPE   H7Y 9999   6.124   6.149   5.420 -3.0663 -0.3247  1.8582
   99SAPE   C3810000   6.316   6.041   5.447  0.7013  0.0731 -0.3126
   99SAPE   H8X10001   6.289   5.946   5.395 -0.1218  0.2777 -0.2756
   99SAPE   H8Y10002   6.379   6.010   5.533  0.9379  0.3158 -0.3954
   99SAPE   C3910003   6.390   6.132   5.349 -0.2685 -0.2510  0.0764
   99SAPE   H9X10004   6.445   6.207   5.410 -1.8263  0.1324  1.1019
   99SAPE   H9Y10005   6.310   6.191   5.300 -0.1857 -2.0522 -2.3806
   99SAPE  C31010006   6.468   6.058   5.243  0.1232 -0.6741  0.0323
   99SAPE  H10X10007   6.401   5.981   5.200 -2.6431  0.8218  1.3748
   99SAPE  H10Y10008   6.564   6.026   5.287 -0.1976 -0.3006  1.0333
   99SAPE  C31110009   6.495   6.154   5.129 -0.2350  0.6008 -0.5766
   99SAPE  H11X10010   6.534   6.252   5.163  0.7314 -0.0249  0.1845
   99SAPE  H11Y10011   6.402   6.179   5.073  0.0627 -0.0947 -1.4032
   99SAPE  C31210012   6.595   6.095   5.030  0.3018  0.1477 -0.4287
   99SAPE  H12X10013   6.560   5.993   5.007  0.6529  0.4493 -2.4989
   99SAPE  H12Y10014   6.695   6.078   5.075 -0.2047 -0.8867  0.3364
   99SAPE  C31310015   6.609   6.150   4.889  1.0509 -0.0372  0.7720
   99SAPE  H13X10016   6.507   6.146   4.847  0.0513 -1.8502  3.1486
   99SAPE  H13Y10017   6.667   6.078   4.828 -0.2421 -0.8752  0.5007
   99SAPE  C31410018   6.662   6.299   4.877  0.5091  0.3566  0.2554
   99SAPE  H14X10019   6.738   6.313   4.958 -0.1299 -0.3734  0.9999
   99SAPE  H14Y10020   6.582   6.367   4.913  0.3770 -0.7524  2.1788
   99SAPE  C31510021   6.689   6.336   4.731  0.8176 -0.3403  1.3071
   99SAPE  H15X10022   6.593   6.318   4.678  0.9875 -1.4722  1.3505
   99SAPE  H15Y10023   6.763   6.263   4.691 -0.0050 -0.7839  0.5664
   99SAPE  C31610024   6.733   6.489   4.713  0.0808  0.4626  0.3038
   99SAPE  H16X10025   6.840   6.493   4.743  0.8363 -2.9716 -1.3975
   99SAPE  H16Y10026   6.671   6.554   4.779  0.1042  1.2105 -0.4066
   99SAPE  C31710027   6.738   6.526   4.571  0.2656  0.5876  0.2091
   99SAPE  H17X10028   6.637   6.514   4.527 -0.5069  3.5261  0.9149
   99SAPE  H17Y10029   6.806   6.454   4.521  0.1136  0.0884  0.7079
   99SAPE  C31810030   6.774   6.675   4.546  0.2994  0.8408 -0.1512
   99SAPE  H18X10031   6.692   6.747   4.563  0.6199  0.5356  3.5107
   99SAPE  H18Y10032   6.792   6.674   4.436 -0.2630  0.1257 -0.2442
   99SAPE  H18Z10033   6.869   6.697   4.600  0.1252 -2.2356  1.6809
  100SAPE     N10034   2.160   5.155   6.920 -0.4176 -0.2614 -0.4938
  100SAPE   HN110035   2.259   5.158   6.888 -0.1970  0.1405  0.2054
  100SAPE   HN210036   2.096   5.194   6.849 -0.2140  0.2216 -0.4109
  100SAPE   HN310037   2.151   5.218   7.002 -0.5796 -0.0232 -0.6967
  100SAPE   C1210038   2.127   5.018   6.972  0.1894 -0.6209  1.1857
  100SAPE  H12A10039   2.018   5.025   6.991  0.0880  0.8064  0.2763
  100SAPE  H12B10040   2.176   4.994   7.069  1.4890 -1.6052  0.3229
  100SAPE   C1110041   2.158   4.920   6.853 -1.2240 -0.4309 -0.1107
  100SAPE  H11A10042   2.092   4.941   6.766  1.2186 -0.6201 -2.1309
  100SAPE  H11B10043   2.126   4.820   6.890  0.8950 -1.4608 -0.8844
  100SAPE     P10044   2.386   4.804   6.783  0.0483 -0.0488  0.2133
  100SAPE   O1310045   2.534   4.829   6.805 -0.1812 -0.0082  0.5519
  100SAPE   O1410046   2.332   4.687   6.856  0.4906  0.9822 -0.2188
  100SAPE   O1210047   2.290   4.933   6.810 -0.0151  0.3120  0.2443
  100SAPE   O1110048   2.370   4.786   6.621 -0.0187  0.2324 -0.1910
  100SAPE    C110049   2.245   4.832   6.568  0.3345 -0.2916  0.3304
  100SAPE    HA10050   2.161   4.769   6.605 -0.0081 -0.0344 -0.0083
  100SAPE    HB10051   2.234   4.941   6.589  0.2480 -0.0233 -1.0494
  100SAPE    C210052   2.229   4.829   6.415 -0.0512 -0.0126  0.3303
  100SAPE    HS10053   2.282   4.914   6.365  0.3547 -1.0005 -0.9714
  100SAPE   O2110054   2.087   4.827   6.385  0.0935  0.3149  0.3969
  100SAPE   C2110055   2.021   4.934   6.409  0.2269 -1.2127 -0.2359
  100SAPE   O2210056   2.073   5.046   6.439 -0.5766  0.0238  0.1942
  100SAPE   C2210057   1.874   4.895   6.422 -0.2854  0.3073 -0.2203
  100SAPE   H2R10058   1.850   4.844   6.326  1.6382  1.1425 -1.2129
  100SAPE   H2S10059   1.863   4.822   6.504  0.0252  1.3198  0.7490
  100SAPE    C310060   2.298   4.705   6.355 -0.4254 -0.2045  0.0107
  100SAPE    HX10061   2.242   4.623   6.405 -0.9549  1.0697  1.6099
  100SAPE    HY10062   2.403   4.699   6.389 -0.5659 -1.4447  0.2906
  100SAPE   O3110063   2.276   4.712   6.211 -0.2700 -0.2308 -0.5579
  100SAPE   C3110064   2.305   4.599   6.146  0.6542  0.6539 -0.1242
  100SAPE   O3210065   2.331   4.492   6.204  0.2017 -0.5090 -0.2099
  100SAPE   C3210066   2.299   4.631   6.000 -0.2715 -0.2364 -0.4916
  100SAPE   H2X10067   2.391   4.687   5.971 -1.1918  0.7397 -1.6261
  100SAPE   H2Y10068   2.215   4.694   5.963 -1.3219 -2.3385 -1.8968
  100SAPE   C2310069   1.783   5.020   6.433  0.2235  1.2609 -0.3191
  100SAPE   H3R10070   1.822   5.094   6.505 -0.0159  1.8943 -0.8296
  100SAPE   H3S10071   1.686   4.982   6.473  0.8156 -1.3333 -1.1056
  100SAPE   C2410072   1.749   5.091   6.303  0.0916  0.0093 -0.7003
  100SAPE   H4R10073   1.667   5.159   6.335  0.1077  0.0021 -0.6442
  100SAPE   H4S10074   1.712   5.018   6.228 -0.9826  0.8071 -0.9768
  100SAPE   C2510075   1.859   5.174   6.246  0.7553  0.7520 -0.3635
  100SAPE   H5R10076   1.882   5.265   6.302 -1.0262  1.6501 -1.0277
  100SAPE   C2610077   1.937   5.138   6.141  0.3179  0.0519 -0.0372
  100SAPE   H6R10078   2.013   5.212   6.112  1.8977 -1.8679 -1.0267
  100SAPE   C2710079   1.926   5.015   6.062 -0.2821  0.2018  0.3641
  100SAPE   H7R10080   1.850   5.029   5.982 -1.5154  1.3644  1.6903
  100SAPE   H7S10081   1.862   4.943   6.117 -0.7656  0.4903  0.1882
  100SAPE   C2810082   2.051   4.948   6.005 -0.8480 -0.2586  0.3243
  100SAPE   H8R10083   2.112   4.889   6.076 -1.0523 -2.0736 -0.9311
  100SAPE   C2910084   2.104   4.962   5.880  0.0772  0.6966  0.4482
  100SAPE   H9R10085   2.190   4.899   5.851  0.1824 -0.2315  2.6134
  100SAPE  C21010086   2.040   5.035   5.770  0.4119  0.0932 -0.2927
  100SAPE  H10R10087   1.952   5.092   5.807  0.1548  0.9238 -2.0924
  100SAPE  H10S10088   1.987   4.958   5.710 -0.6745  0.9469 -0.4577
  100SAPE  C21110089   2.140   5.112   5.689  0.6205 -0.2774  0.6713
  100SAPE  H11R10090   2.219   5.165   5.744  1.7523 -0.8698 -0.3466
  100SAPE  C21210091   2.165   5.100   5.556 -0.3487  0.4114  0.1707
  100SAPE  H12R10092   2.246   5.164   5.518 -0.1377 -0.6736 -1.2976
  100SAPE  C21310093   2.093   5.011   5.449  0.5568 -0.7688  0.6342
  100SAPE  H13R10094   1.984   5.020   5.468  0.7070 -2.6276  2.8931
  100SAPE  H13S10095   2.116   4.904   5.471  1.8227 -0.1312  2.7406
  100SAPE  C21410096   2.111   5.055   5.303 -0.2057  0.6164 -0.4482
  100SAPE  H14R10097   2.097   5.164   5.293 -0.1871  0.5246 -1.5704
  100SAPE  C21510098   2.113   4.975   5.192  0.1595 -0.4900 -0.5560
  100SAPE  H15R10099   2.121   5.024   5.094  1.8227 -0.4633 -0.4386
  100SAPE  C21610100   2.094   4.825   5.183 -1.0903 -0.1528 -0.0642
  100SAPE  H16R10101   2.102   4.773   5.281 -0.6040 -1.2929 -0.6854
  100SAPE  H16S10102   2.176   4.783   5.120 -1.1584  0.0740 -0.3075
  100SAPE  C21710103   1.954   4.800   5.124  0.1636 -0.0957  0.9904
  100SAPE  H17R10104   1.884   4.868   5.177 -0.1149  0.6670 -0.2953
  100SAPE  H17S10105   1.928   4.694   5.145  2.1553 -0.6340  0.8892
  100SAPE  C21810106   1.937   4.814   4.969  0.5398  0.2991  0.1021
  100SAPE  H18R10107   1.950   4.724   4.906 -2.7815  0.6551 -1.3322
  100SAPE  H18S10108   2.009   4.890   4.933  0.8025 -0.2474 -0.5476
  100SAPE  C21910109   1.802   4.878   4.931 -0.1286  0.4356  0.7710
  100SAPE  H19R10110   1.800   4.983   4.967  0.8146 -0.1836  2.7772
  100SAPE  H19S10111   1.723   4.823   4.986  0.4628 -1.4643 -0.1666
  100SAPE  C22010112   1.755   4.868   4.780 -0.1063 -0.1420 -0.2550
  100SAPE  H20R10113   1.810   4.941   4.716  3.6648 -1.7026  0.9496
  100SAPE  H20S10114   1.647   4.894   4.770 -0.4173 -1.9911 -3.1361
  100SAPE  H20T10115   1.772   4.770   4.732  2.6826  0.1722 -0.0441
  100SAPE   C3310116   2.279   4.509   5.918 -0.3429 -0.3958 -0.3347
  100SAPE   H3X10117   2.191   4.454   5.958  0.0937 -1.1105 -0.3385
  100SAPE   H3Y10118   2.369   4.445   5.922 -0.2917 -0.3309 -0.4288
  100SAPE   C3410119   2.258   4.544   5.771  1.1338 -0.5792 -0.3549
  100SAPE   H4X10120   2.181   4.625   5.762 -0.5158 -1.8231  1.5780
  100SAPE   H4Y10121   2.221   4.461   5.708 -1.7112 -0.8574  1.4785
  100SAPE   C3510122   2.385   4.600   5.705 -0.2425 -0.0584 -0.1890
  100SAPE   H5X10123   2.461   4.519   5.715 -0.3093 -0.0732  0.2351
  100SAPE   H5Y10124   2.431   4.687   5.757  1.3352 -0.8483 -0.1795
  100SAPE   C3610125   2.358   4.639   5.560 -0.1338  0.3393  0.0325
  100SAPE   H6X10126   2.447   4.694   5.522 -0.8465  1.8980  0.5632
  100SAPE   H6Y10127   2.277   4.712   5.540 -0.9095 -0.6650 -0.5900
  100SAPE   C3710128   2.356   4.514   5.460  0.2311 -0.3104  0.5492
  100SAPE   H7X10129   2.259   4.463   5.481 -0.5785  0.3952 -1.2125
  100SAPE   H7Y10130   2.438   4.441   5.477  0.0583 -0.9086 -1.0149
  100SAPE   C3810131   2.338   4.565   5.313  0.7602  0.5779 -0.5877
  100SAPE   H8X10132   2.420   4.635   5.289 -0.0636  1.5256 -0.6887
  100SAPE   H8Y10133   2.241   4.619   5.305  0.1774 -0.6160 -2.0440
  100SAPE   C3910134   2.335   4.452   5.212 -0.8127  0.4173  0.2436
  100SAPE   H9X10135   2.261   4.375   5.240  0.8450 -0.9288  1.1429
  100SAPE   H9Y10136   2.436   4.406   5.206 -1.3407 -0.7668  0.2595
  100SAPE  C31010137   2.310   4.497   5.068 -0.0919 -0.3358  0.1321
  100SAPE  H10X10138   2.371   4.590   5.057  1.3780 -0.4985  4.8283
  100SAPE  H10Y10139   2.206   4.534   5.062  0.5598  1.4846 -1.0687
  100SAPE  C31110140   2.340   4.386   4.960  0.4228  0.2860  0.1278
  100SAPE  H11X10141   2.275   4.397   4.871 -0.5658  2.4610  1.0255
  100SAPE  H11Y10142   2.316   4.291   5.013 -0.3399  0.1921 -0.3708
  100SAPE  C31210143   2.487   4.389   4.921  0.5146  0.1970 -0.2996
  100SAPE  H12X10144   2.531   4.392   5.023 -0.8587 -0.1064  0.3243
  100SAPE  H12Y10145   2.512   4.487   4.874  0.5895  0.7657  0.8692
  100SAPE  C31310146   2.549   4.271   4.842  0.5988 -0.3725 -0.5296
  100SAPE  H13X10147   2.480   4.237   4.762  0.4873 -2.0584  0.2440
  100SAPE  H13Y10148   2.568   4.188   4.913  0.3957 -0.1190 -0.1725
  100SAPE  C31410149   2.682   4.306   4.766  0.0354 -0.5605  0.9743
  100SAPE  H14X10150   2.666   4.398   4.706 -1.1362 -0.4705  1.3888
  100SAPE  H14Y10151   2.712   4.224   4.698  1.9090 -0.2466  1.3561
  100SAPE  C31510152   2.797   4.317   4.862  0.2206 -0.3978 -0.0607
  100SAPE  H15X10153   2.794   4.226   4.926 -1.1555 -0.8102 -0.6806
  100SAPE  H15Y10154   2.776   4.401   4.932 -2.3225 -1.0706  0.0864
  100SAPE  C31610155   2.938   4.316   4.807 -0.2250 -0.3027 -0.2087
  100SAPE  H16X10156   2.963   4.418   4.770  0.5643 -0.1660  0.6669
  100SAPE  H16Y10157   2.934   4.248   4.719 -0.5000 -0.4118 -0.1143
  100SAPE  C31710158   3.048   4.275   4.900 -0.0927  0.2372  0.1077
  100SAPE  H17X10159   3.025   4.179   4.952  1.6390  0.0792  0.6332
  100SAPE  H17Y10160   3.036   4.343   4.988 -0.4717 -0.4762  0.6232
  100SAPE  C31810161   3.189   4.291   4.845 -0.0589 -0.2390  0.8586
  100SAPE  H18X10162   3.265   4.251   4.917 -1.5889 -2.7234  1.2133
  100SAPE  H18Y10163   3.203   4.396   4.812  0.2866 -0.7095 -0.5872
  100SAPE  H18Z10164   3.199   4.237   4.749 -0.4832  3.0194 -1.1662
  101SAPE     N10165   1.553   5.197   7.536  0.4624 -0.3669 -0.0307
  101SAPE   HN110166   1.619   5.253   7.478  2.2977 -1.0791  1.2837
  101SAPE   HN210167   1.588   5.182   7.633  2.1930 -3.7212 -1.0331
  101SAPE   HN310168   1.555   5.101   7.496  2.8176 -0.6965  0.7156
  101SAPE   C1210169   1.422   5.266   7.526 -0.0901 -0.1627  0.4724
  101SAPE  H12A10170   1.437   5.363   7.578  0.2655  0.7060 -1.1727
  101SAPE  H12B10171   1.338   5.213   7.575  0.0726 -0.3497  0.5498
  101SAPE   C1110172   1.381   5.286   7.376 -0.7434 -0.5186 -0.6305
  101SAPE  H11A10173   1.292   5.352   7.380  0.9332  1.8757 -0.5527
  101SAPE  H11B10174   1.352   5.190   7.328  0.9527 -1.3007 -0.1738
  101SAPE     P10175   1.495   5.493   7.263 -0.6219 -0.2649 -0.0277
  101SAPE   O1310176   1.471   5.575   7.383  0.2790 -0.5955  0.5104
  101SAPE   O1410177   1.627   5.515   7.186 -0.1657 -0.2460 -0.6116
  101SAPE   O1210178   1.487   5.339   7.301  0.2757 -0.8273  0.1658
  101SAPE   O1110179   1.375   5.509   7.160  0.4789  0.0615  0.1543
  101SAPE    C110180   1.361   5.430   7.039 -0.4527 -0.4862  0.0321
  101SAPE    HA10181   1.374   5.325   7.072  0.5603 -0.1771  0.6459
  101SAPE    HB10182   1.254   5.427   7.007 -0.3786 -0.7487 -0.1966
  101SAPE    C210183   1.450   5.463   6.924 -0.0956 -0.6975  0.1031
  101SAPE    HS10184   1.549   5.435   6.967 -0.7185  0.3624  2.4208
  101SAPE   O2110185   1.439   5.604   6.901 -0.4331  0.5235 -0.4391
  101SAPE   C2110186   1.552   5.656   6.858 -0.1804 -0.4376 -0.5141
  101SAPE   O2210187   1.662   5.605   6.857 -0.5566 -0.4605  0.3348
  101SAPE   C2210188   1.519   5.795   6.793 -0.3266 -0.8390  0.0347
  101SAPE   H2R10189   1.479   5.784   6.690  0.8534 -0.5860 -0.4744
  101SAPE   H2S10190   1.446   5.849   6.857  0.8993  0.6502  0.2416
  101SAPE    C310191   1.408   5.382   6.799 -1.6379 -0.1010 -0.6955
  101SAPE    HX10192   1.310   5.417   6.759 -2.1151 -0.8654 -0.2241
  101SAPE    HY10193   1.391   5.276   6.830  0.2643 -0.7707 -1.7844
  101SAPE   O3110194   1.512   5.383   6.698  0.3739 -0.1011  0.7593
  101SAPE   C3110195   1.517   5.466   6.604  0.4633 -0.3009  0.1892
  101SAPE   O3210196   1.434   5.552   6.576  0.7653 -0.1516 -0.0353
  101SAPE   C3210197   1.662   5.459   6.539  0.5672 -0.2763 -0.9924
  101SAPE   H2X10198   1.706   5.360   6.564  1.8285  0.3495 -0.6499
  101SAPE   H2Y10199   1.731   5.518   6.603 -0.9274 -1.2420  1.6895
  101SAPE   C2310200   1.657   5.877   6.784  0.2034  0.9616  0.2584
  101SAPE   H3R10201   1.735   5.824   6.725 -0.1599  1.3104 -0.5480
  101SAPE   H3S10202   1.698   5.897   6.886  2.9659  0.9706 -0.7565
  101SAPE   C2410203   1.640   6.011   6.715 -0.5483  0.9664 -0.1197
  101SAPE   H4R10204   1.553   6.056   6.766 -0.6722 -0.2285  0.7491
  101SAPE   H4S10205   1.597   6.000   6.613 -1.1834  0.9090  0.1517
  101SAPE   C2510206   1.767   6.083   6.720  0.1284 -0.2838  0.3526
  101SAPE   H5R10207   1.800   6.118   6.820  0.6165  0.7820 -0.1603
  101SAPE   C2610208   1.843   6.126   6.620 -0.3723  0.5338  0.5458
  101SAPE   H6R10209   1.934   6.185   6.641  0.4239  0.0198 -1.2747
  101SAPE   C2710210   1.825   6.093   6.476 -0.4194  0.0180 -0.2127
  101SAPE   H7R10211   1.803   5.985   6.460 -0.4618 -0.5091  2.8757
  101SAPE   H7S10212   1.918   6.111   6.419 -0.6683 -0.8871 -0.9300
  101SAPE   C2810213   1.708   6.175   6.425 -0.0811 -0.8032  0.1380
  101SAPE   H8R10214   1.688   6.277   6.461 -0.6835 -0.9772  0.3164
  101SAPE   C2910215   1.620   6.130   6.334  0.2003  0.1370  0.0212
  101SAPE   H9R10216   1.533   6.193   6.309  0.1092 -1.0290 -2.9981
  101SAPE  C21010217   1.611   5.990   6.271  0.0999  0.5438  0.0652
  101SAPE  H10R10218   1.508   5.962   6.241  0.3365 -0.6669  0.3352
  101SAPE  H10S10219   1.622   5.920   6.357  1.7675 -1.1847 -1.4741
  101SAPE  C21110220   1.717   5.968   6.161 -0.1102  0.1286  0.6292
  101SAPE  H11R10221   1.818   5.973   6.203 -0.1298 -1.0001  0.8315
  101SAPE  C21210222   1.694   5.947   6.030 -0.1616  0.0678 -0.1103
  101SAPE  H12R10223   1.782   5.924   5.969  0.6416 -0.2807  1.1435
  101SAPE  C21310224   1.566   5.939   5.948 -0.5964  0.4272 -0.3092
  101SAPE  H13R10225   1.583   5.998   5.856 -1.4963 -0.0181 -0.7789
  101SAPE  H13S10226   1.484   5.983   6.009  0.6771  0.2353  1.6425
  101SAPE  C21410227   1.522   5.799   5.906 -0.4474  0.2856 -0.1703
  101SAPE  H14R10228   1.472   5.736   5.982 -1.3881  0.0475 -0.9716
  101SAPE  C21510229   1.538   5.754   5.784 -0.4781  0.1766  0.1477
  101SAPE  H15R10230   1.502   5.652   5.764 -2.0033  0.9634 -1.3777
  101SAPE  C21610231   1.625   5.809   5.668 -0.0483 -0.9053 -0.1077
  101SAPE  H16R10232   1.702   5.737   5.633  0.9790  0.1718 -0.1087
  101SAPE  H16S10233   1.681   5.900   5.697 -0.9919 -0.0677 -0.8196
  101SAPE  C21710234   1.536   5.850   5.551 -0.1277 -0.0530  0.1425
  101SAPE  H17R10235   1.496   5.951   5.573  1.1011  0.1462  1.5905
  101SAPE  H17S10236   1.456   5.773   5.545  0.0437 -0.3173  1.1444
  101SAPE  C21810237   1.620   5.853   5.422  0.1559  0.2481  0.8960
  101SAPE  H18R10238   1.658   5.755   5.384  1.8901  0.4035  2.1103
  101SAPE  H18S10239   1.713   5.911   5.435  1.0400 -0.3135 -2.0772
  101SAPE  C21910240   1.537   5.932   5.316 -0.3067  0.4979 -0.5196
  101SAPE  H19R10241   1.511   6.031   5.360 -0.4075  0.1086  0.3193
  101SAPE  H19S10242   1.439   5.880   5.307  0.4789 -1.2130  0.2982
  101SAPE  C22010243   1.603   5.938   5.181  0.1220  0.6309 -0.0140
  101SAPE  H20R10244   1.595   5.839   5.131 -0.5274  0.5455  0.2587
  101SAPE  H20S10245   1.710   5.969   5.182  1.0429 -1.8267 -3.4385
  101SAPE  H20T10246   1.560   6.012   5.109 -0.7405  0.5820  0.4503
  101SAPE   C3310247   1.659   5.528   6.399 -0.2709 -0.0462 -0.1779
  101SAPE   H3X10248   1.603   5.624   6.400  1.3271  0.9519 -0.8855
  101SAPE   H3Y10249   1.617   5.460   6.322  0.6078 -0.7815 -0.0188
  101SAPE   C3410250   1.798   5.566   6.354 -0.5811  0.0685  0.1635
  101SAPE   H4X10251   1.864   5.482   6.383 -1.2927 -0.5171  0.1172
  101SAPE   H4Y10252   1.844   5.651   6.409  1.9817 -0.3944 -1.1314
  101SAPE   C3510253   1.810   5.589   6.206  0.3247  0.1316  0.2640
  101SAPE   H5X10254   1.740   5.671   6.181  0.9179  1.0518  1.5016
  101SAPE   H5Y10255   1.776   5.500   6.148 -0.2788  0.9449 -0.6483
  101SAPE   C3610256   1.955   5.618   6.160  0.1478 -0.4567 -0.2447
  101SAPE   H6X10257   2.021   5.552   6.221  0.1391  0.6422  0.9921
  101SAPE   H6Y10258   1.996   5.716   6.192 -0.5505 -0.8245  1.9009
  101SAPE   C3710259   1.986   5.610   6.008 -0.3435 -0.3042  0.1351
  101SAPE   H7X10260   2.086   5.651   5.984 -1.1985  0.9529 -1.5020
  101SAPE   H7Y10261   1.902   5.672   5.970 -0.4703 -0.0278  0.8554
  101SAPE   C3810262   1.985   5.467   5.946  0.2208  0.0934  0.1464
  101SAPE   H8X10263   1.885   5.418   5.948  0.5369 -0.5379  0.6733
  101SAPE   H8Y10264   2.057   5.400   5.997  2.1593  0.9186 -1.3793
  101SAPE   C3910265   2.034   5.463   5.793 -0.4111  0.0962 -0.2037
  101SAPE   H9X10266   2.057   5.355   5.779 -2.4580 -0.5954  1.3187
  101SAPE   H9Y10267   2.127   5.525   5.801 -1.6473  1.9072  0.8981
  101SAPE  C31010268   1.932   5.508   5.692  0.0410 -0.1178 -0.0458
  101SAPE  H10X10269   1.876   5.597   5.726 -0.1171 -0.2786  0.1218
  101SAPE  H10Y10270   1.862   5.422   5.678  0.6200 -0.2957 -2.2958
  101SAPE  C31110271   2.014   5.523   5.557 -0.6307 -0.2487  0.7690
  101SAPE  H11X10272   2.035   5.418   5.526 -2.2926 -0.0259 -1.3072
  101SAPE  H11Y10273   2.115   5.569   5.562  0.1374 -1.6343 -1.0496
  101SAPE  C31210274   1.928   5.598   5.456 -0.2255  0.2780  0.1765
  101SAPE  H12X10275   1.931   5.705   5.485 -3.6884  1.2117 -2.2341
  101SAPE  H12Y10276   1.822   5.570   5.469 -0.5234  0.0537 -2.2800
  101SAPE  C31310277   1.975   5.592   5.305  1.0404  0.5518  0.2627
  101SAPE  H13X10278   1.980   5.482   5.287 -0.3555  0.4643  0.2705
  101SAPE  H13Y10279   2.079   5.625   5.286  1.5889 -0.9864  0.4656
  101SAPE  C31410280   1.882   5.668   5.209 -0.4125  0.5247  0.6887
  101SAPE  H14X10281   1.866   5.769   5.252 -0.6095  0.4688  0.7455
  101SAPE  H14Y10282   1.781   5.622   5.202 -1.0947  1.3306  3.7743
  101SAPE  C31510283   1.943   5.692   5.072 -0.1513  0.1521 -0.0311
  101SAPE  H15X10284   1.949   5.600   5.011 -2.5038 -0.3477  0.4175
  101SAPE  H15Y10285   2.050   5.720   5.084 -0.7255  3.1705 -0.9852
  101SAPE  C31610286   1.874   5.803   4.987 -0.2019  0.0020 -0.0159
  101SAPE  H16X10287   1.840   5.891   5.046  1.7473  0.6069  0.2561
  101SAPE  H16Y10288   1.786   5.748   4.946  0.5736 -1.9146  0.8044
  101SAPE  C31710289   1.961   5.860   4.868 -0.7618  0.7055  0.1287
  101SAPE  H17X10290   2.001   5.772   4.814  2.3939  1.8842  0.3467
  101SAPE  H17Y10291   2.048   5.912   4.913  0.2831  1.2041 -2.3168
  101SAPE  C31810292   1.898   5.942   4.764 -0.1105 -0.3457 -0.7257
  101SAPE  H18X10293   1.816   5.888   4.712  0.0932  0.8211 -2.3330
  101SAPE  H18Y10294   1.970   5.972   4.686 -0.9311 -0.0793 -1.3948
  101SAPE  H18Z10295   1.862   6.033   4.817  2.7274 -0.3710  1.4897
  102SAPE     N10296   0.980   5.738   7.014  0.5857 -0.2360 -0.0962
  102SAPE   HN110297   0.989   5.714   6.913  1.3009 -0.2485 -0.0335
  102SAPE   HN210298   1.074   5.770   7.044 -0.4763  2.0264  1.0637
  102SAPE   HN310299   0.958   5.657   7.075 -1.3346  2.4274  3.1319
  102SAPE   C1210300   0.869   5.852   7.026 -0.6991  0.2651 -0.0203
  102SAPE  H12A10301   0.902   5.946   6.976 -1.6195  1.6143  1.7723
  102SAPE  H12B10302   0.864   5.876   7.134  1.3907 -1.2876  0.4806
  102SAPE   C1110303   0.739   5.795   6.972 -0.2468 -0.1527  0.1123
  102SAPE  H11A10304   0.674   5.883   6.951 -0.3558 -0.5810 -1.5155
  102SAPE  H11B10305   0.689   5.736   7.051  2.7531 -2.5763  0.4042
  102SAPE     P10306   0.701   5.592   6.801 -0.2187  0.0160  0.1219
  102SAPE   O1310307   0.804   5.492   6.825 -0.1663  0.0854 -0.0250
  102SAPE   O1410308   0.569   5.583   6.863 -0.0785  0.6192  0.8922
  102SAPE   O1210309   0.768   5.733   6.843  0.4201 -0.2917  0.0791
  102SAPE   O1110310   0.688   5.605   6.641  0.2825  0.1713  0.2649
  102SAPE    C110311   0.784   5.683   6.570  0.2374 -0.1273 -0.1186
  102SAPE    HA10312   0.741   5.784   6.554 -0.6349 -0.6082 -0.9880
  102SAPE    HB10313   0.883   5.683   6.619  0.8924 -1.7588 -1.3114
  102SAPE    C210314   0.822   5.612   6.431  0.2878 -0.7671  0.1750
  102SAPE    HS10315   0.920   5.656   6.405  0.7121 -1.4645  0.5552
  102SAPE   O2110316   0.724   5.637   6.335  0.2660 -0.4202 -0.0425
  102SAPE   C2110317   0.741   5.758   6.279  0.0645 -0.4074 -0.2254
  102SAPE   O2210318   0.823   5.843   6.312  0.5475 -0.1052 -0.3018
  102SAPE   C2210319   0.633   5.764   6.172 -0.7400  0.3932 -0.4012
  102SAPE   H2R10320   0.536   5.754   6.226 -0.8153  0.5554 -0.5060
  102SAPE   H2S10321   0.649   5.868   6.135  1.1083  0.0989 -0.5248
  102SAPE    C310322   0.849   5.463   6.438 -0.4839 -0.1054  0.5327
  102SAPE    HX10323   0.750   5.422   6.469 -0.7896  0.1211 -0.1326
  102SAPE    HY10324   0.916   5.427   6.519 -0.0115 -0.4415 -0.0038
  102SAPE   O3110325   0.884   5.415   6.310  0.3720  0.0604  0.4875
  102SAPE   C3110326   0.995   5.446   6.254 -1.2026  0.1178  0.0707
  102SAPE   O3210327   1.093   5.506   6.306  0.0582 -0.2411 -0.3748
  102SAPE   C3210328   0.999   5.388   6.108  0.4686 -0.3669  0.0708
  102SAPE   H2X10329   0.899   5.414   6.067  0.8428  1.3913  0.1936
  102SAPE   H2Y10330   1.004   5.278   6.102 -1.5648 -0.4707 -0.3492
  102SAPE   C2310331   0.651   5.657   6.064 -0.3949  0.3601  0.1554
  102SAPE   H3R10332   0.552   5.634   6.020  0.9862 -0.3874 -2.7866
  102SAPE   H3S10333   0.693   5.562   6.102 -0.4121 -0.3510 -1.5424
  102SAPE   C2410334   0.731   5.708   5.945  0.1327  0.0873  0.2381
  102SAPE   H4R10335   0.831   5.742   5.978  0.1553  2.3555 -1.8845
  102SAPE   H4S10336   0.665   5.785   5.901 -0.1925  0.3290  1.1327
  102SAPE   C2510337   0.756   5.596   5.841 -0.3949  0.0810  0.1157
  102SAPE   H5R10338   0.781   5.498   5.883  0.1038  0.9406  1.9327
  102SAPE   C2610339   0.733   5.594   5.709  0.2910  0.2097  0.0713
  102SAPE   H6R10340   0.729   5.501   5.650 -0.3084  1.4656 -1.9905
  102SAPE   C2710341   0.694   5.709   5.626  0.0130  0.3595 -0.3525
  102SAPE   H7R10342   0.757   5.722   5.535 -1.9081 -0.3339 -1.8473
  102SAPE   H7S10343   0.697   5.797   5.693 -0.8488 -0.8915  1.3921
  102SAPE   C2810344   0.551   5.689   5.582 -0.2015  0.4222  0.8164
  102SAPE   H8R10345   0.486   5.621   5.639 -1.9976 -1.0496 -2.6918
  102SAPE   C2910346   0.499   5.724   5.467  0.3059 -0.4198 -0.6449
  102SAPE   H9R10347   0.398   5.686   5.444  0.6180 -1.2193 -0.7341
  102SAPE  C21010348   0.572   5.805   5.358  0.2040  0.4903 -0.0841
  102SAPE  H10R10349   0.652   5.867   5.404 -1.1431  1.1943  1.4127
  102SAPE  H10S10350   0.496   5.878   5.322 -0.4629  0.4141  1.1289
  102SAPE  C21110351   0.642   5.719   5.253 -0.2020 -0.0622  0.7876
  102SAPE  H11R10352   0.718   5.650   5.293 -0.9125 -1.8940 -0.9040
  102SAPE  C21210353   0.620   5.711   5.119  0.2372 -1.1031  0.5474
  102SAPE  H12R10354   0.678   5.642   5.056 -1.8646 -0.9003 -1.8096
  102SAPE  C21310355   0.530   5.787   5.029  0.9352 -0.6085  0.9726
  102SAPE  H13R10356   0.459   5.852   5.084  0.7941  0.5962 -0.5434
  102SAPE  H13S10357   0.463   5.715   4.977 -0.0022  0.9423 -0.0445
  102SAPE  C21410358   0.600   5.866   4.921  0.6862  0.5223 -0.2158
  102SAPE  H14R10359   0.602   5.974   4.943 -0.6237  0.8330 -1.4970
  102SAPE  C21510360   0.649   5.823   4.801  0.6015 -0.5841  0.0166
  102SAPE  H15R10361   0.701   5.894   4.734 -0.3403 -0.0607 -0.1717
  102SAPE  C21610362   0.634   5.689   4.740 -0.1639  0.3006  0.2532
  102SAPE  H16R10363   0.565   5.613   4.784 -0.2779 -0.7938 -1.6628
  102SAPE  H16S10364   0.738   5.651   4.745 -0.0180  0.6191 -0.2906
  102SAPE  C21710365   0.595   5.718   4.592 -0.1281 -0.2163  0.0165
  102SAPE  H17R10366   0.605   5.627   4.530  1.4057  0.4547 -0.7717
  102SAPE  H17S10367   0.665   5.792   4.548 -2.0833  1.8411  0.1808
  102SAPE  C21810368   0.457   5.772   4.570 -0.0390  0.0715 -0.5952
  102SAPE  H18R10369   0.444   5.860   4.637  1.3925 -0.2328  0.1290
  102SAPE  H18S10370   0.391   5.686   4.591  2.7310 -2.0210  0.2683
  102SAPE  C21910371   0.423   5.838   4.437  0.6634 -0.6312 -0.4992
  102SAPE  H19R10372   0.495   5.919   4.415 -0.2229  0.2173 -0.3823
  102SAPE  H19S10373   0.322   5.885   4.443  1.8966  2.0243  0.5920
  102SAPE  C22010374   0.413   5.738   4.320  0.2855 -0.4012  0.0531
  102SAPE  H20R10375   0.517   5.703   4.303  0.7577  1.0243 -0.1218
  102SAPE  H20S10376   0.380   5.778   4.222 -0.6946 -2.4630 -0.5160
  102SAPE  H20T10377   0.346   5.656   4.352  0.4317  0.3855  2.5975
  102SAPE   C3310378   1.105   5.438   6.014 -0.8817  0.1128 -0.0136
  102SAPE   H3X10379   1.206   5.411   6.051  0.1302  0.6936 -2.1655
  102SAPE   H3Y10380   1.096   5.549   6.016  0.4383  0.2239  0.3389
  102SAPE   C3410381   1.096   5.390   5.872 -0.0154  0.0350 -0.0150
  102SAPE   H4X10382   0.993   5.417   5.843  0.3706  1.5981 -0.0664
  102SAPE   H4Y10383   1.116   5.281   5.873 -0.7677 -0.1350 -1.4792
  102SAPE   C3510384   1.208   5.464   5.788  0.1683  0.0012  0.0689
  102SAPE   H5X10385   1.310   5.454   5.832  1.8313  2.0075 -2.9789
  102SAPE   H5Y10386   1.179   5.571   5.793 -1.7223 -0.4812  0.1186
  102SAPE   C3610387   1.204   5.417   5.644 -0.1539  0.1572 -0.0096
  102SAPE   H6X10388   1.107   5.435   5.591 -0.0970  1.4049  0.2831
  102SAPE   H6Y10389   1.215   5.307   5.641  0.8462  0.2137  1.0391
  102SAPE   C3710390   1.310   5.489   5.553  0.6454 -0.1668 -0.9447
  102SAPE   H7X10391   1.415   5.471   5.584  0.6217 -2.5067 -2.0178
  102SAPE   H7Y10392   1.285   5.595   5.574 -2.0679 -0.5324 -1.9521
  102SAPE   C3810393   1.289   5.452   5.401  0.6239 -0.1208  0.1003
  102SAPE   H8X10394   1.184   5.484   5.382  0.4413 -0.0410  1.1678
  102SAPE   H8Y10395   1.309   5.344   5.387  2.7702  0.4631 -1.7705
  102SAPE   C3910396   1.382   5.530   5.316  0.5460 -0.5146 -0.0277
  102SAPE   H9X10397   1.486   5.496   5.337 -0.2970 -1.5038  3.0887
  102SAPE   H9Y10398   1.370   5.635   5.349 -0.6859 -0.4737 -0.5575
  102SAPE  C31010399   1.336   5.538   5.170 -0.0685  0.1842 -0.0134
  102SAPE  H10X10400   1.226   5.555   5.168 -0.1533 -0.0838  1.2826
  102SAPE  H10Y10401   1.363   5.439   5.129 -0.4202  0.0093  0.1735
  102SAPE  C31110402   1.410   5.645   5.089 -0.6677  0.9033 -0.4040
  102SAPE  H11X10403   1.514   5.607   5.103 -0.2855  0.7877 -3.1461
  102SAPE  H11Y10404   1.406   5.749   5.129  0.0874  1.6564 -2.2054
  102SAPE  C31210405   1.366   5.643   4.950 -0.2346  0.6682  0.4318
  102SAPE  H12X10406   1.260   5.674   4.933 -0.1130  1.5051  1.1745
  102SAPE  H12Y10407   1.379   5.538   4.913 -3.1292  0.0851  0.8206
  102SAPE  C31310408   1.451   5.738   4.861  0.0045  0.7114  0.3961
  102SAPE  H13X10409   1.550   5.689   4.848  1.0024  2.5686  0.6749
  102SAPE  H13Y10410   1.480   5.833   4.910  2.1280 -0.0713  0.7546
  102SAPE  C31410411   1.385   5.759   4.730  0.5177  0.2761  0.3210
  102SAPE  H14X10412   1.294   5.822   4.736 -0.7568 -1.3699 -1.0489
  102SAPE  H14Y10413   1.361   5.672   4.665  0.6517  2.0665 -2.3077
  102SAPE  C31510414   1.480   5.842   4.642 -0.6259  0.6551 -0.4462
  102SAPE  H15X10415   1.432   5.843   4.543 -0.6279 -1.1811 -0.4914
  102SAPE  H15Y10416   1.576   5.786   4.633 -1.6301 -1.2440  0.2902
  102SAPE  C31610417   1.531   5.992   4.673  0.4362  0.8415  0.2466
  102SAPE  H16X10418   1.589   5.985   4.767  1.3234 -0.0220 -0.3413
  102SAPE  H16Y10419   1.435   6.046   4.688  0.5830  2.3532 -3.1940
  102SAPE  C31710420   1.624   6.052   4.570 -0.9830 -0.2426 -0.0590
  102SAPE  H17X10421   1.711   5.987   4.545 -0.6001 -0.0279  0.6618
  102SAPE  H17Y10422   1.662   6.136   4.633 -3.3241  0.0207  1.0926
  102SAPE  C31810423   1.561   6.118   4.449  0.2505  0.4829 -0.2885
  102SAPE  H18X10424   1.634   6.191   4.409  0.3056  0.3502 -0.4341
  102SAPE  H18Y10425   1.469   6.176   4.470  0.6235  1.7441 -1.9039
  102SAPE  H18Z10426   1.532   6.041   4.375  1.5353  0.3827 -0.7192
  103SAPE     N10427   6.794   5.353   2.645 -0.8038  0.3205 -0.1207
  103SAPE   HN110428   6.828   5.430   2.707 -0.2830 -0.2576  0.3319
  103SAPE   HN210429   6.703   5.376   2.601 -0.2731  0.2019 -1.3102
  103SAPE   HN310430   6.769   5.270   2.703  0.3947  0.9914  1.4549
  103SAPE   C1210431   6.892   5.308   2.539 -0.1167  1.1224  0.1899
  103SAPE  H12A10432   6.995   5.303   2.581  0.5538  0.8858 -1.3992
  103SAPE  H12B10433   6.896   5.392   2.466 -4.2427  0.4451 -1.0777
  103SAPE   C1110434   6.848   5.178   2.460  0.0773 -0.3861  0.1589
  103SAPE  H11A10435   6.929   5.159   2.386  1.4112  2.0788  0.8382
  103SAPE  H11B10436   6.752   5.198   2.408 -0.8114 -2.1648  1.0527
  103SAPE     P10437   6.887   4.925   2.536 -0.1436 -0.0016  0.0693
  103SAPE   O1310438   6.766   4.839   2.528 -0.5095  0.6518  0.2716
  103SAPE   O1410439   6.985   4.925   2.423 -0.0318  0.6883  0.2131
  103SAPE   O1210440   6.835   5.072   2.561 -0.5346  0.8162  0.3497
  103SAPE   O1110441   6.968   4.891   2.672 -0.2411 -0.1306  0.0202
  103SAPE    C110442   7.029   4.995   2.753  0.3887  0.1598  0.8795
  103SAPE    HA10443   7.091   5.054   2.682 -2.1847 -0.4701 -2.1309
  103SAPE    HB10444   6.953   5.056   2.806 -0.4051 -0.8080  0.8849
  103SAPE    C210445   7.129   4.942   2.862 -0.1017 -0.2592 -0.3057
  103SAPE    HS10446   7.223   4.913   2.809 -0.2658 -1.2380 -0.0892
  103SAPE   O2110447   7.090   4.824   2.931  0.2533  0.2074  0.3736
  103SAPE   C2110448   7.183   4.770   3.009  0.3009  0.0850  0.0889
  103SAPE   O2210449   7.300   4.795   3.000 -0.7194 -0.3132  0.2175
  103SAPE   C2210450   7.122   4.663   3.104 -1.2880  0.8999 -0.7424
  103SAPE   H2R10451   7.033   4.715   3.146 -1.1008 -0.7710  2.0157
  103SAPE   H2S10452   7.104   4.568   3.049  1.4807 -1.2341  1.6991
  103SAPE    C310453   7.157   5.064   2.956 -0.0720 -0.7179  0.3234
  103SAPE    HX10454   7.199   5.146   2.895 -0.0276  0.0175  1.3044
  103SAPE    HY10455   7.244   5.043   3.022 -0.1161  1.8131  1.3233
  103SAPE   O3110456   7.050   5.127   3.034 -0.0521  0.6647  0.4829
  103SAPE   C3110457   7.002   5.052   3.133  0.1780  0.3050 -0.0841
  103SAPE   O3210458   7.069   4.976   3.200 -0.2598  0.0821 -0.1660
  103SAPE   C3210459   6.851   5.078   3.149 -0.6294  0.2408 -0.4349
  103SAPE   H2X10460   6.801   5.033   3.061  0.6709 -0.4360 -0.8548
  103SAPE   H2Y10461   6.835   5.188   3.143 -1.2108  0.1778 -0.1263
  103SAPE   C2310462   7.207   4.614   3.224  0.0282 -0.8074  0.1665
  103SAPE   H3R10463   7.261   4.696   3.276 -1.1514  0.2005 -0.1586
  103SAPE   H3S10464   7.293   4.552   3.189  0.4783  0.2064 -0.5575
  103SAPE   C2410465   7.126   4.548   3.341  0.0719  0.3612  0.6661
  103SAPE   H4R10466   7.031   4.601   3.362 -1.8043 -1.9446 -1.2856
  103SAPE   H4S10467   7.190   4.560   3.431 -1.4031  2.1616  1.5461
  103SAPE   C2510468   7.079   4.405   3.315  0.0037  0.6170 -0.5519
  103SAPE   H5R10469   7.070   4.391   3.206 -1.5252 -3.3598 -0.0721
  103SAPE   C2610470   7.065   4.306   3.408 -0.1764 -0.2837  0.0368
  103SAPE   H6R10471   7.044   4.201   3.380 -0.2245  0.2563 -2.0843
  103SAPE   C2710472   7.082   4.329   3.562 -0.4520 -0.3855  0.2161
  103SAPE   H7R10473   6.990   4.337   3.624  0.8032  2.0927  1.9363
  103SAPE   H7S10474   7.132   4.425   3.585  3.3059 -2.1090 -0.0292
  103SAPE   C2810475   7.167   4.211   3.605  0.1127  0.2262 -0.7496
  103SAPE   H8R10476   7.268   4.204   3.561  0.5845  0.3932  0.2753
  103SAPE   C2910477   7.150   4.111   3.700  1.1321 -0.2986  0.8298
  103SAPE   H9R10478   7.238   4.048   3.719  2.0615  0.7837  0.2546
  103SAPE  C21010479   7.038   4.118   3.798  0.1813  0.0558  0.0519
  103SAPE  H10R10480   6.949   4.080   3.742  0.6991 -0.4542 -0.4381
  103SAPE  H10S10481   7.011   4.224   3.820 -3.1735 -0.4667 -0.9689
  103SAPE  C21110482   7.058   4.022   3.907  0.1272  0.0254 -0.5406
  103SAPE  H11R10483   7.005   3.926   3.896 -1.3985  1.1153 -4.0744
  103SAPE  C21210484   7.134   4.047   4.013  0.1849  0.1369  0.8095
  103SAPE  H12R10485   7.170   3.967   4.080  3.6421  1.4103  0.6845
  103SAPE  C21310486   7.202   4.176   4.053  0.1965 -0.0197 -0.1399
  103SAPE  H13R10487   7.182   4.203   4.159  0.7813  0.2381 -0.0930
  103SAPE  H13S10488   7.164   4.264   3.997  0.3612 -0.3163 -0.7299
  103SAPE  C21410489   7.352   4.158   4.044 -0.3556  0.3796  0.3736
  103SAPE  H14R10490   7.385   4.053   4.056 -0.5736 -0.0851 -2.3927
  103SAPE  C21510491   7.442   4.253   4.008  0.0839 -0.4833  0.2031
  103SAPE  H15R10492   7.552   4.240   4.003  0.2070  1.0152 -2.9016
  103SAPE  C21610493   7.416   4.399   3.983 -0.0608 -0.2818  0.7031
  103SAPE  H16R10494   7.430   4.462   4.073  1.3306 -0.7485  0.8486
  103SAPE  H16S10495   7.311   4.403   3.946  0.0803  0.2671  0.3472
  103SAPE  C21710496   7.498   4.482   3.877  0.6539  0.1072  1.1029
  103SAPE  H17R10497   7.606   4.460   3.889  1.3490 -0.7773 -4.1596
  103SAPE  H17S10498   7.479   4.591   3.884 -4.0278 -0.5256  1.5963
  103SAPE  C21810499   7.459   4.437   3.730 -0.3050 -0.2906  0.5928
  103SAPE  H18R10500   7.352   4.459   3.709  0.0523  0.2163 -0.8067
  103SAPE  H18S10501   7.464   4.329   3.704  0.4200  0.1693 -1.3405
  103SAPE  C21910502   7.525   4.522   3.621 -0.1746  0.5243 -0.5159
  103SAPE  H19R10503   7.634   4.523   3.640 -0.3354 -1.3564  0.7532
  103SAPE  H19S10504   7.491   4.627   3.633  1.5106  1.1731 -1.1673
  103SAPE  C22010505   7.485   4.472   3.485 -0.2165  0.1047 -0.2226
  103SAPE  H20R10506   7.523   4.373   3.455 -1.3928  0.4955 -3.4287
  103SAPE  H20S10507   7.524   4.545   3.410 -0.3382  1.2264  0.7748
  103SAPE  H20T10508   7.375   4.460   3.472 -0.6440  1.1604  1.9842
  103SAPE   C3310509   6.793   5.028   3.287  0.3822 -0.3601 -0.6302
  103SAPE   H3X10510   6.826   4.923   3.304  2.2650  0.3559  0.3607
  103SAPE   H3Y10511   6.682   5.020   3.274 -0.0017  1.3280  1.2559
  103SAPE   C3410512   6.818   5.122   3.410  0.3505  0.2786  0.0436
  103SAPE   H4X10513   6.793   5.219   3.362 -0.0347 -0.3569 -1.0917
  103SAPE   H4Y10514   6.925   5.118   3.439  0.9555  0.6897 -1.9882
  103SAPE   C3510515   6.719   5.111   3.522  0.4536 -0.4695  0.6479
  103SAPE   H5X10516   6.617   5.084   3.488  0.5244 -0.8985  0.7682
  103SAPE   H5Y10517   6.720   5.209   3.574 -0.5270  0.2636 -0.6423
  103SAPE   C3610518   6.758   5.005   3.616  0.2893 -0.1404 -0.3022
  103SAPE   H6X10519   6.868   5.005   3.633  0.0176 -3.1180  2.3968
  103SAPE   H6Y10520   6.724   4.908   3.574  1.7932 -0.8224 -0.0053
  103SAPE   C3710521   6.704   5.018   3.764  0.5463  0.0684  0.5456
  103SAPE   H7X10522   6.599   5.054   3.756 -0.5105 -2.9103 -0.1144
  103SAPE   H7Y10523   6.759   5.101   3.814  0.6052  1.4055 -1.5841
  103SAPE   C3810524   6.698   4.879   3.832  0.1338  0.0115 -0.3251
  103SAPE   H8X10525   6.806   4.859   3.841  0.3033  1.1846  0.3778
  103SAPE   H8Y10526   6.636   4.810   3.771  0.8032  2.0276 -3.5562
  103SAPE   C3910527   6.634   4.892   3.974 -0.6558  0.1255 -0.4753
  103SAPE   H9X10528   6.524   4.877   3.969 -0.8414 -0.6917  3.3347
  103SAPE   H9Y10529   6.665   4.995   4.004 -0.1329  0.6837 -2.6740
  103SAPE  C31010530   6.693   4.805   4.083 -0.0764 -0.2210  0.2176
  103SAPE  H10X10531   6.803   4.814   4.074 -0.1090 -1.0918 -1.6478
  103SAPE  H10Y10532   6.667   4.700   4.057 -1.8148  0.4159 -0.7654
  103SAPE  C31110533   6.642   4.830   4.227 -0.1249  0.0156  0.2064
  103SAPE  H11X10534   6.534   4.806   4.236 -0.5708  2.2039  1.3846
  103SAPE  H11Y10535   6.642   4.937   4.260 -2.3613 -0.5213  2.2579
  103SAPE  C31210536   6.730   4.750   4.330 -0.2939  0.0355 -0.1933
  103SAPE  H12X10537   6.823   4.806   4.353 -0.9828  0.0420  3.0915
  103SAPE  H12Y10538   6.751   4.651   4.284 -1.8564  0.5139 -2.1016
  103SAPE  C31310539   6.661   4.721   4.467 -0.4345  0.2386 -0.4326
  103SAPE  H13X10540   6.567   4.663   4.472 -0.8404  0.9585  0.9293
  103SAPE  H13Y10541   6.637   4.820   4.511  0.7574  0.4055 -0.1368
  103SAPE  C31410542   6.765   4.649   4.554  0.2512  0.5985 -0.0303
  103SAPE  H14X10543   6.837   4.724   4.592  2.0136 -0.9230 -0.2043
  103SAPE  H14Y10544   6.824   4.578   4.492  0.3138  0.6006  0.0269
  103SAPE  C31510545   6.705   4.584   4.683 -0.1660 -0.6282 -0.0828
  103SAPE  H15X10546   6.627   4.509   4.657  0.5878 -1.1958 -0.7952
  103SAPE  H15Y10547   6.655   4.663   4.743  1.0552  0.1434 -0.0427
  103SAPE  C31610548   6.820   4.519   4.761  0.4657  0.1192  0.1313
  103SAPE  H16X10549   6.859   4.600   4.826 -1.9370  0.1981  1.5729
  103SAPE  H16Y10550   6.891   4.484   4.683 -0.8733  0.8106 -1.4594
  103SAPE  C31710551   6.784   4.392   4.839  0.3383 -0.3540  0.5848
  103SAPE  H17X10552   6.732   4.313   4.781 -0.3736 -0.6540  1.6158
  103SAPE  H17Y10553   6.706   4.423   4.912  1.7985  0.4821  1.8333
  103SAPE  C31810554   6.904   4.325   4.903 -0.3478  0.0408 -0.2384
  103SAPE  H18X10555   6.957   4.270   4.823 -0.1218  0.8504 -0.6647
  103SAPE  H18Y10556   6.877   4.255   4.985 -0.1248  0.3773  0.1326
  103SAPE  H18Z10557   6.965   4.413   4.933 -0.4679 -0.2414  0.8938
  104SAPE     N10558   1.663   3.282   2.474  0.4505  0.0167  0.2251
  104SAPE   HN110559   1.591   3.316   2.541  1.6781 -0.7380  1.9857
  104SAPE   HN210560   1.730   3.216   2.517  0.9835  0.0261 -0.5652
  104SAPE   HN310561   1.720   3.363   2.440 -1.0633  0.7522 -0.6902
  104SAPE   C1210562   1.588   3.219   2.358  0.5331 -0.3134 -0.4790
  104SAPE  H12A10563   1.538   3.137   2.416  0.9565 -0.3897 -0.2166
  104SAPE  H12B10564   1.660   3.173   2.287 -1.0254 -1.0959 -1.6084
  104SAPE   C1110565   1.491   3.328   2.288 -0.2924  0.4280  0.0364
  104SAPE  H11A10566   1.437   3.267   2.213  0.9906 -1.2451  0.3988
  104SAPE  H11B10567   1.552   3.406   2.238 -0.1937 -0.0659 -0.6212
  104SAPE     P10568   1.261   3.450   2.342 -0.1658  0.1742  0.1842
  104SAPE   O1310569   1.261   3.525   2.218  0.5434 -0.3174 -0.4645
  104SAPE   O1410570   1.163   3.343   2.346  0.2071  0.3116  0.4856
  104SAPE   O1210571   1.406   3.387   2.379  0.1125  0.7602 -0.4709
  104SAPE   O1110572   1.225   3.537   2.466 -0.2715 -0.3760  0.8474
  104SAPE    C110573   1.302   3.649   2.508 -0.3959  0.0198 -0.5434
  104SAPE    HA10574   1.355   3.701   2.425 -0.7945 -0.8237 -1.3433
  104SAPE    HB10575   1.239   3.731   2.547  0.8140 -0.1544  1.9890
  104SAPE    C210576   1.405   3.622   2.624  0.4064  0.3210  0.2628
  104SAPE    HS10577   1.492   3.584   2.566 -0.4994  0.6932 -1.4127
  104SAPE   O2110578   1.338   3.536   2.725 -0.6370 -0.4409 -0.0725
  104SAPE   C2110579   1.392   3.411   2.733  0.1571  0.0120 -0.2124
  104SAPE   O2210580   1.494   3.378   2.676 -0.4866  0.6631  0.2501
  104SAPE   C2210581   1.305   3.325   2.820  0.6286 -0.5009 -0.3810
  104SAPE   H2R10582   1.206   3.308   2.773  0.3847  1.0627 -0.4937
  104SAPE   H2S10583   1.365   3.233   2.832 -0.3287 -0.8073  3.1550
  104SAPE    C310584   1.459   3.751   2.684 -0.2177 -0.4488  0.2900
  104SAPE    HX10585   1.369   3.804   2.720 -1.5330  0.0162 -3.2646
  104SAPE    HY10586   1.503   3.817   2.606  0.5842 -0.2248  0.9148
  104SAPE   O3110587   1.555   3.714   2.783  0.7402  0.3783 -0.5508
  104SAPE   C3110588   1.683   3.722   2.751 -0.4107  0.1710  0.3301
  104SAPE   O3210589   1.724   3.765   2.644 -0.4509  0.4924  0.5091
  104SAPE   C3210590   1.766   3.670   2.865  0.5385  0.1428  0.0638
  104SAPE   H2X10591   1.869   3.710   2.858 -0.3118  2.1839 -1.8978
  104SAPE   H2Y10592   1.778   3.560   2.854  0.8094  0.3268 -1.8112
  104SAPE   C2310593   1.265   3.400   2.956 -0.4063 -0.4138 -0.2006
  104SAPE   H3R10594   1.184   3.342   3.006 -0.2322 -0.1633  0.3874
  104SAPE   H3S10595   1.233   3.503   2.927 -0.1985 -0.4529 -0.5732
  104SAPE   C2410596   1.393   3.416   3.039 -0.1649 -0.3542 -0.3075
  104SAPE   H4R10597   1.468   3.474   2.981  0.3863 -0.0435  0.6918
  104SAPE   H4S10598   1.427   3.311   3.054  1.3085  0.0096 -0.9064
  104SAPE   C2510599   1.372   3.484   3.183  0.3946  0.0880  0.2868
  104SAPE   H5R10600   1.380   3.594   3.181 -1.9286  0.3770 -3.3042
  104SAPE   C2610601   1.363   3.422   3.300  0.5807 -0.2675 -0.1734
  104SAPE   H6R10602   1.359   3.489   3.387 -0.5834 -0.2980 -0.1963
  104SAPE   C2710603   1.344   3.279   3.341 -0.3247  0.7965 -0.2653
  104SAPE   H7R10604   1.285   3.229   3.261  0.0089 -0.1297  0.0554
  104SAPE   H7S10605   1.278   3.280   3.431 -2.4784  0.6366 -1.7609
  104SAPE   C2810606   1.466   3.195   3.372  0.1595  0.0507 -0.5932
  104SAPE   H8R10607   1.514   3.152   3.283 -2.4225 -1.7041 -1.2406
  104SAPE   C2910608   1.522   3.192   3.500  0.7097  0.1661 -0.3419
  104SAPE   H9R10609   1.619   3.140   3.506  0.4372 -0.7586 -2.7360
  104SAPE  C21010610   1.471   3.257   3.623  0.1334 -0.1322  0.2584
  104SAPE  H10R10611   1.397   3.335   3.592 -1.4837 -1.5569  0.3757
  104SAPE  H10S10612   1.555   3.314   3.669  0.8323  0.5328 -1.7378
  104SAPE  C21110613   1.399   3.159   3.713 -0.4100 -1.1989 -0.3791
  104SAPE  H11R10614   1.334   3.083   3.665 -0.2736 -2.0337  0.7316
  104SAPE  C21210615   1.406   3.167   3.844  0.4191 -0.1549 -0.4552
  104SAPE  H12R10616   1.337   3.106   3.904 -0.1006  0.5927 -0.2688
  104SAPE  C21310617   1.505   3.267   3.907 -0.0379  0.1149 -0.1370
  104SAPE  H13R10618   1.478   3.369   3.876 -1.4699  0.2366  1.3638
  104SAPE  H13S10619   1.609   3.234   3.884  0.3258 -0.6440  2.2753
  104SAPE  C21410620   1.506   3.268   4.061 -0.2173  0.1582  0.2767
  104SAPE  H14R10621   1.576   3.200   4.112  0.8075 -0.7236 -2.1525
  104SAPE  C21510622   1.439   3.350   4.147 -0.2263 -0.3029  0.4952
  104SAPE  H15R10623   1.438   3.323   4.254  2.3201 -2.6632  0.0471
  104SAPE  C21610624   1.326   3.446   4.111  0.0302 -0.3516 -0.2043
  104SAPE  H16R10625   1.241   3.464   4.180  0.2770 -0.6158  0.1711
  104SAPE  H16S10626   1.275   3.404   4.022  0.0941  1.4659 -1.1470
  104SAPE  C21710627   1.373   3.585   4.068  0.0226 -0.1047  0.1310
  104SAPE  H17R10628   1.285   3.652   4.057  2.0649  2.7404 -0.2996
  104SAPE  H17S10629   1.413   3.587   3.964 -2.5794  0.3729 -0.9350
  104SAPE  C21810630   1.460   3.664   4.174  0.5171  0.9203  0.2727
  104SAPE  H18R10631   1.545   3.600   4.207 -0.4366 -0.2342  0.5446
  104SAPE  H18S10632   1.388   3.691   4.254  0.8335  1.4199  0.3941
  104SAPE  C21910633   1.512   3.800   4.125  0.6775 -0.1937  0.3462
  104SAPE  H19R10634   1.437   3.861   4.072 -0.4926 -0.6152  1.4766
  104SAPE  H19S10635   1.590   3.774   4.050 -0.1909 -1.6744 -0.0886
  104SAPE  C22010636   1.560   3.885   4.241 -0.2115  0.8322 -0.6130
  104SAPE  H20R10637   1.602   3.983   4.208 -2.4468  1.6736 -1.1251
  104SAPE  H20S10638   1.623   3.812   4.295 -3.2051 -1.6753 -0.2585
  104SAPE  H20T10639   1.479   3.917   4.309 -0.0715 -1.5673  0.7669
  104SAPE   C3310640   1.715   3.698   3.010  0.2295  0.1469 -0.0001
  104SAPE   H3X10641   1.605   3.711   3.023  0.3014  0.3562  0.4209
  104SAPE   H3Y10642   1.761   3.796   3.035 -0.8087  0.6489 -0.0234
  104SAPE   C3410643   1.755   3.581   3.106  0.4236  0.3283  1.1483
  104SAPE   H4X10644   1.859   3.547   3.087  0.1465  0.7087 -1.3359
  104SAPE   H4Y10645   1.689   3.500   3.069  0.5702  0.2759  1.0046
  104SAPE   C3510646   1.746   3.612   3.258  1.1887  0.0030 -0.5872
  104SAPE   H5X10647   1.648   3.650   3.292  2.2289  0.0888  2.7919
  104SAPE   H5Y10648   1.825   3.690   3.264  0.0929  1.3479 -2.7617
  104SAPE   C3610649   1.777   3.508   3.358 -0.2051  1.1155 -0.4666
  104SAPE   H6X10650   1.873   3.458   3.332 -1.1269 -0.8511 -0.2814
  104SAPE   H6Y10651   1.696   3.432   3.356 -0.7098  1.6658 -1.7816
  104SAPE   C3710652   1.778   3.555   3.500 -0.8941  0.7719  0.8384
  104SAPE   H7X10653   1.676   3.578   3.538 -0.0930  0.7726  3.1712
  104SAPE   H7Y10654   1.850   3.640   3.502  0.3624 -0.0984 -2.1464
  104SAPE   C3810655   1.832   3.448   3.595  0.6149  0.2876  0.1386
  104SAPE   H8X10656   1.942   3.447   3.584  0.4720 -0.9404 -1.5673
  104SAPE   H8Y10657   1.792   3.348   3.565 -0.6410 -0.0820  2.8003
  104SAPE   C3910658   1.793   3.483   3.740  0.0606 -0.1998 -0.1413
  104SAPE   H9X10659   1.684   3.469   3.758 -0.2906  0.2277 -1.8240
  104SAPE   H9Y10660   1.802   3.594   3.749 -2.6821  0.1125 -0.3727
  104SAPE  C31010661   1.874   3.399   3.843 -0.2046  0.5796 -0.1852
  104SAPE  H10X10662   1.984   3.405   3.830 -0.2483  3.0367  0.1314
  104SAPE  H10Y10663   1.851   3.291   3.830 -0.1289  0.3663  1.2568
  104SAPE  C31110664   1.846   3.434   3.990 -0.6468  0.1424 -0.6246
  104SAPE  H11X10665   1.739   3.413   4.010 -0.6365  2.5239  2.8025
  104SAPE  H11Y10666   1.867   3.542   4.002 -0.1314 -0.1841  2.3969
  104SAPE  C31210667   1.923   3.363   4.097 -0.3738 -0.8833 -0.4252
  104SAPE  H12X10668   1.897   3.407   4.195  1.4265 -1.8330  0.5446
  104SAPE  H12Y10669   2.033   3.381   4.095 -0.5503  1.1550  2.6367
  104SAPE  C31310670   1.900   3.214   4.092 -0.2088  0.1982 -0.4830
  104SAPE  H13X10671   1.979   3.180   4.022  1.0164 -0.6578  1.2376
  104SAPE  H13Y10672   1.803   3.193   4.041  0.3840  0.0120 -1.5602
  104SAPE  C31410673   1.911   3.146   4.231 -0.4855  0.3212 -0.6883
  104SAPE  H14X10674   1.910   3.037   4.215 -0.8036  0.4837 -1.8666
  104SAPE  H14Y10675   1.812   3.159   4.279 -1.1135  1.2639 -2.1452
  104SAPE  C31510676   2.033   3.187   4.318  0.3497 -0.1899 -0.1252
  104SAPE  H15X10677   2.014   3.284   4.369 -3.3062 -1.5583  1.4389
  104SAPE  H15Y10678   2.113   3.206   4.243  2.3468  1.9594  2.3632
  104SAPE  C31610679   2.086   3.087   4.427 -0.0044  0.2000 -0.3095
  104SAPE  H16X10680   2.194   3.095   4.455 -0.7362 -0.4524  3.1406
  104SAPE  H16Y10681   2.083   2.987   4.378  1.9463 -0.3068  0.4971
  104SAPE  C31710682   2.000   3.089   4.555  0.3130  0.0599  0.5754
  104SAPE  H17X10683   1.895   3.064   4.526 -1.1960  4.2787  1.6290
  104SAPE  H17Y10684   1.989   3.196   4.585  1.4215  0.5590 -0.6681
  104SAPE  C31810685   2.049   2.991   4.654 -0.3237  0.1628 -0.0814
  104SAPE  H18X10686   2.156   2.966   4.636 -0.1527  0.3389  0.6360
  104SAPE  H18Y10687   1.994   2.894   4.649  0.6987 -0.4078 -0.4201
  104SAPE  H18Z10688   2.044   3.026   4.759 -2.8096 -0.7687  0.1872
  105SAPE     N10689   4.317   2.432   1.934  0.4028 -0.3962  0.2703
  105SAPE   HN110690   4.306   2.331   1.956 -0.5431 -0.8730 -2.1145
  105SAPE   HN210691   4.411   2.453   1.973  1.5793 -1.6635 -1.7083
  105SAPE   HN310692   4.247   2.488   1.988  2.5668  2.1552  0.6500
  105SAPE   C1210693   4.320   2.460   1.781 -0.7514 -0.3860  0.2969
  105SAPE  H12A10694   4.224   2.431   1.732 -0.2419  1.7698 -2.1978
  105SAPE  H12B10695   4.411   2.409   1.742  0.1812 -1.4680  3.6196
  105SAPE   C1110696   4.333   2.613   1.762  0.0953  0.1168 -0.4877
  105SAPE  H11A10697   4.309   2.620   1.653 -1.1663 -1.5051 -0.3581
  105SAPE  H11B10698   4.436   2.650   1.779  0.2328 -0.4417 -0.0641
  105SAPE     P10699   4.102   2.749   1.786 -0.1207 -0.6401 -0.0402
  105SAPE   O1310700   4.138   2.856   1.690 -0.0476 -0.0700 -0.0854
  105SAPE   O1410701   4.014   2.647   1.727  0.0233  0.1084  0.1575
  105SAPE   O1210702   4.236   2.693   1.843  0.0581  0.3155 -0.7075
  105SAPE   O1110703   4.033   2.810   1.917 -0.4444  0.4274 -0.0293
  105SAPE    C110704   4.095   2.899   2.008 -0.4756 -0.9028 -0.1965
  105SAPE    HA10705   4.161   2.975   1.961 -2.0720  2.2185  2.1959
  105SAPE    HB10706   4.019   2.974   2.040  1.0649  0.6208  0.0573
  105SAPE    C210707   4.161   2.831   2.138 -0.1844 -0.2224 -0.8269
  105SAPE    HS10708   4.252   2.780   2.099  1.2650  1.1462  0.5668
  105SAPE   O2110709   4.064   2.743   2.208  0.2301 -0.3360  0.2370
  105SAPE   C2110710   4.068   2.618   2.163  0.8036  0.6445  0.1734
  105SAPE   O2210711   4.150   2.572   2.081 -0.3315 -0.4317 -0.0338
  105SAPE   C2210712   3.973   2.535   2.238  0.7534  0.1281  0.4790
  105SAPE   H2R10713   3.884   2.600   2.254 -0.4615 -0.5654 -2.7156
  105SAPE   H2S10714   3.932   2.453   2.174 -1.9352  0.3063  1.7860
  105SAPE    C310715   4.204   2.934   2.243  0.0789 -0.1578  0.0856
  105SAPE    HX10716   4.128   3.015   2.250 -0.6644 -0.6051 -2.0766
  105SAPE    HY10717   4.289   3.002   2.221  1.0722  0.0925  3.8923
  105SAPE   O3110718   4.207   2.884   2.383 -0.5454  0.3153 -0.2352
  105SAPE   C3110719   4.318   2.820   2.409 -0.1425 -0.0675  0.5304
  105SAPE   O3210720   4.417   2.816   2.341 -0.0276 -0.4257 -0.0927
  105SAPE   C3210721   4.298   2.741   2.537 -0.2719 -0.3442 -0.1992
  105SAPE   H2X10722   4.386   2.675   2.552  2.3951  2.9871  0.0840
  105SAPE   H2Y10723   4.205   2.687   2.511  0.3843 -1.4526 -0.3477
  105SAPE   C2310724   4.026   2.470   2.367  0.2987  0.0593  0.3125
  105SAPE   H3R10725   4.066   2.546   2.438 -2.8413  2.3623 -0.1857
  105SAPE   H3S10726   4.113   2.404   2.347  1.6910  2.2082 -1.1517
  105SAPE   C2410727   3.914   2.402   2.456 -0.0865  0.0543 -0.3633
  105SAPE   H4R10728   3.845   2.485   2.485 -0.2188  0.8290 -2.7153
  105SAPE   H4S10729   3.960   2.368   2.552  0.3166  1.4099 -0.0421
  105SAPE   C2510730   3.833   2.293   2.388  0.6924  0.1182 -0.1036
  105SAPE   H5R10731   3.778   2.325   2.299  2.0866  1.5872 -0.4861
  105SAPE   C2610732   3.805   2.167   2.431 -0.0114 -0.4804 -0.7542
  105SAPE   H6R10733   3.748   2.098   2.367 -1.0370 -1.0250  0.6755
  105SAPE   C2710734   3.872   2.107   2.554 -0.0138  0.1925 -0.2946
  105SAPE   H7R10735   3.886   2.189   2.628  0.8058  0.3595 -0.6247
  105SAPE   H7S10736   3.975   2.070   2.533  0.5544  1.2040  0.5937
  105SAPE   C2810737   3.789   1.997   2.609 -0.2332  1.1541  0.8193
  105SAPE   H8R10738   3.794   1.915   2.537  3.4889  1.5610  0.3932
  105SAPE   C2910739   3.742   1.966   2.732  0.5846 -0.4590  0.2200
  105SAPE   H9R10740   3.669   1.886   2.752 -1.3629  1.0666 -0.4411
  105SAPE  C21010741   3.772   2.061   2.849 -0.2046  0.5260 -0.2830
  105SAPE  H10R10742   3.722   2.157   2.822 -3.0867 -0.4657  1.1316
  105SAPE  H10S10743   3.880   2.071   2.872 -0.3766 -1.1463  1.5278
  105SAPE  C21110744   3.720   2.002   2.978 -0.4300 -0.1423  0.2399
  105SAPE  H11R10745   3.717   1.892   2.981  1.7933 -0.2439  0.7849
  105SAPE  C21210746   3.697   2.063   3.095  0.4393  0.1061  0.5843
  105SAPE  H12R10747   3.655   2.007   3.179 -2.2705  0.8758 -0.1682
  105SAPE  C21310748   3.716   2.213   3.111 -0.4119  0.2802 -0.4364
  105SAPE  H13R10749   3.765   2.258   3.022  1.5739  2.7301  1.7200
  105SAPE  H13S10750   3.785   2.237   3.194 -0.7049 -2.1708  0.6039
  105SAPE  C21410751   3.584   2.275   3.123 -0.6406 -0.4010  0.1058
  105SAPE  H14R10752   3.531   2.283   3.027  0.6364 -0.4200 -0.6204
  105SAPE  C21510753   3.520   2.286   3.240  0.3680  0.0877 -0.0679
  105SAPE  H15R10754   3.434   2.354   3.248  1.3259  1.5355 -1.4030
  105SAPE  C21610755   3.581   2.258   3.373 -0.4008  0.9447 -0.1061
  105SAPE  H16R10756   3.552   2.342   3.440 -0.1023  0.5447  0.5368
  105SAPE  H16S10757   3.692   2.253   3.371 -0.4378 -2.5117 -0.0618
  105SAPE  C21710758   3.537   2.122   3.438 -0.3918  0.6124 -0.3991
  105SAPE  H17R10759   3.559   2.034   3.375  1.2318 -0.0756  1.0572
  105SAPE  H17S10760   3.427   2.133   3.453 -0.4752  1.7313 -1.6363
  105SAPE  C21810761   3.614   2.098   3.570 -0.4296 -0.6761  0.6696
  105SAPE  H18R10762   3.553   2.051   3.650  1.2244 -1.4385  1.5466
  105SAPE  H18S10763   3.638   2.199   3.609  2.8945 -0.6358 -1.0656
  105SAPE  C21910764   3.749   2.027   3.541 -0.1593  0.5682 -0.2101
  105SAPE  H19R10765   3.820   2.042   3.624  1.5640 -0.3341 -1.4648
  105SAPE  H19S10766   3.789   2.057   3.442  0.6528 -0.5894 -0.2518
  105SAPE  C22010767   3.724   1.869   3.522  0.0380 -0.3377  0.0509
  105SAPE  H20R10768   3.645   1.855   3.445  0.4072 -0.9448 -0.2175
  105SAPE  H20S10769   3.695   1.821   3.618 -2.0898 -0.6117 -0.6624
  105SAPE  H20T10770   3.817   1.819   3.489 -0.0734 -0.3653 -0.2325
  105SAPE   C3310771   4.294   2.828   2.663  0.2477  0.6600  0.6686
  105SAPE   H3X10772   4.224   2.914   2.654 -0.5680 -0.0369  0.1650
  105SAPE   H3Y10773   4.393   2.875   2.683 -0.9051  2.5570  2.2929
  105SAPE   C3410774   4.249   2.748   2.789 -0.2434  0.2363  0.7593
  105SAPE   H4X10775   4.331   2.680   2.820 -0.6124 -0.4289  0.3080
  105SAPE   H4Y10776   4.162   2.681   2.774  1.0973 -1.4454  0.1683
  105SAPE   C3510777   4.230   2.843   2.908  0.5990 -0.2119  0.5291
  105SAPE   H5X10778   4.159   2.920   2.870  0.1554 -1.5250 -1.4800
  105SAPE   H5Y10779   4.322   2.891   2.947  0.3289 -0.1138  1.0536
  105SAPE   C3610780   4.151   2.784   3.027 -0.2499  0.0861 -0.8415
  105SAPE   H6X10781   4.185   2.681   3.050  2.0901  0.9144 -0.3095
  105SAPE   H6Y10782   4.045   2.780   2.994 -0.7275  0.6168  0.5702
  105SAPE   C3710783   4.170   2.863   3.149  0.4869 -0.3903  0.2298
  105SAPE   H7X10784   4.155   2.969   3.120 -0.6106 -0.1485  1.5549
  105SAPE   H7Y10785   4.276   2.847   3.179  0.2135 -0.0084  1.4914
  105SAPE   C3810786   4.085   2.818   3.267  0.2850  0.1280 -0.6847
  105SAPE   H8X10787   4.089   2.707   3.267  1.8490  0.1299  1.6378
  105SAPE   H8Y10788   3.978   2.842   3.248  0.7382  2.2078 -0.8484
  105SAPE   C3910789   4.128   2.875   3.404  0.0954 -1.0302 -0.1806
  105SAPE   H9X10790   4.124   2.986   3.402  0.4375 -1.0062 -2.6632
  105SAPE   H9Y10791   4.235   2.844   3.413  0.0089 -1.1422  0.5157
  105SAPE  C31010792   4.050   2.819   3.522 -1.1558 -0.7088  0.0911
  105SAPE  H10X10793   4.037   2.710   3.510  0.0063 -0.8382 -0.1432
  105SAPE  H10Y10794   3.950   2.865   3.514 -1.1656 -0.9052 -1.0186
  105SAPE  C31110795   4.121   2.852   3.651  0.4573 -0.2648 -0.1096
  105SAPE  H11X10796   4.152   2.958   3.666 -0.6340 -0.2125  2.2897
  105SAPE  H11Y10797   4.213   2.792   3.662  0.7281  0.2595  0.5552
  105SAPE  C31210798   4.035   2.820   3.775 -0.1895  0.5943  0.5702
  105SAPE  H12X10799   3.971   2.731   3.759  1.1508 -0.2478 -0.2760
  105SAPE  H12Y10800   3.966   2.906   3.791 -0.0315  0.8178  0.0631
  105SAPE  C31310801   4.114   2.786   3.898  0.3883  0.3747 -0.4095
  105SAPE  H13X10802   4.171   2.880   3.918 -0.6860  1.1452 -0.8714
  105SAPE  H13Y10803   4.195   2.712   3.884  0.8750  0.8895 -0.3492
  105SAPE  C31410804   4.036   2.743   4.022  0.1845 -0.0067  0.0612
  105SAPE  H14X10805   3.983   2.646   4.008  0.9265 -0.7911  2.2679
  105SAPE  H14Y10806   3.958   2.818   4.044  0.4317 -0.0700  1.2002
  105SAPE  C31510807   4.125   2.719   4.139  0.1011  0.7210 -0.0892
  105SAPE  H15X10808   4.055   2.700   4.223 -1.2305  0.2266 -1.2831
  105SAPE  H15Y10809   4.201   2.796   4.165  0.0356  1.5568 -2.1687
  105SAPE  C31610810   4.201   2.573   4.136 -0.7585  0.2103 -0.0338
  105SAPE  H16X10811   4.277   2.578   4.055  0.0955 -0.8540  0.6649
  105SAPE  H16Y10812   4.124   2.498   4.108  0.6258 -0.3180 -2.7125
  105SAPE  C31710813   4.275   2.537   4.273 -0.6424 -0.0574  0.4484
  105SAPE  H17X10814   4.341   2.623   4.297 -1.2323  0.0674  1.7464
  105SAPE  H17Y10815   4.335   2.445   4.256 -0.2174  0.4173 -0.7315
  105SAPE  C31810816   4.187   2.513   4.392 -0.3862 -0.6542 -0.2369
  105SAPE  H18X10817   4.231   2.512   4.494  0.6255  1.5864 -0.5949
  105SAPE  H18Y10818   4.129   2.421   4.370 -0.5972 -0.8349  1.0359
  105SAPE  H18Z10819   4.104   2.587   4.403  1.0442  0.7888  1.3689
  106SAPE     N10820   4.864   4.516   1.911  0.6213  0.2817  0.0525
  106SAPE   HN110821   4.870   4.413   1.925 -2.1790  0.2082  1.3697
  106SAPE   HN210822   4.825   4.559   1.997 -0.9830 -0.9652 -0.0139
  106SAPE   HN310823   4.800   4.524   1.829  0.8817 -3.0536 -0.6180
  106SAPE   C1210824   4.997   4.565   1.862  0.0707  0.0433 -0.1676
  106SAPE  H12A10825   4.983   4.676   1.859 -2.1821 -0.2104 -1.1020
  106SAPE  H12B10826   5.034   4.523   1.766 -0.6764  0.3860 -0.6168
  106SAPE   C1110827   5.110   4.529   1.963 -0.0935 -0.3060  0.1057
  106SAPE  H11A10828   5.208   4.546   1.915 -0.1230 -1.9958 -0.6440
  106SAPE  H11B10829   5.091   4.421   1.982 -0.5080 -0.4868 -1.2438
  106SAPE     P10830   5.183   4.736   2.114  0.1771 -0.1692 -0.0912
  106SAPE   O1310831   5.317   4.699   2.169 -0.4479 -0.2350  0.6390
  106SAPE   O1410832   5.168   4.827   1.994  0.6262 -0.0405  0.0565
  106SAPE   O1210833   5.100   4.604   2.088 -0.3069  0.3955 -0.4319
  106SAPE   O1110834   5.102   4.808   2.237  0.2041 -0.0078  0.2001
  106SAPE    C110835   4.984   4.887   2.232  0.4850  0.7819 -0.4762
  106SAPE    HA10836   4.978   4.954   2.143 -2.2389 -0.9440 -1.7276
  106SAPE    HB10837   4.907   4.811   2.206  2.2477 -1.6059  0.8195
  106SAPE    C210838   4.960   4.965   2.361  0.9886 -0.8489 -0.1499
  106SAPE    HS10839   5.036   5.047   2.366 -0.3785  0.4645 -0.3373
  106SAPE   O2110840   4.964   4.886   2.483  0.2124  0.1440  0.6609
  106SAPE   C2110841   4.993   4.957   2.597  0.4377 -0.2223  0.7102
  106SAPE   O2210842   5.040   5.063   2.610 -0.6566  0.3642  0.4033
  106SAPE   C2210843   4.944   4.872   2.709 -0.0301 -0.4115  0.5098
  106SAPE   H2R10844   5.003   4.778   2.716 -1.1156 -1.0318  1.8762
  106SAPE   H2S10845   4.958   4.938   2.798  2.4504 -0.1671  0.0197
  106SAPE    C310846   4.821   5.044   2.352  0.2378 -0.3814  0.0771
  106SAPE    HX10847   4.745   4.969   2.383  0.0940 -0.4523 -0.4422
  106SAPE    HY10848   4.809   5.070   2.244  4.3553 -2.6419 -1.1377
  106SAPE   O3110849   4.812   5.151   2.440  0.0766  0.4384 -0.5434
  106SAPE   C3110850   4.856   5.275   2.395  0.0965 -0.2523  0.0623
  106SAPE   O3210851   4.931   5.291   2.301 -0.0119 -0.6274  0.5138
  106SAPE   C3210852   4.808   5.377   2.488 -0.5382 -0.4550  0.0476
  106SAPE   H2X10853   4.699   5.362   2.504 -0.4933  0.6577  1.5620
  106SAPE   H2Y10854   4.823   5.477   2.440  3.2092 -1.4184 -1.1744
  106SAPE   C2310855   4.791   4.828   2.705  0.1300  0.3179 -0.6110
  106SAPE   H3R10856   4.772   4.762   2.617 -0.0030 -1.4959  0.7199
  106SAPE   H3S10857   4.734   4.923   2.697  0.1044  0.5929  2.0377
  106SAPE   C2410858   4.747   4.755   2.835 -0.0615  0.6592 -0.3000
  106SAPE   H4R10859   4.636   4.761   2.835 -0.1629 -0.3009  1.8110
  106SAPE   H4S10860   4.785   4.801   2.929  0.8428 -0.4005 -0.1305
  106SAPE   C2510861   4.788   4.610   2.829  0.2215 -0.0346 -0.2435
  106SAPE   H5R10862   4.719   4.550   2.767  0.9327 -1.2063  0.0643
  106SAPE   C2610863   4.889   4.544   2.887 -0.8600 -0.1264  0.3187
  106SAPE   H6R10864   4.893   4.435   2.870  0.9185 -0.2862  1.5072
  106SAPE   C2710865   4.982   4.596   2.994 -0.6594 -1.0206  0.1648
  106SAPE   H7R10866   4.925   4.663   3.062  1.3828  0.7893  0.2330
  106SAPE   H7S10867   5.049   4.657   2.928  0.1850 -1.0777  0.9567
  106SAPE   C2810868   5.070   4.495   3.062 -0.2705 -0.5667 -0.2413
  106SAPE   H8R10869   5.063   4.392   3.023  1.1458 -0.6391 -0.3705
  106SAPE   C2910870   5.134   4.514   3.183  0.2027  0.2858  0.4903
  106SAPE   H9R10871   5.193   4.435   3.230 -1.3275 -0.8693  0.5755
  106SAPE  C21010872   5.130   4.636   3.277  0.1604  0.5058  0.2687
  106SAPE  H10R10873   5.129   4.721   3.206  0.3552 -2.1560 -3.1870
  106SAPE  H10S10874   5.231   4.644   3.323 -0.1066 -0.3653  1.0455
  106SAPE  C21110875   5.022   4.635   3.394  0.8591  0.1702 -0.6243
  106SAPE  H11R10876   4.918   4.617   3.361  1.2289  0.1774 -1.8507
  106SAPE  C21210877   5.045   4.669   3.527 -0.3678  0.5455 -0.8113
  106SAPE  H12R10878   4.960   4.659   3.597  0.9922  0.5413  0.9281
  106SAPE  C21310879   5.178   4.711   3.592  1.0092  0.2990  0.5434
  106SAPE  H13R10880   5.158   4.791   3.666  0.5432 -0.5943  1.3945
  106SAPE  H13S10881   5.232   4.754   3.505 -2.6644  2.1015 -1.0992
  106SAPE  C21410882   5.250   4.591   3.650  0.1892  0.3742  0.3033
  106SAPE  H14R10883   5.237   4.502   3.587 -1.9480 -0.7599  2.2164
  106SAPE  C21510884   5.313   4.579   3.767  0.3454  0.3929 -0.0684
  106SAPE  H15R10885   5.347   4.485   3.814  0.8002  1.9157  2.8850
  106SAPE  C21610886   5.344   4.693   3.857  0.3202 -0.0183  0.0082
  106SAPE  H16R10887   5.247   4.738   3.886  0.0931 -0.3675 -0.2062
  106SAPE  H16S10888   5.403   4.769   3.802 -1.2762 -0.0868 -1.8997
  106SAPE  C21710889   5.405   4.652   3.997  0.1801 -0.7580  0.0747
  106SAPE  H17R10890   5.435   4.742   4.054  0.4682 -1.5263  1.1635
  106SAPE  H17S10891   5.498   4.596   3.970  0.1797  0.2291 -2.2850
  106SAPE  C21810892   5.315   4.571   4.085 -0.0118  0.5302  0.0264
  106SAPE  H18R10893   5.299   4.466   4.052  2.5561  0.1742 -0.3225
  106SAPE  H18S10894   5.215   4.618   4.095  1.2635  3.2299  0.9415
  106SAPE  C21910895   5.375   4.543   4.221 -0.3317  0.6801 -0.1014
  106SAPE  H19R10896   5.482   4.530   4.194 -0.0676  0.9469  0.7939
  106SAPE  H19S10897   5.342   4.445   4.264  0.2892  0.5655  0.1148
  106SAPE  C22010898   5.369   4.643   4.326 -0.5455 -0.4307  0.4572
  106SAPE  H20R10899   5.450   4.618   4.398 -0.8174 -1.4030  0.4395
  106SAPE  H20S10900   5.280   4.632   4.391 -0.9492  2.1163  0.4378
  106SAPE  H20T10901   5.368   4.746   4.284  1.7203 -0.7632 -0.5696
  106SAPE   C3310902   4.875   5.378   2.625 -0.3176  0.3111 -0.0287
  106SAPE   H3X10903   4.981   5.399   2.599 -0.2964 -1.1437 -1.2606
  106SAPE   H3Y10904   4.874   5.280   2.676  0.9752 -0.3427 -1.1932
  106SAPE   C3410905   4.818   5.485   2.718 -0.3363  0.0461 -0.8895
  106SAPE   H4X10906   4.709   5.463   2.724 -0.6513  1.1518 -2.0043
  106SAPE   H4Y10907   4.827   5.587   2.675  0.9798 -0.4530 -1.8828
  106SAPE   C3510908   4.887   5.481   2.859 -0.1050 -0.2354 -0.1103
  106SAPE   H5X10909   4.992   5.517   2.846 -0.6623  3.1819  3.0250
  106SAPE   H5Y10910   4.882   5.377   2.895  1.9083 -0.1016  0.7021
  106SAPE   C3610911   4.823   5.571   2.963 -0.2505  0.8033 -1.4866
  106SAPE   H6X10912   4.717   5.537   2.965 -0.6389  2.0052 -1.1593
  106SAPE   H6Y10913   4.828   5.679   2.938 -0.1082  0.9733 -0.7429
  106SAPE   C3710914   4.879   5.566   3.111 -0.8647  0.1147 -0.2807
  106SAPE   H7X10915   4.874   5.467   3.162  1.2369  0.6171  1.0349
  106SAPE   H7Y10916   4.819   5.639   3.167 -0.6281  0.5214 -0.5533
  106SAPE   C3810917   5.032   5.609   3.122  0.0616  0.0927 -0.5368
  106SAPE   H8X10918   5.042   5.705   3.067 -0.1771  0.8331  0.6736
  106SAPE   H8Y10919   5.087   5.531   3.065 -1.7606 -2.4654  1.0045
  106SAPE   C3910920   5.082   5.635   3.268  0.0512 -0.1649  0.3088
  106SAPE   H9X10921   4.991   5.642   3.331 -1.3984  0.7940 -1.7551
  106SAPE   H9Y10922   5.140   5.728   3.283  0.1673  0.1631 -1.7664
  106SAPE  C31010923   5.164   5.522   3.314  0.1568  0.1012 -0.0213
  106SAPE  H10X10924   5.257   5.531   3.253  0.6321  0.6826  0.7558
  106SAPE  H10Y10925   5.099   5.433   3.306  1.2172 -0.8164  1.1669
  106SAPE  C31110926   5.215   5.553   3.456 -0.1133 -0.4844  0.0098
  106SAPE  H11X10927   5.273   5.648   3.456 -0.1740 -0.2971  3.8937
  106SAPE  H11Y10928   5.294   5.481   3.484  0.4871 -0.0428 -0.5184
  106SAPE  C31210929   5.117   5.548   3.575  0.3266  0.3768 -1.0564
  106SAPE  H12X10930   5.024   5.604   3.550  0.5155 -0.3390 -3.6418
  106SAPE  H12Y10931   5.174   5.590   3.661  0.4257  0.3440 -1.1055
  106SAPE  C31310932   5.104   5.407   3.622  0.2317 -0.3389  0.0080
  106SAPE  H13X10933   5.201   5.358   3.648  1.1096 -0.1370 -2.5978
  106SAPE  H13Y10934   5.053   5.347   3.544 -1.3119 -1.3199  1.6995
  106SAPE  C31410935   5.019   5.389   3.745  0.2613  0.3731 -0.5909
  106SAPE  H14X10936   5.029   5.285   3.782 -0.5012  0.1822 -0.9233
  106SAPE  H14Y10937   4.914   5.400   3.711  0.3271 -1.3024 -1.4607
  106SAPE  C31510938   5.058   5.479   3.862 -0.2127  1.0720  0.3142
  106SAPE  H15X10939   5.057   5.589   3.845 -3.7954  0.9590 -1.1818
  106SAPE  H15Y10940   5.162   5.448   3.886 -0.4444 -1.6868 -1.7564
  106SAPE  C31610941   4.958   5.452   3.980 -0.5024 -0.7219  0.3348
  106SAPE  H16X10942   4.956   5.341   3.985  0.0046 -0.7889 -0.6566
  106SAPE  H16Y10943   4.865   5.495   3.937  0.9230  0.2495 -2.0112
  106SAPE  C31710944   4.994   5.526   4.111 -0.4129 -0.6012 -0.7817
  106SAPE  H17X10945   4.989   5.636   4.098  0.4635 -0.3621  0.7246
  106SAPE  H17Y10946   5.098   5.495   4.138 -0.6442 -1.3723 -0.7602
  106SAPE  C31810947   4.902   5.484   4.222  0.0016 -0.2179  0.1620
  106SAPE  H18X10948   4.958   5.487   4.318  1.2597  0.2347 -0.5618
  106SAPE  H18Y10949   4.859   5.381   4.220  1.1467 -0.8188  2.2714
  106SAPE  H18Z10950   4.825   5.561   4.242 -0.6178 -0.4325 -1.3283
  107SAPE     N10951   0.741   2.078   2.540 -0.0091 -0.2839 -1.0962
  107SAPE   HN110952   0.837   2.104   2.511 -0.0874  1.9991  0.4491
  107SAPE   HN210953   0.747   2.049   2.640 -0.4002 -1.4424 -1.3939
  107SAPE   HN310954   0.705   2.006   2.474 -0.5192  0.4122 -1.6005
  107SAPE   C1210955   0.668   2.212   2.528 -0.1270  0.0946  0.4616
  107SAPE  H12A10956   0.681   2.244   2.422  2.5506  0.1809  0.7653
  107SAPE  H12B10957   0.738   2.283   2.576  0.3083 -0.5040  0.7151
  107SAPE   C1110958   0.527   2.192   2.581 -0.1393  0.8367  0.1547
  107SAPE  H11A10959   0.490   2.297   2.578  1.0142  1.3251  1.6379
  107SAPE  H11B10960   0.511   2.162   2.687 -1.9883 -0.5707 -0.4599
  107SAPE     P10961   0.313   2.041   2.539  0.4123  0.1854  0.1561
  107SAPE   O1310962   0.234   2.031   2.414 -0.1204 -0.3963  0.0308
  107SAPE   O1410963   0.350   1.911   2.604 -0.3434  0.1433  0.0065
  107SAPE   O1210964   0.455   2.103   2.493 -0.1750  0.5562 -0.3320
  107SAPE   O1110965   0.239   2.134   2.652  0.2611 -0.0901  0.2370
  107SAPE    C110966   0.185   2.264   2.629  0.3266  0.0025  0.9975
  107SAPE    HA10967   0.244   2.322   2.554 -0.2954 -1.2559 -0.5074
  107SAPE    HB10968   0.081   2.264   2.591  1.4335  1.8114 -2.4898
  107SAPE    C210969   0.182   2.352   2.759  0.4061  0.2883  0.1563
  107SAPE    HS10970   0.130   2.446   2.728  0.4637  0.2781  0.0280
  107SAPE   O2110971   0.315   2.363   2.810  0.3068  0.5256 -0.5078
  107SAPE   C2110972   0.360   2.488   2.823  0.6084 -0.2950  0.3243
  107SAPE   O2210973   0.305   2.587   2.776 -0.1906 -0.1735  0.5667
  107SAPE   C2210974   0.500   2.483   2.898  0.8483 -0.3761 -0.0333
  107SAPE   H2R10975   0.564   2.407   2.847 -1.1880 -1.7942 -0.6272
  107SAPE   H2S10976   0.536   2.584   2.868  1.0119 -0.7194 -1.0496
  107SAPE    C310977   0.094   2.294   2.872  0.3330 -0.1096 -0.0164
  107SAPE    HX10978   0.157   2.218   2.924 -0.4054 -0.5739  0.2258
  107SAPE    HY10979   0.013   2.240   2.820  0.4787  0.4106 -0.7962
  107SAPE   O3110980   0.052   2.396   2.965  0.4877  0.4595  0.2076
  107SAPE   C3110981  -0.068   2.378   3.015  0.2273 -0.2898 -0.3107
  107SAPE   O3210982  -0.155   2.298   2.971  0.0214  0.2789  0.0518
  107SAPE   C3210983  -0.101   2.467   3.141  0.0174 -0.0360  0.2446
  107SAPE   H2X10984  -0.092   2.569   3.098 -0.9006 -0.3719 -0.7870
  107SAPE   H2Y10985  -0.019   2.448   3.213  1.2285  1.3875 -0.7142
  107SAPE   C2310986   0.506   2.477   3.052 -0.2760 -0.4107  0.5200
  107SAPE   H3R10987   0.432   2.547   3.096  1.0396  1.7518 -0.5318
  107SAPE   H3S10988   0.608   2.509   3.081 -0.7745  1.4453  0.3664
  107SAPE   C2410989   0.479   2.339   3.101  0.5430  0.1780  0.4025
  107SAPE   H4R10990   0.567   2.281   3.063  0.9261  0.7027  0.4715
  107SAPE   H4S10991   0.384   2.297   3.063 -0.4301  0.7102  2.1481
  107SAPE   C2510992   0.482   2.323   3.254  0.1500 -0.1767 -0.0503
  107SAPE   H5R10993   0.586   2.314   3.288  0.3439  0.1754 -0.5412
  107SAPE   C2610994   0.376   2.315   3.335  0.1178 -0.5148 -0.1384
  107SAPE   H6R10995   0.400   2.307   3.442 -0.6788 -0.8260  0.0256
  107SAPE   C2710996   0.229   2.321   3.297 -0.3790 -0.1037 -0.6284
  107SAPE   H7R10997   0.203   2.384   3.209 -3.5837 -0.9983 -0.4301
  107SAPE   H7S10998   0.184   2.384   3.376 -3.2807 -0.5654 -1.8055
  107SAPE   C2810999   0.165   2.189   3.279 -0.8924 -0.3901 -0.0188
  107SAPE   H8R11000   0.198   2.127   3.194 -0.3393 -0.0739 -0.0381
  107SAPE   C2911001   0.085   2.134   3.372 -0.9594  0.7666 -0.3703
  107SAPE   H9R11002   0.031   2.044   3.337 -1.6832  0.9410  0.2723
  107SAPE  C21011003   0.041   2.201   3.497 -0.0235 -0.2459 -0.3412
  107SAPE  H10R11004  -0.056   2.253   3.484  0.1876  0.3343  0.2924
  107SAPE  H10S11005   0.108   2.282   3.533 -0.4834 -0.7481  1.8105
  107SAPE  C21111006   0.045   2.100   3.608 -0.2720 -0.3643  0.3688
  107SAPE  H11R11007   0.079   1.999   3.583 -0.0517  0.0043 -0.9197
  107SAPE  C21211008   0.003   2.124   3.737  0.1996 -0.0383  0.1605
  107SAPE  H12R11009   0.010   2.037   3.804 -1.2791 -1.0006 -0.8589
  107SAPE  C21311010  -0.026   2.252   3.809  0.7213 -0.2380 -0.3093
  107SAPE  H13R11011  -0.129   2.237   3.848  0.7932  2.1121  0.8981
  107SAPE  H13S11012  -0.035   2.332   3.733 -3.5853 -0.1400  0.0674
  107SAPE  C21411013   0.074   2.276   3.924  0.1430 -0.2848  0.2544
  107SAPE  H14R11014   0.170   2.315   3.888  0.0083  1.0638  1.2783
  107SAPE  C21511015   0.068   2.265   4.055  0.0912 -0.2195 -0.5041
  107SAPE  H15R11016   0.162   2.294   4.105  2.0131 -1.9522 -2.8754
  107SAPE  C21611017  -0.052   2.220   4.134 -0.9493 -0.4435  0.2596
  107SAPE  H16R11018  -0.141   2.199   4.072 -0.8665  0.5461 -0.2081
  107SAPE  H16S11019  -0.085   2.303   4.201  1.8596 -0.1486  1.4234
  107SAPE  C21711020  -0.010   2.114   4.236  0.3569 -0.8245  0.0842
  107SAPE  H17R11021  -0.097   2.103   4.305  0.2555 -1.2510 -0.1087
  107SAPE  H17S11022   0.077   2.147   4.297 -0.9264  0.5035  1.2968
  107SAPE  C21811023   0.013   1.974   4.173  0.0451  0.2177 -0.6469
  107SAPE  H18R11024   0.040   1.921   4.266  1.3116 -0.7894 -1.5620
  107SAPE  H18S11025   0.103   1.987   4.110  0.5788 -0.1717  0.0230
  107SAPE  C21911026  -0.112   1.927   4.099  0.2792  0.4349 -0.1342
  107SAPE  H19R11027  -0.117   1.980   4.002 -1.6891 -2.9296 -2.0959
  107SAPE  H19S11028  -0.198   1.955   4.163  0.1276  0.4699 -0.3502
  107SAPE  C22011029  -0.126   1.773   4.072  0.2479 -0.1546  0.2918
  107SAPE  H20R11030  -0.109   1.720   4.168  2.8194 -1.2667 -0.6934
  107SAPE  H20S11031  -0.043   1.744   4.004 -0.0679 -0.9366  0.2338
  107SAPE  H20T11032  -0.227   1.746   4.035  0.4554 -0.8996  0.2547
  107SAPE   C3311033  -0.234   2.431   3.215  0.5592 -0.0470  0.4444
  107SAPE   H3X11034  -0.237   2.322   3.197  1.9291  0.2411 -1.8560
  107SAPE   H3Y11035  -0.313   2.489   3.162  0.6864 -0.3744 -0.1084
  107SAPE   C3411036  -0.231   2.444   3.369 -0.0720  0.3701 -0.4782
  107SAPE   H4X11037  -0.125   2.444   3.401  0.1931  2.0604 -1.2155
  107SAPE   H4Y11038  -0.270   2.348   3.409  0.0865 -0.2441 -1.7490
  107SAPE   C3511039  -0.299   2.576   3.418 -0.7355 -0.2278  0.2494
  107SAPE   H5X11040  -0.405   2.581   3.386 -0.4277 -1.7299 -1.1446
  107SAPE   H5Y11041  -0.232   2.656   3.380 -1.2119  0.6062  1.1243
  107SAPE   C3611042  -0.287   2.582   3.565  0.6913  0.5060 -0.0878
  107SAPE   H6X11043  -0.332   2.679   3.594 -3.6705 -1.7078  1.3079
  107SAPE   H6Y11044  -0.179   2.579   3.593  0.0954 -0.7486  2.3346
  107SAPE   C3711045  -0.354   2.465   3.634  0.0916 -0.3740 -0.5355
  107SAPE   H7X11046  -0.284   2.380   3.617 -0.3975 -0.3288 -3.1805
  107SAPE   H7Y11047  -0.444   2.429   3.580 -0.0642  0.4679 -0.8413
  107SAPE   C3811048  -0.395   2.498   3.778 -0.2345 -0.3591 -0.2475
  107SAPE   H8X11049  -0.425   2.398   3.816 -0.1916 -0.4004 -0.3201
  107SAPE   H8Y11050  -0.486   2.559   3.764  0.1774 -0.1253 -2.3846
  107SAPE   C3911051  -0.301   2.575   3.877 -0.1106  0.0402  0.6489
  107SAPE   H9X11052  -0.289   2.676   3.831 -0.2965 -1.6152 -3.4956
  107SAPE   H9Y11053  -0.201   2.529   3.881 -0.1268 -0.1115 -0.2809
  107SAPE  C31011054  -0.361   2.577   4.016 -0.1037  0.1138  0.3093
  107SAPE  H10X11055  -0.470   2.597   4.013 -0.1273 -0.0073  0.3555
  107SAPE  H10Y11056  -0.314   2.660   4.073  0.5189  0.6204 -0.8999
  107SAPE  C31111057  -0.339   2.443   4.093 -0.1134  0.5806 -0.4489
  107SAPE  H11X11058  -0.229   2.437   4.110 -0.5303  0.1476  2.5815
  107SAPE  H11Y11059  -0.372   2.354   4.035 -0.9586  0.8207 -0.3535
  107SAPE  C31211060  -0.414   2.436   4.222  0.6998  0.0042  0.1459
  107SAPE  H12X11061  -0.521   2.439   4.194 -0.2898  1.9999  3.5819
  107SAPE  H12Y11062  -0.415   2.530   4.281  0.4389 -1.0669  1.9185
  107SAPE  C31311063  -0.379   2.323   4.327 -1.1518 -0.7038  0.1412
  107SAPE  H13X11064  -0.279   2.326   4.375 -1.1283 -3.0232  0.3827
  107SAPE  H13Y11065  -0.353   2.237   4.262 -0.1504 -0.0884 -0.3034
  107SAPE  C31411066  -0.487   2.304   4.439 -0.6504  0.2741 -0.0861
  107SAPE  H14X11067  -0.536   2.204   4.435 -1.5592  0.6424  1.3469
  107SAPE  H14Y11068  -0.567   2.380   4.424 -0.4752  0.1761 -1.6791
  107SAPE  C31511069  -0.437   2.331   4.580  0.4182 -0.1763 -0.4765
  107SAPE  H15X11070  -0.352   2.260   4.590  0.8087 -0.0079 -2.3553
  107SAPE  H15Y11071  -0.514   2.315   4.659  2.4570  2.1105  2.2251
  107SAPE  C31611072  -0.381   2.474   4.597  0.0789 -0.2107  0.0946
  107SAPE  H16X11073  -0.466   2.543   4.581 -0.8082 -0.8739  1.7450
  107SAPE  H16Y11074  -0.299   2.494   4.524  0.1454 -2.8789 -0.6809
  107SAPE  C31711075  -0.334   2.494   4.744  0.3626  0.6133  0.7634
  107SAPE  H17X11076  -0.304   2.601   4.753  1.5386  0.2614  1.1396
  107SAPE  H17Y11077  -0.249   2.424   4.757  0.1016  0.4419  1.5548
  107SAPE  C31811078  -0.440   2.465   4.855 -0.0558  0.0343  0.4757
  107SAPE  H18X11079  -0.537   2.513   4.830 -1.2268 -1.7511  1.3816
  107SAPE  H18Y11080  -0.400   2.518   4.944  0.7629 -0.0704  0.1735
  107SAPE  H18Z11081  -0.449   2.355   4.868 -2.6503  0.3300  1.8657
  108SAPE     N11082   6.368   2.350   2.064 -0.5124 -0.5344 -0.3079
  108SAPE   HN111083   6.307   2.290   2.005  0.5219 -0.1415 -1.8225
  108SAPE   HN211084   6.453   2.296   2.087  0.1780 -0.0268 -1.5865
  108SAPE   HN311085   6.327   2.369   2.158 -0.1398  1.0234 -0.4383
  108SAPE   C1211086   6.431   2.473   1.998 -0.0792  0.8630 -0.1291
  108SAPE  H12A11087   6.348   2.532   1.954 -0.1484  0.2499 -0.8383
  108SAPE  H12B11088   6.506   2.441   1.923  0.5631 -2.5518  1.7176
  108SAPE   C1111089   6.513   2.552   2.104  0.4061 -0.9683  0.0384
  108SAPE  H11A11090   6.569   2.635   2.057  3.2914 -2.8814 -0.1279
  108SAPE  H11B11091   6.590   2.492   2.157  0.3286 -0.9584  0.1625
  108SAPE     P11092   6.331   2.745   2.173 -0.1048  0.2166 -0.1854
  108SAPE   O1311093   6.417   2.849   2.112  0.2903  0.2019  0.4226
  108SAPE   O1411094   6.202   2.710   2.108 -0.2115  0.0027 -0.5675
  108SAPE   O1211095   6.420   2.611   2.197  0.1005  0.3802 -0.1950
  108SAPE   O1111096   6.298   2.786   2.325  0.5949  0.8969 -0.0487
  108SAPE    C111097   6.414   2.828   2.409  0.2011 -0.7721 -0.2391
  108SAPE    HA11098   6.510   2.779   2.382  0.8011 -0.0426  0.4920
  108SAPE    HB11099   6.419   2.938   2.400 -1.1171 -0.5351  1.3803
  108SAPE    C211100   6.377   2.804   2.558  0.2935 -0.8576  0.6056
  108SAPE    HS11101   6.460   2.852   2.615  1.5401  1.2208 -2.6733
  108SAPE   O2111102   6.372   2.662   2.578  0.2165  0.2168 -0.0431
  108SAPE   C2111103   6.480   2.592   2.577  0.6353  0.2240 -0.4400
  108SAPE   O2211104   6.594   2.631   2.588 -0.3718 -0.2215  0.8383
  108SAPE   C2211105   6.440   2.444   2.558 -0.1838 -0.2781  0.1635
  108SAPE   H2R11106   6.359   2.439   2.634 -1.1973  1.1468 -0.7794
  108SAPE   H2S11107   6.395   2.426   2.458  0.2243  2.8487 -0.6784
  108SAPE    C311108   6.250   2.881   2.597  0.4288 -0.6844  0.2820
  108SAPE    HX11109   6.167   2.832   2.543 -0.1453 -1.4958  1.8228
  108SAPE    HY11110   6.250   2.984   2.557 -0.2766 -0.6679  0.3073
  108SAPE   O3111111   6.229   2.870   2.736  0.3337  0.0647 -0.3448
  108SAPE   C3111112   6.108   2.928   2.767 -0.6188 -0.0822 -0.0296
  108SAPE   O3211113   6.044   2.993   2.692 -0.0435 -0.4863  0.1155
  108SAPE   C3211114   6.092   2.911   2.921 -0.8601 -0.6782  0.5299
  108SAPE   H2X11115   6.192   2.885   2.962  0.0774  0.3703 -0.9975
  108SAPE   H2Y11116   6.013   2.835   2.939  0.1499 -2.3071 -1.5404
  108SAPE   C2311117   6.559   2.352   2.605  0.1996  0.0229 -0.0693
  108SAPE   H3R11118   6.581   2.381   2.710  2.5016  0.0987 -0.5123
  108SAPE   H3S11119   6.655   2.354   2.548  0.7642 -2.7808  0.6224
  108SAPE   C2411120   6.527   2.200   2.621  0.3800  0.1119  0.9097
  108SAPE   H4R11121   6.444   2.201   2.694 -0.2256  0.3850  0.2315
  108SAPE   H4S11122   6.610   2.168   2.688  0.2882 -0.0601  0.9399
  108SAPE   C2511123   6.501   2.116   2.499 -0.1129 -0.7935 -0.6355
  108SAPE   H5R11124   6.506   2.169   2.403  1.6278  1.6811  0.7029
  108SAPE   C2611125   6.492   1.982   2.496 -0.6326  0.1603  0.8966
  108SAPE   H6R11126   6.469   1.930   2.402 -0.7065 -0.2744  1.1519
  108SAPE   C2711127   6.496   1.896   2.623  0.3415 -0.3166  0.0089
  108SAPE   H7R11128   6.422   1.814   2.625 -0.9502  0.8060  2.3751
  108SAPE   H7S11129   6.481   1.955   2.717 -0.1304 -1.2870  0.5545
  108SAPE   C2811130   6.626   1.822   2.638 -0.2796  0.2118 -0.5740
  108SAPE   H8R11131   6.620   1.734   2.572 -0.2942 -1.9836  2.1178
  108SAPE   C2911132   6.734   1.838   2.723 -0.1945  0.1857  0.1802
  108SAPE   H9R11133   6.825   1.777   2.706  0.4069  1.0432  0.2534
  108SAPE  C21011134   6.765   1.955   2.813 -0.0866 -1.1479  0.3049
  108SAPE  H10R11135   6.672   2.003   2.852  0.2236 -0.5073  0.2695
  108SAPE  H10S11136   6.811   2.039   2.757 -2.6450  2.0696  2.6484
  108SAPE  C21111137   6.858   1.914   2.925  0.7289 -0.0966  0.2199
  108SAPE  H11R11138   6.966   1.935   2.927  0.3243  2.5881 -1.0073
  108SAPE  C21211139   6.801   1.875   3.042 -0.6195 -1.0600 -0.4400
  108SAPE  H12R11140   6.872   1.841   3.119 -0.0993  1.1490  0.1342
  108SAPE  C21311141   6.657   1.852   3.070  0.3721  0.1646  0.1773
  108SAPE  H13R11142   6.655   1.771   3.146  1.7687 -0.7537 -0.7180
  108SAPE  H13S11143   6.605   1.802   2.985 -2.3209  0.5696  1.4808
  108SAPE  C21411144   6.580   1.967   3.114 -0.2610  0.2547 -0.0480
  108SAPE  H14R11145   6.565   2.044   3.037 -1.2021  0.0285 -0.1028
  108SAPE  C21511146   6.550   2.009   3.235  0.8123  0.7415 -1.0069
  108SAPE  H15R11147   6.484   2.097   3.245  0.0637  0.4982 -3.2842
  108SAPE  C21611148   6.570   1.930   3.367  0.7687  0.6491  0.7505
  108SAPE  H16R11149   6.679   1.916   3.381  1.0039  2.3232  0.8324
  108SAPE  H16S11150   6.525   1.830   3.352  4.5448 -0.9479 -1.0909
  108SAPE  C21711151   6.516   2.009   3.481  0.7611 -0.2632  0.0407
  108SAPE  H17R11152   6.412   2.043   3.460 -0.2497 -3.2348 -0.3100
  108SAPE  H17S11153   6.573   2.101   3.505 -2.8597  2.4327 -0.6949
  108SAPE  C21811154   6.504   1.920   3.612 -0.0414  0.0201 -0.2118
  108SAPE  H18R11155   6.606   1.891   3.644  0.2582  0.3903 -0.8025
  108SAPE  H18S11156   6.451   1.827   3.580  2.4151 -1.8640  0.8488
  108SAPE  C21911157   6.430   1.999   3.721 -0.4841  0.3182  0.2348
  108SAPE  H19R11158   6.323   2.016   3.695 -0.4232  0.4680  0.0852
  108SAPE  H19S11159   6.475   2.099   3.738 -0.7731  0.3010  1.1914
  108SAPE  C22011160   6.435   1.923   3.847 -0.3178 -0.6992  0.3030
  108SAPE  H20R11161   6.539   1.939   3.883 -0.4317  2.3101 -0.4507
  108SAPE  H20S11162   6.398   1.820   3.828 -0.4144 -0.7614  0.8045
  108SAPE  H20T11163   6.351   1.958   3.911 -1.3043 -0.6843 -0.9643
  108SAPE   C3311164   6.039   3.044   2.985  0.1415 -0.1913  0.4350
  108SAPE   H3X11165   5.956   3.084   2.924 -0.4540 -1.9305  0.0329
  108SAPE   H3Y11166   6.119   3.120   2.985 -0.7814  0.8008  0.4532
  108SAPE   C3411167   5.988   3.005   3.130  0.1223  0.0146  0.3029
  108SAPE   H4X11168   6.077   2.994   3.196  0.8148 -1.8147 -0.8598
  108SAPE   H4Y11169   5.940   2.905   3.127  1.7169 -0.7980  0.4922
  108SAPE   C3511170   5.902   3.115   3.192  0.0796 -0.2694  0.2351
  108SAPE   H5X11171   5.942   3.211   3.151  1.2939 -1.7647 -2.2996
  108SAPE   H5Y11172   5.794   3.103   3.170  0.1353 -0.5771  0.1318
  108SAPE   C3611173   5.927   3.120   3.344 -0.2574 -0.1390 -0.7147
  108SAPE   H6X11174   5.880   3.214   3.379  0.5665 -0.6177  1.8949
  108SAPE   H6Y11175   6.036   3.132   3.360 -0.6532  0.7363  1.7144
  108SAPE   C3711176   5.889   2.995   3.428 -0.0417 -0.3918  0.0928
  108SAPE   H7X11177   5.963   2.922   3.388 -0.7210 -0.2896 -1.4494
  108SAPE   H7Y11178   5.788   2.961   3.398  0.2830 -3.3930  1.9818
  108SAPE   C3811179   5.907   3.024   3.573 -0.1667  0.6072 -1.0116
  108SAPE   H8X11180   6.016   3.032   3.594  0.1126 -3.7817  0.1233
  108SAPE   H8Y11181   5.873   2.937   3.633 -1.8622  0.8909 -1.5168
  108SAPE   C3911182   5.828   3.139   3.627  0.6092 -0.9853  0.6023
  108SAPE   H9X11183   5.729   3.143   3.576 -0.1384  0.6562  2.0733
  108SAPE   H9Y11184   5.868   3.241   3.611 -1.9906  0.4245  2.3947
  108SAPE  C31011185   5.807   3.129   3.781 -0.0608  0.4068 -0.5856
  108SAPE  H10X11186   5.904   3.119   3.834 -1.0610 -1.1817  1.0466
  108SAPE  H10Y11187   5.755   3.032   3.798  2.1506 -1.0230 -1.6108
  108SAPE  C31111188   5.729   3.244   3.842  0.6109 -0.5323  0.4686
  108SAPE  H11X11189   5.685   3.301   3.757  1.3623  0.1397  0.5183
  108SAPE  H11Y11190   5.806   3.310   3.888 -0.2136  0.8182 -0.0419
  108SAPE  C31211191   5.616   3.199   3.939  0.2430 -0.3098 -0.2233
  108SAPE  H12X11192   5.636   3.103   3.992 -0.7347 -0.9445 -0.9537
  108SAPE  H12Y11193   5.525   3.180   3.878 -0.4574 -0.6986  0.9283
  108SAPE  C31311194   5.591   3.304   4.038 -0.3602  0.0919 -0.2702
  108SAPE  H13X11195   5.487   3.341   4.047 -0.0696  0.4728  2.1802
  108SAPE  H13Y11196   5.644   3.398   4.011  0.3220  0.3377  1.7596
  108SAPE  C31411197   5.648   3.276   4.183  0.3405 -0.1901  0.2688
  108SAPE  H14X11198   5.757   3.261   4.166  0.2788 -0.6403  0.2740
  108SAPE  H14Y11199   5.605   3.190   4.239  0.0859 -0.6148 -0.5740
  108SAPE  C31511200   5.653   3.398   4.280 -1.0727  0.3400  0.3913
  108SAPE  H15X11201   5.550   3.435   4.299 -2.1838 -2.9377  1.4074
  108SAPE  H15Y11202   5.705   3.478   4.223 -1.9013  0.6709  0.0729
  108SAPE  C31611203   5.729   3.352   4.407  0.6727  0.1342 -0.0911
  108SAPE  H16X11204   5.809   3.278   4.389  0.0997  0.0919 -2.8330
  108SAPE  H16Y11205   5.653   3.301   4.470  0.5477  0.6604  0.1982
  108SAPE  C31711206   5.798   3.467   4.487  0.3985  0.0249  0.5298
  108SAPE  H17X11207   5.821   3.547   4.415  0.1021  1.0232  1.5168
  108SAPE  H17Y11208   5.890   3.418   4.527 -0.6705 -0.6450  2.3257
  108SAPE  C31811209   5.726   3.540   4.613 -0.2046 -0.1961 -0.2238
  108SAPE  H18X11210   5.794   3.600   4.677 -2.3864  1.1289  0.9789
  108SAPE  H18Y11211   5.684   3.468   4.686  1.7384 -1.0612  0.1040
  108SAPE  H18Z11212   5.653   3.619   4.585 -0.1601  0.5519  1.6643
  109SAPE     N11213   2.970   2.087   2.368  0.4402  0.8877  0.4079
  109SAPE   HN111214   2.956   2.190   2.356 -1.8353  0.4408 -1.4891
  109SAPE   HN211215   3.069   2.062   2.351  0.1710 -0.5856  0.8831
  109SAPE   HN311216   2.904   2.045   2.299 -1.3826  0.9758  1.9879
  109SAPE   C1211217   2.916   2.039   2.497  0.4755 -0.4296  0.3573
  109SAPE  H12A11218   2.814   2.079   2.515  0.5092 -0.2066  0.0560
  109SAPE  H12B11219   2.979   2.073   2.582 -1.2494 -2.5393  2.6498
  109SAPE   C1111220   2.912   1.883   2.508 -0.7097  0.8367 -0.2089
  109SAPE  H11A11221   2.911   1.868   2.618 -0.3905  0.5088 -0.2497
  109SAPE  H11B11222   3.011   1.849   2.472 -0.1480  2.0495  0.1608
  109SAPE     P11223   2.755   1.688   2.401 -0.4723  0.1491  0.4405
  109SAPE   O1311224   2.754   1.665   2.258 -0.2649 -0.0172  0.2429
  109SAPE   O1411225   2.836   1.590   2.480 -0.6341 -0.3067  0.5510
  109SAPE   O1211226   2.803   1.834   2.435  0.3009 -0.1845  0.0945
  109SAPE   O1111227   2.604   1.680   2.453  0.7323  0.2941 -0.0067
  109SAPE    C111228   2.529   1.794   2.491 -0.9935 -0.0937 -0.4189
  109SAPE    HA11229   2.559   1.888   2.441 -0.1757  0.5883  1.2422
  109SAPE    HB11230   2.420   1.778   2.479 -1.9215  3.7105  1.3646
  109SAPE    C211231   2.555   1.827   2.642 -0.5276 -0.3005 -1.0887
  109SAPE    HS11232   2.665   1.834   2.654 -0.6561 -0.0070  0.0454
  109SAPE   O2111233   2.483   1.723   2.721 -0.3648  0.3971 -0.3324
  109SAPE   C2111234   2.571   1.653   2.802  0.9139  0.1865  0.0598
  109SAPE   O2211235   2.694   1.674   2.810  0.2842 -0.0573  0.5358
  109SAPE   C2211236   2.486   1.552   2.876  0.4447  0.0398  0.1137
  109SAPE   H2R11237   2.382   1.586   2.897  0.0309 -1.7945  1.2151
  109SAPE   H2S11238   2.481   1.467   2.805  3.7076  1.2426 -1.7670
  109SAPE    C311239   2.478   1.953   2.683  0.4922  0.0274 -1.1804
  109SAPE    HX11240   2.373   1.946   2.649 -0.8257  1.3191  2.2749
  109SAPE    HY11241   2.528   2.039   2.631  2.7577 -1.1587 -1.0911
  109SAPE   O3111242   2.496   1.979   2.829  0.3653 -0.4342 -0.0694
  109SAPE   C3111243   2.380   1.959   2.902  0.7043  0.4829  0.0490
  109SAPE   O3211244   2.271   1.922   2.851  0.4980 -0.4540  0.0606
  109SAPE   C3211245   2.406   1.983   3.047  0.5496  0.0224  0.6589
  109SAPE   H2X11246   2.450   2.085   3.049 -1.8598  1.1495  0.1160
  109SAPE   H2Y11247   2.476   1.916   3.101  1.4386  1.6757  1.6270
  109SAPE   C2311248   2.560   1.494   3.004  0.0203  0.5548  0.0785
  109SAPE   H3R11249   2.658   1.465   2.960 -0.7604 -1.0251 -0.7038
  109SAPE   H3S11250   2.498   1.417   3.055 -0.3953  1.6146  1.2198
  109SAPE   C2411251   2.581   1.598   3.118 -0.4145  0.4681 -0.4078
  109SAPE   H4R11252   2.636   1.682   3.070 -0.0518 -1.5397 -3.8436
  109SAPE   H4S11253   2.643   1.543   3.193  0.3108  1.2928 -0.3869
  109SAPE   C2511254   2.453   1.644   3.190 -0.5658 -0.4873  0.9341
  109SAPE   H5R11255   2.376   1.669   3.116  1.2521 -0.1404 -0.9428
  109SAPE   C2611256   2.440   1.652   3.330 -0.0257  0.0666  0.0281
  109SAPE   H6R11257   2.339   1.685   3.359 -0.2975  1.0563 -1.8711
  109SAPE   C2711258   2.537   1.615   3.434  0.2702  0.3937  0.0695
  109SAPE   H7R11259   2.642   1.597   3.404  1.0231 -0.1221  2.7554
  109SAPE   H7S11260   2.502   1.527   3.492 -1.9363  2.6757  2.4929
  109SAPE   C2811261   2.535   1.725   3.535 -0.3055  0.5929  0.0422
  109SAPE   H8R11262   2.582   1.819   3.502 -1.4664  1.2180  0.1050
  109SAPE   C2911263   2.498   1.738   3.665 -0.2407 -0.4958 -0.4472
  109SAPE   H9R11264   2.520   1.836   3.709 -0.7497 -0.0058 -1.2493
  109SAPE  C21011265   2.440   1.625   3.746 -0.6851  0.1407  0.1333
  109SAPE  H10R11266   2.386   1.551   3.683  0.2483  0.9373 -1.6818
  109SAPE  H10S11267   2.364   1.673   3.812 -0.4337  0.6173  0.0825
  109SAPE  C21111268   2.550   1.557   3.833  0.3164 -0.0416  0.4845
  109SAPE  H11R11269   2.618   1.499   3.769  1.1449  0.3730  0.9799
  109SAPE  C21211270   2.580   1.578   3.960 -0.0238  0.5772 -0.1958
  109SAPE  H12R11271   2.658   1.521   4.012 -0.5209  0.5546  0.5364
  109SAPE  C21311272   2.516   1.675   4.056  0.1180  0.2561  0.0247
  109SAPE  H13R11273   2.408   1.676   4.028 -0.1574  0.5827  1.0323
  109SAPE  H13S11274   2.545   1.780   4.034  1.6447 -0.2591 -0.5528
  109SAPE  C21411275   2.540   1.644   4.202  0.1915  0.0650  0.0296
  109SAPE  H14R11276   2.519   1.542   4.237 -0.2096 -0.0508 -0.5340
  109SAPE  C21511277   2.615   1.716   4.291 -1.0904 -0.0558  0.7738
  109SAPE  H15R11278   2.610   1.679   4.395  0.2184  0.3449  0.9965
  109SAPE  C21611279   2.686   1.845   4.268 -0.1306  0.2927  0.5091
  109SAPE  H16R11280   2.698   1.869   4.161 -1.2431  3.8201  1.0419
  109SAPE  H16S11281   2.788   1.831   4.309  0.5353  1.5176 -0.6678
  109SAPE  C21711282   2.633   1.966   4.343 -0.1458  0.0452 -0.3971
  109SAPE  H17R11283   2.712   2.044   4.354  0.0390 -0.1790 -0.1278
  109SAPE  H17S11284   2.607   1.932   4.446 -2.0899  0.2541 -0.7724
  109SAPE  C21811285   2.500   2.026   4.294  0.4340 -0.6438 -0.8609
  109SAPE  H18R11286   2.425   1.945   4.279 -0.9429  0.6947 -1.4234
  109SAPE  H18S11287   2.505   2.096   4.209  0.6371 -0.1350 -0.4333
  109SAPE  C21911288   2.457   2.129   4.403  0.1736 -0.2730 -0.0154
  109SAPE  H19R11289   2.539   2.203   4.413 -0.4362  0.3785  0.2554
  109SAPE  H19S11290   2.449   2.092   4.508 -2.5050  0.5004  0.1255
  109SAPE  C22011291   2.321   2.206   4.369 -0.6258 -0.2081 -0.4717
  109SAPE  H20R11292   2.242   2.128   4.370  0.0638 -0.9530  1.4666
  109SAPE  H20S11293   2.328   2.245   4.265 -1.2092  2.3039  0.3797
  109SAPE  H20T11294   2.289   2.286   4.439  0.9504 -0.7543  0.9440
  109SAPE   C3311295   2.277   1.996   3.124  0.1270  0.5659 -0.0592
  109SAPE   H3X11296   2.242   1.893   3.150  1.8981  0.1112  0.6808
  109SAPE   H3Y11297   2.192   2.055   3.085  0.2457  2.1969  1.9774
  109SAPE   C3411298   2.308   2.048   3.270  0.4357  0.2572  0.2605
  109SAPE   H4X11299   2.316   2.159   3.267 -2.1324  0.5142  1.2227
  109SAPE   H4Y11300   2.404   1.999   3.297  0.9837  0.5767 -1.0096
  109SAPE   C3511301   2.210   2.025   3.394  0.3623 -0.7205  0.3122
  109SAPE   H5X11302   2.204   1.915   3.386  4.0235 -0.9554 -1.4083
  109SAPE   H5Y11303   2.117   2.082   3.376  0.2529 -0.8109  0.5912
  109SAPE   C3611304   2.264   2.075   3.532  0.9246  0.1792  0.6091
  109SAPE   H6X11305   2.318   2.170   3.515  0.3177  0.1522 -1.7830
  109SAPE   H6Y11306   2.334   2.008   3.587  1.8818  0.3377 -0.3707
  109SAPE   C3711307   2.144   2.076   3.625 -0.4697  0.3094 -0.0203
  109SAPE   H7X11308   2.102   1.976   3.647 -0.2395  0.4799  1.2637
  109SAPE   H7Y11309   2.060   2.124   3.570 -0.0349  0.7712 -0.2888
  109SAPE   C3811310   2.182   2.137   3.761  0.0915  0.0591  0.2195
  109SAPE   H8X11311   2.178   2.248   3.758  1.8269  0.1394 -2.4865
  109SAPE   H8Y11312   2.280   2.092   3.787  0.5437 -0.7628 -2.6057
  109SAPE   C3911313   2.094   2.080   3.877 -0.4164  0.1914 -0.3715
  109SAPE   H9X11314   2.096   1.971   3.895  1.4225  0.0547 -1.1426
  109SAPE   H9Y11315   1.993   2.102   3.837 -0.0438  2.4597 -0.2345
  109SAPE  C31011316   2.113   2.157   4.005 -0.2005  0.2076  0.0004
  109SAPE  H10X11317   2.067   2.258   4.004  0.7711  0.6898  1.2733
  109SAPE  H10Y11318   2.222   2.177   4.015 -0.0395 -0.2677 -0.6971
  109SAPE  C31111319   2.069   2.073   4.133  0.1924  0.0170  0.5977
  109SAPE  H11X11320   2.064   2.141   4.221 -0.3377 -1.5387  1.8158
  109SAPE  H11Y11321   2.146   1.995   4.150  0.1012 -0.1474  0.2536
  109SAPE  C31211322   1.925   2.010   4.126 -0.9364 -0.0029  0.4276
  109SAPE  H12X11323   1.928   1.913   4.072  1.3996  0.0313  0.4080
  109SAPE  H12Y11324   1.881   2.087   4.060  2.7094 -0.4540 -2.9072
  109SAPE  C31311325   1.864   1.993   4.265 -0.2348  0.6091  0.1515
  109SAPE  H13X11326   1.758   1.961   4.259  0.6554 -2.8443  0.6781
  109SAPE  H13Y11327   1.854   2.099   4.298 -0.0305  1.4313 -2.1844
  109SAPE  C31411328   1.940   1.905   4.358  0.1779  0.2860  0.9022
  109SAPE  H14X11329   2.040   1.946   4.381  1.8030 -3.3088  0.8899
  109SAPE  H14Y11330   1.961   1.810   4.305 -0.8658  1.0419 -0.9540
  109SAPE  C31511331   1.861   1.874   4.486  0.3201 -0.3861  0.2974
  109SAPE  H15X11332   1.764   1.824   4.466  0.6562 -0.9446  0.0301
  109SAPE  H15Y11333   1.825   1.967   4.535 -2.1604 -0.8165 -0.5840
  109SAPE  C31611334   1.933   1.796   4.590 -0.2989  0.4331 -0.1076
  109SAPE  H16X11335   2.036   1.830   4.609 -0.8457  0.8830  2.4621
  109SAPE  H16Y11336   1.946   1.691   4.556 -1.5373  0.7762 -1.8061
  109SAPE  C31711337   1.865   1.807   4.730  0.1517  0.2492  0.0959
  109SAPE  H17X11338   1.763   1.764   4.735 -1.5752  3.3891 -3.5465
  109SAPE  H17Y11339   1.853   1.916   4.749  0.1243  0.2986 -0.2110
  109SAPE  C31811340   1.946   1.769   4.850 -0.4772 -0.0393 -0.1878
  109SAPE  H18X11341   1.887   1.738   4.939  0.3596  1.1491  0.8173
  109SAPE  H18Y11342   2.025   1.844   4.869 -0.8992  0.3984 -0.1342
  109SAPE  H18Z11343   2.008   1.679   4.833  4.2562  2.5896  1.4276
  110SAPE     N11344   2.675   5.728   1.793 -0.1908 -0.0648  0.6185
  110SAPE   HN111345   2.725   5.688   1.875  1.0981  1.2440  0.5169
  110SAPE   HN211346   2.727   5.729   1.703 -1.2724  1.1795 -0.0299
  110SAPE   HN311347   2.659   5.829   1.812 -0.8589 -0.2529  1.0853
  110SAPE   C1211348   2.550   5.649   1.773  0.2237 -0.7261  0.0770
  110SAPE  H12A11349   2.518   5.676   1.670  1.9570  1.0289 -0.0685
  110SAPE  H12B11350   2.476   5.675   1.852 -2.5410  0.4436 -2.7189
  110SAPE   C1111351   2.568   5.495   1.779  0.5066 -0.5097  0.2138
  110SAPE  H11A11352   2.598   5.459   1.879  2.2657 -1.3757 -0.5751
  110SAPE  H11B11353   2.648   5.466   1.707 -0.2152  0.5718 -1.0724
  110SAPE     P11354   2.343   5.357   1.849 -0.0195 -0.0976  0.3128
  110SAPE   O1311355   2.210   5.389   1.799  0.3070 -0.8081  0.2710
  110SAPE   O1411356   2.376   5.213   1.873 -0.2788 -0.0877  0.1835
  110SAPE   O1211357   2.449   5.413   1.735  0.2129 -0.2085  0.0849
  110SAPE   O1111358   2.371   5.445   1.978 -0.5767  0.8144  0.2067
  110SAPE    C111359   2.272   5.540   2.019  0.1256  0.3043  0.0172
  110SAPE    HA11360   2.256   5.615   1.939 -1.1850  0.1984  0.1473
  110SAPE    HB11361   2.179   5.485   2.046 -0.5605  0.9756 -0.9077
  110SAPE    C211362   2.325   5.632   2.130  0.6426  0.2798  0.5242
  110SAPE    HS11363   2.415   5.677   2.084 -1.2664  2.0835 -1.7071
  110SAPE   O2111364   2.365   5.560   2.249 -0.3221 -0.3536 -0.2498
  110SAPE   C2111365   2.450   5.615   2.332  0.1438 -0.9793  0.5375
  110SAPE   O2211366   2.513   5.720   2.317  0.0421  0.4736 -0.0704
  110SAPE   C2211367   2.455   5.538   2.463 -0.6635  0.3426 -0.0075
  110SAPE   H2R11368   2.352   5.503   2.486 -0.8273 -1.8954 -3.4078
  110SAPE   H2S11369   2.500   5.438   2.441 -3.0651 -0.9544  0.6185
  110SAPE    C311370   2.216   5.742   2.158 -0.2143 -0.0007 -0.0455
  110SAPE    HX11371   2.218   5.814   2.074 -2.5942 -0.0781 -0.2261
  110SAPE    HY11372   2.112   5.706   2.143 -0.6452  1.1255  0.1762
  110SAPE   O3111373   2.231   5.815   2.278 -0.4232  0.0390 -1.1209
  110SAPE   C3111374   2.155   5.776   2.380 -0.0867 -0.8057 -0.1374
  110SAPE   O3211375   2.091   5.671   2.390 -0.2124 -0.0376  0.2791
  110SAPE   C3211376   2.168   5.869   2.500  0.8252  0.1238  0.4050
  110SAPE   H2X11377   2.103   5.958   2.485 -2.1200 -2.1050 -1.0388
  110SAPE   H2Y11378   2.273   5.905   2.496  0.4111  1.2534 -1.9148
  110SAPE   C2311379   2.510   5.609   2.588 -0.2111  0.4656  0.1977
  110SAPE   H3R11380   2.471   5.712   2.602  1.2181  1.0138  0.2133
  110SAPE   H3S11381   2.620   5.617   2.578 -0.2556 -0.0847 -0.8480
  110SAPE   C2411382   2.481   5.536   2.720 -0.6401 -0.0776 -0.1058
  110SAPE   H4R11383   2.373   5.520   2.741 -0.8672 -2.5592 -2.5163
  110SAPE   H4S11384   2.513   5.598   2.806 -1.0726 -1.3604  1.0182
  110SAPE   C2511385   2.556   5.397   2.727  0.2693 -0.0779  0.1559
  110SAPE   H5R11386   2.573   5.335   2.638  1.9408 -1.0417  1.0869
  110SAPE   C2611387   2.617   5.348   2.833 -0.3747 -0.2064 -0.2769
  110SAPE   H6R11388   2.648   5.242   2.825 -1.5394 -0.4570 -2.4553
  110SAPE   C2711389   2.600   5.413   2.972  0.1503 -0.1618 -0.6881
  110SAPE   H7R11390   2.504   5.381   3.019 -0.6073  0.0832 -2.0296
  110SAPE   H7S11391   2.603   5.523   2.958 -1.2998  0.0584  0.4148
  110SAPE   C2811392   2.715   5.363   3.061 -0.0711 -0.2298 -0.2000
  110SAPE   H8R11393   2.810   5.334   3.013 -0.4980 -3.1015  0.5134
  110SAPE   C2911394   2.717   5.362   3.197  0.4151  0.4291  0.2229
  110SAPE   H9R11395   2.811   5.335   3.246  0.1623 -0.6340  0.1453
  110SAPE  C21011396   2.605   5.395   3.300 -0.4555  0.4375 -0.6653
  110SAPE  H10R11397   2.515   5.437   3.251  2.3483  2.4176 -4.7165
  110SAPE  H10S11398   2.638   5.472   3.373  0.0938 -0.8343  0.4861
  110SAPE  C21111399   2.564   5.269   3.371  0.9900 -0.6676 -0.0084
  110SAPE  H11R11400   2.536   5.187   3.303  0.6776 -1.1519  0.6859
  110SAPE  C21211401   2.557   5.260   3.507  0.7145  0.5175 -0.1100
  110SAPE  H12R11402   2.528   5.162   3.549 -0.5305  1.0226  0.2639
  110SAPE  C21311403   2.592   5.366   3.613 -0.1876 -0.5127  0.5467
  110SAPE  H13R11404   2.561   5.470   3.590 -0.1248 -0.8478 -1.1735
  110SAPE  H13S11405   2.703   5.373   3.604 -0.3070  1.6502  0.2589
  110SAPE  C21411406   2.551   5.306   3.745  0.6060  0.3235 -0.1572
  110SAPE  H14R11407   2.604   5.213   3.772 -0.2932 -0.6068 -1.5120
  110SAPE  C21511408   2.442   5.346   3.819  0.0357 -0.2305  0.2398
  110SAPE  H15R11409   2.426   5.305   3.920 -1.0700  0.3153  0.3042
  110SAPE  C21611410   2.352   5.458   3.777  0.0474  0.1278  0.3490
  110SAPE  H16R11411   2.247   5.439   3.807  0.5116 -0.8007  1.4712
  110SAPE  H16S11412   2.347   5.475   3.667  0.2389 -0.5719  0.2269
  110SAPE  C21711413   2.393   5.591   3.848  0.1901  0.3777  0.4346
  110SAPE  H17R11414   2.336   5.664   3.786 -2.5593 -2.0787 -0.1335
  110SAPE  H17S11415   2.501   5.608   3.832  0.8421 -2.3877  1.4845
  110SAPE  C21811416   2.369   5.611   3.995  0.3509  0.7224  0.2494
  110SAPE  H18R11417   2.278   5.557   4.030  0.1021  0.0202 -1.4047
  110SAPE  H18S11418   2.357   5.719   4.019  0.3318  0.3544  2.0328
  110SAPE  C21911419   2.497   5.580   4.083  0.2892 -0.1680  0.0940
  110SAPE  H19R11420   2.528   5.478   4.050 -0.8739 -0.4513 -0.1753
  110SAPE  H19S11421   2.466   5.570   4.189 -0.2660 -0.3590 -0.0823
  110SAPE  C22011422   2.620   5.663   4.062 -0.8015 -0.0640  0.9337
  110SAPE  H20R11423   2.612   5.772   4.080 -0.5889  0.3205 -1.0110
  110SAPE  H20S11424   2.654   5.654   3.956 -0.0753 -2.7798  1.3173
  110SAPE  H20T11425   2.706   5.633   4.126  0.2224 -0.8550 -0.7145
  110SAPE   C3311426   2.124   5.808   2.639  0.0069  0.9402  0.1992
  110SAPE   H3X11427   2.192   5.852   2.715  0.3201 -1.9096  1.7230
  110SAPE   H3Y11428   2.139   5.698   2.641 -2.1738  0.6115  0.1439
  110SAPE   C3411429   1.988   5.853   2.669 -0.1259  0.1070  0.0350
  110SAPE   H4X11430   1.931   5.831   2.577  0.5798 -0.2051 -0.3396
  110SAPE   H4Y11431   1.986   5.959   2.702  1.9820  0.2505 -0.1693
  110SAPE   C3511432   1.923   5.776   2.786  0.2733 -0.2924  0.6166
  110SAPE   H5X11433   1.925   5.670   2.754  0.6707  0.0413 -0.5025
  110SAPE   H5Y11434   1.823   5.816   2.814  0.6246  1.1232 -0.0528
  110SAPE   C3611435   2.015   5.802   2.911  0.3313  0.2144 -0.3917
  110SAPE   H6X11436   2.021   5.912   2.925  0.1919  0.3514 -1.3526
  110SAPE   H6Y11437   2.115   5.760   2.890  0.8138  0.9794  0.2935
  110SAPE   C3711438   1.953   5.734   3.035  0.0189 -0.5483 -0.1054
  110SAPE   H7X11439   1.953   5.624   3.025  0.0418 -0.5639  0.0652
  110SAPE   H7Y11440   1.847   5.765   3.049 -0.3236 -0.6981 -2.0548
  110SAPE   C3811441   2.025   5.783   3.160 -0.2325 -0.5489 -0.0131
  110SAPE   H8X11442   2.010   5.892   3.172  0.8878  0.2683 -4.3212
  110SAPE   H8Y11443   2.136   5.782   3.149 -0.1722  2.8932 -0.7073
  110SAPE   C3911444   1.975   5.707   3.286  0.2955  0.5384  0.1579
  110SAPE   H9X11445   2.014   5.603   3.294 -0.6281  0.1171 -0.5816
  110SAPE   H9Y11446   1.866   5.715   3.309  0.2535 -2.7234  1.6975
  110SAPE  C31011447   2.021   5.775   3.415  0.1331  0.0286  0.2666
  110SAPE  H10X11448   1.972   5.874   3.428  0.7760  0.8284 -2.7688
  110SAPE  H10Y11449   2.123   5.817   3.397  0.2364 -0.0995  0.5360
  110SAPE  C31111450   2.012   5.690   3.540 -0.4729 -0.2282  0.8002
  110SAPE  H11X11451   2.070   5.595   3.541 -1.9919 -1.2016  2.4775
  110SAPE  H11Y11452   1.905   5.665   3.559 -0.2243 -2.1534 -0.1290
  110SAPE  C31211453   2.069   5.772   3.661 -1.0648 -0.0343  0.6070
  110SAPE  H12X11454   2.158   5.822   3.619 -0.0307 -0.3187  2.3858
  110SAPE  H12Y11455   2.108   5.709   3.744 -0.4631 -1.1715 -0.5016
  110SAPE  C31311456   1.979   5.880   3.719  0.3883 -0.5261  0.5732
  110SAPE  H13X11457   1.884   5.835   3.755 -0.1990 -0.3969 -0.7736
  110SAPE  H13Y11458   1.951   5.956   3.643  0.4400  0.2861  1.3518
  110SAPE  C31411459   2.046   5.955   3.833 -0.5925  0.0177  0.5285
  110SAPE  H14X11460   2.009   6.058   3.853 -2.4482 -1.0164  2.9878
  110SAPE  H14Y11461   2.155   5.954   3.815 -0.8647 -1.7628 -1.3965
  110SAPE  C31511462   2.030   5.890   3.971  0.5860  0.0195 -0.2621
  110SAPE  H15X11463   2.069   5.786   3.973  0.0444 -0.1799  1.3905
  110SAPE  H15Y11464   1.924   5.869   3.996  0.5407  0.6866  0.1249
  110SAPE  C31611465   2.100   5.965   4.085  0.6438 -0.0027 -0.0108
  110SAPE  H16X11466   2.185   6.029   4.052  2.3198 -1.8453  0.5247
  110SAPE  H16Y11467   2.141   5.889   4.156  1.4534 -0.6071 -1.1065
  110SAPE  C31711468   2.000   6.054   4.151  0.2907 -0.3532 -0.4519
  110SAPE  H17X11469   1.895   6.022   4.135 -0.1218  0.5762  0.3485
  110SAPE  H17Y11470   1.987   6.145   4.089 -1.5129  1.2037  2.0738
  110SAPE  C31811471   2.020   6.083   4.299 -0.1705 -0.3939 -0.0020
  110SAPE  H18X11472   2.085   6.172   4.311 -0.6013 -0.0505 -0.2109
  110SAPE  H18Y11473   2.044   5.994   4.361 -2.7594  0.3271  2.2199
  110SAPE  H18Z11474   1.929   6.116   4.354  0.1620  0.9257 -0.2016
  111SAPE     N11475   2.743   0.658   2.129 -0.3293 -0.4659 -0.3779
  111SAPE   HN111476   2.791   0.621   2.045  1.6899  2.3205 -0.6125
  111SAPE   HN211477   2.641   0.640   2.135  0.0607 -3.2383 -1.0049
  111SAPE   HN311478   2.763   0.759   2.145 -0.3775 -0.9429  3.7222
  111SAPE   C1211479   2.810   0.600   2.247  0.4956 -0.3270  0.3679
  111SAPE  H12A11480   2.770   0.632   2.346 -1.0612 -1.8292  0.2674
  111SAPE  H12B11481   2.920   0.603   2.232  0.4162 -0.2349 -0.2464
  111SAPE   C1111482   2.780   0.449   2.248  0.6588  0.1213  0.1410
  111SAPE  H11A11483   2.827   0.409   2.340 -3.0562 -2.6151  1.0693
  111SAPE  H11B11484   2.815   0.400   2.155 -3.4067 -2.2447 -0.3454
  111SAPE     P11485   2.545   0.380   2.151  0.3510  0.4110  0.1040
  111SAPE   O1311486   2.481   0.504   2.095 -0.5542 -0.5761 -0.2718
  111SAPE   O1411487   2.625   0.299   2.054 -0.2637 -0.0427  0.3158
  111SAPE   O1211488   2.641   0.418   2.276  0.8254 -0.2240  0.9478
  111SAPE   O1111489   2.421   0.295   2.200  0.1992  0.3322  0.0112
  111SAPE    C111490   2.418   0.218   2.317  0.5224 -0.0947 -0.2963
  111SAPE    HA11491   2.424   0.111   2.290  4.3227 -0.1109  0.0089
  111SAPE    HB11492   2.509   0.237   2.378  0.8894 -3.1591  0.2500
  111SAPE    C211493   2.291   0.256   2.394 -0.4414  0.8857  0.1195
  111SAPE    HS11494   2.231   0.326   2.333 -2.4421  0.6449  1.7184
  111SAPE   O2111495   2.346   0.327   2.502  0.2113 -0.4293  0.1813
  111SAPE   C2111496   2.257   0.387   2.570 -0.0015 -0.7340  0.4927
  111SAPE   O2211497   2.134   0.401   2.546 -0.1491  0.6196 -0.1831
  111SAPE   C2211498   2.326   0.441   2.699  0.7494  0.1189  0.1165
  111SAPE   H2R11499   2.436   0.430   2.690  0.6112 -2.1194  0.4362
  111SAPE   H2S11500   2.307   0.550   2.702  2.3447  0.4885 -1.5716
  111SAPE    C311501   2.209   0.128   2.434 -0.0590  0.1656 -0.3574
  111SAPE    HX11502   2.173   0.069   2.348 -0.3122  0.9224 -0.7748
  111SAPE    HY11503   2.116   0.169   2.478  0.4630  1.4133 -0.3812
  111SAPE   O3111504   2.280   0.030   2.522  0.1376 -0.0627  0.6045
  111SAPE   C3111505   2.208  -0.076   2.550 -1.1014  0.7613  0.2209
  111SAPE   O3211506   2.097  -0.106   2.517 -0.1541 -0.4383  0.5654
  111SAPE   C3211507   2.286  -0.162   2.649  0.6501  0.0451  1.0574
  111SAPE   H2X11508   2.373  -0.106   2.691 -0.1134  1.3623  0.9564
  111SAPE   H2Y11509   2.308  -0.248   2.582 -0.4797  0.9476 -0.5633
  111SAPE   C2311510   2.272   0.370   2.830  0.1816  0.3090  0.1001
  111SAPE   H3R11511   2.162   0.365   2.826  0.2321 -0.1443 -1.4019
  111SAPE   H3S11512   2.303   0.427   2.920 -2.1684  1.2369  0.3846
  111SAPE   C2411513   2.327   0.223   2.838 -0.1422 -0.4813  0.3010
  111SAPE   H4R11514   2.438   0.228   2.838 -0.1730  0.6444  0.0589
  111SAPE   H4S11515   2.287   0.159   2.757 -0.3997 -0.0457  0.0782
  111SAPE   C2511516   2.277   0.179   2.974 -0.7966  0.5687 -0.3985
  111SAPE   H5R11517   2.168   0.191   2.979 -0.6636  1.9223 -0.2527
  111SAPE   C2611518   2.352   0.133   3.077  0.1739 -0.0062 -0.1252
  111SAPE   H6R11519   2.304   0.105   3.172  1.0718 -0.9138  0.0706
  111SAPE   C2711520   2.498   0.101   3.068  0.2009  0.1607  0.3717
  111SAPE   H7R11521   2.527   0.088   2.962 -0.1432  0.2228  0.2687
  111SAPE   H7S11522   2.512   0.000   3.113 -0.0514  0.0384  0.1830
  111SAPE   C2811523   2.588   0.219   3.110  0.6078  0.0304  0.4329
  111SAPE   H8R11524   2.537   0.315   3.095  0.3964 -0.0677  0.5150
  111SAPE   C2911525   2.710   0.209   3.164 -0.2991 -0.4181  0.1711
  111SAPE   H9R11526   2.773   0.298   3.180  0.2923 -0.4442 -1.8320
  111SAPE  C21011527   2.768   0.078   3.202  0.9430 -0.0973 -0.5119
  111SAPE  H10R11528   2.877   0.095   3.211  0.9860 -1.0170  1.1846
  111SAPE  H10S11529   2.736   0.007   3.123 -2.5201  0.1858  0.4480
  111SAPE  C21111530   2.730   0.023   3.335  0.8783  0.0279 -0.1515
  111SAPE  H11R11531   2.669  -0.069   3.328 -1.5890  1.6443 -1.4501
  111SAPE  C21211532   2.776   0.059   3.459  0.3865 -0.8043 -0.2256
  111SAPE  H12R11533   2.729   0.005   3.542  1.4065 -0.3320  0.6787
  111SAPE  C21311534   2.859   0.176   3.496 -0.0865 -0.0692  0.1118
  111SAPE  H13R11535   2.846   0.257   3.421  2.5382  0.8039  0.4866
  111SAPE  H13S11536   2.964   0.145   3.478  0.1005  1.6381 -2.2379
  111SAPE  C21411537   2.838   0.234   3.633 -0.4401  0.2728 -0.1413
  111SAPE  H14R11538   2.746   0.294   3.638 -1.3755 -1.1400  0.3194
  111SAPE  C21511539   2.919   0.230   3.743  0.5268  0.1508  0.9259
  111SAPE  H15R11540   2.874   0.262   3.839 -0.5615 -0.5383  0.6644
  111SAPE  C21611541   3.056   0.166   3.757 -0.2627 -0.6618 -0.1666
  111SAPE  H16R11542   3.124   0.251   3.732 -1.0416 -0.2960 -1.1427
  111SAPE  H16S11543   3.091   0.092   3.682  0.0484 -0.6899  0.0032
  111SAPE  C21711544   3.079   0.098   3.897  0.1029  0.7033 -0.6770
  111SAPE  H17R11545   3.022   0.003   3.894 -4.2918  3.0215  0.3692
  111SAPE  H17S11546   3.041   0.149   3.988  1.7600 -0.7242  0.9006
  111SAPE  C21811547   3.219   0.049   3.920 -0.2613  0.4773  0.2251
  111SAPE  H18R11548   3.295   0.130   3.929  1.1946 -0.6982 -0.8780
  111SAPE  H18S11549   3.247  -0.016   3.834 -2.6612 -0.9550  0.4603
  111SAPE  C21911550   3.226  -0.050   4.039  0.0528  0.1361 -0.0598
  111SAPE  H19R11551   3.149  -0.129   4.023 -0.3386  0.5495 -0.2443
  111SAPE  H19S11552   3.196   0.017   4.122 -1.7162  0.2397 -0.7337
  111SAPE  C22011553   3.371  -0.115   4.063 -0.1804 -0.7071 -0.3825
  111SAPE  H20R11554   3.441  -0.030   4.073 -1.4416  0.3275  0.0079
  111SAPE  H20S11555   3.393  -0.185   3.980 -1.3561 -0.2878 -1.0709
  111SAPE  H20T11556   3.373  -0.169   4.160 -0.7481 -0.5512 -0.2775
  111SAPE   C3311557   2.201  -0.196   2.763 -0.7958 -0.4170  0.2018
  111SAPE   H3X11558   2.104  -0.247   2.745 -0.5169 -1.5010  1.5851
  111SAPE   H3Y11559   2.171  -0.099   2.807  0.1602  0.2611 -0.6080
  111SAPE   C3411560   2.289  -0.280   2.858 -0.1623  0.5607  0.1371
  111SAPE   H4X11561   2.383  -0.232   2.894  0.2035  0.9176 -1.2513
  111SAPE   H4Y11562   2.320  -0.364   2.792  0.9302  1.2708 -0.2889
  111SAPE   C3511563   2.212  -0.336   2.972 -0.0025  0.2851 -0.0318
  111SAPE   H5X11564   2.265  -0.426   3.009 -1.2439 -0.5788 -0.3003
  111SAPE   H5Y11565   2.112  -0.369   2.936  0.0395  0.2106 -0.0797
  111SAPE   C3611566   2.205  -0.240   3.098 -0.1801  0.1422  0.5053
  111SAPE   H6X11567   2.099  -0.247   3.130 -0.6628 -1.1623 -1.2611
  111SAPE   H6Y11568   2.222  -0.134   3.068  1.6655 -0.2615  0.0161
  111SAPE   C3711569   2.297  -0.276   3.213  0.5459 -0.4068 -0.2586
  111SAPE   H7X11570   2.400  -0.263   3.171  0.5049 -1.2505 -0.6593
  111SAPE   H7Y11571   2.271  -0.382   3.235 -1.5578 -0.0446 -0.8221
  111SAPE   C3811572   2.292  -0.195   3.343 -0.1301 -0.1383 -0.6440
  111SAPE   H8X11573   2.191  -0.196   3.389  0.0973 -0.3062 -0.1480
  111SAPE   H8Y11574   2.322  -0.089   3.324 -2.7291  0.4666 -1.7780
  111SAPE   C3911575   2.412  -0.250   3.428 -0.1766 -0.9675  0.2423
  111SAPE   H9X11576   2.507  -0.232   3.375 -0.9740 -0.2458 -0.9803
  111SAPE   H9Y11577   2.398  -0.358   3.450 -0.1549 -0.7530  1.4162
  111SAPE  C31011578   2.426  -0.172   3.561  0.2260 -0.5658  1.0005
  111SAPE  H10X11579   2.331  -0.168   3.617 -0.2023 -1.3962  0.3550
  111SAPE  H10Y11580   2.430  -0.063   3.538  1.7491 -0.5048  1.4072
  111SAPE  C31111581   2.546  -0.207   3.640  0.2099 -0.1294 -0.0744
  111SAPE  H11X11582   2.634  -0.197   3.572  0.6734  2.5243  0.7705
  111SAPE  H11Y11583   2.545  -0.314   3.671  3.9448 -0.3446 -0.1864
  111SAPE  C31211584   2.568  -0.125   3.768 -0.2630  0.1438  0.3749
  111SAPE  H12X11585   2.482  -0.151   3.833 -0.3964 -2.3661 -0.7034
  111SAPE  H12Y11586   2.570  -0.016   3.746  0.7541  0.2162  0.7671
  111SAPE  C31311587   2.686  -0.175   3.845  0.1908 -0.6185 -0.1785
  111SAPE  H13X11588   2.781  -0.156   3.791  1.0828 -1.9630  0.8476
  111SAPE  H13Y11589   2.668  -0.285   3.852  0.3917 -0.7825 -1.7638
  111SAPE  C31411590   2.686  -0.118   3.988 -0.5139  0.2651 -0.3153
  111SAPE  H14X11591   2.588  -0.068   4.002 -0.8633 -0.1379 -1.2431
  111SAPE  H14Y11592   2.765  -0.043   3.965  0.6778 -1.0129 -0.5236
  111SAPE  C31511593   2.726  -0.215   4.098  0.3431 -0.1395  0.1443
  111SAPE  H15X11594   2.833  -0.242   4.084  0.3688  0.4836 -1.0213
  111SAPE  H15Y11595   2.670  -0.309   4.083  1.4655 -0.8873  0.5440
  111SAPE  C31611596   2.707  -0.151   4.234 -0.1729  0.7846  0.0953
  111SAPE  H16X11597   2.757  -0.225   4.300 -0.7448 -0.6559 -1.0377
  111SAPE  H16Y11598   2.598  -0.148   4.257 -0.5063  1.0846 -1.3846
  111SAPE  C31711599   2.777  -0.018   4.255  0.2947 -0.9687 -0.1625
  111SAPE  H17X11600   2.738   0.050   4.177  0.4381 -2.9438 -2.0381
  111SAPE  H17Y11601   2.884  -0.033   4.232  0.7694  0.7200  0.8058
  111SAPE  C31811602   2.759   0.042   4.393 -0.0279  0.1709  0.1326
  111SAPE  H18X11603   2.800   0.145   4.383  0.1764  0.0037 -0.8276
  111SAPE  H18Y11604   2.818  -0.008   4.472 -0.3572  1.4414  1.2187
  111SAPE  H18Z11605   2.656   0.060   4.430  0.0292 -0.7518  0.7668
  112SAPE     N11606   5.235   6.297   1.619 -0.0838 -0.4224 -0.1540
  112SAPE   HN111607   5.159   6.365   1.598  1.3856  1.7105  1.0284
  112SAPE   HN211608   5.307   6.315   1.547  0.8830  0.5117  1.0034
  112SAPE   HN311609   5.206   6.197   1.611  0.0071 -0.3648 -1.2807
  112SAPE   C1211610   5.293   6.319   1.749  0.4378 -0.2749 -0.1535
  112SAPE  H12A11611   5.328   6.423   1.767  2.3131 -1.0738  1.1644
  112SAPE  H12B11612   5.382   6.253   1.761  1.1927  0.7860  0.3339
  112SAPE   C1111613   5.198   6.282   1.867  0.1610  0.3204  0.9075
  112SAPE  H11A11614   5.262   6.265   1.956  0.4671  0.9374  0.8165
  112SAPE  H11B11615   5.151   6.183   1.852  0.1205  0.3420  0.8894
  112SAPE     P11616   4.990   6.385   1.994  0.7368  0.2473  0.0843
  112SAPE   O1311617   4.920   6.520   1.991 -1.0254  0.6696  0.1351
  112SAPE   O1411618   4.897   6.266   1.980 -0.2684 -0.1582  0.4984
  112SAPE   O1211619   5.098   6.386   1.878 -0.7807 -0.5954 -0.4641
  112SAPE   O1111620   5.081   6.358   2.124  0.2216  0.4119 -0.0813
  112SAPE    C111621   5.096   6.226   2.183  0.5268  0.1112 -0.3849
  112SAPE    HA11622   5.118   6.155   2.100 -0.2899  0.5945 -1.0366
  112SAPE    HB11623   5.183   6.230   2.252  1.8813  0.0730 -2.0288
  112SAPE    C211624   4.970   6.182   2.261  0.0167 -0.0797  0.7206
  112SAPE    HS11625   4.877   6.187   2.201 -0.5606  1.6022  1.6695
  112SAPE   O2111626   4.962   6.258   2.381 -0.8138 -0.3698  0.0257
  112SAPE   C2111627   4.879   6.356   2.383  0.3368 -0.4563 -0.3171
  112SAPE   O2211628   4.802   6.381   2.295 -0.0223  0.2619  0.4623
  112SAPE   C2211629   4.879   6.427   2.513  0.0695 -0.4263  0.6959
  112SAPE   H2R11630   4.852   6.353   2.592 -1.7402 -1.9490 -1.2222
  112SAPE   H2S11631   4.984   6.454   2.536 -0.3639  0.2730  1.9857
  112SAPE    C311632   4.969   6.035   2.304  0.0823  0.1396 -0.3545
  112SAPE    HX11633   4.953   5.967   2.217 -0.5815 -2.7202  1.8513
  112SAPE    HY11634   4.881   6.016   2.370  0.3913  0.1223  0.0574
  112SAPE   O3111635   5.093   5.991   2.364 -0.5275 -0.1447  0.4577
  112SAPE   C3111636   5.084   5.885   2.445  0.7070 -0.1100 -0.2945
  112SAPE   O3211637   4.989   5.809   2.445  0.0895  0.1779  0.5035
  112SAPE   C3211638   5.224   5.859   2.506 -0.6511  0.7451 -0.1548
  112SAPE   H2X11639   5.262   5.951   2.555  0.5123 -0.3386  1.0667
  112SAPE   H2Y11640   5.288   5.836   2.418 -0.2863  0.5337  0.1611
  112SAPE   C2311641   4.789   6.547   2.513  0.1219 -0.4829 -0.0763
  112SAPE   H3R11642   4.684   6.514   2.502 -0.5540  1.7623 -1.0334
  112SAPE   H3S11643   4.810   6.618   2.430 -0.5417 -2.5466 -2.1220
  112SAPE   C2411644   4.798   6.637   2.637  0.6613 -0.1556  0.1493
  112SAPE   H4R11645   4.761   6.578   2.723 -0.5008 -1.2670 -1.0734
  112SAPE   H4S11646   4.715   6.710   2.624 -0.8919 -1.9622 -0.5505
  112SAPE   C2511647   4.928   6.692   2.664 -0.8151 -0.1714  0.0589
  112SAPE   H5R11648   4.961   6.768   2.593  0.8736  0.6611  1.6711
  112SAPE   C2611649   5.019   6.652   2.754 -0.0394  0.6246 -0.1735
  112SAPE   H6R11650   5.114   6.708   2.754  2.0810 -2.6229  0.3863
  112SAPE   C2711651   4.996   6.548   2.862  0.2094  0.8104 -0.0120
  112SAPE   H7R11652   5.082   6.479   2.877  0.2356  1.1510  1.5624
  112SAPE   H7S11653   4.907   6.485   2.842  0.6123 -0.1449  1.1016
  112SAPE   C2811654   4.982   6.612   2.999 -0.4361 -0.7338 -0.0729
  112SAPE   H8R11655   5.049   6.698   3.016 -0.8937 -0.6283  1.2759
  112SAPE   C2911656   4.909   6.567   3.105  0.1157  0.9640 -0.1395
  112SAPE   H9R11657   4.927   6.614   3.203  2.2138 -0.0178 -0.0020
  112SAPE  C21011658   4.805   6.462   3.105 -0.4485 -0.4805  0.1220
  112SAPE  H10R11659   4.791   6.424   3.002 -0.1554 -2.5564  0.7962
  112SAPE  H10S11660   4.709   6.510   3.134 -0.4904 -1.4508  1.7610
  112SAPE  C21111661   4.814   6.337   3.194 -0.4897 -0.3623 -0.4543
  112SAPE  H11R11662   4.908   6.281   3.181  0.4419  1.0716 -0.1335
  112SAPE  C21211663   4.734   6.296   3.294  0.1143  0.5883  0.3165
  112SAPE  H12R11664   4.761   6.198   3.337 -0.3343  1.1138  1.8581
  112SAPE  C21311665   4.600   6.347   3.330  0.2480 -0.1523  0.2026
  112SAPE  H13R11666   4.525   6.294   3.268  0.4589  0.6299 -0.7536
  112SAPE  H13S11667   4.594   6.455   3.304  0.0690 -0.7038 -2.2925
  112SAPE  C21411668   4.570   6.319   3.480 -0.2656  0.3880  0.3457
  112SAPE  H14R11669   4.635   6.237   3.514  1.6821  1.1730 -1.2725
  112SAPE  C21511670   4.486   6.381   3.566  0.2617  0.1522  1.0830
  112SAPE  H15R11671   4.480   6.338   3.667 -2.5121  1.4804  1.5777
  112SAPE  C21611672   4.402   6.497   3.529  0.1725 -0.7536  0.0695
  112SAPE  H16R11673   4.294   6.471   3.536  0.4580 -1.9215  0.2793
  112SAPE  H16S11674   4.416   6.528   3.424  0.8448 -0.0262  0.3583
  112SAPE  C21711675   4.425   6.609   3.627 -0.1483 -0.5278  0.0962
  112SAPE  H17R11676   4.387   6.700   3.577 -3.7441 -0.9085  1.8331
  112SAPE  H17S11677   4.532   6.614   3.655 -0.4130 -0.9192  1.2423
  112SAPE  C21811678   4.351   6.594   3.763 -0.5668  0.6999  0.3494
  112SAPE  H18R11679   4.385   6.498   3.808 -0.3454  0.0777 -1.1116
  112SAPE  H18S11680   4.242   6.582   3.749 -0.3490 -0.4008 -0.6058
  112SAPE  C21911681   4.367   6.703   3.872 -0.6609  0.3992  0.5416
  112SAPE  H19R11682   4.329   6.794   3.821 -0.4470  0.1496 -0.0794
  112SAPE  H19S11683   4.475   6.720   3.893 -0.1397 -0.5612 -1.1024
  112SAPE  C22011684   4.286   6.667   3.992  0.9395 -0.4780 -0.0021
  112SAPE  H20R11685   4.332   6.582   4.046  0.6379 -2.0216 -2.0506
  112SAPE  H20S11686   4.182   6.633   3.972  0.8521 -1.2068  1.5440
  112SAPE  H20T11687   4.286   6.758   4.056  2.3414 -1.4155  1.4152
  112SAPE   C3311688   5.219   5.749   2.616 -0.7085  0.4673 -0.5405
  112SAPE   H3X11689   5.172   5.654   2.584 -0.8446 -0.2521  1.6501
  112SAPE   H3Y11690   5.164   5.786   2.706  1.5593  1.2422  0.6003
  112SAPE   C3411691   5.355   5.715   2.674 -0.2052 -0.1840  0.1924
  112SAPE   H4X11692   5.414   5.808   2.682 -0.2997  0.1875 -2.3244
  112SAPE   H4Y11693   5.413   5.656   2.599  3.2186  3.3423 -0.2296
  112SAPE   C3511694   5.320   5.631   2.805 -0.4034 -0.1435  0.6141
  112SAPE   H5X11695   5.243   5.558   2.771 -0.1854  0.8007 -2.1578
  112SAPE   H5Y11696   5.281   5.698   2.884  0.1476 -1.8350  2.3828
  112SAPE   C3611697   5.447   5.572   2.871 -0.0267  0.2438  0.0485
  112SAPE   H6X11698   5.528   5.648   2.868 -0.8372  1.1044 -1.5649
  112SAPE   H6Y11699   5.472   5.486   2.805  0.2455  0.9867 -0.8369
  112SAPE   C3711700   5.431   5.542   3.023  0.4300 -0.0674  0.5938
  112SAPE   H7X11701   5.349   5.470   3.041  1.7595 -1.8216 -0.0144
  112SAPE   H7Y11702   5.414   5.639   3.073  1.0664  0.9433 -1.0716
  112SAPE   C3811703   5.561   5.472   3.072 -0.1110 -0.1908  0.3433
  112SAPE   H8X11704   5.643   5.546   3.063 -0.1336 -0.1509  0.4531
  112SAPE   H8Y11705   5.578   5.383   3.008  3.0909  0.7045 -0.2072
  112SAPE   C3911706   5.551   5.426   3.217  0.0473 -0.0424  0.1922
  112SAPE   H9X11707   5.629   5.354   3.250 -0.2677  0.2844  1.7641
  112SAPE   H9Y11708   5.453   5.374   3.220 -0.5425  0.8966 -1.3732
  112SAPE  C31011709   5.559   5.540   3.321 -0.0766  0.1132 -0.9552
  112SAPE  H10X11710   5.460   5.588   3.305 -1.0396 -0.9562  1.3448
  112SAPE  H10Y11711   5.643   5.610   3.304  0.3749 -0.0411  0.4995
  112SAPE  C31111712   5.579   5.489   3.467 -0.2418  0.4067 -0.2186
  112SAPE  H11X11713   5.667   5.423   3.476  0.1767  1.0782  0.7360
  112SAPE  H11Y11714   5.492   5.425   3.493  0.9546 -0.5983  1.5151
  112SAPE  C31211715   5.598   5.602   3.573  0.2467  0.2551  0.0640
  112SAPE  H12X11716   5.530   5.688   3.556 -0.5453  0.2737  2.7831
  112SAPE  H12Y11717   5.699   5.647   3.567 -0.6199  2.5432  1.3269
  112SAPE  C31311718   5.569   5.554   3.716  0.1533 -0.4003 -0.7555
  112SAPE  H13X11719   5.644   5.477   3.742 -1.1485 -0.7508  2.4404
  112SAPE  H13Y11720   5.469   5.506   3.711  0.0933 -0.2135 -1.5478
  112SAPE  C31411721   5.562   5.677   3.808 -0.5947  0.8951 -0.2534
  112SAPE  H14X11722   5.501   5.747   3.747 -1.3705  0.6853  0.2662
  112SAPE  H14Y11723   5.667   5.713   3.819 -0.1720 -0.3716 -0.0421
  112SAPE  C31511724   5.498   5.668   3.948 -0.6635 -0.1565  0.4280
  112SAPE  H15X11725   5.397   5.624   3.931 -1.8162  2.2410  0.7321
  112SAPE  H15Y11726   5.488   5.769   3.994 -3.3980 -0.2415  0.1800
  112SAPE  C31611727   5.574   5.577   4.047 -0.4438 -0.2572 -0.7595
  112SAPE  H16X11728   5.681   5.605   4.050 -0.0885 -1.6167  0.1406
  112SAPE  H16Y11729   5.578   5.468   4.025  1.9423 -0.5257  0.7464
  112SAPE  C31711730   5.524   5.602   4.197 -0.4388 -0.8155  0.2347
  112SAPE  H17X11731   5.554   5.704   4.230 -1.1647 -0.0909 -1.2591
  112SAPE  H17Y11732   5.567   5.521   4.259 -1.4595 -1.9097 -0.4406
  112SAPE  C31811733   5.373   5.593   4.220  0.6228  0.1931 -0.1004
  112SAPE  H18X11734   5.323   5.683   4.179  3.4724  1.2242 -1.5112
  112SAPE  H18Y11735   5.352   5.580   4.329 -1.4791 -1.9726 -0.6736
  112SAPE  H18Z11736   5.340   5.501   4.167  1.0871 -0.6431  1.0296
  113SAPE     N11737   6.009   4.657   2.105  0.1252 -0.4252  0.4147
  113SAPE   HN111738   5.938   4.585   2.127  0.3668 -1.0575 -0.7827
  113SAPE   HN211739   6.029   4.712   2.191 -0.7953  1.1857 -0.3545
  113SAPE   HN311740   5.959   4.726   2.045  1.7377 -0.2588 -0.8004
  113SAPE   C1211741   6.127   4.601   2.031  0.1587 -0.0783  0.3545
  113SAPE  H12A11742   6.218   4.603   2.095 -0.7040 -0.9566  1.6545
  113SAPE  H12B11743   6.143   4.665   1.941 -0.1535 -0.7010 -0.1587
  113SAPE   C1111744   6.104   4.458   1.986 -0.3053 -0.3452  0.2868
  113SAPE  H11A11745   6.202   4.431   1.943 -0.5767 -2.0992  0.6995
  113SAPE  H11B11746   6.023   4.459   1.910 -2.6732 -1.8577  2.6022
  113SAPE     P11747   6.161   4.293   2.186 -0.2967  0.0994  0.5158
  113SAPE   O1311748   6.084   4.194   2.263  0.4602 -0.0510  0.1396
  113SAPE   O1411749   6.270   4.233   2.101 -0.3832 -0.3043  0.0417
  113SAPE   O1211750   6.059   4.371   2.094  0.0610 -0.6317  0.5023
  113SAPE   O1111751   6.220   4.410   2.273 -0.1491  0.0183 -0.0145
  113SAPE    C111752   6.321   4.371   2.373 -0.1337  0.3950 -0.2348
  113SAPE    HA11753   6.355   4.265   2.365 -0.3217  0.3975 -1.1896
  113SAPE    HB11754   6.409   4.435   2.354 -0.8682  1.5268  0.1090
  113SAPE    C211755   6.287   4.394   2.521  0.0352 -0.5261  0.1515
  113SAPE    HS11756   6.229   4.489   2.522 -0.1716 -0.6432 -0.3634
  113SAPE   O2111757   6.412   4.399   2.592  0.1462 -0.1916  0.2221
  113SAPE   C2111758   6.422   4.485   2.684  0.0366 -0.0337 -0.0005
  113SAPE   O2211759   6.337   4.565   2.720  0.6484  0.9146 -0.0485
  113SAPE   C2211760   6.562   4.491   2.739 -1.2983 -0.0412 -0.2808
  113SAPE   H2R11761   6.624   4.412   2.692 -1.7474 -2.0680  2.2830
  113SAPE   H2S11762   6.607   4.589   2.715 -0.7348 -0.4240 -0.8111
  113SAPE    C311763   6.186   4.285   2.574 -0.3395  0.2502  0.1413
  113SAPE    HX11764   6.231   4.187   2.550  2.3252  0.6501  2.9572
  113SAPE    HY11765   6.084   4.290   2.530 -0.3992  0.3497  0.2883
  113SAPE   O3111766   6.170   4.290   2.716 -0.4292  0.2409  0.4818
  113SAPE   C3111767   6.091   4.386   2.761 -0.9863  0.0101 -0.2979
  113SAPE   O3211768   6.028   4.464   2.690 -0.7362 -0.3467  0.2494
  113SAPE   C3211769   6.072   4.373   2.915  0.3659 -0.5165  0.6965
  113SAPE   H2X11770   6.054   4.265   2.935  2.0158 -0.5595  2.2443
  113SAPE   H2Y11771   5.987   4.434   2.951  0.6170  0.4005 -0.2285
  113SAPE   C2311772   6.567   4.463   2.892 -0.0372  0.6944 -0.7582
  113SAPE   H3R11773   6.536   4.357   2.903  1.4751  0.1992 -1.0333
  113SAPE   H3S11774   6.494   4.508   2.962  0.8740  0.3075  0.4644
  113SAPE   C2411775   6.709   4.459   2.934 -0.6384 -0.2292 -0.8638
  113SAPE   H4R11776   6.776   4.418   2.855  0.5327  0.2776 -0.1728
  113SAPE   H4S11777   6.723   4.394   3.024  0.3234  2.7155  1.2756
  113SAPE   C2511778   6.748   4.611   2.964  0.3817 -0.3065  0.5750
  113SAPE   H5R11779   6.758   4.673   2.873 -2.6646  0.9714  0.9953
  113SAPE   C2611780   6.745   4.664   3.089  0.4057  0.1991  0.2448
  113SAPE   H6R11781   6.764   4.771   3.103 -2.0656  0.7358 -0.0294
  113SAPE   C2711782   6.734   4.588   3.217 -0.6622  0.3193  0.9370
  113SAPE   H7R11783   6.832   4.541   3.240  1.1444  3.0981 -0.5815
  113SAPE   H7S11784   6.660   4.506   3.202 -0.5741  0.7422 -2.4115
  113SAPE   C2811785   6.685   4.672   3.332  0.5282 -0.2898  0.5927
  113SAPE   H8R11786   6.637   4.766   3.299  4.2993  1.6828  0.2037
  113SAPE   C2911787   6.701   4.651   3.461  0.3319 -0.5772 -0.3232
  113SAPE   H9R11788   6.639   4.708   3.531  1.2816 -0.1851  0.2193
  113SAPE  C21011789   6.775   4.536   3.533 -0.4139 -0.0020 -0.1621
  113SAPE  H10R11790   6.841   4.581   3.610  0.8752  1.6390 -2.0893
  113SAPE  H10S11791   6.850   4.487   3.467 -0.9652 -1.7626  0.4882
  113SAPE  C21111792   6.679   4.428   3.586  0.0526 -0.1931 -0.0143
  113SAPE  H11R11793   6.613   4.385   3.510 -0.2018  2.3223 -1.3446
  113SAPE  C21211794   6.668   4.379   3.707 -0.4911 -0.0305  0.4044
  113SAPE  H12R11795   6.601   4.294   3.728  0.0628 -0.5155  0.1954
  113SAPE  C21311796   6.763   4.418   3.814  0.2178  0.1250 -0.1529
  113SAPE  H13R11797   6.833   4.500   3.788  1.1662 -1.3287 -2.5488
  113SAPE  H13S11798   6.826   4.328   3.834  1.5335  0.8891 -0.7254
  113SAPE  C21411799   6.673   4.439   3.932 -0.3059 -0.1118 -0.1376
  113SAPE  H14R11800   6.647   4.546   3.934 -1.2543 -0.2772 -1.7410
  113SAPE  C21511801   6.641   4.353   4.035 -0.9559 -0.4976 -0.6817
  113SAPE  H15R11802   6.578   4.393   4.116 -1.6162 -2.7941 -0.0020
  113SAPE  C21611803   6.672   4.213   4.055 -0.5435  0.5640  0.2516
  113SAPE  H16R11804   6.699   4.152   3.966 -2.1285 -1.1743  0.8815
  113SAPE  H16S11805   6.583   4.163   4.100 -1.8091  2.5293  0.0474
  113SAPE  C21711806   6.794   4.215   4.151  0.4243 -0.3394  0.0230
  113SAPE  H17R11807   6.873   4.289   4.127  0.7067 -0.0687  1.6710
  113SAPE  H17S11808   6.839   4.114   4.153 -1.3578 -1.1703 -0.0116
  113SAPE  C21811809   6.755   4.236   4.294  0.1464  0.1128  0.8442
  113SAPE  H18R11810   6.671   4.163   4.307 -1.6727  1.9488 -0.0453
  113SAPE  H18S11811   6.702   4.330   4.322 -0.3431  0.5976 -1.4635
  113SAPE  C21911812   6.872   4.199   4.393 -0.1692 -0.5264  0.0037
  113SAPE  H19R11813   6.865   4.265   4.483  1.3100  0.5911 -0.6581
  113SAPE  H19S11814   6.968   4.236   4.351 -0.6452  1.5514  0.6534
  113SAPE  C22011815   6.884   4.047   4.420 -0.2308 -0.5863  0.3927
  113SAPE  H20R11816   6.781   4.015   4.449 -0.1080  0.0812  1.6423
  113SAPE  H20S11817   6.959   4.013   4.494 -0.1305 -1.9310 -0.2965
  113SAPE  H20T11818   6.908   3.989   4.329 -1.6814 -0.7475  0.0870
  113SAPE   C3311819   6.202   4.408   2.987  0.7992  0.2354  0.1147
  113SAPE   H3X11820   6.248   4.507   2.965  0.7870  0.1487 -0.3126
  113SAPE   H3Y11821   6.273   4.327   2.957  1.6104  0.5421  1.1331
  113SAPE   C3411822   6.200   4.399   3.146 -0.1324 -0.4792 -0.2707
  113SAPE   H4X11823   6.154   4.299   3.158  1.7715 -1.5471 -1.4315
  113SAPE   H4Y11824   6.123   4.468   3.186 -2.7636 -1.8460 -2.6552
  113SAPE   C3511825   6.333   4.427   3.209 -0.7363  0.2498  0.8913
  113SAPE   H5X11826   6.376   4.523   3.172 -0.6128 -0.5965 -1.3084
  113SAPE   H5Y11827   6.400   4.346   3.174 -0.6681  0.3363  0.8212
  113SAPE   C3611828   6.322   4.448   3.356  0.3083  0.8875  0.3915
  113SAPE   H6X11829   6.297   4.552   3.385  1.5395  0.7675  2.0170
  113SAPE   H6Y11830   6.423   4.424   3.395 -0.7596 -1.1074  2.1021
  113SAPE   C3711831   6.221   4.358   3.430  0.3016 -0.4971  0.2496
  113SAPE   H7X11832   6.210   4.263   3.374  2.3653  0.4011 -1.8145
  113SAPE   H7Y11833   6.120   4.404   3.436 -0.4218 -1.5031 -2.6728
  113SAPE   C3811834   6.259   4.330   3.573  0.0772  0.3722  0.2560
  113SAPE   H8X11835   6.181   4.260   3.610 -1.7898  1.1897 -1.9054
  113SAPE   H8Y11836   6.351   4.268   3.572  0.4067  0.7386  2.6270
  113SAPE   C3911837   6.260   4.447   3.666  0.4403  0.0584  0.7733
  113SAPE   H9X11838   6.164   4.502   3.653 -0.7452 -1.8495  1.0323
  113SAPE   H9Y11839   6.352   4.505   3.641 -0.1196 -0.1270 -1.9878
  113SAPE  C31011840   6.282   4.394   3.813  0.2813  0.2199 -0.1850
  113SAPE  H10X11841   6.366   4.323   3.824  0.5194  0.7070  1.3875
  113SAPE  H10Y11842   6.190   4.332   3.825 -1.3559  2.5419  0.0830
  113SAPE  C31111843   6.295   4.510   3.913 -0.0438  0.5201  0.0077
  113SAPE  H11X11844   6.219   4.586   3.884 -1.7108 -1.2079 -0.4265
  113SAPE  H11Y11845   6.397   4.552   3.902  0.4647 -0.6870  0.0112
  113SAPE  C31211846   6.280   4.468   4.062  0.8456 -0.0012 -0.0514
  113SAPE  H12X11847   6.342   4.376   4.070  0.1857 -0.6020 -1.4027
  113SAPE  H12Y11848   6.174   4.437   4.073  1.3247 -0.7959  3.3619
  113SAPE  C31311849   6.304   4.576   4.165 -0.3440 -0.1054  0.5509
  113SAPE  H13X11850   6.227   4.653   4.143  1.1136  1.0199 -0.8397
  113SAPE  H13Y11851   6.406   4.620   4.161  0.2200 -1.2969  1.0859
  113SAPE  C31411852   6.279   4.522   4.305  0.0040  0.7011  0.1980
  113SAPE  H14X11853   6.174   4.485   4.298  0.6978 -1.2032 -1.2275
  113SAPE  H14Y11854   6.284   4.610   4.371 -3.3656  0.4314  0.9945
  113SAPE  C31511855   6.375   4.407   4.352 -0.2510 -0.2654 -0.1028
  113SAPE  H15X11856   6.475   4.429   4.308 -1.2479  1.2147 -1.7592
  113SAPE  H15Y11857   6.338   4.305   4.328  1.6573 -0.6542 -1.7025
  113SAPE  C31611858   6.385   4.404   4.508  0.2191  0.1644 -0.9244
  113SAPE  H16X11859   6.283   4.409   4.552  0.9880 -0.8422  1.1467
  113SAPE  H16Y11860   6.440   4.494   4.543 -0.4441  0.1596  0.1768
  113SAPE  C31711861   6.457   4.277   4.557 -0.3290  0.3091  1.0144
  113SAPE  H17X11862   6.567   4.287   4.552 -0.2527 -0.1445  1.6409
  113SAPE  H17Y11863   6.424   4.191   4.496 -1.0405  1.6333 -0.5512
  113SAPE  C31811864   6.413   4.253   4.704  0.1986 -0.1210  0.0416
  113SAPE  H18X11865   6.305   4.246   4.726  0.3815  0.2404  1.1107
  113SAPE  H18Y11866   6.455   4.331   4.772 -0.2733 -1.3476  1.8148
  113SAPE  H18Z11867   6.460   4.160   4.742 -2.0963 -1.8867 -1.2495
  114SAPE     N11868   2.004   5.193   2.480  0.0080  0.6593  0.7043
  114SAPE   HN111869   2.020   5.209   2.581  1.1374  2.0904  0.3327
  114SAPE   HN211870   2.087   5.211   2.420 -0.7766  0.5152 -0.4549
  114SAPE   HN311871   1.928   5.259   2.455 -0.8772 -0.3596  0.6236
  114SAPE   C1211872   1.947   5.054   2.477  0.5089  0.7927  0.1552
  114SAPE  H12A11873   2.027   4.989   2.517 -0.6281  0.5858  2.2553
  114SAPE  H12B11874   1.916   5.022   2.375  0.6747  2.6622 -0.5187
  114SAPE   C1111875   1.828   5.050   2.580  0.2208  0.3561  0.5465
  114SAPE  H11A11876   1.851   5.037   2.688 -1.1171  0.5153  0.8676
  114SAPE  H11B11877   1.772   4.955   2.562  1.3966 -0.2498 -0.0474
  114SAPE     P11878   1.602   5.134   2.479  0.1144 -0.1767 -0.2705
  114SAPE   O1311879   1.594   5.234   2.373 -0.0079 -0.0104 -0.5409
  114SAPE   O1411880   1.589   4.992   2.438 -0.3514 -0.6455 -0.4517
  114SAPE   O1211881   1.729   5.153   2.571  0.1744 -0.0985  0.6764
  114SAPE   O1111882   1.491   5.167   2.582  0.3101 -0.0911 -0.3749
  114SAPE    C111883   1.497   5.297   2.649 -0.0912 -0.5313  0.3490
  114SAPE    HA11884   1.544   5.380   2.592 -5.1538  1.7414 -1.1341
  114SAPE    HB11885   1.394   5.339   2.662  0.2383  0.2312  0.5283
  114SAPE    C211886   1.562   5.296   2.790 -0.5984  0.8862 -0.5475
  114SAPE    HS11887   1.669   5.271   2.779  0.1620  3.4496  0.2860
  114SAPE   O2111888   1.481   5.213   2.870 -0.1727 -0.1583  0.1584
  114SAPE   C2111889   1.547   5.104   2.926  0.4013 -0.6766 -0.2330
  114SAPE   O2211890   1.662   5.078   2.908 -0.4609  0.1725 -0.2826
  114SAPE   C2211891   1.445   5.014   3.004  0.3187 -0.8256  0.0033
  114SAPE   H2R11892   1.365   5.077   3.049 -0.3808 -1.5245 -0.2424
  114SAPE   H2S11893   1.390   4.946   2.935  1.3307 -1.5079 -0.1601
  114SAPE    C311894   1.549   5.438   2.848  0.3459 -0.2686  0.6393
  114SAPE    HX11895   1.442   5.468   2.845  0.1578 -0.6697 -3.6430
  114SAPE    HY11896   1.615   5.505   2.788  1.0002 -0.6347  0.9288
  114SAPE   O3111897   1.584   5.426   2.985 -0.3293 -0.3409  0.0428
  114SAPE   C3111898   1.712   5.412   3.012 -0.1696 -0.1552  0.6403
  114SAPE   O3211899   1.802   5.407   2.928  0.3383 -0.3898  0.4067
  114SAPE   C3211900   1.739   5.409   3.164  0.4018 -0.4949  0.1001
  114SAPE   H2X11901   1.722   5.513   3.199  1.4677 -0.7237  1.3898
  114SAPE   H2Y11902   1.846   5.381   3.179 -0.1853 -3.7811 -1.0175
  114SAPE   C2311903   1.515   4.927   3.110  0.0537  0.0958 -0.0296
  114SAPE   H3R11904   1.599   4.977   3.162 -0.0448 -0.8709  1.1033
  114SAPE   H3S11905   1.570   4.847   3.056 -1.3977 -0.3217 -0.9450
  114SAPE   C2411906   1.422   4.865   3.210 -0.0255 -0.7239 -0.8575
  114SAPE   H4R11907   1.380   4.947   3.272  0.2464 -1.4475  0.3119
  114SAPE   H4S11908   1.489   4.810   3.279  0.7850  1.1233 -0.0964
  114SAPE   C2511909   1.329   4.760   3.153 -0.4174 -0.7348 -0.0982
  114SAPE   H5R11910   1.296   4.785   3.051 -1.3806  4.4473  1.2143
  114SAPE   C2611911   1.273   4.650   3.202 -0.1598 -0.3455  0.2177
  114SAPE   H6R11912   1.204   4.598   3.134  0.2437  1.9737 -2.1467
  114SAPE   C2711913   1.278   4.582   3.337 -0.0257  0.0002  0.4465
  114SAPE   H7R11914   1.316   4.661   3.406 -0.3155  2.7671 -2.3160
  114SAPE   H7S11915   1.348   4.497   3.324  0.4970  0.3411  0.9755
  114SAPE   C2811916   1.139   4.534   3.382  0.0091  0.0065 -0.3252
  114SAPE   H8R11917   1.050   4.570   3.328  0.1996 -0.2889 -0.8462
  114SAPE   C2911918   1.112   4.453   3.485  0.7516  0.6794  0.9695
  114SAPE   H9R11919   1.004   4.434   3.502  0.6152  0.5597  0.0338
  114SAPE  C21011920   1.200   4.369   3.574 -0.0058  0.1883  0.3527
  114SAPE  H10R11921   1.177   4.399   3.679  0.6960 -2.2063  1.2534
  114SAPE  H10S11922   1.305   4.402   3.559 -0.0096  1.0145  1.8344
  114SAPE  C21111923   1.187   4.216   3.560 -0.1303  0.0280  0.4000
  114SAPE  H11R11924   1.156   4.183   3.459 -2.7679  2.0415  0.4265
  114SAPE  C21211925   1.175   4.129   3.662  0.2937  0.3922 -0.7702
  114SAPE  H12R11926   1.175   4.020   3.647  0.1036  0.3406 -0.4017
  114SAPE  C21311927   1.202   4.156   3.808  0.4505 -0.0542 -0.1544
  114SAPE  H13R11928   1.308   4.186   3.821 -0.1051  1.8490  0.4357
  114SAPE  H13S11929   1.197   4.063   3.869  1.9474 -0.0774 -0.0449
  114SAPE  C21411930   1.107   4.257   3.877 -0.5246  0.3053  0.3896
  114SAPE  H14R11931   1.007   4.266   3.832 -1.7861  0.4424  2.9980
  114SAPE  C21511932   1.126   4.315   3.998  0.4772  0.0103 -0.2177
  114SAPE  H15R11933   1.055   4.397   4.018 -0.7504 -0.2725 -2.9474
  114SAPE  C21611934   1.254   4.312   4.078  0.7199 -0.0267 -0.6632
  114SAPE  H16R11935   1.260   4.413   4.123 -1.6641  0.2169 -0.7958
  114SAPE  H16S11936   1.346   4.294   4.018  2.5179  1.0775  1.5846
  114SAPE  C21711937   1.264   4.209   4.188  0.3580  0.6138 -0.6324
  114SAPE  H17R11938   1.284   4.115   4.132 -0.2743  0.8187 -1.2226
  114SAPE  H17S11939   1.169   4.195   4.244  0.3048 -1.6616 -1.2025
  114SAPE  C21811940   1.369   4.253   4.292  0.7861  0.0751  0.2500
  114SAPE  H18R11941   1.384   4.176   4.371  1.5034  0.9927  1.0339
  114SAPE  H18S11942   1.324   4.346   4.333 -3.0240 -1.2887 -0.3805
  114SAPE  C21911943   1.505   4.295   4.232  0.4674  0.2793 -0.2009
  114SAPE  H19R11944   1.484   4.388   4.176 -3.4254 -1.2636 -1.6504
  114SAPE  H19S11945   1.548   4.223   4.158 -1.8282  0.3404 -1.7052
  114SAPE  C22011946   1.608   4.317   4.335  0.1457  0.3030 -0.6796
  114SAPE  H20R11947   1.692   4.379   4.296  0.5958  0.1123 -0.0408
  114SAPE  H20S11948   1.647   4.218   4.367 -0.5297  0.6932  1.5238
  114SAPE  H20T11949   1.552   4.367   4.417 -0.4113  1.4248 -1.7066
  114SAPE   C3311950   1.636   5.322   3.234 -0.0503  0.1265  0.2248
  114SAPE   H3X11951   1.639   5.224   3.182  1.8687  0.1757  0.1782
  114SAPE   H3Y11952   1.533   5.361   3.222 -0.6527 -1.3003  0.6167
  114SAPE   C3411953   1.653   5.298   3.381 -0.3713 -0.5935  0.4958
  114SAPE   H4X11954   1.762   5.280   3.396  0.3635  1.6903 -1.4035
  114SAPE   H4Y11955   1.598   5.209   3.416 -0.4112 -1.5167 -1.7280
  114SAPE   C3511956   1.615   5.421   3.463 -0.4720  0.9325  0.3328
  114SAPE   H5X11957   1.516   5.458   3.430 -0.0756  0.7607 -1.1131
  114SAPE   H5Y11958   1.680   5.502   3.422 -2.0305  0.9198 -2.3671
  114SAPE   C3611959   1.630   5.388   3.613  0.5915 -0.7132 -0.0436
  114SAPE   H6X11960   1.587   5.287   3.632  2.4733 -1.3100  1.3140
  114SAPE   H6Y11961   1.570   5.467   3.664  0.1238 -0.5984 -0.7612
  114SAPE   C3711962   1.777   5.388   3.655 -0.1752 -0.4330  0.6315
  114SAPE   H7X11963   1.828   5.471   3.602 -0.5776  0.4306  1.5548
  114SAPE   H7Y11964   1.833   5.294   3.636 -1.4800 -2.2752  4.7366
  114SAPE   C3811965   1.794   5.429   3.806  0.0176  0.1048  0.3251
  114SAPE   H8X11966   1.702   5.416   3.866  0.7398 -0.6663  1.2983
  114SAPE   H8Y11967   1.798   5.539   3.821  0.6315  0.7696 -3.6069
  114SAPE   C3911968   1.909   5.363   3.877  0.5049 -0.0159 -0.0780
  114SAPE   H9X11969   2.003   5.387   3.824  0.3495 -0.5352 -0.5997
  114SAPE   H9Y11970   1.890   5.254   3.867  4.1411 -0.7994  0.0445
  114SAPE  C31011971   1.908   5.413   4.027  0.6807 -0.1862  1.0071
  114SAPE  H10X11972   1.815   5.380   4.077 -1.2576  2.9790 -0.1609
  114SAPE  H10Y11973   1.904   5.524   4.023  0.2333 -0.2100  0.6534
  114SAPE  C31111974   2.036   5.364   4.106 -0.2657 -0.1098  0.0419
  114SAPE  H11X11975   2.129   5.386   4.050 -0.5429  0.3848 -0.2262
  114SAPE  H11Y11976   2.021   5.254   4.099 -1.3738  0.0136  0.3375
  114SAPE  C31211977   2.047   5.416   4.241 -0.4568  0.4852  0.2569
  114SAPE  H12X11978   1.959   5.377   4.297 -0.0842 -2.6051 -1.0987
  114SAPE  H12Y11979   2.041   5.527   4.237 -2.6795  0.4119  0.2000
  114SAPE  C31311980   2.174   5.355   4.303  0.5217 -0.9778  0.2286
  114SAPE  H13X11981   2.261   5.388   4.243 -1.0650  0.0339 -1.6060
  114SAPE  H13Y11982   2.181   5.245   4.288 -2.9704 -1.0087 -2.2700
  114SAPE  C31411983   2.204   5.395   4.448 -0.5148  0.0886 -0.8719
  114SAPE  H14X11984   2.202   5.505   4.461 -0.6635 -0.0563  0.5002
  114SAPE  H14Y11985   2.302   5.353   4.483 -0.3730 -0.2404 -1.6454
  114SAPE  C31511986   2.094   5.335   4.548 -0.8183 -0.1085  0.2539
  114SAPE  H15X11987   2.081   5.226   4.530 -1.1247  0.1055 -0.9530
  114SAPE  H15Y11988   1.995   5.381   4.525 -0.4156  0.1244 -1.1497
  114SAPE  C31611989   2.126   5.342   4.695  1.0594 -0.1908  1.0993
  114SAPE  H16X11990   2.156   5.442   4.733  1.4723  0.4864 -0.9181
  114SAPE  H16Y11991   2.215   5.275   4.693  0.1326 -1.5130 -2.5409
  114SAPE  C31711992   2.015   5.270   4.775 -0.3955 -0.6016  0.0024
  114SAPE  H17X11993   2.011   5.167   4.732  1.0483 -0.0317 -1.6311
  114SAPE  H17Y11994   1.923   5.330   4.759  0.8235  0.7932 -2.2242
  114SAPE  C31811995   2.065   5.270   4.918 -0.1187  0.5468  0.2235
  114SAPE  H18X11996   1.984   5.230   4.983 -1.7322  0.1072 -1.9627
  114SAPE  H18Y11997   2.078   5.377   4.946 -0.9002  0.4795  0.8807
  114SAPE  H18Z11998   2.155   5.208   4.940 -2.5264 -2.3799  2.7804
  115SAPE     N11999   5.410   1.235   2.215 -0.0723 -0.7959 -0.2257
  115SAPE   HN112000   5.313   1.258   2.186 -0.6103  1.0377  2.6166
  115SAPE   HN212001   5.462   1.324   2.230 -0.1597 -0.5165 -1.4506
  115SAPE   HN312002   5.459   1.186   2.137 -2.8435 -1.0569 -1.9417
  115SAPE   C1212003   5.416   1.160   2.345 -0.0577 -0.6547  0.4711
  115SAPE  H12A12004   5.334   1.085   2.351 -1.7555  1.1900  1.4309
  115SAPE  H12B12005   5.420   1.238   2.423  1.0776  1.1727 -1.3194
  115SAPE   C1112006   5.550   1.079   2.343  0.1661  0.5380 -0.3657
  115SAPE  H11A12007   5.566   1.006   2.261  0.9252  0.2114  0.0643
  115SAPE  H11B12008   5.535   1.016   2.434  1.5319  0.9816  0.1787
  115SAPE     P12009   5.785   1.186   2.281 -0.3429 -0.0702  0.4902
  115SAPE   O1312010   5.792   1.071   2.191  0.0713 -0.5839 -0.3448
  115SAPE   O1412011   5.762   1.320   2.227  0.3761  0.4515 -0.1085
  115SAPE   O1212012   5.665   1.159   2.374 -0.3213  0.4847  0.1772
  115SAPE   O1112013   5.905   1.180   2.380 -0.2311  0.2746  0.5293
  115SAPE    C112014   5.937   1.062   2.451 -0.1924  0.4723 -0.4838
  115SAPE    HA12015   5.865   1.051   2.535 -0.4541 -0.3266 -0.8011
  115SAPE    HB12016   5.934   0.975   2.382 -1.1014  2.8014 -3.6111
  115SAPE    C212017   6.083   1.079   2.505 -0.1156  1.0673 -0.2936
  115SAPE    HS12018   6.150   1.089   2.417  0.5791  1.1278  0.2263
  115SAPE   O2112019   6.123   0.967   2.591  0.5670  0.3578  0.0273
  115SAPE   C2112020   6.150   0.857   2.514 -0.3649  0.5681  0.0469
  115SAPE   O2212021   6.162   0.856   2.394 -0.1146 -0.0944 -0.5636
  115SAPE   C2212022   6.198   0.744   2.606  0.0937  0.1698 -0.8506
  115SAPE   H2R12023   6.254   0.667   2.549  2.1785  0.1525  1.0947
  115SAPE   H2S12024   6.269   0.791   2.676  0.1939 -0.7280 -0.3407
  115SAPE    C312025   6.111   1.214   2.581 -0.2865 -0.3435  0.2641
  115SAPE    HX12026   6.062   1.204   2.680  0.9063 -0.4921  0.8463
  115SAPE    HY12027   6.064   1.303   2.534  1.2853 -0.0701 -0.8632
  115SAPE   O3112028   6.248   1.224   2.612 -0.0153 -0.2769 -0.5407
  115SAPE   C3112029   6.282   1.356   2.629  0.2987  0.2778 -0.1147
  115SAPE   O3212030   6.226   1.455   2.588 -0.3767 -0.5338 -0.0757
  115SAPE   C3212031   6.424   1.355   2.680 -0.0322 -0.1365 -0.0537
  115SAPE   H2X12032   6.493   1.337   2.595 -0.8182 -0.1171 -0.6970
  115SAPE   H2Y12033   6.444   1.263   2.739  0.6380 -1.4146 -2.1559
  115SAPE   C2312034   6.088   0.682   2.699  0.0314  0.4685 -0.5571
  115SAPE   H3R12035   6.117   0.576   2.713  0.2080 -0.0144 -3.7722
  115SAPE   H3S12036   5.996   0.687   2.637  0.4981  0.8621 -1.2247
  115SAPE   C2412037   6.081   0.754   2.835 -0.7900 -0.8639  0.6084
  115SAPE   H4R12038   6.071   0.863   2.816  1.2425 -0.7459  0.0137
  115SAPE   H4S12039   6.175   0.738   2.892 -0.0151 -3.8811 -1.3124
  115SAPE   C2512040   5.968   0.695   2.912  0.1455  0.8774 -0.5153
  115SAPE   H5R12041   5.872   0.691   2.858  0.1413  3.4774 -0.8145
  115SAPE   C2612042   5.971   0.644   3.044 -0.5229 -0.2720 -0.5222
  115SAPE   H6R12043   5.876   0.603   3.081 -0.4375 -1.2196 -1.3230
  115SAPE   C2712044   6.083   0.623   3.137 -0.1504 -0.0987 -0.1675
  115SAPE   H7R12045   6.090   0.700   3.217  0.5184 -0.4400  0.1018
  115SAPE   H7S12046   6.182   0.644   3.092 -0.5049 -0.4411 -1.1375
  115SAPE   C2812047   6.078   0.492   3.207  0.3028  0.2972 -0.2595
  115SAPE   H8R12048   6.037   0.416   3.140 -1.7820  1.8638 -0.8872
  115SAPE   C2912049   6.110   0.457   3.328  0.8240  0.1104 -0.0487
  115SAPE   H9R12050   6.096   0.351   3.356  0.3752 -0.1885 -1.3226
  115SAPE  C21012051   6.164   0.542   3.436 -0.7392  1.0775  0.8343
  115SAPE  H10R12052   6.186   0.642   3.393  2.4797  0.8283  1.6384
  115SAPE  H10S12053   6.264   0.497   3.452  0.0549  1.9563 -1.3082
  115SAPE  C21112054   6.070   0.541   3.553 -0.1704 -0.4303 -0.4054
  115SAPE  H11R12055   5.964   0.540   3.526  0.0124  1.3875 -1.3647
  115SAPE  C21212056   6.100   0.520   3.683  0.0955  0.3165 -0.3359
  115SAPE  H12R12057   6.024   0.539   3.760  0.6967 -0.0606  0.3721
  115SAPE  C21312058   6.238   0.511   3.740  0.1037 -0.5390  0.6647
  115SAPE  H13R12059   6.256   0.587   3.819  0.1797 -1.2312  1.3277
  115SAPE  H13S12060   6.315   0.525   3.661 -1.5547  1.3034 -0.7307
  115SAPE  C21412061   6.262   0.380   3.807 -0.3721 -0.0191 -0.5605
  115SAPE  H14R12062   6.319   0.306   3.749  1.3569 -0.3507  1.4238
  115SAPE  C21512063   6.239   0.351   3.941  0.6894 -0.0318  0.3217
  115SAPE  H15R12064   6.269   0.249   3.969 -0.1010 -0.8588 -1.6245
  115SAPE  C21612065   6.161   0.437   4.039 -0.8295 -0.0328 -0.0314
  115SAPE  H16R12066   6.093   0.507   3.985  0.0731  0.4137 -0.6085
  115SAPE  H16S12067   6.229   0.491   4.108  0.9369 -2.6403  0.3866
  115SAPE  C21712068   6.065   0.352   4.126  0.0435  0.1538 -0.3377
  115SAPE  H17R12069   5.997   0.285   4.068 -0.3453  0.4790 -0.2604
  115SAPE  H17S12070   5.992   0.425   4.168 -0.6674  0.1569 -1.5309
  115SAPE  C21812071   6.133   0.266   4.232  0.1528  0.1554 -0.2521
  115SAPE  H18R12072   6.202   0.334   4.287 -2.3043  2.9681 -0.3924
  115SAPE  H18S12073   6.195   0.186   4.186  2.5554  1.9550 -0.3561
  115SAPE  C21912074   6.040   0.208   4.347 -0.9833  0.7469  0.2238
  115SAPE  H19R12075   5.956   0.278   4.369 -1.8649 -0.7168  1.8362
  115SAPE  H19S12076   6.110   0.208   4.434 -2.1037 -0.1325  1.1707
  115SAPE  C22012077   5.991   0.064   4.325 -0.3922 -0.4168 -0.2208
  115SAPE  H20R12078   5.961   0.015   4.421 -1.1646  2.9731  1.4312
  115SAPE  H20S12079   6.066   0.002   4.271  0.9513  1.6311 -0.7950
  115SAPE  H20T12080   5.901   0.069   4.260 -1.3356  0.4460  1.1067
  115SAPE   C3312081   6.465   1.490   2.746 -0.3354 -0.0590  0.1073
  115SAPE   H3X12082   6.392   1.518   2.825  0.6352  1.4926  0.4990
  115SAPE   H3Y12083   6.454   1.574   2.674  2.1199 -0.9426 -1.4223
  115SAPE   C3412084   6.602   1.500   2.811 -0.8632 -0.3707  0.1790
  115SAPE   H4X12085   6.632   1.603   2.839 -0.1050 -1.2162  2.6829
  115SAPE   H4Y12086   6.677   1.465   2.737 -1.5532  0.0308 -0.7334
  115SAPE   C3512087   6.622   1.408   2.933 -0.0515  0.2418  1.2455
  115SAPE   H5X12088   6.731   1.407   2.954 -0.0494 -0.9242  1.2729
  115SAPE   H5Y12089   6.579   1.307   2.915 -0.2141  0.6342 -0.7565
  115SAPE   C3612090   6.561   1.468   3.059  0.3120 -0.2315  0.1475
  115SAPE   H6X12091   6.454   1.493   3.042  0.1996 -0.8269 -0.0619
  115SAPE   H6Y12092   6.617   1.564   3.055 -0.6511  0.3144 -0.6910
  115SAPE   C3712093   6.584   1.385   3.187  0.2307 -0.0541  0.8757
  115SAPE   H7X12094   6.692   1.375   3.209  0.6914  2.3776  0.0897
  115SAPE   H7Y12095   6.537   1.286   3.170  2.4694 -0.7933 -1.6420
  115SAPE   C3812096   6.519   1.450   3.306  0.4561 -0.0397 -0.0968
  115SAPE   H8X12097   6.409   1.437   3.295  0.5338  0.0541 -1.0471
  115SAPE   H8Y12098   6.538   1.560   3.303 -2.2727  0.5546  1.0272
  115SAPE   C3912099   6.562   1.386   3.438 -0.2230  0.0013 -0.7209
  115SAPE   H9X12100   6.672   1.391   3.448  0.2718 -2.4463 -3.4549
  115SAPE   H9Y12101   6.540   1.277   3.448  0.1282 -0.0295 -0.2346
  115SAPE  C31012102   6.503   1.452   3.564  0.2405 -0.3504  0.6351
  115SAPE  H10X12103   6.392   1.448   3.559  0.2874 -0.7850 -0.1234
  115SAPE  H10Y12104   6.540   1.557   3.568  1.5749 -0.7204 -0.8734
  115SAPE  C31112105   6.538   1.383   3.702  0.0617  0.1168  0.1332
  115SAPE  H11X12106   6.647   1.387   3.721 -0.1865 -0.0203  1.7059
  115SAPE  H11Y12107   6.518   1.274   3.695  0.9567 -0.1023  0.9045
  115SAPE  C31212108   6.447   1.438   3.810 -0.2172 -0.5224  0.5554
  115SAPE  H12X12109   6.344   1.413   3.778 -0.5952  0.4576  0.9679
  115SAPE  H12Y12110   6.459   1.548   3.797 -1.4955 -0.4628 -0.3093
  115SAPE  C31312111   6.485   1.404   3.952 -0.3496  0.0538  0.0172
  115SAPE  H13X12112   6.581   1.455   3.975  0.9395 -2.2788  0.1173
  115SAPE  H13Y12113   6.491   1.295   3.970 -0.7271 -0.1961 -1.2804
  115SAPE  C31412114   6.376   1.458   4.044  0.1862  0.5151 -0.6342
  115SAPE  H14X12115   6.287   1.404   4.004  1.2835 -0.8970 -1.3173
  115SAPE  H14Y12116   6.359   1.566   4.027 -2.2126  0.3497  0.3488
  115SAPE  C31512117   6.398   1.426   4.193 -0.3257 -0.4178 -0.7328
  115SAPE  H15X12118   6.416   1.317   4.197  0.6706 -0.2809 -1.1352
  115SAPE  H15Y12119   6.301   1.446   4.244  0.7296  0.9751  0.8357
  115SAPE  C31612120   6.524   1.495   4.259 -0.2034  0.0937 -0.6347
  115SAPE  H16X12121   6.502   1.603   4.275  0.2018  0.1493 -0.4408
  115SAPE  H16Y12122   6.611   1.483   4.191  0.9723  1.3140  0.6129
  115SAPE  C31712123   6.559   1.423   4.393  0.1768 -0.0310  0.6456
  115SAPE  H17X12124   6.610   1.328   4.368  3.6249  2.0879 -1.3092
  115SAPE  H17Y12125   6.465   1.411   4.451 -0.3620 -2.0940 -0.5625
  115SAPE  C31812126   6.658   1.497   4.482  0.0899 -0.4663 -0.0146
  115SAPE  H18X12127   6.756   1.496   4.430  0.7918 -0.6515  1.2738
  115SAPE  H18Y12128   6.671   1.457   4.585  0.2020  2.1186  1.0370
  115SAPE  H18Z12129   6.620   1.598   4.507 -1.6937 -1.4680  1.6078
  116SAPE     N12130   0.453   2.033   2.228 -0.0106  0.2018  0.0641
  116SAPE   HN112131   0.449   2.028   2.332 -1.1816 -4.0101  0.0118
  116SAPE   HN212132   0.551   2.051   2.201 -0.6242  1.1066 -1.7211
  116SAPE   HN312133   0.390   2.109   2.196 -2.5245 -1.9814 -0.6192
  116SAPE   C1212134   0.387   1.908   2.182  0.8128  0.0775 -0.3298
  116SAPE  H12A12135   0.378   1.909   2.071 -0.9134  1.0102 -0.2231
  116SAPE  H12B12136   0.284   1.917   2.225  1.7645  0.8582  1.9241
  116SAPE   C1112137   0.455   1.771   2.229 -0.4324 -0.1516  0.9702
  116SAPE  H11A12138   0.402   1.682   2.190 -0.8911 -0.3609  2.0405
  116SAPE  H11B12139   0.457   1.785   2.339  4.0303  0.6157  0.9804
  116SAPE     P12140   0.715   1.787   2.271 -0.7370  0.0094  0.0924
  116SAPE   O1312141   0.834   1.743   2.188  0.4646  0.0694  0.2026
  116SAPE   O1412142   0.714   1.925   2.330  0.1751  0.3237  0.4572
  116SAPE   O1212143   0.588   1.770   2.183  0.1244 -0.0929  0.1723
  116SAPE   O1112144   0.691   1.675   2.385 -0.5728  0.0237 -0.1199
  116SAPE    C112145   0.639   1.553   2.344  0.0967 -0.2875  0.6280
  116SAPE    HA12146   0.529   1.555   2.353  0.1287  1.3731  0.9288
  116SAPE    HB12147   0.668   1.529   2.239 -1.4227 -2.9990  0.7349
  116SAPE    C212148   0.696   1.449   2.442  0.5934  0.2291  0.7342
  116SAPE    HS12149   0.650   1.357   2.401  2.0108  0.1675 -0.8481
  116SAPE   O2112150   0.653   1.475   2.577  0.2348  0.3522 -0.8734
  116SAPE   C2112151   0.529   1.467   2.614  0.1045  0.3606  0.0712
  116SAPE   O2212152   0.437   1.426   2.542  0.2179 -0.6090  0.2278
  116SAPE   C2212153   0.518   1.509   2.755 -0.6397  0.3821 -0.8487
  116SAPE   H2R12154   0.545   1.616   2.748 -0.5329  0.3903 -0.3125
  116SAPE   H2S12155   0.416   1.482   2.788  1.0851 -4.4581  1.5780
  116SAPE    C312156   0.846   1.449   2.433 -0.1107  0.5759 -0.4759
  116SAPE    HX12157   0.885   1.542   2.480  0.5248  0.0200  0.1194
  116SAPE    HY12158   0.884   1.460   2.329 -1.3385  1.6939 -0.8270
  116SAPE   O3112159   0.897   1.332   2.497  0.5688  0.0944 -0.6922
  116SAPE   C3112160   0.929   1.228   2.413 -0.0259 -1.2819  0.1129
  116SAPE   O3212161   0.933   1.239   2.291  0.0719  0.6455  0.1630
  116SAPE   C3212162   0.966   1.100   2.492 -1.0132 -0.5408  0.5171
  116SAPE   H2X12163   1.035   1.130   2.573  1.3453  1.5371 -2.0782
  116SAPE   H2Y12164   1.011   1.033   2.414 -3.4014  0.6304 -2.0367
  116SAPE   C2312165   0.614   1.432   2.849  0.1512 -0.5293  0.0437
  116SAPE   H3R12166   0.604   1.487   2.945 -0.8847 -0.5520 -0.0427
  116SAPE   H3S12167   0.717   1.451   2.813  0.5398 -1.1657  0.7783
  116SAPE   C2412168   0.582   1.283   2.872  0.1651  0.2364 -0.0686
  116SAPE   H4R12169   0.654   1.248   2.950  1.0794  1.5122 -0.3069
  116SAPE   H4S12170   0.617   1.235   2.778  2.3316  0.9471  0.3164
  116SAPE   C2512171   0.438   1.259   2.901 -0.3483 -0.5769  0.2861
  116SAPE   H5R12172   0.376   1.287   2.815  2.5441 -2.1148 -2.4861
  116SAPE   C2612173   0.376   1.207   3.010 -0.4534 -0.3796 -0.3325
  116SAPE   H6R12174   0.266   1.207   3.013 -0.4422 -1.5231  1.3707
  116SAPE   C2712175   0.447   1.171   3.139 -0.2656  0.1869 -0.3091
  116SAPE   H7R12176   0.534   1.104   3.123 -0.7568 -1.0701  1.9206
  116SAPE   H7S12177   0.376   1.125   3.211 -0.6994 -0.1192 -0.9292
  116SAPE   C2812178   0.510   1.289   3.211  0.3471 -0.5735  0.2007
  116SAPE   H8R12179   0.620   1.294   3.205  0.4516  0.5208  2.1597
  116SAPE   C2912180   0.448   1.376   3.296 -1.1658 -0.3529 -1.1495
  116SAPE   H9R12181   0.517   1.452   3.336  0.5322 -2.1628 -0.4603
  116SAPE  C21012182   0.303   1.383   3.342 -0.7805  0.2083  0.4076
  116SAPE  H10R12183   0.297   1.427   3.444  4.0977  0.8896  0.6040
  116SAPE  H10S12184   0.265   1.278   3.347  0.3031 -0.1745  0.7972
  116SAPE  C21112185   0.229   1.463   3.241  0.9120  0.3284 -0.2193
  116SAPE  H11R12186   0.223   1.432   3.136  1.5129 -0.2446 -0.0948
  116SAPE  C21212187   0.160   1.579   3.274 -0.3106  0.1208  0.3193
  116SAPE  H12R12188   0.098   1.626   3.196 -1.2758 -0.6708  0.5838
  116SAPE  C21312189   0.162   1.650   3.404  0.1069 -0.0960  0.1133
  116SAPE  H13R12190   0.152   1.757   3.376 -0.0543 -0.1279  0.0460
  116SAPE  H13S12191   0.262   1.643   3.452 -0.0414  1.0274  0.6161
  116SAPE  C21412192   0.046   1.620   3.496  0.1333  0.0287 -0.0999
  116SAPE  H14R12193  -0.045   1.575   3.455 -0.5400  2.2620 -1.2132
  116SAPE  C21512194   0.058   1.613   3.629 -0.0069  0.3892  0.3587
  116SAPE  H15R12195  -0.033   1.586   3.685 -0.9870 -0.9628 -1.7470
  116SAPE  C21612196   0.182   1.645   3.700 -0.2394  0.2452  0.0202
  116SAPE  H16R12197   0.159   1.740   3.754  2.8670 -0.0482  2.1102
  116SAPE  H16S12198   0.275   1.665   3.642  0.5912 -0.9822  0.8985
  116SAPE  C21712199   0.235   1.545   3.806 -0.0077 -0.4643  0.1608
  116SAPE  H17R12200   0.263   1.454   3.748 -0.5224  0.8331 -2.2427
  116SAPE  H17S12201   0.147   1.525   3.871  0.4538 -1.2945  0.5541
  116SAPE  C21812202   0.343   1.600   3.904 -0.0674  0.6476  0.2068
  116SAPE  H18R12203   0.317   1.700   3.943  1.6266  0.4804  1.9355
  116SAPE  H18S12204   0.434   1.616   3.843 -0.7616 -1.7846 -1.6298
  116SAPE  C21912205   0.374   1.502   4.022 -0.0943 -0.2657  0.1215
  116SAPE  H19R12206   0.407   1.408   3.974  1.2507  0.3329 -0.1655
  116SAPE  H19S12207   0.277   1.480   4.070 -1.0296  0.9463 -1.1433
  116SAPE  C22012208   0.489   1.566   4.114  0.3460 -0.6472  0.3248
  116SAPE  H20R12209   0.566   1.621   4.057  1.0977  1.4906  3.1742
  116SAPE  H20S12210   0.538   1.503   4.191  0.1663  1.7855  2.5953
  116SAPE  H20T12211   0.430   1.640   4.174 -0.7866 -3.0436  2.3758
  116SAPE   C3312212   0.842   1.036   2.556 -0.0220 -0.2511 -0.1629
  116SAPE   H3X12213   0.771   0.983   2.488 -2.8487  0.1630  2.2731
  116SAPE   H3Y12214   0.775   1.116   2.596 -1.3168 -0.9846 -0.8074
  116SAPE   C3412215   0.868   0.953   2.676  0.2049  0.2717 -0.6307
  116SAPE   H4X12216   0.958   0.897   2.646  0.0834  0.8318 -2.1466
  116SAPE   H4Y12217   0.788   0.882   2.706  1.8675 -1.2034  0.4758
  116SAPE   C3512218   0.899   1.038   2.805 -0.2935  0.3138  0.5888
  116SAPE   H5X12219   0.830   1.125   2.813 -0.4606  0.5758 -2.4564
  116SAPE   H5Y12220   1.001   1.078   2.785  0.0566 -2.0200 -3.1860
  116SAPE   C3612221   0.908   0.948   2.927 -0.5952 -0.5178  0.1645
  116SAPE   H6X12222   0.988   0.871   2.918 -0.8871 -0.9801  1.3602
  116SAPE   H6Y12223   0.813   0.891   2.940 -1.7764  1.3844  0.1405
  116SAPE   C3712224   0.934   1.038   3.049  0.2749 -0.1741 -0.2159
  116SAPE   H7X12225   0.862   1.121   3.066  1.8793  1.2597 -0.0865
  116SAPE   H7Y12226   1.034   1.083   3.029  0.5347 -0.9319 -0.6298
  116SAPE   C3812227   0.960   0.955   3.178 -0.0651  0.3501 -0.3662
  116SAPE   H8X12228   1.039   0.877   3.168 -1.5669 -1.7494  2.5730
  116SAPE   H8Y12229   0.869   0.901   3.213 -0.6118  1.4681 -0.0268
  116SAPE   C3912230   1.013   1.059   3.284  0.6175  0.2183 -0.0506
  116SAPE   H9X12231   0.970   1.157   3.255 -3.0024 -0.9068  0.9844
  116SAPE   H9Y12232   1.124   1.061   3.278  0.8892 -2.5466  1.9057
  116SAPE  C31012233   0.977   1.024   3.422 -0.5408 -0.2853 -0.4008
  116SAPE  H10X12234   0.974   0.915   3.443  2.8091 -0.4232 -0.1002
  116SAPE  H10Y12235   0.877   1.054   3.459 -0.8708 -2.1238  0.3230
  116SAPE  C31112236   1.086   1.094   3.518 -0.0835  0.0345 -0.1971
  116SAPE  H11X12237   1.106   1.190   3.466 -2.9649 -0.9691 -3.6355
  116SAPE  H11Y12238   1.178   1.033   3.505 -0.4221 -0.4807 -0.1956
  116SAPE  C31212239   1.043   1.094   3.666  0.3023 -0.3353  0.4259
  116SAPE  H12X12240   1.002   0.994   3.692  1.1021 -0.6493  0.5137
  116SAPE  H12Y12241   0.974   1.180   3.678  0.2627 -0.4276  0.8622
  116SAPE  C31312242   1.171   1.120   3.753 -0.0455 -0.5045 -0.0484
  116SAPE  H13X12243   1.243   1.041   3.722  1.1032  0.5104 -0.0369
  116SAPE  H13Y12244   1.130   1.087   3.851 -2.0542 -1.2791 -1.0927
  116SAPE  C31412245   1.223   1.263   3.741  0.0244  0.7618  0.0063
  116SAPE  H14X12246   1.135   1.328   3.720  0.5442  1.5792  0.2880
  116SAPE  H14Y12247   1.276   1.259   3.643  1.0414  0.4890  0.5563
  116SAPE  C31512248   1.319   1.297   3.858 -0.0174 -0.1022 -0.1978
  116SAPE  H15X12249   1.403   1.225   3.872 -0.1004  0.2830  2.7591
  116SAPE  H15Y12250   1.258   1.276   3.948  1.0224  1.0707  0.8171
  116SAPE  C31612251   1.357   1.445   3.843 -0.3952  0.0742  0.4672
  116SAPE  H16X12252   1.411   1.475   3.936 -2.4930  0.7112  1.5375
  116SAPE  H16Y12253   1.262   1.500   3.829  0.9844  2.2675 -0.7644
  116SAPE  C31712254   1.443   1.491   3.725  0.3773 -0.4477 -0.0435
  116SAPE  H17X12255   1.472   1.597   3.741  1.0824 -0.8683  1.7051
  116SAPE  H17Y12256   1.373   1.490   3.639  1.0012  1.2297 -0.6050
  116SAPE  C31812257   1.563   1.406   3.689  0.5001  0.7633 -0.0182
  116SAPE  H18X12258   1.646   1.410   3.763  0.6231  2.3379 -0.2016
  116SAPE  H18Y12259   1.617   1.444   3.600  0.5609  1.0846  0.1557
  116SAPE  H18Z12260   1.547   1.298   3.667  0.9221  0.8546 -0.8183
  117SOPE     N12261   3.836   1.752   6.793 -0.3148 -0.2277 -0.2371
  117SOPE   HN112262   3.875   1.657   6.775 -0.0817 -0.1398 -0.1988
  117SOPE   HN212263   3.910   1.816   6.828 -0.3180 -0.5326  0.3287
  117SOPE   HN312264   3.758   1.729   6.858 -1.0489 -2.7659 -1.8347
  117SOPE   C1212265   3.788   1.803   6.659  0.6378 -0.5371  0.1136
  117SOPE  H12A12266   3.756   1.906   6.685 -0.8411 -0.9693  0.0656
  117SOPE  H12B12267   3.698   1.745   6.631  1.0834 -0.5967 -1.2677
  117SOPE   C1112268   3.887   1.789   6.541  0.0365 -0.1736  0.2683
  117SOPE  H11A12269   3.862   1.868   6.467 -0.6120  0.3044  0.9883
  117SOPE  H11B12270   3.875   1.689   6.494 -1.3634  0.1978 -0.1955
  117SOPE     P12271   4.106   1.930   6.565 -0.1926  0.1653  0.1608
  117SOPE   O1312272   4.214   1.950   6.667  0.3052  0.1961  0.3458
  117SOPE   O1412273   4.017   2.044   6.543  0.2417 -0.0466  0.6068
  117SOPE   O1212274   4.021   1.801   6.588 -0.0694 -0.2038 -0.2593
  117SOPE   O1112275   4.173   1.899   6.426  0.0216  0.0653 -0.4170
  117SOPE    C112276   4.086   1.852   6.320 -0.0348 -0.3314  0.2183
  117SOPE    HA12277   4.006   1.925   6.294 -1.0609 -0.5907  2.4235
  117SOPE    HB12278   4.039   1.754   6.341 -1.1150  0.3361  1.0644
  117SOPE    C212279   4.172   1.831   6.187  0.5997 -0.1242  0.7251
  117SOPE    HS12280   4.113   1.770   6.114 -0.5391  0.4431  1.1352
  117SOPE   O2112281   4.301   1.782   6.208 -0.4757 -0.5020 -0.1535
  117SOPE   C2112282   4.306   1.655   6.252 -0.0724 -0.3534 -0.1117
  117SOPE   O2212283   4.209   1.580   6.271 -0.8682 -0.5571  0.8291
  117SOPE   C2212284   4.451   1.613   6.250 -0.5864 -0.3886 -0.2305
  117SOPE   H2R12285   4.502   1.629   6.348  0.6760  1.0767 -1.0615
  117SOPE   H2S12286   4.503   1.679   6.177  0.0423  0.0389  0.5817
  117SOPE    C312287   4.172   1.973   6.129  0.8842  0.3224  0.1029
  117SOPE    HX12288   4.173   2.050   6.209  0.8313  1.2158 -0.7345
  117SOPE    HY12289   4.078   1.988   6.071 -0.8703 -0.1055  2.6757
  117SOPE   O3112290   4.283   2.013   6.038  0.5985  0.7842  0.0559
  117SOPE   C3112291   4.307   1.943   5.924 -0.9067  0.8916 -0.9148
  117SOPE   O3212292   4.244   1.848   5.881  0.1782 -0.5509 -0.1837
  117SOPE   C3212293   4.417   2.013   5.851 -0.6146 -0.6089  0.6475
  117SOPE   H2X12294   4.512   1.992   5.905 -1.1014 -2.0112  0.9901
  117SOPE   H2Y12295   4.398   2.123   5.854  0.5336 -0.2547 -1.9606
  117SOPE   C2312296   4.469   1.465   6.195 -0.3469 -0.7411  0.1651
  117SOPE   H3R12297   4.406   1.447   6.106  0.8669 -0.0403 -0.8765
  117SOPE   H3S12298   4.425   1.400   6.273 -0.9988  1.1525  1.4460
  117SOPE   C2412299   4.610   1.443   6.147  0.3256  0.3577 -0.3198
  117SOPE   H4R12300   4.623   1.509   6.059 -0.9562 -1.7507 -2.1755
  117SOPE   H4S12301   4.692   1.478   6.215 -0.8233 -0.3336  1.4935
  117SOPE   C2512302   4.636   1.294   6.096  0.1291  0.0387  0.2687
  117SOPE   H5R12303   4.672   1.241   6.187  0.3980 -0.3004 -0.0341
  117SOPE   H5S12304   4.540   1.245   6.070  0.3033 -0.1118 -0.0884
  117SOPE   C2612305   4.737   1.279   5.978 -0.0012 -0.6258 -0.2828
  117SOPE   H6R12306   4.823   1.341   6.009 -1.7026  0.7523  2.0414
  117SOPE   H6S12307   4.764   1.172   5.967  1.3479 -0.4903  1.3398
  117SOPE   C2712308   4.687   1.344   5.847  0.2131  0.3742  0.1074
  117SOPE   H7R12309   4.616   1.427   5.869  0.5167  0.5873  0.2903
  117SOPE   H7S12310   4.771   1.366   5.779 -0.0130 -0.8036 -0.5829
  117SOPE   C2812311   4.603   1.247   5.761 -0.6532  0.1540 -0.4961
  117SOPE   H8R12312   4.532   1.186   5.820  0.3584  0.9064  1.5803
  117SOPE   H8S12313   4.560   1.308   5.678  2.0007  0.8449 -1.4609
  117SOPE   C2912314   4.691   1.133   5.697  1.3351 -0.0302  0.6013
  117SOPE   H9112315   4.761   1.078   5.762 -1.0730 -3.0367  0.9286
  117SOPE  C21012316   4.695   1.107   5.562 -0.2076 -0.1317 -0.7658
  117SOPE  H10112317   4.759   1.024   5.529  3.7854  1.5305  1.8885
  117SOPE  C21112318   4.604   1.165   5.457 -0.5853 -0.5363 -0.9272
  117SOPE  H11R12319   4.663   1.211   5.375 -2.1987 -0.4998 -2.1103
  117SOPE  H11S12320   4.540   1.250   5.488  0.0812  0.4133 -2.1148
  117SOPE  C21212321   4.508   1.060   5.402 -0.7219  0.1805  0.2500
  117SOPE  H12R12322   4.415   1.059   5.463  0.0088 -2.5441  1.4801
  117SOPE  H12S12323   4.549   0.958   5.417 -1.9322 -0.1022  1.9501
  117SOPE  C21312324   4.484   1.058   5.251 -0.4996  0.5875 -0.6987
  117SOPE  H13R12325   4.582   1.065   5.199  1.1002 -1.5521  1.7809
  117SOPE  H13S12326   4.414   1.138   5.216 -0.8711  0.6493  0.1647
  117SOPE  C21412327   4.417   0.927   5.203 -0.7429  0.7536 -0.3339
  117SOPE  H14R12328   4.479   0.840   5.232  0.8816  0.8415 -3.1538
  117SOPE  H14S12329   4.414   0.920   5.092 -2.2460 -1.3244 -0.2266
  117SOPE  C21512330   4.277   0.910   5.252 -0.7323  0.3095  0.9640
  117SOPE  H15R12331   4.224   0.995   5.204  1.7581 -0.4713 -3.7005
  117SOPE  H15S12332   4.266   0.917   5.362  0.0870  0.5512  1.0364
  117SOPE  C21612333   4.213   0.776   5.205 -0.0175 -0.1708 -1.2951
  117SOPE  H16R12334   4.106   0.786   5.232  0.5117  1.6170  0.4104
  117SOPE  H16S12335   4.263   0.699   5.266 -0.3956 -0.3861 -1.2564
  117SOPE  C21712336   4.225   0.741   5.061 -0.3062  0.7030  0.6532
  117SOPE  H17R12337   4.178   0.641   5.052 -1.1900  1.2378 -1.0963
  117SOPE  H17S12338   4.333   0.730   5.038 -0.9434 -0.2535 -2.3104
  117SOPE  C21812339   4.164   0.844   4.965  0.0933 -1.3540 -0.7939
  117SOPE  H18R12340   4.198   0.946   4.993  0.3007 -1.9000  1.0521
  117SOPE  H18S12341   4.054   0.843   4.973  0.1902 -2.9205  1.2959
  117SOPE  H18T12342   4.190   0.832   4.857  0.4081 -0.8687 -0.7745
  117SOPE   C3312343   4.420   1.974   5.698 -0.0430 -0.0420 -1.3918
  117SOPE   H3X12344   4.318   1.987   5.656 -1.7626  1.7510  2.7470
  117SOPE   H3Y12345   4.446   1.866   5.691  4.4119  0.8410 -1.3568
  117SOPE   C3412346   4.521   2.055   5.614 -0.0292 -0.3507 -0.1416
  117SOPE   H4X12347   4.619   2.052   5.667 -0.4360  0.7581  0.6985
  117SOPE   H4Y12348   4.500   2.164   5.614  2.0147  0.0858 -0.0577
  117SOPE   C3512349   4.513   2.012   5.469 -0.2473  0.4171 -0.1671
  117SOPE   H5X12350   4.406   2.026   5.442 -0.6080 -2.2398 -0.4648
  117SOPE   H5Y12351   4.539   1.903   5.471 -0.8349  0.2748 -0.1845
  117SOPE   C3612352   4.603   2.090   5.381 -0.6720 -0.6415  0.1516
  117SOPE   H6X12353   4.698   2.114   5.433  0.1050 -1.2287 -0.9529
  117SOPE   H6Y12354   4.562   2.190   5.357 -2.6824 -1.1426  1.2472
  117SOPE   C3712355   4.631   2.016   5.253 -0.2723 -0.3025  0.7864
  117SOPE   H7X12356   4.530   2.021   5.206  0.5279  0.5978 -0.9256
  117SOPE   H7Y12357   4.655   1.909   5.272  0.1955 -0.9159 -2.5588
  117SOPE   C3812358   4.734   2.073   5.150 -0.7708  0.1995 -0.0160
  117SOPE   H8X12359   4.830   2.016   5.151 -0.2320  0.9536 -2.2026
  117SOPE   H8Y12360   4.752   2.176   5.187 -2.2244  0.4359  0.0598
  117SOPE   C3912361   4.679   2.073   5.013  0.5942  0.3393 -0.3111
  117SOPE   H9X12362   4.744   2.137   4.949  0.7054  1.9702  1.3376
  117SOPE   H9Y12363   4.583   2.127   5.017  0.1964 -0.2270 -1.6065
  117SOPE  C31012364   4.664   1.928   4.937 -0.4240  0.1613  0.5071
  117SOPE  H10X12365   4.595   1.868   4.999 -0.1509 -1.6139 -0.8275
  117SOPE  H10Y12366   4.759   1.870   4.931 -1.7851 -2.0257 -1.0281
  117SOPE  C31112367   4.612   1.946   4.796  0.4070  0.4386 -0.9963
  117SOPE  H11X12368   4.672   2.013   4.731 -0.9926  1.8240 -0.9248
  117SOPE  H11Y12369   4.513   1.992   4.817  0.3184 -0.7246  1.5945
  117SOPE  C31212370   4.583   1.819   4.719  0.6902 -0.7391 -0.2449
  117SOPE  H12X12371   4.535   1.747   4.789  2.5737 -0.1100  1.8163
  117SOPE  H12Y12372   4.674   1.763   4.687 -0.3951 -1.9722 -1.3004
  117SOPE  C31312373   4.493   1.856   4.598  0.2036  0.4424  0.6837
  117SOPE  H13X12374   4.569   1.895   4.528  1.1849  1.5928  2.3064
  117SOPE  H13Y12375   4.405   1.923   4.608 -2.0287 -2.4013  1.2562
  117SOPE  C31412376   4.447   1.722   4.544 -0.2146 -0.4628  0.1566
  117SOPE  H14X12377   4.369   1.679   4.610 -1.3918  1.7120  0.2665
  117SOPE  H14Y12378   4.525   1.642   4.539 -1.1790 -1.3448 -1.5981
  117SOPE  C31512379   4.391   1.733   4.398  0.8365  0.2499  0.2364
  117SOPE  H15X12380   4.482   1.761   4.340  0.5148 -1.1111 -0.9767
  117SOPE  H15Y12381   4.317   1.816   4.405  1.8052  1.0677  1.4120
  117SOPE  C31612382   4.338   1.597   4.361  0.9828  0.0118  0.3816
  117SOPE  H16X12383   4.398   1.518   4.411  0.2039 -0.1008  1.1733
  117SOPE  H16Y12384   4.351   1.595   4.251  0.4566 -0.5673  0.3266
  117SOPE  C31712385   4.185   1.604   4.397  0.4281 -0.6997 -0.4701
  117SOPE  H17X12386   4.146   1.682   4.328 -1.5540 -0.6838  0.5949
  117SOPE  H17Y12387   4.179   1.640   4.502  1.5526 -2.6289  0.3161
  117SOPE  C31812388   4.111   1.479   4.369 -0.4571 -0.0092 -0.0870
  117SOPE  H18X12389   4.002   1.480   4.394 -0.6050 -1.6303 -0.5301
  117SOPE  H18Y12390   4.160   1.390   4.414 -1.3611 -1.1299 -1.2228
  117SOPE  H18Z12391   4.107   1.474   4.258 -0.7164 -1.5670 -0.0394
  118SOPE     N12392   4.897   4.261   6.670  0.2674 -0.1683 -0.2349
  118SOPE   HN112393   4.934   4.345   6.718  0.8727  0.6079 -1.9723
  118SOPE   HN212394   4.810   4.283   6.617 -1.7735 -1.5213  2.3060
  118SOPE   HN312395   4.880   4.177   6.729 -0.5392 -0.7267 -1.2227
  118SOPE   C1212396   5.005   4.214   6.575  0.0997 -0.3382  0.3345
  118SOPE  H12A12397   5.044   4.299   6.515  0.6556 -1.0919 -0.3975
  118SOPE  H12B12398   4.963   4.146   6.498  0.8698 -0.5518  0.0898
  118SOPE   C1112399   5.135   4.182   6.647  0.0849  0.2253  0.2941
  118SOPE  H11A12400   5.188   4.272   6.686  1.5943 -0.5853  0.2120
  118SOPE  H11B12401   5.216   4.148   6.578  1.6336  0.8399  1.7439
  118SOPE     P12402   5.147   3.944   6.740 -0.4903 -0.2468 -0.0177
  118SOPE   O1312403   5.072   3.859   6.834  0.6276  0.6250  0.1564
  118SOPE   O1412404   5.294   3.924   6.737  0.5895 -0.8347  0.2496
  118SOPE   O1212405   5.116   4.096   6.753  0.2961  0.2065 -0.3633
  118SOPE   O1112406   5.100   3.916   6.593  0.0308 -0.0710 -0.2874
  118SOPE    C112407   5.117   3.795   6.518  0.0857 -0.7393  0.0481
  118SOPE    HA12408   5.077   3.706   6.571 -2.5457 -0.2433 -0.9497
  118SOPE    HB12409   5.225   3.768   6.517 -0.0523 -1.2809 -1.3243
  118SOPE    C212410   5.061   3.801   6.373  0.7053 -0.0113 -0.7452
  118SOPE    HS12411   5.044   3.694   6.350 -0.2067 -0.5657  2.1133
  118SOPE   O2112412   5.141   3.876   6.285 -0.1323  0.0158 -0.2167
  118SOPE   C2112413   5.249   3.809   6.253 -0.2715  0.1998 -0.0926
  118SOPE   O2212414   5.267   3.687   6.279 -0.2646 -0.7839 -0.0203
  118SOPE   C2212415   5.343   3.896   6.165  0.0241  0.1623 -0.5605
  118SOPE   H2R12416   5.388   3.978   6.225 -1.7048 -0.4911  1.7470
  118SOPE   H2S12417   5.274   3.936   6.087 -0.2563 -0.2625 -0.5324
  118SOPE    C312418   4.914   3.866   6.365 -0.1400 -0.0520 -1.0592
  118SOPE    HX12419   4.911   3.955   6.431 -0.2618 -1.3530  0.7518
  118SOPE    HY12420   4.844   3.796   6.415 -0.4690  0.7341 -0.3965
  118SOPE   O3112421   4.878   3.889   6.233 -0.3140 -0.4697  0.0371
  118SOPE   C3112422   4.872   4.012   6.184  0.4417 -0.3025 -0.2068
  118SOPE   O3212423   4.886   4.113   6.247  0.0102  0.0729 -0.5099
  118SOPE   C3212424   4.859   4.016   6.031 -0.1705 -0.7135 -0.5133
  118SOPE   H2X12425   4.961   3.980   6.004 -0.2105 -1.3268  0.1269
  118SOPE   H2Y12426   4.839   4.119   5.997 -1.4849 -1.0840 -0.9181
  118SOPE   C2312427   5.462   3.822   6.107 -0.6250  0.4354 -0.4399
  118SOPE   H3R12428   5.434   3.716   6.092  0.0350 -0.2045  2.3908
  118SOPE   H3S12429   5.546   3.818   6.178  0.0871  0.5589 -1.2551
  118SOPE   C2412430   5.512   3.889   5.979 -0.4595  0.0753 -0.5754
  118SOPE   H4R12431   5.431   3.908   5.905 -0.0186 -1.6145 -1.5534
  118SOPE   H4S12432   5.554   3.989   5.999  1.8574 -0.8323 -0.6310
  118SOPE   C2512433   5.634   3.816   5.919 -0.0685 -0.0517 -0.0909
  118SOPE   H5R12434   5.731   3.847   5.964 -1.1350 -2.0283  4.0376
  118SOPE   H5S12435   5.624   3.708   5.942 -1.2369  0.1760  0.5295
  118SOPE   C2612436   5.654   3.837   5.767 -0.2149  0.2594  0.0424
  118SOPE   H6R12437   5.569   3.787   5.717 -0.3872  1.1662 -0.6038
  118SOPE   H6S12438   5.637   3.944   5.741 -2.7248  0.0452  0.5774
  118SOPE   C2712439   5.785   3.761   5.725  0.1074 -0.1200 -0.3808
  118SOPE   H7R12440   5.866   3.801   5.790  0.3046 -0.5340 -0.3701
  118SOPE   H7S12441   5.773   3.655   5.756  0.3575  0.3036  1.2947
  118SOPE   C2812442   5.817   3.754   5.575  0.9487  0.2222 -0.2124
  118SOPE   H8R12443   5.916   3.704   5.567  0.6095 -0.6845  1.0653
  118SOPE   H8S12444   5.752   3.681   5.523  0.5196  1.6534 -1.7914
  118SOPE   C2912445   5.806   3.880   5.501 -0.0065 -0.3058 -0.8116
  118SOPE   H9112446   5.710   3.933   5.507 -0.4597 -1.2872  2.5169
  118SOPE  C21012447   5.903   3.944   5.433  0.1411  0.2491 -0.1035
  118SOPE  H10112448   5.877   4.036   5.379  0.9103  0.6369  0.1749
  118SOPE  C21112449   6.050   3.903   5.444  0.7570  0.2145 -0.7333
  118SOPE  H11R12450   6.064   3.803   5.490 -0.1211  0.9858  1.3835
  118SOPE  H11S12451   6.095   3.969   5.522 -0.1646  0.5380 -0.4563
  118SOPE  C21212452   6.138   3.904   5.322  0.3459  0.2006 -0.6325
  118SOPE  H12R12453   6.092   3.827   5.257  0.3526 -1.0184  0.7433
  118SOPE  H12S12454   6.233   3.861   5.361  1.6598  4.3231  1.3297
  118SOPE  C21312455   6.158   4.044   5.262  0.1981 -0.3952 -0.1825
  118SOPE  H13R12456   6.203   4.112   5.337  1.0770  0.5440 -1.5020
  118SOPE  H13S12457   6.054   4.080   5.250 -0.4590 -2.0691  0.1552
  118SOPE  C21412458   6.235   4.045   5.130 -0.1930  0.8032 -0.4856
  118SOPE  H14R12459   6.172   3.989   5.058 -0.1463 -1.9462  1.4803
  118SOPE  H14S12460   6.320   3.979   5.155 -3.0484 -2.6166  1.0013
  118SOPE  C21512461   6.279   4.175   5.069 -1.2653 -0.0953  0.1331
  118SOPE  H15R12462   6.317   4.150   4.967 -1.9226  0.3749 -0.2326
  118SOPE  H15S12463   6.369   4.210   5.123 -0.4435 -2.6360  0.5558
  118SOPE  C21612464   6.167   4.276   5.057  0.4859 -0.5970 -0.1855
  118SOPE  H16R12465   6.069   4.225   5.049 -0.6760  0.5334  4.1131
  118SOPE  H16S12466   6.183   4.345   4.971  0.2020 -1.0286 -0.5915
  118SOPE  C21712467   6.153   4.370   5.182 -1.0878  0.4124  0.0164
  118SOPE  H17R12468   6.258   4.397   5.205 -0.4063  0.7590 -3.0262
  118SOPE  H17S12469   6.109   4.317   5.269 -1.1048 -0.4937 -0.5267
  118SOPE  C21812470   6.076   4.499   5.160  0.1783 -0.6701  0.5352
  118SOPE  H18R12471   6.126   4.572   5.095 -0.9300  0.9252  1.3912
  118SOPE  H18S12472   6.083   4.557   5.255  0.1199  0.6837 -0.2677
  118SOPE  H18T12473   5.970   4.488   5.126 -0.3980  0.9360  1.6824
  118SOPE   C3312474   4.757   3.909   5.960 -0.4134 -0.5127 -0.0596
  118SOPE   H3X12475   4.661   3.963   5.942 -0.2597  0.3574  1.5307
  118SOPE   H3Y12476   4.746   3.826   6.033  0.1232  0.1408  0.7879
  118SOPE   C3412477   4.805   3.858   5.824 -0.3341  0.1520 -0.6744
  118SOPE   H4X12478   4.750   3.765   5.798 -1.2836  0.8643 -1.3008
  118SOPE   H4Y12479   4.910   3.822   5.825 -0.0744  0.8796  0.2657
  118SOPE   C3512480   4.778   3.952   5.716 -0.0130 -0.5404 -1.1792
  118SOPE   H5X12481   4.810   4.048   5.764 -1.6151 -1.1287  1.2479
  118SOPE   H5Y12482   4.671   3.948   5.690 -1.0616  0.7773  2.3430
  118SOPE   C3612483   4.867   3.924   5.592  0.1784  0.0755 -0.4381
  118SOPE   H6X12484   4.972   3.917   5.629 -0.5401 -2.2045  1.4171
  118SOPE   H6Y12485   4.863   4.012   5.525 -5.1621 -0.1890 -0.9102
  118SOPE   C3712486   4.822   3.807   5.510 -0.2181  0.1839  0.1876
  118SOPE   H7X12487   4.712   3.797   5.508 -0.4410  2.0612  1.0286
  118SOPE   H7Y12488   4.874   3.715   5.546 -0.5060  0.3724  1.0986
  118SOPE   C3812489   4.860   3.821   5.361 -0.4761  0.3405  0.1434
  118SOPE   H8X12490   4.882   3.723   5.314  2.1616  1.2402 -0.6864
  118SOPE   H8Y12491   4.955   3.875   5.342 -1.2319  2.1105  1.1654
  118SOPE   C3912492   4.755   3.894   5.275 -0.5733 -0.5429 -0.6896
  118SOPE   H9X12493   4.730   3.979   5.342  3.8591 -0.6819  1.5225
  118SOPE   H9Y12494   4.676   3.818   5.258  0.0060 -0.7310 -2.8523
  118SOPE  C31012495   4.807   3.946   5.142 -0.8282 -0.1481  0.1028
  118SOPE  H10X12496   4.832   3.871   5.064 -1.3798 -0.2699  0.0396
  118SOPE  H10Y12497   4.898   4.008   5.159  0.2409 -0.3330 -3.9166
  118SOPE  C31112498   4.713   4.046   5.089 -0.0095 -0.5711 -0.2257
  118SOPE  H11X12499   4.742   4.122   5.014 -2.6764 -0.2068 -1.0040
  118SOPE  H11Y12500   4.678   4.107   5.176 -0.0845 -1.7161  0.5757
  118SOPE  C31212501   4.579   3.987   5.043 -0.0004 -0.3467  1.1185
  118SOPE  H12X12502   4.518   4.080   5.043  1.8692  0.9350  0.8579
  118SOPE  H12Y12503   4.535   3.915   5.115 -0.8667  0.2285  1.1935
  118SOPE  C31312504   4.585   3.934   4.903 -0.0297  0.3266  0.0988
  118SOPE  H13X12505   4.673   3.979   4.854  0.2747 -0.8285 -0.4649
  118SOPE  H13Y12506   4.491   3.965   4.852 -0.5552 -1.8047 -0.3633
  118SOPE  C31412507   4.594   3.783   4.895 -0.0583 -0.3089 -0.3552
  118SOPE  H14X12508   4.648   3.753   4.987 -1.7626 -0.0024  0.7873
  118SOPE  H14Y12509   4.653   3.761   4.803  0.6485 -0.7573  0.2016
  118SOPE  C31512510   4.464   3.709   4.886 -0.0623 -0.1961  0.2400
  118SOPE  H15X12511   4.395   3.766   4.819  0.0351  0.8173  0.9723
  118SOPE  H15Y12512   4.405   3.717   4.980 -1.7208 -1.4529 -0.6422
  118SOPE  C31612513   4.486   3.558   4.853  0.3861 -0.0917 -0.5985
  118SOPE  H16X12514   4.388   3.514   4.882 -0.0696  1.5616  0.4961
  118SOPE  H16Y12515   4.557   3.517   4.929  1.9174 -0.5526 -2.2191
  118SOPE  C31712516   4.516   3.540   4.711  0.0630  0.0447 -0.2083
  118SOPE  H17X12517   4.615   3.587   4.696  0.5484 -1.3007 -1.4409
  118SOPE  H17Y12518   4.446   3.590   4.640  0.0598  2.5833  1.4244
  118SOPE  C31812519   4.533   3.389   4.683 -0.2245  0.2242 -0.2297
  118SOPE  H18X12520   4.591   3.345   4.766 -0.5779  2.3217  1.2067
  118SOPE  H18Y12521   4.599   3.375   4.594 -2.0231 -0.3660 -1.5290
  118SOPE  H18Z12522   4.431   3.347   4.669 -0.0227 -0.8316  1.3096
  119SOPE     N12523   6.299   4.478   6.986  0.3434  1.0873 -0.4681
  119SOPE   HN112524   6.377   4.457   7.052 -0.1685 -0.0614 -0.2037
  119SOPE   HN212525   6.219   4.521   7.036  0.8431  0.7805  0.6448
  119SOPE   HN312526   6.262   4.390   6.943  1.8867  0.1480  0.0330
  119SOPE   C1212527   6.362   4.578   6.892  0.2642  0.3360  0.0551
  119SOPE  H12A12528   6.342   4.678   6.938 -1.6369 -0.8142  1.9078
  119SOPE  H12B12529   6.299   4.578   6.800 -0.0444  1.5035  0.2434
  119SOPE   C1112530   6.499   4.542   6.847 -0.5286  0.0879  0.1412
  119SOPE  H11A12531   6.528   4.611   6.765 -0.8969 -0.3504 -0.3669
  119SOPE  H11B12532   6.507   4.440   6.804 -1.0869  0.0575  0.1068
  119SOPE     P12533   6.658   4.447   7.034  0.4040 -0.3762  0.2029
  119SOPE   O1312534   6.549   4.362   7.083 -0.0396  0.6180  0.0561
  119SOPE   O1412535   6.744   4.495   7.139 -0.4820  0.1380 -0.4718
  119SOPE   O1212536   6.595   4.565   6.948 -0.4734 -0.3400 -0.6177
  119SOPE   O1112537   6.740   4.359   6.925  0.3754  0.2008 -0.6721
  119SOPE    C112538   6.844   4.422   6.856 -0.0645  0.0879 -0.1281
  119SOPE    HA12539   6.924   4.346   6.841 -0.5266 -0.2220 -1.1252
  119SOPE    HB12540   6.878   4.519   6.900  1.9594  0.1338 -1.6179
  119SOPE    C212541   6.798   4.456   6.708  0.4794  0.5812  0.4098
  119SOPE    HS12542   6.722   4.537   6.716  0.6529  0.6057  2.1466
  119SOPE   O2112543   6.754   4.333   6.650  0.1002  0.3606  0.0596
  119SOPE   C2112544   6.669   4.348   6.553 -0.8468 -0.2041 -0.3361
  119SOPE   O2212545   6.621   4.453   6.517 -0.0052 -0.2745  0.3047
  119SOPE   C2212546   6.638   4.210   6.480 -0.5296 -0.3441 -0.3435
  119SOPE   H2R12547   6.576   4.241   6.393 -2.9872 -0.3616  1.3095
  119SOPE   H2S12548   6.579   4.151   6.553  0.3225 -1.8603 -0.8315
  119SOPE    C312549   6.923   4.506   6.622  0.2217  1.0057 -0.5187
  119SOPE    HX12550   6.989   4.418   6.615 -0.3232  0.7063 -2.7713
  119SOPE    HY12551   6.961   4.592   6.681  0.4565 -0.5634  1.7242
  119SOPE   O3112552   6.891   4.558   6.486  0.3155  0.1452 -0.4610
  119SOPE   C3112553   6.814   4.666   6.482 -0.2657 -0.0303  0.5638
  119SOPE   O3212554   6.771   4.718   6.585  0.4222  0.0748  0.1631
  119SOPE   C3212555   6.799   4.718   6.337 -0.4368 -0.6333  0.7779
  119SOPE   H2X12556   6.826   4.639   6.263  0.0936  1.0758 -0.9276
  119SOPE   H2Y12557   6.873   4.800   6.339 -1.9473  0.8893 -1.3984
  119SOPE   C2312558   6.764   4.140   6.435  0.2002 -0.5492  0.1073
  119SOPE   H3R12559   6.745   4.032   6.420  0.8698 -0.7417  0.6191
  119SOPE   H3S12560   6.839   4.125   6.515  1.1067 -3.2123 -1.1437
  119SOPE   C2412561   6.810   4.192   6.301 -0.0756 -0.6823  0.5431
  119SOPE   H4R12562   6.866   4.115   6.243  0.4445  0.8028 -1.0214
  119SOPE   H4S12563   6.730   4.227   6.233  1.8779  0.5082 -1.2833
  119SOPE   C2512564   6.920   4.300   6.319  0.2099 -0.0825  0.2381
  119SOPE   H5R12565   6.874   4.401   6.327  2.8166  1.0335  3.2157
  119SOPE   H5S12566   6.966   4.282   6.419 -1.4755  0.4498  1.1393
  119SOPE   C2612567   7.019   4.301   6.207  0.1092  0.1785 -0.1882
  119SOPE   H6R12568   7.107   4.359   6.242  1.4379 -1.3254 -0.8794
  119SOPE   H6S12569   7.059   4.197   6.202  0.1268  0.2354 -1.9719
  119SOPE   C2712570   6.945   4.343   6.074 -0.5503  0.9600  0.0773
  119SOPE   H7R12571   6.878   4.259   6.046  0.6984  0.2267 -0.7883
  119SOPE   H7S12572   6.876   4.429   6.094  1.4913  2.3952  1.2704
  119SOPE   C2812573   7.046   4.368   5.963  0.6615 -0.2641  0.5445
  119SOPE   H8R12574   6.982   4.383   5.873  1.1168  1.3685  0.4672
  119SOPE   H8S12575   7.097   4.465   5.983  1.1600 -0.2765 -0.5703
  119SOPE   C2912576   7.150   4.264   5.940  0.3156  0.3124 -0.2368
  119SOPE   H9112577   7.177   4.205   6.028  1.3830  1.0345 -0.0657
  119SOPE  C21012578   7.212   4.246   5.826 -0.4790  0.7778 -1.1278
  119SOPE  H10112579   7.280   4.160   5.821  0.7666  1.5619  1.0314
  119SOPE  C21112580   7.194   4.321   5.696 -0.1758  0.0400 -0.2121
  119SOPE  H11R12581   7.088   4.329   5.665  0.2127 -2.5091 -2.6383
  119SOPE  H11S12582   7.244   4.263   5.615 -0.1042  1.3932 -1.1528
  119SOPE  C21212583   7.253   4.464   5.699 -0.4249  0.0762 -0.0086
  119SOPE  H12R12584   7.350   4.459   5.752 -0.1639 -0.2089 -0.5026
  119SOPE  H12S12585   7.188   4.536   5.753 -0.6296 -1.4913  1.9871
  119SOPE  C21312586   7.286   4.505   5.551 -0.1910  0.2023  0.5412
  119SOPE  H13R12587   7.187   4.519   5.504  0.6821 -0.4868 -1.6436
  119SOPE  H13S12588   7.333   4.421   5.495  1.2182  1.2408  0.1075
  119SOPE  C21412589   7.375   4.632   5.535 -0.1952  0.3635 -0.0560
  119SOPE  H14R12590   7.473   4.614   5.584  0.7932  3.6081 -0.6418
  119SOPE  H14S12591   7.336   4.721   5.588  2.0550  1.2426  0.2254
  119SOPE  C21512592   7.401   4.665   5.392 -0.2505  1.0422  0.0724
  119SOPE  H15R12593   7.302   4.674   5.343  0.7198 -0.4950 -2.3369
  119SOPE  H15S12594   7.456   4.591   5.330 -0.1829  0.1326  1.1851
  119SOPE  C21612595   7.468   4.800   5.377  0.2227 -0.6501  0.3678
  119SOPE  H16R12596   7.417   4.872   5.445  0.2516 -1.8022  1.6716
  119SOPE  H16S12597   7.448   4.830   5.272 -0.6250  1.4647  1.0682
  119SOPE  C21712598   7.620   4.799   5.411 -0.4629  1.4279 -0.1091
  119SOPE  H17R12599   7.641   4.718   5.485 -0.5565 -0.2193 -1.8131
  119SOPE  H17S12600   7.649   4.894   5.461  0.5667  1.1657 -0.1711
  119SOPE  C21812601   7.703   4.783   5.284 -0.3536  0.5075 -0.0197
  119SOPE  H18R12602   7.811   4.764   5.300 -0.2856  1.1268  0.2972
  119SOPE  H18S12603   7.679   4.870   5.218 -0.7594  0.3853 -0.0406
  119SOPE  H18T12604   7.665   4.692   5.233  0.8042 -0.2319  0.4159
  119SOPE   C3312605   6.652   4.762   6.303  0.6100  0.0306 -0.0981
  119SOPE   H3X12606   6.627   4.839   6.378  0.5092 -1.3409  1.3330
  119SOPE   H3Y12607   6.589   4.671   6.314 -1.5165  1.3885 -0.4392
  119SOPE   C3412608   6.626   4.804   6.157 -0.0024 -1.0780 -0.4022
  119SOPE   H4X12609   6.647   4.724   6.083  0.2346  2.1963 -4.2255
  119SOPE   H4Y12610   6.702   4.875   6.118  2.3834 -2.7510  0.9149
  119SOPE   C3512611   6.488   4.866   6.139 -0.0400 -0.2405 -0.3781
  119SOPE   H5X12612   6.493   4.965   6.189 -3.1860  0.9587 -2.1596
  119SOPE   H5Y12613   6.411   4.802   6.188  0.1668 -2.6443 -2.9247
  119SOPE   C3612614   6.445   4.864   5.993  0.4693 -0.8614  0.0965
  119SOPE   H6X12615   6.335   4.878   5.986  0.6351 -0.5144 -3.5587
  119SOPE   H6Y12616   6.463   4.764   5.947 -3.4083 -1.3187 -0.7921
  119SOPE   C3712617   6.511   4.973   5.908  0.4702  0.7194 -0.7949
  119SOPE   H7X12618   6.619   4.951   5.897  0.1038 -3.0958  1.4529
  119SOPE   H7Y12619   6.500   5.074   5.954  3.0194  0.2210  1.1373
  119SOPE   C3812620   6.454   4.981   5.765 -0.0801  0.3935 -0.4982
  119SOPE   H8X12621   6.350   5.016   5.777  0.6208  2.6332 -0.4961
  119SOPE   H8Y12622   6.457   4.879   5.720  1.5942  0.1759  0.0312
  119SOPE   C3912623   6.540   5.076   5.682 -0.4936 -0.0064 -0.0948
  119SOPE   H9X12624   6.642   5.041   5.656 -1.1437 -1.7743 -0.4185
  119SOPE   H9Y12625   6.553   5.165   5.747 -0.0490 -1.1540  1.4461
  119SOPE  C31012626   6.470   5.138   5.556 -0.5946 -0.9905 -0.1540
  119SOPE  H10X12627   6.402   5.221   5.587  1.1296  0.5198 -0.2892
  119SOPE  H10Y12628   6.398   5.060   5.524 -0.0868 -1.4321 -0.2276
  119SOPE  C31112629   6.572   5.185   5.443  1.4057  0.4162 -0.0342
  119SOPE  H11X12630   6.617   5.090   5.406  0.5737  0.6849 -1.8525
  119SOPE  H11Y12631   6.642   5.253   5.496 -0.6749  2.3445  0.3916
  119SOPE  C31212632   6.502   5.252   5.322  0.1683 -0.1491  0.7777
  119SOPE  H12X12633   6.434   5.331   5.360  0.2174  0.0248  0.5048
  119SOPE  H12Y12634   6.443   5.169   5.278  0.9783 -1.6026  2.2884
  119SOPE  C31312635   6.600   5.298   5.222 -0.2993 -0.3044  0.6034
  119SOPE  H13X12636   6.666   5.212   5.197 -1.0948 -0.6365 -0.3945
  119SOPE  H13Y12637   6.663   5.379   5.267  1.6664 -1.7458  0.5934
  119SOPE  C31412638   6.553   5.347   5.082 -0.3724  0.2022  0.1523
  119SOPE  H14X12639   6.645   5.371   5.024  0.8921  0.6953  2.2365
  119SOPE  H14Y12640   6.492   5.439   5.096 -1.0164  0.1198 -1.8185
  119SOPE  C31512641   6.468   5.239   5.015  1.0615  0.1432 -0.2214
  119SOPE  H15X12642   6.420   5.279   4.923  1.2268 -0.4451 -0.5750
  119SOPE  H15Y12643   6.384   5.206   5.079  1.2858  1.3660  0.7347
  119SOPE  C31612644   6.540   5.112   4.956  0.6958  0.0238 -0.3472
  119SOPE  H16X12645   6.459   5.040   4.936 -0.6089  1.7509 -1.6667
  119SOPE  H16Y12646   6.605   5.065   5.033  1.2239  1.0549 -0.1378
  119SOPE  C31712647   6.620   5.139   4.822 -0.3493  0.1845 -0.3960
  119SOPE  H17X12648   6.716   5.191   4.839  0.5757 -1.1452 -1.3736
  119SOPE  H17Y12649   6.566   5.212   4.758  2.0666  1.4815 -1.0666
  119SOPE  C31812650   6.662   5.013   4.745  0.1126  0.1116 -0.3123
  119SOPE  H18X12651   6.675   5.026   4.636  0.1272  0.4314 -0.2734
  119SOPE  H18Y12652   6.572   4.950   4.763  2.0936 -2.8876 -0.3799
  119SOPE  H18Z12653   6.745   4.951   4.783 -1.5422 -1.7226  0.4554
  120SOPE     N12654   0.239   6.716   6.386 -0.4986  0.2728 -0.4106
  120SOPE   HN112655   0.150   6.678   6.346 -0.6986  1.4725 -1.1595
  120SOPE   HN212656   0.263   6.810   6.350 -2.1816  0.9192  0.0336
  120SOPE   HN312657   0.314   6.647   6.367 -0.1227  0.4347  0.4389
  120SOPE   C1212658   0.210   6.713   6.533 -0.5286  0.0394  0.1928
  120SOPE  H12A12659   0.130   6.788   6.549  1.4238  1.6107  3.9184
  120SOPE  H12B12660   0.301   6.729   6.595  0.0481 -2.2510  0.0458
  120SOPE   C1112661   0.154   6.578   6.571  0.0876  0.5929  0.2028
  120SOPE  H11A12662   0.115   6.594   6.674 -2.0523 -2.1106 -0.0711
  120SOPE  H11B12663   0.240   6.509   6.570  0.1775  0.6864  1.1499
  120SOPE     P12664  -0.101   6.566   6.515  0.2441 -0.0769  0.3026
  120SOPE   O1312665  -0.112   6.709   6.543  0.7924 -0.4303 -0.5491
  120SOPE   O1412666  -0.159   6.473   6.612  0.1005  0.7385 -0.0319
  120SOPE   O1212667   0.048   6.524   6.495 -0.2916 -0.3071  0.8451
  120SOPE   O1112668  -0.163   6.544   6.368 -0.3500 -0.0042 -0.4973
  120SOPE    C112669  -0.156   6.403   6.322  0.0913 -0.5197 -0.2578
  120SOPE    HA12670  -0.247   6.378   6.263 -0.1927 -3.0925  1.1529
  120SOPE    HB12671  -0.138   6.327   6.400  0.5210 -0.7627 -0.5924
  120SOPE    C212672  -0.048   6.397   6.215 -0.6627 -0.1032  0.4331
  120SOPE    HS12673   0.046   6.431   6.264 -0.7067  0.8724 -0.1317
  120SOPE   O2112674  -0.094   6.480   6.110  0.0323  0.0724 -0.7331
  120SOPE   C2112675  -0.037   6.602   6.113 -0.4315 -0.6667  0.4285
  120SOPE   O2212676   0.053   6.639   6.185  0.9430  0.3146  0.4245
  120SOPE   C2212677  -0.104   6.667   6.000 -0.3088 -0.2017  0.4070
  120SOPE   H2R12678  -0.060   6.767   5.980 -0.2107 -0.6168 -1.6553
  120SOPE   H2S12679  -0.210   6.691   6.022 -0.2011 -0.0526  0.7798
  120SOPE    C312680  -0.025   6.252   6.158  0.1006 -0.6217 -1.4988
  120SOPE    HX12681  -0.114   6.221   6.100 -1.2576 -0.1967  0.2781
  120SOPE    HY12682  -0.022   6.183   6.245 -0.6364  0.4509 -0.5973
  120SOPE   O3112683   0.092   6.251   6.070  0.2298 -0.2309 -0.9231
  120SOPE   C3112684   0.209   6.270   6.129  0.1290  0.2331 -0.0610
  120SOPE   O3212685   0.236   6.255   6.245  0.4438  0.2973  0.3698
  120SOPE   C3212686   0.301   6.325   6.016  0.2116 -0.6112 -0.0536
  120SOPE   H2X12687   0.267   6.290   5.917 -0.0871  1.3828 -0.7014
  120SOPE   H2Y12688   0.403   6.284   6.034  0.2642 -0.5663 -0.2523
  120SOPE   C2312689  -0.106   6.583   5.867 -0.2999  0.5627 -0.0077
  120SOPE   H3R12690  -0.184   6.507   5.888  0.3610 -0.0609  0.2354
  120SOPE   H3S12691  -0.012   6.527   5.847  0.3400  1.5083  0.2650
  120SOPE   C2412692  -0.137   6.678   5.751 -0.0779 -0.5713  0.1623
  120SOPE   H4R12693  -0.215   6.754   5.773  0.3574  0.3853 -1.3879
  120SOPE   H4S12694  -0.040   6.725   5.722 -0.2776 -0.5063 -0.3995
  120SOPE   C2512695  -0.191   6.603   5.629 -0.7886 -0.2612  0.2483
  120SOPE   H5R12696  -0.119   6.521   5.606  1.9707  1.6355  1.6144
  120SOPE   H5S12697  -0.290   6.563   5.659 -0.0013 -1.1602  1.7487
  120SOPE   C2612698  -0.216   6.687   5.503  0.1773 -0.3207  0.0596
  120SOPE   H6R12699  -0.320   6.725   5.516  0.4550 -0.3283  2.6994
  120SOPE   H6S12700  -0.140   6.768   5.504  1.7731 -1.7751  0.8469
  120SOPE   C2712701  -0.214   6.606   5.372  0.0086 -0.3284 -0.2691
  120SOPE   H7R12702  -0.109   6.589   5.339 -0.3525  1.4205 -2.6411
  120SOPE   H7S12703  -0.272   6.513   5.392 -0.8108  0.3856  0.7627
  120SOPE   C2812704  -0.280   6.693   5.255 -0.5597  0.1335 -0.2959
  120SOPE   H8R12705  -0.236   6.795   5.264  0.9594 -0.5639  0.5876
  120SOPE   H8S12706  -0.250   6.660   5.153  1.2778 -0.3774  0.3790
  120SOPE   C2912707  -0.425   6.692   5.276  0.5541  0.2705 -0.0881
  120SOPE   H9112708  -0.471   6.593   5.269  0.3254  0.2718  1.1312
  120SOPE  C21012709  -0.513   6.795   5.283  0.7442 -0.7981 -0.2642
  120SOPE  H10112710  -0.620   6.769   5.284  0.4414  0.3471 -0.8917
  120SOPE  C21112711  -0.482   6.943   5.276 -0.6745  0.4705 -0.2179
  120SOPE  H11R12712  -0.372   6.951   5.265 -0.5598 -1.3859 -0.8900
  120SOPE  H11S12713  -0.514   6.973   5.378  0.1614 -2.2562  0.9412
  120SOPE  C21212714  -0.557   6.998   5.156 -0.4940  0.0192  1.4265
  120SOPE  H12R12715  -0.535   7.107   5.164 -0.8703  0.1232  1.0977
  120SOPE  H12S12716  -0.667   6.982   5.165 -1.3449  1.0914 -3.8539
  120SOPE  C21312717  -0.496   6.956   5.019  0.1999  0.2405  0.0691
  120SOPE  H13R12718  -0.480   6.846   5.029 -1.5204  0.0440  1.1838
  120SOPE  H13S12719  -0.395   7.000   5.014 -0.3606  1.7512  1.3797
  120SOPE  C21412720  -0.579   6.981   4.891  0.3231  0.1827  0.7279
  120SOPE  H14R12721  -0.539   6.945   4.794 -0.4380  1.4596 -0.0886
  120SOPE  H14S12722  -0.589   7.091   4.881  1.7783  0.1792 -1.2184
  120SOPE  C21512723  -0.722   6.921   4.907 -0.3715  0.2814 -1.1536
  120SOPE  H15R12724  -0.786   6.983   4.974  0.1531 -0.3146 -0.0646
  120SOPE  H15S12725  -0.718   6.820   4.952  1.0708  0.5456 -0.6196
  120SOPE  C21612726  -0.794   6.901   4.766 -0.8100 -0.0681 -0.4843
  120SOPE  H16R12727  -0.739   6.823   4.709 -0.5245 -2.5893  2.9503
  120SOPE  H16S12728  -0.774   6.995   4.710 -2.2044 -0.0340 -0.9536
  120SOPE  C21712729  -0.947   6.875   4.792 -0.5779 -0.1065 -0.1062
  120SOPE  H17R12730  -0.989   6.963   4.845 -0.0661  0.4374 -0.5991
  120SOPE  H17S12731  -0.935   6.792   4.865 -0.9607 -0.6072 -0.6038
  120SOPE  C21812732  -1.031   6.847   4.666 -0.4935  0.7259  0.3700
  120SOPE  H18R12733  -1.028   6.928   4.590  1.0455 -1.1294 -1.6910
  120SOPE  H18S12734  -1.135   6.824   4.697 -0.5290  0.6539  0.2020
  120SOPE  H18T12735  -1.012   6.753   4.609 -0.2306  1.8901 -1.5453
  120SOPE   C3312736   0.316   6.491   6.008  0.0026  0.1034 -0.1944
  120SOPE   H3X12737   0.318   6.540   6.108  0.3285 -0.5373  0.1252
  120SOPE   H3Y12738   0.242   6.540   5.942  0.8889 -0.2566 -1.4911
  120SOPE   C3412739   0.450   6.529   5.940 -0.0330 -0.6817  0.4920
  120SOPE   H4X12740   0.528   6.472   5.995  0.5116  0.5471  1.0323
  120SOPE   H4Y12741   0.477   6.632   5.971  0.3006 -1.1840  1.9433
  120SOPE   C3512742   0.453   6.498   5.784 -0.0915  0.4142 -1.0323
  120SOPE   H5X12743   0.433   6.391   5.764 -0.0896 -0.0092  1.0254
  120SOPE   H5Y12744   0.548   6.516   5.729  0.8553  0.6758  0.5982
  120SOPE   C3612745   0.347   6.574   5.710 -0.4810 -1.0765  0.4194
  120SOPE   H6X12746   0.354   6.678   5.749  1.8847 -1.7610  2.0373
  120SOPE   H6Y12747   0.249   6.524   5.727 -1.9794  1.9417  1.3587
  120SOPE   C3712748   0.357   6.567   5.559 -0.0409 -0.0377  0.1480
  120SOPE   H7X12749   0.258   6.599   5.520  0.4857  0.2153 -1.0271
  120SOPE   H7Y12750   0.365   6.459   5.532  0.8339 -0.8634  3.3311
  120SOPE   C3812751   0.467   6.653   5.506  0.5542 -0.6606 -0.2610
  120SOPE   H8X12752   0.558   6.646   5.569 -0.8647  0.6157  2.0525
  120SOPE   H8Y12753   0.435   6.757   5.528 -0.3703 -0.7101 -1.2915
  120SOPE   C3912754   0.483   6.652   5.352 -0.0397  0.0163 -0.6163
  120SOPE   H9X12755   0.384   6.671   5.307 -0.5793 -0.6067  0.2864
  120SOPE   H9Y12756   0.520   6.555   5.310 -0.0621 -0.8567  1.2689
  120SOPE  C31012757   0.590   6.757   5.313 -0.1164  0.0232 -0.1928
  120SOPE  H10X12758   0.674   6.757   5.387 -0.7016  0.1242  0.4847
  120SOPE  H10Y12759   0.542   6.856   5.318 -1.2507 -0.3866 -2.1378
  120SOPE  C31112760   0.644   6.739   5.172  0.6912  0.9995 -0.6546
  120SOPE  H11X12761   0.702   6.645   5.163  1.5195  1.5569 -1.2287
  120SOPE  H11Y12762   0.716   6.821   5.155  0.7118  0.6663 -2.2995
  120SOPE  C31212763   0.550   6.773   5.056  1.0763  0.3484 -0.2644
  120SOPE  H12X12764   0.615   6.814   4.976  3.8670  1.1721  2.2279
  120SOPE  H12Y12765   0.472   6.845   5.087 -1.1147 -1.0609 -2.1463
  120SOPE  C31312766   0.464   6.660   5.005 -0.3074  0.3382  0.1552
  120SOPE  H13X12767   0.415   6.617   5.095  0.6924 -0.6888  0.2288
  120SOPE  H13Y12768   0.530   6.578   4.969 -0.2873  0.8462 -1.0411
  120SOPE  C31412769   0.370   6.703   4.895  0.2638 -0.0836  0.6707
  120SOPE  H14X12770   0.334   6.807   4.909  2.6227  0.7346  1.0061
  120SOPE  H14Y12771   0.290   6.625   4.893 -0.1190  0.3218 -0.2005
  120SOPE  C31512772   0.445   6.714   4.761  0.0189 -0.0196  0.5534
  120SOPE  H15X12773   0.518   6.630   4.758 -1.0225 -0.9166 -1.2054
  120SOPE  H15Y12774   0.501   6.810   4.762 -1.2728  0.8544 -2.2853
  120SOPE  C31612775   0.355   6.704   4.642 -0.5610 -0.2554 -0.6885
  120SOPE  H16X12776   0.280   6.784   4.664 -0.3356 -0.6537  1.7146
  120SOPE  H16Y12777   0.300   6.609   4.627 -1.2406 -0.0222  0.2384
  120SOPE  C31712778   0.419   6.753   4.511  0.6287  0.0559 -0.3927
  120SOPE  H17X12779   0.467   6.847   4.544 -3.6201  3.4688 -2.8877
  120SOPE  H17Y12780   0.344   6.786   4.435  1.4560  2.0385 -0.3984
  120SOPE  C31812781   0.517   6.653   4.444 -0.2489 -0.2183 -0.1894
  120SOPE  H18X12782   0.583   6.612   4.523  0.0130  2.1285  0.8714
  120SOPE  H18Y12783   0.565   6.710   4.362 -1.4755  2.4775  0.8724
  120SOPE  H18Z12784   0.468   6.570   4.388 -1.0245  0.7187 -0.9330
  121SOPE     N12785   0.221   5.548   6.556  0.1184  0.4702  0.1357
  121SOPE   HN112786   0.325   5.547   6.554  0.2657 -0.0942  3.1651
  121SOPE   HN212787   0.199   5.459   6.605  0.2001 -0.8225 -2.0430
  121SOPE   HN312788   0.165   5.550   6.469 -0.8859  2.7071  0.7498
  121SOPE   C1212789   0.173   5.658   6.645 -0.2599  0.4567 -0.0911
  121SOPE  H12A12790   0.181   5.749   6.583 -0.9510  0.1270 -0.6704
  121SOPE  H12B12791   0.246   5.656   6.729 -1.7671  0.3670  1.2547
  121SOPE   C1112792   0.033   5.630   6.700  0.3263  0.2474 -0.4351
  121SOPE  H11A12793  -0.002   5.729   6.736  1.2829  0.2155  0.6368
  121SOPE  H11B12794   0.044   5.564   6.788  1.1098 -0.3825 -0.9902
  121SOPE     P12795  -0.166   5.634   6.524  0.0613 -0.1191  0.1072
  121SOPE   O1312796  -0.129   5.769   6.475  0.5929  0.0929 -0.4434
  121SOPE   O1412797  -0.276   5.624   6.624 -0.9759 -0.0133 -0.3786
  121SOPE   O1212798  -0.049   5.571   6.602  0.0421 -0.1496 -0.1224
  121SOPE   O1112799  -0.191   5.531   6.411  0.0879 -0.0722 -0.1097
  121SOPE    C112800  -0.123   5.410   6.394  0.0696  0.0843 -0.2333
  121SOPE    HA12801  -0.194   5.329   6.421  1.2070 -0.4263  1.3805
  121SOPE    HB12802  -0.033   5.391   6.457 -0.5587  1.7473  1.2631
  121SOPE    C212803  -0.079   5.393   6.245 -0.6177 -0.1042  0.3431
  121SOPE    HS12804   0.026   5.359   6.255 -0.1130  0.9665 -1.1155
  121SOPE   O2112805  -0.082   5.516   6.170 -0.0379  0.3653  0.3438
  121SOPE   C2112806   0.016   5.594   6.196  0.2199  0.0468  0.0468
  121SOPE   O2212807   0.107   5.580   6.277  0.4219  0.6869  0.1282
  121SOPE   C2212808  -0.003   5.733   6.123 -0.6001 -0.2535 -0.2950
  121SOPE   H2R12809  -0.097   5.776   6.165 -1.3874 -0.9218 -1.2975
  121SOPE   H2S12810  -0.005   5.713   6.014  0.3946 -3.0470  0.1013
  121SOPE    C312811  -0.168   5.287   6.164  1.0843  0.8398  0.8779
  121SOPE    HX12812  -0.276   5.312   6.162  0.2512 -2.3415  1.1530
  121SOPE    HY12813  -0.160   5.191   6.219 -3.2286 -0.3693 -0.1759
  121SOPE   O3112814  -0.121   5.267   6.023 -0.0157  0.2936 -0.1472
  121SOPE   C3112815  -0.012   5.201   6.019 -0.8276 -0.0472 -0.0166
  121SOPE   O3212816   0.047   5.153   6.114 -0.2441  0.2427 -0.2026
  121SOPE   C3212817   0.047   5.192   5.880  0.9765 -0.0041 -0.2467
  121SOPE   H2X12818  -0.038   5.200   5.808 -0.2546 -0.3707  1.1026
  121SOPE   H2Y12819   0.099   5.094   5.878  2.3150  0.5045  3.4030
  121SOPE   C2312820   0.105   5.849   6.137 -0.2066 -0.8269  0.0743
  121SOPE   H3R12821   0.136   5.856   6.243 -0.9567  1.0047  0.2095
  121SOPE   H3S12822   0.048   5.937   6.100 -0.1479 -0.9820 -0.3896
  121SOPE   C2412823   0.226   5.826   6.048  0.3422  0.0219  0.2702
  121SOPE   H4R12824   0.259   5.729   6.091  0.8425 -0.0771 -0.3178
  121SOPE   H4S12825   0.194   5.802   5.944 -0.1536 -2.2490  0.9054
  121SOPE   C2512826   0.332   5.929   6.046  0.4108  0.5676 -0.1953
  121SOPE   H5R12827   0.278   6.026   6.051  1.2439  1.0122  0.4316
  121SOPE   H5S12828   0.402   5.943   6.132  0.6806 -0.4903 -0.2219
  121SOPE   C2612829   0.402   5.935   5.911 -0.0552 -0.6735 -0.2606
  121SOPE   H6R12830   0.442   5.837   5.878 -1.5948 -1.6821  0.7438
  121SOPE   H6S12831   0.326   5.963   5.834  1.0617  0.3729 -1.0056
  121SOPE   C2712832   0.519   6.033   5.904  0.4397  0.0777 -0.5975
  121SOPE   H7R12833   0.498   6.133   5.947  1.7347 -0.3568  1.1526
  121SOPE   H7S12834   0.608   5.996   5.958  1.0903  3.6405  1.0494
  121SOPE   C2812835   0.562   6.061   5.762 -0.4866  0.6003  0.2324
  121SOPE   H8R12836   0.671   6.083   5.767 -0.2084 -0.6941  0.4099
  121SOPE   H8S12837   0.569   5.961   5.712 -0.7219  0.1856  1.0129
  121SOPE   C2912838   0.483   6.160   5.686  0.0506  0.1467 -0.6656
  121SOPE   H9112839   0.399   6.194   5.749  1.8615 -0.8374  2.5165
  121SOPE  C21012840   0.505   6.188   5.559 -0.0072 -0.3125  1.2980
  121SOPE  H10112841   0.439   6.260   5.510  0.1515 -1.1199 -0.1591
  121SOPE  C21112842   0.615   6.136   5.467  0.0170 -1.3197 -0.1089
  121SOPE  H11R12843   0.573   6.051   5.409  0.9120 -0.9580 -1.3339
  121SOPE  H11S12844   0.715   6.115   5.511  0.6180  0.9650 -0.2504
  121SOPE  C21212845   0.630   6.245   5.354 -0.0689  0.8027 -0.5013
  121SOPE  H12R12846   0.662   6.349   5.378 -1.4203  1.4274 -1.2613
  121SOPE  H12S12847   0.531   6.263   5.306  0.2215  2.8766 -0.4235
  121SOPE  C21312848   0.718   6.200   5.236 -0.3080  0.2935  0.5222
  121SOPE  H13R12849   0.673   6.105   5.199 -1.4477  1.2872 -0.7416
  121SOPE  H13S12850   0.821   6.179   5.272 -0.2773  2.2764  1.7176
  121SOPE  C21412851   0.729   6.296   5.118 -0.4642  0.5809  0.0182
  121SOPE  H14R12852   0.773   6.392   5.153 -1.2149  0.8767  0.1849
  121SOPE  H14S12853   0.627   6.323   5.082 -0.5835 -1.1409 -1.0052
  121SOPE  C21512854   0.813   6.252   5.000 -0.4801  0.6986  0.1806
  121SOPE  H15R12855   0.755   6.173   4.949  0.7774 -1.3025  1.6899
  121SOPE  H15S12856   0.906   6.204   5.037 -0.6926 -1.5421 -1.9306
  121SOPE  C21612857   0.860   6.371   4.912  0.0452  0.5445  0.9036
  121SOPE  H16R12858   0.928   6.440   4.966 -0.8587  0.3332  2.3452
  121SOPE  H16S12859   0.767   6.428   4.890 -1.1323 -1.8508 -0.7531
  121SOPE  C21712860   0.915   6.328   4.779  0.3739  0.1457 -0.1857
  121SOPE  H17R12861   0.840   6.260   4.733 -1.1466  1.7928 -0.2816
  121SOPE  H17S12862   1.002   6.266   4.807 -0.0714  0.0841  1.1199
  121SOPE  C21812863   0.944   6.442   4.677 -0.1177  0.0547  0.2156
  121SOPE  H18R12864   0.854   6.496   4.643 -0.2557  0.3786  1.0555
  121SOPE  H18S12865   1.005   6.399   4.595 -0.5686  2.8764 -1.7230
  121SOPE  H18T12866   1.006   6.512   4.737  1.5094 -0.1647 -1.1441
  121SOPE   C3312867   0.148   5.302   5.855  0.4507 -0.0624  0.2877
  121SOPE   H3X12868   0.224   5.305   5.935  0.3613  0.7790  0.3502
  121SOPE   H3Y12869   0.097   5.400   5.860  2.1884  0.9394 -0.4862
  121SOPE   C3412870   0.219   5.288   5.713 -0.7845  0.2491 -0.1649
  121SOPE   H4X12871   0.136   5.266   5.643 -0.8372  0.0359 -0.0363
  121SOPE   H4Y12872   0.276   5.193   5.717  0.0754  0.7811  0.7743
  121SOPE   C3512873   0.289   5.410   5.663  0.0128 -0.2786  0.6377
  121SOPE   H5X12874   0.371   5.443   5.730 -1.2725  0.4732  1.9049
  121SOPE   H5Y12875   0.213   5.490   5.652  1.4096  0.8602 -1.0824
  121SOPE   C3612876   0.349   5.390   5.520  0.5348  0.2317  1.1207
  121SOPE   H6X12877   0.425   5.309   5.520 -0.7453 -1.0169  2.3573
  121SOPE   H6Y12878   0.393   5.487   5.489  1.9597 -0.9836 -0.9204
  121SOPE   C3712879   0.245   5.350   5.411  0.9025  0.1640 -0.0294
  121SOPE   H7X12880   0.154   5.415   5.414  0.2461 -0.6479 -1.3899
  121SOPE   H7Y12881   0.206   5.248   5.429  0.6883  0.3857  0.8203
  121SOPE   C3812882   0.316   5.352   5.275  0.4676 -0.9434 -0.5420
  121SOPE   H8X12883   0.397   5.277   5.261  0.6492 -0.5887 -1.4580
  121SOPE   H8Y12884   0.371   5.447   5.259 -1.7547  1.0593  2.5512
  121SOPE   C3912885   0.218   5.340   5.152 -0.3668  0.0768  0.5811
  121SOPE   H9X12886   0.149   5.426   5.155  0.6934  0.9520  0.5233
  121SOPE   H9Y12887   0.161   5.245   5.162 -1.3654  0.7214  1.1739
  121SOPE  C31012888   0.291   5.356   5.013  0.4283 -0.2330  0.1869
  121SOPE  H10X12889   0.370   5.279   5.015 -0.3120 -1.0327 -0.6003
  121SOPE  H10Y12890   0.326   5.462   5.009  0.1290  0.0258  2.8526
  121SOPE  C31112891   0.212   5.329   4.882  0.5180  0.6352 -0.4870
  121SOPE  H11X12892   0.113   5.378   4.882 -0.7640 -1.7427  0.8911
  121SOPE  H11Y12893   0.195   5.219   4.888  0.4654  0.6880  0.6422
  121SOPE  C31212894   0.283   5.372   4.760 -0.3979 -0.8811  0.6267
  121SOPE  H12X12895   0.372   5.307   4.740 -2.4254 -3.1682 -1.7678
  121SOPE  H12Y12896   0.321   5.475   4.774  2.5669 -1.6579 -0.7778
  121SOPE  C31312897   0.193   5.362   4.635 -0.0933 -0.3833 -0.0950
  121SOPE  H13X12898   0.240   5.429   4.560 -0.6816  0.5554  0.3450
  121SOPE  H13Y12899   0.098   5.410   4.667 -0.0345  0.2957 -0.9073
  121SOPE  C31412900   0.178   5.211   4.584 -0.6087 -0.9274 -0.1093
  121SOPE  H14X12901   0.147   5.148   4.670 -2.3040 -2.9071 -2.0646
  121SOPE  H14Y12902   0.281   5.178   4.561 -0.7966 -1.8786  0.3553
  121SOPE  C31512903   0.089   5.167   4.467 -0.2952 -0.9862  0.3020
  121SOPE  H15X12904  -0.006   5.224   4.479 -0.6550 -0.5085 -3.4518
  121SOPE  H15Y12905   0.082   5.056   4.459 -0.0326 -0.9081 -1.5080
  121SOPE  C31612906   0.139   5.200   4.327 -0.0091 -0.4398  0.2571
  121SOPE  H16X12907   0.230   5.144   4.296 -1.3143 -2.0415 -0.8022
  121SOPE  H16Y12908   0.164   5.308   4.314 -1.1477 -0.0836  0.9122
  121SOPE  C31712909   0.047   5.158   4.208  0.1530 -0.6695 -0.3081
  121SOPE  H17X12910  -0.050   5.201   4.243  0.5523 -0.9515  1.2303
  121SOPE  H17Y12911   0.035   5.049   4.196 -0.7720 -0.7186  0.9264
  121SOPE  C31812912   0.098   5.225   4.080  0.6317  0.1976 -0.0183
  121SOPE  H18X12913   0.103   5.336   4.087  1.9379  0.1510  0.0593
  121SOPE  H18Y12914   0.046   5.207   3.984  1.4355  0.8326 -0.5936
  121SOPE  H18Z12915   0.203   5.189   4.070  0.2083 -0.6180 -2.2147
  122SOPE     N12916   6.478   5.425   6.807  0.0525  0.4411  0.1758
  122SOPE   HN112917   6.487   5.506   6.742  0.2715  0.2689 -0.0089
  122SOPE   HN212918   6.384   5.379   6.800  0.3704 -0.2364  0.2504
  122SOPE   HN312919   6.488   5.457   6.905 -2.3352 -2.0890  1.4132
  122SOPE   C1212920   6.586   5.326   6.774 -0.2701 -0.3146 -0.3176
  122SOPE  H12A12921   6.680   5.379   6.801 -0.7764  0.6959 -0.4845
  122SOPE  H12B12922   6.579   5.321   6.664  1.7060  1.0809 -0.5642
  122SOPE   C1112923   6.558   5.185   6.846 -0.1010 -0.8301 -0.3243
  122SOPE  H11A12924   6.553   5.208   6.955  1.5784  1.1529 -0.5969
  122SOPE  H11B12925   6.649   5.126   6.822 -1.0005 -1.5851 -2.0036
  122SOPE     P12926   6.381   4.999   6.873 -0.2423 -0.0048  0.4154
  122SOPE   O1312927   6.270   5.035   6.965 -0.6116 -0.2063  0.4236
  122SOPE   O1412928   6.500   4.931   6.933  0.4116 -0.3418  0.5022
  122SOPE   O1212929   6.447   5.119   6.788 -0.2138 -0.2920 -0.0869
  122SOPE   O1112930   6.317   4.914   6.763 -0.0495  0.3058  0.4985
  122SOPE    C112931   6.384   4.879   6.643  0.0782 -0.0460  0.3884
  122SOPE    HA12932   6.404   4.770   6.642  1.7920  0.0147 -4.7803
  122SOPE    HB12933   6.486   4.922   6.637 -0.5166  1.6018  1.4571
  122SOPE    C212934   6.299   4.902   6.520 -0.7043 -1.4222  0.0715
  122SOPE    HS12935   6.370   4.885   6.436  0.3677  0.8928  0.4237
  122SOPE   O2112936   6.261   5.040   6.508  0.2310 -0.0519  0.7188
  122SOPE   C2112937   6.357   5.137   6.489  0.3347  0.5535 -0.1988
  122SOPE   O2212938   6.474   5.114   6.473 -0.1987 -0.7292 -0.4387
  122SOPE   C2212939   6.284   5.271   6.466 -0.0958  0.0375 -0.0190
  122SOPE   H2R12940   6.319   5.338   6.548 -3.3390  0.0452  1.4948
  122SOPE   H2S12941   6.176   5.260   6.489 -0.4496  2.9681  0.0763
  122SOPE    C312942   6.174   4.811   6.514 -0.0775  0.1970 -0.9584
  122SOPE    HX12943   6.102   4.847   6.590  1.6587  1.1660  0.3045
  122SOPE    HY12944   6.196   4.708   6.549  0.4005  0.8329  0.6756
  122SOPE   O3112945   6.105   4.803   6.388  0.3475  1.1228 -0.7374
  122SOPE   C3112946   6.149   4.698   6.318 -0.3101 -0.3209 -0.3097
  122SOPE   O3212947   6.252   4.635   6.329 -0.2570 -0.2920  0.0101
  122SOPE   C3212948   6.051   4.681   6.206 -0.1503 -0.2893  0.4555
  122SOPE   H2X12949   5.968   4.753   6.219  0.1504  0.4560 -1.4347
  122SOPE   H2Y12950   6.003   4.582   6.221 -1.2072  0.4443  2.2316
  122SOPE   C2312951   6.308   5.337   6.332 -0.8819 -0.1451 -0.4942
  122SOPE   H3R12952   6.415   5.365   6.330 -0.8200 -0.3732 -0.4121
  122SOPE   H3S12953   6.251   5.432   6.332  2.1121  1.8692  2.5779
  122SOPE   C2412954   6.259   5.252   6.204 -0.2705  0.1042 -0.5839
  122SOPE   H4R12955   6.287   5.310   6.114  1.3693 -0.9617 -0.8125
  122SOPE   H4S12956   6.314   5.156   6.192  1.6343  1.1623 -0.7822
  122SOPE   C2512957   6.101   5.226   6.217 -0.2650 -0.1371  0.3798
  122SOPE   H5R12958   6.066   5.138   6.275 -0.4552 -0.7328 -0.6135
  122SOPE   H5S12959   6.050   5.315   6.260  0.0340  0.7544 -1.0437
  122SOPE   C2612960   6.034   5.227   6.079 -0.0641  0.3258  0.2082
  122SOPE   H6R12961   5.926   5.207   6.097  0.1819  0.6220  2.3674
  122SOPE   H6S12962   6.049   5.316   6.015 -1.9097  0.8519  0.4731
  122SOPE   C2712963   6.076   5.101   5.990 -0.3405  0.0284  0.8699
  122SOPE   H7R12964   6.186   5.091   5.998  0.0587 -0.0301 -2.8344
  122SOPE   H7S12965   6.021   5.009   6.019 -0.6507  0.4506  1.6533
  122SOPE   C2812966   6.061   5.116   5.825 -0.0563  0.0281 -0.1626
  122SOPE   H8R12967   6.087   5.021   5.773 -0.3828  0.6224 -1.4540
  122SOPE   H8S12968   5.954   5.125   5.794  0.2688 -1.6521 -2.0522
  122SOPE   C2912969   6.139   5.224   5.753 -0.5031 -0.2292  0.5218
  122SOPE   H9112970   6.236   5.244   5.800  0.8356 -2.0494 -1.2838
  122SOPE  C21012971   6.119   5.304   5.647 -0.3599 -0.3719 -0.0690
  122SOPE  H10112972   6.204   5.369   5.622  1.9273 -2.8820  0.5895
  122SOPE  C21112973   5.998   5.296   5.560 -0.5556 -0.6851  0.5534
  122SOPE  H11R12974   5.914   5.245   5.612 -2.0510  0.6157 -0.4829
  122SOPE  H11S12975   6.015   5.229   5.473  5.9297 -0.0602  0.8643
  122SOPE  C21212976   5.955   5.439   5.505 -0.0436  0.2171  0.9223
  122SOPE  H12R12977   5.920   5.508   5.584  0.7003  0.0828  1.3755
  122SOPE  H12S12978   5.875   5.430   5.428 -0.7697 -3.3228  1.8907
  122SOPE  C21312979   6.064   5.522   5.438 -0.4380  0.0961  0.2832
  122SOPE  H13R12980   6.148   5.543   5.508  0.8443  0.2745 -1.2524
  122SOPE  H13S12981   6.031   5.621   5.401  2.9605  1.0060 -0.7492
  122SOPE  C21412982   6.123   5.458   5.311 -0.7345 -0.6197 -1.2244
  122SOPE  H14R12983   6.149   5.352   5.330 -2.2094 -0.7637  0.1922
  122SOPE  H14S12984   6.220   5.501   5.276  0.3294 -1.2768  0.7809
  122SOPE  C21512985   6.025   5.461   5.199 -0.0509  0.8508 -0.0429
  122SOPE  H15R12986   5.993   5.566   5.183  1.0695  1.4855  1.7011
  122SOPE  H15S12987   5.933   5.407   5.230  1.5425 -1.8363  0.3604
  122SOPE  C21612988   6.088   5.396   5.072 -0.6183  0.3081 -1.2606
  122SOPE  H16R12989   6.184   5.444   5.045 -1.5682  2.9556 -0.3443
  122SOPE  H16S12990   6.027   5.424   4.983  0.8466  0.0508 -2.3852
  122SOPE  C21712991   6.100   5.245   5.084  0.6808 -0.4330 -0.6479
  122SOPE  H17R12992   6.000   5.212   5.120 -0.6641  3.7161 -0.1290
  122SOPE  H17S12993   6.176   5.208   5.157  1.1445 -0.7006 -1.2528
  122SOPE  C21812994   6.124   5.181   4.947  0.3079  0.2191  1.2093
  122SOPE  H18R12995   6.221   5.202   4.898  0.9277 -0.3882  2.1423
  122SOPE  H18S12996   6.048   5.210   4.872  0.7277 -1.7902 -0.0702
  122SOPE  H18T12997   6.110   5.071   4.944  2.1108 -0.0144 -0.6650
  122SOPE   C3312998   6.100   4.707   6.060  0.1428  0.0246 -1.0560
  122SOPE   H3X12999   6.154   4.803   6.056 -1.0504  0.6774 -2.7486
  122SOPE   H3Y13000   6.010   4.727   5.998  0.1166  4.4623  0.0872
  122SOPE   C3413001   6.167   4.585   6.005  0.1910 -0.1147  0.4059
  122SOPE   H4X13002   6.098   4.497   6.012 -1.0106  0.6506 -1.1523
  122SOPE   H4Y13003   6.264   4.571   6.056  0.7806  0.9164 -0.4026
  122SOPE   C3513004   6.210   4.607   5.866 -0.5982  0.0554  0.4888
  122SOPE   H5X13005   6.275   4.523   5.834 -1.3632 -0.3040 -0.1730
  122SOPE   H5Y13006   6.268   4.700   5.847  1.9173 -1.7699 -1.4417
  122SOPE   C3613007   6.099   4.610   5.760  1.4527 -0.1871  0.2720
  122SOPE   H6X13008   6.015   4.673   5.796  0.1935 -0.7142 -1.5725
  122SOPE   H6Y13009   6.055   4.508   5.765  3.6767 -1.1565  2.4694
  122SOPE   C3713010   6.148   4.631   5.619 -0.3388  0.2205  0.0846
  122SOPE   H7X13011   6.200   4.729   5.616 -0.8265  0.5337  1.2451
  122SOPE   H7Y13012   6.055   4.640   5.559  0.1523  2.2991 -0.4390
  122SOPE   C3813013   6.227   4.531   5.530 -0.4547 -0.2264  0.1751
  122SOPE   H8X13014   6.221   4.545   5.420 -0.9517 -1.4551  0.0310
  122SOPE   H8Y13015   6.174   4.435   5.548 -0.5398 -0.5050 -1.3966
  122SOPE   C3913016   6.371   4.509   5.571 -0.4919  0.0420  0.0710
  122SOPE   H9X13017   6.372   4.432   5.651  2.2740 -1.2857 -1.1067
  122SOPE   H9Y13018   6.407   4.604   5.616 -0.3281 -0.0882  0.2174
  122SOPE  C31013019   6.465   4.466   5.464 -0.0064 -0.7057 -0.3581
  122SOPE  H10X13020   6.440   4.528   5.375  0.6516  0.5779  0.3290
  122SOPE  H10Y13021   6.444   4.361   5.432 -1.5127 -0.2597 -0.9349
  122SOPE  C31113022   6.614   4.488   5.491 -0.4709  0.2981  0.2246
  122SOPE  H11X13023   6.628   4.423   5.580 -1.8517 -2.3722 -1.3781
  122SOPE  H11Y13024   6.630   4.598   5.503 -3.0193  0.8843 -0.9881
  122SOPE  C31213025   6.703   4.442   5.377 -0.3192 -0.3604 -0.1523
  122SOPE  H12X13026   6.793   4.507   5.378 -2.0353  2.1326  1.1773
  122SOPE  H12Y13027   6.657   4.443   5.276 -0.3756  1.9422 -0.1629
  122SOPE  C31313028   6.755   4.300   5.380 -0.1632 -0.2769 -0.0026
  122SOPE  H13X13029   6.791   4.277   5.278  0.6824 -2.6792  0.7525
  122SOPE  H13Y13030   6.667   4.235   5.401  0.6357 -1.4576 -0.1854
  122SOPE  C31413031   6.870   4.269   5.474 -0.3951  0.2798  0.0533
  122SOPE  H14X13032   6.830   4.262   5.577 -1.2040 -2.4666 -0.3547
  122SOPE  H14Y13033   6.941   4.354   5.481 -0.2230  0.0686  0.9566
  122SOPE  C31513034   6.927   4.124   5.438 -0.1252  0.2455 -0.7107
  122SOPE  H15X13035   6.843   4.058   5.406  0.4638 -1.9996  2.0009
  122SOPE  H15Y13036   6.962   4.073   5.530  0.7002  0.2402 -1.0243
  122SOPE  C31613037   7.039   4.124   5.336  0.3392  0.3676 -0.5746
  122SOPE  H16X13038   7.123   4.167   5.394 -0.5968  0.9353  0.3778
  122SOPE  H16Y13039   7.025   4.211   5.268 -1.0153 -0.2893 -1.1787
  122SOPE  C31713040   7.064   3.990   5.260 -0.0272 -0.5066  0.0667
  122SOPE  H17X13041   6.971   3.958   5.209 -1.2897  1.4682  1.0028
  122SOPE  H17Y13042   7.092   3.914   5.336  0.6180 -0.8053 -0.4603
  122SOPE  C31813043   7.191   3.986   5.179  0.1522  0.5304  0.6161
  122SOPE  H18X13044   7.220   3.883   5.148 -1.7998  0.1984 -0.2680
  122SOPE  H18Y13045   7.273   4.032   5.238  2.6003 -0.7337 -1.5790
  122SOPE  H18Z13046   7.186   4.058   5.095  0.0599 -0.0298  0.1294
  123SOPE     N13047   2.606   2.719   2.385  0.4344 -0.5453 -0.4702
  123SOPE   HN113048   2.653   2.795   2.331  2.1933  0.2457  2.0116
  123SOPE   HN213049   2.598   2.626   2.339  0.0420 -0.7011 -0.0842
  123SOPE   HN313050   2.509   2.749   2.405  0.6254 -1.0245  1.3456
  123SOPE   C1213051   2.683   2.694   2.514  0.0674 -0.5691 -0.5357
  123SOPE  H12A13052   2.629   2.614   2.569  0.6699 -0.2173  0.6105
  123SOPE  H12B13053   2.665   2.788   2.570  1.2004  1.0189 -2.7146
  123SOPE   C1113054   2.829   2.649   2.492  0.9158  0.3981  0.4945
  123SOPE  H11A13055   2.887   2.617   2.581  0.8623 -0.5385  0.2104
  123SOPE  H11B13056   2.893   2.732   2.459  1.8140 -0.2665  0.5369
  123SOPE     P13057   2.934   2.495   2.299  0.0716  0.1401 -0.0640
  123SOPE   O1313058   2.919   2.550   2.158 -0.3516  1.0274 -0.1726
  123SOPE   O1413059   2.951   2.350   2.319 -0.7004  0.2848  0.0723
  123SOPE   O1213060   2.815   2.544   2.393 -0.1085 -0.0960  0.0514
  123SOPE   O1113061   3.062   2.567   2.364  0.6735  0.4972  0.2361
  123SOPE    C113062   3.122   2.683   2.312 -0.0581  0.3560  0.6407
  123SOPE    HA13063   3.047   2.764   2.302  1.5971  1.7618 -0.9645
  123SOPE    HB13064   3.172   2.667   2.214 -1.2024  2.4868 -0.3625
  123SOPE    C213065   3.239   2.724   2.401  0.2367 -0.1391  0.1144
  123SOPE    HS13066   3.317   2.645   2.395  0.0888 -0.3324  0.6314
  123SOPE   O2113067   3.188   2.753   2.538 -0.4417 -0.2122 -0.0205
  123SOPE   C2113068   3.262   2.697   2.636 -0.6182 -0.4364  1.0335
  123SOPE   O2213069   3.379   2.659   2.624  0.2464  0.6253  0.3010
  123SOPE   C2213070   3.189   2.726   2.767 -0.5539 -0.0674  0.2246
  123SOPE   H2R13071   3.084   2.694   2.747  0.4852 -2.2371 -2.2900
  123SOPE   H2S13072   3.187   2.831   2.804 -0.6015 -0.6971  2.1233
  123SOPE    C313073   3.305   2.859   2.350 -0.0315 -0.0632  0.1154
  123SOPE    HX13074   3.217   2.926   2.350 -0.0245  0.0155 -1.9451
  123SOPE    HY13075   3.336   2.852   2.243 -1.6124  0.4270 -0.3981
  123SOPE   O3113076   3.408   2.912   2.439  0.0992  0.3045  0.4032
  123SOPE   C3113077   3.530   2.853   2.415 -0.2709 -0.1645  0.2920
  123SOPE   O3213078   3.553   2.767   2.330  0.1541 -0.9860 -0.4105
  123SOPE   C3213079   3.627   2.908   2.515  1.1581 -0.1606 -0.3670
  123SOPE   H2X13080   3.609   2.861   2.614  2.5415  2.1135  1.0617
  123SOPE   H2Y13081   3.627   3.019   2.529  0.0593 -0.0531 -1.0999
  123SOPE   C2313082   3.248   2.641   2.889  0.0801 -0.1249  0.5994
  123SOPE   H3R13083   3.238   2.532   2.871  2.8774 -0.6115  1.5119
  123SOPE   H3S13084   3.176   2.654   2.972  0.5369 -1.2470  1.1829
  123SOPE   C2413085   3.387   2.678   2.928 -1.3151  0.4818  0.4079
  123SOPE   H4R13086   3.422   2.605   3.004 -1.9140  3.1675  3.4438
  123SOPE   H4S13087   3.447   2.678   2.834 -0.4213 -0.5120  0.9503
  123SOPE   C2513088   3.406   2.818   2.980 -0.2283 -0.4645  0.2366
  123SOPE   H5R13089   3.514   2.842   2.990 -0.7293  1.4419  1.7181
  123SOPE   H5S13090   3.357   2.896   2.918  1.6844  0.2110 -0.5073
  123SOPE   C2613091   3.355   2.837   3.124  0.4080 -0.0078  0.5602
  123SOPE   H6R13092   3.245   2.849   3.122  0.4759  1.1001 -3.0367
  123SOPE   H6S13093   3.373   2.745   3.184 -0.3455  0.0139  0.8220
  123SOPE   C2713094   3.411   2.953   3.209 -0.4292 -0.3417  0.1882
  123SOPE   H7R13095   3.522   2.951   3.212 -0.4402 -2.5399  2.6032
  123SOPE   H7S13096   3.375   3.048   3.164 -0.5527 -0.2826  0.4061
  123SOPE   C2813097   3.367   2.940   3.356 -0.0053  0.6952  0.1130
  123SOPE   H8R13098   3.265   2.897   3.360  0.5626 -0.6547  1.4563
  123SOPE   H8S13099   3.429   2.868   3.414 -2.2625 -0.6750  0.9588
  123SOPE   C2913100   3.363   3.076   3.426 -0.5614 -0.2972 -1.1803
  123SOPE   H9113101   3.371   3.160   3.356 -1.4182  0.9510  0.1683
  123SOPE  C21013102   3.336   3.098   3.554 -0.0920 -0.2720 -0.1939
  123SOPE  H10113103   3.362   3.194   3.601  2.1317 -0.8206 -0.1706
  123SOPE  C21113104   3.325   2.990   3.657 -0.2113 -0.5738  0.0104
  123SOPE  H11R13105   3.376   2.894   3.634 -1.7492 -1.1184 -1.2654
  123SOPE  H11S13106   3.220   2.957   3.668 -0.9874  1.4681 -0.7414
  123SOPE  C21213107   3.374   3.042   3.806  0.4429  0.0384 -0.0693
  123SOPE  H12R13108   3.353   2.951   3.867  0.9744  0.2419  0.4164
  123SOPE  H12S13109   3.324   3.132   3.847  1.3846  0.6054 -0.1388
  123SOPE  C21313110   3.523   3.061   3.815  0.3658 -0.5924  0.1440
  123SOPE  H13R13111   3.554   3.143   3.748  0.1371  2.0367  3.0205
  123SOPE  H13S13112   3.584   2.975   3.779  0.5846  0.4315 -2.0732
  123SOPE  C21413113   3.579   3.100   3.949 -0.8110  0.8126  0.2454
  123SOPE  H14R13114   3.541   3.025   4.021  1.2262 -1.7908 -1.2156
  123SOPE  H14S13115   3.547   3.204   3.970  1.8491  1.5156  1.2675
  123SOPE  C21513116   3.739   3.106   3.953  0.1137 -0.0745 -0.1936
  123SOPE  H15R13117   3.770   3.173   3.870  0.0110  0.1381 -0.0609
  123SOPE  H15S13118   3.773   3.002   3.931 -0.5527 -0.1617 -0.8780
  123SOPE  C21613119   3.799   3.170   4.082  0.1220 -0.0255  0.5633
  123SOPE  H16R13120   3.785   3.137   4.187 -0.7975  2.6591  1.3565
  123SOPE  H16S13121   3.767   3.275   4.092  0.6116  0.1839 -0.0034
  123SOPE  C21713122   3.955   3.188   4.073 -0.0799 -0.2651 -0.1837
  123SOPE  H17R13123   3.999   3.086   4.074  2.1400  0.6381  1.3626
  123SOPE  H17S13124   3.981   3.242   4.166 -1.1151  2.0245 -1.1429
  123SOPE  C21813125   4.013   3.260   3.955  0.2777 -0.2328  0.5599
  123SOPE  H18R13126   4.006   3.369   3.972  0.3477 -0.1057 -0.1930
  123SOPE  H18S13127   3.963   3.232   3.860  1.3839  0.5800 -0.2832
  123SOPE  H18T13128   4.120   3.234   3.944  0.3924  0.2967  0.3956
  123SOPE   C3313129   3.774   2.872   2.483 -0.2190  0.1869  0.5282
  123SOPE   H3X13130   3.810   2.923   2.392 -2.3195  1.7800  0.5387
  123SOPE   H3Y13131   3.782   2.762   2.470 -0.2074  0.1422  0.9017
  123SOPE   C3413132   3.874   2.923   2.589  0.5001  0.2591 -0.1814
  123SOPE   H4X13133   3.865   3.034   2.581  0.0059  0.1918 -0.6027
  123SOPE   H4Y13134   3.975   2.896   2.553  0.5216 -1.1136  0.8253
  123SOPE   C3513135   3.858   2.861   2.731 -0.6483 -0.2248 -0.4394
  123SOPE   H5X13136   3.763   2.899   2.774 -1.1599 -1.5135 -0.3703
  123SOPE   H5Y13137   3.947   2.887   2.792  0.1454  3.1070 -2.7189
  123SOPE   C3613138   3.835   2.711   2.727 -0.5839  1.1686 -0.0671
  123SOPE   H6X13139   3.907   2.660   2.659 -1.2618 -2.3943  1.6008
  123SOPE   H6Y13140   3.736   2.676   2.688  0.6882 -3.8865  0.4952
  123SOPE   C3713141   3.846   2.635   2.863 -0.6789 -0.3958 -0.2417
  123SOPE   H7X13142   3.954   2.629   2.888 -0.5187  0.6249 -0.6079
  123SOPE   H7Y13143   3.814   2.530   2.852 -0.1339 -0.3533 -2.7357
  123SOPE   C3813144   3.764   2.704   2.975 -0.8028 -0.2069 -0.2763
  123SOPE   H8X13145   3.659   2.689   2.939 -1.0492 -0.7845  0.6554
  123SOPE   H8Y13146   3.782   2.813   2.992 -1.2611 -0.0015 -1.0215
  123SOPE   C3913147   3.790   2.637   3.105  0.4835 -0.5957 -0.5804
  123SOPE   H9X13148   3.885   2.679   3.145 -0.2229 -0.8341  1.4264
  123SOPE   H9Y13149   3.822   2.534   3.079 -0.7481 -0.5383 -2.5889
  123SOPE  C31013150   3.691   2.649   3.219 -0.1995 -0.7649 -0.9296
  123SOPE  H10X13151   3.604   2.587   3.189  0.0761 -1.0017 -1.2475
  123SOPE  H10Y13152   3.673   2.755   3.246  0.8196 -0.6736 -0.5539
  123SOPE  C31113153   3.740   2.589   3.355 -0.7920 -0.3652  0.1702
  123SOPE  H11X13154   3.833   2.640   3.388 -1.1486  1.4344 -1.4057
  123SOPE  H11Y13155   3.759   2.481   3.339 -1.3754 -0.4119 -0.2549
  123SOPE  C31213156   3.640   2.612   3.476  0.2401  0.0566  0.1505
  123SOPE  H12X13157   3.542   2.583   3.432 -0.0503 -0.7995  1.2927
  123SOPE  H12Y13158   3.631   2.720   3.497  0.5789 -0.1573  1.4722
  123SOPE  C31313159   3.663   2.531   3.602  0.0385  0.8528 -0.4253
  123SOPE  H13X13160   3.759   2.475   3.599  0.2014  0.9346  1.5362
  123SOPE  H13Y13161   3.578   2.461   3.617 -0.0519  1.2034  0.8260
  123SOPE  C31413162   3.660   2.623   3.716  0.1433 -1.0548 -0.0279
  123SOPE  H14X13163   3.563   2.677   3.718  0.6266 -0.1408 -0.3387
  123SOPE  H14Y13164   3.739   2.698   3.694 -1.3532 -0.1434 -2.7764
  123SOPE  C31513165   3.680   2.556   3.852 -0.0276 -0.5757 -0.1688
  123SOPE  H15X13166   3.779   2.506   3.852 -0.2086 -0.9713 -1.0825
  123SOPE  H15Y13167   3.606   2.473   3.864  1.5101 -1.8952  0.5858
  123SOPE  C31613168   3.660   2.651   3.975  0.0541  0.9508 -0.2154
  123SOPE  H16X13169   3.572   2.714   3.949  0.3842  1.2421 -0.6550
  123SOPE  H16Y13170   3.748   2.718   3.972  2.6351 -2.0760  1.3884
  123SOPE  C31713171   3.639   2.590   4.113  0.0809  0.1768 -0.0899
  123SOPE  H17X13172   3.715   2.509   4.113  1.1477  1.1538 -1.2352
  123SOPE  H17Y13173   3.541   2.538   4.116  1.0485 -1.8365 -1.4280
  123SOPE  C31813174   3.664   2.692   4.231 -0.3347  0.4682  0.3601
  123SOPE  H18X13175   3.584   2.769   4.219  0.4886  1.5537  1.5845
  123SOPE  H18Y13176   3.768   2.731   4.233 -0.8681  1.9972  2.1527
  123SOPE  H18Z13177   3.640   2.643   4.328  2.4741 -1.6105  0.1125
  124SOPE     N13178   5.530   4.955   1.956  0.4600  0.1661 -0.1502
  124SOPE   HN113179   5.444   4.972   2.011  0.6478  0.5334  0.0384
  124SOPE   HN213180   5.604   5.012   2.003  1.3146 -1.9070  1.1481
  124SOPE   HN313181   5.515   4.980   1.856  1.1627  1.0557 -0.0479
  124SOPE   C1213182   5.565   4.806   1.973 -0.0439  0.2493 -0.2399
  124SOPE  H12A13183   5.638   4.786   1.893 -1.1107  0.2969 -1.2540
  124SOPE  H12B13184   5.471   4.750   1.956  0.3132 -1.3661  2.5412
  124SOPE   C1113185   5.627   4.769   2.107 -1.1461 -0.4632 -0.6179
  124SOPE  H11A13186   5.656   4.662   2.105  0.5629 -0.0293 -0.1047
  124SOPE  H11B13187   5.542   4.795   2.174 -0.5522  0.1590 -0.0992
  124SOPE     P13188   5.747   4.967   2.232 -0.0404 -0.2446  0.4631
  124SOPE   O1313189   5.689   5.074   2.148  0.1758  0.1783  0.0091
  124SOPE   O1413190   5.887   4.999   2.275 -0.0731  0.4082 -0.0833
  124SOPE   O1213191   5.747   4.845   2.135  0.2213  0.4741 -0.4081
  124SOPE   O1113192   5.659   4.934   2.355 -0.1481 -0.5224  0.3715
  124SOPE    C113193   5.721   4.855   2.453 -0.3300  0.3611 -0.0648
  124SOPE    HA13194   5.809   4.911   2.491  0.0071 -0.4673  0.4026
  124SOPE    HB13195   5.757   4.756   2.416 -1.5293  1.0529 -3.4260
  124SOPE    C213196   5.615   4.839   2.568 -0.1452 -0.2691  0.1766
  124SOPE    HS13197   5.527   4.801   2.513 -0.8229 -0.0325  1.0828
  124SOPE   O2113198   5.590   4.964   2.631 -0.1910  0.2083  0.7590
  124SOPE   C2113199   5.474   4.977   2.700 -0.3415  0.0419 -0.6121
  124SOPE   O2213200   5.382   4.898   2.690  0.4100 -0.3721 -0.4340
  124SOPE   C2213201   5.485   5.103   2.786 -0.2724  1.1473  0.8739
  124SOPE   H2R13202   5.471   5.186   2.713  0.2803 -0.1875 -0.8379
  124SOPE   H2S13203   5.587   5.121   2.826  1.7458 -1.8891 -2.3119
  124SOPE    C313204   5.671   4.737   2.670 -0.3555  0.5040 -0.0680
  124SOPE    HX13205   5.661   4.635   2.626 -1.3571  0.8425 -0.6425
  124SOPE    HY13206   5.601   4.729   2.756  1.2952  0.2266  1.3274
  124SOPE   O3113207   5.799   4.764   2.722 -0.5150  0.2090  0.1749
  124SOPE   C3113208   5.856   4.688   2.814 -0.2837 -0.1934 -0.7949
  124SOPE   O3213209   5.813   4.584   2.862 -0.2545 -0.3273 -0.5142
  124SOPE   C3213210   5.979   4.764   2.861 -0.3384 -0.6973 -0.1718
  124SOPE   H2X13211   5.976   4.872   2.835 -0.5286 -0.5379  0.5059
  124SOPE   H2Y13212   6.062   4.718   2.803 -0.7067  0.9628 -2.1389
  124SOPE   C2313213   5.381   5.117   2.894  0.3398  0.2189 -0.4178
  124SOPE   H3R13214   5.281   5.083   2.860  0.9640 -2.1229 -0.0768
  124SOPE   H3S13215   5.373   5.224   2.924  2.4658  0.0853  0.8918
  124SOPE   C2413216   5.405   5.032   3.025 -0.4187  0.2790  0.3114
  124SOPE   H4R13217   5.409   4.923   3.002  0.5469  0.0642  1.3906
  124SOPE   H4S13218   5.504   5.060   3.067 -0.1540  0.8592 -0.6644
  124SOPE   C2513219   5.290   5.052   3.125 -0.5730  0.3828  0.6600
  124SOPE   H5R13220   5.257   5.158   3.116 -0.0154  0.5164  0.1077
  124SOPE   H5S13221   5.194   5.001   3.100 -0.2724  0.1575 -0.0407
  124SOPE   C2613222   5.325   5.024   3.271 -0.4552  0.4385  0.3473
  124SOPE   H6R13223   5.331   4.913   3.282 -0.3843  0.6279  2.6952
  124SOPE   H6S13224   5.422   5.077   3.280  0.4141 -1.1175  0.6056
  124SOPE   C2713225   5.220   5.078   3.373 -0.0255  0.1600  0.1943
  124SOPE   H7R13226   5.204   5.187   3.354  0.2104 -0.1720 -2.3000
  124SOPE   H7S13227   5.121   5.028   3.365 -0.0728 -0.0931  1.9185
  124SOPE   C2813228   5.265   5.069   3.517  0.4117 -0.2930 -0.5162
  124SOPE   H8R13229   5.176   5.099   3.576  1.4116 -1.4254  1.6519
  124SOPE   H8S13230   5.279   4.965   3.554  0.1844  0.6263  2.3931
  124SOPE   C2913231   5.372   5.164   3.554  0.2380  0.4845  0.3216
  124SOPE   H9113232   5.395   5.241   3.480 -0.9640  0.9280  0.3928
  124SOPE  C21013233   5.439   5.173   3.678 -0.0161  0.4582  0.3716
  124SOPE  H10113234   5.513   5.252   3.697  1.1935 -0.0348 -1.9595
  124SOPE  C21113235   5.416   5.093   3.808 -0.1201 -0.0791  0.1030
  124SOPE  H11R13236   5.515   5.077   3.855  0.0465  1.1122  0.1939
  124SOPE  H11S13237   5.363   4.997   3.790  0.6803 -0.2639 -1.3930
  124SOPE  C21213238   5.336   5.173   3.907  0.3231  0.3583 -0.1241
  124SOPE  H12R13239   5.238   5.197   3.859  1.2443  0.5464 -2.0376
  124SOPE  H12S13240   5.389   5.266   3.937  0.2509  0.9718 -1.7528
  124SOPE  C21313241   5.310   5.081   4.029 -0.6873  1.0877 -0.2297
  124SOPE  H13R13242   5.401   5.077   4.091 -0.2727 -1.7417 -0.9045
  124SOPE  H13S13243   5.277   4.978   4.005  1.6733  0.9495 -3.5363
  124SOPE  C21413244   5.203   5.151   4.120  0.5285 -0.2867  0.1361
  124SOPE  H14R13245   5.107   5.142   4.065  0.8680  0.3235 -0.5649
  124SOPE  H14S13246   5.217   5.261   4.114  1.3404 -0.3594  0.5943
  124SOPE  C21513247   5.203   5.080   4.262  0.3686 -0.3874 -0.5276
  124SOPE  H15R13248   5.295   5.018   4.266  0.2414 -0.5379  0.2262
  124SOPE  H15S13249   5.120   5.008   4.275 -0.6982  1.1017  1.5447
  124SOPE  C21613250   5.214   5.181   4.370 -0.0710  0.8607  0.0457
  124SOPE  H16R13251   5.169   5.278   4.339  0.2441  1.4906  1.4947
  124SOPE  H16S13252   5.322   5.188   4.398 -0.7023 -1.0086  3.4696
  124SOPE  C21713253   5.135   5.138   4.501  0.2746 -0.3086  0.2652
  124SOPE  H17R13254   5.027   5.121   4.483  0.4299 -0.4032 -0.5957
  124SOPE  H17S13255   5.137   5.224   4.572  1.4277 -2.0015  2.3918
  124SOPE  C21813256   5.201   5.013   4.560  0.1039 -0.3726  0.3596
  124SOPE  H18R13257   5.175   4.989   4.665 -1.8266  0.1354  0.0349
  124SOPE  H18S13258   5.310   5.029   4.547 -0.6156  3.9927 -2.4359
  124SOPE  H18T13259   5.166   4.931   4.493  1.3092  1.0436 -2.1380
  124SOPE   C3313260   6.005   4.748   3.011  0.2967  0.1004 -0.0628
  124SOPE   H3X13261   6.114   4.770   3.019  0.3474  0.1764 -0.8666
  124SOPE   H3Y13262   5.999   4.643   3.047  2.1774  0.3517  1.1214
  124SOPE   C3413263   5.929   4.843   3.110  1.1203 -0.1407  0.3600
  124SOPE   H4X13264   5.953   4.834   3.218 -3.7339  2.1851  1.9106
  124SOPE   H4Y13265   5.820   4.819   3.106  1.7744 -4.4031  2.3447
  124SOPE   C3513266   5.952   4.992   3.078 -0.6429  0.4526  0.3807
  124SOPE   H5X13267   5.874   5.031   3.009 -0.9338 -2.5295 -1.0962
  124SOPE   H5Y13268   6.049   5.005   3.025 -0.9761  1.0835 -0.0876
  124SOPE   C3613269   5.947   5.079   3.205 -0.3747  0.2732  0.2863
  124SOPE   H6X13270   5.956   5.187   3.178 -1.1035  0.3739  0.4127
  124SOPE   H6Y13271   6.042   5.058   3.258 -1.3318  0.0487  2.0067
  124SOPE   C3713272   5.825   5.062   3.304  0.2424 -0.1108 -0.0824
  124SOPE   H7X13273   5.778   4.961   3.301 -4.5306  1.7888  1.5852
  124SOPE   H7Y13274   5.749   5.131   3.262  0.2854 -1.1274 -1.9121
  124SOPE   C3813275   5.865   5.111   3.446  0.4045  0.2983  0.4192
  124SOPE   H8X13276   5.934   5.034   3.486  0.0691 -0.4991 -0.5123
  124SOPE   H8Y13277   5.770   5.096   3.502 -0.5566 -0.3135 -1.3018
  124SOPE   C3913278   5.913   5.254   3.455  0.1431 -0.0144 -0.1665
  124SOPE   H9X13279   5.831   5.315   3.413  0.2141 -1.7924 -3.2142
  124SOPE   H9Y13280   6.011   5.271   3.405  0.5194 -0.7624  0.2914
  124SOPE  C31013281   5.954   5.320   3.594 -0.5856  0.0559  0.6216
  124SOPE  H10X13282   5.959   5.430   3.584  4.2193  0.2202  2.5988
  124SOPE  H10Y13283   6.061   5.293   3.603 -0.4030  1.1659  1.9148
  124SOPE  C31113284   5.876   5.273   3.712  0.2396 -0.6220 -0.9391
  124SOPE  H11X13285   5.860   5.163   3.714 -0.6745 -0.4916 -0.7590
  124SOPE  H11Y13286   5.773   5.315   3.715  0.0519 -1.0267 -1.5847
  124SOPE  C31213287   5.932   5.316   3.853  0.0908 -0.0824  1.1451
  124SOPE  H12X13288   5.950   5.426   3.857  0.6305  0.0450 -2.3398
  124SOPE  H12Y13289   6.035   5.275   3.861 -0.0819 -1.0382 -0.9462
  124SOPE  C31313290   5.839   5.273   3.963 -0.7777  0.1614  0.4144
  124SOPE  H13X13291   5.849   5.162   3.961 -0.2225  0.2199 -1.1398
  124SOPE  H13Y13292   5.735   5.311   3.951 -0.1334  2.2166  0.9849
  124SOPE  C31413293   5.883   5.323   4.101  0.1906 -0.5007  0.8198
  124SOPE  H14X13294   5.894   5.434   4.094  1.1280 -0.4934  2.1224
  124SOPE  H14Y13295   5.983   5.286   4.131  1.7662  0.7168 -2.4230
  124SOPE  C31513296   5.777   5.290   4.211  0.2131  0.1757 -0.6065
  124SOPE  H15X13297   5.792   5.185   4.244  1.2248  0.9126  1.5059
  124SOPE  H15Y13298   5.674   5.313   4.175  0.2119  1.3557  0.0772
  124SOPE  C31613299   5.801   5.363   4.348 -0.5604  0.3153 -0.0611
  124SOPE  H16X13300   5.824   5.472   4.338 -2.8629  0.9342  0.7462
  124SOPE  H16Y13301   5.897   5.315   4.377 -0.4722 -0.0086 -0.8441
  124SOPE  C31713302   5.694   5.348   4.459  0.5088  0.7363  0.2271
  124SOPE  H17X13303   5.629   5.262   4.431  1.7974  0.2534 -1.3860
  124SOPE  H17Y13304   5.630   5.439   4.460 -1.8045 -0.7939  0.4382
  124SOPE  C31813305   5.751   5.329   4.597  0.1783  0.2557 -0.6786
  124SOPE  H18X13306   5.817   5.415   4.622  1.6189 -0.7997 -0.7130
  124SOPE  H18Y13307   5.804   5.232   4.607 -0.2437  0.1372  0.6474
  124SOPE  H18Z13308   5.665   5.324   4.667  2.1572 -0.3137  1.8657
  125SOPE     N13309   0.125   6.371   2.472  0.2413 -0.2216  0.0072
  125SOPE   HN113310   0.164   6.278   2.496  1.3658 -0.1170 -1.3043
  125SOPE   HN213311   0.205   6.436   2.456  0.3501 -0.4024 -0.1713
  125SOPE   HN313312   0.078   6.395   2.562 -0.1506 -1.6264  0.1992
  125SOPE   C1213313   0.024   6.354   2.363  0.2386 -0.4994 -0.1767
  125SOPE  H12A13314   0.078   6.305   2.279  1.0989  1.0583 -0.5874
  125SOPE  H12B13315  -0.005   6.459   2.342  2.1657  0.0851 -0.1626
  125SOPE   C1113316  -0.097   6.267   2.404  1.0341 -0.1209 -0.6208
  125SOPE  H11A13317  -0.052   6.175   2.446 -2.1127 -0.9773  1.2404
  125SOPE  H11B13318  -0.150   6.236   2.312  1.2763 -1.5691 -0.2887
  125SOPE     P13319  -0.302   6.261   2.575 -0.0566  0.0048 -0.1054
  125SOPE   O1313320  -0.382   6.201   2.470  0.3148 -0.2930  0.1909
  125SOPE   O1413321  -0.369   6.364   2.657 -0.1433  0.4890 -0.5548
  125SOPE   O1213322  -0.178   6.334   2.499  0.2490 -0.4879 -0.1981
  125SOPE   O1113323  -0.244   6.151   2.673 -0.4851  0.1423 -0.3341
  125SOPE    C113324  -0.167   6.200   2.777  0.1213 -0.2110  0.0117
  125SOPE    HA13325  -0.227   6.255   2.853 -0.3894 -0.0972 -0.4696
  125SOPE    HB13326  -0.088   6.268   2.738  1.0473 -0.6646  1.0435
  125SOPE    C213327  -0.093   6.079   2.846  0.1241 -0.4882  0.3256
  125SOPE    HS13328  -0.042   6.030   2.760 -0.3675  1.4786 -1.1543
  125SOPE   O2113329  -0.190   5.991   2.897  0.3221 -0.0617 -0.2787
  125SOPE   C2113330  -0.147   5.871   2.931  0.3059 -0.4853  0.2118
  125SOPE   O2213331  -0.032   5.839   2.927  0.5104  0.0165 -0.3686
  125SOPE   C2213332  -0.256   5.782   3.000  0.3552 -0.9116  0.5392
  125SOPE   H2R13333  -0.208   5.682   3.009  0.9230 -0.5457  1.7830
  125SOPE   H2S13334  -0.349   5.769   2.941 -0.1607  3.2594  0.1716
  125SOPE    C313335   0.020   6.124   2.948  0.8038  0.3393 -0.3770
  125SOPE    HX13336   0.062   6.041   3.008  0.5060  1.4972  1.5182
  125SOPE    HY13337  -0.024   6.198   3.018  1.7045 -1.5205  2.3011
  125SOPE   O3113338   0.123   6.200   2.880  0.1178 -0.0691 -0.2983
  125SOPE   C3113339   0.230   6.219   2.952 -0.4449  0.5091 -0.4100
  125SOPE   O3213340   0.257   6.175   3.064 -0.0356  0.3688  0.3693
  125SOPE   C3213341   0.332   6.298   2.865 -0.1411  0.2014 -0.4689
  125SOPE   H2X13342   0.278   6.389   2.833 -0.9286 -0.1707 -0.2362
  125SOPE   H2Y13343   0.361   6.227   2.784  2.3900 -0.6408  1.0633
  125SOPE   C2313344  -0.293   5.838   3.139  0.1536  0.4236 -0.3149
  125SOPE   H3R13345  -0.388   5.790   3.171  0.4954 -0.5689 -0.7675
  125SOPE   H3S13346  -0.308   5.948   3.128 -1.6053  0.1484 -0.9671
  125SOPE   C2413347  -0.178   5.836   3.246 -0.2617  0.0554 -0.3537
  125SOPE   H4R13348  -0.131   5.735   3.246  0.4635  0.3815  0.1913
  125SOPE   H4S13349  -0.098   5.908   3.219  1.3541 -1.1895  0.8950
  125SOPE   C2513350  -0.239   5.859   3.385  0.4589 -0.2237  0.6355
  125SOPE   H5R13351  -0.287   5.959   3.395 -1.0818 -0.4370 -2.9618
  125SOPE   H5S13352  -0.307   5.773   3.405  0.6783 -0.3270  0.9487
  125SOPE   C2613353  -0.121   5.843   3.488 -0.3313 -0.6855  0.2698
  125SOPE   H6R13354  -0.073   5.748   3.454 -0.9921 -1.2173  0.7887
  125SOPE   H6S13355  -0.048   5.926   3.478 -0.0778 -0.5798  2.5096
  125SOPE   C2713356  -0.172   5.816   3.632  0.2174 -0.2666  1.1184
  125SOPE   H7R13357  -0.190   5.916   3.678  0.8356  0.0328  0.7124
  125SOPE   H7S13358  -0.257   5.745   3.629  0.3600 -0.4147  0.4777
  125SOPE   C2813359  -0.074   5.738   3.709  0.3431 -0.2949  0.5049
  125SOPE   H8R13360  -0.136   5.688   3.786 -0.2726 -1.7296 -0.8674
  125SOPE   H8S13361  -0.026   5.658   3.647 -1.4347  0.0483 -1.4249
  125SOPE   C2913362   0.033   5.835   3.759  0.4907 -0.1242 -0.0531
  125SOPE   H9113363   0.120   5.839   3.692  0.4435 -0.6833 -0.1537
  125SOPE  C21013364   0.032   5.896   3.882  0.3482 -0.2110 -0.2278
  125SOPE  H10113365   0.116   5.965   3.896  0.3330 -0.3433  0.5424
  125SOPE  C21113366  -0.076   5.895   3.991 -0.4867  0.0821  0.4345
  125SOPE  H11R13367  -0.169   5.837   3.974 -0.4304 -0.3775  1.5536
  125SOPE  H11S13368  -0.110   6.000   4.004 -0.5227 -0.0392  1.4305
  125SOPE  C21213369  -0.009   5.847   4.122  0.2326  0.1141  0.4241
  125SOPE  H12R13370   0.064   5.920   4.163  1.7287  0.1574 -2.1152
  125SOPE  H12S13371   0.047   5.753   4.104  2.1887  1.5392 -1.4107
  125SOPE  C21313372  -0.116   5.816   4.224  0.2660  0.8325  0.4774
  125SOPE  H13R13373  -0.080   5.748   4.305 -0.3748  0.9446  0.8646
  125SOPE  H13S13374  -0.192   5.755   4.171  0.8513  0.4466  0.0801
  125SOPE  C21413375  -0.193   5.939   4.272 -0.4688  0.0503 -0.3726
  125SOPE  H14R13376  -0.248   5.980   4.185 -4.3277 -0.1093  1.7426
  125SOPE  H14S13377  -0.126   6.021   4.308  1.0591 -0.1822 -2.5311
  125SOPE  C21513378  -0.292   5.900   4.383 -0.3000 -0.6273  0.6614
  125SOPE  H15R13379  -0.241   5.826   4.448 -0.2981 -1.0894  0.1462
  125SOPE  H15S13380  -0.378   5.855   4.330 -0.1476 -0.2777  0.0975
  125SOPE  C21613381  -0.355   6.015   4.464  0.5509 -0.2444  0.0958
  125SOPE  H16R13382  -0.373   6.110   4.408 -0.1398  0.0401  0.7806
  125SOPE  H16S13383  -0.279   6.052   4.536  1.7625  0.3263 -1.4025
  125SOPE  C21713384  -0.481   5.962   4.532  0.3528 -0.4578  0.0128
  125SOPE  H17R13385  -0.466   5.855   4.559  0.8112 -0.5322 -0.5153
  125SOPE  H17S13386  -0.553   5.962   4.448  0.0705  0.2689  0.2533
  125SOPE  C21813387  -0.537   6.040   4.653 -0.0550 -0.3547  0.2122
  125SOPE  H18R13388  -0.637   6.008   4.689  0.0531 -1.6452 -0.5837
  125SOPE  H18S13389  -0.550   6.150   4.636 -1.3466 -0.5723 -0.3706
  125SOPE  H18T13390  -0.464   6.029   4.735 -1.6449 -2.5645  1.4435
  125SOPE   C3313391   0.463   6.344   2.932 -0.0157 -0.4079  0.2633
  125SOPE   H3X13392   0.549   6.278   2.908  1.7141  0.8161  2.7241
  125SOPE   H3Y13393   0.458   6.333   3.043 -0.9157 -1.9834  0.1049
  125SOPE   C3413394   0.506   6.486   2.887 -0.3257 -0.4757  0.5976
  125SOPE   H4X13395   0.431   6.554   2.932  1.0598  0.1979  1.9556
  125SOPE   H4Y13396   0.512   6.491   2.776 -0.7992 -1.5772  0.5110
  125SOPE   C3513397   0.634   6.543   2.954  0.2929  0.1744  0.3660
  125SOPE   H5X13398   0.627   6.649   2.920 -1.7281  0.2093  0.7900
  125SOPE   H5Y13399   0.728   6.493   2.923 -0.9716 -0.8972 -1.9661
  125SOPE   C3613400   0.633   6.549   3.108 -0.4341 -0.3250  0.2092
  125SOPE   H6X13401   0.632   6.442   3.137  1.0026 -0.4608 -0.1252
  125SOPE   H6Y13402   0.545   6.584   3.164  0.5790  0.3194  1.4493
  125SOPE   C3713403   0.756   6.625   3.165 -0.4343 -0.4578 -0.1458
  125SOPE   H7X13404   0.746   6.734   3.148 -0.0221 -0.0508  1.9701
  125SOPE   H7Y13405   0.854   6.589   3.125  0.6491  0.5540  1.4659
  125SOPE   C3813406   0.769   6.613   3.323  0.0216 -0.7188 -0.9477
  125SOPE   H8X13407   0.754   6.506   3.346  2.0366 -1.3763 -2.4633
  125SOPE   H8Y13408   0.684   6.675   3.358  0.1098 -1.5150  0.8045
  125SOPE   C3913409   0.904   6.660   3.386  1.3155  0.5788  0.1014
  125SOPE   H9X13410   0.904   6.770   3.373 -1.8943  0.6538  0.0302
  125SOPE   H9Y13411   0.994   6.615   3.338  1.7674  1.2309  0.3300
  125SOPE  C31013412   0.906   6.641   3.543 -0.9883  0.0057  0.2505
  125SOPE  H10X13413   1.006   6.668   3.583 -1.2632 -1.2256  1.8454
  125SOPE  H10Y13414   0.891   6.533   3.566 -0.0202 -0.1332  0.2601
  125SOPE  C31113415   0.814   6.735   3.615  0.1115  0.2077 -0.2177
  125SOPE  H11X13416   0.711   6.718   3.577  0.5892 -0.3287 -1.3256
  125SOPE  H11Y13417   0.848   6.840   3.600 -0.6317  0.2874 -1.5362
  125SOPE  C31213418   0.798   6.713   3.763  0.5573  0.4503  0.4241
  125SOPE  H12X13419   0.788   6.604   3.781  2.2168 -0.0377 -1.2415
  125SOPE  H12Y13420   0.700   6.754   3.794 -0.6432 -1.2316 -0.9907
  125SOPE  C31313421   0.917   6.756   3.846  0.1376 -0.2223 -0.6911
  125SOPE  H13X13422   0.944   6.860   3.817  1.6182 -0.4945 -0.3748
  125SOPE  H13Y13423   1.012   6.701   3.828  0.7639 -0.4059  2.4861
  125SOPE  C31413424   0.902   6.739   3.999 -0.6219  0.6026 -0.1987
  125SOPE  H14X13425   0.885   6.629   4.005 -1.5097  0.7472  0.1001
  125SOPE  H14Y13426   0.806   6.778   4.037  0.3819 -0.2194  3.5813
  125SOPE  C31513427   1.024   6.780   4.088  0.4780 -0.0822  0.5372
  125SOPE  H15X13428   1.060   6.878   4.049 -0.5811  0.0312 -0.2147
  125SOPE  H15Y13429   1.105   6.706   4.070  2.1351  1.6310  0.6531
  125SOPE  C31613430   0.984   6.814   4.233  0.1975 -0.0223 -0.2758
  125SOPE  H16X13431   0.882   6.846   4.260  0.4300  0.2347  0.3334
  125SOPE  H16Y13432   1.036   6.908   4.264  1.7145 -0.1080 -2.3065
  125SOPE  C31713433   1.023   6.702   4.328 -0.2214  0.8069 -0.5298
  125SOPE  H17X13434   1.133   6.685   4.328 -0.2426  0.4763  1.3783
  125SOPE  H17Y13435   0.979   6.613   4.279  1.6841 -0.9378  0.7791
  125SOPE  C31813436   0.980   6.720   4.473 -0.4630 -0.6367 -0.4962
  125SOPE  H18X13437   0.871   6.742   4.478 -0.7774 -2.3893  2.5954
  125SOPE  H18Y13438   1.037   6.811   4.500  0.0541 -1.0416 -0.1991
  125SOPE  H18Z13439   1.019   6.633   4.530  2.1763  0.9434  0.2672
  126SOPE     N13440   2.512   2.147   1.991 -0.6220 -0.1432  0.5466
  126SOPE   HN113441   2.485   2.239   1.952  2.7314  0.3805 -0.9114
  126SOPE   HN213442   2.600   2.161   2.044 -0.7834  0.8626  0.5648
  126SOPE   HN313443   2.522   2.082   1.911 -2.9803 -0.9809  0.8521
  126SOPE   C1213444   2.412   2.097   2.095 -0.2961  0.2927 -0.0407
  126SOPE  H12A13445   2.449   1.998   2.127  1.9161  0.5883 -1.4575
  126SOPE  H12B13446   2.311   2.090   2.049 -0.2737  1.3275 -0.2764
  126SOPE   C1113447   2.414   2.188   2.220 -0.3688  0.7377  0.5718
  126SOPE  H11A13448   2.517   2.194   2.260 -0.2540 -1.9666  0.8705
  126SOPE  H11B13449   2.356   2.130   2.294 -2.8091 -3.2636 -3.9213
  126SOPE     P13450   2.358   2.441   2.269 -0.5155 -0.2882 -0.0379
  126SOPE   O1313451   2.254   2.533   2.222  0.0274 -0.1356 -0.3913
  126SOPE   O1413452   2.491   2.497   2.288 -0.6299  0.0387  0.2070
  126SOPE   O1213453   2.370   2.316   2.180  0.5081  0.1775  0.5099
  126SOPE   O1113454   2.318   2.372   2.400  0.1269 -0.1851  0.0229
  126SOPE    C113455   2.215   2.422   2.483 -0.1848 -0.2006  0.7753
  126SOPE    HA13456   2.177   2.327   2.527  1.8687 -0.6727  1.6711
  126SOPE    HB13457   2.135   2.473   2.426 -0.0008  0.6970  1.3035
  126SOPE    C213458   2.274   2.504   2.611  0.1478 -0.0834 -0.4006
  126SOPE    HS13459   2.323   2.590   2.562  2.2113 -1.4168 -0.7896
  126SOPE   O2113460   2.368   2.423   2.681  0.4328 -0.5639 -0.0218
  126SOPE   C2113461   2.457   2.497   2.754  0.5696  0.6139  0.4128
  126SOPE   O2213462   2.466   2.620   2.757  0.0286  0.6845 -0.2858
  126SOPE   C2213463   2.548   2.399   2.827  0.1008  0.1636 -0.5366
  126SOPE   H2R13464   2.648   2.448   2.822  0.5996 -0.4339  1.9306
  126SOPE   H2S13465   2.543   2.301   2.775  0.0420 -0.4433  0.5637
  126SOPE    C313466   2.158   2.568   2.703  0.1680  0.7514  0.1013
  126SOPE    HX13467   2.102   2.629   2.629 -0.0332 -0.3842 -0.7077
  126SOPE    HY13468   2.202   2.631   2.783  2.3893 -1.0901  0.4219
  126SOPE   O3113469   2.076   2.460   2.749  0.0381 -0.4681  0.5059
  126SOPE   C3113470   2.064   2.456   2.878 -0.3155  0.0396 -0.5140
  126SOPE   O3213471   2.082   2.542   2.961 -0.6898  0.2476 -0.0475
  126SOPE   C3213472   2.040   2.311   2.924  0.8688 -0.2918 -0.3731
  126SOPE   H2X13473   2.095   2.310   3.020 -3.2121  1.6943  2.2811
  126SOPE   H2Y13474   2.071   2.232   2.852  1.8865  0.7102 -1.0576
  126SOPE   C2313475   2.498   2.377   2.973  0.4581 -0.6311 -0.1131
  126SOPE   H3R13476   2.550   2.294   3.026 -1.5074  0.1875  3.4858
  126SOPE   H3S13477   2.390   2.352   2.967  0.8114 -2.5078  0.6667
  126SOPE   C2413478   2.511   2.502   3.065  0.0969 -0.6555  0.0743
  126SOPE   H4R13479   2.621   2.517   3.065 -0.0519  0.5966  0.4843
  126SOPE   H4S13480   2.469   2.600   3.035 -0.4813 -1.2808 -1.2263
  126SOPE   C2513481   2.477   2.485   3.216 -0.2092  0.7456 -0.5369
  126SOPE   H5R13482   2.520   2.389   3.252  0.6685  0.1249 -3.0385
  126SOPE   H5S13483   2.538   2.559   3.273  1.0534 -0.5823 -0.0853
  126SOPE   C2613484   2.330   2.484   3.249  0.6956 -0.0189 -0.4774
  126SOPE   H6R13485   2.271   2.569   3.210 -2.3829 -1.1225  1.4335
  126SOPE   H6S13486   2.290   2.399   3.189  0.4790  1.0179 -1.8528
  126SOPE   C2713487   2.297   2.482   3.399 -0.2265 -1.2810 -0.2143
  126SOPE   H7R13488   2.333   2.389   3.447 -1.8029 -1.5706  0.4612
  126SOPE   H7S13489   2.353   2.566   3.445 -0.6045  0.2921 -2.4145
  126SOPE   C2813490   2.154   2.527   3.421 -0.1631 -0.1744 -0.1880
  126SOPE   H8R13491   2.132   2.551   3.527 -1.0878 -2.0236  0.0846
  126SOPE   H8S13492   2.143   2.623   3.367 -2.5629  1.2739  2.6067
  126SOPE   C2913493   2.055   2.429   3.361 -0.4525 -0.6948 -0.4509
  126SOPE   H9113494   2.082   2.391   3.261 -0.5547  2.9331 -2.0000
  126SOPE  C21013495   1.945   2.374   3.418  0.3127  0.5798 -0.0772
  126SOPE  H10113496   1.874   2.323   3.352 -0.4009  0.2857  0.8936
  126SOPE  C21113497   1.906   2.410   3.554 -0.0899 -0.4493  0.2845
  126SOPE  H11R13498   1.867   2.514   3.548  0.1174 -0.3737  0.2499
  126SOPE  H11S13499   1.990   2.408   3.626  2.6332  1.1148 -2.5945
  126SOPE  C21213500   1.784   2.329   3.588  0.5704  0.4809  0.3456
  126SOPE  H12R13501   1.800   2.219   3.587  0.9241  0.5297  0.5875
  126SOPE  H12S13502   1.696   2.361   3.529 -0.1161 -3.5318 -1.1103
  126SOPE  C21313503   1.730   2.353   3.730 -0.3337  0.3221  0.3117
  126SOPE  H13R13504   1.658   2.438   3.729 -1.1418 -0.3374 -1.1953
  126SOPE  H13S13505   1.810   2.388   3.799  0.8511 -1.0317 -0.3260
  126SOPE  C21413506   1.673   2.229   3.798 -0.2128 -0.3890  0.3823
  126SOPE  H14R13507   1.752   2.151   3.812 -1.1969 -1.9753 -2.2302
  126SOPE  H14S13508   1.597   2.188   3.729 -0.4990  0.0078  0.4624
  126SOPE  C21513509   1.604   2.259   3.934  0.4890  0.0244 -0.0533
  126SOPE  H15R13510   1.520   2.330   3.915 -0.0838 -0.7500 -0.4633
  126SOPE  H15S13511   1.686   2.286   4.004 -1.2736  0.0354  2.1158
  126SOPE  C21613512   1.531   2.136   3.996 -1.2890  0.0584  0.8944
  126SOPE  H16R13513   1.611   2.059   3.998 -1.5142 -0.3211 -1.6712
  126SOPE  H16S13514   1.452   2.103   3.926 -0.5151  0.9881 -0.4495
  126SOPE  C21713515   1.484   2.165   4.139 -0.4163  0.2044  0.0686
  126SOPE  H17R13516   1.451   2.271   4.134  1.1052  0.8264  1.7774
  126SOPE  H17S13517   1.575   2.160   4.204 -0.3537  0.3913 -0.0038
  126SOPE  C21813518   1.376   2.071   4.182  0.2597  0.5317  0.0010
  126SOPE  H18R13519   1.321   2.096   4.276 -1.0462  1.3462 -0.9552
  126SOPE  H18S13520   1.419   1.969   4.197  0.7718  0.5278 -1.4049
  126SOPE  H18T13521   1.312   2.062   4.092 -1.1720  0.7867  0.9670
  126SOPE   C3313522   1.891   2.281   2.967 -0.8298 -0.7688  0.1796
  126SOPE   H3X13523   1.827   2.270   2.877 -0.0064  0.4254 -0.5811
  126SOPE   H3Y13524   1.845   2.360   3.030  1.3091 -0.7044  1.7835
  126SOPE   C3413525   1.875   2.156   3.052 -0.2506  0.1953 -0.7279
  126SOPE   H4X13526   1.880   2.183   3.160  0.7942 -0.1425 -0.6803
  126SOPE   H4Y13527   1.956   2.083   3.030  1.9993  2.3960 -0.2638
  126SOPE   C3513528   1.741   2.085   3.031  0.4554 -0.5794 -0.4574
  126SOPE   H5X13529   1.726   2.046   2.928 -1.8822 -0.5961 -0.1685
  126SOPE   H5Y13530   1.660   2.154   3.062  0.7871 -1.2845  2.2990
  126SOPE   C3613531   1.725   1.967   3.134 -0.2749  0.2592  0.1430
  126SOPE   H6X13532   1.823   1.917   3.126 -0.0686  0.6302  0.3362
  126SOPE   H6Y13533   1.639   1.906   3.097 -0.5757  0.0016  1.2090
  126SOPE   C3713534   1.705   2.003   3.280  0.5633 -0.2374  0.1826
  126SOPE   H7X13535   1.619   2.073   3.276  1.2358  0.5854 -0.1577
  126SOPE   H7Y13536   1.784   2.066   3.326  0.0369  0.8322 -0.3563
  126SOPE   C3813537   1.687   1.882   3.376  0.5126  0.2523 -0.1105
  126SOPE   H8X13538   1.774   1.812   3.374 -1.3747 -2.2627  0.8141
  126SOPE   H8Y13539   1.594   1.825   3.355 -0.3115  0.6028  2.3096
  126SOPE   C3913540   1.676   1.934   3.522 -0.5912 -0.1547  0.1101
  126SOPE   H9X13541   1.580   1.979   3.552  0.1110  0.9828  0.7396
  126SOPE   H9Y13542   1.761   2.002   3.546  0.0473 -0.9746  0.2563
  126SOPE  C31013543   1.690   1.809   3.621 -0.7907 -0.6443  0.0788
  126SOPE  H10X13544   1.758   1.737   3.570 -1.6549 -1.1888 -0.3242
  126SOPE  H10Y13545   1.590   1.765   3.641 -1.1527 -0.2044 -0.7345
  126SOPE  C31113546   1.764   1.836   3.750 -0.7088 -0.5935 -0.7495
  126SOPE  H11X13547   1.698   1.901   3.811  2.0154 -0.4933  2.4049
  126SOPE  H11Y13548   1.861   1.886   3.730 -1.0856 -0.6640 -3.0011
  126SOPE  C31213549   1.792   1.714   3.843  0.2714 -0.5750  0.9686
  126SOPE  H12X13550   1.870   1.759   3.907  0.8873  0.6659 -0.5734
  126SOPE  H12Y13551   1.840   1.628   3.792  2.1057  0.7034  0.4214
  126SOPE  C31313552   1.670   1.674   3.916  0.1418  0.2984  0.5114
  126SOPE  H13X13553   1.670   1.564   3.928 -0.3319  0.3239  0.7760
  126SOPE  H13Y13554   1.577   1.712   3.867  2.3330  5.4748 -0.3605
  126SOPE  C31413555   1.679   1.727   4.067 -0.0406 -0.8622  0.1585
  126SOPE  H14X13556   1.669   1.837   4.080  0.7198 -0.9169  1.3732
  126SOPE  H14Y13557   1.776   1.700   4.115 -0.3758  1.5363  2.4524
  126SOPE  C31513558   1.563   1.676   4.155 -0.0415  1.0575 -0.6527
  126SOPE  H15X13559   1.586   1.567   4.150  0.8046  1.1750  0.2879
  126SOPE  H15Y13560   1.465   1.709   4.116  0.4125  2.2260 -0.8576
  126SOPE  C31613561   1.565   1.713   4.302  0.1287  0.0173  0.5402
  126SOPE  H16X13562   1.558   1.824   4.304  0.1904  0.0189  1.2256
  126SOPE  H16Y13563   1.664   1.676   4.338 -0.3478 -0.6326  1.2286
  126SOPE  C31713564   1.441   1.670   4.385 -0.6676 -0.4293  0.4539
  126SOPE  H17X13565   1.430   1.560   4.379 -1.3001 -0.3127 -0.7676
  126SOPE  H17Y13566   1.357   1.712   4.327 -0.8651 -3.2415 -1.5187
  126SOPE  C31813567   1.451   1.723   4.527 -0.5214  0.0643 -0.1512
  126SOPE  H18X13568   1.365   1.682   4.584 -0.4282 -1.4720 -1.0502
  126SOPE  H18Y13569   1.438   1.833   4.524  0.2814  0.1775  0.3041
  126SOPE  H18Z13570   1.542   1.706   4.588  0.9787  0.1404 -2.2594
  127SOPE     N13571   3.319   3.850   2.062 -0.5215 -0.0270 -0.1629
  127SOPE   HN113572   3.247   3.865   1.988 -0.5869 -0.9107 -0.2982
  127SOPE   HN213573   3.409   3.823   2.016  1.2783  2.9074  1.3676
  127SOPE   HN313574   3.285   3.782   2.134 -0.8427  1.0492  0.7200
  127SOPE   C1213575   3.343   3.980   2.131  0.1742  0.4392  0.3172
  127SOPE  H12A13576   3.386   3.954   2.231 -3.3396 -0.2886  1.7950
  127SOPE  H12B13577   3.248   4.031   2.155  0.2505 -0.0515  1.8083
  127SOPE   C1113578   3.430   4.074   2.054  0.5938  0.1043 -0.4867
  127SOPE  H11A13579   3.538   4.051   2.046  0.1544 -2.1423 -0.6460
  127SOPE  H11B13580   3.433   4.168   2.113  1.3099 -1.4122  2.0227
  127SOPE     P13581   3.307   4.213   1.866 -0.0972 -0.1986 -0.2423
  127SOPE   O1313582   3.185   4.152   1.802  0.5597 -0.0258 -0.7014
  127SOPE   O1413583   3.399   4.283   1.769 -0.0919  0.0219  0.2470
  127SOPE   O1213584   3.388   4.096   1.925 -0.0581 -0.0247 -0.1755
  127SOPE   O1113585   3.277   4.298   1.984 -0.1087 -0.4366 -0.6386
  127SOPE    C113586   3.274   4.440   1.987 -0.1755  0.1292 -0.0167
  127SOPE    HA13587   3.171   4.482   1.992 -0.7630 -1.2750  0.0286
  127SOPE    HB13588   3.322   4.478   1.894  1.8008 -2.3703 -0.1119
  127SOPE    C213589   3.352   4.491   2.110 -0.1051 -0.7578  0.4560
  127SOPE    HS13590   3.331   4.597   2.133 -1.2177 -0.3936 -1.8747
  127SOPE   O2113591   3.500   4.472   2.093  0.5874 -0.2889  0.0360
  127SOPE   C2113592   3.556   4.557   2.004 -0.2602  0.0984  0.3834
  127SOPE   O2213593   3.499   4.645   1.947 -0.6001  0.0473 -0.5444
  127SOPE   C2213594   3.703   4.521   1.997  1.0740  0.2288 -1.1588
  127SOPE   H2R13595   3.750   4.570   1.909 -0.3331  0.3552 -1.8859
  127SOPE   H2S13596   3.705   4.414   1.968  0.7678  0.5023 -2.2846
  127SOPE    C313597   3.304   4.426   2.242  0.5610 -0.1985 -0.3518
  127SOPE    HX13598   3.345   4.323   2.238  0.8184 -0.0573 -1.4919
  127SOPE    HY13599   3.194   4.427   2.261  1.0618 -0.2525  3.4208
  127SOPE   O3113600   3.361   4.493   2.353  0.0883  0.0201 -0.4490
  127SOPE   C3113601   3.457   4.433   2.422  0.4877  0.7105 -0.4131
  127SOPE   O3213602   3.503   4.322   2.404  0.0163  0.2072  0.2447
  127SOPE   C3213603   3.490   4.527   2.545  0.1016 -0.6143  0.5126
  127SOPE   H2X13604   3.433   4.622   2.537  0.6391 -0.2405  1.0249
  127SOPE   H2Y13605   3.596   4.560   2.546  0.2313 -1.0131  0.0784
  127SOPE   C2313606   3.780   4.539   2.129 -0.0970 -0.7773 -0.4731
  127SOPE   H3R13607   3.880   4.502   2.098  1.1107  0.0943  2.0492
  127SOPE   H3S13608   3.750   4.468   2.210 -0.7450 -2.1299 -1.8518
  127SOPE   C2413609   3.805   4.679   2.178  0.5879 -0.1785 -0.6022
  127SOPE   H4R13610   3.820   4.753   2.097  3.2007 -0.6377 -0.6324
  127SOPE   H4S13611   3.716   4.725   2.224 -0.2131  0.9539 -3.1403
  127SOPE   C2513612   3.911   4.690   2.289  0.0427 -0.4385  0.2907
  127SOPE   H5R13613   3.991   4.613   2.280 -0.5357 -0.8251 -3.0138
  127SOPE   H5S13614   3.951   4.793   2.285 -1.5553  0.2397  1.1029
  127SOPE   C2613615   3.852   4.674   2.431 -0.1481  0.0179 -0.2953
  127SOPE   H6R13616   3.775   4.752   2.446 -1.2433 -0.9995 -0.4276
  127SOPE   H6S13617   3.802   4.576   2.450 -1.9433  1.3250  2.3560
  127SOPE   C2713618   3.959   4.704   2.539  0.0195 -0.5153 -0.4395
  127SOPE   H7R13619   4.047   4.637   2.533  0.0252 -0.5304 -0.1787
  127SOPE   H7S13620   3.995   4.806   2.516 -1.3790  0.3087  0.8679
  127SOPE   C2813621   3.899   4.694   2.686  0.2136  0.9721  0.4149
  127SOPE   H8R13622   3.980   4.739   2.747  2.9156 -0.8891 -1.5606
  127SOPE   H8S13623   3.801   4.746   2.695 -0.9185 -0.8819 -0.6679
  127SOPE   C2913624   3.883   4.543   2.711  0.3519  0.0732  0.7408
  127SOPE   H9113625   3.836   4.484   2.632 -1.3092  0.6753  1.2358
  127SOPE  C21013626   3.915   4.482   2.824 -0.1365  0.1205 -0.0727
  127SOPE  H10113627   3.880   4.379   2.840 -0.9895  0.4668  0.3505
  127SOPE  C21113628   3.971   4.543   2.947 -0.0168  0.2386 -0.3847
  127SOPE  H11R13629   3.990   4.648   2.919 -1.6266 -0.5990 -5.9093
  127SOPE  H11S13630   4.071   4.497   2.955  0.0713  0.2103 -1.5476
  127SOPE  C21213631   3.889   4.514   3.070 -0.4840 -1.1561 -0.3756
  127SOPE  H12R13632   3.884   4.405   3.093  1.7577 -0.8485  2.0009
  127SOPE  H12S13633   3.786   4.555   3.062  0.2426  1.0052  0.7646
  127SOPE  C21313634   3.953   4.570   3.196 -0.6754 -1.0060  0.2826
  127SOPE  H13R13635   4.001   4.668   3.178  0.6717 -2.0319 -2.1994
  127SOPE  H13S13636   4.034   4.498   3.221 -1.6028 -1.7818  1.1662
  127SOPE  C21413637   3.853   4.572   3.311 -0.1569  0.0152 -0.3899
  127SOPE  H14R13638   3.803   4.473   3.308  1.8516 -1.1070  0.6732
  127SOPE  H14S13639   3.778   4.652   3.293 -0.7631 -0.5958 -0.6015
  127SOPE  C21513640   3.923   4.598   3.452  0.1691  0.0602  0.0421
  127SOPE  H15R13641   3.837   4.623   3.518 -1.0456 -0.8624 -1.1324
  127SOPE  H15S13642   3.982   4.691   3.437 -1.6873  1.6509  1.7872
  127SOPE  C21613643   4.010   4.491   3.510 -0.4624  0.3480 -0.9247
  127SOPE  H16R13644   4.096   4.476   3.441  0.6252 -1.4903  0.7209
  127SOPE  H16S13645   3.975   4.388   3.532  0.7761  0.3401  1.3832
  127SOPE  C21713646   4.081   4.531   3.644  0.0451 -0.1805 -0.6829
  127SOPE  H17R13647   3.999   4.544   3.718  0.6925  1.8915 -0.2570
  127SOPE  H17S13648   4.135   4.628   3.635  2.8436 -1.6805 -0.9551
  127SOPE  C21813649   4.172   4.416   3.687 -0.0599 -0.0514 -0.4819
  127SOPE  H18R13650   4.267   4.418   3.630  2.3072  1.1256  3.1432
  127SOPE  H18S13651   4.116   4.320   3.678 -0.9209  0.3779  0.1531
  127SOPE  H18T13652   4.201   4.440   3.792 -0.1277  0.8619 -0.6661
  127SOPE   C3313653   3.459   4.452   2.678 -0.2424 -0.4153  0.7817
  127SOPE   H3X13654   3.514   4.357   2.665 -1.2346 -0.8086 -0.8461
  127SOPE   H3Y13655   3.353   4.423   2.665 -1.0359  2.7031 -0.6111
  127SOPE   C3413656   3.482   4.513   2.811  0.5627 -0.1552 -1.0529
  127SOPE   H4X13657   3.418   4.603   2.822  0.5085 -0.2020 -0.9906
  127SOPE   H4Y13658   3.589   4.542   2.819  0.3464  0.5238 -0.5629
  127SOPE   C3513659   3.442   4.412   2.919 -0.6337 -0.5732  0.3449
  127SOPE   H5X13660   3.510   4.325   2.921 -0.3027 -0.4498 -2.5556
  127SOPE   H5Y13661   3.341   4.368   2.904 -0.9366  0.3871 -0.5640
  127SOPE   C3613662   3.441   4.480   3.062  0.0345  0.3297  0.0317
  127SOPE   H6X13663   3.359   4.556   3.067  0.1876  0.5640 -0.8067
  127SOPE   H6Y13664   3.534   4.538   3.078  0.0978  0.5316 -0.9936
  127SOPE   C3713665   3.416   4.382   3.183  0.1637 -0.5564  1.3721
  127SOPE   H7X13666   3.460   4.283   3.157 -0.0964 -0.4221  0.4161
  127SOPE   H7Y13667   3.307   4.373   3.201 -0.2172  0.2176 -0.3846
  127SOPE   C3813668   3.471   4.434   3.318  0.0292  0.5995  0.8161
  127SOPE   H8X13669   3.427   4.536   3.328 -0.7309  0.1436  2.6028
  127SOPE   H8Y13670   3.581   4.445   3.321 -0.1382  2.7264  3.5475
  127SOPE   C3913671   3.429   4.351   3.433  0.1797  0.3319 -0.0171
  127SOPE   H9X13672   3.495   4.263   3.449 -1.0008 -0.3419  1.4277
  127SOPE   H9Y13673   3.331   4.302   3.412  0.7450 -0.4311 -1.0135
  127SOPE  C31013674   3.421   4.423   3.573  0.2432 -0.6469  0.3629
  127SOPE  H10X13675   3.377   4.344   3.639 -0.5311 -1.4115 -1.0145
  127SOPE  H10Y13676   3.346   4.505   3.567  3.8794  2.9502  0.2725
  127SOPE  C31113677   3.555   4.493   3.614  0.0861 -0.2061 -0.2206
  127SOPE  H11X13678   3.575   4.570   3.537 -1.1486 -0.0252 -0.3681
  127SOPE  H11Y13679   3.636   4.416   3.617  2.8212  2.4939  0.6160
  127SOPE  C31213680   3.550   4.559   3.753 -0.4780 -0.5818  0.5248
  127SOPE  H12X13681   3.479   4.644   3.748  0.3922  0.2730  1.9498
  127SOPE  H12Y13682   3.646   4.598   3.794 -0.7631  0.5728  0.1569
  127SOPE  C31313683   3.507   4.463   3.862  0.1603 -0.3196 -0.3402
  127SOPE  H13X13684   3.575   4.376   3.845 -0.5869 -0.7124 -1.4255
  127SOPE  H13Y13685   3.405   4.421   3.849  0.4029 -0.8155 -0.6563
  127SOPE  C31413686   3.531   4.522   3.999 -0.6317  0.1984 -0.2308
  127SOPE  H14X13687   3.445   4.497   4.064 -1.2850  3.0124  0.0999
  127SOPE  H14Y13688   3.526   4.633   3.998  0.1919  0.2608  1.0090
  127SOPE  C31513689   3.656   4.469   4.057 -0.8326  0.5011 -0.0644
  127SOPE  H15X13690   3.746   4.501   3.999  0.5981  1.3986  2.4968
  127SOPE  H15Y13691   3.665   4.359   4.069 -0.4082  0.6799  1.4806
  127SOPE  C31613692   3.685   4.533   4.193 -0.1576  0.2125  0.1822
  127SOPE  H16X13693   3.606   4.483   4.252  0.7466 -0.7288  0.6373
  127SOPE  H16Y13694   3.671   4.643   4.190 -0.7457  0.1449  0.3323
  127SOPE  C31713695   3.821   4.497   4.242 -0.4746  0.1001 -0.1092
  127SOPE  H17X13696   3.905   4.539   4.183 -0.5918 -1.6611 -1.6412
  127SOPE  H17Y13697   3.835   4.387   4.251 -1.0197  0.1345  1.3887
  127SOPE  C31813698   3.849   4.557   4.381  0.5012 -0.1756 -0.5495
  127SOPE  H18X13699   3.837   4.667   4.368 -1.3629  0.1164  2.6398
  127SOPE  H18Y13700   3.954   4.530   4.402  0.7218  2.3792  2.2087
  127SOPE  H18Z13701   3.780   4.511   4.455  1.0234  2.3336  1.6240
  128SOPE     N13702   1.156   0.143   2.282  0.1457  0.3188  0.4044
  128SOPE   HN113703   1.152   0.039   2.286 -3.2826  0.3533  0.9013
  128SOPE   HN213704   1.256   0.171   2.286  0.1869  0.0397  3.0366
  128SOPE   HN313705   1.100   0.191   2.355 -0.9151  0.6875 -0.6088
  128SOPE   C1213706   1.116   0.192   2.142 -0.3648  0.2184  0.2653
  128SOPE  H12A13707   1.207   0.199   2.079 -0.2388 -1.1401  0.2658
  128SOPE  H12B13708   1.072   0.294   2.152  1.8447  1.1380  1.0461
  128SOPE   C1113709   1.001   0.098   2.084  0.2630 -0.9384  0.1177
  128SOPE  H11A13710   0.968   0.142   1.987  0.8154 -1.3558 -0.2649
  128SOPE  H11B13711   0.911   0.107   2.149  0.4487  1.1418  0.1479
  128SOPE     P13712   1.007  -0.153   2.167 -0.0829  0.2745  0.1269
  128SOPE   O1313713   1.048  -0.283   2.110  0.2245  0.1619 -0.1642
  128SOPE   O1413714   0.862  -0.137   2.197  0.3808  0.4671  0.4965
  128SOPE   O1213715   1.048  -0.037   2.075 -0.1419 -0.0617  0.0811
  128SOPE   O1113716   1.096  -0.115   2.289  0.1191  0.1678  0.6007
  128SOPE    C113717   1.099  -0.191   2.406  0.2300  0.4432  0.0099
  128SOPE    HA13718   1.099  -0.300   2.390  0.4764  0.1849  1.6128
  128SOPE    HB13719   1.012  -0.173   2.472  0.1639 -0.7207  0.2477
  128SOPE    C213720   1.221  -0.148   2.500 -0.0690 -0.5320 -0.1073
  128SOPE    HS13721   1.209  -0.204   2.595 -0.5035 -1.0421 -0.4583
  128SOPE   O2113722   1.223  -0.006   2.515  1.4545 -0.5311 -0.2403
  128SOPE   C2113723   1.277   0.041   2.627 -0.4008  0.0238 -0.6311
  128SOPE   O2213724   1.347  -0.029   2.702  0.0161 -0.7066  0.5071
  128SOPE   C2213725   1.238   0.187   2.662 -0.2461 -0.0307  0.1199
  128SOPE   H2R13726   1.152   0.195   2.732 -1.6424  0.6783 -1.6007
  128SOPE   H2S13727   1.213   0.227   2.561  2.5200  2.5290  0.3064
  128SOPE    C313728   1.352  -0.205   2.441  0.7534  0.4568  0.7408
  128SOPE    HX13729   1.355  -0.159   2.340  1.7703  0.7720  0.9023
  128SOPE    HY13730   1.343  -0.315   2.431  1.9211  0.5258 -1.6536
  128SOPE   O3113731   1.478  -0.182   2.507 -0.4830 -0.0597  0.5849
  128SOPE   C3113732   1.555  -0.069   2.485  0.2699  1.3000 -0.7195
  128SOPE   O3213733   1.522   0.021   2.412  0.2006 -0.2701  0.3681
  128SOPE   C3213734   1.681  -0.070   2.568  0.9182 -0.3720  0.0191
  128SOPE   H2X13735   1.765  -0.118   2.513  1.0851 -1.2047  0.9657
  128SOPE   H2Y13736   1.674  -0.147   2.648 -2.6795 -1.8896 -1.5233
  128SOPE   C2313737   1.365   0.266   2.722 -0.7829 -0.2895  0.7550
  128SOPE   H3R13738   1.311   0.362   2.736  0.9897  0.9603 -0.6635
  128SOPE   H3S13739   1.452   0.284   2.656  0.8084 -2.4473  2.1441
  128SOPE   C2413740   1.402   0.228   2.858 -0.5144 -0.2061 -0.5297
  128SOPE   H4R13741   1.315   0.217   2.926  0.8982 -0.9733  1.2259
  128SOPE   H4S13742   1.447   0.126   2.852  0.6959  0.0886  2.1844
  128SOPE   C2513743   1.505   0.324   2.924  0.7780  0.1472 -0.0431
  128SOPE   H5R13744   1.585   0.303   2.850 -1.0251 -1.4715 -1.6665
  128SOPE   H5S13745   1.467   0.428   2.934 -0.5512 -0.3651  0.3845
  128SOPE   C2613746   1.556   0.282   3.064  0.0664  0.4852 -0.1240
  128SOPE   H6R13747   1.551   0.174   3.087 -2.6141  0.8138  1.2637
  128SOPE   H6S13748   1.661   0.319   3.071 -0.0425  0.4804  3.3861
  128SOPE   C2713749   1.491   0.363   3.178  0.0509  0.5956  0.0523
  128SOPE   H7R13750   1.481   0.467   3.140 -2.0763  0.4867  0.2195
  128SOPE   H7S13751   1.390   0.324   3.202  0.3145 -1.0747 -1.3436
  128SOPE   C2813752   1.593   0.345   3.299 -0.3722 -0.2088 -0.0334
  128SOPE   H8R13753   1.625   0.241   3.324  0.8256  0.4183  1.1948
  128SOPE   H8S13754   1.690   0.392   3.271 -0.6661  0.4193 -0.0000
  128SOPE   C2913755   1.546   0.413   3.423  0.5736  0.2007  0.0801
  128SOPE   H9113756   1.443   0.393   3.457 -0.6524  0.6706 -3.0183
  128SOPE  C21013757   1.621   0.498   3.493  0.2065 -0.7275 -0.2075
  128SOPE  H10113758   1.567   0.552   3.572  2.1465  0.7263  0.1867
  128SOPE  C21113759   1.756   0.557   3.475 -0.2211 -0.4142  0.3470
  128SOPE  H11R13760   1.743   0.667   3.466 -0.0407 -0.3106  1.3135
  128SOPE  H11S13761   1.803   0.523   3.380 -0.6900 -0.3781  0.0988
  128SOPE  C21213762   1.857   0.525   3.590  0.0441  0.5726 -0.5713
  128SOPE  H12R13763   1.959   0.562   3.568  0.7169 -1.5462 -1.2099
  128SOPE  H12S13764   1.873   0.415   3.593 -2.5910  0.0723 -1.7091
  128SOPE  C21313765   1.825   0.574   3.732 -0.2824 -0.0750 -0.6390
  128SOPE  H13R13766   1.726   0.525   3.749 -0.9525  0.9425 -1.4700
  128SOPE  H13S13767   1.793   0.680   3.737  0.6689  0.1946 -0.2436
  128SOPE  C21413768   1.928   0.525   3.833  0.2010 -0.2043 -0.6600
  128SOPE  H14R13769   2.025   0.566   3.798  0.0234  0.6685 -0.1605
  128SOPE  H14S13770   1.937   0.414   3.830  1.5280 -0.1577  0.5116
  128SOPE  C21513771   1.897   0.560   3.985 -0.5978 -0.1073  0.0495
  128SOPE  H15R13772   1.895   0.670   3.992  1.7694  0.0359 -0.4401
  128SOPE  H15S13773   1.995   0.524   4.023  1.0464  2.6076 -1.3066
  128SOPE  C21613774   1.776   0.489   4.036  0.5784 -0.6004 -0.2231
  128SOPE  H16R13775   1.784   0.381   4.013  0.5199 -0.2273 -2.0892
  128SOPE  H16S13776   1.682   0.516   3.984 -0.1495  0.2246  1.4206
  128SOPE  C21713777   1.751   0.502   4.184  0.3394  0.3928 -0.7206
  128SOPE  H17R13778   1.646   0.477   4.209  0.6650 -0.1562  0.1620
  128SOPE  H17S13779   1.771   0.606   4.219  1.8187 -0.6470  1.7822
  128SOPE  C21813780   1.830   0.400   4.274  0.3558 -0.0069  0.7686
  128SOPE  H18R13781   1.940   0.402   4.254  0.3876 -0.8715  0.8009
  128SOPE  H18S13782   1.784   0.302   4.249 -1.6633  0.7069  1.5296
  128SOPE  H18T13783   1.803   0.400   4.381 -3.6981  1.7088 -0.0731
  128SOPE   C3313784   1.718   0.080   2.610 -0.2453 -0.1926 -0.5898
  128SOPE   H3X13785   1.663   0.122   2.696  0.6469  0.8836 -0.5226
  128SOPE   H3Y13786   1.690   0.153   2.531  2.1916  0.2560 -1.1379
  128SOPE   C3413787   1.871   0.107   2.626  1.0147 -0.0303  0.0121
  128SOPE   H4X13788   1.893   0.216   2.627 -0.3317  0.2795 -1.1864
  128SOPE   H4Y13789   1.924   0.070   2.536  0.3398 -2.6468  0.6008
  128SOPE   C3513790   1.916   0.036   2.752  0.1183 -0.3844 -0.2330
  128SOPE   H5X13791   2.024   0.058   2.755 -0.4977  3.0239  0.5581
  128SOPE   H5Y13792   1.896  -0.073   2.740 -1.3151 -0.3931  1.7507
  128SOPE   C3613793   1.851   0.087   2.886  0.1077  0.1747 -0.6174
  128SOPE   H6X13794   1.745   0.052   2.878  0.3131 -1.2785  1.9316
  128SOPE   H6Y13795   1.869   0.196   2.891 -1.4493  0.4827 -1.1952
  128SOPE   C3713796   1.907   0.020   3.016 -0.7588 -0.9770  0.2574
  128SOPE   H7X13797   2.009  -0.016   2.990 -1.2370 -2.6493  0.5675
  128SOPE   H7Y13798   1.851  -0.073   3.037 -0.1899 -1.2559  0.5680
  128SOPE   C3813799   1.914   0.119   3.136  0.3339 -0.1378 -0.5769
  128SOPE   H8X13800   1.812   0.143   3.175  0.6227  0.0883  0.0454
  128SOPE   H8Y13801   1.969   0.211   3.106  0.7694 -0.0692  0.4066
  128SOPE   C3913802   1.998   0.056   3.251 -0.5189  0.4932 -0.4218
  128SOPE   H9X13803   2.096   0.108   3.245 -1.1346  1.4945 -3.1688
  128SOPE   H9Y13804   2.003  -0.054   3.248 -0.5523  0.4074  1.5427
  128SOPE  C31013805   1.942   0.092   3.389  1.1139 -0.2934 -0.2763
  128SOPE  H10X13806   1.844   0.041   3.398  0.4982  0.8839 -0.2030
  128SOPE  H10Y13807   1.926   0.202   3.393  0.2698 -0.4226  3.3316
  128SOPE  C31113808   2.029   0.040   3.497 -0.7187  0.3773 -0.2986
  128SOPE  H11X13809   2.135   0.069   3.480 -0.6840  1.6066  1.7401
  128SOPE  H11Y13810   2.034  -0.071   3.497  0.2009  0.3958 -1.6264
  128SOPE  C31213811   1.983   0.085   3.639  0.2675 -0.7557  0.2019
  128SOPE  H12X13812   1.883   0.040   3.656 -0.3411  0.7386  0.6790
  128SOPE  H12Y13813   1.981   0.195   3.626 -3.3943 -0.7473 -0.1632
  128SOPE  C31313814   2.071   0.034   3.756  0.1105  0.4543 -1.0134
  128SOPE  H13X13815   2.173   0.066   3.727  0.9347  0.7894  1.9388
  128SOPE  H13Y13816   2.063  -0.077   3.763 -0.5217  0.5513  0.0437
  128SOPE  C31413817   2.034   0.088   3.894  0.5267  0.1007  0.1064
  128SOPE  H14X13818   1.926   0.067   3.908  0.3760  0.2785 -0.7126
  128SOPE  H14Y13819   2.035   0.199   3.899  1.8214  0.0772  0.5949
  128SOPE  C31513820   2.123   0.035   4.005  0.6647 -0.1075  0.2753
  128SOPE  H15X13821   2.231   0.021   3.980  1.2628 -1.3016  3.0878
  128SOPE  H15Y13822   2.090  -0.068   4.032 -0.1663 -0.1697 -0.9061
  128SOPE  C31613823   2.136   0.125   4.125  0.6279 -0.0529  0.1100
  128SOPE  H16X13824   2.038   0.142   4.176  1.4204  2.1034  1.0403
  128SOPE  H16Y13825   2.172   0.226   4.096 -0.6526  0.3981 -0.0184
  128SOPE  C31713826   2.226   0.076   4.235 -0.3958 -0.5816 -0.0534
  128SOPE  H17X13827   2.241   0.166   4.299 -1.0403 -0.9089  0.5703
  128SOPE  H17Y13828   2.325   0.056   4.187 -0.4219 -1.8356  0.3797
  128SOPE  C31813829   2.167  -0.025   4.332 -0.6359  0.3675  0.1817
  128SOPE  H18X13830   2.083   0.023   4.386  0.6895  1.1567  1.5910
  128SOPE  H18Y13831   2.237  -0.051   4.414  0.2397  4.2068  0.8537
  128SOPE  H18Z13832   2.130  -0.111   4.272  2.2453 -0.2403 -0.9078
  129OSM      N13833   4.809   1.999   6.518 -0.6010  0.1396  0.0579
  129OSM    C1513834   4.722   1.910   6.431  0.1393 -0.3513  0.1445
  129OSM   H15A13835   4.789   1.842   6.379  1.5517  0.4514  0.8700
  129OSM   H15B13836   4.654   1.953   6.359 -1.8151  0.2992  2.2806
  129OSM   H15C13837   4.657   1.853   6.495 -1.0715  1.9929  1.1180
  129OSM    C1413838   4.909   1.906   6.566 -0.7851 -0.2153  0.4596
  129OSM   H14A13839   4.858   1.829   6.623 -2.4615 -0.6186 -1.4632
  129OSM   H14B13840   4.988   1.952   6.622  0.5233 -1.5290 -0.2421
  129OSM   H14C13841   4.958   1.859   6.482  2.4653  0.4322  1.8596
  129OSM    C1313842   4.877   2.102   6.437 -0.6835  0.0591  0.0802
  129OSM   H13A13843   4.809   2.183   6.417  3.1683  3.4237 -0.8476
  129OSM   H13B13844   4.921   2.069   6.344  0.0992  0.2526  0.3675
  129OSM   H13C13845   4.959   2.148   6.490 -0.5918  0.6478 -0.5485
  129OSM    C1213846   4.724   2.062   6.624  0.5228  0.0549 -0.6702
  129OSM   H12A13847   4.676   1.985   6.683 -1.6462  1.9628  0.2266
  129OSM   H12B13848   4.648   2.114   6.568 -0.3322 -0.6773 -0.2279
  129OSM    C1113849   4.783   2.172   6.718  0.4809 -0.1302 -0.1567
  129OSM   H11A13850   4.867   2.124   6.772 -0.2533 -2.0170 -0.6396
  129OSM   H11B13851   4.712   2.199   6.799  0.6865  3.0838 -0.8963
  129OSM      P13852   4.712   2.401   6.601  0.0717  0.0291 -0.0409
  129OSM    O1313853   4.612   2.424   6.708 -0.6650  0.3282 -0.3580
  129OSM    O1413854   4.783   2.526   6.558 -0.4589  0.5973  0.0464
  129OSM    O1113855   4.637   2.335   6.471 -0.2563 -0.3497  0.0399
  129OSM    O1213856   4.818   2.287   6.644  0.0489 -0.0977  0.5540
  129OSM    C1S13857   4.678   2.375   6.340  0.2193 -0.3035  0.3183
  129OSM    H1S13858   4.781   2.338   6.320  0.1687 -0.9560  1.2432
  129OSM    H1T13859   4.672   2.486   6.335 -2.6489 -0.4150 -0.7771
  129OSM     NF13860   4.630   2.348   6.099  0.8097 -0.8572 -0.2762
  129OSM    HNF13861   4.580   2.406   6.036  2.0951 -0.0671 -0.5904
  129OSM    C2S13862   4.581   2.327   6.238  0.3101 -0.4577  0.0221
  129OSM    H2S13863   4.572   2.216   6.240 -1.6418 -0.4065 -2.2548
  129OSM    C3S13864   4.442   2.395   6.255 -0.2250  0.1846 -0.1710
  129OSM    H3S13865   4.456   2.503   6.234 -2.2452  0.7029  0.8704
  129OSM     O313866   4.392   2.390   6.387  0.5096  0.3494 -0.7047
  129OSM    HO313867   4.474   2.379   6.434  2.1021  0.2274 -3.3341
  129OSM    C4S13868   4.346   2.346   6.152 -0.3754 -0.1369 -0.2095
  129OSM    H4S13869   4.357   2.237   6.145 -0.3859 -0.3456  2.1607
  129OSM    C5S13870   4.269   2.415   6.060 -0.7753 -0.2299 -0.7069
  129OSM    H5S13871   4.272   2.524   6.060  0.3994 -0.1032  3.0782
  129OSM    C6S13872   4.189   2.350   5.950 -0.3896 -0.8902  0.3858
  129OSM    H6S13873   4.080   2.371   5.954 -0.1815  0.1873  0.6646
  129OSM    H6T13874   4.189   2.241   5.967 -2.1387 -0.8545  0.8409
  129OSM    C7S13875   4.241   2.395   5.816 -0.7050 -0.8039 -0.7887
  129OSM    H7S13876   4.349   2.380   5.796 -0.5844  1.3300 -1.9510
  129OSM    H7T13877   4.244   2.502   5.788  1.0382 -0.6152 -0.0245
  129OSM    C8S13878   4.174   2.310   5.700  0.0491 -0.2600  1.0320
  129OSM    H8S13879   4.064   2.326   5.700  0.1649  0.8965 -1.1341
  129OSM    H8T13880   4.202   2.206   5.724 -0.5254 -0.7403 -0.3040
  129OSM    C9S13881   4.221   2.344   5.557  0.1344  0.1143 -0.8202
  129OSM    H9S13882   4.332   2.351   5.567  0.1695 -1.0355 -0.1885
  129OSM    H9T13883   4.190   2.447   5.532  0.5907  0.8737  1.4890
  129OSM   C10S13884   4.187   2.248   5.448 -0.7743 -0.8675  0.1184
  129OSM   H10S13885   4.080   2.260   5.419 -0.3584  1.6915 -0.6198
  129OSM   H10T13886   4.219   2.146   5.477  3.4335 -0.2538 -1.7322
  129OSM   C11S13887   4.272   2.275   5.323  0.0647  0.3116  0.2034
  129OSM   H11S13888   4.379   2.283   5.353 -0.3900  2.3056  1.4947
  129OSM   H11T13889   4.254   2.373   5.274 -0.7832  0.5157  0.8846
  129OSM   C12S13890   4.244   2.165   5.228 -0.6873 -0.4610  0.3051
  129OSM   H12S13891   4.136   2.151   5.207 -0.2997 -0.1862 -2.1426
  129OSM   H12T13892   4.270   2.063   5.265 -2.5043 -1.3934 -0.8474
  129OSM   C13S13893   4.303   2.183   5.094 -0.6589  0.3163  0.1586
  129OSM   H13S13894   4.409   2.207   5.117 -0.5128 -0.0510 -0.1213
  129OSM   H13T13895   4.251   2.271   5.049 -0.9689  0.3373  0.5573
  129OSM   C14S13896   4.299   2.067   4.999 -1.6143  0.4965  0.3859
  129OSM   H14S13897   4.350   1.980   5.047 -1.5268  1.1821  1.5655
  129OSM   H14T13898   4.364   2.075   4.909 -0.2744  0.8844  1.3472
  129OSM   C15S13899   4.178   2.035   4.930  0.4221 -0.4638 -0.2412
  129OSM   H15S13900   4.127   2.132   4.914  1.1774  0.1022  0.6508
  129OSM   H15T13901   4.109   1.969   4.987 -0.4539  1.1294  0.6135
  129OSM   C16S13902   4.186   1.954   4.797 -0.3641  0.1590  0.7060
  129OSM   H16S13903   4.257   1.871   4.816 -1.7112 -1.3183 -0.3878
  129OSM   H16T13904   4.214   2.027   4.719  0.5380 -0.2570  0.6311
  129OSM   C17S13905   4.055   1.901   4.756 -0.7812 -0.9024  0.3383
  129OSM   H17S13906   4.019   1.816   4.818 -1.8845 -2.3439 -2.1290
  129OSM   H17T13907   4.063   1.859   4.653 -1.2289 -0.1970  0.0075
  129OSM   C18S13908   3.946   2.013   4.759  0.0370 -0.1352  0.0615
  129OSM   H18S13909   3.847   1.983   4.717 -0.8310 -0.3818  2.1291
  129OSM   H18T13910   3.984   2.102   4.704 -1.3224  1.4873  1.6345
  129OSM   H18U13911   3.923   2.032   4.866  0.5507 -0.8621  0.3091
  129OSM    C1F13912   4.732   2.285   6.041 -1.2006 -0.1235 -0.3373
  129OSM     OF13913   4.770   2.177   6.094 -0.7622  0.5029  0.0026
  129OSM    C2F13914   4.790   2.333   5.907 -0.0452  0.0329 -0.7659
  129OSM    H2F13915   4.790   2.250   5.834  0.4515 -2.2499  1.6470
  129OSM    H2G13916   4.893   2.371   5.924  0.7705 -1.1721 -2.6895
  129OSM    C3F13917   4.717   2.460   5.865  0.6644 -0.0448 -0.8484
  129OSM    H3F13918   4.731   2.546   5.934 -1.0588 -1.9984  2.1517
  129OSM    H3G13919   4.608   2.438   5.859  0.6685 -0.1593 -0.4952
  129OSM    C4F13920   4.758   2.512   5.725 -0.5027 -0.3455 -0.3149
  129OSM    H4F13921   4.864   2.545   5.725 -0.2673 -1.0946 -0.1935
  129OSM    H4G13922   4.693   2.600   5.701  0.4416  0.5909  0.4769
  129OSM    C5F13923   4.746   2.411   5.609  0.1663  0.6921 -0.6041
  129OSM    H5F13924   4.642   2.371   5.614  1.1166 -1.9429 -0.1125
  129OSM    H5G13925   4.811   2.321   5.617 -0.7205 -0.0624 -1.5566
  129OSM    C6F13926   4.784   2.480   5.480 -0.2231 -0.3727  0.5924
  129OSM    H6F13927   4.893   2.501   5.485 -0.2910  1.5429 -2.8887
  129OSM    H6G13928   4.737   2.579   5.466 -1.1724 -1.1550 -2.8857
  129OSM    C7F13929   4.753   2.395   5.359 -0.2992 -0.4480 -0.9383
  129OSM    H7F13930   4.645   2.374   5.349 -0.1973 -1.9151  0.5073
  129OSM    H7G13931   4.788   2.290   5.368 -1.3047 -0.7345 -0.2892
  129OSM    C8F13932   4.793   2.453   5.222 -0.0041  0.2617  0.0239
  129OSM    H8F13933   4.755   2.557   5.227  1.3862  0.7460  1.3362
  129OSM    H8G13934   4.749   2.406   5.132  2.2751  1.9887 -2.1483
  129OSM    C9F13935   4.946   2.470   5.204  0.5878 -0.6507 -0.3349
  129OSM    H9F13936   5.007   2.474   5.295  0.9897 -2.1393 -0.4972
  129OSM   C10F13937   5.015   2.486   5.089  0.1882 -0.6083 -0.1894
  129OSM   H10F13938   5.124   2.488   5.104  0.1325 -1.4370  0.4323
  129OSM   C11F13939   4.955   2.499   4.949 -0.2900  0.3561 -0.3635
  129OSM   H11F13940   4.986   2.598   4.910 -0.1010  0.0074 -1.1200
  129OSM   H11G13941   4.846   2.481   4.944  0.0251 -1.4440 -1.4505
  129OSM   C12F13942   5.021   2.399   4.857  0.1069  0.6329  0.3210
  129OSM   H12F13943   5.000   2.295   4.891 -0.4775  0.9240  0.8766
  129OSM   H12G13944   5.131   2.415   4.864 -0.3096  3.3048  2.4897
  129OSM   C13F13945   4.972   2.402   4.708 -0.3971  0.2905 -0.3012
  129OSM   H13F13946   4.993   2.506   4.675  0.7892  0.9164  2.1967
  129OSM   H13G13947   4.867   2.369   4.698  0.0419 -1.9835  1.7530
  129OSM   C14F13948   5.054   2.307   4.621  0.0463 -0.2663  1.3770
  129OSM   H14F13949   5.039   2.202   4.653 -3.3839 -1.4250 -2.9885
  129OSM   H14G13950   5.162   2.335   4.624  0.0734 -0.3899  1.5413
  129OSM   C15F13951   4.999   2.297   4.482  0.6220  0.4885 -0.3909
  129OSM   H15F13952   4.903   2.243   4.497  1.4669 -1.0365 -0.2851
  129OSM   H15G13953   5.060   2.232   4.417  0.4835  1.6094 -1.6780
  129OSM   C16F13954   4.965   2.431   4.408  0.3447  0.6330 -0.3088
  129OSM   H16F13955   4.900   2.491   4.475  0.4636  0.2352  0.1659
  129OSM   H16G13956   4.898   2.410   4.321  0.4701  1.9419 -0.7421
  129OSM   C17F13957   5.091   2.502   4.368 -0.1470 -0.2418 -0.0226
  129OSM   H17F13958   5.150   2.433   4.304  1.3156 -1.0075  2.0412
  129OSM   H17G13959   5.151   2.513   4.460  0.6710 -0.6224 -0.4956
  129OSM   C18F13960   5.068   2.634   4.301 -0.3444  0.8401  0.4883
  129OSM   H18F13961   5.002   2.616   4.214  0.7713  0.7720 -0.3648
  129OSM   H18G13962   5.159   2.680   4.256 -0.0371 -1.3370 -1.2718
  129OSM   H18H13963   5.018   2.702   4.374  0.4710  1.5014  0.4529
  130OSM      N13964   5.835   5.736   6.732  0.3961  0.1617 -0.4086
  130OSM    C1513965   5.797   5.870   6.794 -0.2571 -0.0425  0.2578
  130OSM   H15A13966   5.797   5.951   6.724 -1.9895  1.4494  1.8665
  130OSM   H15B13967   5.866   5.894   6.875 -0.1503  0.6293 -0.0307
  130OSM   H15C13968   5.692   5.869   6.817 -0.4879 -2.4805 -0.5644
  130OSM    C1413969   5.764   5.719   6.595 -0.2310 -0.3009  0.4047
  130OSM   H14A13970   5.785   5.810   6.541 -1.5547  0.6582  1.4234
  130OSM   H14B13971   5.659   5.707   6.620 -0.7768 -1.8543 -2.2395
  130OSM   H14C13972   5.795   5.632   6.540 -2.2259  0.3859 -2.0395
  130OSM    C1313973   5.976   5.740   6.703 -0.6703 -0.2278 -0.6103
  130OSM   H13A13974   5.998   5.813   6.627  1.3646 -0.0411  0.0907
  130OSM   H13B13975   6.003   5.643   6.664  2.0296 -0.0854  0.6500
  130OSM   H13C13976   6.037   5.767   6.789 -0.4471  1.7120 -1.3252
  130OSM    C1213977   5.798   5.636   6.834  0.0139  0.3248 -1.0917
  130OSM   H12A13978   5.840   5.671   6.928 -0.2991  0.2295 -0.9152
  130OSM   H12B13979   5.825   5.534   6.813 -2.2013 -0.9997  1.8032
  130OSM    C1113980   5.647   5.619   6.862 -0.4296  0.4040  0.6532
  130OSM   H11A13981   5.585   5.712   6.866 -0.7537  0.1731  1.1537
  130OSM   H11B13982   5.638   5.573   6.963  0.3360  0.8075  0.9076
  130OSM      P13983   5.515   5.400   6.802 -0.3107 -0.0550 -0.0860
  130OSM    O1313984   5.614   5.293   6.841 -0.1952 -0.4866  0.2727
  130OSM    O1413985   5.408   5.435   6.892 -0.4011  0.1811 -0.6629
  130OSM    O1113986   5.450   5.347   6.670 -0.4330  0.6305  0.1229
  130OSM    O1213987   5.586   5.534   6.766  0.5514  0.3532  0.1472
  130OSM    C1S13988   5.532   5.301   6.564  0.3711 -0.1231  0.7356
  130OSM    H1S13989   5.589   5.212   6.595  1.5602  0.7495  1.1180
  130OSM    H1T13990   5.612   5.376   6.547 -1.8180  2.2641  0.1970
  130OSM     NF13991   5.536   5.240   6.324  0.4854  0.9613 -0.5664
  130OSM    HNF13992   5.577   5.314   6.272  0.6707  0.6676 -0.8465
  130OSM    C2S13993   5.448   5.277   6.433  0.2618 -0.0505  0.4076
  130OSM    H2S13994   5.384   5.190   6.457  1.5820 -1.4977 -1.0673
  130OSM    C3S13995   5.360   5.399   6.398 -0.9243 -0.7678  0.4015
  130OSM    H3S13996   5.429   5.486   6.385 -1.6755 -0.1172  0.6944
  130OSM     O313997   5.262   5.427   6.491 -0.3531  0.3657 -0.2032
  130OSM    HO313998   5.314   5.421   6.572 -1.9718  2.1754  1.0671
  130OSM    C4S13999   5.285   5.365   6.273  0.8554  0.2261 -0.5665
  130OSM    H4S14000   5.199   5.300   6.295  0.4047  0.6453 -1.0424
  130OSM    C5S14001   5.300   5.420   6.155 -0.1118 -0.4332  0.6560
  130OSM    H5S14002   5.384   5.491   6.145  1.1099 -1.4561  2.9031
  130OSM    C6S14003   5.224   5.410   6.023 -0.1421 -0.0545  0.4203
  130OSM    H6S14004   5.182   5.308   6.014  1.7340 -0.6723 -2.3295
  130OSM    H6T14005   5.287   5.421   5.932 -1.0893  2.9871  0.0297
  130OSM    C7S14006   5.113   5.518   6.004  0.2095  0.0715 -0.0328
  130OSM    H7S14007   5.157   5.616   5.976  4.0459 -1.0313  1.4680
  130OSM    H7T14008   5.066   5.529   6.104 -0.5535  1.4286 -0.5134
  130OSM    C8S14009   5.023   5.462   5.894 -0.1228 -0.4381 -0.0571
  130OSM    H8S14010   4.957   5.549   5.875  0.0618  1.1446  4.9780
  130OSM    H8T14011   4.960   5.381   5.939  0.3397 -1.5294 -1.2994
  130OSM    C9S14012   5.090   5.417   5.762  0.6208 -1.1647 -0.8438
  130OSM    H9S14013   5.143   5.320   5.775 -1.1137 -1.9781  0.5304
  130OSM    H9T14014   5.159   5.496   5.723 -0.7917  0.0355 -0.9826
  130OSM   C10S14015   4.985   5.389   5.650 -0.2668 -0.1768 -0.4790
  130OSM   H10S14016   4.911   5.471   5.645  0.9118  1.0449  1.1873
  130OSM   H10T14017   4.920   5.305   5.682 -1.3969  0.6147 -0.6590
  130OSM   C11S14018   5.039   5.346   5.512  0.0821  0.4589 -0.1392
  130OSM   H11S14019   4.954   5.333   5.441  0.5062  0.3762 -0.6399
  130OSM   H11T14020   5.087   5.247   5.519 -0.8312 -0.0495 -0.8185
  130OSM   C12S14021   5.134   5.444   5.447  0.3667 -0.3070  0.2106
  130OSM   H12S14022   5.219   5.439   5.519 -1.3561  1.5746  2.5418
  130OSM   H12T14023   5.088   5.544   5.459 -0.9146  0.0248 -5.1145
  130OSM   C13S14024   5.153   5.427   5.296 -0.8382  0.4008 -0.0569
  130OSM   H13S14025   5.223   5.507   5.262 -0.7929  1.1308  1.6569
  130OSM   H13T14026   5.052   5.463   5.266 -1.7115 -0.4448  1.7247
  130OSM   C14S14027   5.182   5.291   5.242 -0.2507  0.3457 -0.6062
  130OSM   H14S14028   5.113   5.215   5.285 -0.6701  2.1855  2.2420
  130OSM   H14T14029   5.286   5.256   5.262 -0.5581 -0.1943  0.0893
  130OSM   C15S14030   5.147   5.289   5.089 -0.0254 -0.4835 -0.1402
  130OSM   H15S14031   5.042   5.322   5.075 -0.0974 -0.5875  0.1559
  130OSM   H15T14032   5.151   5.183   5.056  2.6008 -0.6277  0.4469
  130OSM   C16S14033   5.251   5.364   4.999  0.7032  0.8524  0.7685
  130OSM   H16S14034   5.355   5.326   5.011  0.2931 -1.8117 -2.5337
  130OSM   H16T14035   5.258   5.472   5.024  1.4456  0.5180  2.0916
  130OSM   C17S14036   5.207   5.338   4.854 -0.4226 -0.2830 -0.1742
  130OSM   H17S14037   5.104   5.376   4.844 -0.2266  0.1537 -0.5241
  130OSM   H17T14038   5.206   5.228   4.835  0.6868  0.0109 -2.0758
  130OSM   C18S14039   5.306   5.390   4.753 -0.6174 -0.4829  0.7101
  130OSM   H18S14040   5.265   5.389   4.650  3.6342  1.4192 -1.2458
  130OSM   H18T14041   5.398   5.327   4.755  1.4079  2.3281  1.1392
  130OSM   H18U14042   5.340   5.491   4.782 -0.9486  0.7652 -2.8222
  130OSM    C1F14043   5.591   5.114   6.325  0.7131 -0.3893 -0.1840
  130OSM     OF14044   5.564   5.040   6.418  0.2765  0.7594 -0.1316
  130OSM    C2F14045   5.690   5.082   6.220  0.6241 -0.4583  0.1680
  130OSM    H2F14046   5.779   5.035   6.267  1.0719  1.1107  0.9587
  130OSM    H2G14047   5.722   5.177   6.172 -1.4139  0.5353  0.6713
  130OSM    C3F14048   5.625   4.978   6.119 -0.4855 -0.2481 -0.1019
  130OSM    H3F14049   5.522   5.003   6.087 -1.3241 -1.2192  1.6718
  130OSM    H3G14050   5.611   4.881   6.172 -2.3438  1.0588  1.9272
  130OSM    C4F14051   5.704   4.937   6.002 -0.3757 -0.6416  0.2958
  130OSM    H4F14052   5.812   4.955   6.017 -0.4684 -0.1699  0.4029
  130OSM    H4G14053   5.671   4.994   5.912  2.0508  1.3464  0.5455
  130OSM    C5F14054   5.693   4.786   5.970  0.0098 -0.1547  0.1836
  130OSM    H5F14055   5.585   4.758   5.966 -1.2228  3.9870 -0.5426
  130OSM    H5G14056   5.755   4.729   6.042 -1.0943 -1.2219  0.3289
  130OSM    C6F14057   5.745   4.761   5.821 -1.7748 -0.0785  0.3597
  130OSM    H6F14058   5.769   4.653   5.808  0.9867  0.1136  2.8336
  130OSM    H6G14059   5.843   4.812   5.823 -0.5727 -2.2648  0.2714
  130OSM    C7F14060   5.646   4.802   5.711 -0.8249 -0.6649  0.7976
  130OSM    H7F14061   5.613   4.903   5.743 -1.2995 -0.3300 -0.6781
  130OSM    H7G14062   5.550   4.745   5.715 -0.8311 -0.7568 -0.3567
  130OSM    C8F14063   5.721   4.790   5.578 -0.2510 -0.3676  0.0137
  130OSM    H8F14064   5.749   4.683   5.572 -1.0581 -0.5220 -1.3302
  130OSM    H8G14065   5.811   4.854   5.587 -0.0564 -0.3808 -1.6434
  130OSM    C9F14066   5.639   4.828   5.454 -0.4443  0.4451 -0.3562
  130OSM    H9F14067   5.548   4.771   5.431  0.3646 -0.8902 -0.3750
  130OSM   C10F14068   5.680   4.906   5.359 -0.2494 -0.4628  1.0464
  130OSM   H10F14069   5.617   4.932   5.272 -0.2423 -1.2031  0.8135
  130OSM   C11F14070   5.804   4.992   5.344 -0.3559 -0.2235  0.4964
  130OSM   H11F14071   5.813   5.040   5.444 -1.2907 -0.0786  0.5181
  130OSM   H11G14072   5.798   5.067   5.262 -0.1021 -2.1715 -1.3888
  130OSM   C12F14073   5.915   4.890   5.320  0.1173 -0.0716 -0.2704
  130OSM   H12F14074   5.902   4.822   5.233  0.7586  1.8470 -1.9425
  130OSM   H12G14075   5.924   4.816   5.403  1.8962 -0.6832 -0.9606
  130OSM   C13F14076   6.050   4.959   5.309  0.1728  0.3180 -0.3652
  130OSM   H13F14077   6.060   5.028   5.395  2.6881  1.2701 -1.3219
  130OSM   H13G14078   6.056   5.016   5.214  0.9611  0.3348 -0.3131
  130OSM   C14F14079   6.173   4.859   5.295  0.0890 -0.3771  0.2505
  130OSM   H14F14080   6.147   4.783   5.218 -0.8398 -1.1433  1.3007
  130OSM   H14G14081   6.184   4.811   5.394  0.2464  0.4132  0.6272
  130OSM   C15F14082   6.303   4.932   5.236 -0.0343 -0.2852  0.3170
  130OSM   H15F14083   6.356   5.002   5.304 -0.7687  0.6232 -0.0029
  130OSM   H15G14084   6.262   4.994   5.152 -0.4420  0.3267  0.9554
  130OSM   C16F14085   6.405   4.838   5.174  0.0565  0.9117  0.1664
  130OSM   H16F14086   6.433   4.880   5.075 -2.7102 -0.4843 -1.3010
  130OSM   H16G14087   6.363   4.742   5.137  1.2399  0.5822 -0.3700
  130OSM   C17F14088   6.532   4.817   5.257  0.2237 -0.9224  0.4634
  130OSM   H17F14089   6.512   4.737   5.330  0.5411  0.3501  1.9967
  130OSM   H17G14090   6.556   4.912   5.311 -0.5693  0.9082 -2.1842
  130OSM   C18F14091   6.657   4.786   5.176 -0.9720  0.7018  0.5702
  130OSM   H18F14092   6.745   4.749   5.233  1.3619  0.5589 -2.8311
  130OSM   H18G14093   6.700   4.873   5.121 -0.0236 -0.3256 -0.3556
  130OSM   H18H14094   6.634   4.708   5.101  2.5919  2.1347 -2.3210
  131OSM      N14095   5.857   1.718   6.974 -0.0502  0.6122 -0.4231
  131OSM    C1514096   5.979   1.779   7.034  0.3485 -0.2008 -0.7371
  131OSM   H15A14097   5.987   1.759   7.140  1.7172  1.1736 -0.5447
  131OSM   H15B14098   5.981   1.886   7.026 -0.3916 -0.1476 -0.2467
  131OSM   H15C14099   6.069   1.736   6.993 -0.3141 -2.0358 -0.3556
  131OSM    C1414100   5.852   1.569   7.015  0.3673 -0.5221 -0.0601
  131OSM   H14A14101   5.953   1.533   7.027  0.6995  0.3268 -0.3095
  131OSM   H14B14102   5.799   1.510   6.942 -0.7078 -0.9051  0.9887
  131OSM   H14C14103   5.805   1.560   7.113  2.5583 -1.7442  0.9653
  131OSM    C1314104   5.720   1.786   7.007  0.4650  0.4362  0.1487
  131OSM   H13A14105   5.635   1.745   6.954 -1.4760  0.6800  2.8720
  131OSM   H13B14106   5.723   1.893   6.987 -0.9454  0.6894  1.1104
  131OSM   H13C14107   5.707   1.783   7.114  1.1224 -2.9573  0.2369
  131OSM    C1214108   5.880   1.705   6.822  0.0034  0.7160  0.3040
  131OSM   H12A14109   5.964   1.646   6.790 -0.1276  0.7019 -0.0231
  131OSM   H12B14110   5.912   1.798   6.776  0.3700 -0.1397 -1.2501
  131OSM    C1114111   5.757   1.664   6.739  0.6361  0.6962  0.1057
  131OSM   H11A14112   5.776   1.678   6.631  0.0756 -0.8676 -0.2177
  131OSM   H11B14113   5.672   1.736   6.748  1.9954  2.2012  1.9912
  131OSM      P14114   5.781   1.406   6.706 -0.1940 -0.0128  0.3655
  131OSM    O1314115   5.927   1.414   6.725 -0.1240  0.1345 -0.5805
  131OSM    O1414116   5.716   1.284   6.759 -0.3921  0.7208  0.0565
  131OSM    O1114117   5.765   1.426   6.552  0.8905 -0.4112 -0.1554
  131OSM    O1214118   5.712   1.534   6.768  0.8079  0.6978 -0.4193
  131OSM    C1S14119   5.676   1.321   6.497 -0.6279 -0.4720  0.1152
  131OSM    H1S14120   5.571   1.326   6.535 -1.2436 -0.4775 -1.4846
  131OSM    H1T14121   5.718   1.220   6.516  2.3835  0.3897 -1.3573
  131OSM     NF14122   5.555   1.257   6.286 -0.0274  0.3569 -0.4873
  131OSM    HNF14123   5.564   1.179   6.225 -4.3031  0.3473 -1.4241
  131OSM    C2S14124   5.670   1.330   6.340 -0.2258 -0.9629 -0.2614
  131OSM    H2S14125   5.650   1.437   6.316 -3.0991 -1.3740 -0.1334
  131OSM    C3S14126   5.805   1.299   6.275 -0.6501  0.2864  0.1068
  131OSM    H3S14127   5.820   1.189   6.276 -1.1268  0.1866 -1.7405
  131OSM     O314128   5.922   1.353   6.335 -0.1242 -0.3255  0.0304
  131OSM    HO314129   5.891   1.381   6.421 -1.5495 -1.7647  0.0435
  131OSM    C4S14130   5.814   1.323   6.121 -0.8749 -0.6182  0.1862
  131OSM    H4S14131   5.820   1.228   6.066  1.9085 -0.8016  0.6521
  131OSM    C5S14132   5.845   1.439   6.056 -0.5237 -0.5220  0.0650
  131OSM    H5S14133   5.882   1.523   6.116  2.1334 -2.9666  2.0985
  131OSM    C6S14134   5.863   1.450   5.910 -0.3140  0.4674 -0.5692
  131OSM    H6S14135   5.887   1.558   5.894  2.0073  0.3160  1.3121
  131OSM    H6T14136   5.772   1.427   5.850 -0.6317  0.7942 -0.2198
  131OSM    C7S14137   5.978   1.378   5.843  0.0022  0.1560  0.3872
  131OSM    H7S14138   5.971   1.267   5.845  0.8356  0.0637 -0.6856
  131OSM    H7T14139   6.065   1.402   5.908  0.9696 -1.0609 -0.4065
  131OSM    C8S14140   6.000   1.412   5.695  0.3397  0.2104 -0.4994
  131OSM    H8S14141   5.908   1.379   5.641 -0.0409 -2.2957  1.5076
  131OSM    H8T14142   6.094   1.366   5.660  1.8171  2.4806  0.2569
  131OSM    C9S14143   6.031   1.561   5.664  0.0280  0.6625  0.0083
  131OSM    H9S14144   6.097   1.595   5.747 -1.1048  1.1756  0.7265
  131OSM    H9T14145   5.941   1.624   5.681 -0.1035  0.0265  2.0221
  131OSM   C10S14146   6.093   1.576   5.524  0.6718 -0.4718  0.1361
  131OSM   H10S14147   6.194   1.533   5.541 -0.2100 -1.3087  4.2833
  131OSM   H10T14148   6.101   1.684   5.498 -0.6196 -1.0333 -2.9777
  131OSM   C11S14149   6.007   1.522   5.410 -0.4105 -0.0755 -0.7867
  131OSM   H11S14150   5.909   1.572   5.421  0.9442  2.1689  2.9549
  131OSM   H11T14151   5.999   1.411   5.421 -0.2168 -0.0320 -0.1269
  131OSM   C12S14152   6.050   1.539   5.265 -0.3179 -0.2805  0.2701
  131OSM   H12S14153   6.112   1.451   5.239 -2.3040 -1.9818  0.9973
  131OSM   H12T14154   6.098   1.633   5.232 -1.2769  0.0193 -0.2959
  131OSM   C13S14155   5.920   1.512   5.189 -0.3817  0.1986  0.5341
  131OSM   H13S14156   5.853   1.600   5.178  2.3652  2.3110 -0.4745
  131OSM   H13T14157   5.869   1.425   5.235 -0.3181  0.8054  1.7881
  131OSM   C14S14158   5.959   1.462   5.040 -0.0351 -0.3127 -0.2843
  131OSM   H14S14159   5.998   1.360   5.059 -1.5987 -0.5325  2.1582
  131OSM   H14T14160   6.032   1.533   4.996 -1.3200  1.2293 -0.0593
  131OSM   C15S14161   5.842   1.461   4.945  0.3197 -0.4974 -0.2482
  131OSM   H15S14162   5.779   1.372   4.961  0.8066 -1.0821 -1.4200
  131OSM   H15T14163   5.874   1.458   4.838 -0.5526  1.1948 -0.5933
  131OSM   C16S14164   5.752   1.578   4.942  0.1338  0.2191 -0.6909
  131OSM   H16S14165   5.817   1.666   4.923  2.1099 -0.7544  1.2867
  131OSM   H16T14166   5.702   1.589   5.040 -1.0058 -1.8242 -0.9762
  131OSM   C17S14167   5.642   1.571   4.833  0.5575  0.3313  0.3589
  131OSM   H17S14168   5.597   1.469   4.839  0.1755  0.3816 -1.1713
  131OSM   H17T14169   5.695   1.582   4.736  2.4297 -0.4805  1.2435
  131OSM   C18S14170   5.536   1.674   4.837 -0.7311 -0.1985 -0.1307
  131OSM   H18S14171   5.586   1.771   4.861  1.5579 -0.8050 -2.1282
  131OSM   H18T14172   5.462   1.657   4.918 -1.6337  2.0244 -0.4156
  131OSM   H18U14173   5.487   1.685   4.738 -1.3573  0.6203  0.2499
  131OSM    C1F14174   5.426   1.281   6.322  0.0659 -0.1357  0.7932
  131OSM     OF14175   5.395   1.374   6.388  0.0146  0.4691  0.0899
  131OSM    C2F14176   5.318   1.188   6.293 -1.2928 -0.1260  0.5420
  131OSM    H2F14177   5.267   1.165   6.389 -1.2277  1.4423  0.9792
  131OSM    H2G14178   5.363   1.093   6.258  1.4950  1.5249 -0.6791
  131OSM    C3F14179   5.213   1.243   6.188 -0.9390 -0.4354  0.6441
  131OSM    H3F14180   5.176   1.335   6.238 -0.4820 -0.4752  1.0659
  131OSM    H3G14181   5.131   1.169   6.175 -1.7045  0.1787  1.7991
  131OSM    C4F14182   5.273   1.246   6.046  0.0103  0.3938 -0.4219
  131OSM    H4F14183   5.326   1.151   6.026 -0.2652  0.2870 -0.6454
  131OSM    H4G14184   5.357   1.317   6.058 -0.1357  0.4085  0.6484
  131OSM    C5F14185   5.164   1.283   5.939 -0.3253 -0.4699  0.0780
  131OSM    H5F14186   5.156   1.393   5.957  1.3276 -0.2611 -0.3071
  131OSM    H5G14187   5.071   1.227   5.961 -0.7790  0.7848  1.5436
  131OSM    C6F14188   5.208   1.253   5.796  0.7977  0.4577  0.4660
  131OSM    H6F14189   5.248   1.149   5.800 -0.4522 -0.0199  1.7350
  131OSM    H6G14190   5.291   1.320   5.769  3.5504 -2.3783  1.2483
  131OSM    C7F14191   5.086   1.258   5.700 -0.0288  0.3658  0.9581
  131OSM    H7F14192   5.004   1.322   5.738 -0.6823 -0.0988  0.3445
  131OSM    H7G14193   5.056   1.153   5.679 -0.2735  0.9189 -1.7327
  131OSM    C8F14194   5.117   1.321   5.566  0.2199 -0.7439  0.4992
  131OSM    H8F14195   5.170   1.418   5.578 -1.2722  0.7891 -3.3955
  131OSM    H8G14196   5.023   1.347   5.512 -0.1215 -0.2537  1.3237
  131OSM    C9F14197   5.203   1.227   5.481  0.3300 -0.2287 -0.0608
  131OSM    H9F14198   5.311   1.227   5.502  0.1390 -0.7715  0.9897
  131OSM   C10F14199   5.159   1.150   5.381 -0.8758 -0.2507  0.5535
  131OSM   H10F14200   5.234   1.082   5.339  0.3085  0.5601  1.2801
  131OSM   C11F14201   5.019   1.128   5.334  0.4466 -0.2217  0.1758
  131OSM   H11F14202   4.950   1.188   5.397 -0.3572  1.1209 -1.8621
  131OSM   H11G14203   4.998   1.020   5.347  1.4103 -0.0604  4.0222
  131OSM   C12F14204   4.984   1.171   5.191 -0.7168 -0.0441 -0.3117
  131OSM   H12F14205   5.072   1.145   5.129 -2.1893 -2.0605 -1.6997
  131OSM   H12G14206   4.973   1.281   5.188  0.4736  0.1618  1.6180
  131OSM   C13F14207   4.862   1.097   5.127 -0.6911  0.1776 -0.1940
  131OSM   H13F14208   4.783   1.158   5.175 -0.7739  0.8509 -1.1578
  131OSM   H13G14209   4.854   0.992   5.164 -1.4436  0.2521 -0.1377
  131OSM   C14F14210   4.854   1.102   4.974 -1.1631  0.3164 -0.0726
  131OSM   H14F14211   4.780   1.024   4.946 -0.9352 -0.0249  0.2717
  131OSM   H14G14212   4.948   1.073   4.922 -0.1554  0.0717  1.8069
  131OSM   C15F14213   4.820   1.247   4.925 -0.6768 -0.5491  0.4630
  131OSM   H15F14214   4.895   1.321   4.958 -1.8201  0.3634  1.0990
  131OSM   H15G14215   4.722   1.280   4.965  0.5294  0.6334  2.6028
  131OSM   C16F14216   4.823   1.267   4.770 -0.0457  0.5449  0.3900
  131OSM   H16F14217   4.750   1.203   4.715  0.6779 -1.4779  1.6583
  131OSM   H16G14218   4.924   1.236   4.735 -0.4257 -0.2908 -0.0109
  131OSM   C17F14219   4.784   1.411   4.726 -0.0490 -0.3093 -0.5753
  131OSM   H17F14220   4.846   1.483   4.784  0.5660 -2.9245  2.2652
  131OSM   H17G14221   4.683   1.426   4.768  0.5492  2.4652  0.0582
  131OSM   C18F14222   4.780   1.444   4.579  0.7551 -0.1612  0.1952
  131OSM   H18F14223   4.877   1.438   4.524  1.0454 -2.9759  0.8627
  131OSM   H18G14224   4.748   1.550   4.563 -1.6728 -0.8470  0.1221
  131OSM   H18H14225   4.701   1.387   4.525 -0.3465  0.7651  0.8009
  132OSM      N14226   4.751   2.814   6.782 -0.4966  0.0447  0.3197
  132OSM    C1514227   4.707   2.948   6.825  0.1769  0.3491 -0.4898
  132OSM   H15A14228   4.624   2.991   6.772  0.7715  0.9503 -0.9505
  132OSM   H15B14229   4.784   3.022   6.809  0.1869  0.3381 -0.4933
  132OSM   H15C14230   4.688   2.950   6.932  2.6600 -1.7358  0.1045
  132OSM    C1414231   4.862   2.763   6.863  0.0321  0.0220  0.1318
  132OSM   H14A14232   4.836   2.737   6.965 -1.5387  3.0358  0.6092
  132OSM   H14B14233   4.941   2.835   6.867  0.3193 -0.3340  1.6346
  132OSM   H14C14234   4.886   2.661   6.834  0.7211 -0.3883  2.0073
  132OSM    C1314235   4.634   2.715   6.813  0.2240  0.4438  0.4995
  132OSM   H13A14236   4.634   2.629   6.748 -2.3776  1.3406 -0.8443
  132OSM   H13B14237   4.537   2.763   6.803 -0.3227 -0.7667 -0.2815
  132OSM   H13C14238   4.633   2.685   6.916 -1.1361 -0.1986  0.3276
  132OSM    C1214239   4.794   2.811   6.631  0.4202  0.1753 -0.0676
  132OSM   H12A14240   4.718   2.867   6.580 -0.4735  2.7619  3.6581
  132OSM   H12B14241   4.791   2.705   6.612 -1.3471  0.1545  0.1593
  132OSM    C1114242   4.929   2.853   6.577  0.0854  0.4631 -0.3186
  132OSM   H11A14243   4.936   2.842   6.467  0.2977 -0.2308 -0.2335
  132OSM   H11B14244   5.007   2.800   6.634 -1.3368 -0.0166  1.2582
  132OSM      P14245   5.053   3.060   6.678 -0.5240 -0.2281 -0.0959
  132OSM    O1314246   5.027   3.203   6.716 -0.2774  0.0932 -0.0348
  132OSM    O1414247   5.080   2.977   6.792  0.4108 -0.3369 -0.2558
  132OSM    O1114248   5.181   3.057   6.576 -0.6990 -0.2757 -0.0803
  132OSM    O1214249   4.932   2.992   6.600 -0.0462 -0.3437  0.2931
  132OSM    C1S14250   5.183   3.100   6.438 -0.2565 -0.4293  0.4799
  132OSM    H1S14251   5.199   3.209   6.428 -0.2495 -0.4361  0.4148
  132OSM    H1T14252   5.085   3.080   6.390 -0.5252  0.4163  0.6701
  132OSM     NF14253   5.322   3.089   6.227  0.1501  0.0582 -0.1787
  132OSM    HNF14254   5.272   3.033   6.162 -0.8835  0.7913 -0.0474
  132OSM    C2S14255   5.309   3.041   6.361  0.1120 -0.5951  0.3524
  132OSM    H2S14256   5.398   3.081   6.415  1.1281 -1.4344 -0.6438
  132OSM    C3S14257   5.309   2.888   6.366  0.2631  0.0755  0.0157
  132OSM    H3S14258   5.216   2.850   6.320  1.0014 -0.1836 -1.2994
  132OSM     O314259   5.316   2.840   6.501  0.0862 -0.2976 -0.1422
  132OSM    HO314260   5.276   2.914   6.547 -1.0705 -0.6351 -0.5852
  132OSM    C4S14261   5.428   2.842   6.287  0.3643  0.5304 -0.0243
  132OSM    H4S14262   5.520   2.844   6.347  1.1235  1.3102 -1.1889
  132OSM    C5S14263   5.423   2.773   6.169  0.4339 -0.0146  0.1557
  132OSM    H5S14264   5.326   2.759   6.119  1.3974 -1.7295 -1.3345
  132OSM    C6S14265   5.534   2.704   6.106 -0.4979 -0.3199  0.5241
  132OSM    H6S14266   5.556   2.611   6.162  1.8827 -1.2213 -1.6915
  132OSM    H6T14267   5.621   2.773   6.118 -0.1378 -0.0221 -2.7868
  132OSM    C7S14268   5.509   2.681   5.950  0.4696  0.3077  0.7967
  132OSM    H7S14269   5.427   2.616   5.913  1.1277  0.0109 -0.1563
  132OSM    H7T14270   5.595   2.631   5.901 -1.3910 -1.7174 -0.6076
  132OSM    C8S14271   5.510   2.822   5.884 -0.1273  1.0682 -0.5609
  132OSM    H8S14272   5.605   2.869   5.915  0.2250 -0.2946  0.5126
  132OSM    H8T14273   5.426   2.889   5.913 -1.7338 -0.2945 -1.8089
  132OSM    C9S14274   5.493   2.817   5.732  0.5371 -0.1793  0.0720
  132OSM    H9S14275   5.398   2.766   5.706  0.6957  0.1868 -1.2734
  132OSM    H9T14276   5.584   2.765   5.695  2.0572  1.0897  1.8253
  132OSM   C10S14277   5.488   2.953   5.666 -0.5184  1.1909  0.0073
  132OSM   H10S14278   5.568   3.027   5.686  0.7438 -0.0710 -0.1922
  132OSM   H10T14279   5.391   2.997   5.696 -1.9829 -2.6746  1.5621
  132OSM   C11S14280   5.479   2.937   5.507 -0.3788 -0.1622 -0.5025
  132OSM   H11S14281   5.409   2.858   5.473  0.7684 -1.1505 -0.6142
  132OSM   H11T14282   5.578   2.897   5.474 -1.4886 -2.8065 -0.8062
  132OSM   C12S14283   5.448   3.069   5.449  0.0637  0.8151 -0.7491
  132OSM   H12S14284   5.509   3.151   5.494 -0.5222  0.6763  0.3444
  132OSM   H12T14285   5.343   3.094   5.474 -0.1478 -0.1759 -0.6078
  132OSM   C13S14286   5.462   3.063   5.299  0.2396 -0.0173 -0.5535
  132OSM   H13S14287   5.402   2.977   5.263 -0.4016  0.4786 -0.6996
  132OSM   H13T14288   5.565   3.030   5.273 -0.1055 -1.1488 -0.5006
  132OSM   C14S14289   5.405   3.187   5.225  0.5154 -0.5129 -0.5240
  132OSM   H14S14290   5.448   3.277   5.273  0.4807 -0.5353 -0.4506
  132OSM   H14T14291   5.294   3.180   5.235  0.5169 -2.6078 -1.3031
  132OSM   C15S14292   5.439   3.174   5.080 -0.0303 -0.0267  0.6931
  132OSM   H15S14293   5.398   3.076   5.046  3.0247 -0.5528 -1.9762
  132OSM   H15T14294   5.547   3.162   5.059 -0.8457 -3.2321 -2.7557
  132OSM   C16S14295   5.384   3.285   4.986 -0.8646 -0.8377  0.1976
  132OSM   H16S14296   5.410   3.373   5.049 -0.9119 -0.9146  0.3243
  132OSM   H16T14297   5.273   3.282   4.984 -0.8350 -3.0077 -0.2014
  132OSM   C17S14298   5.469   3.289   4.851  0.4706  0.3218  0.0462
  132OSM   H17S14299   5.577   3.311   4.869  0.0413  2.0762  0.6861
  132OSM   H17T14300   5.432   3.374   4.790  2.8458  0.5132 -1.2595
  132OSM   C18S14301   5.432   3.163   4.764 -0.0247 -0.9586  0.7158
  132OSM   H18S14302   5.456   3.199   4.662 -0.2472  0.2562  1.0736
  132OSM   H18T14303   5.328   3.124   4.773  0.1934 -1.7489 -0.0556
  132OSM   H18U14304   5.490   3.070   4.780 -0.6429 -1.4045  0.4064
  132OSM    C1F14305   5.395   3.193   6.192  0.8612 -0.0804 -0.8245
  132OSM     OF14306   5.398   3.292   6.265  0.3998 -0.8719  0.3256
  132OSM    C2F14307   5.460   3.192   6.062 -0.6316  0.9725  0.1206
  132OSM    H2F14308   5.386   3.240   5.994 -1.3634  1.3536  1.1533
  132OSM    H2G14309   5.452   3.085   6.035  0.7552  0.3120  2.1383
  132OSM    C3F14310   5.600   3.249   6.060 -0.2606  0.1676 -0.3951
  132OSM    H3F14311   5.663   3.216   6.145 -2.5636  0.1728  1.4127
  132OSM    H3G14312   5.602   3.359   6.072 -0.8365  0.0492  1.0203
  132OSM    C4F14313   5.671   3.213   5.934  0.3038  0.5845  0.2729
  132OSM    H4F14314   5.611   3.212   5.841  0.5962  3.8069 -0.0508
  132OSM    H4G14315   5.713   3.110   5.939 -2.6441 -0.7557 -0.4759
  132OSM    C5F14316   5.771   3.319   5.902  0.0293  0.0458  0.4251
  132OSM    H5F14317   5.829   3.342   5.994 -0.9731  2.5627  0.4978
  132OSM    H5G14318   5.718   3.415   5.883  1.7016  0.8310 -0.4758
  132OSM    C6F14319   5.879   3.288   5.793  0.5014 -0.2105  1.0874
  132OSM    H6F14320   5.935   3.196   5.817  2.9543  0.6529 -0.8115
  132OSM    H6G14321   5.957   3.367   5.803  0.8421 -0.2583 -0.8055
  132OSM    C7F14322   5.828   3.281   5.646  0.1396 -0.1376  0.1922
  132OSM    H7F14323   5.768   3.187   5.643  0.1841 -0.1590 -1.9109
  132OSM    H7G14324   5.903   3.261   5.566 -0.5537  0.6985 -0.7069
  132OSM    C8F14325   5.748   3.409   5.607 -0.4202  0.6468  0.1016
  132OSM    H8F14326   5.816   3.496   5.606 -0.5468  0.8726  2.6756
  132OSM    H8G14327   5.674   3.427   5.688  1.0401 -0.2474  1.7018
  132OSM    C9F14328   5.678   3.391   5.470 -0.5599 -0.5264 -0.8871
  132OSM    H9F14329   5.569   3.379   5.466 -0.5163 -2.2410  1.4599
  132OSM   C10F14330   5.723   3.402   5.342 -0.2551 -0.4024 -0.5527
  132OSM   H10F14331   5.653   3.393   5.258 -1.2902 -2.2880  0.4519
  132OSM   C11F14332   5.867   3.433   5.305  0.3097 -0.6831  0.5187
  132OSM   H11F14333   5.929   3.342   5.305  3.6011  1.1527 -4.3101
  132OSM   H11G14334   5.907   3.504   5.381  0.5568  0.0143 -0.2371
  132OSM   C12F14335   5.888   3.503   5.173 -0.5883  0.2774 -0.5905
  132OSM   H12F14336   5.850   3.436   5.092  5.2211 -1.4593 -2.4338
  132OSM   H12G14337   5.995   3.524   5.150 -0.7504  0.5320 -1.1473
  132OSM   C13F14338   5.823   3.646   5.166 -0.0866 -0.0568  0.5068
  132OSM   H13F14339   5.874   3.716   5.235 -1.1392  1.9019 -0.6279
  132OSM   H13G14340   5.718   3.638   5.201 -0.6109 -0.1136 -1.0096
  132OSM   C14F14341   5.848   3.712   5.028  0.0928  0.3215  0.3898
  132OSM   H14F14342   5.762   3.669   4.972 -0.9414 -0.2515  2.2885
  132OSM   H14G14343   5.942   3.672   4.985  0.5769 -0.5773  2.1881
  132OSM   C15F14344   5.848   3.866   5.022 -0.1843 -0.4404  0.0140
  132OSM   H15F14345   5.944   3.905   5.060 -0.9357  0.6195  0.9020
  132OSM   H15G14346   5.764   3.907   5.083  0.7966  0.9492  0.4837
  132OSM   C16F14347   5.837   3.910   4.871  0.3826  0.1047 -0.3033
  132OSM   H16F14348   5.734   3.901   4.830  0.4548  2.1103 -1.0036
  132OSM   H16G14349   5.900   3.840   4.812  0.5401 -0.3270  0.3537
  132OSM   C17F14350   5.899   4.051   4.851 -0.1213  0.5065 -0.2819
  132OSM   H17F14351   5.883   4.079   4.745 -2.6567  0.0242 -0.0846
  132OSM   H17G14352   6.004   4.048   4.887 -0.6797 -0.5135  1.3726
  132OSM   C18F14353   5.816   4.160   4.927 -0.1871  0.7539 -0.6545
  132OSM   H18F14354   5.840   4.155   5.035  0.0949 -4.5427 -0.7242
  132OSM   H18G14355   5.706   4.152   4.915 -0.3221  0.0877  0.7999
  132OSM   H18H14356   5.847   4.259   4.886 -1.6743  1.0621 -1.1116
  133OSM      N14357   4.200   3.906   6.857  0.5972 -0.4561  0.3633
  133OSM    C1514358   4.118   3.919   6.977  0.3716  0.3688  0.5077
  133OSM   H15A14359   4.043   3.994   6.958  0.4384  0.3425  0.1221
  133OSM   H15B14360   4.176   3.956   7.060  2.5364 -1.6940  0.0411
  133OSM   H15C14361   4.073   3.827   7.010 -4.1776  2.4123  0.6852
  133OSM    C1414362   4.118   3.888   6.734 -0.0075  0.4228 -0.7394
  133OSM   H14A14363   4.185   3.881   6.650  0.7259 -1.0834 -0.0749
  133OSM   H14B14364   4.043   3.965   6.726  1.2549  1.8649  0.4943
  133OSM   H14C14365   4.055   3.801   6.745  0.8467 -0.1190  0.0694
  133OSM    C1314366   4.277   4.028   6.840 -0.0026  1.1334 -0.3350
  133OSM   H13A14367   4.342   4.015   6.754 -0.9969 -0.6083 -0.8787
  133OSM   H13B14368   4.347   4.032   6.922  0.4092  0.9859 -0.6747
  133OSM   H13C14369   4.223   4.120   6.825  0.4126  1.1363 -1.9983
  133OSM    C1214370   4.300   3.791   6.868 -0.0164  0.2464  0.1848
  133OSM   H12A14371   4.248   3.709   6.915  0.1094 -0.0568 -0.2017
  133OSM   H12B14372   4.376   3.810   6.942  1.5633 -2.0963 -0.7220
  133OSM    C1114373   4.372   3.746   6.737 -0.3574  0.4323 -0.0295
  133OSM   H11A14374   4.300   3.694   6.671  0.9116 -0.3491 -0.8510
  133OSM   H11B14375   4.441   3.671   6.782  1.3510  0.4965 -2.3731
  133OSM      P14376   4.576   3.822   6.598  0.3379  0.4920  0.1005
  133OSM    O1314377   4.680   3.821   6.704 -0.3677  0.1882  0.1244
  133OSM    O1414378   4.565   3.690   6.531  0.7079 -0.3655 -0.4368
  133OSM    O1114379   4.593   3.945   6.505 -0.0292  0.7534  0.5810
  133OSM    O1214380   4.437   3.851   6.675 -0.8505  0.8095 -0.1309
  133OSM    C1S14381   4.525   4.068   6.508  0.3612 -0.0573 -0.5377
  133OSM    H1S14382   4.571   4.128   6.590  2.1474 -1.9055 -0.1071
  133OSM    H1T14383   4.414   4.062   6.515  0.1241  3.2273  0.4767
  133OSM     NF14384   4.499   4.294   6.410  0.4427 -0.1464  0.1343
  133OSM    HNF14385   4.410   4.328   6.381 -0.5741 -1.1811  1.8661
  133OSM    C2S14386   4.544   4.156   6.383  0.4578 -0.1527 -0.3708
  133OSM    H2S14387   4.652   4.159   6.355  0.1611 -0.7960 -1.6696
  133OSM    C3S14388   4.486   4.091   6.254 -0.1142  0.0080  0.3103
  133OSM    H3S14389   4.379   4.063   6.265  0.2296 -1.5818 -0.0574
  133OSM     O314390   4.546   3.964   6.232 -0.3413 -0.6609 -0.0178
  133OSM    HO314391   4.594   3.961   6.315  2.4829 -1.5408 -1.5601
  133OSM    C4S14392   4.504   4.166   6.123  0.4121 -0.3138 -0.7341
  133OSM    H4S14393   4.611   4.159   6.100  0.8419  2.5697 -0.0683
  133OSM    C5S14394   4.412   4.236   6.051 -0.5775  0.6888 -0.0791
  133OSM    H5S14395   4.311   4.249   6.093 -1.9704 -0.4961 -2.7943
  133OSM    C6S14396   4.445   4.302   5.923  0.2349  0.2732 -0.9632
  133OSM    H6S14397   4.424   4.410   5.939  0.6704  0.1603  0.4175
  133OSM    H6T14398   4.368   4.271   5.848 -1.1450 -1.8306  1.1907
  133OSM    C7S14399   4.577   4.276   5.858  0.4890  0.4028  0.4703
  133OSM    H7S14400   4.594   4.168   5.842 -0.8623 -0.4751  3.9872
  133OSM    H7T14401   4.652   4.306   5.934  0.5005 -1.5917  1.3073
  133OSM    C8S14402   4.605   4.360   5.733 -0.0992  0.4324 -0.0211
  133OSM    H8S14403   4.716   4.359   5.720  0.1105 -0.7727  1.5251
  133OSM    H8T14404   4.578   4.466   5.750  1.2062  0.8355 -0.3138
  133OSM    C9S14405   4.532   4.318   5.602 -0.3175 -0.4695  0.2691
  133OSM    H9S14406   4.425   4.325   5.633 -0.3910  0.5837 -0.1794
  133OSM    H9T14407   4.561   4.213   5.577  0.5905  0.2263 -1.8008
  133OSM   C10S14408   4.576   4.409   5.482  0.3022 -0.3197  0.2163
  133OSM   H10S14409   4.683   4.402   5.455  0.5173  0.5368  0.7996
  133OSM   H10T14410   4.557   4.515   5.512  1.0859 -1.0421  3.6547
  133OSM   C11S14411   4.482   4.380   5.363  0.1468  0.1452  0.1927
  133OSM   H11S14412   4.380   4.387   5.406  0.5952  1.2284  1.1299
  133OSM   H11T14413   4.495   4.275   5.329 -1.2336  0.6211 -1.9906
  133OSM   C12S14414   4.490   4.470   5.240  0.1361  0.4383 -0.5095
  133OSM   H12S14415   4.544   4.562   5.273  1.0621 -0.5552  0.8355
  133OSM   H12T14416   4.385   4.484   5.206  0.3104  1.7458 -0.5666
  133OSM   C13S14417   4.565   4.417   5.121  0.1447  0.2048 -0.7187
  133OSM   H13S14418   4.518   4.320   5.093  0.0544  0.2653 -0.7749
  133OSM   H13T14419   4.668   4.398   5.158 -0.7994  1.0329  2.6925
  133OSM   C14S14420   4.573   4.513   5.003 -0.5404 -0.2344  0.0419
  133OSM   H14S14421   4.648   4.474   4.932  0.5144 -1.1212  1.5960
  133OSM   H14T14422   4.603   4.611   5.046 -0.8311 -0.5092  0.9058
  133OSM   C15S14423   4.441   4.527   4.918 -0.5420 -0.1476 -1.0967
  133OSM   H15S14424   4.455   4.609   4.845 -1.8356  0.5926 -0.5592
  133OSM   H15T14425   4.365   4.557   4.993 -0.0618 -0.7352 -0.3578
  133OSM   C16S14426   4.405   4.407   4.835 -0.4459  0.2354 -0.2885
  133OSM   H16S14427   4.330   4.429   4.756  1.0533  0.3477 -1.7590
  133OSM   H16T14428   4.358   4.337   4.907  0.1307  1.4077  1.2826
  133OSM   C17S14429   4.523   4.336   4.762 -0.1498 -0.1479 -0.7947
  133OSM   H17S14430   4.588   4.286   4.837 -0.1896  3.1388  1.6349
  133OSM   H17T14431   4.578   4.416   4.709 -0.4523  1.7785  1.5961
  133OSM   C18S14432   4.479   4.239   4.653  0.0907 -0.4173 -0.8704
  133OSM   H18S14433   4.562   4.203   4.589 -0.4987  1.3128 -2.6984
  133OSM   H18T14434   4.416   4.301   4.585 -1.8304  0.0104  1.1697
  133OSM   H18U14435   4.415   4.158   4.693 -0.0593 -0.3214 -0.9176
  133OSM    C1F14436   4.564   4.370   6.502  0.1921 -0.2470 -0.1989
  133OSM     OF14437   4.676   4.347   6.541 -0.3496 -0.0543 -0.8359
  133OSM    C2F14438   4.498   4.495   6.547  0.9063  0.4731 -0.2748
  133OSM    H2F14439   4.524   4.516   6.653 -0.2979  0.3215  0.0548
  133OSM    H2G14440   4.388   4.487   6.532  1.0516 -1.0634 -0.7022
  133OSM    C3F14441   4.543   4.620   6.477 -0.1169  0.3514 -0.1550
  133OSM    H3F14442   4.654   4.622   6.464 -0.1338  0.8250 -0.2594
  133OSM    H3G14443   4.503   4.703   6.539 -3.1524 -0.4177 -0.9450
  133OSM    C4F14444   4.479   4.641   6.347 -0.0444 -0.4783  0.2649
  133OSM    H4F14445   4.368   4.640   6.352 -0.0280 -1.0539  0.6866
  133OSM    H4G14446   4.515   4.567   6.273  0.1295  1.0983 -1.2768
  133OSM    C5F14447   4.507   4.786   6.292  0.1563  0.3602  0.1815
  133OSM    H5F14448   4.615   4.791   6.266 -0.0222 -1.3258 -1.0812
  133OSM    H5G14449   4.476   4.862   6.367 -0.0838  0.8342 -0.3916
  133OSM    C6F14450   4.406   4.830   6.181 -0.5101  0.3879  0.0318
  133OSM    H6F14451   4.401   4.940   6.167 -2.0603  0.3609  0.1661
  133OSM    H6G14452   4.301   4.806   6.210 -0.9573  1.3305 -0.7386
  133OSM    C7F14453   4.442   4.755   6.049  0.0697  0.2920 -0.7471
  133OSM    H7F14454   4.449   4.648   6.076 -1.4417  0.2235 -0.5084
  133OSM    H7G14455   4.545   4.790   6.030  0.0103  0.7845 -0.2159
  133OSM    C8F14456   4.341   4.786   5.925 -0.4450  0.4621 -0.1043
  133OSM    H8F14457   4.394   4.873   5.879 -0.1948  0.1768 -0.3601
  133OSM    H8G14458   4.241   4.817   5.962 -0.2013  0.3132  0.6999
  133OSM    C9F14459   4.316   4.676   5.827 -0.0284 -0.5529  0.3996
  133OSM    H9F14460   4.340   4.575   5.862 -0.1726 -0.8173 -0.2458
  133OSM   C10F14461   4.288   4.685   5.689 -0.3557  0.4777 -0.4131
  133OSM   H10F14462   4.270   4.591   5.635  1.2213 -1.8930  2.8279
  133OSM   C11F14463   4.265   4.806   5.610 -0.3325 -0.4633 -0.1836
  133OSM   H11F14464   4.256   4.894   5.677  2.1192 -0.7820  0.6688
  133OSM   H11G14465   4.164   4.802   5.565 -1.3866  3.4147  1.4026
  133OSM   C12F14466   4.380   4.850   5.516  0.2602  0.4202 -0.5221
  133OSM   H12F14467   4.473   4.796   5.542 -1.3849 -1.3589  2.2354
  133OSM   H12G14468   4.391   4.960   5.529  0.2278  0.5891 -1.7877
  133OSM   C13F14469   4.341   4.830   5.367 -0.1931 -0.3611  0.0598
  133OSM   H13F14470   4.240   4.870   5.348  0.1799 -0.1758 -1.7462
  133OSM   H13G14471   4.332   4.720   5.352  0.0431 -0.1405 -1.9733
  133OSM   C14F14472   4.425   4.898   5.264 -0.1337 -0.0427 -0.2582
  133OSM   H14F14473   4.533   4.874   5.271 -0.2354 -0.8334 -1.2159
  133OSM   H14G14474   4.400   5.006   5.274 -1.4179 -0.3543  0.0901
  133OSM   C15F14475   4.390   4.839   5.118 -0.1746  0.3483 -0.6761
  133OSM   H15F14476   4.406   4.729   5.123  1.9143  0.5973 -0.6027
  133OSM   H15G14477   4.475   4.869   5.053  0.5377 -1.2443 -0.5210
  133OSM   C16F14478   4.256   4.872   5.065 -0.3359 -0.2263 -0.4547
  133OSM   H16F14479   4.199   4.953   5.116 -1.8283 -2.2196  1.2537
  133OSM   H16G14480   4.192   4.781   5.073 -0.3532 -0.2284 -0.6105
  133OSM   C17F14481   4.265   4.897   4.918  1.0395 -0.0717  1.4587
  133OSM   H17F14482   4.322   4.813   4.872 -1.8135 -1.3558 -0.0482
  133OSM   H17G14483   4.310   4.997   4.899 -0.0582  0.0846 -0.6458
  133OSM   C18F14484   4.115   4.904   4.867  0.0231 -0.5382 -0.1155
  133OSM   H18F14485   4.057   4.980   4.923  1.9270  1.4321 -0.6625
  133OSM   H18G14486   4.062   4.808   4.879 -2.4293  0.6595 -0.7083
  133OSM   H18H14487   4.125   4.930   4.759 -1.4723 -2.9136 -0.8874
  134OSM      N14488   2.837   1.629   7.080  0.8884  0.8307  0.9529
  134OSM    C1514489   2.796   1.553   7.200 -0.1659 -0.2930  0.3733
  134OSM   H15A14490   2.692   1.557   7.229 -0.5341 -1.6030 -0.6124
  134OSM   H15B14491   2.851   1.600   7.280  0.2902  0.0488 -0.1310
  134OSM   H15C14492   2.831   1.451   7.193  0.8948  0.1247 -0.7890
  134OSM    C1414493   2.793   1.769   7.118  0.4800 -0.1525 -0.0538
  134OSM   H14A14494   2.810   1.838   7.037 -1.5108 -2.4388 -2.6085
  134OSM   H14B14495   2.843   1.798   7.209 -0.3872  0.3523  0.2676
  134OSM   H14C14496   2.686   1.769   7.130  0.6051 -2.4050  1.5345
  134OSM    C1314497   2.984   1.619   7.062  0.4651  0.2952  0.2950
  134OSM   H13A14498   3.032   1.636   7.157 -0.3693  1.1678  0.5761
  134OSM   H13B14499   3.030   1.682   6.987  1.1141 -1.1535 -0.5529
  134OSM   H13C14500   3.007   1.517   7.037  2.0525  0.1058  2.3125
  134OSM    C1214501   2.751   1.579   6.964  0.1143 -0.4094  0.2980
  134OSM   H12A14502   2.654   1.625   6.972  0.3989  0.0372  1.3914
  134OSM   H12B14503   2.744   1.472   6.979 -0.9146 -0.4177 -0.1477
  134OSM    C1114504   2.807   1.605   6.818  1.0348  0.4512 -0.6022
  134OSM   H11A14505   2.750   1.551   6.740  0.3596  0.9955 -0.4925
  134OSM   H11B14506   2.904   1.551   6.820 -0.2239 -1.9491  1.5325
  134OSM      P14507   2.701   1.837   6.783 -0.1876 -0.3165  0.3669
  134OSM    O1314508   2.588   1.797   6.879 -0.7769 -0.5568 -0.1321
  134OSM    O1414509   2.754   1.975   6.783  0.0830  0.0533  0.1079
  134OSM    O1114510   2.641   1.818   6.635  1.2895 -0.3181  0.0883
  134OSM    O1214511   2.831   1.743   6.782 -0.4765  0.2814 -0.4235
  134OSM    C1S14512   2.726   1.840   6.522  0.5249 -0.4045 -0.9033
  134OSM    H1S14513   2.796   1.757   6.500  1.5289  0.0930  0.2702
  134OSM    H1T14514   2.780   1.936   6.530  0.7334 -0.5188 -0.9480
  134OSM     NF14515   2.716   1.869   6.281  0.2080  0.7851 -0.2362
  134OSM    HNF14516   2.728   1.958   6.239 -2.6400  2.0186  1.2748
  134OSM    C2S14517   2.635   1.878   6.398  0.1929  0.3486  0.9188
  134OSM    H2S14518   2.553   1.804   6.395 -1.8405  2.0480  5.3339
  134OSM    C3S14519   2.559   2.011   6.418  0.1876  0.5289 -0.0269
  134OSM    H3S14520   2.639   2.088   6.426 -0.6666  1.2828  1.9144
  134OSM     O314521   2.495   2.025   6.541  0.1069  0.3228 -0.5807
  134OSM    HO314522   2.527   1.954   6.597  0.7477 -0.0686 -1.4207
  134OSM    C4S14523   2.477   2.057   6.305 -0.6436  0.2830 -0.0034
  134OSM    H4S14524   2.541   2.109   6.232  1.7822 -1.0573  1.0494
  134OSM    C5S14525   2.340   2.049   6.281 -1.2186 -0.0039 -0.1440
  134OSM    H5S14526   2.273   1.994   6.348 -1.9306  0.5837 -0.3557
  134OSM    C6S14527   2.264   2.102   6.160  0.0189 -0.1405  0.1411
  134OSM    H6S14528   2.251   2.212   6.170 -0.8789 -0.2742  0.5594
  134OSM    H6T14529   2.159   2.069   6.172  0.0859 -0.8813 -1.0628
  134OSM    C7S14530   2.324   2.052   6.032  0.2104 -0.2099  0.3272
  134OSM    H7S14531   2.324   1.941   6.023  1.9420 -0.1787 -0.3561
  134OSM    H7T14532   2.428   2.089   6.019 -1.0195  2.4581 -3.5387
  134OSM    C8S14533   2.241   2.109   5.914 -0.5080 -0.1976 -0.6150
  134OSM    H8S14534   2.278   2.214   5.914  1.0437 -0.6498 -3.4119
  134OSM    H8T14535   2.132   2.110   5.935 -0.2237 -1.6823  1.1652
  134OSM    C9S14536   2.289   2.060   5.783 -0.7469 -0.3435 -0.5532
  134OSM    H9S14537   2.253   1.955   5.775 -1.8053  0.0080 -0.4460
  134OSM    H9T14538   2.400   2.062   5.777 -0.7651 -1.6018 -1.8956
  134OSM   C10S14539   2.224   2.131   5.662  0.1636 -0.6551 -0.6063
  134OSM   H10S14540   2.247   2.238   5.680 -0.6912 -0.8185  1.7344
  134OSM   H10T14541   2.113   2.124   5.672  0.1411  1.0425  0.7172
  134OSM   C11S14542   2.269   2.085   5.528  0.2362  0.4156 -0.0280
  134OSM   H11S14543   2.292   1.978   5.513  1.1057  0.7694 -1.4270
  134OSM   H11T14544   2.362   2.142   5.508 -0.1234  1.2707  0.6607
  134OSM   C12S14545   2.170   2.126   5.419 -0.7491  0.7410 -0.3628
  134OSM   H12S14546   2.144   2.233   5.436 -3.7301 -0.2090  1.8288
  134OSM   H12T14547   2.077   2.068   5.435  0.1863 -0.8305 -0.4487
  134OSM   C13S14548   2.209   2.089   5.270 -0.0438 -0.3050 -0.2057
  134OSM   H13S14549   2.212   1.979   5.257 -1.6457 -0.1664 -2.2966
  134OSM   H13T14550   2.312   2.122   5.244 -0.6220  0.4283 -1.6721
  134OSM   C14S14551   2.121   2.148   5.157 -0.0461 -0.4702 -0.0387
  134OSM   H14S14552   2.137   2.257   5.172 -0.8980 -0.0618 -1.7557
  134OSM   H14T14553   2.012   2.145   5.177 -0.0055 -1.5748  0.0751
  134OSM   C15S14554   2.166   2.102   5.018  0.2433  0.0367 -0.1710
  134OSM   H15S14555   2.146   1.993   5.019 -0.3481  0.1359  0.7258
  134OSM   H15T14556   2.277   2.113   5.018  0.1928  0.6160  0.1320
  134OSM   C16S14557   2.104   2.157   4.893  0.6505  0.0049  0.4168
  134OSM   H16S14558   2.124   2.266   4.887 -0.4013  0.1291 -2.0678
  134OSM   H16T14559   1.993   2.147   4.894  0.7782 -1.8638  1.3975
  134OSM   C17S14560   2.166   2.079   4.776 -0.7190 -0.3710 -0.0243
  134OSM   H17S14561   2.147   1.972   4.799 -3.0718  0.0116  0.0160
  134OSM   H17T14562   2.273   2.107   4.770 -0.7494 -0.4692 -1.1346
  134OSM   C18S14563   2.109   2.108   4.638 -0.7333 -0.5526  0.4901
  134OSM   H18S14564   2.179   2.070   4.560 -2.8017  1.2858 -2.4560
  134OSM   H18T14565   2.113   2.217   4.617  2.5522 -0.7259 -0.3126
  134OSM   H18U14566   2.006   2.069   4.626 -0.0891 -1.5786 -3.1690
  134OSM    C1F14567   2.766   1.754   6.233 -0.8952 -0.0443  0.0162
  134OSM     OF14568   2.763   1.649   6.291 -0.5892 -0.4823 -0.6124
  134OSM    C2F14569   2.846   1.768   6.112  0.0341 -0.8474 -0.6276
  134OSM    H2F14570   2.953   1.770   6.142  0.3272 -1.5397 -1.5702
  134OSM    H2G14571   2.838   1.871   6.071 -0.9541 -0.5360  0.3191
  134OSM    C3F14572   2.811   1.662   6.010 -0.5520 -0.5624  0.4422
  134OSM    H3F14573   2.703   1.653   5.987 -0.2572 -0.8822 -0.9328
  134OSM    H3G14574   2.855   1.570   6.054 -0.9224 -1.4475 -0.9693
  134OSM    C4F14575   2.880   1.677   5.869  0.1039  0.3661  0.0937
  134OSM    H4F14576   2.894   1.575   5.826  1.8602  0.0421  1.3356
  134OSM    H4G14577   2.985   1.712   5.873  0.9029 -1.9210  2.7698
  134OSM    C5F14578   2.796   1.771   5.770 -0.7916  0.1479 -0.6853
  134OSM    H5F14579   2.773   1.875   5.805 -0.3072  0.1281 -0.3021
  134OSM    H5G14580   2.699   1.718   5.755 -0.5385 -0.4732 -0.1752
  134OSM    C6F14581   2.861   1.769   5.627  0.7531  0.2203  0.2811
  134OSM    H6F14582   2.844   1.672   5.574  1.7873  0.9815 -1.5209
  134OSM    H6G14583   2.970   1.786   5.633  0.6329  0.8629  0.7336
  134OSM    C7F14584   2.800   1.876   5.529 -1.1455  0.6570  0.2207
  134OSM    H7F14585   2.839   1.837   5.432  0.0763  0.3596  0.8185
  134OSM    H7G14586   2.847   1.973   5.555  1.2450 -1.1083  3.1250
  134OSM    C8F14587   2.640   1.873   5.527 -0.5605 -0.4318 -0.6762
  134OSM    H8F14588   2.614   1.910   5.629  1.3454 -0.3895 -0.1624
  134OSM    H8G14589   2.615   1.765   5.522 -0.2224 -0.6236  0.9400
  134OSM    C9F14590   2.579   1.954   5.417 -0.0677 -0.2103 -0.4584
  134OSM    H9F14591   2.585   2.064   5.427 -2.2340  0.2129 -2.7795
  134OSM   C10F14592   2.524   1.900   5.310 -0.8047  0.4289  0.0612
  134OSM   H10F14593   2.482   1.971   5.237 -1.2033 -0.9379 -1.0738
  134OSM   C11F14594   2.515   1.757   5.278 -0.2482 -0.3685 -0.5502
  134OSM   H11F14595   2.484   1.710   5.374 -0.7886  1.7462  0.3714
  134OSM   H11G14596   2.616   1.715   5.258  0.3344  0.9697 -0.5854
  134OSM   C12F14597   2.407   1.717   5.178  0.3153 -0.2796 -0.4655
  134OSM   H12F14598   2.306   1.748   5.211  0.3903 -2.2760  1.9322
  134OSM   H12G14599   2.414   1.608   5.158  2.3521 -0.8095  2.5788
  134OSM   C13F14600   2.424   1.794   5.043  0.1096  0.1805 -0.8225
  134OSM   H13F14601   2.532   1.804   5.021  0.0808  1.8131 -0.3037
  134OSM   H13G14602   2.373   1.892   5.050 -1.4380 -0.5626 -1.1946
  134OSM   C14F14603   2.353   1.722   4.920 -0.1738 -0.5564 -0.3930
  134OSM   H14F14604   2.248   1.718   4.955 -0.1315 -1.3426 -0.3357
  134OSM   H14G14605   2.380   1.614   4.924 -0.3971 -0.5771  1.6416
  134OSM   C15F14606   2.380   1.778   4.780  0.2448  0.5185  0.4589
  134OSM   H15F14607   2.488   1.760   4.760  0.5209  1.8265  0.6795
  134OSM   H15G14608   2.356   1.885   4.763 -2.3905 -0.2410 -1.2667
  134OSM   C16F14609   2.304   1.706   4.665 -0.1492  0.3049 -1.0948
  134OSM   H16F14610   2.194   1.713   4.682  0.2049  1.3102  1.1691
  134OSM   H16G14611   2.343   1.603   4.648  1.2546  0.9712 -2.1385
  134OSM   C17F14612   2.310   1.782   4.530  0.0514  0.3014 -0.3080
  134OSM   H17F14613   2.414   1.814   4.506 -0.6836  3.0462 -0.1571
  134OSM   H17G14614   2.260   1.881   4.531  2.2094  1.4900  1.9552
  134OSM   C18F14615   2.250   1.702   4.407  0.1588  0.1532  0.1066
  134OSM   H18F14616   2.255   1.766   4.317  0.3248 -0.2666 -0.1871
  134OSM   H18G14617   2.147   1.663   4.422 -0.5011  1.7962  0.0832
  134OSM   H18H14618   2.313   1.614   4.383 -1.7422 -0.6163 -2.4678
  135OSM      N14619   3.768   0.013   6.906  0.0274  0.0391  0.4280
  135OSM    C1514620   3.900  -0.062   6.892  0.1332  0.0957  0.1946
  135OSM   H15A14621   3.966  -0.055   6.977  1.9263 -1.9140 -0.9418
  135OSM   H15B14622   3.942  -0.049   6.793  0.8306 -1.1855  0.3041
  135OSM   H15C14623   3.890  -0.169   6.891  1.3749 -0.1797  4.0134
  135OSM    C1414624   3.679  -0.024   6.799 -0.8185  0.0291 -0.1125
  135OSM   H14A14625   3.662  -0.130   6.790 -0.0150 -0.1515  0.4457
  135OSM   H14B14626   3.708   0.015   6.702 -2.4411 -1.3811 -1.2349
  135OSM   H14C14627   3.582   0.020   6.817 -0.7079 -0.1948  1.0862
  135OSM    C1314628   3.714  -0.034   7.031 -0.3856  0.0402 -0.0360
  135OSM   H13A14629   3.716  -0.142   7.031  1.9503  0.0267  0.2340
  135OSM   H13B14630   3.619   0.016   7.042 -0.7226 -0.5595 -0.1374
  135OSM   H13C14631   3.784  -0.016   7.111 -1.1874 -0.2307  0.7329
  135OSM    C1214632   3.792   0.166   6.916 -0.2369 -0.2259  0.3468
  135OSM   H12A14633   3.862   0.180   6.997  1.8936 -1.3030 -1.2205
  135OSM   H12B14634   3.705   0.223   6.945  0.5291  1.5260 -0.6428
  135OSM    C1114635   3.848   0.233   6.789 -0.0086  1.0240  0.4042
  135OSM   H11A14636   3.930   0.168   6.751 -0.9135  0.5856 -0.8697
  135OSM   H11B14637   3.887   0.334   6.816  1.8398  0.5775 -0.4198
  135OSM      P14638   3.625   0.335   6.684 -0.2282 -0.1857  0.3861
  135OSM    O1314639   3.547   0.314   6.804 -0.2480  0.2803 -0.5607
  135OSM    O1414640   3.684   0.469   6.677  0.1066  0.9732 -0.1264
  135OSM    O1114641   3.546   0.305   6.546 -0.0996 -0.0340  0.1489
  135OSM    O1214642   3.750   0.241   6.682 -0.6720  0.0490 -0.0812
  135OSM    C1S14643   3.600   0.230   6.430 -0.0385  0.7069 -0.5656
  135OSM    H1S14644   3.616   0.125   6.462  1.3055  0.8036 -0.8436
  135OSM    H1T14645   3.705   0.254   6.402 -0.0472 -1.1032 -2.3927
  135OSM     NF14646   3.537   0.135   6.211  0.0521  0.0915 -0.1052
  135OSM    HNF14647   3.612   0.147   6.147 -0.9273 -2.1869 -1.8253
  135OSM    C2S14648   3.496   0.233   6.306  0.5783  0.4356  0.1429
  135OSM    H2S14649   3.393   0.216   6.343  0.5793  1.7548  0.7872
  135OSM    C3S14650   3.503   0.375   6.250 -0.5541 -0.0972 -0.0563
  135OSM    H3S14651   3.607   0.386   6.212 -0.4509  0.4856  0.3759
  135OSM     O314652   3.482   0.477   6.350  0.3529 -0.3699 -0.0501
  135OSM    HO314653   3.484   0.432   6.435 -3.3675 -0.0822  0.3574
  135OSM    C4S14654   3.409   0.398   6.131 -0.7834 -0.1632 -0.1939
  135OSM    H4S14655   3.311   0.348   6.139  0.3838 -2.2585  2.2488
  135OSM    C5S14656   3.452   0.451   6.017  1.3019  0.0539  0.5579
  135OSM    H5S14657   3.558   0.482   6.011  0.7742  1.6912 -1.0637
  135OSM    C6S14658   3.365   0.468   5.894  0.4152  0.4632 -0.3279
  135OSM    H6S14659   3.262   0.484   5.934 -0.5394 -3.1766 -0.9264
  135OSM    H6T14660   3.363   0.372   5.837 -0.4121  0.9447 -1.1407
  135OSM    C7S14661   3.410   0.587   5.816  0.2810 -1.1357  0.3941
  135OSM    H7S14662   3.514   0.583   5.779  0.0635 -0.4332 -0.3262
  135OSM    H7T14663   3.405   0.680   5.878 -0.8462 -0.7676 -0.2220
  135OSM    C8S14664   3.345   0.608   5.684  0.4157 -0.8502  0.4258
  135OSM    H8S14665   3.234   0.605   5.693  0.3825 -1.7709 -0.1325
  135OSM    H8T14666   3.365   0.519   5.620 -0.6635 -2.1294  1.7924
  135OSM    C9S14667   3.389   0.727   5.601  0.3124  0.3593  0.6825
  135OSM    H9S14668   3.499   0.722   5.584  0.7813  0.2413  3.3359
  135OSM    H9T14669   3.369   0.819   5.661  0.2686 -0.4441  1.9309
  135OSM   C10S14670   3.316   0.745   5.471  0.8815 -0.1551 -0.1113
  135OSM   H10S14671   3.206   0.756   5.487  0.5045 -2.3487 -0.8561
  135OSM   H10T14672   3.312   0.646   5.421  1.1478 -0.7835  1.0712
  135OSM   C11S14673   3.383   0.845   5.377 -0.0339 -0.0566 -0.2012
  135OSM   H11S14674   3.492   0.827   5.383 -0.1983 -0.7680  1.0582
  135OSM   H11T14675   3.374   0.947   5.422  0.3311 -0.2000  0.2086
  135OSM   C12S14676   3.332   0.838   5.234  0.2518 -0.2744  0.4771
  135OSM   H12S14677   3.221   0.831   5.241  0.0433  1.6814 -0.2254
  135OSM   H12T14678   3.375   0.744   5.195  0.0169  0.4241 -1.6276
  135OSM   C13S14679   3.373   0.965   5.155  0.0571  0.2780 -0.2618
  135OSM   H13S14680   3.475   0.984   5.196 -1.1560 -0.6010  3.5835
  135OSM   H13T14681   3.315   1.057   5.177  0.7714  0.5128  0.7169
  135OSM   C14S14682   3.368   0.926   5.010  0.1096 -0.6251 -0.0196
  135OSM   H14S14683   3.407   1.005   4.942 -0.5739 -1.2884 -1.2193
  135OSM   H14T14684   3.260   0.913   4.988  0.4983 -1.5652 -1.5446
  135OSM   C15S14685   3.427   0.797   4.953 -0.0516 -0.5880  0.2779
  135OSM   H15S14686   3.376   0.711   4.999 -1.0409  0.7499  1.7878
  135OSM   H15T14687   3.537   0.792   4.965  0.0606 -0.9903 -0.7704
  135OSM   C16S14688   3.393   0.788   4.804 -0.1987  0.0052  0.1199
  135OSM   H16S14689   3.414   0.885   4.754  0.2348 -1.0661 -1.8799
  135OSM   H16T14690   3.283   0.806   4.802 -0.1707  0.2150 -1.6609
  135OSM   C17S14691   3.438   0.661   4.723  0.0229  0.1456 -1.1596
  135OSM   H17S14692   3.362   0.581   4.729 -1.3169  1.4819  1.5533
  135OSM   H17T14693   3.532   0.615   4.761 -0.8943  0.3045  1.4685
  135OSM   C18S14694   3.473   0.699   4.584 -0.0439  0.3239 -1.1035
  135OSM   H18S14695   3.376   0.747   4.557 -1.7180 -0.6820  2.5154
  135OSM   H18T14696   3.491   0.612   4.518 -0.0909 -1.7441  1.4522
  135OSM   H18U14697   3.556   0.774   4.579  1.2187 -0.9723 -0.3211
  135OSM    C1F14698   3.504   0.008   6.229 -0.7024 -0.0639  0.3681
  135OSM     OF14699   3.435  -0.027   6.327  0.3528 -0.0063  0.4689
  135OSM    C2F14700   3.591  -0.093   6.153  0.8545 -0.5250 -0.5056
  135OSM    H2F14701   3.638  -0.157   6.231 -2.7614 -1.3288  1.2724
  135OSM    H2G14702   3.664  -0.034   6.095 -0.8390  1.9660 -0.2793
  135OSM    C3F14703   3.499  -0.193   6.073 -0.1097 -0.5659  0.2730
  135OSM    H3F14704   3.417  -0.237   6.133 -1.1518 -0.3228 -0.9226
  135OSM    H3G14705   3.554  -0.276   6.024 -0.5043  0.1838 -1.5508
  135OSM    C4F14706   3.442  -0.129   5.945  0.0608  0.0495  0.5237
  135OSM    H4F14707   3.383  -0.041   5.978 -2.7112 -1.8376  0.9839
  135OSM    H4G14708   3.521  -0.108   5.870  0.6084 -0.2906  0.9917
  135OSM    C5F14709   3.339  -0.219   5.868 -0.4023  0.0722  0.9934
  135OSM    H5F14710   3.250  -0.232   5.933 -0.7389  0.7857  0.6827
  135OSM    H5G14711   3.382  -0.320   5.848  0.4998 -0.0067  3.1151
  135OSM    C6F14712   3.311  -0.161   5.726  0.2869 -0.1845 -0.7721
  135OSM    H6F14713   3.410  -0.135   5.682  1.5940  1.0942  2.6147
  135OSM    H6G14714   3.255  -0.068   5.748  1.2376  0.3373 -0.5188
  135OSM    C7F14715   3.226  -0.253   5.638 -0.2125 -0.0617 -0.0316
  135OSM    H7F14716   3.128  -0.270   5.686 -0.4177  0.1535 -0.3728
  135OSM    H7G14717   3.289  -0.343   5.621  3.0582  2.2192 -1.0719
  135OSM    C8F14718   3.189  -0.186   5.501  0.3464 -0.0764  0.1823
  135OSM    H8F14719   3.145  -0.085   5.511  0.1569  0.0686 -1.7817
  135OSM    H8G14720   3.110  -0.235   5.440 -1.1319  1.1486  1.0581
  135OSM    C9F14721   3.312  -0.174   5.407 -0.5577  0.2391  0.2000
  135OSM    H9F14722   3.407  -0.144   5.453 -0.0412 -1.0342  0.0100
  135OSM   C10F14723   3.305  -0.173   5.272 -0.5920 -0.4666  0.1263
  135OSM   H10F14724   3.399  -0.170   5.214 -0.7299  1.2817 -0.0525
  135OSM   C11F14725   3.182  -0.190   5.189  0.3990 -0.9401  0.0629
  135OSM   H11F14726   3.093  -0.140   5.234 -1.5471 -2.7723 -1.4905
  135OSM   H11G14727   3.166  -0.300   5.179 -0.9798 -0.7909  0.4146
  135OSM   C12F14728   3.183  -0.150   5.036 -0.0954 -0.0850 -0.1070
  135OSM   H12F14729   3.083  -0.180   4.999 -0.4337 -0.6743  1.2233
  135OSM   H12G14730   3.264  -0.197   4.976  0.5739  0.0222  0.6877
  135OSM   C13F14731   3.204   0.002   5.022 -0.5923 -0.6594 -0.0960
  135OSM   H13F14732   3.311   0.029   5.030 -0.9378  0.2215  2.4662
  135OSM   H13G14733   3.139   0.051   5.099 -1.9929  1.1901 -2.3303
  135OSM   C14F14734   3.173   0.066   4.887 -0.6392 -0.2357  0.3866
  135OSM   H14F14735   3.196   0.175   4.890  1.0989 -0.5726  0.0845
  135OSM   H14G14736   3.063   0.061   4.870 -0.6971  1.0172  0.2841
  135OSM   C15F14737   3.249  -0.011   4.776  0.1050  0.0072  0.0406
  135OSM   H15F14738   3.216  -0.117   4.777  0.2825 -0.0760 -1.1517
  135OSM   H15G14739   3.354  -0.020   4.809 -0.1535 -3.4478  0.3217
  135OSM   C16F14740   3.244   0.067   4.648 -0.3639  0.2595  0.6255
  135OSM   H16F14741   3.342   0.056   4.596  0.2182  1.8056  1.3523
  135OSM   H16G14742   3.233   0.177   4.659 -0.5225  0.5844 -2.0479
  135OSM   C17F14743   3.136   0.006   4.558 -0.3201  0.5285  0.3571
  135OSM   H17F14744   3.045   0.000   4.621  0.6155  0.2660  1.7407
  135OSM   H17G14745   3.172  -0.096   4.532  2.7757  0.9097  2.5188
  135OSM   C18F14746   3.117   0.087   4.431 -0.4434 -0.9119  0.8489
  135OSM   H18F14747   3.217   0.101   4.384 -0.7454  2.3404  0.9806
  135OSM   H18G14748   3.073   0.188   4.445 -2.0827 -1.2019 -1.5996
  135OSM   H18H14749   3.056   0.032   4.356 -0.2159 -3.1121  2.1877
  136OSM      N14750   5.397   1.986   6.514  0.0756  0.0925  0.0568
  136OSM    C1514751   5.293   2.045   6.421 -0.0502  0.4964 -0.4237
  136OSM   H15A14752   5.247   1.961   6.370  1.2599 -0.0241 -0.7855
  136OSM   H15B14753   5.333   2.106   6.342  1.6874 -1.1931 -0.9092
  136OSM   H15C14754   5.215   2.101   6.471 -0.2211  2.3241 -2.6105
  136OSM    C1414755   5.343   1.881   6.595 -0.7148  0.2393  0.0807
  136OSM   H14A14756   5.264   1.920   6.658 -0.4767  0.1715  0.4261
  136OSM   H14B14757   5.422   1.829   6.649 -0.6181  1.4457  1.1443
  136OSM   H14C14758   5.292   1.805   6.538 -1.9264 -1.5945  3.3326
  136OSM    C1314759   5.496   1.919   6.417 -0.3734 -0.1349 -0.2611
  136OSM   H13A14760   5.438   1.833   6.389  0.8816 -1.1796  0.2429
  136OSM   H13B14761   5.587   1.887   6.466 -1.2568 -2.1215  0.1702
  136OSM   H13C14762   5.525   1.973   6.329 -0.8603  1.5607  0.5763
  136OSM    C1214763   5.473   2.091   6.585 -0.6088 -0.8720 -0.2230
  136OSM   H12A14764   5.405   2.160   6.633  1.7779  1.1917  0.3676
  136OSM   H12B14765   5.518   2.149   6.506  0.6619 -0.8536  0.4979
  136OSM    C1114766   5.583   2.057   6.686 -0.0451 -0.3836 -0.4792
  136OSM   H11A14767   5.541   2.008   6.776 -0.2357  0.0125 -0.3524
  136OSM   H11B14768   5.635   2.142   6.736 -1.4673 -1.3922  3.0160
  136OSM      P14769   5.821   2.002   6.589  0.2258 -0.1293 -0.2745
  136OSM    O1314770   5.903   2.032   6.710  0.1813  0.1208  0.3708
  136OSM    O1414771   5.877   1.904   6.494  0.3743 -0.0939 -0.2102
  136OSM    O1114772   5.811   2.136   6.508  0.1916 -0.8971  0.0615
  136OSM    O1214773   5.675   1.962   6.636  0.5151  0.6803 -0.4859
  136OSM    C1S14774   5.914   2.232   6.500 -0.5327  0.3409  0.2201
  136OSM    H1S14775   6.008   2.193   6.545 -1.1297 -2.6691 -0.9110
  136OSM    H1T14776   5.895   2.324   6.560  0.3994  2.0462 -1.9482
  136OSM     NF14777   6.071   2.346   6.341  0.1871  0.7876  0.5712
  136OSM    HNF14778   6.068   2.443   6.363  0.1896  0.7832  0.5908
  136OSM    C2S14779   5.947   2.270   6.351 -0.3403 -0.5021  0.3294
  136OSM    H2S14780   5.956   2.172   6.301  0.4114 -1.3280  1.9998
  136OSM    C3S14781   5.824   2.345   6.283 -0.0363 -0.2206 -0.3079
  136OSM    H3S14782   5.834   2.447   6.323  2.5424 -0.5823  0.1256
  136OSM     O314783   5.693   2.302   6.321  0.7577 -0.3523  0.1116
  136OSM    HO314784   5.708   2.241   6.394  2.5820 -1.9893 -1.5078
  136OSM    C4S14785   5.852   2.368   6.131  0.3391  0.6157  0.3714
  136OSM    H4S14786   5.922   2.450   6.112 -0.2541  1.0052 -0.1612
  136OSM    C5S14787   5.798   2.289   6.030 -0.8172 -0.2257 -0.2392
  136OSM    H5S14788   5.733   2.204   6.057  1.0237 -1.1100  1.6710
  136OSM    C6S14789   5.816   2.310   5.881  0.0969  0.2780 -0.2707
  136OSM    H6S14790   5.716   2.330   5.837  1.6737  2.0752 -3.4137
  136OSM    H6T14791   5.860   2.215   5.844  0.8864  0.3680  0.4249
  136OSM    C7S14792   5.918   2.416   5.832  0.1779 -0.2010  0.5119
  136OSM    H7S14793   6.022   2.381   5.848  1.3148  1.6525 -2.0503
  136OSM    H7T14794   5.898   2.517   5.873 -1.4202 -0.3713  0.2360
  136OSM    C8S14795   5.905   2.427   5.674 -0.0465  0.1463  0.1531
  136OSM    H8S14796   5.799   2.449   5.652 -0.4845 -1.1943  0.8082
  136OSM    H8T14797   5.936   2.327   5.635 -0.7504  0.6352 -1.7774
  136OSM    C9S14798   5.996   2.528   5.607  0.0049 -0.1337  0.8290
  136OSM    H9S14799   6.100   2.516   5.643  0.7225  2.9463  0.1363
  136OSM    H9T14800   5.962   2.632   5.627  3.0273  1.1417 -0.0145
  136OSM   C10S14801   5.999   2.515   5.451  0.3158 -0.1277 -0.2408
  136OSM   H10S14802   5.897   2.532   5.410 -0.9129 -0.2538  2.5205
  136OSM   H10T14803   6.031   2.411   5.426  2.0089  1.0536 -3.5307
  136OSM   C11S14804   6.109   2.600   5.386 -0.2798  0.1080  1.0247
  136OSM   H11S14805   6.203   2.563   5.432  1.4097  2.3881 -0.3465
  136OSM   H11T14806   6.103   2.708   5.411 -3.0443  0.2921 -0.0685
  136OSM   C12S14807   6.123   2.584   5.233  0.2109 -0.1373  0.2713
  136OSM   H12S14808   6.111   2.474   5.220 -1.4517  0.3710 -3.7434
  136OSM   H12T14809   6.223   2.615   5.198 -0.0467  0.6835  0.2349
  136OSM   C13S14810   6.017   2.662   5.155  0.0472 -0.2523 -0.5575
  136OSM   H13S14811   6.043   2.769   5.169 -2.0379 -0.1097  3.6089
  136OSM   H13T14812   5.920   2.638   5.204  0.6919 -3.8366 -0.8116
  136OSM   C14S14813   6.007   2.638   4.999  0.3710 -0.4664  0.0575
  136OSM   H14S14814   5.939   2.550   4.990 -1.3500  0.5654  2.0514
  136OSM   H14T14815   6.105   2.606   4.959  2.2543  1.9734  2.3709
  136OSM   C15S14816   5.949   2.760   4.921  0.2008 -0.0321 -0.2958
  136OSM   H15S14817   6.011   2.849   4.945  0.0478 -0.3569  1.4376
  136OSM   H15T14818   5.850   2.775   4.970  0.2017  0.6743 -0.4913
  136OSM   C16S14819   5.918   2.732   4.773  0.3446 -0.2739 -0.0237
  136OSM   H16S14820   5.903   2.829   4.721  1.2905  0.0339  0.2551
  136OSM   H16T14821   5.833   2.661   4.773 -0.5904  0.8045 -0.8297
  136OSM   C17S14822   6.034   2.661   4.700  0.5097  0.1575  0.4482
  136OSM   H17S14823   6.053   2.565   4.753 -0.8286  0.0109  0.7052
  136OSM   H17T14824   6.121   2.730   4.691  1.7673 -1.5816 -2.0406
  136OSM   C18S14825   6.011   2.619   4.551 -0.2442 -0.2221  0.4619
  136OSM   H18S14826   5.986   2.701   4.480  0.5928  0.4804  0.9620
  136OSM   H18T14827   5.925   2.550   4.545  0.9160 -1.8146  1.4333
  136OSM   H18U14828   6.100   2.564   4.514 -0.0078  0.3664  0.1332
  136OSM    C1F14829   6.190   2.288   6.371 -0.3231 -0.2399  0.1243
  136OSM     OF14830   6.195   2.165   6.370 -0.4076 -0.5826 -0.7174
  136OSM    C2F14831   6.304   2.384   6.405 -0.9410  0.0402 -0.0710
  136OSM    H2F14832   6.366   2.325   6.476 -0.6832 -1.5759 -1.5640
  136OSM    H2G14833   6.254   2.471   6.452  0.3323  2.2573 -2.5843
  136OSM    C3F14834   6.391   2.450   6.291  0.0527 -0.0304  0.1971
  136OSM    H3F14835   6.456   2.371   6.248 -1.2454 -1.6336  1.0986
  136OSM    H3G14836   6.454   2.527   6.342  4.1515 -2.2142 -1.0894
  136OSM    C4F14837   6.297   2.516   6.187 -0.2360  0.5993  0.2136
  136OSM    H4F14838   6.232   2.600   6.221  0.6991  0.7024  1.8749
  136OSM    H4G14839   6.230   2.436   6.148 -1.9567  1.1899  1.7686
  136OSM    C5F14840   6.377   2.568   6.063 -1.0397  0.5873 -0.1544
  136OSM    H5F14841   6.410   2.485   5.997  0.2877  0.7904  0.2301
  136OSM    H5G14842   6.471   2.618   6.096 -0.2340 -0.9861  0.0046
  136OSM    C6F14843   6.299   2.657   5.970 -0.5794  0.0693  0.3580
  136OSM    H6F14844   6.301   2.762   6.007 -1.0803  0.0654  0.3956
  136OSM    H6G14845   6.191   2.632   5.969 -0.9139  1.3626  1.9935
  136OSM    C7F14846   6.359   2.633   5.831 -0.6504 -0.6342 -0.2756
  136OSM    H7F14847   6.333   2.537   5.782 -0.5823  0.1999 -2.0172
  136OSM    H7G14848   6.468   2.621   5.848 -0.8375 -1.4425  0.4278
  136OSM    C8F14849   6.332   2.755   5.740  0.1992 -0.0916  0.1014
  136OSM    H8F14850   6.222   2.769   5.739  0.2911  0.7782  1.1417
  136OSM    H8G14851   6.356   2.718   5.637  2.4805 -1.6462  1.1112
  136OSM    C9F14852   6.409   2.879   5.764 -0.4742 -0.5157 -0.0257
  136OSM    H9F14853   6.462   2.890   5.860 -0.4869  1.3248 -0.1827
  136OSM   C10F14854   6.405   2.992   5.685 -0.4759  0.0529  0.1382
  136OSM   H10F14855   6.477   3.074   5.701 -0.9775  0.2475  1.5430
  136OSM   C11F14856   6.320   3.016   5.567  0.0674 -0.2062  0.5194
  136OSM   H11F14857   6.273   3.117   5.563 -0.6898 -0.4522  2.2246
  136OSM   H11G14858   6.234   2.946   5.559  0.9768 -1.4873  1.5562
  136OSM   C12F14859   6.402   2.991   5.434 -0.3294  0.3229  0.2336
  136OSM   H12F14860   6.440   2.886   5.434  2.3484  1.2100 -0.8194
  136OSM   H12G14861   6.484   3.065   5.440  0.0758  0.0212 -1.2108
  136OSM   C13F14862   6.325   3.005   5.303 -0.0305 -0.0289 -0.3448
  136OSM   H13F14863   6.290   3.109   5.285 -0.7960  0.3072  2.5431
  136OSM   H13G14864   6.234   2.941   5.313 -1.4402  2.0046  0.3989
  136OSM   C14F14865   6.410   2.963   5.187  0.4305  0.4849 -0.2191
  136OSM   H14F14866   6.450   2.863   5.217 -2.4260 -0.9542 -0.8496
  136OSM   H14G14867   6.487   3.039   5.161 -0.1239  1.2163  0.2327
  136OSM   C15F14868   6.336   2.937   5.055 -0.3088  0.6554 -0.0183
  136OSM   H15F14869   6.296   3.035   5.021 -1.8189 -0.1258 -0.6238
  136OSM   H15G14870   6.251   2.869   5.075  1.8553 -1.4262  2.8449
  136OSM   C16F14871   6.415   2.868   4.947 -0.0858 -0.6340 -0.3627
  136OSM   H16F14872   6.346   2.818   4.875 -2.2836  1.1191  0.4341
  136OSM   H16G14873   6.498   2.800   4.977  0.2492 -0.1288 -0.1484
  136OSM   C17F14874   6.477   2.980   4.863  0.3057  0.0787 -0.1539
  136OSM   H17F14875   6.511   3.055   4.938  0.5005  1.5868 -1.6840
  136OSM   H17G14876   6.400   3.035   4.804 -1.8027 -0.9157  1.5355
  136OSM   C18F14877   6.599   2.944   4.772 -0.1215  0.5359  0.1075
  136OSM   H18F14878   6.565   2.913   4.671 -0.4676 -0.6784  0.5800
  136OSM   H18G14879   6.660   2.860   4.810  0.0440 -0.3382 -1.9966
  136OSM   H18H14880   6.656   3.039   4.763  3.0277 -1.2477  0.1031
  137OSM      N14881   3.048   0.039   6.999  0.6219  0.4622 -0.3800
  137OSM    C1514882   3.100   0.177   7.010 -0.6758  0.1017  0.0226
  137OSM   H15A14883   3.056   0.246   7.081  1.8242 -0.0891  1.9119
  137OSM   H15B14884   3.086   0.228   6.916 -1.4521 -1.4889 -0.7707
  137OSM   H15C14885   3.206   0.163   7.028 -0.7713 -0.3608  0.2422
  137OSM    C1414886   3.135  -0.036   6.901 -0.3480  0.1661  0.3055
  137OSM   H14A14887   3.235  -0.053   6.939 -0.8393 -1.2125  1.0644
  137OSM   H14B14888   3.143   0.006   6.802 -1.8937 -0.3853 -0.0805
  137OSM   H14C14889   3.079  -0.127   6.887 -4.0556  1.9683  1.7378
  137OSM    C1314890   3.043  -0.032   7.128 -0.2265 -0.0083  0.5962
  137OSM   H13A14891   3.139  -0.072   7.155 -0.3769 -0.6487  0.2070
  137OSM   H13B14892   2.983  -0.122   7.123 -0.6660  0.3420 -1.0514
  137OSM   H13C14893   2.998   0.031   7.204 -1.4391 -1.1425  0.8601
  137OSM    C1214894   2.903   0.028   6.946 -0.4491  1.0212  0.5112
  137OSM   H12A14895   2.851   0.075   7.029  1.4279  1.6181  1.4079
  137OSM   H12B14896   2.884  -0.078   6.943 -2.5115  1.3629 -0.4776
  137OSM    C1114897   2.870   0.083   6.809 -0.6571 -0.3258  0.5217
  137OSM   H11A14898   2.764   0.065   6.780 -0.4956  1.1863 -1.1663
  137OSM   H11B14899   2.935   0.023   6.742 -0.7543 -0.7124  0.7680
  137OSM      P14900   2.839   0.330   6.867 -0.0614  0.0066  0.0806
  137OSM    O1314901   2.771   0.291   6.991 -0.4484  0.2971  0.2930
  137OSM    O1414902   2.939   0.430   6.885 -0.0899  0.0300  0.2850
  137OSM    O1114903   2.728   0.376   6.758 -0.0487  0.0045 -0.2952
  137OSM    O1214904   2.902   0.217   6.792 -0.3376 -0.6214  0.0460
  137OSM    C1S14905   2.764   0.417   6.627 -0.0542 -0.1365 -0.3931
  137OSM    H1S14906   2.865   0.464   6.626  0.2456 -0.7517  0.0108
  137OSM    H1T14907   2.697   0.496   6.587 -0.6340  0.2511  1.2708
  137OSM     NF14908   2.819   0.378   6.396  0.3606  0.1359  0.1685
  137OSM    HNF14909   2.751   0.403   6.327  1.4042 -1.0158 -1.3562
  137OSM    C2S14910   2.765   0.308   6.508 -0.1387 -0.4241  0.3396
  137OSM    H2S14911   2.841   0.241   6.553 -0.5404 -0.9886  0.1768
  137OSM    C3S14912   2.622   0.244   6.501 -0.2598 -0.5183  0.2823
  137OSM    H3S14913   2.556   0.324   6.463 -0.1995  0.0655  1.3830
  137OSM     O314914   2.562   0.196   6.622 -0.1274 -0.5459  0.1616
  137OSM    HO314915   2.622   0.227   6.690 -1.7370 -0.7673  1.7729
  137OSM    C4S14916   2.631   0.133   6.402 -0.1936  0.1925 -0.5400
  137OSM    H4S14917   2.569   0.137   6.310 -0.6672  0.5301 -0.2103
  137OSM    C5S14918   2.715   0.030   6.417  0.0494 -0.8029  0.4138
  137OSM    H5S14919   2.742   0.005   6.520  1.0473 -1.5587 -0.0070
  137OSM    C6S14920   2.719  -0.072   6.304  0.1873  0.2490 -0.6336
  137OSM    H6S14921   2.684  -0.160   6.361 -0.5455  2.5600  2.7667
  137OSM    H6T14922   2.825  -0.082   6.270 -0.1707  2.1724 -2.4819
  137OSM    C7S14923   2.626  -0.076   6.181 -0.2321  0.0785  0.4303
  137OSM    H7S14924   2.630   0.016   6.119 -1.7209 -0.1098  0.0105
  137OSM    H7T14925   2.521  -0.094   6.212 -0.6968  1.2402 -0.4075
  137OSM    C8S14926   2.672  -0.185   6.081 -0.2035  0.1218 -0.8614
  137OSM    H8S14927   2.635  -0.286   6.111 -1.8967  0.8814 -0.2757
  137OSM    H8T14928   2.782  -0.191   6.092 -0.2043 -0.7560 -1.1990
  137OSM    C9S14929   2.662  -0.133   5.939  0.1245 -0.4850  0.4404
  137OSM    H9S14930   2.713  -0.034   5.937  1.1072 -0.9616 -1.5547
  137OSM    H9T14931   2.556  -0.122   5.907  0.2081 -0.3559  0.2011
  137OSM   C10S14932   2.749  -0.208   5.840  0.0843 -0.5329 -0.3044
  137OSM   H10S14933   2.706  -0.310   5.837 -0.8404 -0.2477  1.6478
  137OSM   H10T14934   2.850  -0.229   5.881  0.0363 -2.1375 -0.9260
  137OSM   C11S14935   2.752  -0.139   5.707 -0.4216 -0.1601 -0.0546
  137OSM   H11S14936   2.813  -0.046   5.709 -3.4221  1.9600 -0.5583
  137OSM   H11T14937   2.649  -0.100   5.693  0.1824  1.2530 -0.7413
  137OSM   C12S14938   2.777  -0.237   5.587  0.5255 -0.0806  0.7286
  137OSM   H12S14939   2.718  -0.331   5.598 -0.5352  0.3649 -0.7830
  137OSM   H12T14940   2.882  -0.272   5.578  2.7558  5.3858  1.3466
  137OSM   C13S14941   2.728  -0.163   5.459  1.0672 -0.3958 -0.5910
  137OSM   H13S14942   2.624  -0.126   5.477  2.0181  2.6732 -0.8936
  137OSM   H13T14943   2.704  -0.231   5.374  0.5123 -1.8359  0.6535
  137OSM   C14S14944   2.810  -0.041   5.420  0.0193 -0.4300 -0.4585
  137OSM   H14S14945   2.921  -0.053   5.418  0.0102 -0.4267 -1.7270
  137OSM   H14T14946   2.795   0.041   5.493  0.3433  0.2237 -1.1169
  137OSM   C15S14947   2.765   0.015   5.282 -0.2078 -0.0438  0.0135
  137OSM   H15S14948   2.823   0.109   5.272  0.3705 -0.4703 -0.7607
  137OSM   H15T14949   2.656   0.037   5.283 -0.4518 -0.9657 -1.9239
  137OSM   C16S14950   2.798  -0.074   5.160  0.9438 -0.0508 -0.2093
  137OSM   H16S14951   2.753  -0.175   5.165  0.3953 -0.0136 -2.9276
  137OSM   H16T14952   2.909  -0.077   5.151  0.9511  1.4337 -0.9962
  137OSM   C17S14953   2.731  -0.003   5.033  0.0002  0.3142 -0.3829
  137OSM   H17S14954   2.788   0.091   5.016 -0.4880  1.0107  1.6097
  137OSM   H17T14955   2.626   0.027   5.052  0.0311  0.3544 -0.2748
  137OSM   C18S14956   2.743  -0.086   4.904 -0.4259 -0.2823 -0.0706
  137OSM   H18S14957   2.836  -0.143   4.882  1.1563  1.7612  0.9990
  137OSM   H18T14958   2.723  -0.014   4.822  2.1423  1.5528  0.7856
  137OSM   H18U14959   2.660  -0.160   4.903 -0.0681 -0.6950  0.1407
  137OSM    C1F14960   2.940   0.429   6.378 -0.0554  0.1049  0.0898
  137OSM     OF14961   3.030   0.386   6.446 -0.2673  0.0962 -0.6840
  137OSM    C2F14962   2.961   0.550   6.282 -0.1486  0.4593 -0.2012
  137OSM    H2F14963   2.987   0.640   6.341  2.2796 -0.3765  0.1240
  137OSM    H2G14964   2.865   0.577   6.232 -0.3217 -0.0651 -0.1658
  137OSM    C3F14965   3.076   0.530   6.183 -0.5921 -0.7393 -0.6386
  137OSM    H3F14966   3.061   0.437   6.124  0.6665  0.7581 -3.5053
  137OSM    H3G14967   3.174   0.527   6.235  0.0430  0.3935 -1.7311
  137OSM    C4F14968   3.083   0.658   6.085 -0.9799  0.1840 -0.2726
  137OSM    H4F14969   3.173   0.634   6.024  1.4424  0.6145  2.8993
  137OSM    H4G14970   3.102   0.748   6.146  0.1178 -0.6425  0.6399
  137OSM    C5F14971   2.953   0.671   6.004 -0.5152 -0.4264  0.2342
  137OSM    H5F14972   2.876   0.722   6.066 -3.1458 -1.0195 -2.3198
  137OSM    H5G14973   2.917   0.568   5.982  2.5480 -1.1912 -1.7277
  137OSM    C6F14974   2.967   0.749   5.871 -0.1564 -0.4230 -0.2769
  137OSM    H6F14975   3.048   0.692   5.822  1.6586 -0.7827  2.8614
  137OSM    H6G14976   3.013   0.848   5.892 -1.5016  0.1979 -0.1205
  137OSM    C7F14977   2.842   0.743   5.787  0.8799 -0.1663 -0.2252
  137OSM    H7F14978   2.747   0.767   5.840  2.3905  2.6456  1.4554
  137OSM    H7G14979   2.833   0.637   5.756 -1.2720  0.1039 -0.7158
  137OSM    C8F14980   2.847   0.845   5.669  0.1226  0.0254 -0.3264
  137OSM    H8F14981   2.943   0.852   5.615 -0.8335  0.6397 -2.0032
  137OSM    H8G14982   2.826   0.947   5.710 -2.3816 -0.6253  0.1884
  137OSM    C9F14983   2.738   0.824   5.572 -0.8133 -1.0766  0.2360
  137OSM    H9F14984   2.640   0.868   5.598 -0.3160  1.0209 -1.2418
  137OSM   C10F14985   2.751   0.785   5.450 -0.1976 -0.2744 -0.9747
  137OSM   H10F14986   2.658   0.771   5.392 -0.5597 -2.5684  0.0163
  137OSM   C11F14987   2.883   0.750   5.380  0.4055  0.3906 -0.5586
  137OSM   H11F14988   2.877   0.641   5.362  1.1313 -0.0335  1.4783
  137OSM   H11G14989   2.977   0.766   5.437 -0.5735 -0.9644  1.5859
  137OSM   C12F14990   2.881   0.825   5.250 -0.3146  0.4193 -0.3973
  137OSM   H12F14991   2.951   0.911   5.264 -0.4759  0.5200 -0.2086
  137OSM   H12G14992   2.785   0.867   5.215  0.4133  1.8954 -0.7161
  137OSM   C13F14993   2.926   0.735   5.135  0.2253 -0.2994 -0.2799
  137OSM   H13F14994   2.864   0.643   5.137 -0.1680 -0.0171  1.0418
  137OSM   H13G14995   3.032   0.701   5.140  0.2480 -2.0758 -5.8676
  137OSM   C14F14996   2.921   0.816   5.000 -0.3982 -0.0369 -0.2027
  137OSM   H14F14997   2.978   0.767   4.918 -0.6592  1.1851 -1.1357
  137OSM   H14G14998   2.968   0.915   5.016  0.3745 -0.6254  1.3677
  137OSM   C15F14999   2.780   0.829   4.935  0.5749 -0.1909 -0.0280
  137OSM   H15F15000   2.700   0.846   5.011  1.0869  0.3269  0.4049
  137OSM   H15G15001   2.750   0.735   4.885  1.6140  0.3566 -1.7560
  137OSM   C16F15002   2.784   0.943   4.824 -0.0671  0.1291 -0.5595
  137OSM   H16F15003   2.877   0.940   4.763 -0.4110  1.6426 -1.2208
  137OSM   H16G15004   2.773   1.043   4.871 -0.8477 -1.3739  2.7358
  137OSM   C17F15005   2.671   0.936   4.729  0.1578  0.2686 -0.4020
  137OSM   H17F15006   2.678   0.835   4.682  0.2075 -0.3089  0.8200
  137OSM   H17G15007   2.694   1.005   4.645  1.9260 -1.0948 -1.0887
  137OSM   C18F15008   2.534   0.968   4.789  0.7132  0.2040 -0.5531
  137OSM   H18F15009   2.468   1.011   4.711  0.2982  0.5672 -0.0063
  137OSM   H18G15010   2.538   1.047   4.867  2.3626 -1.2318  0.9049
  137OSM   H18H15011   2.471   0.887   4.832  2.3629  0.4267  2.6402
  138OSM      N15012   6.029   1.008   6.618 -0.0974  0.4756 -0.0457
  138OSM    C1515013   6.028   1.111   6.517  0.0453 -0.4514 -0.5240
  138OSM   H15A15014   6.086   1.079   6.433 -0.5548 -1.3886 -0.5952
  138OSM   H15B15015   6.070   1.204   6.551 -0.5031 -1.1561  2.3652
  138OSM   H15C15016   5.924   1.119   6.487 -1.7451 -0.0278  4.7070
  138OSM    C1415017   6.166   1.003   6.683  0.0091 -0.3330  0.0693
  138OSM   H14A15018   6.177   1.091   6.745  0.8245 -0.9037  0.7515
  138OSM   H14B15019   6.240   1.003   6.605 -0.2093  2.1587 -0.2150
  138OSM   H14C15020   6.185   0.921   6.750  2.1274 -0.5707 -0.7479
  138OSM    C1315021   5.938   1.034   6.726  0.3350 -0.5000  0.1921
  138OSM   H13A15022   5.838   1.029   6.687 -0.3315 -0.0474  1.7754
  138OSM   H13B15023   5.960   1.122   6.785  0.6361 -1.2799  1.2760
  138OSM   H13C15024   5.946   0.959   6.804  0.1090 -0.7859 -0.0606
  138OSM    C1215025   6.002   0.875   6.557  0.5900  0.3259  0.1041
  138OSM   H12A15026   5.977   0.800   6.631 -0.4625 -0.0703 -0.6310
  138OSM   H12B15027   6.088   0.827   6.512  0.7461 -0.7338  1.4610
  138OSM    C1115028   5.884   0.867   6.458  0.2242  0.0807  0.1451
  138OSM   H11A15029   5.868   0.758   6.445  0.5087 -0.2063  1.9912
  138OSM   H11B15030   5.914   0.919   6.364  2.8222 -0.7498  0.4295
  138OSM      P15031   5.645   0.859   6.558 -0.5786  0.4923  0.0141
  138OSM    O1315032   5.702   0.755   6.645 -0.2548  0.1139 -0.3448
  138OSM    O1415033   5.555   0.949   6.624 -0.1253  0.0130  0.9267
  138OSM    O1115034   5.586   0.793   6.428 -0.5328  0.1360  0.6610
  138OSM    O1215035   5.768   0.941   6.506  0.0325  0.0152  0.5341
  138OSM    C1S15036   5.564   0.866   6.305 -0.2668  0.2121 -0.3530
  138OSM    H1S15037   5.589   0.974   6.321 -1.3310  0.4915 -0.4794
  138OSM    H1T15038   5.456   0.860   6.283 -0.5947  2.8849  0.1607
  138OSM     NF15039   5.608   0.857   6.061 -0.1673 -0.2549  0.4637
  138OSM    HNF15040   5.555   0.800   5.998  1.5957 -0.1751 -1.2158
  138OSM    C2S15041   5.645   0.794   6.189 -0.2446 -0.0505  0.5158
  138OSM    H2S15042   5.752   0.818   6.207 -0.1103  0.2738 -0.5967
  138OSM    C3S15043   5.627   0.639   6.188 -0.0892  0.3796 -0.2689
  138OSM    H3S15044   5.525   0.613   6.151 -0.0021 -1.5689  0.7186
  138OSM     O315045   5.658   0.575   6.313  0.6091 -0.0836 -0.2683
  138OSM    HO315046   5.665   0.649   6.374 -2.5848 -0.7482  1.0736
  138OSM    C4S15047   5.719   0.590   6.080 -0.1363  0.0703 -0.0821
  138OSM    H4S15048   5.664   0.581   5.985 -0.7876  1.0376  0.1871
  138OSM    C5S15049   5.853   0.569   6.082  0.2929 -0.6420 -0.0049
  138OSM    H5S15050   5.918   0.591   6.168  2.7429  0.4561 -1.9847
  138OSM    C6S15051   5.940   0.526   5.969 -0.1281  0.3707  0.6380
  138OSM    H6S15052   5.965   0.424   6.005 -1.4857 -0.4406 -0.5743
  138OSM    H6T15053   6.035   0.584   5.969 -0.1904  0.4734  0.3059
  138OSM    C7S15054   5.895   0.514   5.822  0.5040  0.3593 -0.2167
  138OSM    H7S15055   5.869   0.618   5.795  0.5921  1.5051  3.5396
  138OSM    H7T15056   5.803   0.452   5.827  0.1307  1.0276  2.6353
  138OSM    C8S15057   5.999   0.469   5.727 -0.3076  0.7463  0.6557
  138OSM    H8S15058   5.985   0.361   5.709  1.4622  0.6346 -0.2748
  138OSM    H8T15059   6.102   0.487   5.764 -0.1414 -0.0940  0.6177
  138OSM    C9S15060   5.985   0.540   5.589  0.2579 -0.0416  0.1732
  138OSM    H9S15061   6.056   0.623   5.568  1.6421 -1.2961 -0.2483
  138OSM    H9T15062   5.885   0.589   5.584  0.8097  1.0238 -1.6425
  138OSM   C10S15063   5.982   0.447   5.464 -0.5232  0.0230 -0.1765
  138OSM   H10S15064   5.912   0.361   5.479  0.8496 -1.1123 -0.0818
  138OSM   H10T15065   6.077   0.397   5.436  1.0479  3.0180 -0.5084
  138OSM   C11S15066   5.938   0.529   5.346  1.0229 -0.5274 -0.1715
  138OSM   H11S15067   6.007   0.616   5.343 -1.4771  1.5704 -0.1282
  138OSM   H11T15068   5.840   0.572   5.373  1.9092  1.7207 -0.3140
  138OSM   C12S15069   5.935   0.466   5.200 -0.4874 -0.1123 -0.2911
  138OSM   H12S15070   5.880   0.369   5.209  0.4259 -0.4980  1.7016
  138OSM   H12T15071   6.036   0.435   5.165 -0.5899 -1.0739  0.2176
  138OSM   C13S15072   5.865   0.559   5.100 -0.2937  0.1375  0.1448
  138OSM   H13S15073   5.937   0.643   5.089 -0.8349  0.6223  0.2575
  138OSM   H13T15074   5.779   0.606   5.152 -2.4522 -0.8302 -2.3457
  138OSM   C14S15075   5.855   0.490   4.964  0.2774  0.1533 -0.5098
  138OSM   H14S15076   5.783   0.405   4.970 -2.6000  2.5405  3.9554
  138OSM   H14T15077   5.956   0.449   4.941 -0.4002 -2.4599  0.7367
  138OSM   C15S15078   5.814   0.593   4.859  0.2044  0.1580  0.1712
  138OSM   H15S15079   5.902   0.659   4.876  0.3845 -0.6592  2.8971
  138OSM   H15T15080   5.721   0.654   4.870 -0.1918 -0.3173 -0.4348
  138OSM   C16S15081   5.834   0.548   4.717 -1.0765 -0.1974  0.6822
  138OSM   H16S15082   5.934   0.509   4.689 -1.9528 -2.3331  0.4159
  138OSM   H16T15083   5.802   0.631   4.650 -0.4198 -0.4926 -0.0045
  138OSM   C17S15084   5.731   0.444   4.686  0.7705  0.0058  0.5360
  138OSM   H17S15085   5.638   0.498   4.715 -0.4920 -0.6203 -1.9589
  138OSM   H17T15086   5.752   0.350   4.740 -1.4381 -0.9871 -0.2030
  138OSM   C18S15087   5.741   0.415   4.533 -0.5964 -0.1554 -0.1973
  138OSM   H18S15088   5.737   0.507   4.470  1.9336  0.7147  0.7478
  138OSM   H18T15089   5.667   0.334   4.519 -1.6035  0.5841  0.6474
  138OSM   H18U15090   5.845   0.378   4.519 -0.7944 -1.5685  1.7646
  138OSM    C1F15091   5.621   0.984   6.030  0.3301 -1.0043  0.2444
  138OSM     OF15092   5.657   1.066   6.107  0.2909 -0.1111 -0.5353
  138OSM    C2F15093   5.581   1.019   5.885  0.2199 -0.6245 -1.5958
  138OSM    H2F15094   5.470   1.027   5.882  0.1233 -0.0761  1.0041
  138OSM    H2G15095   5.622   0.939   5.819 -0.7166 -1.0289 -1.7037
  138OSM    C3F15096   5.642   1.158   5.841  0.1217  0.1325 -0.3965
  138OSM    H3F15097   5.753   1.159   5.846  0.1049 -1.3811  2.8766
  138OSM    H3G15098   5.610   1.232   5.917  0.3157 -1.3573  1.1902
  138OSM    C4F15099   5.589   1.211   5.709  0.4629 -0.1333  0.0410
  138OSM    H4F15100   5.591   1.323   5.710 -0.7118 -0.0947 -0.6551
  138OSM    H4G15101   5.484   1.185   5.688  0.9524 -1.3125 -1.0606
  138OSM    C5F15102   5.682   1.172   5.589 -0.7042 -0.0297  0.4770
  138OSM    H5F15103   5.713   1.070   5.622  2.4194  0.0801 -1.5925
  138OSM    H5G15104   5.775   1.231   5.575 -1.2554  0.4653 -1.4000
  138OSM    C6F15105   5.622   1.167   5.450 -0.7823 -0.3241 -0.1404
  138OSM    H6F15106   5.530   1.104   5.441 -0.6604 -0.4970 -0.1788
  138OSM    H6G15107   5.699   1.113   5.391  0.8032  1.5514  0.1134
  138OSM    C7F15108   5.631   1.307   5.392  0.4041 -0.1796  0.0377
  138OSM    H7F15109   5.739   1.331   5.401  0.6757 -1.0726 -0.6875
  138OSM    H7G15110   5.568   1.368   5.461 -0.7778 -0.9893 -0.2925
  138OSM    C8F15111   5.592   1.312   5.241 -0.5057 -0.0328  0.6227
  138OSM    H8F15112   5.630   1.219   5.194  0.3207 -0.3106  1.7953
  138OSM    H8G15113   5.648   1.396   5.195  3.3177 -2.5011  0.3398
  138OSM    C9F15114   5.445   1.330   5.222  0.2068  0.1776 -0.1895
  138OSM    H9F15115   5.410   1.410   5.290 -0.1529 -1.1231  1.2251
  138OSM   C10F15116   5.365   1.269   5.124 -0.2706 -0.5622 -0.3860
  138OSM   H10F15117   5.264   1.309   5.109  0.3012  0.4233 -1.9225
  138OSM   C11F15118   5.410   1.152   5.032 -0.5449 -0.1805 -0.6428
  138OSM   H11F15119   5.332   1.078   5.007 -1.0362  0.1786 -0.1892
  138OSM   H11G15120   5.490   1.096   5.086 -1.3769 -0.5607  0.2078
  138OSM   C12F15121   5.463   1.208   4.897  0.4607 -0.3648 -0.7757
  138OSM   H12F15122   5.525   1.132   4.844  1.7667 -1.1908  1.7733
  138OSM   H12G15123   5.528   1.295   4.918  1.5690 -1.2203 -0.5691
  138OSM   C13F15124   5.350   1.256   4.806 -0.1455  0.0578  0.7901
  138OSM   H13F15125   5.310   1.355   4.836  0.0427 -0.0470  1.3935
  138OSM   H13G15126   5.269   1.182   4.825 -0.5131  0.0178 -0.7848
  138OSM   C14F15127   5.383   1.267   4.653 -0.2111  0.5172  0.1190
  138OSM   H14F15128   5.404   1.159   4.639  1.4427  0.6549  1.2641
  138OSM   H14G15129   5.471   1.326   4.622 -1.5127  2.3124 -0.3170
  138OSM   C15F15130   5.256   1.309   4.586 -0.5185 -0.1801  1.0888
  138OSM   H15F15131   5.235   1.411   4.626  1.8105  0.7536  0.1073
  138OSM   H15G15132   5.163   1.253   4.608 -0.5592  0.0659  1.5787
  138OSM   C16F15133   5.271   1.324   4.439 -0.2498 -0.5733 -0.1887
  138OSM   H16F15134   5.324   1.235   4.398 -0.0377  0.0441 -1.3271
  138OSM   H16G15135   5.326   1.415   4.407 -1.2374  0.3626  0.7023
  138OSM   C17F15136   5.135   1.328   4.365 -0.7248  0.0706 -0.7037
  138OSM   H17F15137   5.058   1.273   4.424  0.5470  0.3902  1.3853
  138OSM   H17G15138   5.158   1.258   4.282 -0.9473 -0.6520 -0.1660
  138OSM   C18F15139   5.091   1.460   4.301 -0.8819 -0.0203  0.0786
  138OSM   H18F15140   5.050   1.526   4.380  0.6502 -1.2305  1.9951
  138OSM   H18G15141   5.019   1.443   4.219 -1.4417 -0.0163  0.5615
  138OSM   H18H15142   5.181   1.504   4.253  0.5701 -3.1142 -0.2786
  139OSM      N15143   0.182   3.195   7.194 -0.2382  0.5475  0.3245
  139OSM    C1515144   0.326   3.238   7.171  0.0839  0.1359  0.5546
  139OSM   H15A15145   0.393   3.160   7.138 -0.7192  0.1854 -1.3328
  139OSM   H15B15146   0.370   3.287   7.257 -0.6103  1.6056  0.1053
  139OSM   H15C15147   0.316   3.312   7.093 -0.1496  2.5140  2.6778
  139OSM    C1415148   0.134   3.129   7.067  0.6826  0.7931  0.4644
  139OSM   H14A15149   0.029   3.105   7.076  0.5572  1.3740  0.5380
  139OSM   H14B15150   0.179   3.032   7.047  0.4573  0.7908 -0.0535
  139OSM   H14C15151   0.141   3.200   6.986 -1.8274  2.6911  1.8010
  139OSM    C1315152   0.169   3.103   7.309 -0.0317  0.7428  0.2497
  139OSM   H13A15153   0.174   3.162   7.399 -3.0096 -0.3304  1.2404
  139OSM   H13B15154   0.243   3.024   7.308 -0.0717  0.5824  3.0752
  139OSM   H13C15155   0.070   3.063   7.324  0.1153 -0.1956 -1.0653
  139OSM    C1215156   0.094   3.317   7.210  0.2802 -0.1280  0.0721
  139OSM   H12A15157   0.142   3.378   7.285 -0.9521 -1.0462  1.6672
  139OSM   H12B15158   0.003   3.277   7.252  1.3439 -2.0752  0.7055
  139OSM    C1115159   0.063   3.405   7.088 -0.6906 -0.4382 -0.1264
  139OSM   H11A15160  -0.008   3.484   7.121 -2.1117 -1.7617  0.0828
  139OSM   H11B15161  -0.008   3.353   7.021 -1.8581  0.8533  0.0637
  139OSM      P15162   0.242   3.585   7.043  0.5228 -0.5010  0.0823
  139OSM    O1315163   0.132   3.671   7.092  0.0547 -0.1553  0.1110
  139OSM    O1415164   0.354   3.554   7.132  0.1413  0.1512  0.3554
  139OSM    O1115165   0.297   3.647   6.904  0.5048 -0.3161  0.1665
  139OSM    O1215166   0.177   3.451   7.001  0.2807 -0.1438 -0.5408
  139OSM    C1S15167   0.368   3.555   6.817  1.0943 -0.3101  0.2442
  139OSM    H1S15168   0.314   3.459   6.805 -1.6485  1.0883  0.7599
  139OSM    H1T15169   0.473   3.537   6.849  1.7277 -0.2090 -1.6158
  139OSM     NF15170   0.474   3.533   6.593 -0.8473 -0.5832 -0.6056
  139OSM    HNF15171   0.549   3.595   6.571 -0.4952 -0.0099  1.8718
  139OSM    C2S15172   0.378   3.610   6.673 -0.2990  0.0039 -0.0546
  139OSM    H2S15173   0.273   3.594   6.641 -0.4696  3.5910 -1.7240
  139OSM    C3S15174   0.390   3.767   6.663  0.0558 -0.5265 -0.2491
  139OSM    H3S15175   0.474   3.802   6.727 -2.1447  0.6410  2.2277
  139OSM     O315176   0.281   3.849   6.702  0.0136 -0.5162  0.1356
  139OSM    HO315177   0.247   3.807   6.782 -0.1836  0.6647  0.6883
  139OSM    C4S15178   0.419   3.799   6.519  0.1589  0.5603 -0.3223
  139OSM    H4S15179   0.525   3.802   6.489  0.4875  0.5085  0.7892
  139OSM    C5S15180   0.330   3.828   6.428 -0.2584 -0.5188  0.4462
  139OSM    H5S15181   0.226   3.848   6.458 -0.4539  0.3904 -0.7618
  139OSM    C6S15182   0.343   3.826   6.274 -0.6169  0.1677 -0.7785
  139OSM    H6S15183   0.328   3.931   6.242  0.3372  0.6916  0.4192
  139OSM    H6T15184   0.255   3.772   6.233  0.2226 -1.8947  0.0301
  139OSM    C7S15185   0.475   3.778   6.211 -0.4055 -0.5020 -0.2772
  139OSM    H7S15186   0.503   3.679   6.253 -0.4138  0.8988  3.4304
  139OSM    H7T15187   0.552   3.853   6.238 -1.8569  1.2220 -0.7214
  139OSM    C8S15188   0.479   3.776   6.055  0.6332  0.3174 -0.0361
  139OSM    H8S15189   0.465   3.880   6.019 -2.7028  0.3083  0.8885
  139OSM    H8T15190   0.390   3.717   6.024  0.5898 -0.9640  2.2798
  139OSM    C9S15191   0.607   3.716   5.994 -0.3673  0.3027 -0.3840
  139OSM    H9S15192   0.619   3.609   6.021  3.2952  1.1837  2.3171
  139OSM    H9T15193   0.696   3.768   6.035  1.8711 -1.6479 -2.4227
  139OSM   C10S15194   0.605   3.730   5.843  0.5547 -0.4758 -0.5565
  139OSM   H10S15195   0.572   3.833   5.817  1.6029 -0.3837 -1.5889
  139OSM   H10T15196   0.520   3.670   5.803 -2.5856  2.8824  0.6110
  139OSM   C11S15197   0.738   3.689   5.778  0.2518  0.0736  0.9362
  139OSM   H11S15198   0.780   3.603   5.833 -0.1076 -0.8888 -0.2462
  139OSM   H11T15199   0.810   3.773   5.785 -1.2094  1.6049 -0.9780
  139OSM   C12S15200   0.721   3.652   5.624  0.1614 -1.0925  0.3104
  139OSM   H12S15201   0.665   3.729   5.567  0.4459 -2.0222 -1.3176
  139OSM   H12T15202   0.660   3.559   5.618 -1.4114 -0.2122  1.7957
  139OSM   C13S15203   0.855   3.632   5.560 -0.4486  0.4790  0.4339
  139OSM   H13S15204   0.904   3.548   5.613  2.0756 -1.1492 -3.9670
  139OSM   H13T15205   0.919   3.722   5.551 -0.3446  0.3556 -0.0647
  139OSM   C14S15206   0.834   3.580   5.412 -0.4195  0.4060  0.0113
  139OSM   H14S15207   0.784   3.663   5.357  1.6540  0.7692 -1.4467
  139OSM   H14T15208   0.771   3.489   5.408 -0.2660  0.3315 -0.9388
  139OSM   C15S15209   0.968   3.545   5.350  0.7370 -0.0193 -0.2364
  139OSM   H15S15210   1.009   3.468   5.419 -1.3828 -2.1743 -1.2182
  139OSM   H15T15211   1.033   3.634   5.343  1.1561 -0.2199  0.9184
  139OSM   C16S15212   0.933   3.494   5.204  0.0071  0.2712 -0.5707
  139OSM   H16S15213   0.864   3.568   5.157  0.9869  0.9843 -0.9039
  139OSM   H16T15214   0.872   3.401   5.213 -0.0896  0.5232  2.0083
  139OSM   C17S15215   1.055   3.478   5.110  0.2582 -0.1777  0.5030
  139OSM   H17S15216   1.136   3.410   5.145  2.2186  0.8034 -1.8384
  139OSM   H17T15217   1.109   3.574   5.113  1.3777 -0.8116  1.3049
  139OSM   C18S15218   1.026   3.446   4.961  0.1411  0.3503  0.1160
  139OSM   H18S15219   0.990   3.536   4.907 -0.8118 -1.3530 -2.3179
  139OSM   H18T15220   0.954   3.361   4.956  1.8479 -1.3570  2.3350
  139OSM   H18U15221   1.112   3.420   4.896  0.5386  0.1569  0.7141
  139OSM    C1F15222   0.476   3.404   6.572  0.0779 -0.3891 -0.7993
  139OSM     OF15223   0.374   3.341   6.591 -0.0249 -0.2491 -0.5742
  139OSM    C2F15224   0.605   3.345   6.532  0.1237 -0.0525  0.9890
  139OSM    H2F15225   0.674   3.348   6.619  0.9834  0.1562  0.3177
  139OSM    H2G15226   0.648   3.401   6.446  0.6570 -0.4877  0.9692
  139OSM    C3F15227   0.589   3.202   6.471  0.2900  0.1129  0.3454
  139OSM    H3F15228   0.509   3.218   6.396 -0.5883 -0.4002  1.1506
  139OSM    H3G15229   0.549   3.149   6.561 -2.1236  2.7085  0.9367
  139OSM    C4F15230   0.717   3.140   6.419  0.4036 -0.3047  0.1054
  139OSM    H4F15231   0.777   3.100   6.504  0.5176  1.5277  0.9176
  139OSM    H4G15232   0.774   3.216   6.363 -1.1228  1.4907  0.8789
  139OSM    C5F15233   0.677   3.021   6.331  0.0515  0.3853 -0.2244
  139OSM    H5F15234   0.611   3.064   6.252  0.1398  2.3416  0.7103
  139OSM    H5G15235   0.618   2.955   6.397 -0.2242  0.8731  0.0268
  139OSM    C6F15236   0.793   2.936   6.259  0.0929 -0.2840 -0.4101
  139OSM    H6F15237   0.849   3.004   6.192 -0.1682  0.8298  0.4727
  139OSM    H6G15238   0.749   2.857   6.194 -0.3672  0.6905 -1.3119
  139OSM    C7F15239   0.884   2.869   6.359  0.1130  0.6543  0.5816
  139OSM    H7F15240   0.822   2.819   6.436 -1.5156  0.2676 -0.9051
  139OSM    H7G15241   0.932   2.955   6.409 -1.4513  2.1277 -0.3547
  139OSM    C8F15242   0.992   2.773   6.308  0.4613 -0.6685  0.7404
  139OSM    H8F15243   0.940   2.685   6.264  0.8385 -1.8696  2.5940
  139OSM    H8G15244   1.056   2.723   6.384  1.1876 -0.6216  0.1733
  139OSM    C9F15245   1.083   2.842   6.208  0.5405 -0.5361 -0.3512
  139OSM    H9F15246   1.152   2.914   6.254  0.4135 -0.9242  0.4747
  139OSM   C10F15247   1.096   2.832   6.074  0.3425 -0.0382  0.6896
  139OSM   H10F15248   1.181   2.887   6.030 -0.1282 -0.9428 -1.5272
  139OSM   C11F15249   1.010   2.753   5.985  0.1395  0.1308  0.3480
  139OSM   H11F15250   0.922   2.810   5.951 -1.1404 -1.1533  1.4036
  139OSM   H11G15251   0.974   2.659   6.031 -0.3253  0.0656 -0.1397
  139OSM   C12F15252   1.083   2.713   5.861  0.0357 -0.4230  0.4748
  139OSM   H12F15253   1.176   2.653   5.872  0.2429  0.0140  1.1444
  139OSM   H12G15254   1.107   2.799   5.795  2.1546  0.7189  2.5937
  139OSM   C13F15255   0.986   2.619   5.781  0.5239 -0.0257  0.2779
  139OSM   H13F15256   0.896   2.679   5.756  0.3797 -0.9350 -1.5506
  139OSM   H13G15257   0.973   2.527   5.843 -2.0112 -1.8747 -2.6830
  139OSM   C14F15258   1.045   2.571   5.654  0.2974  0.1087  0.4412
  139OSM   H14F15259   0.985   2.487   5.613  0.2244 -1.0479  2.7236
  139OSM   H14G15260   1.141   2.526   5.690  0.9552  0.5901 -0.6506
  139OSM   C15F15261   1.056   2.671   5.543 -0.4455 -0.2903 -0.1421
  139OSM   H15F15262   1.134   2.746   5.568 -0.4799  0.1744 -1.3659
  139OSM   H15G15263   0.965   2.734   5.539  0.7265  1.5803  1.3960
  139OSM   C16F15264   1.083   2.614   5.405  0.7920  0.7694 -0.6988
  139OSM   H16F15265   1.178   2.558   5.408  0.9346  0.9307  3.4620
  139OSM   H16G15266   1.089   2.690   5.324  0.5241 -1.1574 -2.6045
  139OSM   C17F15267   0.965   2.529   5.343  0.3423  0.1008 -0.2042
  139OSM   H17F15268   0.973   2.425   5.382 -1.3119 -0.4232 -1.1592
  139OSM   H17G15269   0.985   2.539   5.234  0.8506  0.6189 -0.0675
  139OSM   C18F15270   0.826   2.577   5.375 -0.0839  0.1460 -0.1617
  139OSM   H18F15271   0.821   2.581   5.486 -2.0448  0.6967 -0.2338
  139OSM   H18G15272   0.749   2.501   5.349 -1.1638  0.9743  0.5333
  139OSM   H18H15273   0.794   2.670   5.322  0.6373 -0.1925 -1.2296
  140OSM      N15274   2.326   6.701   6.700 -0.1924  0.3829  0.2217
  140OSM    C1515275   2.342   6.636   6.563  0.6733 -0.6715  0.0792
  140OSM   H15A15276   2.343   6.529   6.578  3.2682 -0.3592  3.3653
  140OSM   H15B15277   2.430   6.676   6.515  0.4913 -0.4384 -0.0607
  140OSM   H15C15278   2.253   6.667   6.510  0.6946 -2.1655 -0.8714
  140OSM    C1415279   2.465   6.703   6.767  0.2582 -0.7814  0.4871
  140OSM   H14A15280   2.459   6.765   6.855  1.4746  1.6885 -1.0482
  140OSM   H14B15281   2.542   6.748   6.705  0.2810 -0.8269  0.4828
  140OSM   H14C15282   2.484   6.601   6.795  3.0604 -1.0134 -1.8064
  140OSM    C1315283   2.293   6.845   6.685  0.2736  0.7624  0.1285
  140OSM   H13A15284   2.377   6.909   6.667  0.7686 -0.0118 -0.3981
  140OSM   H13B15285   2.252   6.882   6.778 -4.0879  0.6139 -1.5182
  140OSM   H13C15286   2.217   6.853   6.609  3.1315 -0.8409 -3.2173
  140OSM    C1215287   2.226   6.616   6.776 -0.1976 -0.2901 -0.1158
  140OSM   H12A15288   2.264   6.517   6.796  2.8077  0.9676  1.1419
  140OSM   H12B15289   2.137   6.599   6.718  0.6014  1.0111 -1.7911
  140OSM    C1115290   2.191   6.687   6.912 -0.5229  0.1991  0.6172
  140OSM   H11A15291   2.282   6.727   6.962 -0.5322 -0.4681  1.1848
  140OSM   H11B15292   2.153   6.602   6.973 -0.7049  0.0359  0.2777
  140OSM      P15293   1.940   6.742   6.876  0.3431  0.2228 -0.1503
  140OSM    O1315294   1.934   6.624   6.784  0.3933  0.0753  0.1382
  140OSM    O1415295   1.890   6.729   7.014  0.2256 -0.1522  0.3744
  140OSM    O1115296   1.871   6.866   6.807 -0.0718  0.1762 -0.0529
  140OSM    O1215297   2.090   6.788   6.888 -0.3316  0.2094  0.6658
  140OSM    C1S15298   1.929   6.946   6.703  0.2527 -1.1248  0.0326
  140OSM    H1S15299   2.040   6.933   6.705  0.8018  2.4404 -0.4033
  140OSM    H1T15300   1.922   7.052   6.736  1.7932 -1.5405  1.8974
  140OSM     NF15301   1.921   7.018   6.476 -0.4787  0.1666  0.7037
  140OSM    HNF15302   1.871   7.104   6.465  0.5513  0.6315 -0.7618
  140OSM    C2S15303   1.864   6.925   6.571 -0.7883 -0.2231 -0.7316
  140OSM    H2S15304   1.885   6.823   6.531  0.1690  0.1816 -1.3024
  140OSM    C3S15305   1.706   6.937   6.591 -0.8302  0.2149  0.4877
  140OSM    H3S15306   1.695   7.035   6.643  0.0548  1.6139 -1.8333
  140OSM     O315307   1.637   6.848   6.681 -0.3718  0.6988  0.5934
  140OSM    HO315308   1.698   6.816   6.749 -3.2693 -1.6031  2.3924
  140OSM    C4S15309   1.632   6.941   6.459  0.6023  0.6988  0.5100
  140OSM    H4S15310   1.611   7.043   6.422  0.0516  0.1872 -0.6199
  140OSM    C5S15311   1.575   6.843   6.381 -0.1075 -0.3216 -0.3116
  140OSM    H5S15312   1.579   6.743   6.427 -1.4204  0.0915  0.7686
  140OSM    C6S15313   1.492   6.853   6.261 -0.0596 -0.0186  0.0426
  140OSM    H6S15314   1.393   6.901   6.277 -0.5973 -1.1980  0.3337
  140OSM    H6T15315   1.460   6.752   6.227  0.5163  0.2956 -1.5494
  140OSM    C7S15316   1.570   6.920   6.145  0.7302 -0.0939  0.2990
  140OSM    H7S15317   1.654   6.852   6.120  0.1950 -0.7303  0.1989
  140OSM    H7T15318   1.607   7.020   6.178 -1.3507  0.6585  0.5037
  140OSM    C8S15319   1.495   6.928   6.013  0.1986  0.0355 -0.0089
  140OSM    H8S15320   1.404   6.990   6.026 -0.1885 -0.4539 -0.3498
  140OSM    H8T15321   1.457   6.833   5.970 -0.5824  1.5627 -2.9709
  140OSM    C9S15322   1.582   6.997   5.903  0.3277  0.2376 -0.1003
  140OSM    H9S15323   1.686   6.959   5.911 -0.2874 -1.4120  0.4642
  140OSM    H9T15324   1.587   7.105   5.933 -0.2755 -0.6214  3.6942
  140OSM   C10S15325   1.540   6.979   5.761 -0.1558  0.2456  0.8542
  140OSM   H10S15326   1.436   7.015   5.748  0.1693  0.4132 -1.9129
  140OSM   H10T15327   1.526   6.871   5.738  0.1948  0.3936 -0.0910
  140OSM   C11S15328   1.643   7.037   5.654 -0.2528  0.1820  0.2670
  140OSM   H11S15329   1.731   6.973   5.678 -0.0799  1.0180  2.0092
  140OSM   H11T15330   1.683   7.138   5.676 -1.8593  0.5830  1.6348
  140OSM   C12S15331   1.594   7.023   5.506 -0.4148 -0.0532  0.3393
  140OSM   H12S15332   1.510   6.952   5.495 -0.5264  0.1114  0.1189
  140OSM   H12T15333   1.675   6.984   5.440  0.7204  0.2040  1.5212
  140OSM   C13S15334   1.559   7.164   5.448 -0.0576  0.4633  0.0976
  140OSM   H13S15335   1.645   7.233   5.438  0.0810  0.5282  1.5371
  140OSM   H13T15336   1.488   7.203   5.524 -0.8825 -0.2120 -0.3057
  140OSM   C14S15337   1.497   7.151   5.307  0.4402 -0.9526  0.2856
  140OSM   H14S15338   1.389   7.128   5.310 -0.7802  3.7510  0.9142
  140OSM   H14T15339   1.557   7.069   5.263  1.1507  0.3844 -1.3439
  140OSM   C15S15340   1.504   7.286   5.225 -0.7090  0.1657  0.1340
  140OSM   H15S15341   1.609   7.317   5.206 -0.5778 -0.2888  0.0960
  140OSM   H15T15342   1.470   7.374   5.283  0.2965 -0.4669  1.7710
  140OSM   C16S15343   1.419   7.279   5.103 -0.5057 -0.0007  0.2742
  140OSM   H16S15344   1.411   7.382   5.062  1.1500  0.5553  1.2576
  140OSM   H16T15345   1.312   7.256   5.122 -0.9593  2.5776  1.1862
  140OSM   C17S15346   1.469   7.189   4.996  0.6302  0.3409  0.6859
  140OSM   H17S15347   1.425   7.088   5.013 -0.2443  0.5083 -0.4335
  140OSM   H17T15348   1.579   7.175   5.003  0.8773  1.3136 -0.8638
  140OSM   C18S15349   1.438   7.248   4.855 -0.0024  0.8400 -0.3728
  140OSM   H18S15350   1.328   7.247   4.841  0.1477  1.8226 -1.9388
  140OSM   H18T15351   1.474   7.181   4.774 -0.5420  0.4107 -0.2587
  140OSM   H18U15352   1.483   7.350   4.855  1.5501  0.2235 -2.5104
  140OSM    C1F15353   2.044   6.997   6.416  0.6846  0.4109  0.0697
  140OSM     OF15354   2.114   6.897   6.444  0.4017 -0.3305  0.6755
  140OSM    C2F15355   2.072   7.107   6.319  0.0788 -0.0938 -0.0683
  140OSM    H2F15356   2.180   7.110   6.290 -0.5323 -0.3278 -2.5549
  140OSM    H2G15357   2.044   7.204   6.367  1.9547 -0.2884  1.5811
  140OSM    C3F15358   1.997   7.090   6.183 -0.1304 -0.6818  0.0113
  140OSM    H3F15359   1.889   7.065   6.185 -0.1391 -0.7225 -0.6238
  140OSM    H3G15360   2.043   7.005   6.128 -1.2913 -2.2659  1.3873
  140OSM    C4F15361   2.023   7.215   6.109 -1.1416 -0.4682  0.5782
  140OSM    H4F15362   2.131   7.232   6.091 -0.8164 -0.2641  2.4762
  140OSM    H4G15363   1.973   7.301   6.158 -2.1419 -1.0177  0.5556
  140OSM    C5F15364   1.962   7.205   5.967 -0.2217 -0.1187 -0.1282
  140OSM    H5F15365   1.856   7.181   5.993 -0.0352 -0.4695  0.3150
  140OSM    H5G15366   2.005   7.116   5.917  0.4973  0.1913 -0.0654
  140OSM    C6F15367   1.986   7.320   5.880 -0.1538  0.5114 -0.3320
  140OSM    H6F15368   2.093   7.324   5.849 -0.0900 -3.7227 -1.2013
  140OSM    H6G15369   1.967   7.411   5.941  0.6866 -0.2145  1.0711
  140OSM    C7F15370   1.899   7.324   5.757 -1.0108 -0.2147  0.0080
  140OSM    H7F15371   1.792   7.339   5.787 -0.0606  0.1689  3.7473
  140OSM    H7G15372   1.908   7.224   5.711  1.5141 -0.3509  0.6638
  140OSM    C8F15373   1.943   7.419   5.651 -0.1342 -0.4415  0.6007
  140OSM    H8F15374   2.051   7.408   5.627  0.2017  0.7174  1.4374
  140OSM    H8G15375   1.927   7.524   5.686 -0.8429  0.2491 -1.6177
  140OSM    C9F15376   1.873   7.406   5.524 -0.0744  0.2691 -0.3860
  140OSM    H9F15377   1.795   7.483   5.514  1.2503  1.5290 -1.4671
  140OSM   C10F15378   1.910   7.333   5.421 -0.4298  0.1110  0.6213
  140OSM   H10F15379   1.835   7.338   5.341 -0.6610 -1.1182  0.7447
  140OSM   C11F15380   2.023   7.239   5.402  0.5431 -0.2869  0.2452
  140OSM   H11F15381   2.096   7.250   5.485 -0.5078  1.2889  1.0062
  140OSM   H11G15382   2.078   7.261   5.308 -1.8703 -0.5895 -1.3258
  140OSM   C12F15383   1.980   7.088   5.397 -0.0433 -0.0412  0.0514
  140OSM   H12F15384   1.914   7.074   5.485 -0.5676 -1.7653 -0.5697
  140OSM   H12G15385   2.073   7.029   5.405  0.8563  1.2333 -0.6203
  140OSM   C13F15386   1.903   7.038   5.275 -0.0442 -0.1659  0.1099
  140OSM   H13F15387   1.817   7.108   5.271  0.0729 -0.0568 -0.6878
  140OSM   H13G15388   1.871   6.933   5.290 -1.8081  0.4169  0.6636
  140OSM   C14F15389   1.987   7.055   5.149  0.0479  0.2813 -0.4640
  140OSM   H14F15390   2.068   6.981   5.169 -0.4591 -0.5443 -1.3550
  140OSM   H14G15391   2.035   7.154   5.132  1.2352 -0.1586  0.1562
  140OSM   C15F15392   1.934   6.993   5.016 -0.2288  0.4277 -0.0618
  140OSM   H15F15393   1.842   7.055   5.006 -0.1933  1.1175  2.9717
  140OSM   H15G15394   1.895   6.890   5.033 -0.1979  0.3754 -0.3099
  140OSM   C16F15395   2.022   7.005   4.889  0.1467 -0.2768  0.2933
  140OSM   H16F15396   2.109   6.938   4.904  0.4208  0.2136  0.9508
  140OSM   H16G15397   2.059   7.108   4.869 -0.6051 -0.4519 -2.4395
  140OSM   C17F15398   1.938   6.965   4.771  0.6306  0.0514  0.3910
  140OSM   H17F15399   1.904   6.859   4.772  2.1278 -0.4616  1.4836
  140OSM   H17G15400   2.000   6.962   4.679  0.6247  1.0129  0.3471
  140OSM   C18F15401   1.825   7.061   4.733  0.0647 -0.5954  0.1306
  140OSM   H18F15402   1.850   7.169   4.729 -0.5699 -0.4950 -1.6484
  140OSM   H18G15403   1.747   7.059   4.812 -0.7934 -0.1011 -0.6891
  140OSM   H18H15404   1.784   7.023   4.637  0.1426 -2.4922  0.8055
  141OSM      N15405   1.568   0.293   7.076 -0.1892  0.1812  0.3707
  141OSM    C1515406   1.664   0.272   6.959  0.6175  0.4499  0.3388
  141OSM   H15A15407   1.710   0.174   6.967 -1.2463 -0.7450 -2.1935
  141OSM   H15B15408   1.741   0.348   6.966 -0.0971  1.2345 -0.1349
  141OSM   H15C15409   1.607   0.270   6.868 -0.6121  0.4760  1.0839
  141OSM    C1415410   1.500   0.172   7.096  0.2622  0.2183 -0.1964
  141OSM   H14A15411   1.460   0.135   7.003  2.0201 -0.0478 -0.8759
  141OSM   H14B15412   1.413   0.182   7.159  0.3818 -2.1110  0.4454
  141OSM   H14C15413   1.558   0.092   7.141 -1.8844 -0.5920  1.2942
  141OSM    C1315414   1.637   0.326   7.203  0.1689 -0.0558  0.2587
  141OSM   H13A15415   1.731   0.271   7.206 -0.4916 -1.3321 -1.0749
  141OSM   H13B15416   1.586   0.298   7.294 -0.1565 -1.3814 -0.2963
  141OSM   H13C15417   1.666   0.429   7.197  0.5288 -0.0286  1.9979
  141OSM    C1215418   1.476   0.410   7.052  0.0473 -0.0681  0.3090
  141OSM   H12A15419   1.540   0.495   7.032 -0.3088  0.5379  1.6486
  141OSM   H12B15420   1.419   0.436   7.140 -1.7518  0.2155 -0.8650
  141OSM    C1115421   1.385   0.391   6.928  0.2810 -0.5810  0.3512
  141OSM   H11A15422   1.308   0.470   6.939  0.0680 -0.9245  1.4653
  141OSM   H11B15423   1.330   0.296   6.945  1.3268 -1.4625 -0.9476
  141OSM      P15424   1.483   0.513   6.722 -0.6924 -0.1530 -0.0296
  141OSM    O1315425   1.429   0.633   6.795  0.3028 -0.1897  0.3726
  141OSM    O1415426   1.631   0.515   6.687  0.1651 -0.4480  0.2242
  141OSM    O1115427   1.409   0.489   6.589  0.0618  0.5448 -0.2603
  141OSM    O1215428   1.451   0.385   6.801 -0.2839 -0.7191 -0.4179
  141OSM    C1S15429   1.438   0.574   6.475  0.4572  0.1772  0.1859
  141OSM    H1S15430   1.540   0.617   6.462  0.2387  0.3790 -0.9883
  141OSM    H1T15431   1.363   0.655   6.470  0.9066  0.5355 -1.2725
  141OSM     NF15432   1.432   0.579   6.218 -0.5813  0.1839 -0.2919
  141OSM    HNF15433   1.356   0.629   6.178  0.1997  1.8163  0.1591
  141OSM    C2S15434   1.408   0.491   6.338 -0.4054  0.1488 -0.3666
  141OSM    H2S15435   1.473   0.402   6.326 -0.4074  0.3655 -2.2312
  141OSM    C3S15436   1.258   0.451   6.352 -0.3757 -0.2254  0.3305
  141OSM    H3S15437   1.201   0.544   6.371  1.1684  0.8740 -0.1602
  141OSM     O315438   1.219   0.364   6.456  0.3794  0.1704 -0.1773
  141OSM    HO315439   1.298   0.364   6.511  0.8214 -0.7076 -0.7900
  141OSM    C4S15440   1.203   0.380   6.231 -0.6759 -0.6922  0.4739
  141OSM    H4S15441   1.233   0.275   6.227  1.4412 -0.2304  2.0501
  141OSM    C5S15442   1.116   0.423   6.141 -0.0476 -0.0128  0.4926
  141OSM    H5S15443   1.067   0.521   6.138 -2.4846 -1.1538 -0.1385
  141OSM    C6S15444   1.067   0.342   6.028  0.3762  0.7129  0.4049
  141OSM    H6S15445   0.958   0.323   6.020  0.2013  1.6131  0.5458
  141OSM    H6T15446   1.122   0.246   6.014  0.2225  0.5380  0.9564
  141OSM    C7S15447   1.125   0.418   5.901 -0.4502  0.5653 -0.0700
  141OSM    H7S15448   1.236   0.429   5.904 -0.2618 -1.0057 -0.2208
  141OSM    H7T15449   1.098   0.524   5.917  3.2500  1.4813  1.1160
  141OSM    C8S15450   1.085   0.354   5.770 -0.7849  0.1495  0.1866
  141OSM    H8S15451   0.991   0.299   5.789 -1.2827  1.3366  1.2961
  141OSM    H8T15452   1.163   0.278   5.750 -3.2425 -2.1598 -1.2565
  141OSM    C9S15453   1.062   0.452   5.651 -0.3088 -0.8503  0.1350
  141OSM    H9S15454   1.164   0.487   5.624 -0.8920 -0.6404 -1.9821
  141OSM    H9T15455   1.011   0.537   5.702  0.1638 -0.3038 -0.2887
  141OSM   C10S15456   0.977   0.401   5.534  0.4318  1.0567 -0.5727
  141OSM   H10S15457   0.887   0.348   5.572 -0.4300  2.6585 -0.3109
  141OSM   H10T15458   1.035   0.324   5.479  0.1228  1.6313 -1.7196
  141OSM   C11S15459   0.938   0.511   5.436  0.0945  0.6096  0.3691
  141OSM   H11S15460   0.864   0.569   5.496  0.3498  1.1557  0.1607
  141OSM   H11T15461   0.890   0.453   5.354  0.3818  0.8958 -0.0071
  141OSM   C12S15462   1.051   0.601   5.373  0.3098  1.2556 -0.9188
  141OSM   H12S15463   1.128   0.536   5.325 -0.0274 -1.2254  1.6389
  141OSM   H12T15464   1.096   0.659   5.456  4.4326 -3.9044  1.0465
  141OSM   C13S15465   0.993   0.689   5.258  0.3297  0.4825 -0.1628
  141OSM   H13S15466   0.932   0.770   5.305 -1.6858 -0.3276 -1.2869
  141OSM   H13T15467   0.917   0.621   5.215 -0.1572 -0.4405  2.0508
  141OSM   C14S15468   1.102   0.751   5.163 -0.8521  1.2041 -0.6217
  141OSM   H14S15469   1.166   0.665   5.133 -1.9589  0.9366 -2.3476
  141OSM   H14T15470   1.167   0.824   5.216 -0.2816  0.3985 -0.1865
  141OSM   C15S15471   1.038   0.810   5.044  0.5185  0.2544  0.4096
  141OSM   H15S15472   0.955   0.748   5.004  1.8750 -1.6303  0.4034
  141OSM   H15T15473   1.108   0.811   4.958  0.7347 -2.9101  0.4507
  141OSM   C16S15474   0.982   0.953   5.065 -0.3635 -0.0313 -1.2406
  141OSM   H16S15475   0.932   0.962   5.163  0.0409 -0.9991 -0.9346
  141OSM   H16T15476   0.905   0.976   4.988 -0.2698  1.1006 -1.0125
  141OSM   C17S15477   1.100   1.057   5.069 -0.0517  0.2857  0.2198
  141OSM   H17S15478   1.170   1.041   5.153  1.5829 -1.5133 -1.3755
  141OSM   H17T15479   1.064   1.161   5.084 -0.8755  0.1827 -0.8887
  141OSM   C18S15480   1.190   1.067   4.936  0.5627 -0.2042 -0.1744
  141OSM   H18S15481   1.234   0.969   4.909 -2.5189 -1.4866 -0.9341
  141OSM   H18T15482   1.272   1.142   4.947  0.1854  0.1047  0.5892
  141OSM   H18U15483   1.140   1.119   4.852 -1.2353  1.2911  1.7118
  141OSM    C1F15484   1.560   0.623   6.192 -0.5891 -0.3218  0.0323
  141OSM     OF15485   1.663   0.592   6.251  0.0853  0.3877 -0.0726
  141OSM    C2F15486   1.571   0.714   6.078 -0.0678 -0.0401  1.5530
  141OSM    H2F15487   1.666   0.769   6.063  0.5599 -1.6228 -0.9273
  141OSM    H2G15488   1.494   0.794   6.085 -1.0060 -0.0724 -3.9801
  141OSM    C3F15489   1.541   0.631   5.947 -0.6066  0.3182  0.0047
  141OSM    H3F15490   1.447   0.572   5.949 -1.2805  1.3633  0.3252
  141OSM    H3G15491   1.610   0.545   5.939 -0.8532  0.0314  0.8448
  141OSM    C4F15492   1.547   0.716   5.817  0.2331  0.0315 -0.9918
  141OSM    H4F15493   1.648   0.762   5.815  0.7643 -1.1045 -2.9713
  141OSM    H4G15494   1.478   0.802   5.836  0.5510 -0.1577  1.3065
  141OSM    C5F15495   1.520   0.639   5.685 -0.2206 -0.6827 -0.3573
  141OSM    H5F15496   1.426   0.581   5.693  0.4712 -1.5699  2.0814
  141OSM    H5G15497   1.604   0.567   5.674 -1.4600 -2.4694  1.1769
  141OSM    C6F15498   1.511   0.711   5.552 -0.1695  0.8958 -0.5561
  141OSM    H6F15499   1.521   0.631   5.475  2.8077  1.1205 -0.4925
  141OSM    H6G15500   1.591   0.785   5.536  0.5232 -0.3798 -4.0283
  141OSM    C7F15501   1.376   0.785   5.526  0.7100  0.3123  0.8101
  141OSM    H7F15502   1.354   0.866   5.599 -0.3364 -1.4466  2.5332
  141OSM    H7G15503   1.293   0.712   5.537  0.9951 -0.0538  0.5660
  141OSM    C8F15504   1.369   0.848   5.389  0.5840 -0.1096 -0.4449
  141OSM    H8F15505   1.271   0.899   5.375  0.6561 -0.2143 -1.3403
  141OSM    H8G15506   1.378   0.773   5.307 -2.1046 -1.4773  0.3687
  141OSM    C9F15507   1.470   0.959   5.377 -0.0780  1.1593 -0.2463
  141OSM    H9F15508   1.509   1.007   5.468  0.7017 -1.1165  0.6996
  141OSM   C10F15509   1.509   1.009   5.262 -0.2940  0.9562  0.4820
  141OSM   H10F15510   1.582   1.092   5.261 -0.8220  1.4306  0.4129
  141OSM   C11F15511   1.475   0.972   5.116  0.0126  0.3539  0.2531
  141OSM   H11F15512   1.447   1.057   5.051 -0.0863 -0.9009 -1.4280
  141OSM   H11G15513   1.390   0.900   5.124  1.4617 -1.3473  1.1795
  141OSM   C12F15514   1.593   0.905   5.045  0.4442 -1.1188 -0.4929
  141OSM   H12F15515   1.610   0.823   5.118 -0.9966 -0.8187  0.2050
  141OSM   H12G15516   1.678   0.975   5.030  0.5820 -1.3157 -0.6551
  141OSM   C13F15517   1.568   0.837   4.912 -0.4582 -0.0314  0.4296
  141OSM   H13F15518   1.472   0.782   4.913 -1.3976  1.4201 -1.8667
  141OSM   H13G15519   1.650   0.771   4.877 -1.2067  0.2475 -2.0012
  141OSM   C14F15520   1.570   0.939   4.795  0.4728  0.9452 -0.2088
  141OSM   H14F15521   1.666   0.990   4.770 -0.6319  2.5037 -1.4820
  141OSM   H14G15522   1.506   1.024   4.827  0.3655  0.4188  1.0321
  141OSM   C15F15523   1.507   0.878   4.669  0.5021  0.2898 -0.1995
  141OSM   H15F15524   1.469   0.953   4.597 -1.3059 -0.7034 -0.3649
  141OSM   H15G15525   1.410   0.836   4.704 -0.7805  2.1421 -1.3773
  141OSM   C16F15526   1.580   0.764   4.603  0.3579 -0.3364 -0.4326
  141OSM   H16F15527   1.546   0.766   4.498  1.0916  0.1358 -0.6677
  141OSM   H16G15528   1.553   0.667   4.651 -1.1154 -0.3441 -1.2442
  141OSM   C17F15529   1.736   0.770   4.603 -0.1529 -0.2410  0.5403
  141OSM   H17F15530   1.761   0.674   4.553 -2.8793  0.5970 -2.8764
  141OSM   H17G15531   1.768   0.771   4.709  1.5947  1.4224  0.0329
  141OSM   C18F15532   1.793   0.891   4.533 -0.8142 -0.0048  0.4303
  141OSM   H18F15533   1.738   0.986   4.549 -2.8336 -1.2923  1.4611
  141OSM   H18G15534   1.800   0.879   4.422  1.2626  2.6225  0.1619
  141OSM   H18H15535   1.897   0.902   4.570 -0.0075  0.7046 -1.8782
  142OSM      N15536   0.697   6.700   6.814 -0.1495 -0.4459  0.0710
  142OSM    C1515537   0.612   6.720   6.693 -0.4570  0.4684 -0.0089
  142OSM   H15A15538   0.575   6.627   6.653 -1.3691  1.6331 -2.0378
  142OSM   H15B15539   0.672   6.760   6.612  1.9436  0.2599  1.5463
  142OSM   H15C15540   0.526   6.774   6.729 -1.4462 -1.9219  1.4013
  142OSM    C1415541   0.743   6.833   6.869 -0.2271  0.4528 -0.0665
  142OSM   H14A15542   0.652   6.886   6.892 -1.9089 -1.3367 -2.0977
  142OSM   H14B15543   0.799   6.892   6.798 -0.1844 -0.4883 -0.8384
  142OSM   H14C15544   0.800   6.817   6.959 -1.1849 -1.1366  0.2974
  142OSM    C1315545   0.614   6.634   6.916  0.4725  0.7722 -0.1379
  142OSM   H13A15546   0.508   6.655   6.914  0.3019 -0.0541 -0.3413
  142OSM   H13B15547   0.654   6.653   7.014 -0.9552 -0.1223  0.6494
  142OSM   H13C15548   0.623   6.530   6.887  1.4650  1.2443 -1.6628
  142OSM    C1215549   0.819   6.611   6.773  0.7851 -0.4210 -0.7030
  142OSM   H12A15550   0.865   6.577   6.865  1.6150  0.2657 -0.8542
  142OSM   H12B15551   0.892   6.669   6.719  1.7087  0.6962  1.6477
  142OSM    C1115552   0.784   6.477   6.697 -0.1221  0.4240 -0.0776
  142OSM   H11A15553   0.878   6.425   6.671 -0.9755 -1.9464  1.2508
  142OSM   H11B15554   0.739   6.506   6.600 -0.9650 -2.5216 -0.6624
  142OSM      P15555   0.736   6.273   6.853 -0.2114  0.0746 -0.3317
  142OSM    O1315556   0.831   6.325   6.958 -0.1678 -0.1113  0.5592
  142OSM    O1415557   0.617   6.203   6.892  0.0264  0.3680 -0.1229
  142OSM    O1115558   0.820   6.186   6.762  0.0546  0.5908 -0.1893
  142OSM    O1215559   0.689   6.393   6.762  0.6042 -0.6551  0.6377
  142OSM    C1S15560   0.779   6.120   6.641  0.8001  0.2364 -0.8010
  142OSM    H1S15561   0.696   6.178   6.594 -0.9965  0.0980  1.9674
  142OSM    H1T15562   0.727   6.023   6.657  1.1191  0.2723  0.5634
  142OSM     NF15563   0.843   6.096   6.406  0.6048  0.1961 -0.8186
  142OSM    HNF15564   0.833   6.001   6.378  1.5749 -0.8865  2.1273
  142OSM    C2S15565   0.892   6.102   6.543 -0.4274 -0.3659  0.5290
  142OSM    H2S15566   0.950   6.196   6.545 -3.2029  1.5628 -1.3388
  142OSM    C3S15567   0.982   5.986   6.595  0.5441 -0.7201  0.9137
  142OSM    H3S15568   0.927   5.889   6.593  0.5313 -0.7252  1.4241
  142OSM     O315569   1.022   6.010   6.727  0.0032 -0.5043  0.1140
  142OSM    HO315570   0.948   6.063   6.757  2.0232  1.9469  1.1829
  142OSM    C4S15571   1.108   5.975   6.515 -0.2066  0.1064  0.1060
  142OSM    H4S15572   1.165   6.065   6.490  4.5564 -3.1076 -1.9382
  142OSM    C5S15573   1.148   5.864   6.442 -0.4526 -0.0689 -0.1618
  142OSM    H5S15574   1.086   5.772   6.445 -1.2892  0.4342 -1.1910
  142OSM    C6S15575   1.269   5.881   6.350 -0.1759  0.0018  0.6621
  142OSM    H6S15576   1.356   5.837   6.403 -0.9777 -1.9369  0.4531
  142OSM    H6T15577   1.292   5.987   6.328  2.3851 -0.2144  1.9910
  142OSM    C7S15578   1.247   5.819   6.216 -0.4696 -0.5442  0.4257
  142OSM    H7S15579   1.208   5.716   6.219 -0.3920 -0.6479 -1.4827
  142OSM    H7T15580   1.345   5.804   6.165 -0.5637  0.6674 -0.1477
  142OSM    C8S15581   1.159   5.915   6.136  0.5365  0.7953  0.1808
  142OSM    H8S15582   1.212   6.009   6.112  1.8383  0.4544  1.5287
  142OSM    H8T15583   1.071   5.950   6.194  0.0064 -0.3575  0.0964
  142OSM    C9S15584   1.115   5.853   6.002 -0.6809 -0.0575  0.5111
  142OSM    H9S15585   1.054   5.760   6.004 -0.5371 -0.1427  0.9576
  142OSM    H9T15586   1.209   5.845   5.944 -2.6507  1.4438 -3.2983
  142OSM   C10S15587   1.025   5.947   5.914  0.4331 -0.0331  0.0560
  142OSM   H10S15588   1.057   6.053   5.930  2.3991 -0.5786 -0.0671
  142OSM   H10T15589   0.922   5.932   5.954 -0.5058  0.7021 -1.9594
  142OSM   C11S15590   1.014   5.903   5.762  0.2231 -0.3742  0.2706
  142OSM   H11S15591   0.916   5.939   5.722  1.0005  0.1533 -1.2230
  142OSM   H11T15592   1.028   5.793   5.767 -0.0643 -0.4224  0.0483
  142OSM   C12S15593   1.124   5.961   5.671  0.4450  0.0839 -0.3744
  142OSM   H12S15594   1.220   5.922   5.712  0.3105  0.6497  0.5168
  142OSM   H12T15595   1.117   6.071   5.681 -0.0658  0.0873 -0.7411
  142OSM   C13S15596   1.102   5.938   5.522 -0.2296  0.4283 -0.4709
  142OSM   H13S15597   1.176   5.993   5.459  3.2093 -2.2241  0.9550
  142OSM   H13T15598   0.999   5.972   5.497  0.0686  0.0081 -2.4478
  142OSM   C14S15599   1.121   5.798   5.470  0.6404 -0.6483 -0.1271
  142OSM   H14S15600   1.090   5.724   5.548 -0.8017 -1.1393 -1.1299
  142OSM   H14T15601   1.230   5.781   5.456  0.6021  0.1322 -1.5322
  142OSM   C15S15602   1.044   5.771   5.349 -0.7159 -0.0778  0.5042
  142OSM   H15S15603   0.941   5.806   5.370 -1.3544 -0.8862 -1.1228
  142OSM   H15T15604   1.018   5.665   5.327 -0.8180  0.4673 -2.2745
  142OSM   C16S15605   1.097   5.831   5.222  0.1394  0.0444  0.5774
  142OSM   H16S15606   1.199   5.790   5.204  1.1677  2.4101  0.5749
  142OSM   H16T15607   1.104   5.941   5.235  0.6282  0.3867 -2.0152
  142OSM   C17S15608   1.010   5.807   5.089  0.1721  0.4791 -0.0770
  142OSM   H17S15609   0.904   5.823   5.119  0.5438  0.8066  1.1092
  142OSM   H17T15610   1.025   5.706   5.045 -2.1894 -0.5832  1.3793
  142OSM   C18S15611   1.048   5.910   4.983 -0.9990  0.1793  0.0484
  142OSM   H18S15612   1.004   5.890   4.883  1.9094 -1.1376 -1.0905
  142OSM   H18T15613   1.158   5.904   4.968 -0.9551  1.2762 -0.1520
  142OSM   H18U15614   1.014   6.007   5.025 -2.3808 -0.0463 -0.4953
  142OSM    C1F15615   0.790   6.191   6.340  0.2915 -0.6685  0.5571
  142OSM     OF15616   0.805   6.307   6.379  0.0046  0.1551 -0.0246
  142OSM    C2F15617   0.707   6.161   6.216 -0.1229  0.1405 -0.9632
  142OSM    H2F15618   0.598   6.153   6.239  0.0777  1.0268  0.4448
  142OSM    H2G15619   0.737   6.060   6.181  2.3946  0.0965  1.0538
  142OSM    C3F15620   0.732   6.261   6.113  0.3069 -0.6989  0.3327
  142OSM    H3F15621   0.731   6.365   6.150  0.3125 -0.6109  0.0905
  142OSM    H3G15622   0.641   6.267   6.050  1.0767 -0.0767 -0.7755
  142OSM    C4F15623   0.850   6.247   6.021  0.5863  1.1458 -0.3520
  142OSM    H4F15624   0.845   6.143   5.983 -2.2389  1.2457 -0.4030
  142OSM    H4G15625   0.920   6.248   6.108 -0.5856 -0.0706  0.6290
  142OSM    C5F15626   0.865   6.350   5.916  0.0235  0.4678 -0.0943
  142OSM    H5F15627   0.920   6.442   5.947  1.8614 -0.4103 -0.6330
  142OSM    H5G15628   0.764   6.371   5.874  0.0840 -2.4518 -1.9838
  142OSM    C6F15629   0.949   6.289   5.799  0.9778 -1.2544 -0.4166
  142OSM    H6F15630   0.906   6.189   5.779 -0.4583 -0.5998 -0.7315
  142OSM    H6G15631   1.057   6.283   5.827  0.7195  0.7930  1.3157
  142OSM    C7F15632   0.930   6.362   5.671 -0.5149 -0.7891 -0.3244
  142OSM    H7F15633   0.964   6.467   5.672  0.0569 -0.9672 -0.0184
  142OSM    H7G15634   0.823   6.363   5.642 -0.5581 -0.4626 -0.1485
  142OSM    C8F15635   0.996   6.289   5.551  0.4074 -0.1227 -0.7681
  142OSM    H8F15636   0.943   6.191   5.546 -1.3535  0.7576 -0.2593
  142OSM    H8G15637   1.105   6.283   5.574  0.3505 -0.4983 -0.5775
  142OSM    C9F15638   0.976   6.350   5.418 -0.2987 -1.3333 -0.6458
  142OSM    H9F15639   0.871   6.378   5.399  0.2281  1.4987  0.1498
  142OSM   C10F15640   1.077   6.380   5.335  0.0133 -0.2522 -0.1027
  142OSM   H10F15641   1.053   6.433   5.241  1.0456  2.1810  0.8983
  142OSM   C11F15642   1.226   6.349   5.344  0.3418  0.1474 -0.3404
  142OSM   H11F15643   1.238   6.254   5.400 -3.2222 -0.1372  0.2053
  142OSM   H11G15644   1.279   6.419   5.412 -0.7597 -0.0355  0.7388
  142OSM   C12F15645   1.296   6.330   5.209  0.0050 -0.0759 -0.2733
  142OSM   H12F15646   1.398   6.290   5.228 -1.0864 -1.9436  2.1216
  142OSM   H12G15647   1.305   6.430   5.161  1.5601  0.4024  0.9122
  142OSM   C13F15648   1.227   6.226   5.118  0.2462 -0.2700  0.1195
  142OSM   H13F15649   1.119   6.251   5.109  0.5640  1.1749  0.1046
  142OSM   H13G15650   1.244   6.123   5.157  3.7649 -0.5258 -1.6689
  142OSM   C14F15651   1.282   6.217   4.974 -0.4667  0.3061  0.5181
  142OSM   H14F15652   1.213   6.153   4.916  0.1741 -0.0089  0.0953
  142OSM   H14G15653   1.375   6.156   4.974 -0.8623 -0.3036  0.8210
  142OSM   C15F15654   1.310   6.360   4.922  0.2515 -0.2280  0.3349
  142OSM   H15F15655   1.395   6.403   4.979  2.2011 -3.4465  0.0981
  142OSM   H15G15656   1.219   6.423   4.935 -0.8151 -1.4938 -0.7050
  142OSM   C16F15657   1.344   6.351   4.776 -0.2988 -0.7188 -0.1965
  142OSM   H16F15658   1.253   6.318   4.721 -1.3990  1.9027 -0.1076
  142OSM   H16G15659   1.427   6.278   4.764  0.6993  0.6003 -1.6259
  142OSM   C17F15660   1.389   6.477   4.707  0.2246  0.1101  0.1309
  142OSM   H17F15661   1.445   6.545   4.774  2.6562 -1.1824 -0.4794
  142OSM   H17G15662   1.301   6.541   4.683 -0.0163 -0.4346 -0.4737
  142OSM   C18F15663   1.460   6.467   4.575 -0.2881  0.7295 -0.7756
  142OSM   H18F15664   1.394   6.414   4.503 -1.4881  0.0826  0.7543
  142OSM   H18G15665   1.550   6.408   4.601 -2.5341 -1.8155  2.0679
  142OSM   H18H15666   1.489   6.568   4.538  1.2286  1.2199  1.5380
  143OSM      N15667   0.831   4.329   7.096 -0.7509 -0.2648  0.2662
  143OSM    C1515668   0.724   4.233   7.136 -0.6317 -0.5274  0.2712
  143OSM   H15A15669   0.772   4.141   7.166  0.3217  0.0170  0.4738
  143OSM   H15B15670   0.672   4.221   7.043 -1.1690  1.4580  0.2651
  143OSM   H15C15671   0.654   4.270   7.210 -1.1388 -1.8025  0.4536
  143OSM    C1415672   0.774   4.450   7.024 -0.0966  0.6340 -0.5288
  143OSM   H14A15673   0.723   4.411   6.938  1.1743 -0.4658 -0.8159
  143OSM   H14B15674   0.842   4.526   6.989  0.8904  0.8130  1.6087
  143OSM   H14C15675   0.701   4.493   7.090  1.3173 -0.2975  1.7835
  143OSM    C1315676   0.899   4.376   7.224  0.3794 -0.2278  0.3017
  143OSM   H13A15677   0.823   4.418   7.288 -0.7376 -1.0337 -0.4501
  143OSM   H13B15678   0.976   4.443   7.190  0.8645 -1.3649 -0.9628
  143OSM   H13C15679   0.938   4.293   7.281  0.7965 -0.8526 -0.8440
  143OSM    C1215680   0.929   4.253   7.007 -0.2122  0.7407 -0.7178
  143OSM   H12A15681   0.988   4.186   7.068 -0.0830  2.0839  0.7045
  143OSM   H12B15682   1.003   4.331   6.993 -1.0620  1.9635  1.1975
  143OSM    C1115683   0.893   4.194   6.876 -0.1359 -0.0873 -0.7319
  143OSM   H11A15684   0.995   4.180   6.835  0.6445 -1.3585  1.4514
  143OSM   H11B15685   0.836   4.269   6.817 -1.2037 -1.4209 -1.4604
  143OSM      P15686   0.899   3.938   6.918 -0.0221  0.0704  0.2708
  143OSM    O1315687   0.988   3.958   7.038  0.0374  0.0325  0.5152
  143OSM    O1415688   0.818   3.814   6.920  0.3185  0.0008 -0.0914
  143OSM    O1115689   0.992   3.935   6.798  0.8225  0.2616  0.7882
  143OSM    O1215690   0.820   4.071   6.896  0.2647  0.5772 -0.6406
  143OSM    C1S15691   0.948   3.906   6.664 -0.0458 -0.5641 -0.8546
  143OSM    H1S15692   0.884   3.988   6.624  0.5933  0.4757  0.2095
  143OSM    H1T15693   0.888   3.812   6.665  2.3008 -2.1435  0.0429
  143OSM     NF15694   1.004   3.888   6.428 -0.2882 -0.1174  0.3560
  143OSM    HNF15695   1.002   3.803   6.376 -0.8502 -0.2904  0.6637
  143OSM    C2S15696   1.063   3.892   6.561 -0.6721  0.2946  0.2221
  143OSM    H2S15697   1.119   3.988   6.569  2.8997 -1.6793  1.3610
  143OSM    C3S15698   1.162   3.777   6.592 -0.2131  0.5909 -0.3674
  143OSM    H3S15699   1.101   3.685   6.598  0.6733  0.0408  0.5314
  143OSM     O315700   1.210   3.799   6.720 -0.4520 -0.0141 -0.2838
  143OSM    HO315701   1.139   3.854   6.755 -0.6302  0.5564 -1.5034
  143OSM    C4S15702   1.261   3.766   6.481  0.4582 -0.0713 -0.6493
  143OSM    H4S15703   1.216   3.727   6.389  2.3030 -2.1579 -0.7702
  143OSM    C5S15704   1.395   3.795   6.481 -0.1878  0.2026  0.5938
  143OSM    H5S15705   1.444   3.840   6.569  1.4353  1.5938 -0.9578
  143OSM    C6S15706   1.474   3.779   6.357 -0.8642 -0.5935 -0.3061
  143OSM    H6S15707   1.581   3.757   6.376 -0.3126  1.1794 -1.1055
  143OSM    H6T15708   1.480   3.880   6.310  0.3585  0.5206  2.0645
  143OSM    C7S15709   1.436   3.673   6.253 -0.3290 -0.3988  0.3957
  143OSM    H7S15710   1.333   3.688   6.216 -0.0945 -1.0100 -0.5285
  143OSM    H7T15711   1.426   3.571   6.297  1.4068 -1.0929 -0.7295
  143OSM    C8S15712   1.524   3.668   6.126  0.0403  0.4513  0.6527
  143OSM    H8S15713   1.619   3.614   6.146 -0.9988 -1.4011  0.8467
  143OSM    H8T15714   1.541   3.775   6.104  3.1582 -0.0782 -0.0422
  143OSM    C9S15715   1.450   3.614   6.001  0.5090  0.0358 -0.1959
  143OSM    H9S15716   1.355   3.672   5.992 -0.8165 -2.0718 -0.5937
  143OSM    H9T15717   1.424   3.505   6.003  0.7271 -0.0452 -1.1284
  143OSM   C10S15718   1.523   3.638   5.870 -0.3914 -0.2839 -0.7631
  143OSM   H10S15719   1.625   3.594   5.866  0.7904  2.0941  0.7722
  143OSM   H10T15720   1.537   3.749   5.867 -0.1926 -0.2797  0.1567
  143OSM   C11S15721   1.447   3.582   5.755  0.2588  0.2367 -0.4175
  143OSM   H11S15722   1.347   3.623   5.731 -0.2437 -2.1268 -2.8850
  143OSM   H11T15723   1.430   3.474   5.779  1.2544  0.7384  3.1792
  143OSM   C12S15724   1.521   3.576   5.624  0.2987 -0.2415  0.5309
  143OSM   H12S15725   1.622   3.530   5.627 -0.3532 -1.7329  0.3412
  143OSM   H12T15726   1.537   3.677   5.581 -2.4078  1.1343  2.4652
  143OSM   C13S15727   1.436   3.504   5.509  0.1929 -0.0099 -0.8061
  143OSM   H13S15728   1.333   3.546   5.513  0.7669  1.3618  1.1476
  143OSM   H13T15729   1.443   3.396   5.535  1.2669  0.2783  0.1856
  143OSM   C14S15730   1.491   3.509   5.371  0.4653 -0.2906  0.0926
  143OSM   H14S15731   1.590   3.458   5.366 -0.1388 -1.5779  0.8981
  143OSM   H14T15732   1.489   3.611   5.326 -1.3652 -0.1846  0.3444
  143OSM   C15S15733   1.407   3.439   5.266 -0.4477  1.1437 -0.0659
  143OSM   H15S15734   1.312   3.496   5.260  0.2336  2.1794 -1.9002
  143OSM   H15T15735   1.397   3.332   5.293 -1.5504  1.5981  1.4366
  143OSM   C16S15736   1.475   3.431   5.129 -0.5220 -0.7756  0.2306
  143OSM   H16S15737   1.580   3.396   5.137 -0.7203 -1.2513  0.8076
  143OSM   H16T15738   1.480   3.536   5.092 -0.1424 -0.3765  1.3612
  143OSM   C17S15739   1.396   3.340   5.035  0.1647  0.5754  0.6551
  143OSM   H17S15740   1.303   3.390   5.003  1.0885  1.2330 -1.0994
  143OSM   H17T15741   1.368   3.255   5.101  0.0191 -0.3901 -0.6150
  143OSM   C18S15742   1.475   3.292   4.913 -0.2973 -0.1368 -0.1587
  143OSM   H18S15743   1.417   3.268   4.821  1.1128 -1.3802 -0.7593
  143OSM   H18T15744   1.535   3.203   4.939  0.7090  0.2262 -1.1878
  143OSM   H18U15745   1.546   3.375   4.896  0.0724 -0.8786 -2.5105
  143OSM    C1F15746   0.941   3.993   6.374  0.1606 -0.3735  0.1708
  143OSM     OF15747   0.944   4.108   6.428  0.7154 -0.2304 -0.3823
  143OSM    C2F15748   0.860   3.978   6.251 -0.2320  0.6543  0.3749
  143OSM    H2F15749   0.780   3.901   6.257  0.9500 -0.6731 -0.2978
  143OSM    H2G15750   0.923   3.944   6.166 -0.4145  1.2273  0.0059
  143OSM    C3F15751   0.786   4.108   6.208 -0.3698  0.1479  0.3698
  143OSM    H3F15752   0.863   4.186   6.193  0.2028 -0.6786 -1.2461
  143OSM    H3G15753   0.706   4.144   6.276 -2.1646  0.0735 -1.5966
  143OSM    C4F15754   0.718   4.103   6.072 -0.6831  0.2169  0.2113
  143OSM    H4F15755   0.660   4.197   6.062  0.0392  0.5803 -0.6338
  143OSM    H4G15756   0.647   4.018   6.081 -0.0965 -0.3130 -0.0430
  143OSM    C5F15757   0.824   4.100   5.958 -0.4830 -0.3096 -0.5690
  143OSM    H5F15758   0.872   4.000   5.952  3.1459  1.2258  0.2872
  143OSM    H5G15759   0.892   4.185   5.977 -0.1437 -0.7568  0.2793
  143OSM    C6F15760   0.759   4.129   5.822 -0.3146 -0.4824 -0.4045
  143OSM    H6F15761   0.722   4.234   5.825 -1.0381 -0.5413 -3.6943
  143OSM    H6G15762   0.669   4.069   5.800 -1.6000  1.4266 -0.5939
  143OSM    C7F15763   0.859   4.109   5.709 -0.1694  0.2703 -0.0386
  143OSM    H7F15764   0.893   4.004   5.722 -3.3198 -0.7932  0.3963
  143OSM    H7G15765   0.951   4.169   5.726  3.2836 -3.8858 -2.0822
  143OSM    C8F15766   0.813   4.144   5.571  0.4290  0.6726  0.6827
  143OSM    H8F15767   0.905   4.125   5.511  1.5352  0.8692  2.2428
  143OSM    H8G15768   0.785   4.251   5.560  0.0765  0.4123 -1.1378
  143OSM    C9F15769   0.705   4.043   5.516  0.7809  0.1228 -0.2531
  143OSM    H9F15770   0.623   4.026   5.586 -0.5423 -1.0879 -2.0191
  143OSM   C10F15771   0.713   3.966   5.408  0.5629  0.0487  0.2291
  143OSM   H10F15772   0.621   3.911   5.383  0.4331  0.8557 -1.1426
  143OSM   C11F15773   0.823   3.968   5.303 -0.7153 -0.0068 -0.2527
  143OSM   H11F15774   0.881   3.874   5.307 -0.3444  0.2230 -0.1788
  143OSM   H11G15775   0.907   4.039   5.319 -0.3924 -0.4145 -0.1335
  143OSM   C12F15776   0.763   3.992   5.166  0.0334 -0.3132  0.2036
  143OSM   H12F15777   0.720   4.095   5.165 -1.8669 -0.9794  2.4995
  143OSM   H12G15778   0.677   3.925   5.147 -0.1784  0.3186 -1.1754
  143OSM   C13F15779   0.871   3.979   5.056  0.1131 -0.4483  0.9743
  143OSM   H13F15780   0.919   3.879   5.059  0.4459 -0.3744 -0.8672
  143OSM   H13G15781   0.942   4.062   5.078 -1.4587  2.0817 -2.5973
  143OSM   C14F15782   0.812   3.992   4.915  0.0001 -0.1304  0.1759
  143OSM   H14F15783   0.898   4.013   4.849  1.8691 -0.5222  2.3466
  143OSM   H14G15784   0.742   4.079   4.925  0.2792  0.1274 -0.1006
  143OSM   C15F15785   0.741   3.867   4.877  0.4518 -0.4130  0.2208
  143OSM   H15F15786   0.645   3.856   4.932  1.6567  1.5809  2.9559
  143OSM   H15G15787   0.813   3.787   4.904 -0.5168 -0.7388  2.0271
  143OSM   C16F15788   0.721   3.856   4.725 -0.3600  0.8481  0.4517
  143OSM   H16F15789   0.818   3.882   4.679  0.8758 -2.3479  0.9983
  143OSM   H16G15790   0.647   3.925   4.680 -1.2078 -0.9669 -1.0869
  143OSM   C17F15791   0.699   3.704   4.690  0.7012  0.1266  0.1420
  143OSM   H17F15792   0.771   3.636   4.739  3.1920  2.3577 -0.1563
  143OSM   H17G15793   0.720   3.682   4.583  1.7396 -2.2019  0.7658
  143OSM   C18F15794   0.559   3.654   4.729  0.2330 -0.5066  0.0102
  143OSM   H18F15795   0.486   3.715   4.671  1.3171  0.5078 -0.3324
  143OSM   H18G15796   0.524   3.673   4.832 -1.2380  0.9787 -0.7082
  143OSM   H18H15797   0.556   3.549   4.694 -1.7165 -0.1930 -0.9144
  144OSM      N15798   2.324   3.047   7.068 -0.9798 -0.0278 -0.1074
  144OSM    C1515799   2.425   3.063   7.170 -0.1363 -0.0687 -0.6635
  144OSM   H15A15800   2.492   3.146   7.150 -0.0317  0.0258  0.0703
  144OSM   H15B15801   2.487   2.978   7.191  1.3365  1.1895  0.3305
  144OSM   H15C15802   2.381   3.067   7.268  1.2555  2.3048 -0.0616
  144OSM    C1415803   2.220   2.950   7.102 -0.4448 -0.8689 -0.2593
  144OSM   H14A15804   2.271   2.855   7.103  1.8967  0.3076 -0.3327
  144OSM   H14B15805   2.144   2.940   7.026  1.2912  1.5419 -2.5097
  144OSM   H14C15806   2.185   2.976   7.201  0.7004  0.8075 -0.2488
  144OSM    C1315807   2.260   3.179   7.044  0.5734 -0.2092 -0.1862
  144OSM   H13A15808   2.333   3.257   7.027  0.4568  0.1412  0.8383
  144OSM   H13B15809   2.204   3.204   7.132 -0.2450 -0.6790 -0.5617
  144OSM   H13C15810   2.180   3.169   6.972 -0.7609 -0.2986  1.2697
  144OSM    C1215811   2.397   2.996   6.943 -0.1466  0.2032  0.1694
  144OSM   H12A15812   2.441   2.898   6.954  1.5127  0.8874 -0.0535
  144OSM   H12B15813   2.491   3.048   6.930  0.7207 -1.8350 -2.6769
  144OSM    C1115814   2.320   2.989   6.807  0.6876  0.5786  0.6443
  144OSM   H11A15815   2.396   2.959   6.732 -0.1880  1.2843 -0.5706
  144OSM   H11B15816   2.278   3.079   6.757 -2.2781 -1.2954 -0.5433
  144OSM      P15817   2.239   2.735   6.806 -0.0583  0.4522  0.2318
  144OSM    O1315818   2.338   2.711   6.916  0.3966  0.4312  0.0938
  144OSM    O1415819   2.115   2.658   6.821  0.3902  0.6201 -0.2644
  144OSM    O1115820   2.300   2.713   6.662 -0.2193  0.4489  0.3859
  144OSM    O1215821   2.208   2.894   6.800  0.3504  0.4024 -0.0656
  144OSM    C1S15822   2.242   2.790   6.551 -0.1747 -0.2747 -0.1088
  144OSM    H1S15823   2.240   2.900   6.569  0.4228 -0.3842  0.6906
  144OSM    H1T15824   2.133   2.771   6.547 -0.9796  3.5697 -0.2674
  144OSM     NF15825   2.230   2.799   6.285 -0.0221 -0.2331 -0.0775
  144OSM    HNF15826   2.149   2.759   6.244  0.5022 -0.0563 -1.3356
  144OSM    C2S15827   2.297   2.743   6.406 -0.8297  0.2075  0.2348
  144OSM    H2S15828   2.402   2.777   6.420 -1.0910  0.6359  1.2461
  144OSM    C3S15829   2.298   2.589   6.401  0.0423  0.1286 -0.6457
  144OSM    H3S15830   2.193   2.557   6.419 -0.4844  1.2773 -1.5910
  144OSM     O315831   2.380   2.527   6.504 -0.0073 -0.8093  0.1731
  144OSM    HO315832   2.401   2.603   6.559 -0.8640  1.2704 -2.1981
  144OSM    C4S15833   2.323   2.529   6.269  0.3102  0.5152  0.4988
  144OSM    H4S15834   2.234   2.521   6.205  0.3615  0.0354  0.4896
  144OSM    C5S15835   2.438   2.494   6.203  0.4740  0.3363  0.2125
  144OSM    H5S15836   2.534   2.504   6.255  0.5357  3.0117 -0.2674
  144OSM    C6S15837   2.435   2.458   6.057 -0.0041  0.1388 -0.0754
  144OSM    H6S15838   2.480   2.357   6.045 -1.1556 -0.2143 -1.7970
  144OSM    H6T15839   2.512   2.524   6.011 -1.6792 -0.1189 -3.6184
  144OSM    C7S15840   2.319   2.467   5.959  0.2079  0.2362  0.1014
  144OSM    H7S15841   2.231   2.422   6.010  0.4999 -0.1522  0.2650
  144OSM    H7T15842   2.347   2.398   5.876 -0.0918 -0.7516  0.7943
  144OSM    C8S15843   2.281   2.608   5.913 -0.9077 -0.0518  0.1539
  144OSM    H8S15844   2.375   2.657   5.877 -0.8544 -1.0122 -1.0715
  144OSM    H8T15845   2.258   2.669   6.003  0.5144  0.8754 -0.0710
  144OSM    C9S15846   2.161   2.617   5.817  0.1006  0.0448  0.0602
  144OSM    H9S15847   2.113   2.718   5.814 -0.2166 -0.1090 -0.0688
  144OSM    H9T15848   2.080   2.545   5.843  0.7947 -0.6711  0.2639
  144OSM   C10S15849   2.206   2.578   5.674  0.1994  0.0845 -0.3795
  144OSM   H10S15850   2.249   2.476   5.667 -0.8417 -0.2595 -3.0887
  144OSM   H10T15851   2.290   2.645   5.645  0.0588  0.7493  0.6980
  144OSM   C11S15852   2.097   2.612   5.568  0.2425 -0.8850 -0.8302
  144OSM   H11S15853   2.002   2.581   5.617  0.7049 -2.0753 -0.6514
  144OSM   H11T15854   2.113   2.545   5.481  0.2803 -1.6420 -0.2474
  144OSM   C12S15855   2.088   2.761   5.526  0.1302 -0.2988 -0.8458
  144OSM   H12S15856   2.187   2.805   5.499  0.0610 -1.1638 -2.6835
  144OSM   H12T15857   2.050   2.808   5.619  2.0123  0.4059 -0.3870
  144OSM   C13S15858   1.985   2.782   5.416 -0.1751  0.3928 -0.0100
  144OSM   H13S15859   1.966   2.890   5.405 -1.8586  0.0377 -1.0150
  144OSM   H13T15860   1.889   2.726   5.425  0.6255 -1.0034  0.1091
  144OSM   C14S15861   2.038   2.741   5.278 -0.1051 -0.4017 -0.2999
  144OSM   H14S15862   2.028   2.634   5.250 -0.5993 -0.3132 -0.4640
  144OSM   H14T15863   2.145   2.770   5.273 -0.9290  2.9683 -0.8770
  144OSM   C15S15864   1.965   2.828   5.167 -0.2693 -0.2163 -0.5051
  144OSM   H15S15865   1.989   2.935   5.187 -0.9533 -0.2732  0.6868
  144OSM   H15T15866   1.857   2.816   5.186 -1.0311  4.6365 -0.4454
  144OSM   C16S15867   2.005   2.786   5.031 -0.4530  0.8296  0.4148
  144OSM   H16S15868   2.115   2.792   5.023  0.1052 -4.2353  1.1631
  144OSM   H16T15869   1.963   2.857   4.956 -1.8967 -1.2287 -0.8212
  144OSM   C17S15870   1.947   2.650   4.998 -0.3459  0.3770 -0.2725
  144OSM   H17S15871   1.843   2.650   5.034 -0.7318  2.3076 -1.2428
  144OSM   H17T15872   2.001   2.562   5.038 -2.7721 -1.5288 -0.9498
  144OSM   C18S15873   1.934   2.626   4.847  0.8451  0.2490 -0.0739
  144OSM   H18S15874   1.826   2.629   4.820  0.0927  1.4079  2.6942
  144OSM   H18T15875   1.981   2.531   4.813 -1.3246 -0.7670 -0.4011
  144OSM   H18U15876   1.991   2.705   4.793  4.3624 -2.5386 -0.8395
  144OSM    C1F15877   2.249   2.919   6.242 -0.8172 -0.0933 -0.8051
  144OSM     OF15878   2.330   2.997   6.298  0.6347 -0.7135 -0.1158
  144OSM    C2F15879   2.161   2.962   6.129  0.2602 -0.3680  0.3154
  144OSM    H2F15880   2.055   2.948   6.157  0.0535 -0.7947 -0.6451
  144OSM    H2G15881   2.169   2.896   6.040  0.6449  0.2064 -0.0825
  144OSM    C3F15882   2.178   3.113   6.073  0.6111  0.4692  0.0174
  144OSM    H3F15883   2.283   3.145   6.055 -0.1425  2.4405 -1.2170
  144OSM    H3G15884   2.147   3.180   6.156  0.2310 -1.8808  1.8982
  144OSM    C4F15885   2.082   3.152   5.954  0.2790 -0.0363 -0.2326
  144OSM    H4F15886   1.979   3.116   5.971 -0.2679  1.3609 -0.4516
  144OSM    H4G15887   2.113   3.097   5.863  1.2640  2.0307 -1.2282
  144OSM    C5F15888   2.091   3.296   5.911 -0.7800 -0.0933  0.7786
  144OSM    H5F15889   2.177   3.315   5.843 -1.5203  0.2417 -0.0937
  144OSM    H5G15890   2.119   3.360   5.998 -2.6634  1.8118  0.0740
  144OSM    C6F15891   1.970   3.351   5.838 -0.4130 -0.7669  0.3837
  144OSM    H6F15892   1.965   3.460   5.816 -1.5774 -1.0293 -0.8145
  144OSM    H6G15893   1.885   3.333   5.908 -1.3222  1.4381 -0.0649
  144OSM    C7F15894   1.946   3.268   5.707 -0.0818 -0.5735 -1.0599
  144OSM    H7F15895   1.848   3.297   5.662  0.4260  1.3332 -1.0124
  144OSM    H7G15896   1.941   3.163   5.743 -0.3856  0.0185  0.7225
  144OSM    C8F15897   2.050   3.294   5.597  0.2161 -0.5061 -0.1010
  144OSM    H8F15898   2.149   3.301   5.648 -0.2397 -1.2425  0.9246
  144OSM    H8G15899   2.022   3.395   5.558  0.8330 -1.0232 -1.9624
  144OSM    C9F15900   2.029   3.182   5.495 -0.2442 -0.8294 -0.1761
  144OSM    H9F15901   2.067   3.082   5.521  1.0393 -0.3956 -0.3344
  144OSM   C10F15902   2.004   3.214   5.365  0.6258 -0.1923 -0.5200
  144OSM   H10F15903   2.026   3.133   5.293  2.4129 -0.8910  0.7478
  144OSM   C11F15904   1.966   3.344   5.306 -0.3084 -0.6932 -0.2818
  144OSM   H11F15905   2.048   3.406   5.265 -1.6300  2.0149  0.9121
  144OSM   H11G15906   1.920   3.406   5.386  0.0320 -0.1314 -0.5126
  144OSM   C12F15907   1.872   3.333   5.180 -0.4758  0.2540  0.3109
  144OSM   H12F15908   1.831   3.431   5.150  3.2959  1.7540 -0.5244
  144OSM   H12G15909   1.785   3.267   5.204  0.6172 -0.6352  2.1060
  144OSM   C13F15910   1.958   3.276   5.059  0.0282  0.0440  0.1654
  144OSM   H13F15911   1.907   3.188   5.015 -0.5434 -0.5652  1.9589
  144OSM   H13G15912   2.063   3.255   5.090  0.3671 -1.0318 -1.5691
  144OSM   C14F15913   1.969   3.376   4.941  0.3687 -0.0135  0.1067
  144OSM   H14F15914   2.033   3.330   4.863 -1.7603 -0.9394 -1.2055
  144OSM   H14G15915   2.015   3.474   4.966  2.4183 -0.1103 -2.7452
  144OSM   C15F15916   1.830   3.404   4.880 -0.4453  0.6443 -0.3482
  144OSM   H15F15917   1.770   3.445   4.965  1.3475  1.7402  0.4309
  144OSM   H15G15918   1.791   3.309   4.838  2.0411 -1.4179  1.6636
  144OSM   C16F15919   1.837   3.511   4.774 -0.0527 -0.3326 -0.4761
  144OSM   H16F15920   1.872   3.605   4.822  0.2872 -0.8616  0.3160
  144OSM   H16G15921   1.731   3.536   4.749 -0.4526 -1.7432 -0.2785
  144OSM   C17F15922   1.914   3.472   4.647 -0.1961  0.3971 -0.3193
  144OSM   H17F15923   1.884   3.378   4.596 -0.3151 -0.2113  0.8464
  144OSM   H17G15924   2.022   3.453   4.668 -0.4369  0.2504  0.8625
  144OSM   C18F15925   1.908   3.579   4.542  0.7720 -0.1501 -0.1015
  144OSM   H18F15926   1.970   3.669   4.563  0.4638 -0.3721  1.9714
  144OSM   H18G15927   1.804   3.617   4.532  0.4592 -0.4487  1.6673
  144OSM   H18H15928   1.934   3.546   4.439  0.7345  3.2835 -1.3250
  145OSM      N15929   2.507   4.347   7.020 -0.5975 -0.8093  0.1412
  145OSM    C1515930   2.511   4.203   6.990  0.0648 -0.2284  0.3736
  145OSM   H15A15931   2.576   4.181   6.907 -2.0860  0.0299 -1.4849
  145OSM   H15B15932   2.415   4.157   6.972 -0.2952  0.8057 -0.4899
  145OSM   H15C15933   2.537   4.152   7.081  0.6038  1.1454  1.0171
  145OSM    C1415934   2.418   4.367   7.134  0.2428  0.0781 -0.1211
  145OSM   H14A15935   2.442   4.299   7.214 -0.5700  0.0389  0.0980
  145OSM   H14B15936   2.315   4.349   7.105 -0.0356 -0.6153  1.2298
  145OSM   H14C15937   2.434   4.462   7.183 -0.4934 -1.2276  2.9191
  145OSM    C1315938   2.643   4.403   7.058  1.1362  0.5198  0.0756
  145OSM   H13A15939   2.707   4.403   6.971  2.4359  0.4531  0.9957
  145OSM   H13B15940   2.687   4.343   7.136  0.4654  0.7164  0.6156
  145OSM   H13C15941   2.643   4.509   7.077 -0.2830  0.6339 -0.4426
  145OSM    C1215942   2.458   4.422   6.895 -0.4188  0.8803 -0.2668
  145OSM   H12A15943   2.475   4.527   6.917  0.9813  0.8119 -0.9002
  145OSM   H12B15944   2.352   4.403   6.889  0.2672 -3.8313 -1.1312
  145OSM    C1115945   2.523   4.384   6.754 -0.6617 -0.3721 -0.4543
  145OSM   H11A15946   2.503   4.464   6.679  2.5957  1.5196  0.5063
  145OSM   H11B15947   2.475   4.286   6.729 -1.3915  0.4555 -2.4782
  145OSM      P15948   2.758   4.261   6.705 -0.0271  0.3261  0.1426
  145OSM    O1315949   2.889   4.320   6.682 -0.2466  0.1696  0.1834
  145OSM    O1415950   2.737   4.143   6.794  0.0173  0.4999  0.2509
  145OSM    O1115951   2.680   4.235   6.568  0.5967  0.3802 -0.0977
  145OSM    O1215952   2.666   4.371   6.769  0.1954 -0.2351  0.1029
  145OSM    C1S15953   2.670   4.333   6.460 -0.0887  0.4445  0.6756
  145OSM    H1S15954   2.771   4.360   6.423 -0.0039  0.9746  1.2711
  145OSM    H1T15955   2.626   4.428   6.498 -5.0661 -0.8867 -0.9455
  145OSM     NF15956   2.581   4.337   6.217  0.5169  0.1214  0.3216
  145OSM    HNF15957   2.500   4.391   6.196 -0.0676 -1.8744 -3.4554
  145OSM    C2S15958   2.588   4.263   6.346 -0.2016 -0.5996 -0.2221
  145OSM    H2S15959   2.635   4.164   6.329  2.5466  0.2851  1.4957
  145OSM    C3S15960   2.447   4.228   6.402  0.3010  0.1314  0.6436
  145OSM    H3S15961   2.401   4.325   6.429 -1.1347 -0.4852  0.5013
  145OSM     O315962   2.440   4.131   6.509 -0.1130  0.1221 -0.5442
  145OSM    HO315963   2.529   4.135   6.545  0.5026  1.2971 -2.0424
  145OSM    C4S15964   2.363   4.170   6.289  0.2000  0.0367  0.1535
  145OSM    H4S15965   2.314   4.250   6.231  1.4203  0.6152 -0.1320
  145OSM    C5S15966   2.354   4.045   6.242 -0.1309  0.2778 -0.7145
  145OSM    H5S15967   2.416   3.961   6.277  1.5023  2.1731  1.2040
  145OSM    C6S15968   2.280   4.004   6.118  0.2775 -0.0335  0.2269
  145OSM    H6S15969   2.190   3.950   6.154  0.8010 -1.0936 -0.0218
  145OSM    H6T15970   2.335   3.930   6.057 -0.8829 -1.7334  1.1848
  145OSM    C7S15971   2.220   4.118   6.028  0.2646  0.0366  0.5901
  145OSM    H7S15972   2.307   4.187   6.026 -1.3481  2.1408  0.0813
  145OSM    H7T15973   2.133   4.163   6.081 -0.9621 -0.8768 -0.5932
  145OSM    C8S15974   2.187   4.071   5.891 -0.1065  0.2894  0.7038
  145OSM    H8S15975   2.100   4.002   5.907  0.5279 -1.4484 -2.4077
  145OSM    H8T15976   2.267   4.014   5.840  0.2924  1.2220  0.2678
  145OSM    C9S15977   2.130   4.181   5.795  0.2258 -0.0813  0.2048
  145OSM    H9S15978   2.210   4.257   5.780 -0.4476  0.7896  0.9667
  145OSM    H9T15979   2.048   4.237   5.843 -0.0131  0.1345 -0.4400
  145OSM   C10S15980   2.077   4.126   5.657  0.1604  0.9238 -0.4025
  145OSM   H10S15981   2.001   4.047   5.679 -0.2032  1.7418  1.4114
  145OSM   H10T15982   2.159   4.081   5.597  0.2038 -2.1738  1.7413
  145OSM   C11S15983   2.009   4.237   5.569 -0.9999 -0.1547 -0.2751
  145OSM   H11S15984   2.089   4.313   5.554  0.3433 -1.2301  1.1418
  145OSM   H11T15985   1.915   4.278   5.611 -0.4096  0.0902  0.8573
  145OSM   C12S15986   1.991   4.197   5.426  0.3413  0.0041 -0.4446
  145OSM   H12S15987   1.905   4.127   5.417  0.3111  0.1172 -1.0794
  145OSM   H12T15988   2.088   4.151   5.399  1.5669  0.8905  2.1382
  145OSM   C13S15989   1.949   4.311   5.334  0.2062 -0.5508 -0.0336
  145OSM   H13S15990   2.035   4.376   5.305  0.5769 -1.6029 -1.3812
  145OSM   H13T15991   1.873   4.375   5.385  0.9699  0.1013  0.3194
  145OSM   C14S15992   1.896   4.259   5.201 -0.3056 -0.0360 -0.1729
  145OSM   H14S15993   1.800   4.204   5.215 -0.0814 -0.3539  0.1487
  145OSM   H14T15994   1.960   4.178   5.159 -0.6218 -0.8706  0.9151
  145OSM   C15S15995   1.865   4.374   5.103  0.1340  0.9984  0.2323
  145OSM   H15S15996   1.961   4.420   5.071 -0.4639  2.1906  0.0934
  145OSM   H15T15997   1.812   4.456   5.157 -1.0422  1.7198 -1.9083
  145OSM   C16S15998   1.778   4.334   4.986  0.8943  0.6984  0.7596
  145OSM   H16S15999   1.707   4.251   5.004  0.3016  1.0079 -0.0535
  145OSM   H16T16000   1.843   4.289   4.908 -0.9205 -0.1139 -0.3560
  145OSM   C17S16001   1.710   4.459   4.913  0.2980  0.2292 -0.1420
  145OSM   H17S16002   1.789   4.538   4.919  0.8814 -0.4018  0.5196
  145OSM   H17T16003   1.628   4.499   4.977  0.9750  0.0291  0.8744
  145OSM   C18S16004   1.680   4.451   4.768  0.4246  0.1822  0.5400
  145OSM   H18S16005   1.620   4.358   4.758  0.2274  0.3635  0.0012
  145OSM   H18T16006   1.774   4.429   4.713  1.1797 -0.3150  1.9865
  145OSM   H18U16007   1.619   4.541   4.747 -2.2539 -1.4016  0.9934
  145OSM    C1F16008   2.694   4.377   6.158  0.0966 -0.7617 -0.1984
  145OSM     OF16009   2.798   4.313   6.169 -0.4358 -0.0487  0.5892
  145OSM    C2F16010   2.680   4.492   6.055 -0.1177 -0.4062  0.1511
  145OSM    H2F16011   2.653   4.592   6.095  0.8393  0.3137 -0.9575
  145OSM    H2G16012   2.603   4.458   5.983 -0.5063 -0.1664  0.4452
  145OSM    C3F16013   2.805   4.520   5.968  0.1133  0.8547 -0.6245
  145OSM    H3F16014   2.840   4.426   5.919  0.0156  1.4237 -1.8329
  145OSM    H3G16015   2.882   4.562   6.036 -1.2537 -1.2270  2.4100
  145OSM    C4F16016   2.783   4.618   5.858 -0.7667  0.7579  1.0912
  145OSM    H4F16017   2.762   4.720   5.895 -1.4758  0.6231  1.0756
  145OSM    H4G16018   2.700   4.573   5.798 -0.6594 -0.4924  1.8327
  145OSM    C5F16019   2.906   4.634   5.762 -0.1523  0.2741 -0.1756
  145OSM    H5F16020   2.943   4.531   5.747 -0.1436  0.4607 -1.5094
  145OSM    H5G16021   2.984   4.671   5.833  0.9114 -0.2737 -1.0401
  145OSM    C6F16022   2.904   4.710   5.629  0.0935  0.9907 -0.8635
  145OSM    H6F16023   2.996   4.688   5.572  1.0911 -0.2657  1.1497
  145OSM    H6G16024   2.910   4.820   5.646  1.9872  1.0199 -1.4675
  145OSM    C7F16025   2.776   4.670   5.546  0.5440 -0.0294  0.3103
  145OSM    H7F16026   2.752   4.756   5.481 -1.3975  0.7731  1.9646
  145OSM    H7G16027   2.686   4.660   5.610  1.7300 -1.5485  1.8443
  145OSM    C8F16028   2.811   4.536   5.472 -0.2391  0.0485 -0.2044
  145OSM    H8F16029   2.794   4.444   5.531  0.7958  0.2833  0.4777
  145OSM    H8G16030   2.921   4.543   5.460 -0.4709  2.0893 -1.7680
  145OSM    C9F16031   2.742   4.525   5.334 -0.1143  0.3041 -0.4202
  145OSM    H9F16032   2.635   4.504   5.325  0.2282 -0.7544 -2.4930
  145OSM   C10F16033   2.805   4.547   5.219  0.3661  0.4495 -0.0044
  145OSM   H10F16034   2.752   4.547   5.122  2.0692 -0.5684 -0.9896
  145OSM   C11F16035   2.941   4.592   5.202 -0.0282 -0.4747  0.8513
  145OSM   H11F16036   3.003   4.504   5.173 -0.3687 -0.4761  0.0967
  145OSM   H11G16037   2.996   4.631   5.290 -0.7000 -0.7179  1.3902
  145OSM   C12F16038   2.959   4.717   5.107 -0.1887  0.6591 -0.5884
  145OSM   H12F16039   3.067   4.743   5.103  0.4939 -1.9112 -0.3156
  145OSM   H12G16040   2.912   4.808   5.152 -0.4122  0.8802 -1.2514
  145OSM   C13F16041   2.897   4.695   4.964  0.2094 -0.0389 -0.0820
  145OSM   H13F16042   2.787   4.712   4.969  0.0277 -1.1822  0.0918
  145OSM   H13G16043   2.918   4.593   4.925  1.0287 -0.3197  1.0505
  145OSM   C14F16044   2.960   4.794   4.859  0.1595 -0.1321  0.7812
  145OSM   H14F16045   3.071   4.787   4.856  0.1614  0.1220 -0.0935
  145OSM   H14G16046   2.930   4.899   4.882  3.1905  1.3070 -1.0826
  145OSM   C15F16047   2.910   4.762   4.716  0.4505 -0.7309 -0.3823
  145OSM   H15F16048   2.800   4.771   4.705  0.1919 -2.1229  0.7360
  145OSM   H15G16049   2.926   4.652   4.708  0.3041 -0.8771  1.0133
  145OSM   C16F16050   2.990   4.841   4.614 -0.5668  0.3793  0.1180
  145OSM   H16F16051   3.087   4.858   4.666 -1.5626 -2.0409  3.0552
  145OSM   H16G16052   2.944   4.940   4.593  0.0459  0.9950  1.5695
  145OSM   C17F16053   3.010   4.758   4.479 -0.4012 -0.5300  0.0728
  145OSM   H17F16054   2.911   4.714   4.454 -0.3756 -1.5275  1.6091
  145OSM   H17G16055   3.082   4.674   4.485 -1.1020 -1.0534  1.7712
  145OSM   C18F16056   3.059   4.852   4.369  0.1228  0.9374  0.3007
  145OSM   H18F16057   3.160   4.897   4.382  0.4472  0.2141  0.3331
  145OSM   H18G16058   2.977   4.926   4.361  1.3282  2.3843  0.7515
  145OSM   H18H16059   3.069   4.789   4.278 -0.7548  0.5188  0.4844
  146OSM      N16060   0.010   0.582   6.889 -0.5201  0.1940  0.7089
  146OSM    C1516061  -0.081   0.664   6.798 -0.7561  1.4858  0.2440
  146OSM   H15A16062  -0.062   0.618   6.703  1.3188 -0.6455  1.5766
  146OSM   H15B16063  -0.067   0.768   6.827 -3.0117  1.9772 -0.2402
  146OSM   H15C16064  -0.187   0.653   6.816 -0.3347 -0.9405  1.6549
  146OSM    C1416065   0.014   0.630   7.026 -0.3984 -0.0004  0.8863
  146OSM   H14A16066   0.071   0.570   7.095  0.4410 -0.6448 -0.3280
  146OSM   H14B16067  -0.087   0.629   7.064 -0.6488  1.0688  0.2964
  146OSM   H14C16068   0.048   0.732   7.031  1.2041 -0.4070 -0.6919
  146OSM    C1316069  -0.035   0.435   6.899  0.3566  0.0644 -0.1839
  146OSM   H13A16070  -0.015   0.377   6.810  0.4371 -0.2636  0.0469
  146OSM   H13B16071  -0.141   0.427   6.915  0.2661 -1.5942 -1.3803
  146OSM   H13C16072   0.007   0.374   6.978 -1.4073 -0.3783  0.4538
  146OSM    C1216073   0.147   0.579   6.821 -0.0312 -0.1761  0.2521
  146OSM   H12A16074   0.206   0.499   6.863 -1.1903 -0.6999  0.9342
  146OSM   H12B16075   0.212   0.662   6.848 -1.2937  1.3059 -1.0529
  146OSM    C1116076   0.160   0.580   6.661 -0.5583  0.5926  0.0691
  146OSM   H11A16077   0.266   0.548   6.648 -1.3535 -2.2613  0.0276
  146OSM   H11B16078   0.145   0.686   6.631  1.2350  0.4904 -1.3404
  146OSM      P16079   0.116   0.336   6.568 -0.3616 -0.0489 -0.3415
  146OSM    O1316080   0.189   0.277   6.678 -0.1608 -0.6948  0.0130
  146OSM    O1416081  -0.011   0.266   6.539  0.2193  0.3258 -0.2213
  146OSM    O1116082   0.209   0.334   6.435 -0.5701  0.2104 -0.8802
  146OSM    O1216083   0.074   0.492   6.602 -0.4394 -0.1262  0.0504
  146OSM    C1S16084   0.163   0.370   6.308  0.1400 -0.3661 -0.6950
  146OSM    H1S16085   0.112   0.469   6.305 -2.3320 -1.5964 -1.7716
  146OSM    H1T16086   0.089   0.294   6.273 -0.3288 -0.4857  0.4986
  146OSM     NF16087   0.224   0.401   6.079  0.0161 -0.0544  0.2243
  146OSM    HNF16088   0.206   0.341   6.002  2.6001 -0.3842 -0.2233
  146OSM    C2S16089   0.267   0.350   6.203  0.0173  0.1857 -0.1775
  146OSM    H2S16090   0.361   0.399   6.238 -0.6798  0.4934  1.3294
  146OSM    C3S16091   0.308   0.204   6.192  0.1603  0.1347  0.0841
  146OSM    H3S16092   0.222   0.135   6.185  1.2264 -1.6301  2.5397
  146OSM     O316093   0.367   0.151   6.316 -0.0737  0.3520 -0.4882
  146OSM    HO316094   0.348   0.215   6.385 -0.4925 -1.0602  0.7552
  146OSM    C4S16095   0.414   0.184   6.089  0.1882  1.0006 -0.8851
  146OSM    H4S16096   0.502   0.247   6.107  1.6001 -1.1503  0.0577
  146OSM    C5S16097   0.410   0.107   5.981 -0.6846 -0.4032 -0.7794
  146OSM    H5S16098   0.327   0.036   5.968 -0.8390 -0.4365  0.2841
  146OSM    C6S16099   0.526   0.123   5.882 -0.3544  0.1689 -0.0101
  146OSM    H6S16100   0.573   0.026   5.852 -0.3312  0.2321 -0.1777
  146OSM    H6T16101   0.614   0.179   5.919  0.0828 -0.0802 -0.6620
  146OSM    C7S16102   0.469   0.185   5.755  0.0430  0.0418 -0.3071
  146OSM    H7S16103   0.424   0.280   5.791  1.7007  0.9154 -0.4448
  146OSM    H7T16104   0.392   0.119   5.710  1.1088 -1.2464 -0.2970
  146OSM    C8S16105   0.568   0.226   5.637  0.3531 -0.0299 -0.5500
  146OSM    H8S16106   0.622   0.134   5.605  1.0585  1.0305 -2.5889
  146OSM    H8T16107   0.649   0.288   5.682  1.0481 -2.7211  2.2428
  146OSM    C9S16108   0.508   0.303   5.520 -0.0245 -0.0155  0.1123
  146OSM    H9S16109   0.439   0.384   5.554 -1.0977 -0.9744  0.2876
  146OSM    H9T16110   0.437   0.231   5.475 -0.5040  1.7013 -2.0264
  146OSM   C10S16111   0.610   0.372   5.436 -0.4793  0.8239  0.6530
  146OSM   H10S16112   0.691   0.300   5.410  0.8978  2.3262  0.6107
  146OSM   H10T16113   0.648   0.459   5.494 -2.4636  0.7162  2.2351
  146OSM   C11S16114   0.556   0.422   5.300  0.1865  0.2642  0.7255
  146OSM   H11S16115   0.632   0.487   5.251 -2.1346  1.3598 -1.6764
  146OSM   H11T16116   0.466   0.484   5.322 -0.2955 -0.3768  0.6074
  146OSM   C12S16117   0.516   0.304   5.211 -0.4749  0.3864  1.0599
  146OSM   H12S16118   0.422   0.255   5.244 -0.8024  0.8339  0.8164
  146OSM   H12T16119   0.606   0.245   5.185 -1.9613 -0.7332 -1.9559
  146OSM   C13S16120   0.471   0.348   5.067  0.3360  0.2627  0.6275
  146OSM   H13S16121   0.393   0.424   5.086  0.7487  0.2187  2.7013
  146OSM   H13T16122   0.423   0.267   5.008  0.9114  0.7473 -0.5626
  146OSM   C14S16123   0.582   0.410   4.975 -0.2747  0.9757  0.6054
  146OSM   H14S16124   0.670   0.342   4.979 -2.2560 -2.1533 -2.6493
  146OSM   H14T16125   0.600   0.511   5.017 -1.3051  1.7257 -0.6896
  146OSM   C15S16126   0.547   0.432   4.826  0.3052  0.2071 -0.3022
  146OSM   H15S16127   0.602   0.510   4.769 -1.0785  0.7445 -0.9501
  146OSM   H15T16128   0.440   0.463   4.822  0.3110  0.3332  0.3031
  146OSM   C16S16129   0.571   0.307   4.743  0.2101 -0.0772  0.2986
  146OSM   H16S16130   0.507   0.312   4.653  2.1765  0.0103 -1.1556
  146OSM   H16T16131   0.550   0.215   4.802  0.4644  0.0752  0.6321
  146OSM   C17S16132   0.721   0.296   4.691  0.0150  0.0863 -0.1266
  146OSM   H17S16133   0.788   0.310   4.778  1.7142 -3.8765 -0.5948
  146OSM   H17T16134   0.731   0.385   4.625 -0.0737 -0.5639 -1.0463
  146OSM   C18S16135   0.757   0.171   4.617 -0.2441  0.2821 -0.1657
  146OSM   H18S16136   0.865   0.172   4.595  0.7429  0.8118  3.9070
  146OSM   H18T16137   0.692   0.151   4.529 -1.0001 -0.4545  0.5304
  146OSM   H18U16138   0.740   0.085   4.686  0.6076 -0.1313 -0.4641
  146OSM    C1F16139   0.212   0.534   6.064  0.3163 -0.1397 -0.0039
  146OSM     OF16140   0.268   0.605   6.142  0.2718  0.3247  0.3348
  146OSM    C2F16141   0.146   0.583   5.936 -0.4220 -0.5333  1.0112
  146OSM    H2F16142   0.052   0.527   5.918  0.2138 -1.5778  0.8307
  146OSM    H2G16143   0.219   0.571   5.853  2.0565  1.5918  2.7127
  146OSM    C3F16144   0.125   0.738   5.932 -0.7988  0.6254 -0.3221
  146OSM    H3F16145   0.208   0.809   5.945 -0.6468  0.3473  0.2511
  146OSM    H3G16146   0.064   0.757   6.023  1.6685 -0.4153  1.6652
  146OSM    C4F16147   0.043   0.770   5.803  0.1117 -0.2990 -0.0877
  146OSM    H4F16148   0.014   0.876   5.815 -0.0462 -0.1195 -1.7622
  146OSM    H4G16149  -0.048   0.707   5.789 -0.0998 -0.2808  1.1191
  146OSM    C5F16150   0.127   0.769   5.676 -0.0625  0.3778 -0.2589
  146OSM    H5F16151   0.161   0.669   5.643 -0.6111 -0.2240  0.9300
  146OSM    H5G16152   0.216   0.830   5.706  1.5717 -1.5193 -1.0565
  146OSM    C6F16153   0.054   0.843   5.560 -0.7213 -0.4298  0.4466
  146OSM    H6F16154   0.042   0.948   5.593 -0.0578 -0.4972  0.9212
  146OSM    H6G16155  -0.048   0.803   5.540  0.0289 -1.8678 -0.7003
  146OSM    C7F16156   0.142   0.847   5.435  0.6722 -0.0271  0.5775
  146OSM    H7F16157   0.163   0.740   5.415  1.2982  0.4270 -1.4577
  146OSM    H7G16158   0.229   0.915   5.451 -0.4325  1.5157  0.2279
  146OSM    C8F16159   0.067   0.900   5.310 -0.1289 -0.4872 -0.2721
  146OSM    H8F16160   0.137   0.925   5.227 -0.9797  0.8275 -0.6196
  146OSM    H8G16161   0.017   0.995   5.336 -2.9500 -1.2883 -2.2962
  146OSM    C9F16162  -0.036   0.805   5.248 -0.3002  0.8197 -0.6688
  146OSM    H9F16163  -0.125   0.781   5.307  0.1518 -0.6120 -0.5372
  146OSM   C10F16164  -0.001   0.727   5.141  0.9049  0.1282 -0.0843
  146OSM   H10F16165  -0.079   0.657   5.108 -0.4756  1.1125  0.9652
  146OSM   C11F16166   0.123   0.736   5.051  0.1872  0.1131 -0.1946
  146OSM   H11F16167   0.191   0.650   5.069 -0.7289 -0.5838 -0.0142
  146OSM   H11G16168   0.194   0.818   5.076  0.9572 -0.0557 -1.7102
  146OSM   C12F16169   0.086   0.752   4.902 -1.5948 -0.3252 -0.1492
  146OSM   H12F16170   0.017   0.669   4.876 -2.1557 -0.2212  0.9450
  146OSM   H12G16171   0.172   0.742   4.832 -0.7321 -0.6130  0.9352
  146OSM   C13F16172   0.006   0.887   4.867 -0.6943 -0.1524 -0.1434
  146OSM   H13F16173   0.087   0.963   4.864 -0.3849 -0.4198  1.0208
  146OSM   H13G16174  -0.075   0.920   4.936  0.2228 -0.6130  1.1905
  146OSM   C14F16175  -0.062   0.883   4.726  0.2316 -0.0329 -0.5627
  146OSM   H14F16176   0.001   0.835   4.648  0.5346  0.1395 -0.4254
  146OSM   H14G16177  -0.143   0.808   4.737 -0.9226  1.3880  1.3644
  146OSM   C15F16178  -0.122   1.015   4.680  0.6178 -0.3320 -0.2202
  146OSM   H15F16179  -0.038   1.083   4.655  0.6676 -0.5238 -0.5711
  146OSM   H15G16180  -0.177   1.062   4.764 -0.4475  2.7416 -2.4577
  146OSM   C16F16181  -0.218   0.996   4.563  0.1374 -0.4391  0.1271
  146OSM   H16F16182  -0.293   1.077   4.557 -0.6697 -1.0412  1.6655
  146OSM   H16G16183  -0.273   0.899   4.566  1.8222 -1.5845 -1.9988
  146OSM   C17F16184  -0.143   1.008   4.431 -0.5666 -0.2930  0.2381
  146OSM   H17F16185  -0.047   0.952   4.428 -0.7143 -0.5251 -0.9486
  146OSM   H17G16186  -0.103   1.111   4.418  0.0361 -0.0753  3.2248
  146OSM   C18F16187  -0.224   0.972   4.306  0.1680  0.6830 -0.5474
  146OSM   H18F16188  -0.308   1.043   4.291 -0.2335  0.4231  0.4128
  146OSM   H18G16189  -0.283   0.879   4.317  0.1461  0.7526 -0.0632
  146OSM   H18H16190  -0.153   0.978   4.221  1.2814  0.5005  0.3462
  147OSM      N16191   1.359   4.366   2.265 -0.7438  0.0870  0.2666
  147OSM    C1516192   1.412   4.436   2.380  0.4170  0.2931  0.3982
  147OSM   H15A16193   1.329   4.491   2.421 -2.5478 -3.6658  0.3043
  147OSM   H15B16194   1.491   4.503   2.348  2.2003 -1.1613  1.5130
  147OSM   H15C16195   1.445   4.368   2.458 -1.2327 -0.7060  0.2570
  147OSM    C1416196   1.262   4.257   2.314 -0.2295 -0.2771  0.4598
  147OSM   H14A16197   1.210   4.205   2.235  2.4970 -0.3416 -1.4248
  147OSM   H14B16198   1.193   4.300   2.385  0.3646  0.0804  0.8247
  147OSM   H14C16199   1.310   4.173   2.362  0.5919  0.6166  1.2524
  147OSM    C1316200   1.287   4.451   2.169 -0.1355  0.8502 -0.0679
  147OSM   H13A16201   1.204   4.507   2.209  0.6542  2.4211 -0.5788
  147OSM   H13B16202   1.247   4.403   2.081 -0.9622  0.1296  0.6791
  147OSM   H13C16203   1.354   4.528   2.135  0.3026  0.7540  0.5478
  147OSM    C1216204   1.468   4.295   2.191 -0.0752 -0.5893 -0.5140
  147OSM   H12A16205   1.428   4.260   2.096  1.2355  0.7027 -1.5842
  147OSM   H12B16206   1.496   4.211   2.252 -0.0367 -0.2302 -0.0354
  147OSM    C1116207   1.602   4.360   2.146  0.1040  0.4077 -0.1470
  147OSM   H11A16208   1.565   4.441   2.079 -1.9617 -2.3655 -2.6371
  147OSM   H11B16209   1.655   4.289   2.078  1.5436  2.4154 -1.2472
  147OSM      P16210   1.777   4.527   2.238 -0.0999  0.1664 -0.2596
  147OSM    O1316211   1.875   4.499   2.134 -0.5231 -0.0187  0.0690
  147OSM    O1416212   1.687   4.648   2.225  0.3919 -0.3307  0.3841
  147OSM    O1116213   1.850   4.528   2.376 -0.5167  0.5537  0.2757
  147OSM    O1216214   1.690   4.399   2.256 -0.0660 -0.2071  0.0564
  147OSM    C1S16215   1.784   4.485   2.492  0.1524  0.4581 -0.4657
  147OSM    H1S16216   1.774   4.374   2.493 -2.5787  0.6056 -1.6299
  147OSM    H1T16217   1.683   4.529   2.508 -0.9141 -1.4186 -1.5345
  147OSM     NF16218   1.792   4.501   2.742 -1.0053 -0.1006  0.5074
  147OSM    HNF16219   1.771   4.586   2.790 -0.3999  0.6295 -0.4990
  147OSM    C2S16220   1.869   4.521   2.620  0.2999  0.6842 -0.9450
  147OSM    H2S16221   1.958   4.455   2.619  0.7230  1.2323 -0.4022
  147OSM    C3S16222   1.934   4.663   2.627  0.2904 -0.3643 -0.3991
  147OSM    H3S16223   1.844   4.728   2.637  0.1285 -0.7312  0.6429
  147OSM     O316224   1.996   4.717   2.515  0.6404 -0.8103  0.0476
  147OSM    HO316225   1.962   4.662   2.444  0.2341 -0.5257  0.0141
  147OSM    C4S16226   2.021   4.676   2.755 -0.2711 -0.3783 -0.2699
  147OSM    H4S16227   1.958   4.696   2.843  0.3928 -1.4447  0.4788
  147OSM    C5S16228   2.149   4.652   2.776 -0.3337  0.3187 -0.5326
  147OSM    H5S16229   2.219   4.616   2.698  0.7669 -1.4155  1.1582
  147OSM    C6S16230   2.221   4.651   2.903  0.5734 -0.8412 -0.0650
  147OSM    H6S16231   2.280   4.745   2.910  3.3066 -2.5131  1.6035
  147OSM    H6T16232   2.300   4.572   2.899  1.2885 -0.1429  0.0532
  147OSM    C7S16233   2.132   4.617   3.025 -0.1127 -0.4849 -0.4147
  147OSM    H7S16234   2.080   4.519   3.014 -1.4131 -0.3403  3.1940
  147OSM    H7T16235   2.057   4.697   3.036  0.8213  0.2885  0.5261
  147OSM    C8S16236   2.218   4.619   3.153 -0.2269 -0.5147  0.6621
  147OSM    H8S16237   2.274   4.715   3.147 -0.8574 -0.2049 -0.6470
  147OSM    H8T16238   2.293   4.537   3.148 -1.2371 -1.3923 -1.4191
  147OSM    C9S16239   2.134   4.600   3.277  0.1379 -0.6939  0.4099
  147OSM    H9S16240   2.085   4.501   3.270 -0.1709 -0.4443 -2.0901
  147OSM    H9T16241   2.060   4.681   3.289  1.0889  0.1628  0.6635
  147OSM   C10S16242   2.219   4.592   3.399 -0.4062  0.1224  0.2103
  147OSM   H10S16243   2.261   4.693   3.417  1.9557 -0.6340 -0.7346
  147OSM   H10T16244   2.299   4.517   3.378  0.0346  1.0498 -1.5402
  147OSM   C11S16245   2.130   4.538   3.509 -0.0262  0.7198 -0.5515
  147OSM   H11S16246   2.098   4.436   3.480  2.4646 -0.0711 -0.7304
  147OSM   H11T16247   2.039   4.600   3.526 -0.1794  0.0814  1.2351
  147OSM   C12S16248   2.204   4.534   3.642 -0.3588  0.3968  0.0401
  147OSM   H12S16249   2.231   4.637   3.677 -4.0065  1.7943 -0.8732
  147OSM   H12T16250   2.299   4.480   3.620 -1.2649 -1.8333  1.2570
  147OSM   C13S16251   2.109   4.462   3.742  0.0397 -0.5467 -0.2563
  147OSM   H13S16252   2.087   4.355   3.721 -2.2783 -0.0110 -0.8070
  147OSM   H13T16253   2.016   4.522   3.750  0.2829 -0.3558  1.4634
  147OSM   C14S16254   2.164   4.474   3.887 -0.2994  0.5526  0.5714
  147OSM   H14S16255   2.198   4.577   3.912 -1.3011  0.8491  0.7392
  147OSM   H14T16256   2.255   4.412   3.904  1.8210  3.4492  0.6304
  147OSM   C15S16257   2.055   4.427   3.986 -0.3387 -0.8095  0.2459
  147OSM   H15S16258   2.011   4.328   3.958 -0.5882 -0.9012  0.9482
  147OSM   H15T16259   1.967   4.494   3.974 -0.9465 -1.6318 -0.0612
  147OSM   C16S16260   2.111   4.421   4.128 -0.2171  0.1553 -0.3274
  147OSM   H16S16261   2.166   4.515   4.150  1.0536 -0.7170  0.3672
  147OSM   H16T16262   2.189   4.342   4.135 -1.6290 -1.3552 -0.8737
  147OSM   C17S16263   2.007   4.396   4.234  0.0337 -0.1121  0.6638
  147OSM   H17S16264   1.956   4.301   4.210 -0.7475  0.8317 -1.7414
  147OSM   H17T16265   1.936   4.481   4.234 -0.3552 -0.4112  2.1309
  147OSM   C18S16266   2.068   4.387   4.374 -0.0139 -0.0704  0.0913
  147OSM   H18S16267   2.138   4.473   4.388 -0.6115  0.0950  2.4417
  147OSM   H18T16268   2.112   4.288   4.399 -0.3114  0.1860  1.6641
  147OSM   H18U16269   1.986   4.386   4.448  0.6272 -0.9760  0.8061
  147OSM    C1F16270   1.737   4.384   2.778 -0.6004 -0.4599  0.1053
  147OSM     OF16271   1.755   4.283   2.712 -0.3201 -0.5337 -0.2141
  147OSM    C2F16272   1.648   4.382   2.903  0.3185  0.7038 -0.2655
  147OSM    H2F16273   1.641   4.274   2.929 -1.6432  0.9098  0.1819
  147OSM    H2G16274   1.545   4.414   2.876  0.0437  0.7021  0.7685
  147OSM    C3F16275   1.698   4.471   3.009  0.3727  0.6900 -0.4047
  147OSM    H3F16276   1.675   4.574   2.974  0.3635  0.5143 -0.9280
  147OSM    H3G16277   1.807   4.476   3.031  0.6041  0.0982 -1.3635
  147OSM    C4F16278   1.639   4.454   3.151  0.6025 -0.1611 -0.2003
  147OSM    H4F16279   1.647   4.345   3.175 -3.4116 -0.6437 -0.4301
  147OSM    H4G16280   1.531   4.468   3.129  0.4826 -2.3378 -1.3195
  147OSM    C5F16281   1.710   4.549   3.253  0.8528  0.6718  0.1132
  147OSM    H5F16282   1.686   4.656   3.237 -0.9927  0.0859 -1.5023
  147OSM    H5G16283   1.821   4.545   3.244  0.8738 -0.1721  0.6229
  147OSM    C6F16284   1.682   4.524   3.403  0.0399 -0.6066  0.0760
  147OSM    H6F16285   1.574   4.522   3.429 -0.2603  1.8785 -0.7601
  147OSM    H6G16286   1.723   4.609   3.461  0.2307 -0.1767 -0.6799
  147OSM    C7F16287   1.732   4.384   3.466  0.5638 -0.2991 -0.3726
  147OSM    H7F16288   1.833   4.375   3.422  0.1639  0.1972 -1.4310
  147OSM    H7G16289   1.667   4.300   3.434 -1.3042  0.1638  1.8705
  147OSM    C8F16290   1.721   4.388   3.620 -0.1386  0.4165 -0.1315
  147OSM    H8F16291   1.788   4.465   3.662 -0.2625 -0.1102  1.0765
  147OSM    H8G16292   1.761   4.294   3.666 -0.6824  0.6586  0.8732
  147OSM    C9F16293   1.579   4.397   3.671  0.3514 -0.2617 -0.4576
  147OSM    H9F16294   1.516   4.312   3.641 -2.1982  1.0416  0.7863
  147OSM   C10F16295   1.520   4.507   3.733 -0.2463 -0.8980 -0.3648
  147OSM   H10F16296   1.419   4.496   3.774 -0.3862 -0.8676 -0.6952
  147OSM   C11F16297   1.572   4.645   3.759 -0.0344  0.6965 -0.1597
  147OSM   H11F16298   1.499   4.725   3.733  0.9640  2.0516  1.0135
  147OSM   H11G16299   1.664   4.660   3.698  0.3264 -1.6215 -0.2811
  147OSM   C12F16300   1.614   4.665   3.902  0.5395  0.7006 -0.3133
  147OSM   H12F16301   1.657   4.767   3.909  0.7664  0.5398  1.0428
  147OSM   H12G16302   1.688   4.604   3.958 -1.0471 -0.6548  0.4034
  147OSM   C13F16303   1.497   4.673   3.995 -0.1004  0.3166 -0.3443
  147OSM   H13F16304   1.446   4.575   4.010  3.3005 -1.6497 -0.6767
  147OSM   H13G16305   1.417   4.736   3.950  0.0736 -0.6521 -2.1005
  147OSM   C14F16306   1.543   4.716   4.144 -0.3834  0.8321  0.3678
  147OSM   H14F16307   1.563   4.825   4.138 -1.2106  0.9141 -2.9809
  147OSM   H14G16308   1.636   4.664   4.176 -0.0528  0.7252 -0.7438
  147OSM   C15F16309   1.424   4.709   4.249 -0.2347  0.0554 -0.5205
  147OSM   H15F16310   1.392   4.602   4.243  1.5666 -0.6025  0.7479
  147OSM   H15G16311   1.338   4.765   4.205 -1.1379 -0.3478  0.6871
  147OSM   C16F16312   1.470   4.751   4.384  0.1633 -0.1715 -0.2838
  147OSM   H16F16313   1.507   4.856   4.382 -0.3066  0.0276  0.9039
  147OSM   H16G16314   1.559   4.689   4.412  0.4114 -0.1804 -1.0663
  147OSM   C17F16315   1.358   4.742   4.483 -0.1084 -0.3012  0.1297
  147OSM   H17F16316   1.265   4.774   4.432 -0.6127 -0.5041  0.9030
  147OSM   H17G16317   1.383   4.806   4.570  0.5117 -1.2149  0.6453
  147OSM   C18F16318   1.333   4.601   4.529  0.1524 -0.4615  0.2113
  147OSM   H18F16319   1.272   4.547   4.453  0.8233 -2.4876  1.0363
  147OSM   H18G16320   1.277   4.597   4.625 -2.3541  3.0131 -0.9400
  147OSM   H18H16321   1.431   4.549   4.535 -0.1436 -0.8938  2.1213
  148OSM      N16322   1.840   3.983   2.336  0.1584  0.8173 -0.4642
  148OSM    C1516323   1.913   4.006   2.205 -0.2750 -0.3813 -0.4593
  148OSM   H15A16324   1.862   3.965   2.119  1.0820  0.5742 -1.7739
  148OSM   H15B16325   2.002   3.944   2.208 -0.6531 -1.0464 -2.0782
  148OSM   H15C16326   1.926   4.111   2.182  0.2319 -0.1408  0.8111
  148OSM    C1416327   1.891   4.068   2.437 -0.2953 -0.4953  0.4938
  148OSM   H14A16328   1.842   4.066   2.532  1.2323 -1.6403  1.2977
  148OSM   H14B16329   1.892   4.171   2.402 -1.3246 -0.3166  0.9611
  148OSM   H14C16330   1.997   4.049   2.447 -0.3248 -0.9566 -0.0096
  148OSM    C1316331   1.704   4.033   2.307  0.8875  0.1980  0.3222
  148OSM   H13A16332   1.702   4.138   2.283  0.3215  0.4647  1.4668
  148OSM   H13B16333   1.633   4.024   2.388 -0.1151 -1.3981 -0.6771
  148OSM   H13C16334   1.664   3.983   2.220 -1.0993  2.1830  0.0214
  148OSM    C1216335   1.841   3.834   2.368  0.6331  0.0191 -0.0545
  148OSM   H12A16336   1.786   3.782   2.291 -0.9837  0.8484  0.4922
  148OSM   H12B16337   1.778   3.821   2.455  0.0194 -0.8969 -0.6131
  148OSM    C1116338   1.977   3.766   2.393  0.2762 -0.1299  0.1357
  148OSM   H11A16339   1.969   3.669   2.448  1.3538  0.3041  1.0964
  148OSM   H11B16340   2.034   3.822   2.470  2.6999 -1.6380 -0.4339
  148OSM      P16341   2.027   3.629   2.173  0.1960  0.3742 -0.4561
  148OSM    O1316342   1.889   3.575   2.179  0.2101 -0.2347 -0.3917
  148OSM    O1416343   2.066   3.670   2.041 -0.4489  0.1377  0.2424
  148OSM    O1116344   2.123   3.521   2.235  0.5596 -0.3855 -0.0113
  148OSM    O1216345   2.042   3.752   2.271  0.1142  0.2456  0.4875
  148OSM    C1S16346   2.260   3.538   2.279  0.1197  0.6775  0.1487
  148OSM    H1S16347   2.314   3.617   2.221  0.7210 -0.3354 -0.7061
  148OSM    H1T16348   2.306   3.440   2.253 -3.6501 -0.2902 -4.0531
  148OSM     NF16349   2.409   3.582   2.476  0.2236  0.5281  0.2633
  148OSM    HNF16350   2.442   3.506   2.532  1.3831 -0.1807 -1.3138
  148OSM    C2S16351   2.268   3.565   2.432 -0.7204  0.4264  0.4458
  148OSM    H2S16352   2.213   3.661   2.447 -1.0888  0.5671 -1.4915
  148OSM    C3S16353   2.202   3.442   2.505  1.0213 -0.1850  0.2764
  148OSM    H3S16354   2.266   3.355   2.477 -0.1630 -0.6709 -0.9786
  148OSM     O316355   2.063   3.418   2.470 -0.3645 -0.1589 -0.2619
  148OSM    HO316356   2.056   3.470   2.390 -0.0143  1.3169  0.6372
  148OSM    C4S16357   2.205   3.458   2.656 -0.3427 -0.5535  0.3359
  148OSM    H4S16358   2.284   3.395   2.702 -0.0219 -1.0096 -0.8011
  148OSM    C5S16359   2.127   3.540   2.735 -0.2006  0.2781 -0.2812
  148OSM    H5S16360   2.053   3.607   2.690  0.1138 -0.9052 -2.7658
  148OSM    C6S16361   2.138   3.547   2.883 -0.7716 -0.2376 -0.4307
  148OSM    H6S16362   2.036   3.541   2.927 -1.0053 -0.1562 -0.9511
  148OSM    H6T16363   2.187   3.643   2.909 -0.3632 -0.4498 -0.4096
  148OSM    C7S16364   2.216   3.437   2.954 -0.5153  0.5879  0.2912
  148OSM    H7S16365   2.322   3.447   2.925 -0.2898  1.2049  1.2808
  148OSM    H7T16366   2.179   3.336   2.924 -0.2934  0.0568  1.6884
  148OSM    C8S16367   2.210   3.455   3.106  0.4578 -0.0662 -0.6014
  148OSM    H8S16368   2.106   3.490   3.121  0.7153  1.9417 -2.8786
  148OSM    H8T16369   2.261   3.552   3.125 -0.5966  0.6883 -1.5068
  148OSM    C9S16370   2.276   3.347   3.192  0.9156  0.1032  0.3376
  148OSM    H9S16371   2.369   3.309   3.144  0.9051 -1.2357  1.3231
  148OSM    H9T16372   2.206   3.263   3.179  1.1647 -0.4385  2.1257
  148OSM   C10S16373   2.290   3.384   3.338  0.0023  0.4967  0.6204
  148OSM   H10S16374   2.219   3.466   3.362 -0.1610  0.0154  1.8510
  148OSM   H10T16375   2.389   3.433   3.337  0.5671 -0.6264 -0.3915
  148OSM   C11S16376   2.284   3.266   3.429  0.4857 -0.1854 -0.5027
  148OSM   H11S16377   2.383   3.218   3.415  0.3465 -0.7083  0.2301
  148OSM   H11T16378   2.196   3.199   3.414  1.1588 -0.9864 -0.9225
  148OSM   C12S16379   2.259   3.309   3.574 -0.4780  0.2556 -0.4507
  148OSM   H12S16380   2.154   3.333   3.602 -0.8445 -2.4585  0.9547
  148OSM   H12T16381   2.319   3.399   3.599  0.1375 -0.2146 -0.2096
  148OSM   C13S16382   2.307   3.193   3.662  1.2819  0.0340  1.1086
  148OSM   H13S16383   2.413   3.170   3.637  0.8799  0.5961 -1.4074
  148OSM   H13T16384   2.244   3.103   3.641  2.2422 -0.2401 -0.9119
  148OSM   C14S16385   2.299   3.229   3.808  0.3807 -0.3024  0.1298
  148OSM   H14S16386   2.194   3.239   3.843  0.8286 -1.1283  1.8382
  148OSM   H14T16387   2.352   3.325   3.823 -0.7026  0.0426  2.0451
  148OSM   C15S16388   2.370   3.127   3.903  0.4791  0.3187  0.0367
  148OSM   H15S16389   2.470   3.099   3.862 -0.4096  0.1744 -2.1575
  148OSM   H15T16390   2.309   3.034   3.902 -0.9288  1.2040  0.9934
  148OSM   C16S16391   2.376   3.174   4.051 -0.0723 -0.3298 -0.0173
  148OSM   H16S16392   2.278   3.218   4.079  0.0163 -0.5951  0.7425
  148OSM   H16T16393   2.444   3.262   4.045  0.2796 -0.6564 -0.9733
  148OSM   C17S16394   2.426   3.070   4.152  0.3948 -0.0042  0.3130
  148OSM   H17S16395   2.519   3.022   4.116  0.4335  0.5447 -0.3483
  148OSM   H17T16396   2.355   2.985   4.155  0.5160 -0.1829 -1.1304
  148OSM   C18S16397   2.454   3.125   4.282 -0.6715  0.4230  0.6103
  148OSM   H18S16398   2.545   3.189   4.270 -0.5297 -0.1153 -1.5686
  148OSM   H18T16399   2.468   3.042   4.354 -2.5325  0.2359  0.8096
  148OSM   H18U16400   2.378   3.186   4.335 -1.0030 -0.5053  1.2218
  148OSM    C1F16401   2.486   3.679   2.428  0.0372 -0.3036 -0.3878
  148OSM     OF16402   2.440   3.760   2.344  0.1264 -0.1544 -0.0076
  148OSM    C2F16403   2.631   3.682   2.472 -0.8500 -0.2896  0.2407
  148OSM    H2F16404   2.704   3.698   2.390  0.5624  0.4134  1.5905
  148OSM    H2G16405   2.650   3.578   2.507 -1.8843 -0.7874 -0.6069
  148OSM    C3F16406   2.654   3.776   2.585 -0.6824  0.0750  0.3680
  148OSM    H3F16407   2.678   3.879   2.549 -0.9430 -0.9793 -3.2679
  148OSM    H3G16408   2.748   3.744   2.634  1.2102  2.7403 -1.2689
  148OSM    C4F16409   2.542   3.785   2.685  0.0493 -0.2371 -0.3821
  148OSM    H4F16410   2.517   3.679   2.707  0.0184 -0.2149 -0.3105
  148OSM    H4G16411   2.448   3.839   2.660  0.5433  1.3427  1.0018
  148OSM    C5F16412   2.583   3.861   2.814 -0.5025  0.0145  0.5454
  148OSM    H5F16413   2.613   3.966   2.795  1.2880 -0.6531 -0.5185
  148OSM    H5G16414   2.675   3.817   2.858 -1.2961 -1.6703  0.5981
  148OSM    C6F16415   2.468   3.858   2.918 -0.0272 -0.5976 -0.4722
  148OSM    H6F16416   2.439   3.754   2.943 -1.1692 -0.4598 -1.1449
  148OSM    H6G16417   2.384   3.908   2.864 -1.3400 -2.9563 -0.7270
  148OSM    C7F16418   2.491   3.942   3.049  0.1865  0.3261  0.0758
  148OSM    H7F16419   2.403   3.936   3.117  0.5754 -2.8452  0.4374
  148OSM    H7G16420   2.498   4.050   3.022 -0.6763  0.6292  0.9729
  148OSM    C8F16421   2.614   3.892   3.130  0.1484  0.0037 -0.4497
  148OSM    H8F16422   2.705   3.901   3.068 -0.5061 -0.4850 -1.5137
  148OSM    H8G16423   2.597   3.782   3.137 -0.3150  0.0294 -1.0718
  148OSM    C9F16424   2.621   3.967   3.266  0.3434  0.1729 -0.0208
  148OSM    H9F16425   2.640   4.074   3.248  1.1142 -0.0457 -0.5791
  148OSM   C10F16426   2.600   3.913   3.390  0.5306  0.1374  0.1955
  148OSM   H10F16427   2.618   3.979   3.477 -0.7675  3.0912 -1.6274
  148OSM   C11F16428   2.590   3.763   3.417  0.7139 -0.6237  0.3724
  148OSM   H11F16429   2.650   3.700   3.348 -0.0722  0.7830 -1.6970
  148OSM   H11G16430   2.492   3.730   3.379  0.0771  0.0497  1.3697
  148OSM   C12F16431   2.612   3.724   3.562 -0.2563 -0.7269 -0.0149
  148OSM   H12F16432   2.540   3.778   3.627 -0.8209 -1.3982 -0.0619
  148OSM   H12G16433   2.715   3.755   3.588 -0.1682 -0.1135 -1.0280
  148OSM   C13F16434   2.592   3.575   3.587  0.1331  0.2837 -0.1931
  148OSM   H13F16435   2.657   3.518   3.517  2.6561  1.4029  1.1154
  148OSM   H13G16436   2.486   3.547   3.571 -0.3184  2.1135 -0.6799
  148OSM   C14F16437   2.645   3.546   3.726  0.6335  0.8665  0.0178
  148OSM   H14F16438   2.556   3.577   3.785  1.1579  0.6457  0.9492
  148OSM   H14G16439   2.723   3.615   3.766  0.9899 -0.1856  1.2266
  148OSM   C15F16440   2.678   3.399   3.762  0.2666  0.1599  0.2571
  148OSM   H15F16441   2.762   3.363   3.699 -0.9400  0.1349 -1.4228
  148OSM   H15G16442   2.592   3.339   3.726  0.6010  0.4879 -1.1688
  148OSM   C16F16443   2.701   3.391   3.914  0.4812 -0.4424 -0.2252
  148OSM   H16F16444   2.613   3.406   3.980  1.6206  0.7730  1.0975
  148OSM   H16G16445   2.763   3.480   3.938 -1.9823  0.6743  2.6301
  148OSM   C17F16446   2.779   3.270   3.959 -0.2651  0.1781  0.0285
  148OSM   H17F16447   2.885   3.277   3.924  1.1239 -0.2917  3.6686
  148OSM   H17G16448   2.739   3.181   3.906 -0.6284  1.7861 -2.5821
  148OSM   C18F16449   2.811   3.251   4.106  0.8210  0.2763 -0.6180
  148OSM   H18F16450   2.717   3.250   4.165  1.6539 -0.5017  0.7201
  148OSM   H18G16451   2.887   3.325   4.139  3.1971 -1.6745 -1.4355
  148OSM   H18H16452   2.869   3.158   4.123 -0.4752 -0.1695  1.6699
  149OSM      N16453   2.835   3.565   1.861  0.1793  0.4025  0.6792
  149OSM    C1516454   2.793   3.426   1.843 -0.4857  0.8889 -0.4803
  149OSM   H15A16455   2.820   3.367   1.929 -1.2802  1.6202  0.2942
  149OSM   H15B16456   2.831   3.379   1.753 -0.0208  0.6083 -0.1382
  149OSM   H15C16457   2.688   3.403   1.834 -0.7551  1.7199  0.3607
  149OSM    C1416458   2.986   3.565   1.875  0.4544 -0.1558  0.2086
  149OSM   H14A16459   3.034   3.555   1.779 -1.5744 -0.5045 -0.8289
  149OSM   H14B16460   3.012   3.477   1.933  1.2449  0.4529  0.7920
  149OSM   H14C16461   3.022   3.655   1.922  0.0224 -1.4824  3.3636
  149OSM    C1316462   2.784   3.647   1.744 -0.2187  0.0362  0.0159
  149OSM   H13A16463   2.841   3.625   1.655  0.5137  0.7361  0.3092
  149OSM   H13B16464   2.798   3.750   1.773  2.6196 -0.1109 -0.6144
  149OSM   H13C16465   2.677   3.629   1.737 -0.6126  0.6816  2.9185
  149OSM    C1216466   2.784   3.617   1.993 -0.4426  0.1328  0.2421
  149OSM   H12A16467   2.676   3.625   1.999 -0.5308 -0.3770 -0.6108
  149OSM   H12B16468   2.807   3.722   2.002 -0.9241  0.2006  0.8227
  149OSM    C1116469   2.826   3.544   2.126 -0.5532  0.1806  0.0812
  149OSM   H11A16470   2.777   3.605   2.206 -1.8681  0.8861 -1.2018
  149OSM   H11B16471   2.936   3.551   2.135  0.1177 -1.3237 -4.4602
  149OSM      P16472   2.663   3.349   2.190  0.0717 -0.0480  0.1433
  149OSM    O1316473   2.557   3.427   2.133  0.6519 -0.0613 -0.3262
  149OSM    O1416474   2.662   3.205   2.167  0.0656  0.0704 -0.5140
  149OSM    O1116475   2.685   3.377   2.345  0.3958 -0.7028  0.0765
  149OSM    O1216476   2.794   3.404   2.123  0.8562 -0.5185 -0.2114
  149OSM    C1S16477   2.791   3.302   2.401  0.1670  0.5112 -0.4319
  149OSM    H1S16478   2.890   3.346   2.378  1.0039 -1.6140 -1.0829
  149OSM    H1T16479   2.799   3.197   2.366  1.1701  0.7011 -0.7869
  149OSM     NF16480   2.882   3.208   2.616 -0.2493 -0.3652  0.0995
  149OSM    HNF16481   2.849   3.144   2.684 -1.6239  0.7599  0.5241
  149OSM    C2S16482   2.773   3.294   2.559 -0.5713  0.2626 -0.4633
  149OSM    H2S16483   2.793   3.395   2.600  0.9707 -0.3896  0.4916
  149OSM    C3S16484   2.625   3.266   2.610 -0.0675 -0.1275  0.6447
  149OSM    H3S16485   2.598   3.160   2.590 -2.8884  0.5228  0.6599
  149OSM     O316486   2.526   3.347   2.547  0.2835 -0.6595 -0.3508
  149OSM    HO316487   2.533   3.342   2.451  0.0809 -0.1390 -0.3947
  149OSM    C4S16488   2.635   3.288   2.763  0.4378 -0.5617  0.6511
  149OSM    H4S16489   2.632   3.193   2.817 -0.7971  0.0108  1.6440
  149OSM    C5S16490   2.633   3.403   2.838 -0.2003 -0.4192 -0.1677
  149OSM    H5S16491   2.643   3.497   2.782  0.5739 -0.9622 -0.9697
  149OSM    C6S16492   2.657   3.420   2.983  0.5373 -0.6900 -0.7860
  149OSM    H6S16493   2.583   3.486   3.032  0.9735 -1.3899  0.8956
  149OSM    H6T16494   2.748   3.479   3.007 -0.6571  1.2253 -0.7538
  149OSM    C7S16495   2.674   3.293   3.068 -0.5118 -0.2980 -0.6057
  149OSM    H7S16496   2.757   3.228   3.033 -0.5173 -0.4779 -0.2920
  149OSM    H7T16497   2.578   3.241   3.050 -0.7311 -0.5704  1.1488
  149OSM    C8S16498   2.686   3.313   3.220  0.0127  0.2400 -0.2870
  149OSM    H8S16499   2.594   3.359   3.261  1.8647  1.6681  2.6017
  149OSM    H8T16500   2.763   3.389   3.246  0.2965 -0.1764  0.1129
  149OSM    C9S16501   2.719   3.178   3.288  0.0877 -0.4601 -0.1149
  149OSM    H9S16502   2.812   3.130   3.252  0.1608 -0.3176 -0.1154
  149OSM    H9T16503   2.637   3.108   3.264  0.0060 -0.8975  1.3470
  149OSM   C10S16504   2.734   3.194   3.443  0.2157  0.1159 -0.8699
  149OSM   H10S16505   2.631   3.198   3.484  0.4453  2.7528 -0.3744
  149OSM   H10T16506   2.789   3.289   3.461 -0.9192  0.4709  1.0456
  149OSM   C11S16507   2.806   3.070   3.507 -0.3159 -0.4148  0.3175
  149OSM   H11S16508   2.916   3.076   3.495 -0.1091 -0.5648  1.9220
  149OSM   H11T16509   2.771   2.983   3.446  1.7625 -0.7038 -0.5318
  149OSM   C12S16510   2.783   3.045   3.655 -0.2853 -0.1245 -0.3100
  149OSM   H12S16511   2.675   3.037   3.681  0.2224 -0.9643  1.7652
  149OSM   H12T16512   2.835   3.131   3.703 -1.3186 -0.5605  1.6906
  149OSM   C13S16513   2.858   2.922   3.699 -0.3656 -0.1043  0.5397
  149OSM   H13S16514   2.964   2.928   3.666  0.0642  0.7511  1.9929
  149OSM   H13T16515   2.808   2.831   3.660 -1.4301  1.0117 -0.8087
  149OSM   C14S16516   2.862   2.899   3.848  0.0275  0.4044  0.1057
  149OSM   H14S16517   2.759   2.890   3.889  0.0492  0.5492  0.1960
  149OSM   H14T16518   2.916   2.979   3.903 -0.1162  0.6882 -0.1626
  149OSM   C15S16519   2.929   2.766   3.873  0.1272 -0.2141  0.1454
  149OSM   H15S16520   3.024   2.769   3.815 -0.5386  0.4847 -0.9309
  149OSM   H15T16521   2.872   2.675   3.845 -0.2943  0.6102 -1.8195
  149OSM   C16S16522   2.977   2.763   4.019 -0.0256 -0.2526  0.1536
  149OSM   H16S16523   2.898   2.717   4.084 -0.2379  1.5846  1.2555
  149OSM   H16T16524   2.998   2.866   4.055 -0.8066 -0.1589  0.3657
  149OSM   C17S16525   3.098   2.670   4.010 -0.2197  0.0220 -0.0524
  149OSM   H17S16526   3.182   2.725   3.964 -0.3355 -0.4354 -0.8355
  149OSM   H17T16527   3.073   2.586   3.941 -1.7219  0.9292 -0.6658
  149OSM   C18S16528   3.127   2.605   4.143 -0.3847  0.0074  0.3404
  149OSM   H18S16529   3.042   2.543   4.180 -2.4900  2.6694  0.2117
  149OSM   H18T16530   3.152   2.674   4.226  0.9687 -1.6960  1.4094
  149OSM   H18U16531   3.204   2.527   4.121  0.1118  1.0082 -1.7114
  149OSM    C1F16532   3.009   3.237   2.603  0.1374  0.8542 -0.1939
  149OSM     OF16533   3.051   3.342   2.556  0.3648 -0.2561 -0.0726
  149OSM    C2F16534   3.104   3.122   2.636  0.0094  0.4420 -0.6223
  149OSM    H2F16535   3.093   3.041   2.561  0.1203 -0.6474  0.5047
  149OSM    H2G16536   3.069   3.075   2.731 -0.6202 -0.0798 -1.1018
  149OSM    C3F16537   3.259   3.156   2.655  0.3601 -0.2263  0.2624
  149OSM    H3F16538   3.296   3.183   2.554  1.7913 -0.7515  0.6162
  149OSM    H3G16539   3.307   3.059   2.682 -2.6285 -1.2819  2.2272
  149OSM    C4F16540   3.286   3.262   2.762 -0.2561  0.1758 -0.4360
  149OSM    H4F16541   3.238   3.360   2.741 -1.1440 -0.0646  0.4123
  149OSM    H4G16542   3.394   3.290   2.764 -0.0756 -0.5355 -0.1140
  149OSM    C5F16543   3.218   3.228   2.895 -0.0872 -0.3444 -0.2347
  149OSM    H5F16544   3.238   3.123   2.925 -2.1451 -0.2690  1.6428
  149OSM    H5G16545   3.108   3.237   2.891 -0.5564 -4.3381 -0.3109
  149OSM    C6F16546   3.261   3.327   3.003  0.9260  0.0625 -0.3560
  149OSM    H6F16547   3.238   3.427   2.958  1.4699 -0.1784 -1.1937
  149OSM    H6G16548   3.369   3.316   3.023  0.7669 -1.4012 -0.1858
  149OSM    C7F16549   3.191   3.316   3.146  0.4004  0.9693  0.0993
  149OSM    H7F16550   3.250   3.382   3.212 -0.2774  0.6189  1.0753
  149OSM    H7G16551   3.199   3.211   3.183 -1.5312  0.1415 -1.6271
  149OSM    C8F16552   3.037   3.361   3.145 -0.5708 -0.0626 -0.7111
  149OSM    H8F16553   3.004   3.327   3.246 -1.5085  1.2776 -0.5411
  149OSM    H8G16554   2.976   3.295   3.080  3.3999 -2.4927 -2.3216
  149OSM    C9F16555   3.013   3.509   3.128  0.2212  0.2589  0.7541
  149OSM    H9F16556   3.039   3.549   3.029 -0.3537 -0.9658  0.0939
  149OSM   C10F16557   2.974   3.605   3.215  0.4515 -0.4196 -0.2630
  149OSM   H10F16558   2.964   3.712   3.190  0.6187 -0.8882 -2.5487
  149OSM   C11F16559   2.944   3.596   3.365  0.0430 -0.4154 -0.3054
  149OSM   H11F16560   2.886   3.502   3.381 -1.2281  0.6022  1.3347
  149OSM   H11G16561   2.874   3.673   3.402 -1.0099 -0.7062 -1.6085
  149OSM   C12F16562   3.077   3.590   3.447  0.5919 -0.3069  0.6518
  149OSM   H12F16563   3.140   3.681   3.440  1.0740 -0.5940  1.1769
  149OSM   H12G16564   3.142   3.511   3.404 -0.4184 -0.6492 -0.3045
  149OSM   C13F16565   3.051   3.542   3.590 -0.1678  0.5447  0.1461
  149OSM   H13F16566   3.016   3.437   3.601  2.1896 -0.4299 -0.9401
  149OSM   H13G16567   2.976   3.612   3.632  0.8568  2.4538 -1.0976
  149OSM   C14F16568   3.166   3.560   3.677 -0.3280  0.1353 -0.3340
  149OSM   H14F16569   3.195   3.667   3.690  0.1558 -0.1328  0.8893
  149OSM   H14G16570   3.263   3.518   3.642  0.9844  0.7320  2.3063
  149OSM   C15F16571   3.141   3.502   3.819  0.8918  0.4021  0.2340
  149OSM   H15F16572   3.143   3.391   3.811  0.5098  0.4019  0.1330
  149OSM   H15G16573   3.053   3.536   3.876  1.5252 -1.1184  2.2510
  149OSM   C16F16574   3.264   3.533   3.909  0.5638  0.2512 -1.2174
  149OSM   H16F16575   3.281   3.642   3.898 -0.0625  0.2655 -2.1613
  149OSM   H16G16576   3.356   3.488   3.864 -0.8508 -1.6335 -2.3995
  149OSM   C17F16577   3.258   3.488   4.056  0.1666  0.0710  0.1727
  149OSM   H17F16578   3.149   3.482   4.079  0.9584 -1.8417  4.2099
  149OSM   H17G16579   3.295   3.560   4.132  0.0132 -0.4817  0.7786
  149OSM   C18F16580   3.305   3.347   4.095 -0.6173  0.1760 -0.0818
  149OSM   H18F16581   3.249   3.275   4.031  0.5185 -0.1988 -0.6764
  149OSM   H18G16582   3.296   3.325   4.203  0.4554 -0.8623 -0.1788
  149OSM   H18H16583   3.413   3.337   4.070 -0.7622  2.0744 -1.7402
  150OSM      N16584   0.837   3.663   2.313  0.1313  0.9281  0.1940
  150OSM    C1516585   0.938   3.587   2.224  0.5737 -0.5834 -0.8332
  150OSM   H15A16586   0.948   3.646   2.134  1.7312  2.3379  1.0538
  150OSM   H15B16587   0.906   3.485   2.209 -2.6149  0.4233 -1.5674
  150OSM   H15C16588   1.032   3.575   2.278 -0.6793 -0.6269  1.4701
  150OSM    C1416589   0.821   3.588   2.437 -0.0882  0.6214 -0.0931
  150OSM   H14A16590   0.792   3.487   2.412  1.7099  0.3403 -1.2402
  150OSM   H14B16591   0.741   3.630   2.496  0.6973  0.5888  1.0343
  150OSM   H14C16592   0.915   3.574   2.490 -0.0556  2.5093  0.4283
  150OSM    C1316593   0.891   3.799   2.330 -0.2001  0.1142  0.5781
  150OSM   H13A16594   0.893   3.852   2.236 -0.4171 -0.8465  0.0158
  150OSM   H13B16595   0.992   3.805   2.369 -0.3155 -0.2673  0.9359
  150OSM   H13C16596   0.821   3.851   2.393 -1.4609 -2.4602  1.4433
  150OSM    C1216597   0.698   3.666   2.240 -0.4051 -0.6822 -0.0945
  150OSM   H12A16598   0.631   3.715   2.310 -1.2187 -1.2648 -0.4549
  150OSM   H12B16599   0.669   3.563   2.232  0.8564 -0.9466 -1.7107
  150OSM    C1116600   0.696   3.744   2.107  0.3363 -0.1853  0.0863
  150OSM   H11A16601   0.598   3.732   2.057 -0.0935  0.0079  0.8732
  150OSM   H11B16602   0.775   3.707   2.038  0.9891 -1.9536  1.7123
  150OSM      P16603   0.605   3.982   2.167  0.4995  0.1041  0.0404
  150OSM    O1316604   0.668   4.116   2.178  0.1569 -0.1566  0.0209
  150OSM    O1416605   0.500   3.963   2.063 -0.2231 -0.1456  0.2455
  150OSM    O1116606   0.553   3.928   2.307 -0.0748  0.4977 -0.5393
  150OSM    O1216607   0.724   3.886   2.132  0.7786  1.2379 -0.3176
  150OSM    C1S16608   0.573   4.013   2.417  0.1284 -0.7842 -0.1698
  150OSM    H1S16609   0.546   4.121   2.405  0.9527 -0.3806  1.2768
  150OSM    H1T16610   0.681   4.011   2.442  0.6779  0.6473 -2.1770
  150OSM     NF16611   0.514   4.075   2.646  0.4439  0.1138  0.1312
  150OSM    HNF16612   0.592   4.069   2.708  0.4269 -0.7416  0.0761
  150OSM    C2S16613   0.493   3.976   2.549  0.0925  0.1178  0.0012
  150OSM    H2S16614   0.391   3.962   2.509  0.8615 -2.5499 -1.2701
  150OSM    C3S16615   0.541   3.833   2.591 -0.4919 -0.5642  0.2293
  150OSM    H3S16616   0.651   3.835   2.604 -0.2060  0.7026 -1.9207
  150OSM     O316617   0.521   3.731   2.490  0.2618 -0.7906 -0.0383
  150OSM    HO316618   0.498   3.786   2.415 -1.4529  1.7051  2.1563
  150OSM    C4S16619   0.472   3.796   2.720  0.0765  0.4512 -0.5530
  150OSM    H4S16620   0.543   3.807   2.803 -1.0672 -0.3527  0.5700
  150OSM    C5S16621   0.345   3.764   2.740 -0.1112  0.0844 -0.2465
  150OSM    H5S16622   0.280   3.761   2.651  1.3323 -1.7279 -1.2942
  150OSM    C6S16623   0.286   3.730   2.871 -0.8745 -0.4162  0.7046
  150OSM    H6S16624   0.243   3.628   2.864  0.5745 -0.9311 -2.9625
  150OSM    H6T16625   0.208   3.806   2.890  0.2470  1.2439 -0.9864
  150OSM    C7S16626   0.378   3.740   2.992 -0.4111  0.1363 -0.0378
  150OSM    H7S16627   0.433   3.836   2.982 -0.8431  0.2431 -1.7032
  150OSM    H7T16628   0.455   3.660   2.981  1.2266  1.7307 -0.7978
  150OSM    C8S16629   0.311   3.728   3.129 -0.2270  0.0459  0.0559
  150OSM    H8S16630   0.257   3.631   3.130  0.4175 -0.3165  0.2853
  150OSM    H8T16631   0.242   3.814   3.135  0.8321  1.3094 -3.2631
  150OSM    C9S16632   0.407   3.737   3.255  0.4147  1.0999  0.5815
  150OSM    H9S16633   0.452   3.839   3.257  2.7833  0.1294  1.4985
  150OSM    H9T16634   0.487   3.661   3.240 -0.4977  0.4179 -1.0159
  150OSM   C10S16635   0.327   3.721   3.389 -0.5837 -0.1532  0.9554
  150OSM   H10S16636   0.273   3.624   3.385 -0.0336 -0.5000 -3.7905
  150OSM   H10T16637   0.240   3.791   3.385 -0.0132  0.5279 -0.0483
  150OSM   C11S16638   0.412   3.737   3.510 -0.0197 -0.2670 -0.1444
  150OSM   H11S16639   0.436   3.842   3.536  2.8612 -0.9078  0.1278
  150OSM   H11T16640   0.516   3.700   3.498  0.2395  0.3265  0.2365
  150OSM   C12S16641   0.351   3.664   3.630  0.0727  0.3950 -0.0665
  150OSM   H12S16642   0.341   3.555   3.609 -0.5520  0.3176  0.5935
  150OSM   H12T16643   0.251   3.710   3.645 -0.6780 -0.2287 -2.6169
  150OSM   C13S16644   0.432   3.682   3.750  0.5092  0.1754  0.5817
  150OSM   H13S16645   0.467   3.786   3.764 -0.1063  0.3101  1.1758
  150OSM   H13T16646   0.520   3.613   3.743 -1.0546 -1.8313 -0.3705
  150OSM   C14S16647   0.356   3.654   3.875 -0.2601 -0.7486  0.0473
  150OSM   H14S16648   0.330   3.546   3.873 -0.6197 -0.6645  0.0548
  150OSM   H14T16649   0.268   3.723   3.881  1.3499  1.6275 -1.8373
  150OSM   C15S16650   0.436   3.676   3.997  0.5485 -0.3129 -0.4123
  150OSM   H15S16651   0.482   3.777   4.007  2.4972 -1.3521  2.5504
  150OSM   H15T16652   0.524   3.609   4.000  2.0493  1.5835  1.5920
  150OSM   C16S16653   0.346   3.656   4.119  0.7271  0.4153 -0.3698
  150OSM   H16S16654   0.298   3.560   4.090  2.1760 -0.6535  0.6484
  150OSM   H16T16655   0.266   3.732   4.121  1.1523  0.8945 -1.2082
  150OSM   C17S16656   0.408   3.648   4.259  0.5268 -0.6139 -1.0271
  150OSM   H17S16657   0.497   3.581   4.259  0.3685 -0.9315  1.7025
  150OSM   H17T16658   0.331   3.608   4.329 -0.4113 -0.7786 -2.1335
  150OSM   C18S16659   0.443   3.785   4.325  0.5735  0.7877 -0.4357
  150OSM   H18S16660   0.517   3.838   4.261 -0.6366  2.4019 -0.5448
  150OSM   H18T16661   0.483   3.764   4.427 -0.7579 -0.6513 -0.1793
  150OSM   H18U16662   0.358   3.855   4.321  0.3471  0.4445 -3.3245
  150OSM    C1F16663   0.447   4.196   2.639 -0.1850  0.2005  0.3825
  150OSM     OF16664   0.374   4.226   2.547  1.0612  0.2326 -0.0929
  150OSM    C2F16665   0.486   4.299   2.739 -0.5178 -0.1171  0.3521
  150OSM    H2F16666   0.498   4.405   2.708 -1.2598  0.2371  1.2101
  150OSM    H2G16667   0.585   4.270   2.780 -0.2994  1.5186  1.0419
  150OSM    C3F16668   0.379   4.319   2.843 -0.2570 -0.4780 -0.1941
  150OSM    H3F16669   0.283   4.356   2.802 -2.1845 -0.6670  3.7017
  150OSM    H3G16670   0.406   4.403   2.911  1.5857  0.5787 -2.1170
  150OSM    C4F16671   0.327   4.190   2.918 -0.1157 -0.5583  0.1097
  150OSM    H4F16672   0.286   4.121   2.842 -1.6030  1.6534 -1.1609
  150OSM    H4G16673   0.248   4.209   2.994 -0.7630 -1.3669 -0.3447
  150OSM    C5F16674   0.442   4.122   2.989  1.0227 -0.8059 -0.4946
  150OSM    H5F16675   0.504   4.072   2.912 -2.1313 -3.3699 -1.5913
  150OSM    H5G16676   0.412   4.031   3.045 -1.0057 -1.1757 -2.0594
  150OSM    C6F16677   0.527   4.207   3.090 -0.5434 -0.1265  0.5487
  150OSM    H6F16678   0.458   4.238   3.171 -1.3603 -1.2984  0.3127
  150OSM    H6G16679   0.571   4.302   3.051 -0.7052  0.7976  2.5162
  150OSM    C7F16680   0.632   4.117   3.158 -0.4791 -0.3418 -0.0582
  150OSM    H7F16681   0.695   4.062   3.085  2.6556  0.8703  1.5219
  150OSM    H7G16682   0.580   4.038   3.216 -2.0715  0.7512  0.0585
  150OSM    C8F16683   0.728   4.196   3.247  0.8941 -0.2587 -0.5006
  150OSM    H8F16684   0.667   4.252   3.320  0.2479 -1.2921 -0.2204
  150OSM    H8G16685   0.781   4.270   3.184  0.3892 -0.4807 -1.2083
  150OSM    C9F16686   0.814   4.089   3.312 -0.0242 -1.0268  0.4486
  150OSM    H9F16687   0.898   4.053   3.249 -0.5579 -3.8129  1.2275
  150OSM   C10F16688   0.813   4.036   3.435 -0.0584 -0.4401 -0.1556
  150OSM   H10F16689   0.872   3.946   3.457 -0.7167 -1.7737 -3.2540
  150OSM   C11F16690   0.699   4.065   3.528 -0.3727 -0.2790 -0.0209
  150OSM   H11F16691   0.606   4.011   3.500 -2.1464  2.5291 -0.0016
  150OSM   H11G16692   0.676   4.172   3.509  2.9624  0.3748 -1.0964
  150OSM   C12F16693   0.728   4.043   3.678 -0.7344 -0.0667  0.0285
  150OSM   H12F16694   0.650   4.084   3.746  0.0153  2.8899 -0.7490
  150OSM   H12G16695   0.819   4.100   3.707 -0.2942 -0.3902 -0.6897
  150OSM   C13F16696   0.754   3.895   3.721 -0.0935 -0.5928  0.9799
  150OSM   H13F16697   0.853   3.861   3.683 -0.3772  0.9872 -1.3435
  150OSM   H13G16698   0.674   3.835   3.672  0.0383  0.7751 -1.0018
  150OSM   C14F16699   0.767   3.855   3.868  0.5766 -0.6167 -0.4644
  150OSM   H14F16700   0.758   3.746   3.886 -1.7667 -0.1602  1.7090
  150OSM   H14G16701   0.691   3.913   3.926  1.6885  1.1013 -0.6374
  150OSM   C15F16702   0.913   3.885   3.924 -0.7486 -0.1273 -0.5388
  150OSM   H15F16703   0.958   3.981   3.891  1.3726 -0.4922  1.1337
  150OSM   H15G16704   0.967   3.804   3.870 -0.2057  0.4443 -0.8695
  150OSM   C16F16705   0.943   3.863   4.071  0.4132 -0.3084  0.9786
  150OSM   H16F16706   1.051   3.839   4.082  0.2169 -1.5269  0.4926
  150OSM   H16G16707   0.870   3.788   4.108 -1.8572  1.6421  0.6304
  150OSM   C17F16708   0.922   3.993   4.157  0.6887  0.1073  0.3630
  150OSM   H17F16709   0.819   4.034   4.156  1.2689  1.6828 -1.3707
  150OSM   H17G16710   0.992   4.072   4.122  2.0137 -1.1900 -0.0192
  150OSM   C18F16711   0.958   3.975   4.301 -0.3484  0.2590 -0.1850
  150OSM   H18F16712   0.916   4.058   4.361  0.3230  1.0511 -0.7921
  150OSM   H18G16713   1.069   3.986   4.309 -0.3632  0.0896  0.2858
  150OSM   H18H16714   0.917   3.876   4.332 -0.5192 -0.2124 -1.8356
  151OSM      N16715   0.495   2.901   2.071 -0.1040 -0.3514  0.3263
  151OSM    C1516716   0.496   2.795   2.172 -0.1789  0.7481  0.2774
  151OSM   H15A16717   0.550   2.828   2.259  0.5744  0.8255 -0.2185
  151OSM   H15B16718   0.547   2.711   2.129 -0.9030  0.0192  0.8082
  151OSM   H15C16719   0.401   2.759   2.208 -1.3448  1.3761 -1.9526
  151OSM    C1416720   0.424   2.863   1.943 -0.3687  0.2380 -0.1561
  151OSM   H14A16721   0.421   2.950   1.879 -2.8064 -1.1506 -2.0587
  151OSM   H14B16722   0.322   2.831   1.961 -0.8108  2.3466  1.5392
  151OSM   H14C16723   0.482   2.794   1.884  0.9829  2.0777 -1.0586
  151OSM    C1316724   0.425   3.029   2.125 -0.0697 -0.5288 -0.4737
  151OSM   H13A16725   0.465   3.064   2.219  0.0471  0.0632 -0.7377
  151OSM   H13B16726   0.326   3.011   2.164  0.5860 -0.5699  1.2462
  151OSM   H13C16727   0.404   3.101   2.047 -0.7247 -0.6434 -0.4127
  151OSM    C1216728   0.631   2.948   2.027  0.4551 -0.2547 -0.1703
  151OSM   H12A16729   0.618   3.033   1.961 -2.7097 -0.6999 -0.2716
  151OSM   H12B16730   0.663   2.864   1.968  0.8199 -0.5107  0.3795
  151OSM    C1116731   0.742   2.984   2.132  0.0114 -0.1231  0.3189
  151OSM   H11A16732   0.840   3.008   2.086  1.5330 -1.5638  2.6154
  151OSM   H11B16733   0.759   2.888   2.186 -2.4067 -0.7654  0.0944
  151OSM      P16734   0.708   3.233   2.170 -0.4949  0.1563  0.4953
  151OSM    O1316735   0.836   3.293   2.201  0.1476 -0.1011  0.2047
  151OSM    O1416736   0.666   3.243   2.028 -0.1639 -0.3400 -0.9998
  151OSM    O1116737   0.597   3.304   2.257 -0.6167 -0.1728  0.3369
  151OSM    O1216738   0.700   3.088   2.214  0.4161 -0.0349 -0.2670
  151OSM    C1S16739   0.585   3.282   2.397  0.0576 -0.0742  0.2834
  151OSM    H1S16740   0.677   3.326   2.441 -0.1447 -2.0208  2.8487
  151OSM    H1T16741   0.571   3.178   2.433  2.2576 -1.2140 -1.9031
  151OSM     NF16742   0.461   3.365   2.598  0.0421  0.4522 -0.0643
  151OSM    HNF16743   0.386   3.306   2.626  1.6616 -1.8438 -0.2234
  151OSM    C2S16744   0.477   3.390   2.454 -0.5598  0.4084  0.2227
  151OSM    H2S16745   0.528   3.488   2.448 -1.3149  0.9462  2.1094
  151OSM    C3S16746   0.350   3.385   2.371  0.8789 -0.1278 -0.8746
  151OSM    H3S16747   0.334   3.275   2.364 -0.2530 -0.1927  1.8154
  151OSM     O316748   0.347   3.432   2.237 -0.0418 -0.1101 -0.2559
  151OSM    HO316749   0.434   3.410   2.203  0.4087  1.1781  0.0325
  151OSM    C4S16750   0.224   3.438   2.447 -0.0102  0.1625 -0.1728
  151OSM    H4S16751   0.213   3.546   2.462  0.4385  0.4142 -1.4626
  151OSM    C5S16752   0.127   3.358   2.493  0.2484  0.0512 -0.2666
  151OSM    H5S16753   0.138   3.250   2.510  0.7729  0.1214 -0.1436
  151OSM    C6S16754   0.002   3.408   2.567 -0.0593  0.2029 -0.1431
  151OSM    H6S16755  -0.070   3.325   2.581 -1.6977  1.7022  0.6964
  151OSM    H6T16756  -0.050   3.487   2.509  1.6784  2.4820  1.2113
  151OSM    C7S16757   0.042   3.454   2.713  0.3937  0.3138 -0.3250
  151OSM    H7S16758  -0.049   3.490   2.764  0.9852  2.1409 -0.5060
  151OSM    H7T16759   0.114   3.538   2.706  0.7306  0.0519 -0.0226
  151OSM    C8S16760   0.097   3.336   2.792 -0.1143  0.6206  0.2136
  151OSM    H8S16761   0.195   3.305   2.750 -1.0833 -0.8302 -1.1094
  151OSM    H8T16762   0.029   3.248   2.789  1.4474 -0.7706  2.3924
  151OSM    C9S16763   0.117   3.360   2.945 -0.0336  0.2239  0.1189
  151OSM    H9S16764   0.164   3.460   2.955 -3.7905  2.0621  0.9734
  151OSM    H9T16765   0.184   3.279   2.981  0.4725  0.3261 -0.5814
  151OSM   C10S16766  -0.012   3.370   3.022 -0.9588 -0.2273 -0.7484
  151OSM   H10S16767  -0.067   3.274   3.017 -2.7357  0.6650  0.4097
  151OSM   H10T16768  -0.078   3.446   2.974  0.0947  0.8545 -0.5166
  151OSM   C11S16769   0.008   3.404   3.172  0.6393 -0.0998  0.1819
  151OSM   H11S16770  -0.080   3.459   3.212  1.1926  0.6823  0.3431
  151OSM   H11T16771   0.094   3.473   3.182 -0.3485  1.1101  0.4989
  151OSM   C12S16772   0.038   3.285   3.264 -0.7122  0.0901 -0.2330
  151OSM   H12S16773   0.124   3.235   3.214 -1.2117 -0.7374 -0.2772
  151OSM   H12T16774  -0.045   3.212   3.269 -0.5616 -0.0955 -0.4458
  151OSM   C13S16775   0.080   3.324   3.404  0.4524 -0.5609 -0.5538
  151OSM   H13S16776   0.021   3.405   3.451  2.1354 -0.9950  2.6193
  151OSM   H13T16777   0.182   3.366   3.389  0.5116 -0.8241 -0.9109
  151OSM   C14S16778   0.062   3.212   3.506 -0.0271 -0.3998  0.0799
  151OSM   H14S16779   0.147   3.142   3.498  0.0037 -0.2095 -1.6556
  151OSM   H14T16780  -0.038   3.165   3.492 -1.4248  1.8424  1.7374
  151OSM   C15S16781   0.062   3.255   3.654  0.2167  0.1199  0.2584
  151OSM   H15S16782   0.149   3.324   3.663 -0.1292  0.5454  0.3718
  151OSM   H15T16783   0.069   3.166   3.720  0.3309  1.1189  1.6515
  151OSM   C16S16784  -0.059   3.331   3.694 -0.5260  0.6361 -0.4095
  151OSM   H16S16785  -0.149   3.268   3.678 -1.6709  1.5017  2.0780
  151OSM   H16T16786  -0.063   3.429   3.642  2.0599  0.4990 -0.9913
  151OSM   C17S16787  -0.046   3.365   3.844 -0.6702 -0.2178  0.5295
  151OSM   H17S16788  -0.127   3.426   3.888 -0.5330 -0.9124  1.8032
  151OSM   H17T16789   0.046   3.424   3.864 -1.3289  1.0660 -0.1296
  151OSM   C18S16790  -0.050   3.240   3.933 -0.4193 -0.2467 -0.1240
  151OSM   H18S16791  -0.125   3.166   3.896 -1.0298 -0.1436  0.8584
  151OSM   H18T16792  -0.070   3.264   4.039 -0.8349 -2.3754  0.3301
  151OSM   H18U16793   0.048   3.188   3.929 -1.0396 -1.3841 -1.7091
  151OSM    C1F16794   0.555   3.388   2.689 -0.0721 -0.0223 -0.1056
  151OSM     OF16795   0.665   3.432   2.667  0.3376  0.2972  0.2201
  151OSM    C2F16796   0.521   3.339   2.824 -1.0730 -0.0729 -0.6738
  151OSM    H2F16797   0.537   3.229   2.819  2.5387  0.2266  0.9547
  151OSM    H2G16798   0.419   3.362   2.861  0.3157  3.1688  1.5663
  151OSM    C3F16799   0.605   3.401   2.950 -0.1119  0.9110  0.0709
  151OSM    H3F16800   0.574   3.508   2.952 -2.0488  0.4787 -2.2824
  151OSM    H3G16801   0.711   3.401   2.914  0.3241  0.6339  1.3266
  151OSM    C4F16802   0.595   3.318   3.073  0.0390  0.2633 -0.4673
  151OSM    H4F16803   0.665   3.353   3.151  1.2443  0.1921 -1.4854
  151OSM    H4G16804   0.632   3.218   3.042 -1.3144 -0.8483  1.2736
  151OSM    C5F16805   0.457   3.299   3.134  0.1087 -0.5412  0.5000
  151OSM    H5F16806   0.393   3.241   3.064 -1.2474  2.4003 -0.8819
  151OSM    H5G16807   0.419   3.401   3.159 -0.3340 -0.5356 -0.1702
  151OSM    C6F16808   0.449   3.218   3.266  0.0749 -0.7043 -0.0681
  151OSM    H6F16809   0.490   3.115   3.261  1.6569 -0.4111  3.4476
  151OSM    H6G16810   0.341   3.213   3.294  0.0138  1.9614  0.4482
  151OSM    C7F16811   0.525   3.288   3.385  0.7406  0.3681  0.1209
  151OSM    H7F16812   0.487   3.392   3.394  1.7731  0.9118 -1.4627
  151OSM    H7G16813   0.634   3.288   3.365  0.4671  0.3845 -1.5295
  151OSM    C8F16814   0.504   3.206   3.519  0.0666 -0.6304 -1.0514
  151OSM    H8F16815   0.396   3.194   3.542  0.5885 -1.0922  1.4547
  151OSM    H8G16816   0.554   3.252   3.607 -0.9543 -0.8990 -0.3143
  151OSM    C9F16817   0.562   3.069   3.508 -0.5995 -0.1505  0.2666
  151OSM    H9F16818   0.649   3.056   3.442 -1.6198 -2.7066 -0.6770
  151OSM   C10F16819   0.517   2.969   3.579 -0.0529  0.8181 -0.2976
  151OSM   H10F16820   0.575   2.875   3.577 -2.9219 -1.0466 -0.6926
  151OSM   C11F16821   0.407   2.976   3.675  1.0635  0.3360  0.2327
  151OSM   H11F16822   0.355   2.879   3.690 -0.1460  0.8421 -0.4906
  151OSM   H11G16823   0.331   3.054   3.653 -0.7094 -0.8411  1.8282
  151OSM   C12F16824   0.461   3.012   3.816 -0.4080 -0.4117 -0.7595
  151OSM   H12F16825   0.542   3.088   3.813 -0.6889 -0.0533  0.3506
  151OSM   H12G16826   0.518   2.927   3.858  1.1161  1.6043  1.5073
  151OSM   C13F16827   0.362   3.035   3.934 -0.4202  0.2851 -1.2541
  151OSM   H13F16828   0.287   2.953   3.939  1.4055 -1.4561 -1.0161
  151OSM   H13G16829   0.313   3.134   3.925  2.5125  2.0387  0.3587
  151OSM   C14F16830   0.425   3.054   4.073  0.0900  0.0303 -0.2137
  151OSM   H14F16831   0.487   3.146   4.063  2.2719 -1.2438  0.7931
  151OSM   H14G16832   0.488   2.965   4.094  1.1504  0.7808 -0.1351
  151OSM   C15F16833   0.326   3.075   4.183  0.1479  0.0208  0.1305
  151OSM   H15F16834   0.247   2.997   4.175  0.5468 -0.3255 -0.4941
  151OSM   H15G16835   0.278   3.170   4.153 -0.3751  0.0791  1.1078
  151OSM   C16F16836   0.385   3.082   4.325  0.0299  0.1835  0.4359
  151OSM   H16F16837   0.462   3.162   4.326  2.0361 -1.6147 -0.5932
  151OSM   H16G16838   0.446   2.992   4.348 -0.0432 -0.3460 -1.2946
  151OSM   C17F16839   0.286   3.087   4.434  0.0003  0.6527 -0.0590
  151OSM   H17F16840   0.327   3.039   4.526 -1.0632 -0.1567  0.0124
  151OSM   H17G16841   0.199   3.021   4.414  2.7129 -4.3360  2.5329
  151OSM   C18F16842   0.231   3.227   4.480  0.2524 -0.6956  0.3204
  151OSM   H18F16843   0.321   3.281   4.517 -0.6187  0.5627  0.6848
  151OSM   H18G16844   0.172   3.202   4.571  1.0434 -1.8255  0.5422
  151OSM   H18H16845   0.184   3.294   4.405 -2.2978 -1.8314  0.7958
  152OSM      N16846   1.179   4.941   2.207 -0.2766  0.9701 -0.7699
  152OSM    C1516847   1.269   4.957   2.328  0.1710  0.5413 -0.9118
  152OSM   H15A16848   1.228   4.899   2.409 -1.3992  3.3584  0.4586
  152OSM   H15B16849   1.257   5.052   2.377 -0.3523 -0.6926  1.5480
  152OSM   H15C16850   1.373   4.942   2.305 -0.0779 -0.6794 -1.3047
  152OSM    C1416851   1.239   5.036   2.108 -0.4700  0.2019 -0.7652
  152OSM   H14A16852   1.165   5.047   2.030  0.7251  3.2481 -1.6098
  152OSM   H14B16853   1.326   4.994   2.061  0.3859  1.6685 -0.5338
  152OSM   H14C16854   1.265   5.132   2.149  0.8429 -0.7889  0.8809
  152OSM    C1316855   1.184   4.798   2.155  0.6773  0.0583 -0.4580
  152OSM   H13A16856   1.129   4.733   2.222  0.3881  0.8595  0.1054
  152OSM   H13B16857   1.287   4.769   2.146  0.9315  0.5405  0.6869
  152OSM   H13C16858   1.130   4.797   2.062 -1.1528  1.3460  0.5120
  152OSM    C1216859   1.036   4.980   2.252 -0.9190 -0.2201  0.6626
  152OSM   H12A16860   0.970   4.980   2.167 -1.2174 -0.8310  0.8815
  152OSM   H12B16861   1.045   5.083   2.282  1.2663  0.4031 -1.8284
  152OSM    C1116862   0.965   4.891   2.354  0.3743 -0.4230  0.1146
  152OSM   H11A16863   0.962   4.783   2.329 -0.6780 -0.4698  0.4014
  152OSM   H11B16864   0.859   4.923   2.356  0.1907 -1.0343  0.4025
  152OSM      P16865   1.000   5.039   2.572 -0.0392  0.0723 -0.0829
  152OSM    O1316866   1.068   5.023   2.702 -0.8305 -0.0651  0.2928
  152OSM    O1416867   1.032   5.158   2.499 -0.3213 -0.1347  0.5329
  152OSM    O1116868   0.839   5.038   2.597 -0.4241  0.3193  0.4040
  152OSM    O1216869   1.024   4.906   2.481  0.4821 -0.3475  0.1633
  152OSM    C1S16870   0.770   4.931   2.653 -0.0368  0.4383  0.6906
  152OSM    H1S16871   0.801   4.835   2.606 -1.2135 -0.9540  2.6340
  152OSM    H1T16872   0.660   4.936   2.634  0.2155  2.4362 -0.5114
  152OSM     NF16873   0.728   4.780   2.859 -0.6158 -0.5120  0.1723
  152OSM    HNF16874   0.647   4.781   2.918 -0.3888 -0.1531  0.4883
  152OSM    C2S16875   0.786   4.913   2.809 -0.1939 -0.0604 -1.0097
  152OSM    H2S16876   0.895   4.898   2.828 -0.6936 -1.4156  1.2039
  152OSM    C3S16877   0.733   5.035   2.887  0.0593  0.1337 -0.8115
  152OSM    H3S16878   0.622   5.033   2.887  0.0431  0.1440  0.5439
  152OSM     O316879   0.761   5.168   2.840  0.2151  0.3899  0.2316
  152OSM    HO316880   0.788   5.150   2.750 -0.8024  0.3395 -0.0710
  152OSM    C4S16881   0.799   5.024   3.017  0.1236  0.2925 -0.2720
  152OSM    H4S16882   0.729   4.997   3.097 -3.5979 -1.1584 -3.6411
  152OSM    C5S16883   0.928   5.033   3.046  0.2656  0.0003  0.3393
  152OSM    H5S16884   1.003   5.059   2.971  3.0502 -2.0568  2.1723
  152OSM    C6S16885   0.981   5.031   3.189  1.3292 -0.1308 -0.3321
  152OSM    H6S16886   0.954   5.123   3.246 -0.9641 -0.7722 -0.2956
  152OSM    H6T16887   1.091   5.039   3.173  1.3051  0.0468 -0.4183
  152OSM    C7S16888   0.961   4.905   3.277 -0.6639 -0.5587  0.0966
  152OSM    H7S16889   1.013   4.815   3.237 -0.6303 -0.1475 -0.7927
  152OSM    H7T16890   0.851   4.891   3.275 -1.0652  1.1436  3.2302
  152OSM    C8S16891   1.000   4.929   3.426 -0.3836  0.6045  0.0359
  152OSM    H8S16892   0.956   5.026   3.457  0.5061  0.4537  1.8588
  152OSM    H8T16893   1.108   4.927   3.451 -0.3708  4.5750  0.9157
  152OSM    C9S16894   0.931   4.821   3.526  0.3485 -0.1907  0.1326
  152OSM    H9S16895   0.978   4.725   3.497  0.2035  0.6036 -3.0393
  152OSM    H9T16896   0.825   4.811   3.493  0.7842 -2.5415 -0.6951
  152OSM   C10S16897   0.959   4.854   3.675 -0.0329  0.4196  0.6720
  152OSM   H10S16898   0.867   4.829   3.733 -0.5797 -0.8878 -0.7059
  152OSM   H10T16899   0.975   4.963   3.692  1.1481  0.4614 -0.5349
  152OSM   C11S16900   1.085   4.774   3.727 -0.1384 -0.1384 -0.4024
  152OSM   H11S16901   1.189   4.802   3.696  0.4857 -0.3828  1.3586
  152OSM   H11T16902   1.076   4.666   3.704  0.4351 -0.4454  0.7418
  152OSM   C12S16903   1.094   4.794   3.878 -0.2329  0.2640 -0.7493
  152OSM   H12S16904   1.064   4.894   3.916  0.9176  0.4836 -0.3826
  152OSM   H12T16905   1.197   4.773   3.914 -0.7887  0.0138  0.7967
  152OSM   C13S16906   1.004   4.688   3.947  0.7694  0.1248 -0.3380
  152OSM   H13S16907   1.017   4.584   3.909 -0.6548 -0.5403  0.8831
  152OSM   H13T16908   0.905   4.720   3.908  1.0197 -2.0001 -3.0266
  152OSM   C14S16909   0.999   4.697   4.100 -0.0941 -0.6527  0.5674
  152OSM   H14S16910   0.975   4.799   4.137 -2.0145 -0.1099 -1.9141
  152OSM   H14T16911   1.105   4.693   4.135  0.1483  2.6640  0.5332
  152OSM   C15S16912   0.897   4.602   4.165 -0.8996  0.4437  0.5619
  152OSM   H15S16913   0.927   4.499   4.137  0.2375  0.5409  1.3732
  152OSM   H15T16914   0.803   4.638   4.118 -0.8101  1.5172  1.1871
  152OSM   C16S16915   0.873   4.614   4.316  0.5070 -0.2615  0.7640
  152OSM   H16S16916   0.788   4.547   4.342 -0.1060  1.1955  2.7721
  152OSM   H16T16917   0.848   4.720   4.338 -0.7509 -0.4038  0.1463
  152OSM   C17S16918   0.998   4.575   4.402 -0.2059  0.4939  0.0382
  152OSM   H17S16919   0.974   4.616   4.503  0.2476  1.8814 -0.3927
  152OSM   H17T16920   1.087   4.625   4.359 -0.8566  0.9787 -0.7706
  152OSM   C18S16921   1.015   4.424   4.399  0.5255  0.3705 -1.0177
  152OSM   H18S16922   1.088   4.383   4.471 -1.9842 -1.9420  0.4030
  152OSM   H18T16923   1.058   4.392   4.302  0.5636 -0.4179 -0.7465
  152OSM   H18U16924   0.916   4.377   4.421  0.1712  0.6333 -2.0160
  152OSM    C1F16925   0.790   4.663   2.826  0.0440 -0.9185 -0.0526
  152OSM     OF16926   0.898   4.661   2.764  0.3124 -0.3867 -0.1052
  152OSM    C2F16927   0.717   4.546   2.875 -0.1148 -0.8355  0.0872
  152OSM    H2F16928   0.628   4.526   2.812 -2.2998 -0.0626  2.7150
  152OSM    H2G16929   0.683   4.571   2.978 -0.6622  0.3450 -0.3525
  152OSM    C3F16930   0.806   4.421   2.870 -0.0528 -0.8688 -0.3815
  152OSM    H3F16931   0.839   4.409   2.764 -2.1115  1.4169 -1.3746
  152OSM    H3G16932   0.750   4.334   2.908  0.5858 -1.6607 -1.2059
  152OSM    C4F16933   0.935   4.434   2.955  0.3919 -0.1509  0.0556
  152OSM    H4F16934   0.899   4.471   3.054  0.1058 -1.9840  0.6664
  152OSM    H4G16935   1.015   4.494   2.906  0.5843 -0.2794  0.2100
  152OSM    C5F16936   0.993   4.300   2.985  0.0489  0.7526 -0.6484
  152OSM    H5F16937   1.027   4.265   2.885  1.5136  1.2429 -0.3448
  152OSM    H5G16938   0.925   4.224   3.028  0.6202  1.2599  1.2755
  152OSM    C6F16939   1.122   4.301   3.075 -0.5557  0.2324  0.3888
  152OSM    H6F16940   1.096   4.334   3.178 -2.3178 -1.9015  0.6927
  152OSM    H6G16941   1.181   4.384   3.032  0.1897  0.9049  2.5646
  152OSM    C7F16942   1.203   4.174   3.096 -0.1590 -0.0569  0.4042
  152OSM    H7F16943   1.146   4.088   3.056  2.3486 -1.2949 -0.7868
  152OSM    H7G16944   1.224   4.157   3.203  0.9200  3.6851  0.9403
  152OSM    C8F16945   1.329   4.188   3.014 -0.2616  0.5393  0.2386
  152OSM    H8F16946   1.391   4.270   3.055  0.3384  0.3926 -0.3427
  152OSM    H8G16947   1.294   4.227   2.916 -2.4968  1.4153  1.3268
  152OSM    C9F16948   1.406   4.061   2.995 -0.2265 -0.3978 -0.1585
  152OSM    H9F16949   1.417   4.029   2.890 -0.3263 -1.4099  0.1302
  152OSM   C10F16950   1.474   3.990   3.087 -0.1194 -0.4503  0.2851
  152OSM   H10F16951   1.519   3.894   3.058  0.3736 -0.1099 -0.0892
  152OSM   C11F16952   1.494   4.016   3.230  0.0157  0.0873  0.4142
  152OSM   H11F16953   1.406   4.059   3.282 -0.0677 -1.1714  1.3417
  152OSM   H11G16954   1.582   4.084   3.241  0.6980 -0.4080 -1.5744
  152OSM   C12F16955   1.527   3.892   3.317  0.0436  0.2133 -0.6788
  152OSM   H12F16956   1.625   3.846   3.292  0.2554  0.5915 -0.5521
  152OSM   H12G16957   1.451   3.811   3.307  0.8025 -0.6402  0.2949
  152OSM   C13F16958   1.517   3.932   3.463 -0.2241  0.0392  0.1467
  152OSM   H13F16959   1.431   3.999   3.485  1.0288  2.1651 -1.0723
  152OSM   H13G16960   1.608   3.994   3.480 -0.1407 -0.1924  0.5467
  152OSM   C14F16961   1.539   3.819   3.572 -0.0034  0.2425 -0.2943
  152OSM   H14F16962   1.641   3.780   3.549 -1.3439 -1.7992 -3.4563
  152OSM   H14G16963   1.467   3.740   3.545 -0.4252  1.1546 -1.9504
  152OSM   C15F16964   1.516   3.878   3.717 -0.1593  0.4429  0.0317
  152OSM   H15F16965   1.571   3.815   3.790  3.0153  0.9076 -1.7553
  152OSM   H15G16966   1.407   3.871   3.737 -0.0080 -1.5952  0.2899
  152OSM   C16F16967   1.575   4.017   3.746 -0.0592 -0.3195  0.6139
  152OSM   H16F16968   1.504   4.099   3.718 -0.7271 -1.5969 -1.7719
  152OSM   H16G16969   1.671   4.018   3.690  0.4578  1.2415  1.4863
  152OSM   C17F16970   1.625   4.033   3.890 -0.5136 -0.4130 -0.2625
  152OSM   H17F16971   1.690   3.945   3.909  1.2244  0.0245 -3.5340
  152OSM   H17G16972   1.533   4.038   3.953 -0.6982 -0.2067 -0.5438
  152OSM   C18F16973   1.708   4.157   3.909  0.1497  0.6822  0.0131
  152OSM   H18F16974   1.650   4.252   3.916  1.7728  1.7551 -0.4209
  152OSM   H18G16975   1.765   4.173   3.816 -0.2615  1.3284 -0.1359
  152OSM   H18H16976   1.776   4.152   3.997  0.3861  2.1641 -0.0520
  153OSM      N16977   0.419   5.854   2.179  0.2795  0.4501  0.4154
  153OSM    C1516978   0.508   5.905   2.059 -0.1027 -0.1964 -0.0613
  153OSM   H15A16979   0.611   5.876   2.077 -0.1814 -0.2185  0.3779
  153OSM   H15B16980   0.507   6.013   2.064  2.3021 -0.0732 -0.8862
  153OSM   H15C16981   0.484   5.858   1.965  3.4301 -1.3409 -0.5391
  153OSM    C1416982   0.441   5.705   2.169  0.9408 -0.0541 -0.5145
  153OSM   H14A16983   0.430   5.665   2.069 -1.3186  2.9710 -1.6546
  153OSM   H14B16984   0.366   5.659   2.231 -0.5290  1.2043 -1.2754
  153OSM   H14C16985   0.541   5.686   2.203  0.3704  0.9362  1.9170
  153OSM    C1316986   0.474   5.903   2.307 -0.0287  0.4181 -0.1351
  153OSM   H13A16987   0.472   6.011   2.309 -2.2637  0.4153 -0.1414
  153OSM   H13B16988   0.577   5.874   2.322 -0.6971 -1.5074  1.0768
  153OSM   H13C16989   0.416   5.865   2.390  0.7482 -1.3926 -0.3809
  153OSM    C1216990   0.275   5.891   2.158  0.0879  0.1419 -0.0943
  153OSM   H12A16991   0.225   5.833   2.082 -1.5271 -1.5826  2.1491
  153OSM   H12B16992   0.274   5.993   2.120 -0.9739  1.0874  2.2821
  153OSM    C1116993   0.183   5.881   2.283  0.1517 -0.3392 -0.0018
  153OSM   H11A16994   0.213   5.782   2.326  0.3346 -0.6269 -0.7807
  153OSM   H11B16995   0.076   5.869   2.259 -0.1766  2.3330 -0.1687
  153OSM      P16996   0.178   5.991   2.518 -0.5609 -0.4576  0.1724
  153OSM    O1316997   0.211   6.130   2.556  0.2082 -0.6860  0.0136
  153OSM    O1416998   0.041   5.941   2.532  0.3812  0.1677 -1.5282
  153OSM    O1116999   0.285   5.892   2.580 -0.0337 -0.0396 -0.4544
  153OSM    O1217000   0.209   5.991   2.367  0.0718 -0.2692  0.1749
  153OSM    C1S17001   0.263   5.874   2.722  0.1910 -0.1319 -0.5640
  153OSM    H1S17002   0.180   5.802   2.738  0.8331 -0.7063  0.2707
  153OSM    H1T17003   0.232   5.969   2.770 -1.1112 -0.7620 -0.1257
  153OSM     NF17004   0.378   5.771   2.921 -0.1793 -0.4555 -0.4019
  153OSM    HNF17005   0.414   5.832   2.991  0.9963 -2.0449  0.4612
  153OSM    C2S17006   0.398   5.815   2.788  0.4950  0.3067 -0.2696
  153OSM    H2S17007   0.425   5.723   2.732 -0.4222 -0.7693  0.9627
  153OSM    C3S17008   0.507   5.922   2.771 -0.1863  0.2231  0.2210
  153OSM    H3S17009   0.465   6.021   2.799 -0.6921 -0.1088  0.6423
  153OSM     O317010   0.548   5.931   2.635  0.5165  0.1797  0.1983
  153OSM    HO317011   0.472   5.892   2.592  0.0865  2.0525 -0.8023
  153OSM    C4S17012   0.616   5.888   2.872  0.7223  0.2541 -0.1159
  153OSM    H4S17013   0.591   5.898   2.978  3.6229 -1.7764  0.8956
  153OSM    C5S17014   0.735   5.837   2.854  0.0590  0.6749  0.5045
  153OSM    H5S17015   0.771   5.814   2.753 -0.9752 -0.9559  0.4629
  153OSM    C6S17016   0.837   5.789   2.954 -0.0760 -0.3498  0.4068
  153OSM    H6S17017   0.943   5.821   2.943  0.7746 -2.4099  1.8693
  153OSM    H6T17018   0.853   5.679   2.950  2.2368 -0.1902  2.5922
  153OSM    C7S17019   0.793   5.810   3.104 -0.2203 -1.0459  1.1848
  153OSM    H7S17020   0.690   5.768   3.110 -0.3480 -0.6885  1.5443
  153OSM    H7T17021   0.812   5.914   3.140  1.9741 -1.0123  0.0984
  153OSM    C8S17022   0.863   5.719   3.217 -0.1170  0.6005  0.0384
  153OSM    H8S17023   0.973   5.728   3.207 -0.2392  0.3657 -1.7982
  153OSM    H8T17024   0.834   5.614   3.195  1.2240  0.4027 -0.8574
  153OSM    C9S17025   0.826   5.765   3.359  0.2072 -0.0861 -0.2021
  153OSM    H9S17026   0.726   5.731   3.392  0.5723  0.0415  1.1286
  153OSM    H9T17027   0.836   5.876   3.361  0.2414 -0.0800 -0.6328
  153OSM   C10S17028   0.914   5.703   3.464 -0.0318 -0.4199 -0.5396
  153OSM   H10S17029   1.023   5.717   3.446  0.8614 -1.2975  3.3576
  153OSM   H10T17030   0.886   5.596   3.457 -0.9977 -0.2317  0.2612
  153OSM   C11S17031   0.873   5.759   3.602  0.0524 -0.5954  0.0849
  153OSM   H11S17032   0.766   5.731   3.611 -0.5665  1.1556 -1.1426
  153OSM   H11T17033   0.878   5.870   3.600  2.0828 -0.6463  0.3402
  153OSM   C12S17034   0.953   5.693   3.717 -0.7047 -0.7753 -0.2378
  153OSM   H12S17035   1.052   5.741   3.705 -1.6137  1.4664  0.6281
  153OSM   H12T17036   0.972   5.586   3.695 -1.1700 -1.3732  2.0061
  153OSM   C13S17037   0.892   5.721   3.855 -0.4960 -0.3441  0.6457
  153OSM   H13S17038   0.784   5.695   3.851 -0.8430  0.9124  1.3360
  153OSM   H13T17039   0.903   5.830   3.873  1.4126 -0.3558 -0.2404
  153OSM   C14S17040   0.957   5.649   3.973  0.0755 -0.0107  0.4401
  153OSM   H14S17041   1.064   5.679   3.974  0.1045 -0.1361  0.9246
  153OSM   H14T17042   0.969   5.539   3.968  2.0575  0.0622  2.3064
  153OSM   C15S17043   0.884   5.669   4.105  0.3149 -0.5519  0.1727
  153OSM   H15S17044   0.782   5.628   4.090 -0.7230  1.9598 -0.1484
  153OSM   H15T17045   0.869   5.779   4.113 -0.3298 -0.6465  0.3035
  153OSM   C16S17046   0.956   5.606   4.221 -0.3484 -0.3285 -0.4703
  153OSM   H16S17047   1.059   5.647   4.227 -0.1180 -0.9306 -0.2528
  153OSM   H16T17048   0.956   5.499   4.192 -2.1376 -0.2737 -0.7945
  153OSM   C17S17049   0.879   5.652   4.347 -0.2373  0.0345  0.0835
  153OSM   H17S17050   0.797   5.577   4.350 -0.4549  0.2594  2.6092
  153OSM   H17T17051   0.823   5.745   4.323 -1.2981 -0.4366  0.6400
  153OSM   C18S17052   0.965   5.647   4.476 -0.3379  0.4138 -0.3494
  153OSM   H18S17053   0.928   5.730   4.540  0.2331 -0.8002  1.6322
  153OSM   H18T17054   1.073   5.662   4.459  0.0843  0.8453  2.2688
  153OSM   H18U17055   0.946   5.547   4.522 -1.5202  0.3353 -0.9774
  153OSM    C1F17056   0.286   5.680   2.967 -0.4313 -0.0133  0.7872
  153OSM     OF17057   0.217   5.619   2.884 -0.3755 -0.6227  0.0839
  153OSM    C2F17058   0.262   5.673   3.109 -1.2063 -0.0289 -0.4301
  153OSM    H2F17059   0.222   5.768   3.153 -0.5063 -0.8146  2.0453
  153OSM    H2G17060   0.362   5.667   3.157 -0.4134  0.7824 -1.9269
  153OSM    C3F17061   0.171   5.562   3.151 -0.7162  0.1462 -0.3453
  153OSM    H3F17062   0.203   5.461   3.116 -1.9619 -1.1146  1.8546
  153OSM    H3G17063   0.069   5.581   3.112 -1.4142 -1.4999  0.5501
  153OSM    C4F17064   0.136   5.561   3.300 -0.1995  0.4921  0.0575
  153OSM    H4F17065   0.033   5.520   3.308  0.0360 -0.0040  0.5646
  153OSM    H4G17066   0.134   5.663   3.344 -0.1793  1.5180 -2.1640
  153OSM    C5F17067   0.226   5.472   3.384 -0.4344 -0.0178  0.2007
  153OSM    H5F17068   0.334   5.490   3.366 -0.6772  1.9948  0.5670
  153OSM    H5G17069   0.200   5.367   3.359 -1.2581  0.3273 -0.4419
  153OSM    C6F17070   0.194   5.493   3.532  0.4023  0.2013  0.2690
  153OSM    H6F17071   0.086   5.473   3.543 -0.1719  0.7105 -3.4115
  153OSM    H6G17072   0.230   5.591   3.571 -0.5457  0.9970 -0.7904
  153OSM    C7F17073   0.267   5.381   3.615  0.0826  0.3417  0.2855
  153OSM    H7F17074   0.377   5.396   3.620  0.3221 -1.6868  2.7832
  153OSM    H7G17075   0.255   5.285   3.560 -1.2503  0.4067  0.4267
  153OSM    C8F17076   0.214   5.378   3.762  0.2003 -0.0977  0.0046
  153OSM    H8F17077   0.259   5.293   3.818 -0.3236 -0.1203  0.3981
  153OSM    H8G17078   0.105   5.368   3.741  0.2395  0.0576 -0.2821
  153OSM    C9F17079   0.232   5.491   3.849  0.6730 -0.2575  0.0303
  153OSM    H9F17080   0.134   5.532   3.876  0.4381 -2.1921  2.4310
  153OSM   C10F17081   0.339   5.548   3.913  0.3243  0.2964  0.6493
  153OSM   H10F17082   0.325   5.650   3.953  2.0971  0.8879 -0.1233
  153OSM   C11F17083   0.481   5.513   3.890  0.2934 -0.7813  0.3580
  153OSM   H11F17084   0.547   5.601   3.872  1.6527 -1.3926  2.0146
  153OSM   H11G17085   0.484   5.454   3.796 -0.0151  1.7761 -1.3634
  153OSM   C12F17086   0.537   5.448   4.019 -0.0745  0.3582 -0.3204
  153OSM   H12F17087   0.558   5.526   4.095  1.4112  1.5344 -1.8572
  153OSM   H12G17088   0.641   5.410   4.013  0.5504  1.7176  1.1340
  153OSM   C13F17089   0.456   5.340   4.090 -0.6655 -0.2715  0.2979
  153OSM   H13F17090   0.420   5.261   4.020 -1.6987  1.2694 -0.9714
  153OSM   H13G17091   0.359   5.386   4.119 -0.6355 -0.6001  0.9353
  153OSM   C14F17092   0.523   5.266   4.211  0.4281 -0.3561  0.4165
  153OSM   H14F17093   0.629   5.257   4.180 -0.0782 -1.6923 -1.0538
  153OSM   H14G17094   0.466   5.171   4.223 -2.0642  0.9991 -0.0433
  153OSM   C15F17095   0.521   5.354   4.341 -0.5298  0.6640  1.5347
  153OSM   H15F17096   0.416   5.375   4.370 -0.7754  1.1075  0.3755
  153OSM   H15G17097   0.570   5.453   4.326  0.4702  0.0202  0.4350
  153OSM   C16F17098   0.602   5.276   4.451 -0.1341  0.8487  0.1627
  153OSM   H16F17099   0.698   5.237   4.412  0.5848 -0.9247  3.3253
  153OSM   H16G17100   0.541   5.189   4.483 -2.1232  2.4321  0.9074
  153OSM   C17F17101   0.646   5.355   4.575  0.2897  0.3917  0.3101
  153OSM   H17F17102   0.554   5.398   4.620 -0.0357  0.2149 -0.1845
  153OSM   H17G17103   0.719   5.435   4.552 -1.3014  1.5883 -0.7771
  153OSM   C18F17104   0.717   5.265   4.680  0.4326  0.9562 -0.4467
  153OSM   H18F17105   0.815   5.225   4.645 -0.4089 -1.5346 -0.1067
  153OSM   H18G17106   0.653   5.177   4.702  1.3526  0.1735 -0.8393
  153OSM   H18H17107   0.731   5.317   4.777 -2.3650 -1.9435  1.7147
  154OSM      N17108   6.000   2.992   2.058 -0.0781  0.3771 -0.6990
  154OSM    C1517109   5.879   2.938   2.117 -0.3246 -0.2960 -0.3561
  154OSM   H15A17110   5.904   2.849   2.173  0.4660 -0.9418 -1.6606
  154OSM   H15B17111   5.802   2.925   2.041  0.1392  1.0578 -1.0918
  154OSM   H15C17112   5.838   3.004   2.191  1.1487 -2.6981  2.8262
  154OSM    C1417113   6.044   2.895   1.950  0.6106  0.1345 -0.2559
  154OSM   H14A17114   5.959   2.875   1.886  0.4414  1.4567 -0.4738
  154OSM   H14B17115   6.087   2.803   1.987  0.0106  0.2603  0.7924
  154OSM   H14C17116   6.112   2.948   1.885 -0.9927  2.2682 -0.3134
  154OSM    C1317117   5.983   3.129   2.003 -0.1090 -0.3427 -0.2949
  154OSM   H13A17118   5.886   3.138   1.955 -0.2664 -0.8387 -0.0759
  154OSM   H13B17119   6.072   3.146   1.945 -1.0064  1.8401 -1.1179
  154OSM   H13C17120   5.981   3.202   2.082 -0.3330  2.2059 -2.5091
  154OSM    C1217121   6.100   2.980   2.172 -0.2792 -0.3289  0.2230
  154OSM   H12A17122   6.196   2.987   2.124 -0.0481  0.5724  0.7749
  154OSM   H12B17123   6.100   2.880   2.213  1.3974 -0.6250 -0.4389
  154OSM    C1117124   6.087   3.084   2.284  0.0221  0.1398 -0.5932
  154OSM   H11A17125   6.138   3.070   2.382 -0.7781  3.0622  0.3368
  154OSM   H11B17126   5.980   3.082   2.316  0.5163 -0.5494  1.1503
  154OSM      P17127   6.260   3.272   2.213 -0.0864 -0.2413 -0.1845
  154OSM    O1317128   6.344   3.183   2.124 -0.2026  0.3087 -0.2102
  154OSM    O1417129   6.234   3.409   2.169  0.0532 -0.1881  0.7999
  154OSM    O1117130   6.305   3.262   2.363 -0.3032  0.3294 -0.0766
  154OSM    O1217131   6.116   3.215   2.243  0.4289  0.3457 -0.8771
  154OSM    C1S17132   6.262   3.357   2.456  0.2480 -0.2827  0.8116
  154OSM    H1S17133   6.165   3.407   2.435  1.5195  2.6049  1.2876
  154OSM    H1T17134   6.338   3.438   2.464 -0.0119 -0.1964  3.3092
  154OSM     NF17135   6.199   3.378   2.697 -0.6358  0.4678  0.1684
  154OSM    HNF17136   6.258   3.404   2.774 -1.8785  1.1671  0.9253
  154OSM    C2S17137   6.266   3.296   2.595  0.4497  0.1655  0.7672
  154OSM    H2S17138   6.203   3.205   2.585  1.7708 -0.5859 -1.4014
  154OSM    C3S17139   6.414   3.240   2.615 -0.4960 -0.3777  0.1002
  154OSM    H3S17140   6.491   3.315   2.589  0.4701 -1.0485  0.9470
  154OSM     O317141   6.458   3.131   2.534 -0.0917  0.2428  0.4945
  154OSM    HO317142   6.402   3.135   2.456 -1.6857  0.7481  1.6069
  154OSM    C4S17143   6.446   3.210   2.759  0.0256  0.4035  0.0819
  154OSM    H4S17144   6.432   3.304   2.814  1.5655  1.2380 -0.8874
  154OSM    C5S17145   6.486   3.098   2.820 -0.2880  0.5969 -0.4770
  154OSM    H5S17146   6.515   3.012   2.758  0.9169  0.0722  0.7579
  154OSM    C6S17147   6.525   3.090   2.968  0.3122 -0.6147  0.0328
  154OSM    H6S17148   6.537   3.194   3.004 -2.8619 -0.1293 -0.0657
  154OSM    H6T17149   6.621   3.033   2.974 -0.0752 -1.2081  0.7017
  154OSM    C7S17150   6.433   3.035   3.078 -0.0692 -0.0313  0.0779
  154OSM    H7S17151   6.407   2.930   3.053  1.2870 -0.6201  1.0434
  154OSM    H7T17152   6.332   3.080   3.082 -1.3895 -2.6561 -1.1626
  154OSM    C8S17153   6.494   3.047   3.216  0.3195 -0.5040  0.0450
  154OSM    H8S17154   6.510   3.153   3.245  2.8188  0.0551 -2.8047
  154OSM    H8T17155   6.595   3.001   3.205  0.7043  0.5149 -0.9047
  154OSM    C9S17156   6.406   2.978   3.319 -0.3389 -0.3175 -0.3694
  154OSM    H9S17157   6.382   2.874   3.288  0.1605 -0.4361 -0.3677
  154OSM    H9T17158   6.311   3.037   3.321 -0.3276 -0.3072  1.7225
  154OSM   C10S17159   6.470   2.974   3.459 -0.3727 -0.7584 -0.1663
  154OSM   H10S17160   6.494   3.073   3.503 -0.9762 -2.1260  3.5989
  154OSM   H10T17161   6.560   2.909   3.459  0.3168  0.1827  0.0036
  154OSM   C11S17162   6.357   2.922   3.550  0.2851  0.3753  0.0951
  154OSM   H11S17163   6.336   2.816   3.527 -0.9373  0.6590 -0.1480
  154OSM   H11T17164   6.270   2.986   3.527  3.2233  4.3378 -1.1880
  154OSM   C12S17165   6.379   2.936   3.703 -0.1158  0.2204 -0.7438
  154OSM   H12S17166   6.407   3.043   3.715 -1.1095  0.3692  0.4528
  154OSM   H12T17167   6.469   2.878   3.733  1.3718  2.3078 -0.9537
  154OSM   C13S17168   6.263   2.907   3.791 -0.4459 -0.1263 -0.0824
  154OSM   H13S17169   6.245   2.798   3.784 -0.5211 -0.5831  4.2433
  154OSM   H13T17170   6.174   2.971   3.771  0.4528  1.3950  0.5758
  154OSM   C14S17171   6.305   2.922   3.942 -0.1833 -0.8265 -0.1433
  154OSM   H14S17172   6.359   3.016   3.964 -0.1449 -1.2616  1.8176
  154OSM   H14T17173   6.387   2.848   3.956  0.3531 -0.2127 -0.0473
  154OSM   C15S17174   6.183   2.902   4.032 -0.5794 -0.7236  0.3125
  154OSM   H15S17175   6.115   2.823   3.993 -1.4484  0.4808 -0.7109
  154OSM   H15T17176   6.128   2.998   4.025 -0.4063 -0.5114  1.6505
  154OSM   C16S17177   6.236   2.851   4.169  0.0611 -0.2575  0.0246
  154OSM   H16S17178   6.319   2.914   4.207  1.6942 -3.0467  1.4351
  154OSM   H16T17179   6.289   2.754   4.157 -0.1971 -0.3027 -0.8698
  154OSM   C17S17180   6.121   2.829   4.262 -0.7645 -0.2058 -0.3829
  154OSM   H17S17181   6.167   2.784   4.352  0.1447  0.9400 -0.2475
  154OSM   H17T17182   6.048   2.754   4.226 -0.9255 -0.1758 -0.1266
  154OSM   C18S17183   6.047   2.958   4.306  0.5709 -0.5040 -0.0557
  154OSM   H18S17184   6.113   3.046   4.319 -2.3309  1.9726 -0.9531
  154OSM   H18T17185   5.990   2.928   4.397 -0.9998  0.1081 -0.8024
  154OSM   H18U17186   5.968   2.986   4.233 -1.4184 -0.5023  1.9956
  154OSM    C1F17187   6.069   3.386   2.710  1.0463 -0.6139  0.3818
  154OSM     OF17188   5.999   3.355   2.612 -0.3096  0.0049 -0.2943
  154OSM    C2F17189   6.003   3.429   2.832  0.1822  0.1324 -0.3639
  154OSM    H2F17190   6.000   3.540   2.831  0.9236  0.1984  1.3431
  154OSM    H2G17191   6.057   3.388   2.921  1.1345 -0.7595 -1.3191
  154OSM    C3F17192   5.853   3.390   2.829  0.8538  0.2313  0.0238
  154OSM    H3F17193   5.844   3.281   2.809 -2.2060  0.0445  1.7956
  154OSM    H3G17194   5.803   3.448   2.749  1.7116  2.0190  0.7436
  154OSM    C4F17195   5.781   3.439   2.959 -0.0950 -0.2085  0.0333
  154OSM    H4F17196   5.820   3.374   3.040  1.7979 -1.1135 -1.5175
  154OSM    H4G17197   5.671   3.430   2.952 -0.4132  1.6083  1.6981
  154OSM    C5F17198   5.817   3.579   2.999  0.7757 -0.4542 -0.3492
  154OSM    H5F17199   5.779   3.644   2.916  1.1214  0.1071 -0.0725
  154OSM    H5G17200   5.927   3.594   3.006  0.7861  0.7790 -2.2206
  154OSM    C6F17201   5.759   3.617   3.140  0.7766 -1.6128 -0.3741
  154OSM    H6F17202   5.652   3.589   3.129  0.5332 -0.6436 -0.6571
  154OSM    H6G17203   5.773   3.728   3.143  0.6804 -1.6257  1.0170
  154OSM    C7F17204   5.831   3.560   3.261 -0.0060 -0.4330 -0.2747
  154OSM    H7F17205   5.936   3.595   3.251  0.0633 -0.9246 -1.4292
  154OSM    H7G17206   5.835   3.450   3.244 -1.7151 -0.0547 -4.3112
  154OSM    C8F17207   5.766   3.593   3.397  0.5895  0.2480  0.3755
  154OSM    H8F17208   5.658   3.568   3.400  1.0960 -2.1478  1.2113
  154OSM    H8G17209   5.791   3.700   3.411 -0.6104  0.7041 -0.8198
  154OSM    C9F17210   5.845   3.514   3.496 -0.5853 -0.8208 -0.7037
  154OSM    H9F17211   5.920   3.451   3.447 -1.4109 -0.0703 -3.0926
  154OSM   C10F17212   5.842   3.524   3.629  0.1675 -0.3320 -0.1378
  154OSM   H10F17213   5.900   3.454   3.691 -0.5173  0.2819  1.2482
  154OSM   C11F17214   5.739   3.607   3.699  0.1551  0.4127 -0.3835
  154OSM   H11F17215   5.652   3.540   3.717 -0.7529  1.9136  1.1071
  154OSM   H11G17216   5.707   3.697   3.643 -0.5468  0.6256  0.3477
  154OSM   C12F17217   5.796   3.651   3.831 -0.0779 -0.1744  0.2219
  154OSM   H12F17218   5.875   3.729   3.823  0.3629 -0.6194  0.2185
  154OSM   H12G17219   5.829   3.558   3.882  1.9850 -0.1370 -0.9309
  154OSM   C13F17220   5.683   3.694   3.927 -0.2407 -0.2042  0.4204
  154OSM   H13F17221   5.622   3.602   3.943 -2.1507  0.7411 -0.9898
  154OSM   H13G17222   5.641   3.782   3.875  0.3651 -0.0825  0.1248
  154OSM   C14F17223   5.748   3.735   4.065  0.0188  0.0442 -0.2291
  154OSM   H14F17224   5.831   3.805   4.041  0.9053 -1.3476 -1.4163
  154OSM   H14G17225   5.789   3.647   4.117  0.8484 -0.3430 -1.4906
  154OSM   C15F17226   5.649   3.807   4.153 -0.3661  0.3323  0.2044
  154OSM   H15F17227   5.566   3.734   4.155  0.0462 -0.2238 -1.3610
  154OSM   H15G17228   5.615   3.903   4.108 -0.5438  0.5347  0.7674
  154OSM   C16F17229   5.703   3.827   4.303 -0.3075  0.4611  0.2611
  154OSM   H16F17230   5.801   3.879   4.293 -0.3488  0.1715 -2.1906
  154OSM   H16G17231   5.723   3.728   4.350  2.0744  1.6135  1.8799
  154OSM   C17F17232   5.602   3.907   4.384  0.1904  0.6223  0.2844
  154OSM   H17F17233   5.510   3.847   4.405 -0.5455  2.1790  1.7488
  154OSM   H17G17234   5.567   3.999   4.335 -3.5778 -0.4474  0.6652
  154OSM   C18F17235   5.653   3.938   4.528 -0.3144  0.6324  0.0409
  154OSM   H18F17236   5.566   3.986   4.577  0.1332 -0.4143  1.9375
  154OSM   H18G17237   5.743   4.002   4.540 -0.0785 -0.2948  5.0056
  154OSM   H18H17238   5.674   3.842   4.580  1.8729  0.2144 -1.4597
  155OSM      N17239   2.306   1.410   1.843 -0.3092 -0.4091  0.5794
  155OSM    C1517240   2.176   1.395   1.774 -0.4043 -0.3254 -0.2085
  155OSM   H15A17241   2.188   1.347   1.678  1.6870  1.5981 -0.9913
  155OSM   H15B17242   2.116   1.483   1.755 -2.2366 -1.6963 -1.2027
  155OSM   H15C17243   2.116   1.335   1.840  0.3685 -1.3964 -0.4486
  155OSM    C1417244   2.389   1.519   1.783  0.5720 -0.5032 -0.0326
  155OSM   H14A17245   2.394   1.507   1.676 -1.0854 -2.1859  0.0307
  155OSM   H14B17246   2.488   1.533   1.824 -0.1527  0.1657  1.5959
  155OSM   H14C17247   2.339   1.614   1.796  0.4665 -0.7075  1.2532
  155OSM    C1317248   2.273   1.452   1.990  0.5781 -0.7900  0.5767
  155OSM   H13A17249   2.362   1.459   2.052 -0.6637  1.9410  2.2016
  155OSM   H13B17250   2.222   1.367   2.033  2.9622 -2.8038 -0.2752
  155OSM   H13C17251   2.212   1.540   2.000  0.2791 -0.8349 -0.7316
  155OSM    C1217252   2.377   1.277   1.843  0.0307 -0.2308  0.1020
  155OSM   H12A17253   2.466   1.284   1.903 -0.1690  1.0465  0.2945
  155OSM   H12B17254   2.411   1.261   1.742  0.1711  1.4594 -0.1543
  155OSM    C1117255   2.303   1.152   1.880  0.0900  0.2705 -0.2932
  155OSM   H11A17256   2.360   1.066   1.839 -0.1926  0.2450 -0.6331
  155OSM   H11B17257   2.203   1.143   1.831 -0.6345  0.3474  1.1163
  155OSM      P17258   2.379   1.058   2.111 -0.0080 -0.4222  0.0394
  155OSM    O1317259   2.382   0.913   2.096  0.5177 -0.6428 -0.4340
  155OSM    O1417260   2.511   1.119   2.115  0.2345 -0.3530  0.0044
  155OSM    O1117261   2.310   1.096   2.247  0.2475 -0.3127 -0.3867
  155OSM    O1217262   2.281   1.137   2.019 -0.3789 -0.0328  0.6884
  155OSM    C1S17263   2.314   1.228   2.307 -0.1472  0.5284  0.1580
  155OSM    H1S17264   2.230   1.288   2.264 -0.4561  0.8550  1.1836
  155OSM    H1T17265   2.412   1.278   2.293  0.8060 -0.6554  2.1762
  155OSM     NF17266   2.289   1.355   2.522  0.8981 -0.5187 -0.7220
  155OSM    HNF17267   2.377   1.396   2.545 -0.0310  1.9980 -1.2724
  155OSM    C2S17268   2.296   1.225   2.467 -0.4325  0.0781  0.4455
  155OSM    H2S17269   2.199   1.172   2.480  0.9547 -2.4661  0.9615
  155OSM    C3S17270   2.398   1.134   2.542  0.2529 -0.1793  0.2984
  155OSM    H3S17271   2.497   1.184   2.536 -0.4793  1.1167 -2.7043
  155OSM     O317272   2.418   1.011   2.470 -0.1190 -0.0073 -0.7179
  155OSM    HO317273   2.364   1.021   2.391 -2.8601 -1.8046  0.7692
  155OSM    C4S17274   2.350   1.095   2.684 -0.1118 -0.0125 -0.4530
  155OSM    H4S17275   2.270   1.020   2.681 -1.1301  1.0713 -2.1220
  155OSM    C5S17276   2.396   1.138   2.800 -0.4191  0.6481  0.6075
  155OSM    H5S17277   2.463   1.225   2.800 -0.0207  0.3458  0.5396
  155OSM    C6S17278   2.342   1.090   2.934  0.7751 -0.3414 -0.1286
  155OSM    H6S17279   2.425   1.061   3.001 -0.4767  0.5172  1.8787
  155OSM    H6T17280   2.267   1.008   2.934  0.0674  0.2864  0.1133
  155OSM    C7S17281   2.275   1.202   3.018  0.0396 -0.3763 -0.0799
  155OSM    H7S17282   2.182   1.226   2.962  0.8215  1.3891 -0.7105
  155OSM    H7T17283   2.326   1.302   3.017 -4.1623  1.9872 -0.2269
  155OSM    C8S17284   2.246   1.174   3.169 -0.3405 -0.0617  0.1657
  155OSM    H8S17285   2.179   1.086   3.171 -1.7160  0.8929 -1.5005
  155OSM    H8T17286   2.180   1.255   3.206 -0.4657 -0.8370  1.7261
  155OSM    C9S17287   2.370   1.169   3.260  0.0406  0.3394  0.1458
  155OSM    H9S17288   2.447   1.240   3.222  2.0005 -1.8595 -0.1706
  155OSM    H9T17289   2.424   1.073   3.245  0.6006  0.3403  1.8932
  155OSM   C10S17290   2.337   1.197   3.404 -0.0430  0.2620 -0.1449
  155OSM   H10S17291   2.259   1.127   3.440 -0.7958  1.2432  0.2044
  155OSM   H10T17292   2.294   1.299   3.392  0.9714  0.8577  1.0782
  155OSM   C11S17293   2.457   1.211   3.496 -0.1198  0.2045 -0.1893
  155OSM   H11S17294   2.505   1.306   3.464  1.0389  0.1993  1.4029
  155OSM   H11T17295   2.532   1.129   3.491  0.2057  0.3985  1.1693
  155OSM   C12S17296   2.417   1.221   3.642 -0.5319 -0.5795  0.3021
  155OSM   H12S17297   2.358   1.130   3.667 -0.8686 -0.6783 -0.7888
  155OSM   H12T17298   2.356   1.314   3.653 -0.4965 -0.4361 -0.6369
  155OSM   C13S17299   2.540   1.214   3.738  0.1987 -0.9392  0.2003
  155OSM   H13S17300   2.602   1.306   3.734 -0.5510 -0.4210  0.2065
  155OSM   H13T17301   2.609   1.137   3.698  2.6032  1.4784 -0.5862
  155OSM   C14S17302   2.495   1.187   3.879 -0.4704 -0.3373  0.3805
  155OSM   H14S17303   2.452   1.086   3.891 -3.1401  0.6483 -0.1436
  155OSM   H14T17304   2.413   1.258   3.902 -0.0969  0.3361 -0.3097
  155OSM   C15S17305   2.610   1.194   3.982 -1.1826 -0.5678 -0.7192
  155OSM   H15S17306   2.650   1.298   3.991  1.0281 -1.5557  3.6667
  155OSM   H15T17307   2.687   1.127   3.939 -1.2638  0.2326 -2.1782
  155OSM   C16S17308   2.580   1.157   4.130 -0.0911  0.1717  0.2352
  155OSM   H16S17309   2.677   1.166   4.183 -0.5954 -0.1427  1.2274
  155OSM   H16T17310   2.557   1.049   4.132  0.3209  0.0844  0.2530
  155OSM   C17S17311   2.474   1.233   4.204  0.5476  0.0835 -0.5038
  155OSM   H17S17312   2.382   1.205   4.150 -0.6658  0.8664  1.0653
  155OSM   H17T17313   2.469   1.343   4.188  0.0552  0.1053 -0.2122
  155OSM   C18S17314   2.446   1.193   4.344 -0.0548 -0.0560  0.4853
  155OSM   H18S17315   2.541   1.210   4.399  0.8788 -0.4007 -0.9651
  155OSM   H18T17316   2.416   1.087   4.358 -2.0519  0.3744 -0.1888
  155OSM   H18U17317   2.376   1.258   4.401 -0.0259  1.4763 -1.1488
  155OSM    C1F17318   2.184   1.439   2.520 -0.2516  0.0487  0.1819
  155OSM     OF17319   2.073   1.400   2.488 -0.0215 -0.5239  0.3831
  155OSM    C2F17320   2.205   1.572   2.585 -0.4380 -0.0272  0.0772
  155OSM    H2F17321   2.199   1.644   2.501 -0.5385 -0.8397 -0.6199
  155OSM    H2G17322   2.308   1.578   2.628 -0.6842  1.5024  0.5191
  155OSM    C3F17323   2.113   1.597   2.702  0.3499 -0.4764 -0.0689
  155OSM    H3F17324   2.009   1.621   2.672  0.1996  0.3439  1.0318
  155OSM    H3G17325   2.161   1.682   2.757 -0.0227 -1.9601  2.7626
  155OSM    C4F17326   2.106   1.477   2.801  0.2131 -0.0251 -0.2421
  155OSM    H4F17327   2.210   1.458   2.835 -0.0011 -2.8289 -0.9318
  155OSM    H4G17328   2.066   1.390   2.744  2.0253 -0.6300 -0.6436
  155OSM    C5F17329   2.012   1.503   2.919 -0.0400 -0.0675  0.5775
  155OSM    H5F17330   2.001   1.408   2.976 -1.5369  1.0217  2.2365
  155OSM    H5G17331   1.909   1.518   2.878  0.6850  1.1701 -0.8659
  155OSM    C6F17332   2.045   1.620   3.012 -0.0756 -1.0603 -0.7826
  155OSM    H6F17333   2.061   1.718   2.963 -1.9611  0.9513  2.3498
  155OSM    H6G17334   2.141   1.593   3.060 -0.3770  1.1019  1.2320
  155OSM    C7F17335   1.933   1.643   3.124  0.2067  0.6993  0.0149
  155OSM    H7F17336   1.837   1.676   3.078 -0.5367 -1.8975 -0.4826
  155OSM    H7G17337   1.973   1.710   3.203 -0.4082  1.1071 -0.0175
  155OSM    C8F17338   1.891   1.508   3.189 -0.2507 -0.3934  0.8896
  155OSM    H8F17339   1.981   1.446   3.208 -1.4112 -2.0375  1.3046
  155OSM    H8G17340   1.833   1.448   3.115  0.0582 -0.2727  0.5482
  155OSM    C9F17341   1.816   1.517   3.315  0.4631  0.3355  0.3756
  155OSM    H9F17342   1.707   1.523   3.313  0.3146  0.6166  3.5632
  155OSM   C10F17343   1.880   1.524   3.436 -0.2602 -0.9280  0.2683
  155OSM   H10F17344   1.818   1.526   3.526 -2.1412 -0.5760 -0.9785
  155OSM   C11F17345   2.024   1.537   3.469 -0.3119  0.8883  0.1519
  155OSM   H11F17346   2.057   1.640   3.444  0.4131  0.4585 -0.7634
  155OSM   H11G17347   2.090   1.471   3.407  0.2663  0.2525  1.4171
  155OSM   C12F17348   2.064   1.505   3.611 -0.1732  0.3182  0.1079
  155OSM   H12F17349   2.000   1.581   3.661 -1.1140  0.3750 -1.1356
  155OSM   H12G17350   2.172   1.529   3.621  0.1468 -0.5429 -1.0959
  155OSM   C13F17351   2.048   1.360   3.673 -0.6807 -0.1186  0.1812
  155OSM   H13F17352   2.089   1.293   3.594 -1.6589  0.2234 -0.6395
  155OSM   H13G17353   1.942   1.333   3.696 -0.7869  0.3352  0.2410
  155OSM   C14F17354   2.113   1.350   3.814  0.7648 -0.3235  0.6248
  155OSM   H14F17355   2.224   1.346   3.808  0.8203 -1.3355  1.8263
  155OSM   H14G17356   2.073   1.251   3.845 -0.4241 -0.6010 -1.6269
  155OSM   C15F17357   2.051   1.447   3.918  0.1513  0.2287 -0.1196
  155OSM   H15F17358   1.940   1.437   3.912  0.3524 -2.3205 -0.7931
  155OSM   H15G17359   2.073   1.549   3.883  1.5500 -0.5498 -1.6465
  155OSM   C16F17360   2.121   1.420   4.053  0.7315  0.5990 -0.4157
  155OSM   H16F17361   2.228   1.444   4.035  1.3571 -0.4691  1.5874
  155OSM   H16G17362   2.111   1.315   4.090 -1.3519  1.5654  2.0679
  155OSM   C17F17363   2.076   1.511   4.168 -0.2494 -0.3653 -1.4051
  155OSM   H17F17364   2.092   1.619   4.147 -0.3034 -0.1989 -0.6138
  155OSM   H17G17365   2.146   1.495   4.253  0.9272 -0.6147 -2.3879
  155OSM   C18F17366   1.940   1.485   4.223  0.0844  0.0911  0.1568
  155OSM   H18F17367   1.926   1.542   4.317 -0.8097 -0.1957  0.2004
  155OSM   H18G17368   1.929   1.375   4.233 -0.6864  0.0548 -0.9167
  155OSM   H18H17369   1.864   1.521   4.152 -1.1547  0.1978  1.4861
  156OSM      N17370   3.540   0.256   2.142 -0.2637  0.1774 -0.5201
  156OSM    C1517371   3.550   0.364   2.249 -0.0050 -0.5543 -0.4324
  156OSM   H15A17372   3.626   0.335   2.321  0.2345  0.8177 -0.0966
  156OSM   H15B17373   3.456   0.385   2.297  0.6230  1.4077  0.0239
  156OSM   H15C17374   3.591   0.453   2.204  0.6336  0.2721  1.6689
  156OSM    C1417375   3.482   0.134   2.200 -0.3902 -0.5721  0.0713
  156OSM   H14A17376   3.528   0.088   2.287  0.2039  0.8507  0.5324
  156OSM   H14B17377   3.481   0.055   2.126  0.0327 -0.9487  0.4614
  156OSM   H14C17378   3.385   0.152   2.244 -0.5148 -0.6117 -0.1882
  156OSM    C1317379   3.441   0.308   2.044  0.0631  0.3921  0.1413
  156OSM   H13A17380   3.424   0.225   1.977 -0.3333 -0.7082  1.5499
  156OSM   H13B17381   3.472   0.386   1.976 -3.0231  0.5153 -1.2999
  156OSM   H13C17382   3.343   0.316   2.088  0.1112 -1.5923  0.6891
  156OSM    C1217383   3.686   0.236   2.093  0.6192 -0.4901  0.9408
  156OSM   H12A17384   3.751   0.191   2.167  2.5171  0.7693  0.1327
  156OSM   H12B17385   3.724   0.335   2.071 -2.5090  0.4735 -0.6579
  156OSM    C1117386   3.711   0.140   1.975 -0.0939  0.5690  0.5744
  156OSM   H11A17387   3.820   0.131   1.957 -0.2615 -2.3544  0.5595
  156OSM   H11B17388   3.661   0.187   1.887 -1.3139 -0.0382  0.9101
  156OSM      P17389   3.729  -0.089   2.085  0.2298  0.0188 -0.1558
  156OSM    O1317390   3.636  -0.168   2.167 -0.6075  0.5676 -0.0306
  156OSM    O1417391   3.827  -0.165   2.008 -0.2040  0.2233 -0.3098
  156OSM    O1117392   3.810  -0.003   2.200  0.2352  0.3000  0.1671
  156OSM    O1217393   3.650   0.010   1.990 -0.0332  0.2768 -0.4284
  156OSM    C1S17394   3.917  -0.062   2.278  0.5505  0.0211  0.4634
  156OSM    H1S17395   4.011  -0.063   2.219  0.4520  1.3517  0.2623
  156OSM    H1T17396   3.891  -0.168   2.296  3.1170 -1.0594 -1.4881
  156OSM     NF17397   4.049  -0.071   2.497 -0.1947 -0.1368  0.2350
  156OSM    HNF17398   4.014  -0.129   2.569  0.5657 -1.6144 -0.5325
  156OSM    C2S17399   3.944  -0.006   2.420  0.5798  0.0331  0.1420
  156OSM    H2S17400   3.975   0.101   2.414  0.8537 -0.1133 -2.4240
  156OSM    C3S17401   3.809   0.014   2.488  0.2860  0.5177 -0.5965
  156OSM    H3S17402   3.773  -0.090   2.507 -0.9653  0.7539 -1.5049
  156OSM     O317403   3.700   0.081   2.425 -0.5257  0.0370  0.0102
  156OSM    HO317404   3.704   0.074   2.329 -0.5759 -0.3381  0.0369
  156OSM    C4S17405   3.825   0.055   2.633  0.4486  0.3874 -0.0979
  156OSM    H4S17406   3.829  -0.026   2.707 -3.2830 -0.4944 -0.6162
  156OSM    C5S17407   3.830   0.180   2.682  0.3969  0.1736 -0.4262
  156OSM    H5S17408   3.802   0.268   2.623  0.5219 -0.3053 -1.2087
  156OSM    C6S17409   3.850   0.215   2.828 -0.1340 -0.1198 -0.1932
  156OSM    H6S17410   3.750   0.253   2.859  0.4802  0.5135  1.0782
  156OSM    H6T17411   3.931   0.290   2.836  1.6706 -2.0516  0.3824
  156OSM    C7S17412   3.903   0.105   2.922  0.1674  0.5608 -0.5222
  156OSM    H7S17413   3.995   0.056   2.885  1.3602  1.0329  1.6496
  156OSM    H7T17414   3.820   0.032   2.928 -1.7049  2.6581  0.9118
  156OSM    C8S17415   3.924   0.159   3.064  0.5528 -0.1367 -0.1222
  156OSM    H8S17416   3.833   0.213   3.098 -0.0486 -0.8181 -0.6227
  156OSM    H8T17417   3.996   0.241   3.047  2.1418 -1.6632 -1.1252
  156OSM    C9S17418   3.963   0.053   3.173 -0.2600  0.2143 -0.3176
  156OSM    H9S17419   4.044  -0.012   3.135  0.4612  0.6962  0.3580
  156OSM    H9T17420   3.877  -0.011   3.201 -0.5456  0.2350 -1.1192
  156OSM   C10S17421   4.025   0.139   3.285  0.0054  0.0546  0.2937
  156OSM   H10S17422   3.968   0.229   3.317  0.0118 -0.6941  2.5725
  156OSM   H10T17423   4.119   0.190   3.257 -0.9585  2.3520  1.0278
  156OSM   C11S17424   4.034   0.063   3.416 -0.3460 -0.3266  0.3300
  156OSM   H11S17425   4.131   0.009   3.420 -0.3379 -0.4525 -1.0235
  156OSM   H11T17426   3.950  -0.010   3.423  1.1708 -2.2739 -0.6411
  156OSM   C12S17427   4.021   0.153   3.543  0.2137 -0.1973 -0.0620
  156OSM   H12S17428   3.918   0.192   3.533  0.2690 -0.2928 -1.1353
  156OSM   H12T17429   4.104   0.227   3.539 -1.4946  1.8210 -0.0347
  156OSM   C13S17430   4.028   0.071   3.675 -0.1688  0.8687 -0.1536
  156OSM   H13S17431   4.118   0.006   3.677 -3.1712 -3.7371  2.4394
  156OSM   H13T17432   3.946  -0.002   3.663 -1.6033  2.1955  1.1149
  156OSM   C14S17433   3.997   0.151   3.805  0.0243 -0.1545  0.2499
  156OSM   H14S17434   4.084   0.213   3.835 -0.6300  0.9844 -0.1465
  156OSM   H14T17435   3.987   0.086   3.895 -2.4031  0.3021  0.3856
  156OSM   C15S17436   3.878   0.247   3.804 -0.0086 -0.5059  0.3495
  156OSM   H15S17437   3.889   0.328   3.728 -2.4093  0.2818  0.7424
  156OSM   H15T17438   3.873   0.286   3.908 -0.3280 -0.0377  0.1674
  156OSM   C16S17439   3.742   0.177   3.774  0.1264 -0.0228 -0.4236
  156OSM   H16S17440   3.722   0.107   3.858 -0.4037 -0.0506 -0.5755
  156OSM   H16T17441   3.757   0.111   3.687 -0.5296  0.7280 -1.1177
  156OSM   C17S17442   3.627   0.267   3.770  0.1475  1.0195 -0.1552
  156OSM   H17S17443   3.659   0.346   3.698  0.6846  0.8153 -0.1474
  156OSM   H17T17444   3.609   0.314   3.869  1.4501 -1.6974  1.4958
  156OSM   C18S17445   3.506   0.202   3.713 -0.1717  0.0114 -0.3002
  156OSM   H18S17446   3.531   0.152   3.617 -0.2110  2.0159 -1.4160
  156OSM   H18T17447   3.433   0.282   3.686  0.4097  2.2460  3.8606
  156OSM   H18U17448   3.442   0.136   3.776  0.9133 -0.8372 -0.0557
  156OSM    C1F17449   4.179  -0.076   2.460 -0.7778 -0.1968  0.2404
  156OSM     OF17450   4.213  -0.029   2.354 -0.0685  0.2869  0.6393
  156OSM    C2F17451   4.286  -0.153   2.552 -0.1833  0.3305  0.8179
  156OSM    H2F17452   4.382  -0.132   2.501  0.5731  2.6862  3.0013
  156OSM    H2G17453   4.257  -0.260   2.552  0.7616  0.0254 -1.2272
  156OSM    C3F17454   4.284  -0.100   2.697 -0.0618  0.2771 -0.5145
  156OSM    H3F17455   4.181  -0.079   2.731 -0.4548  0.8220 -1.9865
  156OSM    H3G17456   4.326   0.003   2.704 -2.3641  1.2260  0.2834
  156OSM    C4F17457   4.335  -0.203   2.799  0.3446 -0.0601 -0.0640
  156OSM    H4F17458   4.442  -0.220   2.774  0.3085  0.8595 -0.8901
  156OSM    H4G17459   4.289  -0.303   2.782 -0.7968  0.4788 -0.2556
  156OSM    C5F17460   4.327  -0.158   2.947 -0.1369 -0.0187  0.9501
  156OSM    H5F17461   4.374  -0.247   2.993  0.6477 -1.0928 -1.7082
  156OSM    H5G17462   4.223  -0.146   2.984 -0.2947  2.9132 -0.1826
  156OSM    C6F17463   4.389  -0.021   2.986  0.3959 -0.5633 -0.0790
  156OSM    H6F17464   4.326   0.055   2.936 -2.4188 -1.5726  1.7156
  156OSM    H6G17465   4.492  -0.007   2.946  0.2613  0.7870 -0.0065
  156OSM    C7F17466   4.385   0.019   3.131  0.7432 -0.7286 -0.8845
  156OSM    H7F17467   4.285   0.016   3.180  1.1821  1.4355  0.2762
  156OSM    H7G17468   4.425   0.122   3.142  1.7169 -0.9562 -2.0617
  156OSM    C8F17469   4.478  -0.066   3.215  0.2214  0.1899 -0.2718
  156OSM    H8F17470   4.575  -0.057   3.161 -0.0168  0.3251 -0.6864
  156OSM    H8G17471   4.445  -0.172   3.220  2.8722 -0.8907 -2.8010
  156OSM    C9F17472   4.487  -0.024   3.357 -0.1380 -0.0992  0.2710
  156OSM    H9F17473   4.392   0.007   3.403 -0.8107 -1.7331  0.0750
  156OSM   C10F17474   4.604  -0.007   3.414 -0.2629  0.1653 -0.7032
  156OSM   H10F17475   4.599   0.048   3.509  0.4685  0.5701 -0.8913
  156OSM   C11F17476   4.752  -0.029   3.377 -0.0706 -0.4100 -0.6576
  156OSM   H11F17477   4.785   0.076   3.371  0.7461 -0.6371 -0.3025
  156OSM   H11G17478   4.775  -0.075   3.279  0.8824 -4.0883  1.0807
  156OSM   C12F17479   4.838  -0.091   3.486  0.2575 -0.0560 -0.5133
  156OSM   H12F17480   4.793  -0.076   3.586  0.0841 -0.1295 -0.5812
  156OSM   H12G17481   4.934  -0.035   3.476 -0.2616  0.7633 -0.9931
  156OSM   C13F17482   4.848  -0.244   3.476  0.3037  0.6178 -0.6133
  156OSM   H13F17483   4.870  -0.264   3.369 -1.7623 -0.3669 -0.9158
  156OSM   H13G17484   4.750  -0.294   3.495  0.9839 -0.7394 -0.5301
  156OSM   C14F17485   4.955  -0.320   3.566 -0.1313  0.0717 -0.0637
  156OSM   H14F17486   5.053  -0.325   3.516 -1.4584 -0.0865 -2.8277
  156OSM   H14G17487   4.930  -0.427   3.577  0.1941  0.1490  1.6876
  156OSM   C15F17488   4.975  -0.261   3.702 -0.9279 -0.8168  0.6350
  156OSM   H15F17489   4.876  -0.249   3.751 -0.6961  2.0232  0.5792
  156OSM   H15G17490   5.028  -0.164   3.688 -2.0083 -0.3088 -0.0782
  156OSM   C16F17491   5.066  -0.348   3.786 -0.5008  0.2114 -0.0276
  156OSM   H16F17492   5.152  -0.374   3.720  0.3869  0.7540  0.8877
  156OSM   H16G17493   5.019  -0.444   3.816 -1.8565  0.6023 -0.8197
  156OSM   C17F17494   5.129  -0.268   3.901  0.3346 -0.6071  0.3434
  156OSM   H17F17495   5.050  -0.222   3.963 -1.8022  0.3285 -2.8415
  156OSM   H17G17496   5.179  -0.185   3.847  0.5759  1.3627  3.3877
  156OSM   C18F17497   5.217  -0.349   3.988  0.2986 -0.1690  0.2209
  156OSM   H18F17498   5.284  -0.290   4.054 -0.0625 -0.3794  0.7870
  156OSM   H18G17499   5.286  -0.410   3.925  1.0238  3.1823 -2.4917
  156OSM   H18H17500   5.152  -0.411   4.054  0.3094  0.9029  1.2667
  157OSM      N17501   3.841   0.818   1.594  0.3481  0.3793  1.0188
  157OSM    C1517502   3.776   0.797   1.457  0.3878  0.4099 -0.5075
  157OSM   H15A17503   3.845   0.741   1.396  0.8433 -2.8072  2.6309
  157OSM   H15B17504   3.764   0.899   1.423  0.8492  1.9224  3.2902
  157OSM   H15C17505   3.679   0.749   1.465  0.8443 -0.7202 -1.5136
  157OSM    C1417506   3.843   0.686   1.672 -0.3227 -0.1292 -0.0934
  157OSM   H14A17507   3.902   0.704   1.761  1.0815  1.3112 -1.2343
  157OSM   H14B17508   3.886   0.599   1.624  0.2691 -0.2814  0.6919
  157OSM   H14C17509   3.744   0.668   1.710  0.3851  2.4577  3.5518
  157OSM    C1317510   3.984   0.863   1.580 -0.6241  0.1049 -0.1891
  157OSM   H13A17511   4.023   0.884   1.679  1.8018 -0.3004 -1.0061
  157OSM   H13B17512   3.983   0.941   1.506  1.2915 -1.3754 -1.8761
  157OSM   H13C17513   4.042   0.776   1.555 -0.1748  0.0739  0.9111
  157OSM    C1217514   3.763   0.926   1.663 -0.1766 -0.2918  0.9528
  157OSM   H12A17515   3.658   0.901   1.651 -0.5781  1.3509  0.8852
  157OSM   H12B17516   3.768   1.019   1.609 -1.9484 -0.2124  0.8613
  157OSM    C1117517   3.779   0.939   1.812  0.2259  0.6186 -0.4503
  157OSM   H11A17518   3.768   0.837   1.855  2.2405  0.6017  0.1295
  157OSM   H11B17519   3.702   1.008   1.852  1.0682  1.9839 -1.1166
  157OSM      P17520   3.952   1.130   1.868  0.1308 -0.4269 -0.0760
  157OSM    O1317521   4.096   1.139   1.902 -0.2219  0.0065  0.0369
  157OSM    O1417522   3.917   1.205   1.748 -0.7196 -0.3769  0.1880
  157OSM    O1117523   3.865   1.183   1.991 -0.0471 -0.0219  0.1118
  157OSM    O1217524   3.906   0.981   1.860  0.3370  0.5396  0.0299
  157OSM    C1S17525   3.877   1.105   2.115  0.0855 -0.0506  0.2633
  157OSM    H1S17526   3.984   1.117   2.144  0.8777 -0.6468 -2.1510
  157OSM    H1T17527   3.854   0.996   2.107  0.4798 -0.2640  1.7238
  157OSM     NF17528   3.810   1.081   2.358  0.2608  0.2880 -0.2040
  157OSM    HNF17529   3.756   1.000   2.379 -1.4754  1.8670  2.0431
  157OSM    C2S17530   3.779   1.147   2.227  0.1753  0.4995 -0.7831
  157OSM    H2S17531   3.798   1.255   2.248 -0.8202  0.7533 -1.1645
  157OSM    C3S17532   3.623   1.136   2.197 -0.2378 -0.0490  0.6136
  157OSM    H3S17533   3.580   1.033   2.197 -0.7159  0.0698 -2.4531
  157OSM     O317534   3.603   1.171   2.065 -0.2485  0.0799  0.2644
  157OSM    HO317535   3.688   1.167   2.022 -0.7727  1.4925 -1.0042
  157OSM    C4S17536   3.547   1.231   2.276 -0.6115 -0.0565  0.1733
  157OSM    H4S17537   3.569   1.337   2.257 -0.3142 -0.4403 -1.9376
  157OSM    C5S17538   3.462   1.192   2.372 -0.0470 -0.4445  0.0213
  157OSM    H5S17539   3.439   1.085   2.382  1.6093 -0.9246 -1.0243
  157OSM    C6S17540   3.400   1.287   2.480  0.2202  0.4765 -0.5804
  157OSM    H6S17541   3.289   1.274   2.479  0.3777 -1.3632  0.7441
  157OSM    H6T17542   3.413   1.396   2.459  0.5493  0.3625 -0.9696
  157OSM    C7S17543   3.455   1.240   2.612 -0.3415  1.0243 -0.8684
  157OSM    H7S17544   3.564   1.256   2.597 -0.2205  0.9644 -0.0547
  157OSM    H7T17545   3.439   1.131   2.626  0.0265  0.9580 -0.9548
  157OSM    C8S17546   3.400   1.311   2.738 -0.0340  0.3012  0.2933
  157OSM    H8S17547   3.290   1.328   2.732 -0.2344  0.1113  2.6173
  157OSM    H8T17548   3.454   1.408   2.745  1.0138 -0.1577 -0.9664
  157OSM    C9S17549   3.418   1.226   2.866  0.1946  0.4906  0.3596
  157OSM    H9S17550   3.522   1.189   2.872  0.4711  1.3466  1.1196
  157OSM    H9T17551   3.350   1.138   2.870  1.4844 -0.5131  1.0018
  157OSM   C10S17552   3.381   1.309   2.984  0.4472 -0.9991  0.4730
  157OSM   H10S17553   3.305   1.387   2.961 -1.0034 -2.0145  1.6490
  157OSM   H10T17554   3.470   1.365   3.020 -0.6934  1.1522  0.0897
  157OSM   C11S17555   3.322   1.231   3.103 -0.4801  0.0683 -0.1527
  157OSM   H11S17556   3.399   1.167   3.152  0.0499  1.7478  1.3307
  157OSM   H11T17557   3.236   1.170   3.070  1.0419 -2.7592  0.7862
  157OSM   C12S17558   3.268   1.322   3.221  0.3377 -0.4232 -0.2147
  157OSM   H12S17559   3.211   1.261   3.294 -0.4470 -1.8087 -1.9438
  157OSM   H12T17560   3.214   1.405   3.171  2.3398  0.3816 -1.1633
  157OSM   C13S17561   3.374   1.387   3.309  0.1065 -0.3311  0.3970
  157OSM   H13S17562   3.410   1.486   3.274 -1.1819 -0.1088 -0.3619
  157OSM   H13T17563   3.457   1.313   3.303  0.9484  0.6680 -0.8578
  157OSM   C14S17564   3.328   1.403   3.453 -0.5201 -0.0822  0.1762
  157OSM   H14S17565   3.318   1.300   3.494  3.7598 -0.8433 -0.1848
  157OSM   H14T17566   3.235   1.464   3.460  0.4321  1.4881 -0.3836
  157OSM   C15S17567   3.429   1.478   3.532  0.0170  0.3094 -0.2832
  157OSM   H15S17568   3.458   1.576   3.489  3.5182 -0.4553  0.0532
  157OSM   H15T17569   3.525   1.423   3.526 -1.2591 -2.1373  0.0323
  157OSM   C16S17570   3.395   1.491   3.679  0.2435  0.9582 -0.2449
  157OSM   H16S17571   3.370   1.395   3.729 -2.4710 -0.1625 -3.3838
  157OSM   H16T17572   3.307   1.558   3.691 -0.1758  0.0700  2.4077
  157OSM   C17S17573   3.496   1.554   3.769 -0.2804 -0.0753 -0.1463
  157OSM   H17S17574   3.439   1.580   3.861 -1.3599 -2.9926  0.1327
  157OSM   H17T17575   3.532   1.644   3.715  0.8081 -0.5080 -0.1518
  157OSM   C18S17576   3.614   1.471   3.814  0.0296  0.3058  0.0527
  157OSM   H18S17577   3.692   1.538   3.858  0.5712 -0.0269 -0.3906
  157OSM   H18T17578   3.647   1.412   3.727 -1.3536 -1.4149  0.6386
  157OSM   H18U17579   3.584   1.397   3.891  2.0493 -1.3228 -0.6519
  157OSM    C1F17580   3.917   1.116   2.428 -0.0648  0.1043 -0.4511
  157OSM     OF17581   3.990   1.208   2.386  0.5214  0.1007 -0.4733
  157OSM    C2F17582   3.946   1.037   2.547 -0.2973 -0.8469  0.1401
  157OSM    H2F17583   3.968   0.933   2.513  1.6008 -0.7268  0.8438
  157OSM    H2G17584   3.852   1.025   2.604 -0.5198  0.5939  0.1095
  157OSM    C3F17585   4.060   1.090   2.640  0.2176 -0.7583  0.4116
  157OSM    H3F17586   4.030   1.191   2.675 -3.1665 -0.9957 -1.4621
  157OSM    H3G17587   4.162   1.097   2.596  0.1382  1.1616  0.4841
  157OSM    C4F17588   4.090   0.995   2.757 -0.1988 -0.9613  0.3041
  157OSM    H4F17589   4.156   0.910   2.728  1.1331  0.1249  0.0531
  157OSM    H4G17590   3.992   0.946   2.778 -0.0938 -1.3938 -0.1915
  157OSM    C5F17591   4.144   1.069   2.876  0.2987 -0.5306  0.4405
  157OSM    H5F17592   4.061   1.139   2.902 -0.0806 -0.7784 -0.0806
  157OSM    H5G17593   4.228   1.133   2.843 -1.0576  1.4704  0.6623
  157OSM    C6F17594   4.166   0.972   2.990 -0.1181 -0.2166  0.0256
  157OSM    H6F17595   4.249   0.901   2.970 -0.8382 -0.2811 -3.2073
  157OSM    H6G17596   4.066   0.924   3.000  0.0710 -0.3380  1.8055
  157OSM    C7F17597   4.191   1.050   3.121  0.4138 -0.2711  0.1822
  157OSM    H7F17598   4.105   1.121   3.119  0.5566 -0.0974 -1.3122
  157OSM    H7G17599   4.291   1.100   3.123  1.8192 -2.9221  0.2439
  157OSM    C8F17600   4.178   0.954   3.245 -0.6159 -0.6739 -0.8428
  157OSM    H8F17601   4.072   0.919   3.243 -1.3996  1.0579  2.6327
  157OSM    H8G17602   4.186   1.018   3.335 -2.3753 -2.0655  0.3808
  157OSM    C9F17603   4.271   0.836   3.252 -0.0744  0.5613  0.0221
  157OSM    H9F17604   4.232   0.738   3.224  1.1162 -0.4472  1.7001
  157OSM   C10F17605   4.396   0.840   3.303 -0.1502  0.1563 -0.0225
  157OSM   H10F17606   4.454   0.748   3.319 -0.1240  0.3720  1.1788
  157OSM   C11F17607   4.454   0.966   3.368  0.7089 -0.0493  0.3650
  157OSM   H11F17608   4.404   1.060   3.336  1.7586 -0.3792 -2.5896
  157OSM   H11G17609   4.560   0.974   3.333  1.2271 -1.4527  1.4993
  157OSM   C12F17610   4.454   0.965   3.524  0.7428 -0.5425 -0.3589
  157OSM   H12F17611   4.349   0.959   3.562  0.0530  0.0849 -2.0291
  157OSM   H12G17612   4.493   1.061   3.565 -1.6258  0.7914 -1.0209
  157OSM   C13F17613   4.550   0.872   3.580 -0.6719  0.1252  0.7109
  157OSM   H13F17614   4.653   0.901   3.553 -0.0836 -2.1573  0.3347
  157OSM   H13G17615   4.544   0.766   3.546 -0.4841  0.1787  0.5102
  157OSM   C14F17616   4.547   0.866   3.736 -0.1226 -0.3854 -0.2600
  157OSM   H14F17617   4.456   0.810   3.767 -0.9983 -0.6302 -2.9742
  157OSM   H14G17618   4.542   0.965   3.788  1.8801 -1.8903  3.1065
  157OSM   C15F17619   4.676   0.796   3.781 -0.0908 -0.2841  0.1794
  157OSM   H15F17620   4.771   0.847   3.753 -0.2992  0.0016 -0.0102
  157OSM   H15G17621   4.667   0.701   3.724  0.6976 -0.1508 -0.1787
  157OSM   C16F17622   4.671   0.758   3.934  0.5495 -0.3400  0.1887
  157OSM   H16F17623   4.565   0.732   3.954  0.2880  1.3108  1.1465
  157OSM   H16G17624   4.682   0.849   3.996 -1.7180 -0.1642  0.4337
  157OSM   C17F17625   4.771   0.654   3.984 -0.1099  0.4569 -0.1495
  157OSM   H17F17626   4.867   0.694   3.945 -0.9097  0.2397 -2.4935
  157OSM   H17G17627   4.744   0.558   3.934 -1.3742 -0.8343  2.7807
  157OSM   C18F17628   4.775   0.637   4.136 -0.6168  0.4423  0.4118
  157OSM   H18F17629   4.685   0.594   4.185 -1.8282  2.4799  0.1009
  157OSM   H18G17630   4.781   0.736   4.186  0.4851  0.3122  0.5511
  157OSM   H18H17631   4.848   0.557   4.160 -1.4247 -1.2209 -2.1154
  158OSM      N17632   1.237   5.852   2.282 -0.1293  0.1904  0.0946
  158OSM    C1517633   1.224   5.851   2.428 -0.3247 -0.2479 -0.7552
  158OSM   H15A17634   1.119   5.847   2.454  0.5560 -2.2043  3.5783
  158OSM   H15B17635   1.265   5.940   2.471 -1.1729 -0.4754  0.5974
  158OSM   H15C17636   1.264   5.765   2.480  2.0592  1.6222  0.7113
  158OSM    C1417637   1.146   5.947   2.220  0.9783  0.0152  0.1123
  158OSM   H14A17638   1.042   5.916   2.226 -0.1838  3.2374 -1.0729
  158OSM   H14B17639   1.180   5.974   2.121  3.9891  2.5646  1.6834
  158OSM   H14C17640   1.147   6.046   2.262  0.3025 -0.8126  2.1958
  158OSM    C1317641   1.372   5.902   2.245  0.2650 -0.7344 -0.4959
  158OSM   H13A17642   1.437   5.845   2.309  0.6351  0.7517  0.5069
  158OSM   H13B17643   1.382   6.005   2.277  1.7093 -1.5489  1.9148
  158OSM   H13C17644   1.412   5.891   2.145  1.9850 -2.6948  0.3524
  158OSM    C1217645   1.218   5.709   2.240 -0.0868  0.5021  0.5273
  158OSM   H12A17646   1.274   5.632   2.291  1.7291  1.0750 -0.5190
  158OSM   H12B17647   1.252   5.693   2.139  2.0688 -1.2804  1.4510
  158OSM    C1117648   1.075   5.658   2.243 -0.0018  0.4758 -0.8722
  158OSM   H11A17649   1.072   5.550   2.214  0.5806 -0.3940  1.9623
  158OSM   H11B17650   1.008   5.714   2.174  0.1068  0.3517 -1.0822
  158OSM      P17651   0.872   5.701   2.406 -0.0587 -0.0364  0.0112
  158OSM    O1317652   0.859   5.785   2.525  0.3255 -0.0741 -0.0631
  158OSM    O1417653   0.801   5.754   2.288  0.1001  0.2312 -0.0237
  158OSM    O1117654   0.808   5.568   2.446 -0.4418 -0.4603 -0.1526
  158OSM    O1217655   1.022   5.657   2.372  0.4085  0.0298 -0.0362
  158OSM    C1S17656   0.857   5.464   2.528 -0.0970 -0.3773 -0.5127
  158OSM    H1S17657   0.967   5.453   2.517 -0.3362 -0.7174 -3.8278
  158OSM    H1T17658   0.811   5.370   2.492  0.2151 -0.5373 -0.4928
  158OSM     NF17659   0.922   5.404   2.749 -0.7024 -0.3755  0.4090
  158OSM    HNF17660   0.882   5.323   2.791  1.6118 -2.3800 -1.0005
  158OSM    C2S17661   0.826   5.490   2.682  0.8525  0.0714 -0.1093
  158OSM    H2S17662   0.842   5.595   2.716 -2.1581  0.3521  0.7079
  158OSM    C3S17663   0.675   5.456   2.714  0.0345  0.2968  0.1788
  158OSM    H3S17664   0.658   5.351   2.680 -0.9140  0.3583  0.4208
  158OSM     O317665   0.572   5.529   2.646 -0.3153  0.8281  0.0338
  158OSM    HO317666   0.621   5.562   2.570  2.1318  2.4293  2.1311
  158OSM    C4S17667   0.636   5.468   2.859  0.1134  0.3095 -0.3358
  158OSM    H4S17668   0.657   5.563   2.911  1.6712  0.8500 -1.8697
  158OSM    C5S17669   0.557   5.383   2.921  0.6288 -0.7053 -0.0464
  158OSM    H5S17670   0.510   5.307   2.857  0.0328  0.8997 -1.6323
  158OSM    C6S17671   0.522   5.396   3.064  0.2472  1.1840 -0.4026
  158OSM    H6S17672   0.439   5.327   3.087  0.6802  1.1703  1.2741
  158OSM    H6T17673   0.492   5.498   3.096 -0.7698  0.1806  2.0433
  158OSM    C7S17674   0.643   5.363   3.151 -0.4931 -0.0494  0.7247
  158OSM    H7S17675   0.731   5.413   3.104 -1.8966  2.2402  0.4002
  158OSM    H7T17676   0.668   5.256   3.136  2.8245  0.4937  1.5127
  158OSM    C8S17677   0.629   5.407   3.299  0.2410  0.8270 -0.1696
  158OSM    H8S17678   0.531   5.359   3.321  0.8610 -0.1264  0.5761
  158OSM    H8T17679   0.625   5.517   3.288  0.0991  0.5651 -4.6423
  158OSM    C9S17680   0.732   5.339   3.397  0.0948  0.3147 -1.1035
  158OSM    H9S17681   0.834   5.374   3.369  1.0501 -0.8273  0.7339
  158OSM    H9T17682   0.741   5.230   3.374 -1.4365  0.1794 -1.1607
  158OSM   C10S17683   0.701   5.357   3.547  0.2074  0.1704 -0.9527
  158OSM   H10S17684   0.606   5.303   3.568  0.5111  0.2368  0.7612
  158OSM   H10T17685   0.690   5.463   3.580  0.8633  0.5780 -2.0010
  158OSM   C11S17686   0.827   5.303   3.634  0.2778 -0.3189 -0.1115
  158OSM   H11S17687   0.918   5.361   3.607 -0.2483  1.8474  2.3124
  158OSM   H11T17688   0.840   5.195   3.613 -0.8982 -0.6670  0.8414
  158OSM   C12S17689   0.810   5.328   3.783 -0.1308  0.0905 -0.4541
  158OSM   H12S17690   0.717   5.279   3.817  0.3668 -0.2684  0.4094
  158OSM   H12T17691   0.807   5.436   3.812  2.6921  1.6010 -4.7508
  158OSM   C13S17692   0.915   5.267   3.873 -0.4984  0.5487  0.4915
  158OSM   H13S17693   1.015   5.317   3.867  0.1820 -0.8876 -0.7968
  158OSM   H13T17694   0.951   5.174   3.825  1.4727  2.5698 -2.3102
  158OSM   C14S17695   0.890   5.258   4.023  0.1154 -0.1441 -0.7276
  158OSM   H14S17696   0.817   5.175   4.037 -1.0803  1.3543  4.0636
  158OSM   H14T17697   0.845   5.348   4.071 -0.8112 -0.6527 -0.6147
  158OSM   C15S17698   1.015   5.211   4.107 -0.1866  0.1707  0.2328
  158OSM   H15S17699   1.078   5.302   4.103  3.6603 -2.3030 -2.3374
  158OSM   H15T17700   1.073   5.128   4.061  0.5198  0.2066  1.0334
  158OSM   C16S17701   0.979   5.166   4.253 -0.5571 -0.3738  0.3723
  158OSM   H16S17702   0.901   5.087   4.250 -0.5450 -0.4631  1.7512
  158OSM   H16T17703   0.939   5.253   4.309  0.1757 -0.4168  0.9798
  158OSM   C17S17704   1.105   5.113   4.329 -0.1037 -0.0493  0.1085
  158OSM   H17S17705   1.172   5.201   4.340 -0.8121  0.2676  2.4049
  158OSM   H17T17706   1.152   5.042   4.257 -1.0264 -1.5298  0.9009
  158OSM   C18S17707   1.067   5.038   4.456 -0.2293  0.0030  0.2240
  158OSM   H18S17708   1.015   4.942   4.440  0.8921 -0.3256 -1.7088
  158OSM   H18T17709   1.011   5.110   4.520  1.0083  1.7398 -0.5618
  158OSM   H18U17710   1.157   5.018   4.518  1.0977  0.0067 -1.6317
  158OSM    C1F17711   1.048   5.423   2.774 -0.0464 -0.3087 -0.4524
  158OSM     OF17712   1.098   5.533   2.748  0.1189 -0.3107 -0.4499
  158OSM    C2F17713   1.127   5.312   2.843 -0.0691  0.6639  0.6858
  158OSM    H2F17714   1.226   5.307   2.793  0.5279 -0.2596  1.9056
  158OSM    H2G17715   1.063   5.222   2.844 -1.2064  1.3990  3.5720
  158OSM    C3F17716   1.182   5.343   2.982 -0.5115 -0.0526  0.1213
  158OSM    H3F17717   1.258   5.424   2.978  1.1412 -1.5062  0.5436
  158OSM    H3G17718   1.233   5.259   3.034 -0.9349 -0.1394  0.4031
  158OSM    C4F17719   1.073   5.393   3.073 -0.6041 -0.4014  0.1803
  158OSM    H4F17720   0.982   5.330   3.082 -0.3501 -0.6876  0.7674
  158OSM    H4G17721   1.033   5.482   3.020  0.1553  0.9432  1.7855
  158OSM    C5F17722   1.127   5.462   3.202 -0.1978 -0.6379  0.0164
  158OSM    H5F17723   1.047   5.533   3.231 -2.0788 -1.3098 -3.0721
  158OSM    H5G17724   1.217   5.523   3.179  1.2522 -1.0124  3.9413
  158OSM    C6F17725   1.158   5.361   3.310 -0.5695 -0.4712 -0.0848
  158OSM    H6F17726   1.228   5.287   3.265 -1.9072 -1.3072 -0.8728
  158OSM    H6G17727   1.058   5.316   3.330 -1.2968  0.7698 -0.7852
  158OSM    C7F17728   1.212   5.419   3.442 -0.1915  0.9615 -0.0092
  158OSM    H7F17729   1.133   5.486   3.483  0.6444  2.6652 -1.0677
  158OSM    H7G17730   1.302   5.479   3.416  0.5119 -0.5386 -1.1458
  158OSM    C8F17731   1.252   5.296   3.529  0.4076 -0.4933 -0.2347
  158OSM    H8F17732   1.350   5.262   3.491 -0.1985 -0.8970 -1.5075
  158OSM    H8G17733   1.170   5.222   3.511 -0.2597 -0.2381  1.5796
  158OSM    C9F17734   1.278   5.330   3.678  0.4328  1.4277  0.3119
  158OSM    H9F17735   1.242   5.432   3.698 -2.8889  0.3087  0.5050
  158OSM   C10F17736   1.281   5.248   3.784 -0.1462 -0.1942 -0.0189
  158OSM   H10F17737   1.304   5.300   3.878 -0.0505 -0.8974  0.3552
  158OSM   C11F17738   1.306   5.095   3.785 -0.1914 -0.5626  0.6429
  158OSM   H11F17739   1.350   5.056   3.690  0.1764 -0.4350  0.7604
  158OSM   H11G17740   1.212   5.036   3.786 -0.9371  0.6095  1.1576
  158OSM   C12F17741   1.395   5.053   3.903  0.0613  0.7234 -0.1518
  158OSM   H12F17742   1.417   4.946   3.885 -2.4964  0.1593 -0.1910
  158OSM   H12G17743   1.335   5.060   3.997 -0.2926  2.1721 -0.4615
  158OSM   C13F17744   1.522   5.135   3.915 -0.1680 -0.0326 -0.3367
  158OSM   H13F17745   1.515   5.243   3.936  0.5257 -0.3051  1.4601
  158OSM   H13G17746   1.572   5.116   3.818 -1.6109 -1.7091 -0.8206
  158OSM   C14F17747   1.613   5.094   4.036  0.3293 -0.0739 -0.0631
  158OSM   H14F17748   1.711   5.143   4.016  0.0842  0.5710  0.2871
  158OSM   H14G17749   1.638   4.986   4.045  4.6313  0.8552  1.1315
  158OSM   C15F17750   1.558   5.160   4.165 -0.0104  0.4466  0.1065
  158OSM   H15F17751   1.449   5.141   4.179  0.0633 -0.5161 -0.5121
  158OSM   H15G17752   1.559   5.269   4.146  0.4678  0.2653 -0.9503
  158OSM   C16F17753   1.631   5.129   4.300  0.0939 -0.1625  0.0463
  158OSM   H16F17754   1.717   5.060   4.283  0.9984  0.2479  2.5460
  158OSM   H16G17755   1.561   5.078   4.370  0.2124  0.3567  0.5429
  158OSM   C17F17756   1.684   5.251   4.368 -0.0615  0.2550 -0.1929
  158OSM   H17F17757   1.605   5.328   4.378 -0.0242  0.9151 -3.7867
  158OSM   H17G17758   1.757   5.293   4.295 -0.5618  1.3119 -0.0966
  158OSM   C18F17759   1.760   5.214   4.501  0.2918 -0.3663  0.2152
  158OSM   H18F17760   1.682   5.170   4.567 -0.8437  1.7364  0.3543
  158OSM   H18G17761   1.813   5.293   4.558  0.8669 -1.0246  0.6096
  158OSM   H18H17762   1.828   5.130   4.478  1.3322  0.8340 -1.2826
  159OSM      N17763   3.621   1.609   1.775  0.4265 -0.1282 -0.5256
  159OSM    C1517764   3.706   1.489   1.773  0.3097 -0.0219 -0.1971
  159OSM   H15A17765   3.652   1.412   1.720  0.0317  0.5996 -0.8219
  159OSM   H15B17766   3.734   1.468   1.876  4.2302  1.5859 -0.7460
  159OSM   H15C17767   3.794   1.507   1.713  0.0453  4.1592  0.4343
  159OSM    C1417768   3.694   1.718   1.841  0.7764 -0.4352 -0.1066
  159OSM   H14A17769   3.633   1.807   1.852  0.6875 -0.6151  1.0567
  159OSM   H14B17770   3.780   1.745   1.782  0.4057 -2.4646 -1.6750
  159OSM   H14C17771   3.728   1.689   1.939 -0.7723 -1.3884  0.1851
  159OSM    C1317772   3.595   1.665   1.634  0.4401  0.2270  0.3155
  159OSM   H13A17773   3.684   1.712   1.595 -0.0588  1.0618  0.1482
  159OSM   H13B17774   3.514   1.737   1.630 -1.0836 -1.3420  1.3626
  159OSM   H13C17775   3.566   1.587   1.564  2.2530 -0.8452  0.7096
  159OSM    C1217776   3.492   1.587   1.852 -0.2826  0.5881  1.0470
  159OSM   H12A17777   3.432   1.517   1.795 -2.4434  1.9256  1.5630
  159OSM   H12B17778   3.435   1.678   1.850 -2.1650 -0.5427  0.7527
  159OSM    C1117779   3.509   1.556   2.004  0.4924 -0.2001  0.1457
  159OSM   H11A17780   3.581   1.471   2.008  0.9167  0.0794 -1.1070
  159OSM   H11B17781   3.413   1.515   2.041 -0.9054  0.4831 -2.4745
  159OSM      P17782   3.445   1.793   2.103  0.1584  0.4458  0.5430
  159OSM    O1317783   3.527   1.897   2.163 -0.4013  0.0163  0.5119
  159OSM    O1417784   3.374   1.822   1.973  0.4477  0.4431  0.1819
  159OSM    O1117785   3.339   1.751   2.202 -0.1676 -0.2280 -0.3350
  159OSM    O1217786   3.545   1.669   2.080 -0.2105  0.3674 -0.3355
  159OSM    C1S17787   3.375   1.683   2.325 -0.5415 -0.3319 -0.1255
  159OSM    H1S17788   3.451   1.605   2.303 -0.8879 -0.1116 -2.3153
  159OSM    H1T17789   3.293   1.620   2.365  0.0699 -0.0017  1.7551
  159OSM     NF17790   3.499   1.710   2.538  0.6382  0.0119  0.4977
  159OSM    HNF17791   3.442   1.673   2.611  0.2618  0.3114  0.3595
  159OSM    C2S17792   3.420   1.779   2.435 -0.0040 -0.4053 -0.3013
  159OSM    H2S17793   3.487   1.862   2.405 -1.6974  1.5317  1.0640
  159OSM    C3S17794   3.300   1.864   2.492 -0.9074 -1.3729  1.2065
  159OSM    H3S17795   3.214   1.804   2.528 -0.5659 -2.1939  0.6809
  159OSM     O317796   3.243   1.944   2.382  0.5030 -0.4639 -0.2180
  159OSM    HO317797   3.274   1.889   2.309  0.8592 -1.1752  0.4488
  159OSM    C4S17798   3.357   1.958   2.608 -1.3165  0.1712  0.4238
  159OSM    H4S17799   3.349   1.906   2.705 -3.5159  0.8537  0.6531
  159OSM    C5S17800   3.397   2.086   2.601  0.1533 -0.1813 -0.7445
  159OSM    H5S17801   3.401   2.140   2.506  2.2700 -1.1356 -1.2679
  159OSM    C6S17802   3.424   2.170   2.728  0.2486 -0.0722  0.2431
  159OSM    H6S17803   3.487   2.257   2.700 -0.0037 -0.0012 -0.1074
  159OSM    H6T17804   3.472   2.114   2.811  1.7924  1.4776  0.4367
  159OSM    C7S17805   3.293   2.230   2.788  0.1365  0.3634  0.0896
  159OSM    H7S17806   3.248   2.312   2.728  1.6576  1.0303 -0.1629
  159OSM    H7T17807   3.337   2.278   2.878  1.3804  1.6630 -1.1667
  159OSM    C8S17808   3.192   2.122   2.829  0.2827  0.2341 -0.3788
  159OSM    H8S17809   3.243   2.049   2.894 -0.3207 -0.4759 -0.6837
  159OSM    H8T17810   3.155   2.059   2.745 -2.7649 -2.3055  2.6041
  159OSM    C9S17811   3.070   2.177   2.912 -0.1155 -0.3685  0.1630
  159OSM    H9S17812   3.010   2.246   2.848  0.5626 -1.5562 -1.8441
  159OSM    H9T17813   3.107   2.239   2.997  2.3020 -1.5048  0.0122
  159OSM   C10S17814   2.971   2.070   2.954 -0.7500  0.1400  0.8718
  159OSM   H10S17815   3.026   1.978   2.983 -2.2783 -2.1566 -2.8055
  159OSM   H10T17816   2.919   2.034   2.863 -0.6483 -2.0043  1.6046
  159OSM   C11S17817   2.872   2.111   3.060  0.0432 -0.1307  0.7428
  159OSM   H11S17818   2.817   2.202   3.030 -1.5024 -1.2880 -0.0682
  159OSM   H11T17819   2.936   2.139   3.147  1.5824  0.5240 -0.5565
  159OSM   C12S17820   2.776   1.996   3.096  0.3937 -0.1401  0.1958
  159OSM   H12S17821   2.812   1.891   3.087 -2.3937 -1.0844 -0.8073
  159OSM   H12T17822   2.692   2.000   3.024 -0.7192 -0.9595  1.3901
  159OSM   C13S17823   2.721   2.003   3.233  0.7940 -0.4949  0.2043
  159OSM   H13S17824   2.801   1.980   3.306  0.0113 -2.4032  0.5315
  159OSM   H13T17825   2.638   1.930   3.246  1.5878 -1.5761 -0.5668
  159OSM   C14S17826   2.691   2.147   3.283 -0.0994  0.2800 -0.5956
  159OSM   H14S17827   2.616   2.188   3.213 -0.8111  1.3134  0.7148
  159OSM   H14T17828   2.775   2.219   3.283 -1.1347  1.5266 -0.0983
  159OSM   C15S17829   2.625   2.164   3.420 -0.2324 -0.2806  0.0771
  159OSM   H15S17830   2.526   2.115   3.429  0.2383 -0.8479  3.0319
  159OSM   H15T17831   2.592   2.269   3.437  1.4568  0.2850  0.0678
  159OSM   C16S17832   2.703   2.116   3.545 -0.0468 -0.6304  0.0330
  159OSM   H16S17833   2.806   2.157   3.554 -0.2377 -0.3078  0.7523
  159OSM   H16T17834   2.701   2.005   3.537 -0.7720 -0.9747  3.6019
  159OSM   C17S17835   2.635   2.141   3.680 -0.1296 -0.3655 -0.2165
  159OSM   H17S17836   2.528   2.110   3.679 -0.1501 -0.2811 -0.9115
  159OSM   H17T17837   2.623   2.251   3.695 -1.2507 -0.3139 -1.3422
  159OSM   C18S17838   2.698   2.074   3.802 -0.0517  0.0390  0.1256
  159OSM   H18S17839   2.632   2.094   3.889  0.1120 -0.7484  0.4336
  159OSM   H18T17840   2.797   2.120   3.826 -1.1269  1.5615  1.8944
  159OSM   H18U17841   2.708   1.965   3.784  0.1734 -0.3626  2.4567
  159OSM    C1F17842   3.625   1.675   2.532  0.6122 -0.1456 -0.5576
  159OSM     OF17843   3.698   1.709   2.440  0.3626 -0.0199 -0.1445
  159OSM    C2F17844   3.687   1.582   2.639  0.1055 -0.1163 -0.0658
  159OSM    H2F17845   3.637   1.483   2.646 -1.1679 -0.0200 -4.5088
  159OSM    H2G17846   3.664   1.634   2.734  0.1979 -1.3693  0.6504
  159OSM    C3F17847   3.844   1.561   2.624  0.4866  0.0943 -0.1839
  159OSM    H3F17848   3.880   1.659   2.587  0.7141  0.4595  0.9510
  159OSM    H3G17849   3.864   1.486   2.545 -1.2737  0.0121 -0.5948
  159OSM    C4F17850   3.908   1.520   2.758 -0.0970  0.5582 -0.1371
  159OSM    H4F17851   3.887   1.605   2.825  0.8289  1.0376 -0.4441
  159OSM    H4G17852   4.018   1.506   2.754 -0.0125  0.5362  1.5395
  159OSM    C5F17853   3.848   1.389   2.816  0.0702 -0.5424 -0.4430
  159OSM    H5F17854   3.877   1.300   2.756 -2.2703 -2.3605  0.9433
  159OSM    H5G17855   3.738   1.399   2.814  0.1658  1.1047  0.3287
  159OSM    C6F17856   3.876   1.372   2.965  0.0610 -0.2216 -0.1590
  159OSM    H6F17857   3.981   1.381   3.000 -0.1687 -0.2962  0.5592
  159OSM    H6G17858   3.835   1.271   2.987 -0.6690  0.2298  0.6115
  159OSM    C7F17859   3.788   1.463   3.047  0.6398 -0.1039 -0.5661
  159OSM    H7F17860   3.725   1.393   3.106  1.1081 -1.1701 -1.2906
  159OSM    H7G17861   3.722   1.536   2.995 -0.5600 -0.4626  0.4019
  159OSM    C8F17862   3.872   1.536   3.162  0.6207 -0.3562 -0.0175
  159OSM    H8F17863   3.912   1.625   3.110 -0.8850  0.3111 -0.1030
  159OSM    H8G17864   3.957   1.470   3.188  1.4194  0.5202 -0.3679
  159OSM    C9F17865   3.787   1.569   3.282 -0.3334 -0.2418 -0.3532
  159OSM    H9F17866   3.696   1.627   3.263  0.3612  0.8692 -0.3633
  159OSM   C10F17867   3.797   1.518   3.407  0.0363  0.5384  0.2075
  159OSM   H10F17868   3.723   1.549   3.483 -3.2214 -1.3986 -1.9289
  159OSM   C11F17869   3.899   1.423   3.459 -0.7861 -0.2128 -0.6677
  159OSM   H11F17870   3.943   1.438   3.560 -0.4178  1.0577 -0.9940
  159OSM   H11G17871   3.987   1.408   3.393  0.3469  1.3519  0.4064
  159OSM   C12F17872   3.844   1.278   3.447 -0.1883  0.0024 -0.7009
  159OSM   H12F17873   3.743   1.282   3.493 -0.3914  0.8255 -1.1948
  159OSM   H12G17874   3.903   1.205   3.506  0.0156  1.5668  1.0971
  159OSM   C13F17875   3.829   1.224   3.303 -0.2183 -0.6061 -0.4155
  159OSM   H13F17876   3.918   1.255   3.245  1.3182  0.1675  2.1595
  159OSM   H13G17877   3.741   1.273   3.256  1.6100  2.5725 -0.8670
  159OSM   C14F17878   3.825   1.078   3.307  1.0039  0.2086  0.4264
  159OSM   H14F17879   3.755   1.039   3.385  0.8528  1.1355  0.7725
  159OSM   H14G17880   3.931   1.050   3.326  0.4059 -1.7701  1.1708
  159OSM   C15F17881   3.784   1.007   3.175 -0.2284 -0.3498  0.5815
  159OSM   H15F17882   3.791   0.896   3.182 -0.4871 -0.5127 -1.2059
  159OSM   H15G17883   3.864   1.027   3.101 -0.3235 -0.5904  0.4085
  159OSM   C16F17884   3.653   1.053   3.119 -0.0991  0.6409  0.7912
  159OSM   H16F17885   3.675   1.154   3.076  1.5194 -0.1549 -0.3371
  159OSM   H16G17886   3.571   1.049   3.193  0.4490 -0.8600  1.3431
  159OSM   C17F17887   3.601   0.958   3.007  0.2405  0.1032 -0.4565
  159OSM   H17F17888   3.495   0.969   2.975  0.6049 -1.4500 -2.4040
  159OSM   H17G17889   3.600   0.855   3.049 -0.7771  0.2705 -0.0373
  159OSM   C18F17890   3.678   0.948   2.879  0.8013  0.5796  0.1849
  159OSM   H18F17891   3.644   0.859   2.822  0.4760 -0.7610  2.3932
  159OSM   H18G17892   3.788   0.946   2.893  0.5137 -0.9005  2.7355
  159OSM   H18H17893   3.656   1.041   2.822  0.5507  0.3819 -0.0484
  160OSM      N17894   1.874   6.394   1.908 -0.3007 -0.4029 -0.2692
  160OSM    C1517895   1.897   6.319   1.781 -0.1570 -0.5461  0.3161
  160OSM   H15A17896   1.977   6.249   1.799 -0.3042 -0.4669  1.3466
  160OSM   H15B17897   1.936   6.385   1.704 -1.0347 -2.9279 -2.3254
  160OSM   H15C17898   1.815   6.257   1.748 -0.4514  0.5669 -1.1382
  160OSM    C1417899   1.996   6.478   1.940 -1.0422 -0.1050  0.4474
  160OSM   H14A17900   2.087   6.426   1.963 -0.8173  0.9086  2.0381
  160OSM   H14B17901   1.975   6.534   2.031 -2.0340 -1.1902  0.9146
  160OSM   H14C17902   2.021   6.559   1.873  0.0207 -2.3356 -1.9809
  160OSM    C1317903   1.759   6.485   1.885 -0.1865 -0.2238  0.8733
  160OSM   H13A17904   1.776   6.534   1.790 -2.8668  1.7978  1.3124
  160OSM   H13B17905   1.750   6.551   1.970  0.5288  1.5659 -0.3771
  160OSM   H13C17906   1.671   6.422   1.882  0.1863 -0.7872  1.6424
  160OSM    C1217907   1.843   6.300   2.024  0.3923 -0.4637 -0.0055
  160OSM   H12A17908   1.936   6.266   2.066  1.9862  1.0209 -2.1201
  160OSM   H12B17909   1.801   6.213   1.975 -1.3398 -0.0652  0.7064
  160OSM    C1117910   1.742   6.344   2.141  0.3579  0.0353 -0.3352
  160OSM   H11A17911   1.756   6.450   2.172  1.3381  0.2152 -1.3216
  160OSM   H11B17912   1.771   6.288   2.233 -1.6537  1.0061  0.9565
  160OSM      P17913   1.532   6.187   2.118  0.3561 -0.2611 -0.2498
  160OSM    O1317914   1.387   6.203   2.089 -0.5579 -0.5785 -0.7955
  160OSM    O1417915   1.600   6.072   2.046 -0.4353 -0.2722 -0.4208
  160OSM    O1117916   1.545   6.162   2.279 -0.1269 -0.4473  0.2392
  160OSM    O1217917   1.611   6.322   2.098  0.1866 -0.7927 -0.3839
  160OSM    C1S17918   1.469   6.252   2.365  0.1473 -0.3637 -0.5384
  160OSM    H1S17919   1.364   6.265   2.331  0.4516 -0.1818 -1.4429
  160OSM    H1T17920   1.510   6.354   2.352  0.1442 -0.4619 -1.4250
  160OSM     NF17921   1.378   6.278   2.598 -0.1918  0.7133 -0.1991
  160OSM    HNF17922   1.394   6.362   2.649 -0.6426  1.0875 -0.6704
  160OSM    C2S17923   1.486   6.220   2.515  0.3346 -0.1361 -0.0037
  160OSM    H2S17924   1.468   6.110   2.522 -1.5368  0.1207 -0.1517
  160OSM    C3S17925   1.627   6.248   2.562 -0.2666  0.2255  0.1437
  160OSM    H3S17926   1.655   6.354   2.547 -2.0721  0.8812  1.0812
  160OSM     O317927   1.730   6.180   2.488  0.2542  0.2389 -0.1587
  160OSM    HO317928   1.688   6.159   2.405 -0.6524  5.8234 -1.5726
  160OSM    C4S17929   1.640   6.229   2.711 -0.6824 -0.2907  0.6755
  160OSM    H4S17930   1.599   6.310   2.772 -0.4770 -1.4653  2.4615
  160OSM    C5S17931   1.710   6.126   2.771  0.4811 -0.2889 -0.5575
  160OSM    H5S17932   1.762   6.050   2.710  1.2157 -0.6268  0.4635
  160OSM    C6S17933   1.724   6.115   2.921  0.3200  0.3628 -0.0425
  160OSM    H6S17934   1.710   6.009   2.949  0.5617  0.1672 -0.6358
  160OSM    H6T17935   1.628   6.150   2.965  0.1921  1.0392 -0.8190
  160OSM    C7S17936   1.839   6.190   2.996 -0.4745 -0.5553  0.1737
  160OSM    H7S17937   1.819   6.299   2.994  1.0174 -0.2507 -1.8460
  160OSM    H7T17938   1.933   6.174   2.939  0.2984  1.3107  0.8742
  160OSM    C8S17939   1.847   6.143   3.142 -0.5154  0.4345 -0.1486
  160OSM    H8S17940   1.864   6.034   3.136 -2.2222  0.1870 -1.3851
  160OSM    H8T17941   1.747   6.147   3.191 -0.5602 -0.5444 -0.1477
  160OSM    C9S17942   1.940   6.231   3.229  0.3214  0.4479  1.0084
  160OSM    H9S17943   1.888   6.328   3.246  0.0089  0.4532  0.1303
  160OSM    H9T17944   2.028   6.265   3.169  1.7040  0.6074  3.0428
  160OSM   C10S17945   1.984   6.168   3.360 -0.8182 -0.4661 -0.5541
  160OSM   H10S17946   2.045   6.078   3.333  0.0210  1.1371 -4.9248
  160OSM   H10T17947   1.890   6.134   3.406 -0.7683 -1.2774 -1.0324
  160OSM   C11S17948   2.073   6.276   3.444  0.7032 -0.3703 -0.2872
  160OSM   H11S17949   2.023   6.375   3.441 -0.5208 -0.9924 -1.6731
  160OSM   H11T17950   2.172   6.278   3.392  0.4910 -3.0073 -0.9506
  160OSM   C12S17951   2.105   6.231   3.590  0.6560  0.0421 -0.6343
  160OSM   H12S17952   2.136   6.124   3.581 -0.5741 -0.7189  2.6786
  160OSM   H12T17953   2.006   6.230   3.641  0.4857 -0.5674 -0.9582
  160OSM   C13S17954   2.198   6.329   3.657 -0.1043 -0.6330 -0.0048
  160OSM   H13S17955   2.171   6.434   3.633  1.1963 -0.3197 -0.1287
  160OSM   H13T17956   2.301   6.316   3.618 -0.0031  0.6304 -0.1835
  160OSM   C14S17957   2.191   6.308   3.810  0.1224  0.6919 -0.2553
  160OSM   H14S17958   2.219   6.202   3.832 -0.7499  0.3046 -0.9258
  160OSM   H14T17959   2.088   6.312   3.850  0.5120 -2.1236  1.3409
  160OSM   C15S17960   2.288   6.390   3.889  0.1492 -0.3774 -0.4450
  160OSM   H15S17961   2.276   6.495   3.858  3.7996  0.1914 -0.4075
  160OSM   H15T17962   2.391   6.356   3.864  0.5686  0.6645 -0.1890
  160OSM   C16S17963   2.268   6.388   4.037  0.0770 -0.3159 -0.0560
  160OSM   H16S17964   2.283   6.280   4.055 -1.8057 -0.8426 -1.3056
  160OSM   H16T17965   2.163   6.413   4.065  0.1825 -0.6698  0.6775
  160OSM   C17S17966   2.350   6.495   4.112 -0.8244 -0.5758 -0.5218
  160OSM   H17S17967   2.324   6.600   4.087 -1.5892 -0.8054 -0.7259
  160OSM   H17T17968   2.457   6.477   4.089 -1.0257 -0.7770 -1.3438
  160OSM   C18S17969   2.342   6.470   4.264  0.0196  0.0202 -0.4064
  160OSM   H18S17970   2.393   6.372   4.275  2.2392  1.0898 -0.6942
  160OSM   H18T17971   2.235   6.461   4.290 -0.5435  0.6496 -2.3051
  160OSM   H18U17972   2.387   6.556   4.319 -1.6187  0.9767 -0.4980
  160OSM    C1F17973   1.255   6.228   2.594  0.1903 -0.0003  0.2772
  160OSM     OF17974   1.228   6.138   2.512 -0.2158  0.0971 -0.3402
  160OSM    C2F17975   1.169   6.292   2.694  0.0681 -0.2899 -0.5213
  160OSM    H2F17976   1.162   6.396   2.654  1.1302 -0.7370 -1.9535
  160OSM    H2G17977   1.219   6.294   2.793 -1.8885  1.8788  0.5127
  160OSM    C3F17978   1.033   6.221   2.708  0.4999 -0.2536  0.1047
  160OSM    H3F17979   1.055   6.115   2.734 -0.7128  0.1832  3.3955
  160OSM    H3G17980   0.984   6.208   2.610  1.6867  0.7116 -0.6362
  160OSM    C4F17981   0.937   6.302   2.793 -1.0172  0.3385 -1.0263
  160OSM    H4F17982   0.837   6.256   2.807  0.1223 -1.7231  1.0899
  160OSM    H4G17983   0.920   6.403   2.750 -2.2712  1.1046  1.1252
  160OSM    C5F17984   0.977   6.332   2.941  0.1439  0.0864 -0.0228
  160OSM    H5F17985   0.917   6.418   2.976 -0.3772 -0.8282  1.4363
  160OSM    H5G17986   1.086   6.354   2.944  0.0393  0.6477 -0.2741
  160OSM    C6F17987   0.950   6.221   3.045  0.5221  0.3674  0.2814
  160OSM    H6F17988   1.011   6.131   3.023  0.5152  0.5520 -0.5105
  160OSM    H6G17989   0.847   6.183   3.029  1.2861 -1.3268 -0.8251
  160OSM    C7F17990   0.966   6.273   3.188  0.1246  0.8370 -0.2631
  160OSM    H7F17991   0.881   6.343   3.203 -0.5762  0.4352 -2.0640
  160OSM    H7G17992   1.055   6.339   3.192  0.0221  0.9127  1.0260
  160OSM    C8F17993   0.965   6.160   3.294 -0.0869  0.0443 -0.1598
  160OSM    H8F17994   1.068   6.116   3.296  0.7297  1.8816  0.2108
  160OSM    H8G17995   0.884   6.087   3.273 -0.2103 -0.0602  0.6410
  160OSM    C9F17996   0.947   6.216   3.430 -0.0741 -0.3186 -0.3696
  160OSM    H9F17997   0.888   6.309   3.431  0.4403  0.0228 -0.7445
  160OSM   C10F17998   0.995   6.183   3.549  0.4651 -0.3438  0.4013
  160OSM   H10F17999   0.952   6.237   3.634 -0.2872 -1.4450  0.7353
  160OSM   C11F18000   1.075   6.058   3.573 -0.6954 -0.9559 -0.1490
  160OSM   H11F18001   1.176   6.087   3.536  0.1992 -2.3710  1.0483
  160OSM   H11G18002   1.054   5.970   3.508  1.8154 -1.1572 -0.8139
  160OSM   C12F18003   1.083   6.023   3.722 -0.3808 -0.1576 -0.3700
  160OSM   H12F18004   1.136   5.926   3.715 -0.9336 -0.5220  0.3288
  160OSM   H12G18005   0.979   6.005   3.757 -0.0229 -0.6047  0.5113
  160OSM   C13F18006   1.162   6.115   3.820  0.2634  0.3072  0.3241
  160OSM   H13F18007   1.115   6.215   3.821 -0.7184 -0.0648 -1.9108
  160OSM   H13G18008   1.258   6.135   3.767  0.8518 -2.5535  0.1426
  160OSM   C14F18009   1.194   6.052   3.961 -0.6704  0.1552  0.1184
  160OSM   H14F18010   1.234   5.949   3.949  0.2608  0.4064  0.9128
  160OSM   H14G18011   1.096   6.034   4.009 -0.7749  1.7606  0.5684
  160OSM   C15F18012   1.298   6.132   4.040  0.1431 -0.0401 -0.8102
  160OSM   H15F18013   1.393   6.126   3.982 -0.1543  0.3957 -1.3456
  160OSM   H15G18014   1.311   6.088   4.142  1.0646 -0.9849 -1.3138
  160OSM   C16F18015   1.239   6.270   4.079 -0.1073  0.6630 -0.4497
  160OSM   H16F18016   1.140   6.253   4.126  0.6003 -1.0400  0.4866
  160OSM   H16G18017   1.243   6.337   3.989  1.3874 -0.8435 -1.5562
  160OSM   C17F18018   1.329   6.333   4.177 -0.4708 -0.5170  0.0811
  160OSM   H17F18019   1.436   6.329   4.147 -1.0751 -0.3934 -2.3501
  160OSM   H17G18020   1.321   6.285   4.277 -1.4885  0.6957  0.6118
  160OSM   C18F18021   1.306   6.487   4.203  0.1871  0.6691 -0.0585
  160OSM   H18F18022   1.328   6.539   4.108 -0.4896  1.1614  0.0446
  160OSM   H18G18023   1.386   6.518   4.273 -0.0136 -1.3219  1.1305
  160OSM   H18H18024   1.204   6.505   4.244 -0.6450 -3.7853  0.2955
  161OSM      N18025   4.150   5.795   2.296 -0.0802 -0.6975  0.1970
  161OSM    C1518026   4.236   5.735   2.192 -0.4556  0.5526 -0.3340
  161OSM   H15A18027   4.243   5.630   2.217  2.7289  0.8568  0.5047
  161OSM   H15B18028   4.331   5.787   2.193  0.3758 -0.8443 -1.4700
  161OSM   H15C18029   4.196   5.757   2.094  0.8699  0.6712 -0.8671
  161OSM    C1418030   4.190   5.762   2.436 -0.0708  0.1738 -0.4855
  161OSM   H14A18031   4.216   5.659   2.454 -0.0552  0.4689  1.3244
  161OSM   H14B18032   4.096   5.779   2.486 -0.0312  2.0625 -0.9769
  161OSM   H14C18033   4.275   5.821   2.466  0.6314 -0.1670 -1.7140
  161OSM    C1318034   4.160   5.945   2.276 -0.2067  0.0183 -0.2702
  161OSM   H13A18035   4.104   5.976   2.189  1.2766 -0.5961 -1.4884
  161OSM   H13B18036   4.261   5.972   2.253 -0.7827  1.0846 -1.7157
  161OSM   H13C18037   4.140   5.998   2.368  1.8104  1.8944 -0.8364
  161OSM    C1218038   4.012   5.745   2.274 -0.0740 -0.5456  0.0374
  161OSM   H12A18039   3.999   5.739   2.167  1.0455  2.7782 -0.4046
  161OSM   H12B18040   3.940   5.820   2.304  0.0237  0.4074 -1.9013
  161OSM    C1118041   3.961   5.612   2.337 -0.8025  0.9154 -0.2580
  161OSM   H11A18042   3.855   5.588   2.312 -0.7577 -0.7862  0.9814
  161OSM   H11B18043   3.960   5.615   2.448 -1.5541 -1.5302 -0.1277
  161OSM      P18044   4.004   5.409   2.169  0.1803 -0.9100 -0.3410
  161OSM    O1318045   3.863   5.428   2.122  0.1693  0.4156  0.0852
  161OSM    O1418046   4.113   5.406   2.072 -0.5194  0.6377 -0.1620
  161OSM    O1118047   4.000   5.268   2.247  0.0659  0.4771 -0.5898
  161OSM    O1218048   4.046   5.499   2.290 -0.2729  0.2383 -0.4426
  161OSM    C1S18049   4.110   5.217   2.328 -0.0264  0.2223 -0.0239
  161OSM    H1S18050   4.197   5.277   2.294 -1.3708  1.7009 -1.0175
  161OSM    H1T18051   4.135   5.112   2.301  0.6458  0.0323  1.2882
  161OSM     NF18052   4.219   5.180   2.534  0.4442  0.1764  0.3408
  161OSM    HNF18053   4.241   5.083   2.532  0.8847  0.2772  0.0562
  161OSM    C2S18054   4.093   5.215   2.477  0.1550 -0.0279 -0.1903
  161OSM    H2S18055   4.071   5.317   2.514 -0.2094 -0.6575  1.3759
  161OSM    C3S18056   3.968   5.128   2.508 -0.1240 -0.0015 -0.0642
  161OSM    H3S18057   3.993   5.026   2.471 -0.6543  0.1199 -0.7773
  161OSM     O318058   3.843   5.170   2.447  0.9613 -0.2082  0.0702
  161OSM    HO318059   3.876   5.219   2.371 -0.7393 -1.0276 -1.2559
  161OSM    C4S18060   3.952   5.125   2.660  0.3991  0.5304  0.4046
  161OSM    H4S18061   3.979   5.025   2.699  2.5725 -0.0564 -2.3042
  161OSM    C5S18062   3.914   5.218   2.749  0.4439 -0.3632  0.1856
  161OSM    H5S18063   3.894   5.320   2.713 -2.2645 -1.0256 -0.4303
  161OSM    C6S18064   3.897   5.180   2.896 -0.2703  0.6447  1.1897
  161OSM    H6S18065   3.935   5.078   2.917 -1.2149 -0.3312 -1.3767
  161OSM    H6T18066   3.787   5.178   2.914 -0.5009 -0.2452 -0.1421
  161OSM    C7S18067   3.968   5.270   2.999  0.5032 -0.1044 -0.6482
  161OSM    H7S18068   3.910   5.364   3.015 -0.4129 -0.7195 -0.2591
  161OSM    H7T18069   4.071   5.292   2.963  0.8918 -2.9027 -1.4609
  161OSM    C8S18070   3.981   5.215   3.140  0.0531 -0.2974 -0.8484
  161OSM    H8S18071   3.959   5.106   3.146  0.4162 -0.3083  0.8854
  161OSM    H8T18072   3.901   5.264   3.200  2.0018  0.2701  1.4545
  161OSM    C9S18073   4.117   5.242   3.218  0.3782  0.2476  0.6920
  161OSM    H9S18074   4.132   5.352   3.210  0.1676  0.2750  0.6969
  161OSM    H9T18075   4.184   5.176   3.158 -2.1844 -0.8623 -1.1178
  161OSM   C10S18076   4.117   5.199   3.366 -0.4008  0.1799  0.7379
  161OSM   H10S18077   4.222   5.203   3.404 -0.6301  0.6244  1.3348
  161OSM   H10T18078   4.080   5.096   3.352  2.5600 -0.8492 -0.4670
  161OSM   C11S18079   4.026   5.290   3.459  0.1687 -0.1707  0.1613
  161OSM   H11S18080   3.924   5.292   3.414  0.0779  0.7356  0.3778
  161OSM   H11T18081   4.065   5.394   3.450 -1.1721  0.3423  0.0749
  161OSM   C12S18082   4.046   5.226   3.598  0.5708  0.9416 -0.3216
  161OSM   H12S18083   4.148   5.249   3.634  0.2281  1.2733  0.4583
  161OSM   H12T18084   4.044   5.115   3.586 -1.7514  0.8581  0.3718
  161OSM   C13S18085   3.958   5.280   3.713 -0.0475  0.1635 -0.2680
  161OSM   H13S18086   3.861   5.225   3.704 -0.4861  0.6858  1.0576
  161OSM   H13T18087   3.930   5.386   3.692  2.1580  0.9737  0.6235
  161OSM   C14S18088   4.029   5.260   3.852  0.5350 -0.7225 -0.1124
  161OSM   H14S18089   4.136   5.290   3.854  0.8157 -1.3635 -2.3338
  161OSM   H14T18090   4.036   5.152   3.876 -1.6228 -0.8885  0.0282
  161OSM   C15S18091   3.949   5.340   3.952 -0.1046 -0.9681 -0.5216
  161OSM   H15S18092   3.858   5.287   3.987 -0.4025  0.5399  1.1826
  161OSM   H15T18093   3.917   5.439   3.913 -0.0503 -1.2221 -1.2164
  161OSM   C16S18094   4.041   5.369   4.069 -0.1487 -0.5996  0.9247
  161OSM   H16S18095   4.115   5.445   4.036  0.2610 -1.1009  0.6633
  161OSM   H16T18096   4.095   5.279   4.105  0.5270 -0.3444  0.5687
  161OSM   C17S18097   3.965   5.429   4.199  0.2169 -0.6457 -0.4312
  161OSM   H17S18098   3.911   5.343   4.243 -0.5894 -0.8529 -1.7830
  161OSM   H17T18099   3.882   5.491   4.159  2.3958  1.8309 -1.4052
  161OSM   C18S18100   4.045   5.494   4.307  0.0846  0.1373 -0.2715
  161OSM   H18S18101   4.131   5.431   4.336  0.0263 -0.0844 -0.5708
  161OSM   H18T18102   3.985   5.508   4.399 -0.1665 -1.0260 -0.2545
  161OSM   H18U18103   4.084   5.596   4.284 -0.7980  0.8367  1.2455
  161OSM    C1F18104   4.323   5.262   2.534 -0.9394 -0.6163  0.6556
  161OSM     OF18105   4.307   5.381   2.513  0.5200  0.1872 -0.9325
  161OSM    C2F18106   4.458   5.199   2.560  1.0027  0.3137 -0.1328
  161OSM    H2F18107   4.527   5.218   2.476  0.3743  1.3298 -0.4366
  161OSM    H2G18108   4.437   5.090   2.564  2.6842 -0.0004  0.8858
  161OSM    C3F18109   4.521   5.249   2.690  0.2636  0.5915  0.2284
  161OSM    H3F18110   4.508   5.359   2.697  0.2087  0.5658  0.5179
  161OSM    H3G18111   4.628   5.217   2.691 -0.1326 -0.8431 -0.2746
  161OSM    C4F18112   4.454   5.186   2.812 -0.2477 -0.1359  0.1551
  161OSM    H4F18113   4.451   5.075   2.808 -2.5026 -0.1781  1.5358
  161OSM    H4G18114   4.345   5.204   2.816 -0.4500 -0.8997 -1.1572
  161OSM    C5F18115   4.518   5.236   2.936  0.0600  0.1511 -0.1881
  161OSM    H5F18116   4.452   5.221   3.024 -1.4944 -2.8515 -1.7237
  161OSM    H5G18117   4.540   5.345   2.929 -1.4750  0.4045 -1.7882
  161OSM    C6F18118   4.651   5.164   2.967  0.4121  1.3201  0.3133
  161OSM    H6F18119   4.727   5.183   2.888 -1.4894  1.3732 -1.5971
  161OSM    H6G18120   4.634   5.055   2.971  2.4259  0.9648  0.3554
  161OSM    C7F18121   4.704   5.195   3.110  0.6671  0.6528 -0.0952
  161OSM    H7F18122   4.620   5.178   3.181 -0.4526 -0.6487 -1.6508
  161OSM    H7G18123   4.727   5.303   3.108  0.6106  0.6550 -0.8935
  161OSM    C8F18124   4.836   5.129   3.154 -0.4051  0.5591  0.5750
  161OSM    H8F18125   4.898   5.203   3.209 -1.1211  3.4396 -2.1809
  161OSM    H8G18126   4.901   5.117   3.064 -2.0666 -0.4758 -0.5666
  161OSM    C9F18127   4.806   5.000   3.225 -0.1693 -0.6169 -0.3323
  161OSM    H9F18128   4.820   4.910   3.163 -0.4458  0.5358 -2.1411
  161OSM   C10F18129   4.769   4.978   3.358  0.8479  0.0550  0.9831
  161OSM   H10F18130   4.764   4.876   3.397 -1.1677 -0.5126 -0.5547
  161OSM   C11F18131   4.752   5.089   3.454  0.6331  0.3677  0.4010
  161OSM   H11F18132   4.641   5.091   3.467  0.7777 -0.9134  2.4945
  161OSM   H11G18133   4.781   5.184   3.406 -0.6054 -0.9507 -3.2595
  161OSM   C12F18134   4.825   5.069   3.586  0.0103 -0.0772 -0.5076
  161OSM   H12F18135   4.825   5.159   3.651  1.1530 -1.0574  0.9303
  161OSM   H12G18136   4.933   5.047   3.568  0.4073 -0.9399  2.3668
  161OSM   C13F18137   4.775   4.957   3.673  0.6128 -0.7981  0.2509
  161OSM   H13F18138   4.767   4.867   3.608  1.6589 -0.7735  0.0766
  161OSM   H13G18139   4.673   4.981   3.710  0.4093  0.5021 -1.0627
  161OSM   C14F18140   4.863   4.922   3.791 -0.0477  0.0059 -0.2659
  161OSM   H14F18141   4.916   5.006   3.842  0.5767 -0.7172  0.3120
  161OSM   H14G18142   4.948   4.857   3.761  2.1534  2.0098  1.2513
  161OSM   C15F18143   4.777   4.856   3.903  0.1422 -0.3568 -0.6355
  161OSM   H15F18144   4.712   4.791   3.840  0.6208  0.7898 -2.3829
  161OSM   H15G18145   4.718   4.944   3.936 -0.4363 -0.1984 -1.9823
  161OSM   C16F18146   4.856   4.792   4.017  0.2914  0.2106 -0.1104
  161OSM   H16F18147   4.792   4.793   4.107  1.4531 -0.1932  0.7382
  161OSM   H16G18148   4.947   4.847   4.049 -0.1687 -0.0057  1.6204
  161OSM   C17F18149   4.906   4.652   3.996  0.3240 -0.3043 -0.3400
  161OSM   H17F18150   4.987   4.656   3.919  0.2148 -2.5666 -0.6480
  161OSM   H17G18151   4.821   4.612   3.936 -1.1107 -0.5478  1.7656
  161OSM   C18F18152   4.940   4.582   4.122  0.7326 -0.3287  0.1811
  161OSM   H18F18153   4.857   4.588   4.195  0.6928 -1.9926  0.3137
  161OSM   H18G18154   5.029   4.631   4.167 -0.9530  4.3506 -0.9630
  161OSM   H18H18155   4.957   4.473   4.111  1.9037 -0.3862  2.1697
  162OSM      N18156   6.062   6.163   2.196 -0.9724 -0.0999 -0.2045
  162OSM    C1518157   6.155   6.260   2.129  0.6774 -0.4370 -0.7666
  162OSM   H15A18158   6.181   6.236   2.027 -1.4187 -0.9513 -1.2255
  162OSM   H15B18159   6.242   6.270   2.192 -0.3022  0.2439  0.5307
  162OSM   H15C18160   6.116   6.360   2.127  2.5398  0.3690 -3.2779
  162OSM    C1418161   6.126   6.026   2.205 -0.4486  0.1355 -0.7239
  162OSM   H14A18162   6.204   6.028   2.280 -2.5232  1.3918  1.5488
  162OSM   H14B18163   6.152   5.979   2.111  0.7446 -0.8421  0.0559
  162OSM   H14C18164   6.060   5.953   2.248 -0.0101 -1.9236 -3.2973
  162OSM    C1318165   6.040   6.206   2.336  0.6949 -0.1697 -0.0327
  162OSM   H13A18166   5.975   6.292   2.329  2.0085  1.0881  2.0710
  162OSM   H13B18167   6.131   6.230   2.388 -0.2929  3.3156  0.3556
  162OSM   H13C18168   5.978   6.137   2.391  0.1329  1.2483  1.1861
  162OSM    C1218169   5.932   6.158   2.120  0.5016 -0.6033  1.5186
  162OSM   H12A18170   5.883   6.068   2.155 -0.7846 -1.2738 -1.7144
  162OSM   H12B18171   5.964   6.147   2.018  1.0857  3.0702  1.1712
  162OSM    C1118172   5.836   6.277   2.125 -0.2472  0.3746  0.1743
  162OSM   H11A18173   5.803   6.276   2.231  1.1742 -2.3286  0.6935
  162OSM   H11B18174   5.749   6.270   2.057  1.2238  1.7109 -1.9705
  162OSM      P18175   5.848   6.545   2.108 -0.1015 -0.0521 -0.0615
  162OSM    O1318176   5.956   6.641   2.085  0.2063  0.5691 -0.4651
  162OSM    O1418177   5.733   6.553   2.018  0.6600 -0.0589 -0.6374
  162OSM    O1118178   5.802   6.544   2.258  0.0472 -0.8967  0.2228
  162OSM    O1218179   5.907   6.398   2.083 -0.1891  0.0107 -0.1934
  162OSM    C1S18180   5.662   6.519   2.283  0.4104  0.5227 -0.5069
  162OSM    H1S18181   5.622   6.420   2.253 -0.0971  0.8179 -0.8099
  162OSM    H1T18182   5.606   6.593   2.221  0.7522 -0.3631 -1.9257
  162OSM     NF18183   5.490   6.497   2.482 -0.0920 -0.0020  0.4528
  162OSM    HNF18184   5.414   6.561   2.472  0.9217  1.5076  1.9209
  162OSM    C2S18185   5.624   6.544   2.439 -0.1298  0.4350  0.4611
  162OSM    H2S18186   5.694   6.487   2.503 -1.0328 -0.0333  1.0669
  162OSM    C3S18187   5.654   6.691   2.477  0.7540 -0.3216  0.2052
  162OSM    H3S18188   5.592   6.760   2.417 -2.5097 -3.5213 -0.4049
  162OSM     O318189   5.788   6.723   2.453 -0.1467  0.3832  0.0996
  162OSM    HO318190   5.811   6.665   2.380 -0.7187  1.1581 -0.7038
  162OSM    C4S18191   5.640   6.715   2.628  0.3492  0.3628  0.8804
  162OSM    H4S18192   5.726   6.684   2.689 -1.0257 -1.8384  1.8167
  162OSM    C5S18193   5.533   6.773   2.693  0.3570 -0.3493 -0.0548
  162OSM    H5S18194   5.461   6.812   2.620  0.9833  0.2244 -0.3721
  162OSM    C6S18195   5.502   6.785   2.842 -0.7097 -0.9202  0.6714
  162OSM    H6S18196   5.439   6.873   2.867 -0.4725 -0.3383 -0.6701
  162OSM    H6T18197   5.601   6.798   2.890  0.0740  1.9768 -1.4614
  162OSM    C7S18198   5.425   6.671   2.904 -0.0638 -0.4775 -0.0567
  162OSM    H7S18199   5.484   6.581   2.876 -0.7473 -0.7854 -0.5262
  162OSM    H7T18200   5.327   6.674   2.852 -0.2764  2.1871  0.3536
  162OSM    C8S18201   5.410   6.678   3.052  0.3711  0.4391  0.0840
  162OSM    H8S18202   5.335   6.749   3.094  0.9677  2.2534 -1.7286
  162OSM    H8T18203   5.510   6.705   3.092  1.3600 -3.0046  0.2415
  162OSM    C9S18204   5.359   6.541   3.116 -0.2845 -0.5890  0.5739
  162OSM    H9S18205   5.436   6.462   3.104  1.9799  1.6857 -1.1329
  162OSM    H9T18206   5.267   6.507   3.064  0.1181  1.7242 -1.9100
  162OSM   C10S18207   5.331   6.545   3.263  0.3731  0.4814 -0.2865
  162OSM   H10S18208   5.319   6.443   3.306  3.9798 -0.0566 -0.2506
  162OSM   H10T18209   5.236   6.601   3.278  0.3283 -0.1886  2.3984
  162OSM   C11S18210   5.441   6.618   3.343 -0.5426  0.0018  0.1423
  162OSM   H11S18211   5.446   6.723   3.307  0.6159 -0.7291 -1.9809
  162OSM   H11T18212   5.532   6.559   3.317 -1.6115 -1.7143  0.0906
  162OSM   C12S18213   5.404   6.605   3.494  0.5212  0.0430  0.8947
  162OSM   H12S18214   5.384   6.496   3.507  0.7802 -0.0223  0.7632
  162OSM   H12T18215   5.309   6.649   3.529 -0.5208 -0.6443 -0.9455
  162OSM   C13S18216   5.516   6.646   3.594  0.3545 -0.1093  0.4007
  162OSM   H13S18217   5.511   6.757   3.596 -1.0522 -0.1576  1.2184
  162OSM   H13T18218   5.610   6.612   3.546  0.8033 -0.7641  1.7127
  162OSM   C14S18219   5.497   6.576   3.727  0.8457 -1.3464  0.1249
  162OSM   H14S18220   5.492   6.466   3.713  3.3594 -1.4114 -0.7736
  162OSM   H14T18221   5.399   6.614   3.764 -0.4951 -3.0316 -1.4977
  162OSM   C15S18222   5.615   6.616   3.818  0.9935  0.0311  0.1402
  162OSM   H15S18223   5.608   6.725   3.836  1.5408  0.4003 -1.7200
  162OSM   H15T18224   5.702   6.585   3.756  1.2204  0.6545  0.1449
  162OSM   C16S18225   5.620   6.536   3.946  0.0743 -0.2494  0.0415
  162OSM   H16S18226   5.589   6.431   3.925 -0.9768  0.3796 -1.7157
  162OSM   H16T18227   5.547   6.584   4.015  1.5868  0.5533  1.1443
  162OSM   C17S18228   5.760   6.525   4.010 -0.1666 -0.1260 -0.6994
  162OSM   H17S18229   5.831   6.479   3.938 -0.2314 -0.2516 -0.6840
  162OSM   H17T18230   5.753   6.459   4.100  1.1283  0.3896 -0.1869
  162OSM   C18S18231   5.821   6.659   4.065  0.5250 -0.0251 -0.2668
  162OSM   H18S18232   5.884   6.645   4.155  0.8712  2.1855 -0.1069
  162OSM   H18T18233   5.733   6.721   4.092 -0.7128 -1.8960  0.1810
  162OSM   H18U18234   5.885   6.713   3.991  1.0153 -3.2471 -2.4038
  162OSM    C1F18235   5.466   6.366   2.489  0.5896  0.4715 -0.2727
  162OSM     OF18236   5.545   6.273   2.472 -0.5439 -0.3308  0.2093
  162OSM    C2F18237   5.327   6.340   2.527  0.3564 -0.4217 -0.8075
  162OSM    H2F18238   5.266   6.284   2.453 -1.1044  1.4469 -1.0811
  162OSM    H2G18239   5.260   6.427   2.546  0.5866 -0.7908  2.0544
  162OSM    C3F18240   5.311   6.260   2.658  0.3900 -0.3978 -0.6639
  162OSM    H3F18241   5.359   6.324   2.735  0.3796  1.2221 -1.9497
  162OSM    H3G18242   5.366   6.164   2.644  1.4082  0.3160 -1.8307
  162OSM    C4F18243   5.164   6.260   2.695 -0.4899  0.3429  0.4002
  162OSM    H4F18244   5.126   6.223   2.597  1.8794 -1.3923  0.0511
  162OSM    H4G18245   5.110   6.355   2.714  1.0547  1.7987 -2.0375
  162OSM    C5F18246   5.128   6.169   2.813 -0.0889  0.4963 -0.0343
  162OSM    H5F18247   5.178   6.072   2.795  2.4575  1.5025  1.1149
  162OSM    H5G18248   5.018   6.155   2.819 -0.0149  0.2397  1.1544
  162OSM    C6F18249   5.157   6.221   2.951 -0.3310  0.0383  0.2143
  162OSM    H6F18250   5.088   6.303   2.981  0.5839  1.4107 -1.2404
  162OSM    H6G18251   5.264   6.253   2.952 -0.4466  0.4274  0.4537
  162OSM    C7F18252   5.136   6.111   3.056  0.5921  0.0276  0.5403
  162OSM    H7F18253   5.179   6.019   3.013 -1.9115 -1.4957  1.1138
  162OSM    H7G18254   5.028   6.097   3.079  0.3614  1.9869  0.8881
  162OSM    C8F18255   5.218   6.124   3.188 -0.1235 -0.4021 -0.0824
  162OSM    H8F18256   5.171   6.216   3.231 -2.4778 -0.6663 -1.8868
  162OSM    H8G18257   5.322   6.150   3.161 -0.1096 -0.4846 -0.1067
  162OSM    C9F18258   5.206   6.006   3.282  0.8093 -0.1347  0.6725
  162OSM    H9F18259   5.189   5.906   3.241  0.8194 -0.8855  2.3910
  162OSM   C10F18260   5.194   6.011   3.410 -0.4806 -0.1229 -0.1729
  162OSM   H10F18261   5.192   5.916   3.465  0.0193 -0.4060 -0.6433
  162OSM   C11F18262   5.221   6.137   3.500 -0.1190 -0.5401  0.0032
  162OSM   H11F18263   5.120   6.174   3.529  0.7439 -0.5088  3.3565
  162OSM   H11G18264   5.280   6.207   3.437  0.9861 -2.5002 -1.2429
  162OSM   C12F18265   5.302   6.115   3.626 -0.4123  0.6099 -0.8538
  162OSM   H12F18266   5.307   6.214   3.676  0.2734 -0.1158  0.5784
  162OSM   H12G18267   5.406   6.074   3.619  0.6830  3.0398  0.2152
  162OSM   C13F18268   5.222   6.038   3.736 -0.1169 -0.4746  0.3322
  162OSM   H13F18269   5.185   5.940   3.700 -0.4024  0.0905 -0.9754
  162OSM   H13G18270   5.131   6.097   3.760 -1.6767 -3.0080  1.1066
  162OSM   C14F18271   5.311   6.018   3.858  0.8456  0.1770  0.2082
  162OSM   H14F18272   5.348   6.109   3.909  0.7411  0.5406 -0.3643
  162OSM   H14G18273   5.395   5.949   3.837  0.3074 -0.9446  1.5525
  162OSM   C15F18274   5.243   5.944   3.978  0.3301  0.5429  0.5069
  162OSM   H15F18275   5.306   5.938   4.070 -0.6610 -1.8283  1.1182
  162OSM   H15G18276   5.234   5.843   3.933  0.9820  1.0753 -0.8586
  162OSM   C16F18277   5.103   5.995   4.025 -0.4962 -0.2946  0.2503
  162OSM   H16F18278   5.023   5.984   3.948 -1.0845  1.2294  0.6165
  162OSM   H16G18279   5.118   6.104   4.037  1.1914 -0.2065 -1.8693
  162OSM   C17F18280   5.069   5.930   4.159  0.1788 -0.4526 -0.7326
  162OSM   H17F18281   5.164   5.943   4.215  0.1183 -0.1539 -0.6960
  162OSM   H17G18282   5.059   5.822   4.139 -1.9041 -0.4654  0.1639
  162OSM   C18F18283   4.950   5.973   4.246  0.1548 -0.1895 -0.3719
  162OSM   H18F18284   4.857   5.915   4.225  2.3771 -2.9282 -3.6419
  162OSM   H18G18285   4.929   6.083   4.247 -0.0464 -0.2260  0.1761
  162OSM   H18H18286   4.965   5.947   4.353 -0.6509  0.0903 -0.1796
  163OSM      N18287   4.970   1.561   1.911  0.9996 -0.0376 -0.2895
  163OSM    C1518288   4.856   1.565   1.817 -0.1049  0.1486 -0.2565
  163OSM   H15A18289   4.789   1.639   1.857  1.0120  0.2296  1.5756
  163OSM   H15B18290   4.806   1.469   1.817  0.4378 -0.1400 -0.9200
  163OSM   H15C18291   4.892   1.596   1.720  2.5634  0.8232  0.8483
  163OSM    C1418292   5.074   1.470   1.852 -0.9643  0.3999  0.4265
  163OSM   H14A18293   5.110   1.510   1.758 -3.8908 -0.4390 -1.1716
  163OSM   H14B18294   5.027   1.373   1.842 -0.1142  0.1684 -2.5081
  163OSM   H14C18295   5.149   1.459   1.928 -0.1050  2.2995 -0.0712
  163OSM    C1318296   5.033   1.691   1.926  0.0203  0.5472  0.4277
  163OSM   H13A18297   5.110   1.681   2.002 -0.4715 -0.2170  0.8419
  163OSM   H13B18298   4.958   1.763   1.956 -2.0348 -0.8098 -1.1257
  163OSM   H13C18299   5.077   1.732   1.837  0.5807 -0.0652  0.4135
  163OSM    C1218300   4.927   1.510   2.047  0.0793  1.0409  0.1157
  163OSM   H12A18301   4.867   1.582   2.102  1.8519  2.1135  0.7297
  163OSM   H12B18302   5.020   1.502   2.102  1.1049 -0.0196 -1.6831
  163OSM    C1118303   4.857   1.367   2.042 -0.1903  0.1959 -0.4274
  163OSM   H11A18304   4.770   1.367   1.973  0.5146  3.4194 -1.4941
  163OSM   H11B18305   4.814   1.352   2.143  0.7325  0.4729  0.0141
  163OSM      P18306   5.023   1.187   2.128 -0.4072  0.0533 -0.4438
  163OSM    O1318307   5.069   1.055   2.078  0.3470  0.1689 -0.0587
  163OSM    O1418308   5.128   1.285   2.172 -0.3834  0.3423 -0.3277
  163OSM    O1118309   4.905   1.164   2.236 -0.5164 -0.7903  0.2966
  163OSM    O1218310   4.940   1.265   2.010 -0.0047  0.2872 -0.8840
  163OSM    C1S18311   4.940   1.106   2.359 -0.4854 -0.1242  0.4332
  163OSM    H1S18312   5.007   1.164   2.426 -0.2513  0.7986 -0.5741
  163OSM    H1T18313   4.994   1.009   2.352 -1.2045 -0.6036  1.3052
  163OSM     NF18314   4.850   1.008   2.575 -0.4691  0.1087 -0.2599
  163OSM    HNF18315   4.823   0.912   2.580  0.6659 -0.2383 -0.6842
  163OSM    C2S18316   4.820   1.075   2.449  0.2628 -0.4732 -0.2714
  163OSM    H2S18317   4.781   1.175   2.478 -0.5026 -0.6290 -0.7331
  163OSM    C3S18318   4.703   1.006   2.373 -0.0929 -0.1906  0.3990
  163OSM    H3S18319   4.740   0.916   2.320  3.3850  2.0750 -1.4593
  163OSM     O318320   4.658   1.083   2.263  0.1400 -0.8151 -0.0582
  163OSM    HO318321   4.736   1.104   2.212  0.3898 -1.4743  0.0494
  163OSM    C4S18322   4.584   0.980   2.461 -0.7302 -0.2305 -0.8185
  163OSM    H4S18323   4.545   1.078   2.495  0.3731  0.2610 -0.9151
  163OSM    C5S18324   4.535   0.863   2.498  0.1284 -0.1194 -0.4422
  163OSM    H5S18325   4.590   0.769   2.480  0.4315 -0.2126  0.9140
  163OSM    C6S18326   4.413   0.872   2.587 -0.1269  0.4871 -0.3926
  163OSM    H6S18327   4.330   0.811   2.548 -0.3086 -0.1851  0.9628
  163OSM    H6T18328   4.376   0.974   2.613  1.1934  0.5734  1.3961
  163OSM    C7S18329   4.435   0.799   2.721  0.1942  0.8376  0.3153
  163OSM    H7S18330   4.477   0.700   2.697 -0.5952  1.4344 -4.5964
  163OSM    H7T18331   4.341   0.781   2.779  1.1354  0.4424  1.7618
  163OSM    C8S18332   4.525   0.885   2.817  0.4191 -0.0544 -0.4513
  163OSM    H8S18333   4.484   0.987   2.835  0.2140 -0.2830  0.3999
  163OSM    H8T18334   4.623   0.903   2.767  1.2398  0.6029  1.2722
  163OSM    C9S18335   4.541   0.808   2.939 -0.8737 -0.1529 -0.2091
  163OSM    H9S18336   4.453   0.791   3.004 -0.0334  0.5927  1.1801
  163OSM    H9T18337   4.602   0.866   3.011 -2.2428  0.1984  0.7048
  163OSM   C10S18338   4.611   0.672   2.924 -0.3153 -0.3001  0.3188
  163OSM   H10S18339   4.715   0.688   2.886 -0.6528 -0.0477 -0.5347
  163OSM   H10T18340   4.566   0.604   2.849  2.5768 -0.6184 -1.2901
  163OSM   C11S18341   4.622   0.602   3.057 -0.1122  1.0740 -0.1700
  163OSM   H11S18342   4.675   0.506   3.041  2.7890  2.6062 -0.3784
  163OSM   H11T18343   4.521   0.571   3.093  0.2647 -1.1951 -0.9123
  163OSM   C12S18344   4.700   0.671   3.167 -0.1125  0.5835 -0.0740
  163OSM   H12S18345   4.640   0.757   3.202  0.5884 -0.0017  2.8579
  163OSM   H12T18346   4.792   0.711   3.117  0.1647  1.4897  1.1175
  163OSM   C13S18347   4.728   0.579   3.290  0.2930 -0.4875  0.0661
  163OSM   H13S18348   4.780   0.489   3.252  0.3908 -0.5745  0.3976
  163OSM   H13T18349   4.633   0.531   3.322  0.5653 -1.4857 -0.5905
  163OSM   C14S18350   4.808   0.647   3.403 -1.0009 -0.1197 -0.2371
  163OSM   H14S18351   4.759   0.734   3.450  1.7353  1.5778 -0.3462
  163OSM   H14T18352   4.898   0.688   3.352  0.8568 -1.0440  2.1175
  163OSM   C15S18353   4.866   0.543   3.512  0.0976 -0.0006  0.2188
  163OSM   H15S18354   4.900   0.447   3.468  0.5899  0.5686 -0.6756
  163OSM   H15T18355   4.787   0.526   3.588 -1.1881  4.0961  0.0115
  163OSM   C16S18356   4.986   0.605   3.587  0.3507 -0.2522 -0.2179
  163OSM   H16S18357   4.955   0.710   3.609 -2.5222 -0.2887 -3.2734
  163OSM   H16T18358   5.079   0.615   3.528  1.4639 -0.3586  1.4628
  163OSM   C17S18359   5.016   0.535   3.721  0.0991  0.1017  0.1886
  163OSM   H17S18360   4.920   0.512   3.773  0.6364  1.2461  1.7657
  163OSM   H17T18361   5.070   0.605   3.789  2.3844  0.2772 -1.6875
  163OSM   C18S18362   5.078   0.401   3.705 -0.7587 -0.2432 -0.9068
  163OSM   H18S18363   5.151   0.401   3.621  0.4360 -1.3201  0.0869
  163OSM   H18T18364   5.006   0.319   3.689  2.1973 -3.0066 -1.1450
  163OSM   H18U18365   5.128   0.370   3.799 -2.0994  0.0674 -0.0706
  163OSM    C1F18366   4.929   1.067   2.668 -0.1067  0.0000 -0.0242
  163OSM     OF18367   4.947   1.189   2.659  0.4555 -0.1603  0.3680
  163OSM    C2F18368   4.969   0.986   2.782 -0.1294 -0.0214  0.1274
  163OSM    H2F18369   5.062   0.929   2.762  0.7968  1.0290  1.2389
  163OSM    H2G18370   4.886   0.914   2.797 -1.3661  1.1048 -1.0570
  163OSM    C3F18371   4.990   1.077   2.906 -0.0190  0.2869  0.4952
  163OSM    H3F18372   4.921   1.164   2.914  0.8896  0.8532  3.5533
  163OSM    H3G18373   5.094   1.116   2.901  0.0422 -0.0381 -2.5339
  163OSM    C4F18374   4.973   1.019   3.045  0.6253  0.1174 -0.4555
  163OSM    H4F18375   5.046   0.943   3.080  0.0618 -0.5711 -0.7627
  163OSM    H4G18376   4.869   0.983   3.058 -0.1547  2.4892  0.5382
  163OSM    C5F18377   4.983   1.124   3.156  0.4511  0.8699  0.1877
  163OSM    H5F18378   4.940   1.222   3.124  0.7064  0.7730 -0.4756
  163OSM    H5G18379   5.091   1.144   3.172  0.5057 -0.1691  1.2850
  163OSM    C6F18380   4.922   1.076   3.289  0.5809  0.6644 -0.0402
  163OSM    H6F18381   4.957   0.972   3.307 -0.8251  0.5395  2.3871
  163OSM    H6G18382   4.812   1.063   3.293  0.5282  1.0848 -0.0511
  163OSM    C7F18383   4.976   1.163   3.406 -0.0480 -0.9651 -0.0303
  163OSM    H7F18384   4.920   1.259   3.405  1.3202 -0.1457 -0.5110
  163OSM    H7G18385   5.084   1.188   3.399 -0.4099  0.4979 -0.7903
  163OSM    C8F18386   4.945   1.110   3.550  0.0577  0.5586  0.6849
  163OSM    H8F18387   4.836   1.094   3.544  0.2976 -0.9181 -0.3454
  163OSM    H8G18388   4.961   1.193   3.623 -1.8182  1.1776  0.4501
  163OSM    C9F18389   5.018   0.979   3.584 -0.0978  0.0239  0.4568
  163OSM    H9F18390   5.005   0.905   3.504 -2.0537  2.4203 -1.6378
  163OSM   C10F18391   5.093   0.953   3.691 -0.1105  0.3416 -0.1433
  163OSM   H10F18392   5.133   0.852   3.708 -0.9956  0.1810  1.0643
  163OSM   C11F18393   5.110   1.049   3.805 -1.1009  0.3597 -0.4168
  163OSM   H11F18394   5.123   1.157   3.781 -0.1732  0.0002 -1.6689
  163OSM   H11G18395   5.199   1.013   3.860 -0.3726  0.9612 -1.1844
  163OSM   C12F18396   4.994   1.046   3.909  0.3802  0.4521  0.0115
  163OSM   H12F18397   4.996   0.947   3.960  0.1434  0.5593  0.2316
  163OSM   H12G18398   4.894   1.045   3.861  0.9388  0.7332 -1.1833
  163OSM   C13F18399   4.989   1.157   4.008  0.5270 -0.7270 -0.0103
  163OSM   H13F18400   4.947   1.252   3.969 -3.3546 -1.6135  1.5237
  163OSM   H13G18401   5.091   1.191   4.035  1.1280  0.3177 -3.2325
  163OSM   C14F18402   4.929   1.119   4.149  0.5758 -0.9160 -0.1302
  163OSM   H14F18403   4.823   1.096   4.127  0.2632  0.8321 -0.6302
  163OSM   H14G18404   4.936   1.209   4.214  1.2716  0.0024 -1.4388
  163OSM   C15F18405   4.984   1.004   4.235 -0.2901  0.3765 -0.4240
  163OSM   H15F18406   5.094   1.018   4.232  0.0618 -1.9357 -0.1387
  163OSM   H15G18407   4.965   0.906   4.186  1.6962 -1.0347  1.3944
  163OSM   C16F18408   4.927   1.013   4.378  0.6165  0.6459 -0.5118
  163OSM   H16F18409   4.893   1.117   4.398 -2.3972 -0.4664  0.6919
  163OSM   H16G18410   5.006   0.996   4.454 -0.4431  1.4617  0.8241
  163OSM   C17F18411   4.808   0.921   4.399  1.3217 -0.5214 -0.2322
  163OSM   H17F18412   4.833   0.815   4.379 -1.0528 -0.9564 -1.1572
  163OSM   H17G18413   4.737   0.953   4.320  0.0781 -1.3809  0.5086
  163OSM   C18F18414   4.744   0.930   4.542  0.9333  0.1456  0.4656
  163OSM   H18F18415   4.813   0.886   4.617 -1.1749 -0.3344  2.2185
  163OSM   H18G18416   4.643   0.884   4.544  0.7355  0.5665  0.2169
  163OSM   H18H18417   4.737   1.037   4.569  0.6771  0.2387  0.0371
  164OSM      N18418   0.490   0.448   1.565 -0.2658 -0.6159 -0.0592
  164OSM    C1518419   0.419   0.497   1.448 -0.2961  0.0605 -0.1452
  164OSM   H15A18420   0.313   0.477   1.453 -0.2756 -0.5634 -1.5634
  164OSM   H15B18421   0.454   0.440   1.362 -1.2965  0.7897 -1.0647
  164OSM   H15C18422   0.426   0.603   1.427 -1.2449  0.0383 -0.5978
  164OSM    C1418423   0.438   0.307   1.585  0.4814  0.2357  0.2713
  164OSM   H14A18424   0.332   0.293   1.573  0.7345  0.2821 -2.6538
  164OSM   H14B18425   0.467   0.273   1.683 -2.0870 -1.0481  0.6877
  164OSM   H14C18426   0.489   0.243   1.515 -2.0583 -1.1419 -0.4278
  164OSM    C1318427   0.638   0.446   1.549 -0.4113  0.7680  0.7308
  164OSM   H13A18428   0.688   0.415   1.639  0.1022 -1.2989 -0.2039
  164OSM   H13B18429   0.670   0.548   1.533 -2.7788  1.2641 -1.4598
  164OSM   H13C18430   0.675   0.395   1.462  1.0255  1.1392  1.1046
  164OSM    C1218431   0.449   0.528   1.686 -0.0961 -0.1026 -0.3287
  164OSM   H12A18432   0.342   0.537   1.688 -0.0525  0.6976 -1.1487
  164OSM   H12B18433   0.490   0.628   1.681 -3.5773  1.5124  0.2330
  164OSM    C1118434   0.480   0.469   1.831  0.0146  0.5591  0.1611
  164OSM   H11A18435   0.416   0.378   1.834  1.6913 -0.7248 -0.6915
  164OSM   H11B18436   0.436   0.533   1.910 -1.2216  0.4157 -0.3863
  164OSM      P18437   0.704   0.346   1.917 -0.1031  0.3904 -0.3620
  164OSM    O1318438   0.700   0.207   1.861 -0.8004  0.0970  0.0365
  164OSM    O1418439   0.834   0.404   1.952 -1.0025 -0.1026  0.1280
  164OSM    O1118440   0.619   0.349   2.046  0.7426 -1.1966  0.1147
  164OSM    O1218441   0.621   0.444   1.832 -0.2381  0.5760  0.3083
  164OSM    C1S18442   0.641   0.259   2.159  0.6116  0.3800 -0.6187
  164OSM    H1S18443   0.742   0.269   2.203  1.1518 -4.1720 -0.2826
  164OSM    H1T18444   0.645   0.157   2.115  1.2792  0.7638 -1.4679
  164OSM     NF18445   0.555   0.135   2.356  0.2887  0.4032 -0.0774
  164OSM    HNF18446   0.495   0.056   2.364 -0.6940  1.3351  3.1807
  164OSM    C2S18447   0.525   0.249   2.272 -0.6321  0.2189  0.0482
  164OSM    H2S18448   0.544   0.348   2.320  5.4151  0.1340 -1.3403
  164OSM    C3S18449   0.387   0.250   2.211  0.0833  0.0694 -0.2533
  164OSM    H3S18450   0.368   0.148   2.171  0.3373 -0.4901  0.9975
  164OSM     O318451   0.370   0.344   2.107 -0.9002 -0.2436  0.5328
  164OSM    HO318452   0.460   0.359   2.078 -0.6468  0.6072  1.6861
  164OSM    C4S18453   0.290   0.264   2.321  0.1310  0.3218  0.1854
  164OSM    H4S18454   0.241   0.168   2.343  2.8213 -1.1186  0.3058
  164OSM    C5S18455   0.254   0.379   2.387  0.8518 -0.3638 -0.3842
  164OSM    H5S18456   0.312   0.470   2.364  3.4969 -1.2436  2.2680
  164OSM    C6S18457   0.155   0.398   2.504 -0.5980  0.5724  0.3609
  164OSM    H6S18458   0.093   0.306   2.508  0.5051 -0.4038 -2.4842
  164OSM    H6T18459   0.079   0.471   2.471 -2.3595 -0.5222  1.7705
  164OSM    C7S18460   0.223   0.414   2.642 -0.2825 -0.4076  0.2035
  164OSM    H7S18461   0.296   0.498   2.638  0.1462 -0.8235 -1.4194
  164OSM    H7T18462   0.284   0.325   2.668  0.5981 -0.0451 -0.5403
  164OSM    C8S18463   0.126   0.426   2.758 -0.5823  0.2706 -0.7993
  164OSM    H8S18464   0.034   0.366   2.746  0.1525 -0.6986 -1.8061
  164OSM    H8T18465   0.088   0.530   2.760 -1.4182 -0.0389 -0.3224
  164OSM    C9S18466   0.199   0.392   2.891 -0.3692 -0.7249  0.4370
  164OSM    H9S18467   0.305   0.426   2.886 -0.5388  0.1481  1.9365
  164OSM    H9T18468   0.198   0.282   2.903  2.8430 -0.9884 -0.8327
  164OSM   C10S18469   0.141   0.471   3.014 -0.2477 -0.6078  0.2641
  164OSM   H10S18470   0.032   0.451   3.030 -0.5445  1.5785  1.2802
  164OSM   H10T18471   0.164   0.578   2.998 -2.3922 -0.0269  0.7041
  164OSM   C11S18472   0.213   0.431   3.151  0.3553  0.3732 -0.1538
  164OSM   H11S18473   0.319   0.450   3.127  0.2834 -0.9164 -1.7147
  164OSM   H11T18474   0.196   0.321   3.164 -0.3317  0.2913 -1.5039
  164OSM   C12S18475   0.175   0.507   3.281 -0.3633 -0.1400 -1.0980
  164OSM   H12S18476   0.066   0.525   3.292 -0.3014  0.2421 -1.1124
  164OSM   H12T18477   0.225   0.606   3.278 -0.0869 -0.0428  2.4047
  164OSM   C13S18478   0.240   0.445   3.405  0.3122  0.2589  0.0151
  164OSM   H13S18479   0.351   0.445   3.392  0.2834 -0.6457 -0.3919
  164OSM   H13T18480   0.209   0.338   3.407  0.1342  0.2958 -0.4870
  164OSM   C14S18481   0.205   0.515   3.535 -0.7336 -0.2521  0.5315
  164OSM   H14S18482   0.096   0.505   3.554 -1.1042  2.1979 -0.0198
  164OSM   H14T18483   0.220   0.623   3.514 -2.8341  0.0367  0.2797
  164OSM   C15S18484   0.283   0.461   3.651 -0.8859  0.2267 -0.2261
  164OSM   H15S18485   0.388   0.492   3.635 -0.7101  0.2336  0.8566
  164OSM   H15T18486   0.263   0.352   3.641 -2.1902  0.3080  1.1221
  164OSM   C16S18487   0.223   0.498   3.788 -0.1518  0.1290  0.4593
  164OSM   H16S18488   0.275   0.440   3.867  0.7201  1.3525  0.8213
  164OSM   H16T18489   0.117   0.468   3.785 -0.0966 -0.1514 -2.7187
  164OSM   C17S18490   0.229   0.652   3.817  0.7266  0.4684  0.1881
  164OSM   H17S18491   0.156   0.685   3.740  2.0780 -0.0665 -1.3894
  164OSM   H17T18492   0.326   0.699   3.788 -0.5395  2.4914 -1.0403
  164OSM   C18S18493   0.198   0.696   3.960  0.1303 -0.8273  0.1810
  164OSM   H18S18494   0.108   0.643   3.999  0.3964  0.3172  2.5293
  164OSM   H18T18495   0.183   0.806   3.964  0.9979 -0.6971 -0.1162
  164OSM   H18U18496   0.283   0.669   4.025  1.0937 -0.7280 -1.0195
  164OSM    C1F18497   0.654   0.133   2.444 -0.5171 -0.8663  0.6693
  164OSM     OF18498   0.722   0.234   2.463  0.7266 -0.3486 -0.3883
  164OSM    C2F18499   0.684   0.005   2.515  0.1470  0.1855 -0.6601
  164OSM    H2F18500   0.734  -0.066   2.445  0.3138  1.3901 -1.7884
  164OSM    H2G18501   0.585  -0.027   2.554  0.2120  0.4477 -0.2749
  164OSM    C3F18502   0.784   0.024   2.637  0.1504  0.3625 -0.0938
  164OSM    H3F18503   0.728   0.089   2.709  0.3914  0.6466 -0.1618
  164OSM    H3G18504   0.871   0.087   2.607  0.2958  1.3966  2.2901
  164OSM    C4F18505   0.835  -0.109   2.688 -0.1469 -0.0392  0.2089
  164OSM    H4F18506   0.855  -0.168   2.596 -2.5057  0.9176 -0.9951
  164OSM    H4G18507   0.754  -0.161   2.744  0.0204  0.4366  0.8990
  164OSM    C5F18508   0.959  -0.095   2.777  0.4967  0.6382 -0.1339
  164OSM    H5F18509   1.034  -0.048   2.709 -0.7319  3.0158  0.0215
  164OSM    H5G18510   0.997  -0.188   2.824  2.4603  0.7890 -1.2828
  164OSM    C6F18511   0.952   0.016   2.880 -0.4450 -0.1588  0.2563
  164OSM    H6F18512   0.866  -0.010   2.944 -0.8232 -0.1507 -0.2421
  164OSM    H6G18513   0.935   0.111   2.824 -2.7826 -2.2613 -2.9432
  164OSM    C7F18514   1.070   0.021   2.971  0.2347  0.1033  0.2616
  164OSM    H7F18515   1.160   0.022   2.906  0.6610 -0.0835  0.8472
  164OSM    H7G18516   1.067  -0.075   3.027 -1.5946 -1.3389 -2.0945
  164OSM    C8F18517   1.087   0.143   3.069  0.8315 -0.1008 -0.4780
  164OSM    H8F18518   0.996   0.165   3.129 -0.7039  3.4118 -3.7111
  164OSM    H8G18519   1.086   0.238   3.013 -0.1160  0.5612  0.5993
  164OSM    C9F18520   1.211   0.120   3.157 -0.1383 -0.7253 -0.2614
  164OSM    H9F18521   1.301   0.079   3.109  0.4402  0.4892 -0.2734
  164OSM   C10F18522   1.218   0.144   3.290 -0.0848  0.3325 -0.1093
  164OSM   H10F18523   1.314   0.118   3.339  0.1762 -0.6191 -1.0723
  164OSM   C11F18524   1.111   0.207   3.385 -0.2895  0.7307  0.0547
  164OSM   H11F18525   1.081   0.113   3.437  4.7154 -2.2910 -1.8047
  164OSM   H11G18526   1.026   0.238   3.319 -3.1044 -1.9081  2.1194
  164OSM   C12F18527   1.162   0.306   3.493  0.3398  0.4220 -0.5261
  164OSM   H12F18528   1.078   0.341   3.557 -0.4654 -0.6412 -0.9775
  164OSM   H12G18529   1.204   0.385   3.426 -0.0256  1.1723  0.1061
  164OSM   C13F18530   1.268   0.239   3.591  0.1260 -0.8486 -0.1978
  164OSM   H13F18531   1.370   0.218   3.552  1.5488  1.5190  1.8665
  164OSM   H13G18532   1.234   0.139   3.626  3.0674 -2.5049 -1.6779
  164OSM   C14F18533   1.290   0.330   3.714 -0.2895 -0.1097 -0.6691
  164OSM   H14F18534   1.197   0.346   3.773  0.5501  0.6274  0.5068
  164OSM   H14G18535   1.318   0.429   3.672 -2.5178  1.2793  0.9279
  164OSM   C15F18536   1.403   0.285   3.813  0.5662 -0.1959 -0.0034
  164OSM   H15F18537   1.411   0.365   3.889 -0.5178 -1.4602  1.5020
  164OSM   H15G18538   1.503   0.297   3.764  1.7030 -2.0442  1.7169
  164OSM   C16F18539   1.378   0.148   3.867 -0.1993 -0.4543 -0.3386
  164OSM   H16F18540   1.403   0.070   3.792 -2.2529 -0.4080 -1.1434
  164OSM   H16G18541   1.270   0.138   3.892 -0.3545 -2.0562 -1.4786
  164OSM   C17F18542   1.449   0.100   3.995 -0.2386 -0.8082  0.1430
  164OSM   H17F18543   1.552   0.139   3.981 -1.0484  0.7814 -2.0376
  164OSM   H17G18544   1.446  -0.011   4.001 -0.3412 -0.7952  0.3479
  164OSM   C18F18545   1.388   0.160   4.124  0.1354 -0.2606  0.5113
  164OSM   H18F18546   1.361   0.265   4.102  1.1303 -0.6282 -3.3137
  164OSM   H18G18547   1.466   0.151   4.202  0.7799  0.7150  0.0026
  164OSM   H18H18548   1.298   0.099   4.144 -1.2290  1.9602  1.4610
  165SAPS     N18549   4.351   2.378   6.751  0.3953  0.0032 -0.4110
  165SAPS   HN118550   4.439   2.432   6.737  0.5821  0.4963  2.1270
  165SAPS   HN218551   4.363   2.332   6.843 -0.4158  0.4581 -0.0645
  165SAPS   HN318552   4.342   2.310   6.673 -1.0193 -0.6100  0.2510
  165SAPS   C1218553   4.230   2.467   6.762  0.5499 -0.6232  0.0860
  165SAPS  H12A18554   4.151   2.397   6.740  0.1318  0.0590 -0.6358
  165SAPS   C1318555   4.214   2.530   6.907 -0.1711  0.1010  0.0063
  165SAPS  O13A18556   4.289   2.485   6.992  0.2508  0.6596 -0.1499
  165SAPS  O13B18557   4.117   2.603   6.938 -0.0895 -0.5499 -0.3336
  165SAPS   C1118558   4.222   2.577   6.652 -0.2374 -0.6958 -0.4496
  165SAPS  H11A18559   4.120   2.620   6.656  0.3916  0.9434 -0.9270
  165SAPS  H11B18560   4.231   2.524   6.554  0.6393 -0.9478 -0.2430
  165SAPS     P18561   4.319   2.818   6.659 -0.3900  0.1090 -0.2182
  165SAPS   O1318562   4.179   2.849   6.678  0.1120 -0.0415  0.5398
  165SAPS   O1418563   4.418   2.891   6.737  0.2017  0.7456  0.0206
  165SAPS   O1218564   4.333   2.663   6.684  0.1131 -0.2885  0.5349
  165SAPS   O1118565   4.361   2.838   6.506  0.1191 -0.1579 -0.2484
  165SAPS    C118566   4.473   2.759   6.464  0.0105  0.3406  0.4738
  165SAPS    HA18567   4.559   2.786   6.529 -0.3253  0.9447  0.6786
  165SAPS    HB18568   4.450   2.651   6.458  0.9412  0.2253 -1.9824
  165SAPS    C218569   4.518   2.808   6.322 -0.1118  0.1232  0.0075
  165SAPS    HS18570   4.597   2.744   6.277  0.3051 -1.0030  2.2328
  165SAPS   O2118571   4.562   2.948   6.335  0.3404  0.4221 -0.2105
  165SAPS   C2118572   4.670   2.983   6.267 -0.2487 -0.1176 -0.5634
  165SAPS   O2218573   4.726   2.912   6.190 -0.0433  0.1273  0.2540
  165SAPS   C2218574   4.724   3.119   6.308 -0.4206 -0.1430 -0.5594
  165SAPS   H2R18575   4.645   3.196   6.297  0.9898  1.6342  0.9482
  165SAPS   H2S18576   4.757   3.102   6.413  0.6411 -1.7307 -1.1222
  165SAPS    C318577   4.397   2.802   6.220  0.6211 -0.0119  0.3796
  165SAPS    HX18578   4.322   2.876   6.254 -0.1266 -0.3778 -0.4204
  165SAPS    HY18579   4.346   2.705   6.235  2.4876 -1.2201 -0.6409
  165SAPS   O3118580   4.442   2.830   6.089  0.3011 -0.1239 -0.4179
  165SAPS   C3118581   4.491   2.748   6.009  0.9022  0.3178 -0.6977
  165SAPS   O3218582   4.494   2.628   6.030 -0.7348 -0.5874  0.1917
  165SAPS   C3218583   4.540   2.818   5.888 -0.1472 -0.4373  0.5572
  165SAPS   H2X18584   4.608   2.747   5.837  0.7895 -0.8159  2.2870
  165SAPS   H2Y18585   4.602   2.905   5.917  1.1351 -1.1098 -0.0869
  165SAPS   C2318586   4.847   3.172   6.228  0.8882  1.1563  0.5101
  165SAPS   H3R18587   4.816   3.185   6.122  0.2433 -0.6936  0.4350
  165SAPS   H3S18588   4.929   3.096   6.229  0.4166  0.4892 -2.0055
  165SAPS   C2418589   4.901   3.304   6.290  0.4492 -0.2495  0.3153
  165SAPS   H4R18590   4.916   3.272   6.395  1.6077 -1.5723 -0.2150
  165SAPS   H4S18591   4.821   3.381   6.290  1.1561  0.5106 -0.1148
  165SAPS   C2518592   5.031   3.353   6.238 -0.2797 -0.5275  0.3797
  165SAPS   H5R18593   5.114   3.340   6.308 -1.2146  2.4603  2.2420
  165SAPS   C2618594   5.044   3.443   6.142 -1.0082 -0.4945 -0.3348
  165SAPS   H6R18595   5.147   3.474   6.115 -0.2349 -1.5639  1.2513
  165SAPS   C2718596   4.934   3.506   6.059  0.1284  0.3541 -0.1069
  165SAPS   H7R18597   4.942   3.616   6.074  0.9595  0.3903 -0.7001
  165SAPS   H7S18598   4.832   3.479   6.092  0.1543 -0.3057 -0.5483
  165SAPS   C2818599   4.947   3.484   5.916 -0.3390  0.0153 -0.0397
  165SAPS   H8R18600   4.862   3.429   5.873  0.2106 -2.8450  2.2275
  165SAPS   C2918601   5.043   3.534   5.836  0.2055 -0.2283  0.8060
  165SAPS   H9R18602   5.035   3.504   5.731  0.2906  0.0412  0.7216
  165SAPS  C21018603   5.164   3.613   5.863 -0.5697  0.0424  0.2497
  165SAPS  H10R18604   5.147   3.666   5.959 -1.2343  1.4296 -0.5956
  165SAPS  H10S18605   5.153   3.693   5.786  1.4203 -0.8785 -1.0679
  165SAPS  C21118606   5.301   3.542   5.869 -0.2463 -0.2465  0.3272
  165SAPS  H11R18607   5.329   3.506   5.969  0.5046 -0.0918  0.1760
  165SAPS  C21218608   5.393   3.547   5.771  0.5587  0.3433  0.0873
  165SAPS  H12R18609   5.486   3.489   5.782  0.1922 -0.1359  0.7509
  165SAPS  C21318610   5.367   3.595   5.632  0.6006 -0.1293 -0.8800
  165SAPS  H13R18611   5.460   3.617   5.575  0.7464 -0.0840 -0.6252
  165SAPS  H13S18612   5.316   3.693   5.638 -1.9905 -1.4694  0.5918
  165SAPS  C21418613   5.287   3.500   5.559  0.0433 -0.0259  0.4371
  165SAPS  H14R18614   5.233   3.422   5.614  1.9919 -1.1023  0.9182
  165SAPS  C21518615   5.281   3.495   5.422  0.5251 -0.1773 -0.1584
  165SAPS  H15R18616   5.225   3.410   5.380  1.6631  0.0928 -2.3724
  165SAPS  C21618617   5.337   3.587   5.319  0.2610 -0.1552  0.1887
  165SAPS  H16R18618   5.428   3.543   5.271  0.4487 -1.0609  1.3360
  165SAPS  H16S18619   5.363   3.683   5.369  0.7521  0.2772 -0.8694
  165SAPS  C21718620   5.239   3.616   5.199 -0.2514  0.3660 -0.0308
  165SAPS  H17R18621   5.139   3.646   5.238 -0.8850 -0.3398 -1.0520
  165SAPS  H17S18622   5.225   3.519   5.146  0.4752 -0.0650  0.5610
  165SAPS  C21818623   5.293   3.718   5.098  0.2710  0.5924  0.6007
  165SAPS  H18R18624   5.345   3.797   5.156  0.4253  0.7393  0.2654
  165SAPS  H18S18625   5.201   3.750   5.045  0.5226 -1.5359 -1.3004
  165SAPS  C21918626   5.397   3.665   5.001 -0.5211  0.1674  0.6324
  165SAPS  H19R18627   5.343   3.585   4.946 -0.2020  0.0122  0.5442
  165SAPS  H19S18628   5.484   3.633   5.061 -0.2099  0.6898  0.4734
  165SAPS  C22018629   5.444   3.771   4.899  0.4170 -0.0496 -0.0739
  165SAPS  H20R18630   5.366   3.801   4.825 -1.3047  0.2024  1.7351
  165SAPS  H20S18631   5.510   3.722   4.825 -1.0225 -0.8780 -0.8723
  165SAPS  H20T18632   5.496   3.860   4.940  1.2549  0.0203 -1.2333
  165SAPS   C3318633   4.436   2.868   5.784 -1.0779  0.3001  0.4901
  165SAPS   H3X18634   4.374   2.942   5.838  1.3858  3.0843 -0.2641
  165SAPS   H3Y18635   4.371   2.784   5.751 -0.6623 -0.1348  0.7739
  165SAPS   C3418636   4.499   2.955   5.677  0.1766  0.1865 -0.1876
  165SAPS   H4X18637   4.584   3.010   5.723 -0.0031  0.2078  0.1223
  165SAPS   H4Y18638   4.430   3.031   5.636  1.2259  1.0174 -0.4560
  165SAPS   C3518639   4.558   2.875   5.556  0.1582 -0.0783  0.0233
  165SAPS   H5X18640   4.606   2.782   5.592  0.5620  0.4619  0.9052
  165SAPS   H5Y18641   4.644   2.928   5.510  1.2701  0.3656  2.4899
  165SAPS   C3618642   4.451   2.854   5.449  0.2868 -0.4089 -0.0360
  165SAPS   H6X18643   4.421   2.948   5.398 -1.0150 -0.7529  0.0578
  165SAPS   H6Y18644   4.358   2.801   5.477 -1.1283  0.5715 -2.5940
  165SAPS   C3718645   4.506   2.749   5.350 -0.5927  0.2265  0.3631
  165SAPS   H7X18646   4.544   2.658   5.400 -0.6748 -0.7476 -1.2576
  165SAPS   H7Y18647   4.593   2.797   5.299 -1.0404  0.6769  0.0027
  165SAPS   C3818648   4.402   2.712   5.250  0.1388  0.3189  0.0219
  165SAPS   H8X18649   4.368   2.807   5.204 -0.6738 -0.4803 -1.0682
  165SAPS   H8Y18650   4.315   2.660   5.297  0.0367  0.4122 -0.0638
  165SAPS   C3918651   4.464   2.619   5.145 -0.1036 -0.4127  0.5879
  165SAPS   H9X18652   4.517   2.524   5.171  1.6316  0.0490 -1.0752
  165SAPS   H9Y18653   4.549   2.671   5.097 -0.6896 -0.1605 -0.1909
  165SAPS  C31018654   4.365   2.588   5.024 -0.4926  0.1300 -0.8685
  165SAPS  H10X18655   4.333   2.687   4.983  0.5555  0.7597 -0.2116
  165SAPS  H10Y18656   4.275   2.540   5.068  0.2668 -1.2838 -0.7932
  165SAPS  C31118657   4.419   2.503   4.914 -0.1431  0.0876 -0.3043
  165SAPS  H11X18658   4.460   2.417   4.972  1.5257  0.8149 -0.3652
  165SAPS  H11Y18659   4.511   2.551   4.876  0.6233  3.1030  4.5464
  165SAPS  C31218660   4.312   2.461   4.814 -0.2619  0.1080 -0.3418
  165SAPS  H12X18661   4.269   2.539   4.748 -2.0288  0.5363  1.2353
  165SAPS  H12Y18662   4.223   2.425   4.870 -0.5877  0.1123 -0.8528
  165SAPS  C31318663   4.351   2.346   4.727  0.2628  0.2766  0.4002
  165SAPS  H13X18664   4.261   2.326   4.664 -0.6723  1.2963  1.3616
  165SAPS  H13Y18665   4.374   2.259   4.791  1.0955  0.7846  0.8035
  165SAPS  C31418666   4.475   2.374   4.646 -0.1553 -0.2286 -0.3386
  165SAPS  H14X18667   4.559   2.376   4.719 -0.9994  0.5321  0.6416
  165SAPS  H14Y18668   4.460   2.477   4.606 -1.4041  0.2199  1.1685
  165SAPS  C31518669   4.498   2.273   4.536 -0.2822  0.0533 -0.7323
  165SAPS  H15X18670   4.416   2.270   4.461  0.8765 -1.1191 -2.0130
  165SAPS  H15Y18671   4.514   2.175   4.585  0.2199  0.5232  0.0556
  165SAPS  C31618672   4.603   2.320   4.426 -0.4335  0.1708  0.1839
  165SAPS  H16X18673   4.708   2.305   4.458 -0.2079 -1.2331 -1.1135
  165SAPS  H16Y18674   4.582   2.428   4.406 -2.4380 -0.1858  0.1029
  165SAPS  C31718675   4.584   2.233   4.294 -0.3250 -0.3108 -0.0110
  165SAPS  H17X18676   4.644   2.289   4.219 -0.2124 -0.2403  0.1318
  165SAPS  H17Y18677   4.480   2.228   4.256  0.1581  2.4139 -2.0114
  165SAPS  C31818678   4.637   2.089   4.303  0.2702  0.3573  0.2100
  165SAPS  H18X18679   4.622   2.038   4.400 -0.2092 -0.7723 -0.4382
  165SAPS  H18Y18680   4.746   2.082   4.282  0.3865  2.6700 -0.2689
  165SAPS  H18Z18681   4.574   2.029   4.234  0.4894 -0.4418  0.6923
  166SAPS     N18682   3.955   2.806   6.837  0.8762  0.2039 -0.8275
  166SAPS   HN118683   4.031   2.863   6.793  2.3472  0.8110  2.2073
  166SAPS   HN218684   4.000   2.722   6.878  0.2499 -0.4255 -1.4092
  166SAPS   HN318685   3.903   2.757   6.761  0.2570  1.8196 -1.4925
  166SAPS   C1218686   3.881   2.872   6.943  0.6986 -0.8729 -1.0241
  166SAPS  H12A18687   3.824   2.795   6.994  1.0491  0.7108  2.0042
  166SAPS   C1318688   3.974   2.951   7.042 -0.5421 -0.0219  0.8811
  166SAPS  O13A18689   4.100   2.954   7.021  0.0977  0.1768 -0.2163
  166SAPS  O13B18690   3.926   2.999   7.146  0.1811  0.0691  0.7289
  166SAPS   C1118691   3.790   2.990   6.882 -0.2126 -0.3258  0.0894
  166SAPS  H11A18692   3.861   3.057   6.829 -0.0579 -1.5578 -1.3425
  166SAPS  H11B18693   3.747   3.036   6.973  0.9135  0.8857  0.0312
  166SAPS     P18694   3.588   3.058   6.731  0.1445 -0.0744 -0.0933
  166SAPS   O1318695   3.478   3.000   6.648 -0.3285 -0.2052 -0.3507
  166SAPS   O1418696   3.526   3.130   6.843 -0.2589 -0.2821 -0.1730
  166SAPS   O1218697   3.681   2.946   6.795  0.0531 -0.3184 -0.3134
  166SAPS   O1118698   3.674   3.155   6.650  0.2864 -0.4254  0.2610
  166SAPS    C118699   3.758   3.106   6.542  0.0852  0.7245 -0.0912
  166SAPS    HA18700   3.833   3.040   6.589  0.5117  0.8385 -0.5998
  166SAPS    HB18701   3.702   3.054   6.462  0.1922  1.5501 -0.7199
  166SAPS    C218702   3.831   3.221   6.475  0.0532 -0.3178 -0.6261
  166SAPS    HS18703   3.903   3.262   6.549  1.4454 -3.8900  0.1972
  166SAPS   O2118704   3.739   3.312   6.432  0.2884 -0.1556 -0.4307
  166SAPS   C2118705   3.781   3.440   6.433 -0.6125  0.1527 -1.1388
  166SAPS   O2218706   3.892   3.484   6.468  0.2093  0.8293  0.3345
  166SAPS   C2218707   3.661   3.533   6.411  0.0158 -0.4682 -0.0525
  166SAPS   H2R18708   3.600   3.483   6.333  0.5895  1.0476 -1.5215
  166SAPS   H2S18709   3.607   3.548   6.507  0.0460  0.2732 -0.1514
  166SAPS    C318710   3.922   3.162   6.361  0.1913  0.1192  0.3275
  166SAPS    HX18711   3.841   3.140   6.288 -1.8826  0.3643  2.4384
  166SAPS    HY18712   3.967   3.068   6.399  1.7501  1.4411  1.9188
  166SAPS   O3118713   4.013   3.251   6.286 -0.2324  0.1261  0.3092
  166SAPS   C3118714   4.138   3.229   6.321 -0.1803 -0.1287 -0.9316
  166SAPS   O3218715   4.180   3.144   6.399 -0.5688 -0.3712  0.2359
  166SAPS   C3218716   4.221   3.343   6.254 -0.3449 -0.2873  0.0209
  166SAPS   H2X18717   4.242   3.414   6.336 -2.6596  0.2442  0.2343
  166SAPS   H2Y18718   4.156   3.395   6.180  0.3981  0.4342 -0.1314
  166SAPS   C2318719   3.712   3.668   6.348 -0.2955 -0.3629 -0.9353
  166SAPS   H3R18720   3.799   3.710   6.403 -1.3002 -0.4959  0.8234
  166SAPS   H3S18721   3.624   3.736   6.356  1.1709  1.4462  0.7259
  166SAPS   C2418722   3.755   3.661   6.196 -0.3761 -0.2186  0.0947
  166SAPS   H4R18723   3.791   3.761   6.164 -1.0011  0.0264  0.1415
  166SAPS   H4S18724   3.662   3.644   6.137 -0.3635  0.8949 -0.2755
  166SAPS   C2518725   3.860   3.567   6.151  0.3853 -0.0091  0.0012
  166SAPS   H5R18726   3.910   3.504   6.226 -0.5479 -1.5120 -0.5937
  166SAPS   C2618727   3.887   3.534   6.025  0.7456  0.1358 -0.1323
  166SAPS   H6R18728   3.962   3.457   6.003  0.0240 -0.2448 -1.3390
  166SAPS   C2718729   3.820   3.579   5.894 -0.3468  0.1399  0.4076
  166SAPS   H7R18730   3.885   3.566   5.805 -0.9844 -1.4622  0.1571
  166SAPS   H7S18731   3.794   3.686   5.909  2.3407  0.8263  0.7618
  166SAPS   C2818732   3.693   3.507   5.860 -0.0868  1.3288  0.3153
  166SAPS   H8R18733   3.641   3.457   5.943 -0.1650 -0.1043 -0.5551
  166SAPS   C2918734   3.632   3.504   5.736 -0.8353 -0.0934 -0.2715
  166SAPS   H9R18735   3.533   3.458   5.723 -0.8186 -0.0186 -0.7028
  166SAPS  C21018736   3.695   3.582   5.621  0.1947 -0.0563 -0.4768
  166SAPS  H10R18737   3.733   3.680   5.659  1.0064  0.0397 -1.5062
  166SAPS  H10S18738   3.611   3.614   5.556  0.7432 -0.5769 -1.4509
  166SAPS  C21118739   3.798   3.505   5.534  0.1666 -0.4522  0.4651
  166SAPS  H11R18740   3.900   3.501   5.576  1.2444 -0.4482 -1.9881
  166SAPS  C21218741   3.767   3.437   5.421  0.2645 -0.2705  0.1136
  166SAPS  H12R18742   3.847   3.394   5.359  1.0107 -1.2148  1.6637
  166SAPS  C21318743   3.637   3.451   5.346  0.3473 -2.0613  0.1862
  166SAPS  H13R18744   3.627   3.558   5.316  2.3296 -1.9969 -0.3376
  166SAPS  H13S18745   3.556   3.443   5.422  1.3562  0.1073  1.6141
  166SAPS  C21418746   3.631   3.355   5.231  0.6358 -0.1159  0.0591
  166SAPS  H14R18747   3.608   3.253   5.267 -0.6965  0.2800  0.3980
  166SAPS  C21518748   3.663   3.365   5.098 -0.0499  0.4755  0.2255
  166SAPS  H15R18749   3.657   3.271   5.040  0.7577  0.0801  0.7592
  166SAPS  C21618750   3.723   3.490   5.027 -0.2057 -0.5447 -0.5268
  166SAPS  H16R18751   3.660   3.580   5.044 -0.6924 -0.9915  0.0862
  166SAPS  H16S18752   3.728   3.472   4.917 -0.9299 -0.1605 -0.6267
  166SAPS  C21718753   3.865   3.528   5.067  0.6910  0.6102 -0.2898
  166SAPS  H17R18754   3.862   3.566   5.172  1.6355 -1.4245  0.5210
  166SAPS  H17S18755   3.894   3.616   5.005  0.8672  1.0758  0.4341
  166SAPS  C21818756   3.974   3.417   5.056 -0.5179  0.1658 -0.4781
  166SAPS  H18R18757   3.951   3.336   5.128  1.6779  1.2707  1.6030
  166SAPS  H18S18758   4.072   3.459   5.087 -0.9887 -1.0961  3.1755
  166SAPS  C21918759   3.991   3.354   4.914 -0.3434 -0.2036 -0.4764
  166SAPS  H19R18760   3.888   3.327   4.881 -0.2711  1.4197 -2.1732
  166SAPS  H19S18761   4.056   3.266   4.933  1.5748  0.8649 -1.7014
  166SAPS  C22018762   4.061   3.436   4.801  0.4454  0.2329 -0.5600
  166SAPS  H20R18763   4.003   3.523   4.766 -2.7370 -1.5669 -0.1351
  166SAPS  H20S18764   4.084   3.372   4.713  0.0811 -0.4682 -0.1528
  166SAPS  H20T18765   4.158   3.479   4.836 -0.5164  1.0979  1.1444
  166SAPS   C3318766   4.355   3.304   6.196  0.1612 -0.0863 -0.1444
  166SAPS   H3X18767   4.409   3.237   6.267 -0.7075 -0.2466  0.3707
  166SAPS   H3Y18768   4.429   3.386   6.182  0.5151  0.0369  2.1383
  166SAPS   C3418769   4.342   3.227   6.063 -0.9026 -0.1200  0.5780
  166SAPS   H4X18770   4.297   3.297   5.989 -0.3192  0.2650  0.5781
  166SAPS   H4Y18771   4.272   3.142   6.068 -1.3708 -0.0132 -2.5996
  166SAPS   C3518772   4.484   3.198   6.002 -0.1666  0.3303  0.3946
  166SAPS   H5X18773   4.465   3.149   5.904 -1.1593 -1.4805  1.4572
  166SAPS   H5Y18774   4.528   3.124   6.072 -2.9138  0.3263  2.2748
  166SAPS   C3618775   4.580   3.314   5.982 -0.6333 -0.2296  0.0652
  166SAPS   H6X18776   4.670   3.271   5.932 -0.6361  0.3043 -0.4078
  166SAPS   H6Y18777   4.626   3.352   6.075 -1.4354 -1.7652  1.1374
  166SAPS   C3718778   4.530   3.425   5.898 -0.5362 -0.4167  0.4329
  166SAPS   H7X18779   4.614   3.492   5.867 -2.4383  2.1655  0.5434
  166SAPS   H7Y18780   4.453   3.485   5.951  1.5419  2.1402  0.8244
  166SAPS   C3818781   4.457   3.386   5.767  0.1294 -0.1732  0.2331
  166SAPS   H8X18782   4.396   3.475   5.740  1.7088  0.6309 -0.8981
  166SAPS   H8Y18783   4.381   3.305   5.774 -1.5235  1.4241  1.8739
  166SAPS   C3918784   4.545   3.368   5.648  0.6535  0.7198 -0.1964
  166SAPS   H9X18785   4.476   3.341   5.565 -1.4359  2.5064  0.8666
  166SAPS   H9Y18786   4.608   3.277   5.662  0.9298  1.1014  1.2250
  166SAPS  C31018787   4.631   3.483   5.606 -0.6788 -0.7935 -0.1664
  166SAPS  H10X18788   4.726   3.494   5.662  0.2924  0.2942 -1.9371
  166SAPS  H10Y18789   4.573   3.577   5.619 -1.2026 -1.1017 -0.2509
  166SAPS  C31118790   4.658   3.466   5.454  0.3516  0.1585 -0.3537
  166SAPS  H11X18791   4.668   3.358   5.431 -1.5787 -0.0675 -0.3188
  166SAPS  H11Y18792   4.764   3.492   5.434  0.8744 -0.5041  1.4134
  166SAPS  C31218793   4.559   3.543   5.365  0.4385  0.2415 -0.4493
  166SAPS  H12X18794   4.579   3.652   5.379  1.3671  0.5222 -3.4077
  166SAPS  H12Y18795   4.458   3.516   5.401 -0.2412  0.3624 -2.1705
  166SAPS  C31318796   4.585   3.523   5.218  0.0753  0.6737  0.4555
  166SAPS  H13X18797   4.694   3.527   5.201  0.9711 -6.2138  1.6207
  166SAPS  H13Y18798   4.525   3.583   5.146  1.5059  1.0133 -0.4921
  166SAPS  C31418799   4.560   3.379   5.164  0.7854  0.6896 -0.2542
  166SAPS  H14X18800   4.616   3.311   5.232 -1.3175 -1.5003 -0.5853
  166SAPS  H14Y18801   4.591   3.365   5.058  2.0006  0.4301  0.1167
  166SAPS  C31518802   4.423   3.330   5.177 -0.3629  0.0641 -0.4960
  166SAPS  H15X18803   4.346   3.396   5.132 -0.2176 -0.0258 -0.8740
  166SAPS  H15Y18804   4.404   3.325   5.287 -0.7527  0.0438 -0.5638
  166SAPS  C31618805   4.413   3.174   5.150 -0.6183  0.6626  0.3581
  166SAPS  H16X18806   4.317   3.123   5.172  0.2882 -0.4360  2.0199
  166SAPS  H16Y18807   4.485   3.131   5.223 -0.0104  1.5937  0.3233
  166SAPS  C31718808   4.463   3.142   5.011 -0.4029  0.4666  0.5326
  166SAPS  H17X18809   4.564   3.182   4.988 -0.7184  0.5923 -0.7251
  166SAPS  H17Y18810   4.402   3.193   4.933 -1.7983 -1.7448  0.0728
  166SAPS  C31818811   4.456   2.990   4.995  0.4230  0.0751  0.2556
  166SAPS  H18X18812   4.540   2.936   5.043  0.3542 -0.5178 -0.2812
  166SAPS  H18Y18813   4.455   2.966   4.887  1.6510  0.4275  0.1521
  166SAPS  H18Z18814   4.360   2.962   5.044  0.0549 -0.2948 -0.6517
  167SAPS     N18815   5.751   4.380   6.927 -1.2722 -0.0563 -0.0962
  167SAPS   HN118816   5.728   4.291   6.975 -0.2272  0.4184  1.3756
  167SAPS   HN218817   5.757   4.441   7.012  1.4166 -0.1127 -0.1730
  167SAPS   HN318818   5.666   4.407   6.874 -0.6338  2.8577  0.1749
  167SAPS   C1218819   5.869   4.390   6.841 -0.5958  0.0307  0.1444
  167SAPS  H12A18820   5.867   4.485   6.790  1.6596 -1.2673 -2.7024
  167SAPS   C1318821   5.999   4.354   6.921  0.3535 -0.7259 -0.0575
  167SAPS  O13A18822   5.990   4.333   7.039  0.0871  0.1963  0.4699
  167SAPS  O13B18823   6.104   4.335   6.862 -0.0361  0.0178 -0.1180
  167SAPS   C1118824   5.857   4.292   6.721  0.5009  0.3721  0.1233
  167SAPS  H11A18825   5.830   4.195   6.767 -2.3120  1.1126  0.2056
  167SAPS  H11B18826   5.945   4.285   6.654 -0.9606  2.1581 -2.1554
  167SAPS     P18827   5.632   4.233   6.602 -0.0423  0.3044  0.5624
  167SAPS   O1318828   5.563   4.194   6.726 -0.0259 -0.1405  0.0578
  167SAPS   O1418829   5.548   4.307   6.503 -0.2725 -0.5651  0.2590
  167SAPS   O1218830   5.745   4.333   6.647 -0.7603 -0.0167 -0.0676
  167SAPS   O1118831   5.714   4.115   6.539 -0.6860 -0.3206 -0.1125
  167SAPS    C118832   5.712   4.074   6.405 -0.6399  0.1421  0.6769
  167SAPS    HA18833   5.700   3.964   6.397 -3.3784  0.3356  1.0777
  167SAPS    HB18834   5.624   4.119   6.355  0.9228  2.7731  0.0972
  167SAPS    C218835   5.846   4.120   6.332 -0.7975  0.9834 -0.2996
  167SAPS    HS18836   5.839   4.230   6.343  1.1322  0.9491  2.1657
  167SAPS   O2118837   5.837   4.072   6.199 -0.0794 -0.2963  0.4189
  167SAPS   C2118838   5.912   4.144   6.107 -0.1238  0.4058 -0.0846
  167SAPS   O2218839   5.966   4.249   6.129 -0.5893 -0.5509 -0.0854
  167SAPS   C2218840   5.899   4.065   5.978 -0.0530 -0.0670 -0.1001
  167SAPS   H2R18841   5.971   3.982   5.990  2.2353  1.9730  1.2112
  167SAPS   H2S18842   5.792   4.039   5.964  0.1665 -0.3454 -1.3868
  167SAPS    C318843   5.966   4.060   6.410 -0.6732 -0.2005  0.8307
  167SAPS    HX18844   5.956   3.950   6.398 -1.8049 -0.0194 -0.1340
  167SAPS    HY18845   5.959   4.094   6.515  1.5730  0.1990  0.8805
  167SAPS   O3118846   6.090   4.099   6.348  0.7290 -0.2228  0.4158
  167SAPS   C3118847   6.143   4.227   6.379 -0.1886  0.6988  0.3576
  167SAPS   O3218848   6.087   4.311   6.451  0.6907  0.2623  0.2800
  167SAPS   C3218849   6.288   4.236   6.329  0.3926  0.5089  0.2822
  167SAPS   H2X18850   6.346   4.207   6.419 -1.9669  0.5573  1.9120
  167SAPS   H2Y18851   6.298   4.345   6.306  1.1761  0.1129 -1.3663
  167SAPS   C2318852   5.947   4.143   5.852  0.0620  0.1007  0.4199
  167SAPS   H3R18853   5.908   4.247   5.861  2.4627  1.4551 -2.7457
  167SAPS   H3S18854   5.901   4.095   5.763  1.6221 -2.0241  0.6912
  167SAPS   C2418855   6.096   4.138   5.847 -0.3113  0.5631 -0.4985
  167SAPS   H4R18856   6.140   4.048   5.894 -0.3219  0.9063  0.1804
  167SAPS   H4S18857   6.133   4.197   5.933  1.1800 -0.8288 -0.1345
  167SAPS   C2518858   6.171   4.202   5.727  1.1534 -0.1211  0.0244
  167SAPS   H5R18859   6.119   4.296   5.705 -1.0234 -0.7540  2.0480
  167SAPS   C2618860   6.276   4.158   5.673  0.5390 -0.7344  0.7391
  167SAPS   H6R18861   6.320   4.209   5.586  0.3526 -1.9515 -0.0969
  167SAPS   C2718862   6.362   4.042   5.719 -0.5096 -0.3016 -0.1263
  167SAPS   H7R18863   6.337   3.952   5.659  0.2824 -0.1773 -0.6635
  167SAPS   H7S18864   6.343   4.003   5.822  1.3264  0.9544  0.7504
  167SAPS   C2818865   6.504   4.082   5.712 -0.6695  0.6459 -0.2118
  167SAPS   H8R18866   6.546   4.160   5.778  2.1848 -1.4479  0.6576
  167SAPS   C2918867   6.592   4.018   5.635  0.0784 -1.0116 -0.0275
  167SAPS   H9R18868   6.687   4.069   5.616  0.1027 -0.9012  0.3815
  167SAPS  C21018869   6.561   3.903   5.549  0.1685  0.2456 -0.1051
  167SAPS  H10R18870   6.487   3.930   5.471  0.7993  1.7427 -0.2146
  167SAPS  H10S18871   6.507   3.829   5.613 -1.4540 -1.0910 -2.8384
  167SAPS  C21118872   6.673   3.833   5.483 -0.2170  0.6971 -0.9464
  167SAPS  H11R18873   6.752   3.809   5.555  0.3733  2.5893 -0.8940
  167SAPS  C21218874   6.689   3.799   5.354  0.4966  0.3796  0.0475
  167SAPS  H12R18875   6.766   3.729   5.318 -1.6298 -2.1532  0.1403
  167SAPS  C21318876   6.593   3.824   5.240 -0.0444 -0.9045  0.6220
  167SAPS  H13R18877   6.487   3.814   5.271 -0.1808 -0.2283  0.3873
  167SAPS  H13S18878   6.614   3.737   5.174  0.8926 -1.2004  1.2901
  167SAPS  C21418879   6.616   3.959   5.178 -0.4775 -0.7602 -0.0140
  167SAPS  H14R18880   6.611   4.041   5.251 -2.4858 -0.4455 -0.4489
  167SAPS  C21518881   6.620   3.989   5.044 -0.1564 -0.2959 -0.1419
  167SAPS  H15R18882   6.651   4.090   5.016 -2.7628  0.9074  1.0117
  167SAPS  C21618883   6.618   3.895   4.927  0.3206 -0.9933 -0.2361
  167SAPS  H16R18884   6.519   3.910   4.878 -0.1886  0.5180  1.1446
  167SAPS  H16S18885   6.629   3.788   4.953 -1.5320 -1.0690  0.4379
  167SAPS  C21718886   6.724   3.934   4.827 -0.3656 -0.3185 -0.8064
  167SAPS  H17R18887   6.704   4.031   4.779  0.7788  0.7948  0.8351
  167SAPS  H17S18888   6.719   3.855   4.749  0.4948 -3.4828  2.0599
  167SAPS  C21818889   6.868   3.933   4.873  0.0589  0.1941 -0.1824
  167SAPS  H18R18890   6.892   3.843   4.933  0.2957  1.2195  1.2987
  167SAPS  H18S18891   6.886   4.004   4.956 -1.7843 -0.3223  0.7207
  167SAPS  C21918892   6.972   3.961   4.761 -0.5535 -0.2531  0.0679
  167SAPS  H19R18893   6.941   4.058   4.716 -0.5545 -0.2034  0.1758
  167SAPS  H19S18894   6.956   3.882   4.685 -1.9331 -1.7851  1.8592
  167SAPS  C22018895   7.123   3.958   4.791 -0.0279  0.1978 -0.8079
  167SAPS  H20R18896   7.159   4.036   4.862 -2.0297  1.2529 -0.8677
  167SAPS  H20S18897   7.178   3.979   4.697  0.0855 -0.0033 -0.7874
  167SAPS  H20T18898   7.159   3.858   4.824  0.2038  0.2361 -0.9385
  167SAPS   C3318899   6.312   4.152   6.203 -0.0829 -0.8793 -0.1040
  167SAPS   H3X18900   6.233   4.171   6.128  0.6207  1.0986 -0.3978
  167SAPS   H3Y18901   6.320   4.045   6.232  2.1126 -0.3317  1.6543
  167SAPS   C3418902   6.455   4.184   6.151  0.1120  0.8773 -0.3561
  167SAPS   H4X18903   6.482   4.108   6.074 -0.7248  0.6388 -0.4191
  167SAPS   H4Y18904   6.535   4.165   6.226 -0.9747  1.2482  0.9412
  167SAPS   C3518905   6.461   4.321   6.084 -0.1367  0.2104 -0.9000
  167SAPS   H5X18906   6.455   4.413   6.145 -0.9670  1.4072 -2.6858
  167SAPS   H5Y18907   6.375   4.337   6.016 -1.3937  3.7781  1.2755
  167SAPS   C3618908   6.582   4.346   5.996 -0.1114  0.2477 -0.4679
  167SAPS   H6X18909   6.601   4.258   5.931  1.0097 -0.2286  0.4655
  167SAPS   H6Y18910   6.666   4.356   6.068 -0.2268 -0.7459 -0.1847
  167SAPS   C3718911   6.574   4.479   5.914  0.7666  0.0613 -0.8836
  167SAPS   H7X18912   6.520   4.559   5.971 -0.2856 -0.5106 -1.0476
  167SAPS   H7Y18913   6.512   4.488   5.822  0.2072  1.3354 -0.4097
  167SAPS   C3818914   6.718   4.532   5.881  0.2208 -0.6118  0.1650
  167SAPS   H8X18915   6.758   4.450   5.819 -0.7006 -0.3735 -0.7729
  167SAPS   H8Y18916   6.766   4.545   5.981 -1.2634  0.8096  0.7575
  167SAPS   C3918917   6.719   4.652   5.792 -0.0536  0.7744 -0.4944
  167SAPS   H9X18918   6.710   4.740   5.859  0.7624 -0.1531  0.8899
  167SAPS   H9Y18919   6.634   4.647   5.721  0.3373 -0.0403 -0.9246
  167SAPS  C31018920   6.850   4.657   5.705 -0.6102 -0.0415  0.5864
  167SAPS  H10X18921   6.841   4.581   5.625  1.4553  0.4828 -0.2116
  167SAPS  H10Y18922   6.932   4.628   5.774  0.0659  0.2863 -0.0635
  167SAPS  C31118923   6.883   4.793   5.645  0.4178  0.0722 -0.2644
  167SAPS  H11X18924   6.925   4.859   5.724  0.8897  0.3074 -0.7073
  167SAPS  H11Y18925   6.793   4.847   5.608  1.8997  2.1376 -1.0673
  167SAPS  C31218926   6.971   4.789   5.520  0.1680 -0.7810  0.2597
  167SAPS  H12X18927   6.920   4.719   5.450 -3.0651  1.8264 -0.2027
  167SAPS  H12Y18928   7.068   4.741   5.547  2.0353  2.3691 -0.4213
  167SAPS  C31318929   6.984   4.929   5.453 -0.2856  0.2334  0.2538
  167SAPS  H13X18930   7.020   4.999   5.531 -0.3929  0.8490 -0.2405
  167SAPS  H13Y18931   6.883   4.967   5.423 -0.0439  1.5719  1.0409
  167SAPS  C31418932   7.086   4.936   5.340 -0.2695  0.0636  0.2781
  167SAPS  H14X18933   7.178   4.878   5.366 -0.9255 -1.1627 -0.0455
  167SAPS  H14Y18934   7.112   5.041   5.316  1.8558 -0.7762 -1.4053
  167SAPS  C31518935   7.035   4.882   5.204  0.5795  0.1867  0.3815
  167SAPS  H15X18936   6.946   4.945   5.183 -0.5375 -1.3843  0.2708
  167SAPS  H15Y18937   6.996   4.781   5.227  1.9315 -0.2370  0.9269
  167SAPS  C31618938   7.134   4.885   5.085  0.4955  0.9844 -0.2230
  167SAPS  H16X18939   7.225   4.843   5.133  0.0544  0.0774 -0.1625
  167SAPS  H16Y18940   7.160   4.988   5.052  0.5761  1.2094  0.5195
  167SAPS  C31718941   7.092   4.793   4.957  0.6497  0.1584  0.5006
  167SAPS  H17X18942   7.085   4.687   4.988  0.2129 -0.6915 -2.2356
  167SAPS  H17Y18943   7.180   4.818   4.892  0.8684  1.2603  1.1877
  167SAPS  C31818944   6.963   4.844   4.886  0.2726  0.6643  0.1224
  167SAPS  H18X18945   6.943   4.786   4.793  1.5203  1.3263 -0.5883
  167SAPS  H18Y18946   6.981   4.947   4.847 -2.3333  1.0011 -0.3522
  167SAPS  H18Z18947   6.871   4.843   4.948 -0.7770  0.8290 -1.3842
  168SAPS     N18948   4.994   4.965   6.667 -0.3197 -0.5639  0.1703
  168SAPS   HN118949   4.966   5.058   6.704 -0.5139 -0.0592 -1.1741
  168SAPS   HN218950   5.026   4.985   6.570  0.2653  2.9096  0.9345
  168SAPS   HN318951   4.914   4.899   6.656  0.0464 -1.4614  2.2959
  168SAPS   C1218952   5.095   4.917   6.762  0.4635  0.2012 -0.4048
  168SAPS  H12A18953   5.175   4.868   6.708  2.0519  2.7399 -0.5141
  168SAPS   C1318954   5.147   5.033   6.850  0.1108 -0.2654 -0.4955
  168SAPS  O13A18955   5.106   5.147   6.839 -0.2019  0.3296  0.0929
  168SAPS  O13B18956   5.258   5.008   6.907  0.4027  0.1182  0.1584
  168SAPS   C1118957   5.034   4.810   6.862 -0.0247  0.5362  0.5023
  168SAPS  H11A18958   4.942   4.858   6.900 -1.0213 -0.7390 -0.2341
  168SAPS  H11B18959   5.101   4.783   6.947 -0.7171 -0.0388  0.8770
  168SAPS     P18960   5.017   4.556   6.826 -0.2757 -0.3730  0.0556
  168SAPS   O1318961   5.094   4.540   6.955 -0.5619  0.6754  0.1876
  168SAPS   O1418962   4.884   4.491   6.820 -0.4279  0.1711 -0.7544
  168SAPS   O1218963   4.991   4.699   6.790  0.4604 -0.2986  0.4312
  168SAPS   O1118964   5.088   4.491   6.695  0.1492  0.1389 -0.2110
  168SAPS    C118965   5.169   4.563   6.602 -0.5115 -0.0629  0.2579
  168SAPS    HA18966   5.223   4.645   6.654  0.3243  0.1825 -0.9615
  168SAPS    HB18967   5.240   4.486   6.567 -0.0293  0.7044 -0.4768
  168SAPS    C218968   5.089   4.624   6.484  1.3872  0.5486 -0.2417
  168SAPS    HS18969   5.027   4.704   6.530 -1.2436 -0.8284 -1.1601
  168SAPS   O2118970   5.008   4.525   6.424  0.2496  0.6813 -0.0005
  168SAPS   C2118971   4.922   4.582   6.339 -0.6590 -0.0232 -0.8139
  168SAPS   O2218972   4.895   4.699   6.343  0.2511  0.5226  0.4276
  168SAPS   C2218973   4.853   4.484   6.250  0.0726 -0.4409  0.2960
  168SAPS   H2R18974   4.859   4.384   6.299  0.8155 -0.7304 -0.3646
  168SAPS   H2S18975   4.748   4.518   6.257  0.1009 -0.5130  1.1523
  168SAPS    C318976   5.179   4.687   6.374  0.4881 -0.9842 -0.4108
  168SAPS    HX18977   5.232   4.773   6.418  1.8864 -0.3495 -3.1012
  168SAPS    HY18978   5.120   4.735   6.293 -1.2424 -1.8643  0.2644
  168SAPS   O3118979   5.277   4.591   6.339 -0.6734 -0.3795  0.7497
  168SAPS   C3118980   5.372   4.632   6.260 -0.0475 -0.7110  0.9825
  168SAPS   O3218981   5.377   4.744   6.216 -0.2963 -0.3047  0.1812
  168SAPS   C3218982   5.467   4.522   6.225 -0.2410  0.1316 -0.6321
  168SAPS   H2X18983   5.432   4.431   6.278 -0.8832  1.4038  1.2038
  168SAPS   H2Y18984   5.570   4.551   6.255 -0.1307  1.8673 -2.4600
  168SAPS   C2318985   4.901   4.499   6.103 -0.9759  0.4633  0.1220
  168SAPS   H3R18986   4.876   4.599   6.061 -0.4608  0.8245  0.6660
  168SAPS   H3S18987   4.856   4.409   6.056  1.2310 -0.9106  0.4593
  168SAPS   C2418988   5.049   4.475   6.076 -0.0483  0.8721  0.7239
  168SAPS   H4R18989   5.118   4.550   6.121  1.4407  1.4766 -2.3205
  168SAPS   H4S18990   5.068   4.493   5.968  1.2096 -0.8547  0.6272
  168SAPS   C2518991   5.094   4.336   6.116  0.5215 -0.1995  0.5343
  168SAPS   H5R18992   5.082   4.328   6.225  1.1595  0.6939  0.6774
  168SAPS   C2618993   5.139   4.234   6.048  0.7667 -0.0209 -0.2105
  168SAPS   H6R18994   5.168   4.151   6.114  1.3977  1.5835  1.6363
  168SAPS   C2718995   5.163   4.212   5.902  0.3305 -0.2426 -1.0262
  168SAPS   H7R18996   5.152   4.104   5.877 -0.0399 -1.3258  3.0722
  168SAPS   H7S18997   5.268   4.239   5.877 -0.2464  1.2335 -2.0005
  168SAPS   C2818998   5.068   4.266   5.790 -0.7430  0.2529  0.6632
  168SAPS   H8R18999   4.982   4.322   5.832 -0.5166  0.2251  1.1772
  168SAPS   C2919000   5.083   4.258   5.656 -0.2785  0.2790 -0.5222
  168SAPS   H9R19001   5.021   4.321   5.591  0.3453 -0.4866 -1.9115
  168SAPS  C21019002   5.207   4.202   5.588  0.7125 -0.3412 -0.0666
  168SAPS  H10R19003   5.175   4.102   5.550 -1.4758 -0.7485  2.5055
  168SAPS  H10S19004   5.293   4.188   5.657  0.4767  1.5850  0.6795
  168SAPS  C21119005   5.267   4.281   5.478 -0.5722 -0.0507  0.7218
  168SAPS  H11R19006   5.336   4.356   5.517 -1.5369  0.8719  0.6773
  168SAPS  C21219007   5.226   4.279   5.346  0.8158  0.1583 -0.1514
  168SAPS  H12R19008   5.273   4.345   5.272 -0.3268  0.2323 -0.8515
  168SAPS  C21319009   5.111   4.195   5.285  0.2775 -0.1807  0.0809
  168SAPS  H13R19010   5.078   4.121   5.361  0.5826 -3.3532 -2.6497
  168SAPS  H13S19011   5.156   4.131   5.206 -0.2508 -0.3063 -0.1230
  168SAPS  C21419012   5.014   4.283   5.228  0.4851 -0.1514  0.9810
  168SAPS  H14R19013   4.944   4.331   5.298  0.0477 -0.6384  0.8842
  168SAPS  C21519014   4.996   4.308   5.095  0.6306  0.1510  0.0509
  168SAPS  H15R19015   4.936   4.394   5.062 -0.6953 -0.5751  0.4589
  168SAPS  C21619016   5.051   4.237   4.971  0.9186 -0.0593 -0.8881
  168SAPS  H16R19017   4.967   4.224   4.899 -0.5229 -0.6338  0.8157
  168SAPS  H16S19018   5.078   4.131   4.994 -0.4648  0.2484  2.7578
  168SAPS  C21719019   5.171   4.320   4.925  1.1289  1.2425 -0.8729
  168SAPS  H17R19020   5.246   4.317   5.007  1.2047 -1.5505 -0.9535
  168SAPS  H17S19021   5.128   4.418   4.895 -4.5140 -1.4695 -3.1567
  168SAPS  C21819022   5.242   4.250   4.816  0.2645  0.3799  0.2118
  168SAPS  H18R19023   5.173   4.213   4.737  1.0803  0.2056 -0.4404
  168SAPS  H18S19024   5.288   4.162   4.865 -0.3461 -0.8988 -1.3912
  168SAPS  C21919025   5.365   4.327   4.751  0.5066 -1.0401 -0.0817
  168SAPS  H19R19026   5.428   4.262   4.686 -0.9628 -1.7661 -0.8178
  168SAPS  H19S19027   5.415   4.370   4.841  1.5553 -2.5773  0.1174
  168SAPS  C22019028   5.323   4.449   4.662  0.0101 -0.1717  0.1769
  168SAPS  H20R19029   5.286   4.533   4.726  1.8995  0.4207  0.5973
  168SAPS  H20S19030   5.249   4.417   4.587  2.6653 -1.3930 -2.1176
  168SAPS  H20T19031   5.411   4.482   4.602  0.4627 -1.5985  0.0351
  168SAPS   C3319032   5.464   4.472   6.079 -0.3134 -0.1850 -0.2124
  168SAPS   H3X19033   5.468   4.555   6.005  0.8681 -0.9260 -1.0166
  168SAPS   H3Y19034   5.372   4.413   6.059  1.4938 -2.8529 -1.2921
  168SAPS   C3419035   5.575   4.372   6.062  0.0902  0.3701  0.6942
  168SAPS   H4X19036   5.568   4.306   6.151  0.9582  1.4849  1.6096
  168SAPS   H4Y19037   5.670   4.429   6.068 -0.1881  0.7281  2.4131
  168SAPS   C3519038   5.564   4.280   5.933  0.3071 -0.4250 -0.8380
  168SAPS   H5X19039   5.482   4.207   5.922  1.7378 -1.8286 -2.8166
  168SAPS   H5Y19040   5.655   4.216   5.938 -1.0402 -2.3348  1.7136
  168SAPS   C3619041   5.579   4.365   5.803 -0.1868  0.0805  0.0958
  168SAPS   H6X19042   5.666   4.433   5.816  0.6285 -0.9417  0.0652
  168SAPS   H6Y19043   5.488   4.425   5.781 -0.3419 -0.5748 -1.1076
  168SAPS   C3719044   5.604   4.271   5.692  0.3557  0.2497 -0.4740
  168SAPS   H7X19045   5.519   4.200   5.686 -0.6097  1.4732 -2.4202
  168SAPS   H7Y19046   5.687   4.197   5.696  1.3769  1.4280  3.0740
  168SAPS   C3819047   5.627   4.352   5.559 -0.4271  0.9081  0.2814
  168SAPS   H8X19048   5.714   4.418   5.579 -2.4067  3.0767  2.4608
  168SAPS   H8Y19049   5.544   4.425   5.543 -0.9422  0.4164  0.6526
  168SAPS   C3919050   5.661   4.267   5.429  0.5742 -0.7257  0.1596
  168SAPS   H9X19051   5.573   4.210   5.392 -0.3512  0.9656 -0.4100
  168SAPS   H9Y19052   5.745   4.198   5.449  1.1107  0.4258  2.1413
  168SAPS  C31019053   5.697   4.359   5.310 -0.4260 -0.1809  0.0549
  168SAPS  H10X19054   5.735   4.292   5.230 -0.0920  0.6733 -0.5142
  168SAPS  H10Y19055   5.778   4.429   5.340  1.1514 -1.9588  0.1351
  168SAPS  C31119056   5.577   4.441   5.257  0.6651  0.6148 -0.4456
  168SAPS  H11X19057   5.555   4.523   5.328 -0.4689 -0.9628  1.0998
  168SAPS  H11Y19058   5.490   4.372   5.261  0.8544  0.2959 -1.4644
  168SAPS  C31219059   5.604   4.507   5.116  0.3033  0.2829  0.0800
  168SAPS  H12X19060   5.635   4.428   5.045 -0.3443  0.9087 -0.9187
  168SAPS  H12Y19061   5.692   4.573   5.136 -0.0379  0.1088  2.4992
  168SAPS  C31319062   5.487   4.586   5.061 -0.0192 -0.8109 -0.2446
  168SAPS  H13X19063   5.463   4.683   5.109 -1.3623 -1.5927  0.7379
  168SAPS  H13Y19064   5.389   4.535   5.072 -1.2056  0.7250 -2.9014
  168SAPS  C31419065   5.504   4.636   4.922 -0.3315 -0.0988  0.0561
  168SAPS  H14X19066   5.407   4.672   4.881 -0.1454 -1.4746 -1.7375
  168SAPS  H14Y19067   5.541   4.552   4.860 -0.2112  0.2418 -0.3365
  168SAPS  C31519068   5.608   4.742   4.899 -0.5132 -0.3841 -0.2735
  168SAPS  H15X19069   5.645   4.733   4.794 -1.9847  1.0999 -0.9653
  168SAPS  H15Y19070   5.698   4.740   4.963 -0.8265 -1.1696  0.1678
  168SAPS  C31619071   5.548   4.883   4.894  0.7335 -0.3755  0.0030
  168SAPS  H16X19072   5.507   4.908   4.994  0.3694  0.7065 -0.4002
  168SAPS  H16Y19073   5.456   4.871   4.833 -0.1637  0.3749  1.1552
  168SAPS  C31719074   5.643   4.998   4.854  0.8494  0.9044  0.6110
  168SAPS  H17X19075   5.579   5.088   4.841  0.0947  0.1935 -0.8223
  168SAPS  H17Y19076   5.682   4.977   4.752 -0.5879  0.5217  0.1058
  168SAPS  C31819077   5.760   5.008   4.949  0.4580 -0.4917 -1.0417
  168SAPS  H18X19078   5.822   4.918   4.931  0.6521 -0.0976 -2.4337
  168SAPS  H18Y19079   5.712   5.011   5.049 -3.4158  0.2404 -2.7103
  168SAPS  H18Z19080   5.827   5.096   4.940 -2.7389  2.1199 -1.1102
  169SAPS     N19081   6.527   6.413   6.831  0.4356  0.3447  0.0757
  169SAPS   HN119082   6.581   6.368   6.908  0.0803  0.4535  0.3950
  169SAPS   HN219083   6.592   6.422   6.751  1.0482 -1.3692  0.3260
  169SAPS   HN319084   6.516   6.512   6.859 -0.5794  0.5045 -0.8136
  169SAPS   C1219085   6.399   6.347   6.793  0.0984 -0.4190 -0.2252
  169SAPS  H12A19086   6.427   6.260   6.735  0.0096  0.1865 -1.2067
  169SAPS   C1319087   6.311   6.312   6.918  0.1111 -0.2761 -0.1557
  169SAPS  O13A19088   6.341   6.328   7.039  0.1991  0.4627  0.6001
  169SAPS  O13B19089   6.211   6.247   6.898  0.7554  0.4462 -0.3776
  169SAPS   C1119090   6.325   6.451   6.707  0.6735 -0.0316 -0.2174
  169SAPS  H11A19091   6.231   6.408   6.668  2.1448 -2.1360 -1.6071
  169SAPS  H11B19092   6.379   6.486   6.617 -0.2546 -0.7115 -1.0559
  169SAPS     P19093   6.252   6.713   6.727 -0.5008  0.2076 -0.0599
  169SAPS   O1319094   6.114   6.731   6.782  0.1540  0.3667  0.0624
  169SAPS   O1419095   6.352   6.819   6.740  0.6019 -0.1795 -0.6109
  169SAPS   O1219096   6.299   6.573   6.784 -0.4194 -0.1516  0.1938
  169SAPS   O1119097   6.237   6.683   6.568 -0.2270 -0.5543  0.4598
  169SAPS    C119098   6.349   6.728   6.487  0.8168  0.3625 -0.8006
  169SAPS    HA19099   6.377   6.835   6.497  2.2750  0.1140 -1.8193
  169SAPS    HB19100   6.438   6.666   6.512 -0.1974 -1.1662 -0.8440
  169SAPS    C219101   6.322   6.707   6.335  0.4937 -0.8100  0.3580
  169SAPS    HS19102   6.419   6.729   6.285 -0.5052  1.9796 -0.5503
  169SAPS   O2119103   6.231   6.806   6.280  0.0663 -0.5025  0.5215
  169SAPS   C2119104   6.268   6.934   6.265 -0.6242  0.2788  0.4577
  169SAPS   O2219105   6.378   6.982   6.300  0.7042  0.3802 -0.2287
  169SAPS   C2219106   6.156   7.010   6.200 -0.4661  0.0617 -0.4921
  169SAPS   H2R19107   6.118   6.951   6.113  1.7644 -0.5180 -1.1536
  169SAPS   H2S19108   6.087   7.025   6.286  1.6290 -0.0549  1.2884
  169SAPS    C319109   6.272   6.563   6.290 -0.0508 -0.6223  0.8323
  169SAPS    HX19110   6.167   6.552   6.324  0.2963 -0.9395  1.8309
  169SAPS    HY19111   6.332   6.486   6.343 -1.0920 -1.6202  0.6062
  169SAPS   O3119112   6.283   6.560   6.143  0.0902  0.7289  0.3188
  169SAPS   C3119113   6.254   6.446   6.082 -0.1233  0.0794 -1.0856
  169SAPS   O3219114   6.221   6.344   6.141  0.5147 -0.2639  0.1252
  169SAPS   C3219115   6.272   6.461   5.931  0.5924  0.7917  0.2714
  169SAPS   H2X19116   6.357   6.532   5.920  1.0620  0.4098  1.3740
  169SAPS   H2Y19117   6.179   6.514   5.901  0.9370  1.9867  1.2394
  169SAPS   C2319118   6.206   7.148   6.151  0.6738  0.5865 -0.3093
  169SAPS   H3R19119   6.292   7.186   6.211 -0.3591 -0.1565  1.7112
  169SAPS   H3S19120   6.125   7.223   6.159  1.7853  1.6579  1.8010
  169SAPS   C2419121   6.243   7.144   5.996  1.0178 -0.0995 -0.3172
  169SAPS   H4R19122   6.257   7.249   5.963  2.0245 -0.2086 -0.2715
  169SAPS   H4S19123   6.162   7.100   5.935  0.2219  1.7112 -0.6522
  169SAPS   C2519124   6.360   7.054   5.974 -0.0131 -0.2416 -0.1130
  169SAPS   H5R19125   6.447   7.092   6.031 -1.2881  1.8708  0.5305
  169SAPS   C2619126   6.390   6.963   5.879 -0.0849 -0.2129  0.0850
  169SAPS   H6R19127   6.473   6.891   5.887  1.4635  1.4796 -0.0195
  169SAPS   C2719128   6.292   6.914   5.773  0.4250  0.3207  0.3695
  169SAPS   H7R19129   6.340   6.883   5.677  0.0556 -0.6219  0.4757
  169SAPS   H7S19130   6.221   6.997   5.755 -0.1670  0.0574  1.4109
  169SAPS   C2819131   6.196   6.812   5.833  0.5833  0.8854  0.0201
  169SAPS   H8R19132   6.197   6.815   5.943 -0.8527  0.4038  0.0633
  169SAPS   C2919133   6.110   6.735   5.755  0.6281  0.1896  0.0364
  169SAPS   H9R19134   6.041   6.668   5.807 -1.4212  2.9317  1.0729
  169SAPS  C21019135   6.098   6.728   5.606  0.2869  0.3686  0.1269
  169SAPS  H10R19136   6.149   6.817   5.562  0.6443 -0.7107 -1.7690
  169SAPS  H10S19137   5.995   6.729   5.564 -0.0699 -0.2334  0.9538
  169SAPS  C21119138   6.169   6.607   5.548 -0.3684  0.1550  0.3603
  169SAPS  H11R19139   6.268   6.589   5.594  0.1558  1.8697 -0.0489
  169SAPS  C21219140   6.124   6.513   5.465 -0.4688  0.2515  0.6401
  169SAPS  H12R19141   6.181   6.422   5.443 -0.3193  0.7708 -1.2482
  169SAPS  C21319142   5.984   6.502   5.413 -0.8499  0.6964  0.5677
  169SAPS  H13R19143   5.959   6.594   5.357 -0.1411  0.1593 -0.6862
  169SAPS  H13S19144   5.919   6.474   5.498 -0.5663 -2.8861 -0.2232
  169SAPS  C21419145   5.966   6.387   5.311  0.3994  0.1167  0.4375
  169SAPS  H14R19146   5.911   6.299   5.350 -0.2570  1.0246  1.6454
  169SAPS  C21519147   6.024   6.366   5.192  0.0270  0.4254  0.4420
  169SAPS  H15R19148   6.001   6.275   5.135 -1.5362  1.7651 -1.1753
  169SAPS  C21619149   6.118   6.462   5.126  0.0401  0.3095  0.0082
  169SAPS  H16R19150   6.222   6.423   5.132  0.5395  1.2627 -1.7889
  169SAPS  H16S19151   6.120   6.568   5.159  1.4526  0.5719 -0.8256
  169SAPS  C21719152   6.083   6.470   4.978  0.2621 -0.8651  0.1138
  169SAPS  H17R19153   5.986   6.523   4.965  0.5732 -0.4383 -0.5083
  169SAPS  H17S19154   6.066   6.369   4.936 -0.2592  0.0139 -1.9610
  169SAPS  C21819155   6.195   6.538   4.897  0.3380  0.3245  0.6423
  169SAPS  H18R19156   6.285   6.474   4.889  0.4406  0.2484  2.1534
  169SAPS  H18S19157   6.215   6.633   4.952 -2.6591  0.4661  1.7054
  169SAPS  C21919158   6.160   6.568   4.751  0.4319  0.0177  0.1029
  169SAPS  H19R19159   6.069   6.629   4.732  0.2965 -0.0805  0.4252
  169SAPS  H19S19160   6.135   6.469   4.707  1.6835  0.0629 -0.7353
  169SAPS  C22019161   6.267   6.631   4.663  0.1887  0.2378 -0.2627
  169SAPS  H20R19162   6.299   6.726   4.713  0.8637  0.0827 -0.3964
  169SAPS  H20S19163   6.227   6.654   4.562  1.5064  0.8657 -0.6704
  169SAPS  H20T19164   6.355   6.564   4.652 -1.8205 -2.8564  1.1394
  169SAPS   C3319165   6.306   6.327   5.857 -0.4339  0.8658  0.5625
  169SAPS   H3X19166   6.335   6.362   5.755 -1.1959  2.3614  0.8240
  169SAPS   H3Y19167   6.221   6.256   5.845  0.6045  0.0042 -2.8825
  169SAPS   C3419168   6.424   6.243   5.916  0.9081  0.2147 -0.3534
  169SAPS   H4X19169   6.409   6.233   6.026  0.6374  2.0877 -0.1797
  169SAPS   H4Y19170   6.510   6.313   5.922  1.2216 -0.0984 -1.2068
  169SAPS   C3519171   6.458   6.112   5.850  0.0258  0.7964 -0.3431
  169SAPS   H5X19172   6.370   6.048   5.827  1.6555 -2.5502  2.0578
  169SAPS   H5Y19173   6.497   6.049   5.932 -0.9691 -1.1775 -1.3121
  169SAPS   C3619174   6.563   6.118   5.737  0.0381  0.0013  0.2863
  169SAPS   H6X19175   6.511   6.145   5.642 -2.0633 -0.4254  1.2684
  169SAPS   H6Y19176   6.603   6.017   5.716 -0.2072  0.3026 -1.8937
  169SAPS   C3719177   6.682   6.213   5.772  0.5337 -0.0942  0.4586
  169SAPS   H7X19178   6.720   6.187   5.873  0.1950 -1.7241  0.1883
  169SAPS   H7Y19179   6.646   6.318   5.759 -0.8426 -0.7184 -1.2115
  169SAPS   C3819180   6.792   6.197   5.667  0.1538  0.2889 -0.1823
  169SAPS   H8X19181   6.824   6.091   5.676 -0.8327 -0.0058  0.0173
  169SAPS   H8Y19182   6.873   6.263   5.707 -0.5095  0.4928  0.8875
  169SAPS   C3919183   6.757   6.241   5.524 -0.5626 -0.4396  0.2815
  169SAPS   H9X19184   6.713   6.343   5.519 -0.7995 -0.5766 -0.5090
  169SAPS   H9Y19185   6.673   6.183   5.480  0.9152 -1.7863 -0.8712
  169SAPS  C31019186   6.881   6.234   5.429  0.2287 -0.2823  1.0059
  169SAPS  H10X19187   6.902   6.130   5.396  1.8492  0.2736  0.2152
  169SAPS  H10Y19188   6.977   6.271   5.468 -0.4236  1.7579  0.7847
  169SAPS  C31119189   6.858   6.313   5.294  0.1689 -0.0349  0.1833
  169SAPS  H11X19190   6.825   6.416   5.321 -0.7969 -0.2664 -0.0835
  169SAPS  H11Y19191   6.766   6.275   5.245  1.9625 -2.4341 -1.5456
  169SAPS  C31219192   6.977   6.330   5.191  0.3719 -1.1128 -0.1720
  169SAPS  H12X19193   7.058   6.373   5.254  0.2691 -3.4064  1.7024
  169SAPS  H12Y19194   6.935   6.387   5.106 -1.8483 -0.3855  1.2947
  169SAPS  C31319195   7.030   6.200   5.129 -0.6598  0.0458  0.0018
  169SAPS  H13X19196   6.953   6.123   5.147 -1.9056  0.9995 -1.0973
  169SAPS  H13Y19197   7.134   6.180   5.164 -0.0603  1.2898 -0.9760
  169SAPS  C31419198   7.030   6.193   4.974  0.8030  0.1175 -0.2379
  169SAPS  H14X19199   6.920   6.184   4.963  0.2613 -1.3542  4.3206
  169SAPS  H14Y19200   7.071   6.094   4.947  0.0702  0.4898 -2.9632
  169SAPS  C31519201   7.098   6.300   4.891 -0.2334  0.0864 -0.3592
  169SAPS  H15X19202   7.201   6.320   4.927  0.7065 -0.9863 -2.2777
  169SAPS  H15Y19203   7.057   6.402   4.909  1.0649  0.3928  1.0434
  169SAPS  C31619204   7.090   6.279   4.737 -0.5558  0.8473  0.0842
  169SAPS  H16X19205   7.094   6.376   4.683 -0.2513  1.4764  1.2071
  169SAPS  H16Y19206   7.003   6.216   4.709 -1.3786  1.4299  1.2561
  169SAPS  C31719207   7.211   6.198   4.687 -0.7752  0.1359  0.2783
  169SAPS  H17X19208   7.196   6.168   4.581  0.6413  0.4633 -0.0358
  169SAPS  H17Y19209   7.214   6.107   4.751 -0.1526  0.6350  0.9845
  169SAPS  C31819210   7.353   6.261   4.691  0.5942  0.1448 -0.4306
  169SAPS  H18X19211   7.424   6.203   4.629  1.6095 -0.2899  1.0874
  169SAPS  H18Y19212   7.393   6.260   4.794  0.8838  1.6172 -0.4950
  169SAPS  H18Z19213   7.341   6.368   4.664 -1.2462  0.1413  0.2492
  170SAPS     N19214   0.852   5.324   7.010  0.3798  0.5003 -0.4697
  170SAPS   HN119215   0.938   5.351   7.062  1.4196 -1.0888 -1.2968
  170SAPS   HN219216   0.859   5.234   6.959 -2.2106  0.0778 -0.2115
  170SAPS   HN319217   0.848   5.400   6.939  0.5844  0.8738 -0.0927
  170SAPS   C1219218   0.746   5.318   7.114 -0.2853 -0.7481  0.6094
  170SAPS  H12A19219   0.775   5.244   7.188  0.5806 -0.0831  0.9543
  170SAPS   C1319220   0.724   5.449   7.181 -0.1525  0.7330 -0.1347
  170SAPS  O13A19221   0.806   5.550   7.161  1.3927  0.6409 -0.6873
  170SAPS  O13B19222   0.634   5.456   7.270  0.6194  0.0706 -0.6762
  170SAPS   C1119223   0.616   5.280   7.046 -0.3806  0.3699  0.5437
  170SAPS  H11A19224   0.579   5.356   6.974  1.6822  0.5592 -0.3831
  170SAPS  H11B19225   0.530   5.280   7.117  0.2354  0.1711  1.3047
  170SAPS     P19226   0.507   5.114   6.883  0.1392 -0.2766  0.1300
  170SAPS   O1319227   0.486   4.968   6.880 -0.6408  0.8834 -0.0406
  170SAPS   O1419228   0.381   5.199   6.913 -0.8665  0.4500  0.6317
  170SAPS   O1219229   0.629   5.150   6.985 -0.5072  0.3592 -0.4940
  170SAPS   O1119230   0.556   5.160   6.743 -0.2524  0.4660 -0.5013
  170SAPS    C119231   0.690   5.162   6.694 -0.4228  0.6106 -0.0419
  170SAPS    HA19232   0.732   5.263   6.679  1.6237  0.2139  2.3347
  170SAPS    HB19233   0.747   5.108   6.773  1.3331 -0.1840 -1.7681
  170SAPS    C219234   0.719   5.073   6.573  0.2761 -0.0583 -0.3997
  170SAPS    HS19235   0.675   5.134   6.491  0.6284  2.6236  1.3105
  170SAPS   O2119236   0.678   4.942   6.599 -0.5502 -0.4706  0.2976
  170SAPS   C2119237   0.573   4.907   6.529  0.6799  0.2758 -0.0157
  170SAPS   O2219238   0.503   4.979   6.464 -0.5098 -0.1606  0.0863
  170SAPS   C2219239   0.552   4.765   6.556  0.5530  0.0988 -0.5717
  170SAPS   H2R19240   0.645   4.708   6.577 -1.3788 -2.7188  0.9527
  170SAPS   H2S19241   0.484   4.758   6.644 -1.1943 -0.2312 -1.9038
  170SAPS    C319242   0.874   5.067   6.552  0.0761 -0.1117  0.2554
  170SAPS    HX19243   0.920   5.030   6.646  0.4376 -0.8309 -0.1959
  170SAPS    HY19244   0.896   5.171   6.519  1.3959 -0.7854 -1.1317
  170SAPS   O3119245   0.914   4.978   6.450 -0.8579  0.2653 -0.1488
  170SAPS   C3119246   0.899   5.012   6.321  0.6451 -0.1790 -0.2250
  170SAPS   O3219247   0.843   5.116   6.281  0.3060 -0.1587  0.2220
  170SAPS   C3219248   0.982   4.920   6.234 -0.3970 -0.3480 -1.1475
  170SAPS   H2X19249   0.987   4.822   6.286 -0.3465  0.7459  1.0219
  170SAPS   H2Y19250   1.086   4.960   6.232 -0.0630 -0.8672  1.5942
  170SAPS   C2319251   0.493   4.680   6.443  0.8558  0.0559 -0.3771
  170SAPS   H3R19252   0.382   4.694   6.439  0.8503 -0.0561 -0.6253
  170SAPS   H3S19253   0.495   4.574   6.476 -0.9865 -0.0991 -0.6565
  170SAPS   C2419254   0.558   4.698   6.306 -0.2950 -0.5726 -0.4538
  170SAPS   H4R19255   0.665   4.729   6.312 -0.3651 -0.2777 -0.7221
  170SAPS   H4S19256   0.509   4.785   6.257 -0.1518  0.6761  1.5171
  170SAPS   C2519257   0.555   4.571   6.223 -0.3451  0.4400  0.3654
  170SAPS   H5R19258   0.534   4.481   6.282  0.9632 -0.4277 -0.4495
  170SAPS   C2619259   0.551   4.553   6.089  0.0076  0.0902  0.2884
  170SAPS   H6R19260   0.561   4.450   6.052  2.9338  0.4888 -0.2765
  170SAPS   C2719261   0.569   4.652   5.980  0.2387  0.7635  0.0933
  170SAPS   H7R19262   0.611   4.612   5.885  0.0763 -2.6630  1.3557
  170SAPS   H7S19263   0.640   4.729   6.017  3.1058 -0.9164 -1.5304
  170SAPS   C2819264   0.448   4.733   5.940 -0.0782 -0.2748 -0.2108
  170SAPS   H8R19265   0.362   4.668   5.921  0.3068 -0.3720 -1.8101
  170SAPS   C2919266   0.440   4.868   5.911 -0.6978  0.0325  0.1585
  170SAPS   H9R19267   0.346   4.915   5.879 -0.6964  1.2421  1.8192
  170SAPS  C21019268   0.553   4.965   5.923 -0.0683  0.6630 -0.1243
  170SAPS  H10R19269   0.538   5.032   5.836 -0.8331  0.0229 -0.4901
  170SAPS  H10S19270   0.654   4.920   5.926 -0.5826 -0.5826 -1.0738
  170SAPS  C21119271   0.543   5.043   6.050 -0.4483  0.2000 -0.8165
  170SAPS  H11R19272   0.519   4.987   6.141  1.3605  2.2134  1.0090
  170SAPS  C21219273   0.549   5.178   6.051  0.1046 -0.1274  0.1252
  170SAPS  H12R19274   0.544   5.229   6.148 -1.1543 -1.5151  0.8331
  170SAPS  C21319275   0.597   5.262   5.936 -0.1514 -0.5351  0.3271
  170SAPS  H13R19276   0.579   5.364   5.975 -2.1226 -1.0713  0.9390
  170SAPS  H13S19277   0.524   5.245   5.854  1.1370 -2.7869 -0.4543
  170SAPS  C21419278   0.737   5.241   5.889 -1.4854  0.1743  0.4896
  170SAPS  H14R19279   0.818   5.260   5.961  0.0778  2.0902 -1.6709
  170SAPS  C21519280   0.766   5.229   5.756  0.6407  0.0709 -0.2099
  170SAPS  H15R19281   0.870   5.221   5.721  1.7007  3.0493  1.8541
  170SAPS  C21619282   0.662   5.217   5.646 -0.7604  0.3120 -0.2655
  170SAPS  H16R19283   0.591   5.302   5.645 -0.9361  0.1586 -0.9130
  170SAPS  H16S19284   0.608   5.123   5.668  3.2421 -1.5906  2.7163
  170SAPS  C21719285   0.740   5.209   5.513  0.4411  0.2764 -0.3002
  170SAPS  H17R19286   0.779   5.105   5.504 -0.5002 -0.0342 -0.9361
  170SAPS  H17S19287   0.820   5.286   5.505  1.4865 -0.7719 -0.1875
  170SAPS  C21819288   0.654   5.211   5.388  0.7161 -0.4856 -0.1581
  170SAPS  H18R19289   0.602   5.307   5.367  1.1674 -0.1472  0.2212
  170SAPS  H18S19290   0.574   5.136   5.401 -0.5425  0.7979 -0.2183
  170SAPS  C21919291   0.728   5.170   5.262 -0.5249 -0.0366  0.7342
  170SAPS  H19R19292   0.787   5.076   5.271 -1.1862 -0.4849  0.5041
  170SAPS  H19S19293   0.803   5.244   5.228  0.5098 -1.7404 -0.8922
  170SAPS  C22019294   0.634   5.149   5.145  0.0374 -0.3773  0.0211
  170SAPS  H20R19295   0.678   5.140   5.043 -0.5226  0.4681 -0.3041
  170SAPS  H20S19296   0.587   5.249   5.137 -0.7233 -0.4749  2.4997
  170SAPS  H20T19297   0.556   5.072   5.168 -0.4370  0.3743  0.9809
  170SAPS   C3319298   0.924   4.907   6.088 -0.6970  0.0861 -0.3100
  170SAPS   H3X19299   0.893   5.005   6.046 -2.8816 -0.4993 -0.1916
  170SAPS   H3Y19300   0.839   4.835   6.093  0.0919 -0.7897  2.1532
  170SAPS   C3419301   1.026   4.852   5.991  0.4874  0.3285 -0.0115
  170SAPS   H4X19302   1.076   4.768   6.045 -0.1471 -0.4176 -0.5455
  170SAPS   H4Y19303   1.092   4.935   5.959 -1.9289  1.9540 -1.1133
  170SAPS   C3519304   0.973   4.789   5.868 -0.0427  0.5772  0.6031
  170SAPS   H5X19305   0.890   4.718   5.889  0.2545  0.2606  0.7135
  170SAPS   H5Y19306   1.052   4.723   5.828 -1.4879 -0.4996 -0.5848
  170SAPS   C3619307   0.922   4.886   5.764 -0.2954  0.6106 -0.7044
  170SAPS   H6X19308   0.839   4.945   5.807 -1.3555 -0.3367 -1.4027
  170SAPS   H6Y19309   0.867   4.826   5.689 -1.6551 -5.0082  4.0428
  170SAPS   C3719310   1.025   4.976   5.691 -0.1745 -0.0365 -0.5812
  170SAPS   H7X19311   1.075   5.053   5.754 -1.3287 -0.7564  1.2905
  170SAPS   H7Y19312   0.974   5.032   5.611 -0.3398  0.1210 -0.3660
  170SAPS   C3819313   1.146   4.896   5.630  0.1893 -0.2465 -0.4550
  170SAPS   H8X19314   1.101   4.808   5.579  1.4408 -0.3842 -1.3854
  170SAPS   H8Y19315   1.196   4.847   5.717  2.1166  0.2879 -1.2079
  170SAPS   C3919316   1.247   4.971   5.559 -0.4927  0.0182  0.7507
  170SAPS   H9X19317   1.346   4.923   5.575 -0.7525 -0.0962  2.1742
  170SAPS   H9Y19318   1.245   5.073   5.603 -3.4808  0.3956 -0.0682
  170SAPS  C31019319   1.221   4.982   5.408  1.1065 -0.8539  0.3613
  170SAPS  H10X19320   1.144   5.061   5.393  2.0709  0.4568  2.0189
  170SAPS  H10Y19321   1.164   4.889   5.384 -0.9526  0.8603 -1.9448
  170SAPS  C31119322   1.325   4.991   5.301 -0.6611  0.5258  0.1852
  170SAPS  H11X19323   1.330   4.892   5.251  1.2988  0.7179 -0.1072
  170SAPS  H11Y19324   1.423   5.011   5.351 -1.9509  2.3799  2.1524
  170SAPS  C31219325   1.297   5.093   5.182 -1.9090 -0.5905  0.2666
  170SAPS  H12X19326   1.375   5.080   5.104 -0.7179  0.4436  1.2413
  170SAPS  H12Y19327   1.312   5.190   5.234  0.0122 -1.0106  0.5611
  170SAPS  C31319328   1.161   5.099   5.123  0.7787 -0.4688  0.6268
  170SAPS  H13X19329   1.094   5.129   5.207  2.0813  1.5924  0.9988
  170SAPS  H13Y19330   1.135   4.997   5.087  0.6840 -0.1267 -0.3095
  170SAPS  C31419331   1.142   5.197   5.010  0.2133 -0.1526  0.0866
  170SAPS  H14X19332   1.164   5.302   5.039  1.2698 -0.0726 -0.9509
  170SAPS  H14Y19333   1.036   5.197   4.977  0.1705 -1.5808  0.1507
  170SAPS  C31519334   1.228   5.164   4.879  0.9014 -0.1292 -0.9136
  170SAPS  H15X19335   1.198   5.064   4.842 -1.4679 -0.0216  0.4805
  170SAPS  H15Y19336   1.334   5.156   4.910  0.5747  1.5299  0.8944
  170SAPS  C31619337   1.212   5.259   4.762 -0.4156  0.2597  0.1925
  170SAPS  H16X19338   1.233   5.362   4.798  1.0010  0.0303  0.0493
  170SAPS  H16Y19339   1.113   5.265   4.711  0.2350  0.2252 -1.1067
  170SAPS  C31719340   1.319   5.242   4.654 -0.1917 -0.3471  0.2220
  170SAPS  H17X19341   1.328   5.146   4.598  0.4587 -1.1474  1.6351
  170SAPS  H17Y19342   1.418   5.250   4.702 -0.3987 -0.0200  0.6029
  170SAPS  C31819343   1.316   5.352   4.548 -0.0802 -0.2055  0.0805
  170SAPS  H18X19344   1.333   5.446   4.605  0.1089 -0.7082  0.8668
  170SAPS  H18Y19345   1.225   5.345   4.485  1.7026 -0.2814 -2.6671
  170SAPS  H18Z19346   1.401   5.354   4.476  1.2078 -1.9536  1.4708
  171SAPS     N19347   1.336   4.236   7.367 -0.0516  0.2530 -0.2321
  171SAPS   HN119348   1.255   4.170   7.364 -1.0525  1.4195  0.0720
  171SAPS   HN219349   1.313   4.309   7.438 -0.5301  0.7203 -0.8487
  171SAPS   HN319350   1.355   4.287   7.278  1.3024  2.3058  1.1518
  171SAPS   C1219351   1.459   4.162   7.423  0.0551 -0.3377  0.3262
  171SAPS  H12A19352   1.523   4.237   7.468  1.3839 -1.3182  0.1181
  171SAPS   C1319353   1.431   4.069   7.545 -0.0214  0.0530  0.2129
  171SAPS  O13A19354   1.355   4.127   7.631  0.0232 -0.3365 -0.5112
  171SAPS  O13B19355   1.519   3.990   7.582 -0.5223  0.0240 -0.1982
  171SAPS   C1119356   1.531   4.091   7.302 -0.1936 -0.1323 -0.6873
  171SAPS  H11A19357   1.467   4.005   7.274  1.2763 -1.6208  0.3303
  171SAPS  H11B19358   1.621   4.044   7.347 -0.7294  0.1664  0.7524
  171SAPS     P19359   1.653   4.291   7.187  0.0173  0.0651  0.0423
  171SAPS   O1319360   1.589   4.406   7.252  0.3825 -0.3218  0.3004
  171SAPS   O1419361   1.779   4.240   7.241 -0.9291 -0.4494 -0.8256
  171SAPS   O1219362   1.554   4.173   7.189  0.1526 -0.0195  0.3011
  171SAPS   O1119363   1.668   4.320   7.033 -0.6068  0.2235  0.4377
  171SAPS    C119364   1.553   4.307   6.941 -0.4344 -0.1644  0.4756
  171SAPS    HA19365   1.480   4.232   6.976 -0.3824 -0.0111  0.9167
  171SAPS    HB19366   1.490   4.399   6.941 -2.1527 -1.3039 -0.2769
  171SAPS    C219367   1.610   4.275   6.800 -0.3322  0.2421 -0.9439
  171SAPS    HS19368   1.676   4.186   6.808 -1.6564 -0.6822  0.3105
  171SAPS   O2119369   1.661   4.394   6.737 -0.8172 -0.5974 -0.8820
  171SAPS   C2119370   1.785   4.411   6.744 -0.6805  0.5397  0.2579
  171SAPS   O2219371   1.870   4.334   6.792 -0.6262 -0.0329 -0.0044
  171SAPS   C2219372   1.825   4.539   6.672 -0.7535  0.9832 -0.7949
  171SAPS   H2R19373   1.735   4.593   6.635 -2.0168  0.3967  1.2701
  171SAPS   H2S19374   1.869   4.603   6.752  1.6142 -2.4312  0.8597
  171SAPS    C319375   1.494   4.217   6.721 -0.1681 -0.2181  0.7191
  171SAPS    HX19376   1.416   4.297   6.728 -1.1233 -1.1055  0.4738
  171SAPS    HY19377   1.454   4.127   6.771 -1.0536  0.1200  0.6369
  171SAPS   O3119378   1.524   4.191   6.583  0.6965  0.1347  0.1541
  171SAPS   C3119379   1.417   4.157   6.509  0.0722 -0.0220 -0.0563
  171SAPS   O3219380   1.306   4.146   6.551  0.1630 -0.2132 -0.3292
  171SAPS   C3219381   1.449   4.163   6.360 -0.2139 -0.1036 -1.0474
  171SAPS   H2X19382   1.529   4.089   6.338  1.4645  1.1948  0.4741
  171SAPS   H2Y19383   1.478   4.265   6.327  1.8030 -0.2010  0.2853
  171SAPS   C2319384   1.933   4.515   6.564  0.3283  0.1785 -0.2061
  171SAPS   H3R19385   2.030   4.477   6.603  0.6692  1.5958  0.4022
  171SAPS   H3S19386   1.958   4.619   6.534 -1.0251  0.2039 -1.3173
  171SAPS   C2419387   1.885   4.423   6.448 -0.7773  0.3781  0.2421
  171SAPS   H4R19388   1.793   4.470   6.406 -0.0758  1.4307 -0.1560
  171SAPS   H4S19389   1.862   4.316   6.465  0.2403 -0.1589 -1.4677
  171SAPS   C2519390   2.000   4.425   6.352 -0.0084  0.1826 -0.4353
  171SAPS   H5R19391   2.099   4.435   6.400 -0.3936 -0.9352  0.6548
  171SAPS   C2619392   1.985   4.437   6.220  0.4892  0.4087  0.1268
  171SAPS   H6R19393   2.074   4.415   6.158  0.5072 -0.3435  0.4066
  171SAPS   C2719394   1.854   4.440   6.143  0.3628 -0.3328  0.3668
  171SAPS   H7R19395   1.770   4.401   6.203 -0.5282  1.4396  0.3407
  171SAPS   H7S19396   1.860   4.373   6.055 -3.8207 -0.4391 -0.0091
  171SAPS   C2819397   1.816   4.579   6.104 -0.1386  0.4178 -0.2247
  171SAPS   H8R19398   1.803   4.651   6.186 -1.5293 -0.2840  0.2071
  171SAPS   C2919399   1.790   4.626   5.980 -0.1816  0.2131  0.3468
  171SAPS   H9R19400   1.768   4.733   5.969 -0.5005  0.1438  0.3020
  171SAPS  C21019401   1.803   4.551   5.852  0.2827 -0.4180 -0.0346
  171SAPS  H10R19402   1.715   4.490   5.823 -0.1131 -0.2950  0.8855
  171SAPS  H10S19403   1.891   4.485   5.862  0.7289  0.4345  2.5456
  171SAPS  C21119404   1.847   4.650   5.745 -0.7290  0.3002  0.0987
  171SAPS  H11R19405   1.916   4.731   5.772 -0.0364  0.0769 -0.9294
  171SAPS  C21219406   1.778   4.666   5.634 -0.3850 -0.3604  0.4167
  171SAPS  H12R19407   1.825   4.745   5.573  2.2169 -1.7821  0.4507
  171SAPS  C21319408   1.667   4.577   5.577  0.3623 -0.8529  0.0929
  171SAPS  H13R19409   1.640   4.490   5.641  0.5346 -0.5806  0.5406
  171SAPS  H13S19410   1.711   4.531   5.486 -3.4980 -0.5092 -2.1884
  171SAPS  C21419411   1.537   4.651   5.551  0.0031 -0.3491 -0.1119
  171SAPS  H14R19412   1.486   4.696   5.638 -1.3016  0.5197 -1.2881
  171SAPS  C21519413   1.478   4.665   5.427  0.2373 -1.1792 -0.0969
  171SAPS  H15R19414   1.384   4.721   5.423  1.9843  1.9840 -0.2835
  171SAPS  C21619415   1.546   4.622   5.306  0.3191 -0.4050  0.0052
  171SAPS  H16R19416   1.531   4.514   5.289 -0.3186 -0.5340  1.2878
  171SAPS  H16S19417   1.655   4.641   5.318  0.1257  1.0388 -0.2905
  171SAPS  C21719418   1.516   4.706   5.174  0.7849  0.4021 -0.6341
  171SAPS  H17R19419   1.594   4.692   5.096  2.1796 -1.2714  0.9603
  171SAPS  H17S19420   1.512   4.814   5.200 -2.1146  0.3345 -0.5220
  171SAPS  C21819421   1.382   4.641   5.122  0.3791  0.4311  0.2903
  171SAPS  H18R19422   1.297   4.639   5.193 -0.8917 -0.2685 -1.2030
  171SAPS  H18S19423   1.397   4.532   5.103  0.6545  0.6616 -0.8795
  171SAPS  C21919424   1.324   4.697   4.988  0.1318  0.1480  0.2706
  171SAPS  H19R19425   1.391   4.655   4.910 -0.4855 -0.8995  0.2882
  171SAPS  H19S19426   1.334   4.807   4.989 -0.9347  0.2932  2.8266
  171SAPS  C22019427   1.176   4.656   4.969 -0.0857 -0.3020 -0.4415
  171SAPS  H20R19428   1.159   4.546   4.971 -2.3250 -0.0079  0.4156
  171SAPS  H20S19429   1.135   4.704   4.877 -5.3817  1.2866  2.3385
  171SAPS  H20T19430   1.121   4.692   5.059 -1.0269 -0.9136 -0.7513
  171SAPS   C3319431   1.328   4.113   6.279  0.1000  0.1108 -0.0601
  171SAPS   H3X19432   1.249   4.192   6.278 -1.4246 -1.3645 -1.2090
  171SAPS   H3Y19433   1.291   4.014   6.313  1.7107 -1.3437 -2.2239
  171SAPS   C3419434   1.364   4.102   6.127  0.2483 -1.1688 -0.9742
  171SAPS   H4X19435   1.454   4.037   6.122  0.5542 -0.9356  0.7844
  171SAPS   H4Y19436   1.396   4.199   6.082  0.4538 -0.7752 -0.0053
  171SAPS   C3519437   1.249   4.044   6.049  0.5724 -0.5339  0.0409
  171SAPS   H5X19438   1.168   4.120   6.058  0.8158 -0.0328 -1.6210
  171SAPS   H5Y19439   1.214   3.947   6.090 -0.9055 -0.6344 -1.3725
  171SAPS   C3619440   1.285   4.028   5.901 -0.3803  0.2462 -0.3886
  171SAPS   H6X19441   1.388   3.990   5.888  1.2959  3.7605  1.3730
  171SAPS   H6Y19442   1.291   4.129   5.856 -1.3739  0.9893  1.0720
  171SAPS   C3719443   1.190   3.940   5.811 -0.1858 -0.6875 -0.7670
  171SAPS   H7X19444   1.086   3.963   5.843 -0.0905 -1.7083  0.3970
  171SAPS   H7Y19445   1.207   3.833   5.837 -0.5494 -0.2034  1.7783
  171SAPS   C3819446   1.235   3.938   5.663 -0.1563 -0.0880 -1.0394
  171SAPS   H8X19447   1.336   3.895   5.647 -1.0640 -1.5718 -3.2376
  171SAPS   H8Y19448   1.228   4.045   5.633 -3.6807  0.8439  2.2551
  171SAPS   C3919449   1.143   3.856   5.567 -0.3245 -0.5544 -0.9593
  171SAPS   H9X19450   1.039   3.892   5.585 -0.5033 -1.5996  0.2579
  171SAPS   H9Y19451   1.145   3.746   5.584 -0.3402 -0.6543 -1.6001
  171SAPS  C31019452   1.180   3.891   5.425 -0.8367  0.1969  0.2642
  171SAPS  H10X19453   1.208   3.998   5.429  4.4406 -0.8795  0.6707
  171SAPS  H10Y19454   1.091   3.880   5.360  1.0833 -0.4456 -2.4215
  171SAPS  C31119455   1.302   3.816   5.376  0.3669  0.3323  0.0710
  171SAPS  H11X19456   1.278   3.708   5.388  0.2238  0.3702  0.1375
  171SAPS  H11Y19457   1.387   3.844   5.442  0.3389 -0.6947  0.5585
  171SAPS  C31219458   1.347   3.855   5.238  0.0674  0.0503  0.1587
  171SAPS  H12X19459   1.456   3.832   5.234  0.3516  1.3308  0.0504
  171SAPS  H12Y19460   1.333   3.961   5.209 -1.0545 -0.2640 -0.5057
  171SAPS  C31319461   1.283   3.775   5.133 -0.0047 -0.6927  0.5148
  171SAPS  H13X19462   1.173   3.784   5.150 -0.2746  1.2446 -1.8049
  171SAPS  H13Y19463   1.307   3.667   5.129 -1.0999 -1.0256  1.9200
  171SAPS  C31419464   1.315   3.830   4.991 -0.2912 -0.5698 -0.4995
  171SAPS  H14X19465   1.421   3.807   4.967  0.1114 -0.3315  0.9607
  171SAPS  H14Y19466   1.303   3.939   4.974  2.5901  0.1080  1.1570
  171SAPS  C31519467   1.230   3.760   4.882 -0.5472 -0.3121  0.5621
  171SAPS  H15X19468   1.128   3.802   4.895 -1.2289 -1.6696 -0.1713
  171SAPS  H15Y19469   1.226   3.650   4.900 -0.8370 -0.3907  0.0122
  171SAPS  C31619470   1.300   3.776   4.742 -0.0437 -0.0869 -0.0942
  171SAPS  H16X19471   1.395   3.723   4.723 -0.4131 -0.4886 -0.8727
  171SAPS  H16Y19472   1.317   3.883   4.719  0.2438 -0.1801 -0.3213
  171SAPS  C31719473   1.208   3.731   4.629 -0.2148 -0.5998 -0.2363
  171SAPS  H17X19474   1.123   3.802   4.624 -0.6991 -1.1617 -0.1133
  171SAPS  H17Y19475   1.169   3.634   4.665 -0.6030  0.0879  1.2517
  171SAPS  C31819476   1.274   3.712   4.493 -0.3887  0.1779 -0.2952
  171SAPS  H18X19477   1.347   3.629   4.496  0.0782  0.5749 -0.4487
  171SAPS  H18Y19478   1.323   3.805   4.457  2.1831  0.6887  3.8888
  171SAPS  H18Z19479   1.205   3.679   4.412 -0.7726 -1.0725  0.5214
  172SAPS     N19480   1.602   4.649   7.370  0.6707  0.4296  0.0778
  172SAPS   HN119481   1.575   4.554   7.335  1.1393  0.7834 -1.3466
  172SAPS   HN219482   1.689   4.671   7.317 -0.7519  2.1275 -1.7306
  172SAPS   HN319483   1.631   4.643   7.469 -0.8795  1.4835  0.6247
  172SAPS   C1219484   1.491   4.751   7.347 -0.5785  0.0713 -0.7944
  172SAPS  H12A19485   1.407   4.719   7.407 -0.3004  0.6839 -0.0744
  172SAPS   C1319486   1.540   4.889   7.405  0.1281 -0.2159 -0.0586
  172SAPS  O13A19487   1.644   4.893   7.473  0.0916 -1.0122 -0.2917
  172SAPS  O13B19488   1.467   4.983   7.411  0.2208 -0.4500  0.1519
  172SAPS   C1119489   1.445   4.763   7.197 -0.5254 -0.2850 -0.3553
  172SAPS  H11A19490   1.534   4.769   7.131  1.9952  0.3567  2.8400
  172SAPS  H11B19491   1.385   4.856   7.192 -0.3027 -0.0498  1.0308
  172SAPS     P19492   1.218   4.646   7.135 -0.1047  0.0313  0.0263
  172SAPS   O1319493   1.172   4.508   7.128  0.1113 -0.0398 -0.2206
  172SAPS   O1419494   1.148   4.733   7.233 -0.3039 -0.2669  0.5703
  172SAPS   O1219495   1.373   4.645   7.164  0.5967 -0.1475 -0.0952
  172SAPS   O1119496   1.196   4.707   6.994 -0.2323 -0.5111  0.7292
  172SAPS    C119497   1.278   4.661   6.886  0.5136  0.5771  0.8705
  172SAPS    HA19498   1.349   4.577   6.899 -0.3055 -0.4121 -0.6731
  172SAPS    HB19499   1.219   4.609   6.807 -0.6674  1.4090  1.1862
  172SAPS    C219500   1.363   4.777   6.819  0.7040 -0.7143 -0.4041
  172SAPS    HS19501   1.394   4.837   6.907 -3.3464 -0.0869  0.8007
  172SAPS   O2119502   1.276   4.856   6.733 -0.4957 -0.1126 -0.0605
  172SAPS   C2119503   1.339   4.962   6.692  0.3270  0.9122 -0.1982
  172SAPS   O2219504   1.444   5.009   6.732  0.0779  0.1446  0.4722
  172SAPS   C2219505   1.259   5.020   6.575  0.6660  0.0328 -0.7221
  172SAPS   H2R19506   1.251   4.943   6.496  2.0589 -1.2748  0.3345
  172SAPS   H2S19507   1.162   5.049   6.620  1.0776  0.2768  0.0365
  172SAPS    C319508   1.489   4.714   6.761  0.7691  0.5704 -0.5221
  172SAPS    HX19509   1.540   4.668   6.849  0.8402  2.1222  0.2796
  172SAPS    HY19510   1.557   4.793   6.723 -0.4808  0.6890 -2.6609
  172SAPS   O3119511   1.444   4.618   6.663 -0.2281  0.2633 -0.2476
  172SAPS   C3119512   1.474   4.655   6.532  0.4284  0.0898 -0.2487
  172SAPS   O3219513   1.542   4.752   6.505  0.1480  0.0844 -0.2108
  172SAPS   C3219514   1.414   4.552   6.439  0.5158  0.0396  0.4247
  172SAPS   H2X19515   1.319   4.514   6.483 -0.4071  1.0029 -0.6694
  172SAPS   H2Y19516   1.484   4.468   6.426 -1.3451 -1.5582  0.2673
  172SAPS   C2319517   1.336   5.138   6.516  0.3031 -0.2318  0.2529
  172SAPS   H3R19518   1.441   5.106   6.495 -0.3920 -1.6818 -1.3312
  172SAPS   H3S19519   1.346   5.222   6.588  0.9795 -0.6247  0.6284
  172SAPS   C2419520   1.266   5.190   6.387 -0.8642  0.5324 -0.1428
  172SAPS   H4R19521   1.192   5.260   6.431 -0.7901 -0.7738  2.2902
  172SAPS   H4S19522   1.212   5.105   6.338 -2.4802  2.2260 -1.4262
  172SAPS   C2519523   1.361   5.267   6.303  0.6548 -0.3767 -0.5137
  172SAPS   H5R19524   1.398   5.358   6.352  1.7904 -1.0662 -0.0489
  172SAPS   C2619525   1.401   5.251   6.177 -0.3747  0.0739 -1.2022
  172SAPS   H6R19526   1.493   5.294   6.134  1.7591 -0.9479  1.9632
  172SAPS   C2719527   1.346   5.144   6.091  0.2453  0.0182  0.3731
  172SAPS   H7R19528   1.332   5.174   5.985 -1.2694 -1.3206  0.1495
  172SAPS   H7S19529   1.241   5.121   6.119  0.3530 -0.9514  0.0207
  172SAPS   C2819530   1.433   5.019   6.110  0.0851 -0.1081 -0.1351
  172SAPS   H8R19531   1.437   4.980   6.213 -1.7479 -2.2229 -0.7759
  172SAPS   C2919532   1.508   4.950   6.017  0.3401 -0.0616 -0.7113
  172SAPS   H9R19533   1.577   4.868   6.044  1.5466  1.2914  0.5047
  172SAPS  C21019534   1.524   5.000   5.879  0.3073 -0.1501  0.5847
  172SAPS  H10R19535   1.421   5.013   5.840  0.4610 -0.3825  0.0974
  172SAPS  H10S19536   1.559   4.921   5.809 -0.4144  0.3003 -0.2955
  172SAPS  C21119537   1.612   5.120   5.871  0.0247 -0.1087 -0.1089
  172SAPS  H11R19538   1.649   5.152   5.969  0.2395  2.1123 -0.8617
  172SAPS  C21219539   1.679   5.160   5.756 -0.3706  0.1446  0.0968
  172SAPS  H12R19540   1.739   5.251   5.771 -0.1903  0.0052  0.2270
  172SAPS  C21319541   1.662   5.129   5.613 -0.3966  0.4923  0.4938
  172SAPS  H13R19542   1.594   5.042   5.606  1.2476 -0.7936 -0.2758
  172SAPS  H13S19543   1.758   5.092   5.569  0.2217  1.0975  1.2987
  172SAPS  C21419544   1.619   5.246   5.529  0.5043  0.0862 -0.1537
  172SAPS  H14R19545   1.543   5.312   5.573  1.8391  2.0415 -0.6753
  172SAPS  C21519546   1.681   5.281   5.414  0.2081 -0.3699 -0.6577
  172SAPS  H15R19547   1.648   5.368   5.355  2.1619  0.2472 -0.9271
  172SAPS  C21619548   1.790   5.206   5.336  0.2272 -0.7467  0.1100
  172SAPS  H16R19549   1.811   5.110   5.387  0.4816  0.0584  1.5756
  172SAPS  H16S19550   1.883   5.267   5.335 -0.4968  0.4143  0.8694
  172SAPS  C21719551   1.756   5.175   5.194  0.0947  0.6149  0.2556
  172SAPS  H17R19552   1.666   5.112   5.176  0.9528 -0.2585 -1.1941
  172SAPS  H17S19553   1.841   5.121   5.147  1.4349  2.5540  0.3551
  172SAPS  C21819554   1.733   5.306   5.120 -0.4271  0.1377  0.1393
  172SAPS  H18R19555   1.827   5.365   5.125 -0.8080  0.8773 -1.0012
  172SAPS  H18S19556   1.650   5.365   5.164 -1.6072  2.9353 -5.0000
  172SAPS  C21919557   1.690   5.284   4.980  0.0503  0.0910 -0.5533
  172SAPS  H19R19558   1.598   5.225   4.965 -0.9513  1.0339  1.4980
  172SAPS  H19S19559   1.771   5.232   4.925  0.5486 -0.4052  0.6072
  172SAPS  C22019560   1.659   5.421   4.918  0.7154 -0.1400  0.1293
  172SAPS  H20R19561   1.631   5.423   4.810  1.1885 -0.6551 -0.0024
  172SAPS  H20S19562   1.748   5.487   4.926  0.4101  0.4731 -1.2156
  172SAPS  H20T19563   1.572   5.469   4.969  0.0775 -0.2078 -0.8675
  172SAPS   C3319564   1.387   4.608   6.304  0.9095 -0.2261  0.5610
  172SAPS   H3X19565   1.479   4.653   6.260  0.1112  0.9216  0.0173
  172SAPS   H3Y19566   1.310   4.688   6.307  0.9211 -0.1787 -0.2235
  172SAPS   C3419567   1.351   4.508   6.193 -0.3464 -0.3097  0.2103
  172SAPS   H4X19568   1.248   4.471   6.212 -0.8763 -0.9304 -3.1676
  172SAPS   H4Y19569   1.411   4.415   6.194 -0.6640 -0.5764 -1.4353
  172SAPS   C3519570   1.359   4.557   6.048  0.2560  0.5067  0.3758
  172SAPS   H5X19571   1.462   4.554   6.008  0.0038 -1.0434 -0.2265
  172SAPS   H5Y19572   1.317   4.659   6.031  2.1559  1.2223 -0.2814
  172SAPS   C3619573   1.278   4.459   5.958 -0.2301  0.1783  0.0648
  172SAPS   H6X19574   1.172   4.479   5.985 -0.7473  1.1786 -2.4181
  172SAPS   H6Y19575   1.309   4.355   5.981  0.7859  0.5322  0.3466
  172SAPS   C3719576   1.285   4.496   5.808  0.0342 -0.9871  0.2330
  172SAPS   H7X19577   1.390   4.495   5.772 -0.6145  0.2146 -1.8373
  172SAPS   H7Y19578   1.262   4.603   5.789  1.8280 -0.9105 -1.8144
  172SAPS   C3819579   1.185   4.410   5.727 -0.1694 -0.2773  0.1318
  172SAPS   H8X19580   1.083   4.415   5.770  0.6237  0.4816  2.0940
  172SAPS   H8Y19581   1.223   4.306   5.719 -0.1409 -0.1357 -1.9975
  172SAPS   C3919582   1.171   4.469   5.579  0.1493  0.4176 -0.2168
  172SAPS   H9X19583   1.269   4.472   5.527 -0.6248  2.0657 -1.6860
  172SAPS   H9Y19584   1.150   4.578   5.587 -0.1977  0.3112  0.4877
  172SAPS  C31019585   1.072   4.388   5.489 -0.0483  0.4630 -0.4412
  172SAPS  H10X19586   0.972   4.387   5.537  0.6329  0.9768  1.0151
  172SAPS  H10Y19587   1.107   4.283   5.492  0.2361  0.5515 -0.5919
  172SAPS  C31119588   1.058   4.437   5.350 -0.3915  0.1918  0.5085
  172SAPS  H11X19589   1.156   4.445   5.298  0.0029  0.3049  1.2548
  172SAPS  H11Y19590   1.025   4.543   5.338 -0.5024 -0.0946 -2.6029
  172SAPS  C31219591   0.945   4.365   5.269 -0.0112  0.5403 -0.4901
  172SAPS  H12X19592   0.849   4.387   5.322 -0.3661 -1.9215  0.0148
  172SAPS  H12Y19593   0.964   4.256   5.276 -2.1482  0.2010  1.1700
  172SAPS  C31319594   0.938   4.396   5.119  0.0170 -0.2105  1.0027
  172SAPS  H13X19595   1.017   4.332   5.073  0.7061  2.1716 -1.4192
  172SAPS  H13Y19596   0.959   4.506   5.120 -0.6530 -0.0089 -1.4356
  172SAPS  C31419597   0.795   4.382   5.064  0.1464 -0.1310 -0.2596
  172SAPS  H14X19598   0.719   4.433   5.127 -0.8272 -0.4093 -1.1808
  172SAPS  H14Y19599   0.760   4.277   5.072  2.6852 -0.8969  3.1218
  172SAPS  C31519600   0.776   4.453   4.927  0.4579 -0.5347 -0.5518
  172SAPS  H15X19601   0.670   4.439   4.896 -0.0114  2.0446 -0.2760
  172SAPS  H15Y19602   0.838   4.401   4.851  1.2257  0.4929 -0.6435
  172SAPS  C31619603   0.813   4.593   4.912 -0.4703  0.5361  0.5724
  172SAPS  H16X19604   0.762   4.661   4.983 -2.7209  0.6520 -1.0583
  172SAPS  H16Y19605   0.923   4.604   4.914 -0.5958  2.7989 -1.3064
  172SAPS  C31719606   0.794   4.637   4.768  0.6103  0.2056  0.2511
  172SAPS  H17X19607   0.692   4.627   4.726  0.8933  0.0639 -0.4173
  172SAPS  H17Y19608   0.852   4.583   4.690 -0.5434  0.5487 -0.8690
  172SAPS  C31819609   0.835   4.781   4.753  0.3513 -0.2974  0.2000
  172SAPS  H18X19610   0.939   4.784   4.791  1.7828 -1.2952 -3.1956
  172SAPS  H18Y19611   0.761   4.849   4.799  0.0553  0.5469 -1.4367
  172SAPS  H18Z19612   0.832   4.819   4.648  1.3040  2.2377  1.0248
  173SAPS     N19613   5.661   3.870   1.923  0.0798  0.3362 -0.4122
  173SAPS   HN119614   5.642   3.922   2.010 -0.4297  3.1749 -2.0821
  173SAPS   HN219615   5.743   3.807   1.934  0.1953  0.7285  1.0798
  173SAPS   HN319616   5.693   3.939   1.851 -0.2858  2.8566  1.6847
  173SAPS   C1219617   5.551   3.779   1.886 -0.1572 -0.4186  0.1016
  173SAPS  H12A19618   5.459   3.836   1.875 -0.8158 -0.8344  2.7026
  173SAPS   C1319619   5.569   3.683   1.763  0.3307 -0.6038  0.4929
  173SAPS  O13A19620   5.671   3.696   1.684  0.0318 -0.0340  0.1140
  173SAPS  O13B19621   5.470   3.614   1.730  0.0042 -0.6426  0.2303
  173SAPS   C1119622   5.531   3.689   2.009 -0.0453 -0.2792 -1.0549
  173SAPS  H11A19623   5.620   3.623   2.020 -0.0963 -0.0396  1.2190
  173SAPS  H11B19624   5.444   3.621   1.998  0.0720 -0.4552 -0.8872
  173SAPS     P19625   5.368   3.805   2.182 -0.1465  0.0388 -0.3137
  173SAPS   O1319626   5.309   3.909   2.097 -0.3234 -0.0372  0.8592
  173SAPS   O1419627   5.294   3.680   2.210  0.3120 -0.6548 -0.0896
  173SAPS   O1219628   5.520   3.766   2.131 -0.8496  0.3997 -0.1064
  173SAPS   O1119629   5.406   3.872   2.325 -0.0921 -0.7712 -0.8041
  173SAPS    C119630   5.467   3.793   2.429  0.2533 -0.4421 -0.5261
  173SAPS    HA19631   5.515   3.702   2.389  1.5843 -0.5196  1.1019
  173SAPS    HB19632   5.553   3.848   2.475 -2.1846  1.9126  1.5413
  173SAPS    C219633   5.362   3.732   2.533 -0.1969 -0.5181 -0.2102
  173SAPS    HS19634   5.274   3.684   2.485 -0.4869  0.4253 -0.6510
  173SAPS   O2119635   5.310   3.840   2.623  0.3985 -0.1812  0.1888
  173SAPS   C2119636   5.203   3.818   2.692  0.3227 -0.1317  0.2729
  173SAPS   O2219637   5.137   3.712   2.687 -0.3073 -0.0659  1.2258
  173SAPS   C2219638   5.174   3.931   2.787 -0.2346 -0.6030  0.3853
  173SAPS   H2R19639   5.273   3.959   2.830  0.4221 -0.5969 -1.0465
  173SAPS   H2S19640   5.127   4.011   2.726 -1.5462 -1.3689  0.3599
  173SAPS    C319641   5.430   3.623   2.623 -0.7968 -0.0275 -0.0938
  173SAPS    HX19642   5.500   3.680   2.688 -0.2033 -0.6647 -0.1541
  173SAPS    HY19643   5.501   3.562   2.562  0.7119  0.1054  1.4330
  173SAPS   O3119644   5.362   3.550   2.714  0.6127  0.0752 -0.7955
  173SAPS   C3119645   5.285   3.453   2.666  0.0896  0.3793  0.5807
  173SAPS   O3219646   5.265   3.429   2.550 -0.2837 -0.1674  0.3711
  173SAPS   C3219647   5.212   3.380   2.779 -0.2187  1.0024 -0.4342
  173SAPS   H2X19648   5.281   3.313   2.835 -1.1170 -0.9663 -1.5808
  173SAPS   H2Y19649   5.129   3.326   2.729 -0.8251  1.1802  0.3593
  173SAPS   C2319650   5.089   3.894   2.904 -0.5500  0.4304 -0.6777
  173SAPS   H3R19651   5.134   3.801   2.944  0.9361  1.5858  0.4897
  173SAPS   H3S19652   4.987   3.858   2.882 -0.1606 -0.8196 -0.4905
  173SAPS   C2419653   5.100   3.995   3.020  0.5280  0.6690 -0.7723
  173SAPS   H4R19654   5.201   4.040   3.031  0.8841 -0.0981 -0.7797
  173SAPS   H4S19655   5.074   3.958   3.122 -2.0278 -0.4002 -1.7325
  173SAPS   C2519656   5.009   4.119   2.996 -0.2557  0.5573  0.4939
  173SAPS   H5R19657   5.049   4.193   2.924 -0.9511  0.0343 -0.4436
  173SAPS   C2619658   4.888   4.142   3.049  0.1649  0.7921  0.0462
  173SAPS   H6R19659   4.828   4.231   3.026 -1.3364 -0.3631 -0.6855
  173SAPS   C2719660   4.813   4.049   3.152  0.4716  0.0463 -0.9588
  173SAPS   H7R19661   4.880   4.043   3.240 -1.5974 -0.4108  0.6498
  173SAPS   H7S19662   4.810   3.943   3.120  2.4453 -0.5457  0.6218
  173SAPS   C2819663   4.682   4.112   3.193  0.7212  0.3018 -0.2283
  173SAPS   H8R19664   4.596   4.059   3.148  0.9707 -0.4892  0.1966
  173SAPS   C2919665   4.670   4.214   3.279 -0.3873  0.6943 -0.0485
  173SAPS   H9R19666   4.569   4.247   3.307 -1.4596 -0.4019 -2.3285
  173SAPS  C21019667   4.783   4.291   3.343 -0.5447 -0.0760 -0.1306
  173SAPS  H10R19668   4.774   4.401   3.327 -2.0279  0.1816  2.1772
  173SAPS  H10S19669   4.884   4.270   3.302 -0.3432 -1.7886  1.1421
  173SAPS  C21119670   4.781   4.269   3.494  0.0349  0.0103 -0.1083
  173SAPS  H11R19671   4.858   4.204   3.539 -0.5619 -1.0772 -0.6158
  173SAPS  C21219672   4.704   4.332   3.584 -0.3905 -0.3014  0.5425
  173SAPS  H12R19673   4.725   4.299   3.687  1.0793 -1.6558 -0.1441
  173SAPS  C21319674   4.604   4.442   3.558 -0.5086 -0.9512 -0.1621
  173SAPS  H13R19675   4.504   4.401   3.530 -0.3908 -1.1284 -0.3203
  173SAPS  H13S19676   4.630   4.501   3.467  1.6209  1.9209  2.1316
  173SAPS  C21419677   4.605   4.540   3.677  0.9933 -0.3085 -0.1719
  173SAPS  H14R19678   4.653   4.636   3.654  0.2578 -0.0054 -0.4766
  173SAPS  C21519679   4.565   4.522   3.800  0.6326 -0.3850  0.1150
  173SAPS  H15R19680   4.578   4.608   3.866  2.4658 -0.1274 -0.5110
  173SAPS  C21619681   4.505   4.393   3.858 -0.1157 -0.3991 -0.4172
  173SAPS  H16R19682   4.492   4.311   3.784 -0.8741 -1.6828  1.0938
  173SAPS  H16S19683   4.401   4.408   3.896 -0.8470 -0.5207 -2.2539
  173SAPS  C21719684   4.587   4.327   3.965  0.2571 -0.3841 -0.1103
  173SAPS  H17R19685   4.687   4.306   3.922 -0.4322  0.5317 -2.3024
  173SAPS  H17S19686   4.532   4.235   3.992 -1.3362  0.5059 -0.2212
  173SAPS  C21819687   4.589   4.420   4.091 -0.3365  0.3127 -0.0243
  173SAPS  H18R19688   4.487   4.451   4.123 -0.0655  2.6323 -1.2098
  173SAPS  H18S19689   4.646   4.514   4.083  2.0010 -0.8973  1.4763
  173SAPS  C21919690   4.658   4.352   4.217  0.1272  0.9489  0.4274
  173SAPS  H19R19691   4.768   4.335   4.207  0.4618  3.1734 -0.2813
  173SAPS  H19S19692   4.607   4.254   4.234 -1.0004  1.1914 -1.3041
  173SAPS  C22019693   4.629   4.440   4.340 -0.3684  0.0013 -0.1946
  173SAPS  H20R19694   4.692   4.408   4.426  1.0451  1.1009 -0.7860
  173SAPS  H20S19695   4.527   4.439   4.383 -0.0907 -1.7029  0.5000
  173SAPS  H20T19696   4.654   4.546   4.318  0.0448 -0.4732 -2.1741
  173SAPS   C3319697   5.154   3.467   2.894 -0.3263  0.7523  0.5478
  173SAPS   H3X19698   5.093   3.550   2.852 -1.7604  0.7126  2.4331
  173SAPS   H3Y19699   5.233   3.520   2.952  1.7538  1.3099 -2.5858
  173SAPS   C3419700   5.045   3.388   2.974  0.5641 -0.9113  0.6995
  173SAPS   H4X19701   5.110   3.310   3.020 -0.4535 -1.0464  1.9400
  173SAPS   H4Y19702   4.971   3.343   2.904  3.5033 -1.5089 -2.3224
  173SAPS   C3519703   4.963   3.471   3.066 -0.3606 -0.1844 -0.0270
  173SAPS   H5X19704   4.888   3.402   3.111  0.3138 -1.2130 -0.4327
  173SAPS   H5Y19705   4.908   3.546   3.006  0.1857  1.9479  1.9864
  173SAPS   C3619706   5.049   3.546   3.173  0.5475  0.3833 -0.1715
  173SAPS   H6X19707   5.138   3.595   3.128  1.1787 -1.8563 -1.5614
  173SAPS   H6Y19708   5.092   3.464   3.234 -2.2368 -2.8511 -2.1835
  173SAPS   C3719709   4.973   3.654   3.251 -0.4881  0.7644 -1.1648
  173SAPS   H7X19710   4.892   3.610   3.313  2.4233 -1.6297  1.2635
  173SAPS   H7Y19711   4.928   3.725   3.178  1.2636  0.8172 -2.2589
  173SAPS   C3819712   5.063   3.731   3.349 -0.0405  0.0497 -0.5526
  173SAPS   H8X19713   5.143   3.777   3.287  1.9832 -1.6893  0.6150
  173SAPS   H8Y19714   5.103   3.651   3.415 -0.5036 -0.0912 -0.4435
  173SAPS   C3919715   4.984   3.832   3.428  0.3967 -1.0541 -0.5596
  173SAPS   H9X19716   4.877   3.803   3.429  0.1947 -0.3385 -0.6451
  173SAPS   H9Y19717   4.983   3.929   3.374  1.2039  0.5968  2.1609
  173SAPS  C31019718   5.027   3.854   3.573 -1.0881 -0.3685  0.0505
  173SAPS  H10X19719   5.137   3.870   3.579 -1.4879  3.6555 -0.2729
  173SAPS  H10Y19720   4.989   3.775   3.641 -2.9316  1.0599  0.7652
  173SAPS  C31119721   4.974   3.980   3.643  0.1537 -0.1701  0.0971
  173SAPS  H11X19722   4.865   3.987   3.619  0.3672 -2.2186 -1.8010
  173SAPS  H11Y19723   5.027   4.067   3.600 -1.2899  0.3530 -0.6931
  173SAPS  C31219724   4.975   3.984   3.790 -0.7025  0.3937 -0.1512
  173SAPS  H12X19725   5.072   3.955   3.837 -3.2484 -0.4091  5.3846
  173SAPS  H12Y19726   4.908   3.900   3.814  0.2184 -0.2847  0.1117
  173SAPS  C31319727   4.929   4.112   3.858  0.2436 -0.6285  0.1205
  173SAPS  H13X19728   4.827   4.134   3.821 -0.6855 -3.4442  0.7472
  173SAPS  H13Y19729   4.987   4.201   3.824 -1.6891  0.6669  0.0444
  173SAPS  C31419730   4.923   4.092   4.004 -0.0394 -0.3358 -0.1581
  173SAPS  H14X19731   4.898   3.990   4.040 -1.6121  0.0954  0.0396
  173SAPS  H14Y19732   4.841   4.155   4.044 -0.0048  0.8028 -1.7843
  173SAPS  C31519733   5.049   4.146   4.065  0.3412  0.2109 -0.2104
  173SAPS  H15X19734   5.053   4.255   4.044 -0.6510  0.0032 -1.5386
  173SAPS  H15Y19735   5.134   4.102   4.007  0.9858  1.4558 -0.2390
  173SAPS  C31619736   5.048   4.103   4.213 -0.5546  0.0726 -0.2384
  173SAPS  H16X19737   5.086   3.999   4.225 -2.7487 -0.7624 -0.1209
  173SAPS  H16Y19738   4.942   4.102   4.246 -0.8288 -1.2862 -1.0628
  173SAPS  C31719739   5.138   4.190   4.302  0.6185 -0.4472 -0.9118
  173SAPS  H17X19740   5.113   4.296   4.283  3.8528  0.7517  0.6831
  173SAPS  H17Y19741   5.242   4.166   4.270  0.6174 -0.2208 -1.0852
  173SAPS  C31819742   5.124   4.162   4.456 -0.6510 -0.3818 -0.7179
  173SAPS  H18X19743   5.040   4.219   4.502  0.7746  0.7918  0.5201
  173SAPS  H18Y19744   5.215   4.191   4.512 -1.0630 -0.6337  0.0997
  173SAPS  H18Z19745   5.114   4.052   4.471 -0.4606 -0.2599  0.3437
  174SAPS     N19746   1.078   2.609   2.363 -0.1452  0.7541 -0.0868
  174SAPS   HN119747   1.092   2.506   2.359 -0.6769  0.7108 -2.6913
  174SAPS   HN219748   1.165   2.652   2.326  0.1565 -0.3705 -0.7612
  174SAPS   HN319749   1.063   2.636   2.462  0.1493 -0.5255  0.3363
  174SAPS   C1219750   0.970   2.642   2.268  0.2933  0.3385 -0.0064
  174SAPS  H12A19751   0.954   2.749   2.269  0.6251  0.3885  1.1076
  174SAPS   C1319752   1.005   2.604   2.118  0.7831  0.5219 -0.0622
  174SAPS  O13A19753   1.105   2.535   2.099 -0.7627  0.3130 -0.1511
  174SAPS  O13B19754   0.926   2.625   2.023 -0.5457  0.4208 -0.2790
  174SAPS   C1119755   0.841   2.569   2.323 -0.6364 -0.3318  0.6526
  174SAPS  H11A19756   0.846   2.461   2.299  3.2646  0.4385 -3.2329
  174SAPS  H11B19757   0.765   2.599   2.248  0.9042  0.2955 -0.7324
  174SAPS     P19758   0.668   2.601   2.515  0.0246 -0.5764 -0.0143
  174SAPS   O1319759   0.584   2.500   2.450  0.6563 -0.5937 -0.6308
  174SAPS   O1419760   0.688   2.582   2.662 -0.1476  0.5618  0.0012
  174SAPS   O1219761   0.808   2.601   2.463 -0.2544  0.7331  0.5111
  174SAPS   O1119762   0.609   2.744   2.482 -0.1023 -0.5262 -0.2398
  174SAPS    C119763   0.687   2.861   2.486 -1.2641  0.0169 -0.1659
  174SAPS    HA19764   0.784   2.849   2.433 -1.9653 -1.5485 -1.1396
  174SAPS    HB19765   0.629   2.941   2.435 -0.4589  1.8256  1.6040
  174SAPS    C219766   0.725   2.913   2.624  0.2401 -0.0814 -0.0963
  174SAPS    HS19767   0.788   2.837   2.674 -1.9296 -0.3263  2.4535
  174SAPS   O2119768   0.602   2.939   2.692  0.0742  0.5362 -0.3718
  174SAPS   C2119769   0.590   2.909   2.821  0.5210  0.4002 -0.8143
  174SAPS   O2219770   0.689   2.872   2.889  0.2357  0.2727 -0.6084
  174SAPS   C2219771   0.448   2.929   2.870 -0.2002  0.4787  0.3918
  174SAPS   H2R19772   0.403   3.026   2.839 -0.1203 -0.3006 -2.4343
  174SAPS   H2S19773   0.394   2.855   2.807  2.8361 -0.1223 -1.6972
  174SAPS    C319774   0.809   3.043   2.623  0.0619 -0.2732 -0.1486
  174SAPS    HX19775   0.762   3.118   2.555  0.2999  0.6556  0.6828
  174SAPS    HY19776   0.909   3.032   2.575  0.4111  3.1740 -0.5184
  174SAPS   O3119777   0.827   3.103   2.754  0.4784 -0.1473 -0.0683
  174SAPS   C3119778   0.942   3.079   2.818 -1.2929 -0.1838  0.6649
  174SAPS   O3219779   1.039   3.024   2.766  0.5142  0.6100  0.2711
  174SAPS   C3219780   0.944   3.125   2.965  0.1768  0.0169 -0.2075
  174SAPS   H2X19781   0.852   3.187   2.968  0.9859  1.4932 -2.5596
  174SAPS   H2Y19782   1.043   3.173   2.978  0.8437 -1.5697  0.9586
  174SAPS   C2319783   0.416   2.903   3.023  0.5952  0.4969  0.0757
  174SAPS   H3R19784   0.421   3.003   3.072 -0.1100  2.0138 -2.7601
  174SAPS   H3S19785   0.499   2.846   3.070  3.1186  2.1176 -2.0934
  174SAPS   C2419786   0.289   2.822   3.056 -0.1255  0.2081  0.6563
  174SAPS   H4R19787   0.300   2.805   3.165  0.5203  1.1567  0.7505
  174SAPS   H4S19788   0.284   2.725   3.002 -0.1040 -0.5354  1.9364
  174SAPS   C2519789   0.171   2.916   3.032 -0.2616 -0.0381  0.1667
  174SAPS   H5R19790   0.156   2.948   2.928  0.4782  1.4219  0.4737
  174SAPS   C2619791   0.080   2.963   3.120  0.9525  0.7075  0.0619
  174SAPS   H6R19792   0.008   3.042   3.093  0.1476  1.1819  3.1801
  174SAPS   C2719793   0.085   2.941   3.266 -0.3735 -1.2751  0.1914
  174SAPS   H7R19794   0.017   3.001   3.331 -3.0203 -0.9264 -2.6873
  174SAPS   H7S19795   0.182   2.973   3.310 -0.8628  0.6599 -0.0359
  174SAPS   C2819796   0.042   2.799   3.299  0.2060  0.8298  0.3693
  174SAPS   H8R19797  -0.046   2.767   3.241  0.2887 -0.0643  0.7125
  174SAPS   C2919798   0.100   2.729   3.400  0.8525 -0.2019  0.6829
  174SAPS   H9R19799   0.060   2.627   3.411  1.0061 -0.1972  1.3586
  174SAPS  C21019800   0.214   2.767   3.488 -0.5605  0.4845  0.5950
  174SAPS  H10R19801   0.182   2.835   3.570  2.6081  0.7569  1.7450
  174SAPS  H10S19802   0.284   2.816   3.418 -0.7072 -2.1775 -1.6026
  174SAPS  C21119803   0.274   2.642   3.553  0.1066  0.6450  0.3896
  174SAPS  H11R19804   0.351   2.602   3.486 -0.8593  1.3685 -1.2178
  174SAPS  C21219805   0.240   2.584   3.670 -0.4460  0.8196 -0.4463
  174SAPS  H12R19806   0.294   2.492   3.697  1.3973  1.6896 -1.0093
  174SAPS  C21319807   0.137   2.641   3.764 -0.8847  0.9617 -0.4340
  174SAPS  H13R19808   0.078   2.557   3.807  1.5497 -0.0082  1.2498
  174SAPS  H13S19809   0.067   2.719   3.726 -0.7521  0.5650 -1.5254
  174SAPS  C21419810   0.222   2.691   3.879  0.5335  0.0796  0.6373
  174SAPS  H14R19811   0.327   2.716   3.857  1.2503 -2.8660  0.3662
  174SAPS  C21519812   0.176   2.722   4.000 -0.4749 -0.5423 -0.9346
  174SAPS  H15R19813   0.249   2.760   4.073 -3.0863 -0.0260  1.6092
  174SAPS  C21619814   0.032   2.715   4.057  0.8790  0.1961 -1.0805
  174SAPS  H16R19815  -0.041   2.673   3.985 -0.8740  1.3197 -0.0436
  174SAPS  H16S19816  -0.001   2.820   4.076 -2.8189 -1.1076  0.5212
  174SAPS  C21719817  -0.001   2.627   4.184  0.0040  0.4425  0.2569
  174SAPS  H17R19818   0.039   2.526   4.159  0.5531  1.4763 -3.7877
  174SAPS  H17S19819  -0.111   2.615   4.191 -0.0988  0.4177 -1.1935
  174SAPS  C21819820   0.059   2.685   4.314  0.5480  0.1998 -0.0022
  174SAPS  H18R19821   0.049   2.795   4.325  1.1093  0.2169  0.3554
  174SAPS  H18S19822   0.166   2.657   4.304  0.6788  0.9269 -0.8105
  174SAPS  C21919823   0.002   2.620   4.443  0.0312 -0.0144 -0.1158
  174SAPS  H19R19824  -0.107   2.638   4.431  0.2373 -0.0240 -2.4380
  174SAPS  H19S19825   0.052   2.684   4.519  0.3439  1.6828 -1.6860
  174SAPS  C22019826   0.026   2.470   4.450 -0.0739 -0.0658  0.2099
  174SAPS  H20R19827   0.126   2.439   4.485 -0.6535  0.5103  2.5602
  174SAPS  H20S19828  -0.003   2.427   4.352  0.2548  0.6324 -0.2002
  174SAPS  H20T19829  -0.046   2.417   4.516  0.1455 -0.9478 -0.2415
  174SAPS   C3319830   0.940   3.020   3.078  0.8402 -0.2852  0.6344
  174SAPS   H3X19831   1.021   2.949   3.052  0.0757 -0.5115 -1.3017
  174SAPS   H3Y19832   0.847   2.958   3.084  0.1197  0.7525  0.4379
  174SAPS   C3419833   0.976   3.083   3.213  0.1233  0.1222  0.0584
  174SAPS   H4X19834   0.882   3.115   3.263  0.3237  0.3267  0.3091
  174SAPS   H4Y19835   1.026   3.182   3.209  1.0843 -0.3714 -0.3892
  174SAPS   C3519836   1.068   2.993   3.296  0.1112  0.1924 -0.2716
  174SAPS   H5X19837   1.166   3.045   3.296 -0.6432  1.8806 -3.5852
  174SAPS   H5Y19838   1.087   2.892   3.253 -0.0023 -0.0967  0.3426
  174SAPS   C3619839   1.004   2.966   3.435  0.2603 -0.2057  0.8461
  174SAPS   H6X19840   0.920   2.895   3.414 -0.4655  1.0293 -0.5761
  174SAPS   H6Y19841   0.960   3.059   3.478 -1.8219 -0.3811 -0.7245
  174SAPS   C3719842   1.096   2.897   3.533  0.6838  0.0530  0.4625
  174SAPS   H7X19843   1.189   2.953   3.555  0.8137 -1.2179  3.8310
  174SAPS   H7Y19844   1.129   2.808   3.475 -0.0211  0.9222 -1.3143
  174SAPS   C3819845   1.034   2.854   3.662 -0.6519  0.1811  0.1789
  174SAPS   H8X19846   1.109   2.795   3.718  0.4019  1.0646 -0.2468
  174SAPS   H8Y19847   0.940   2.796   3.649  0.0698 -0.6105 -1.8293
  174SAPS   C3919848   1.010   2.977   3.746  0.4533 -0.7199  0.9824
  174SAPS   H9X19849   0.908   3.021   3.737  1.1109  0.4678 -1.5225
  174SAPS   H9Y19850   1.074   3.062   3.716 -0.8269 -0.8577 -2.5901
  174SAPS  C31019851   1.035   2.960   3.894 -0.1173 -0.2367  0.3736
  174SAPS  H10X19852   1.029   3.058   3.946  0.3099  1.8135 -3.1171
  174SAPS  H10Y19853   1.141   2.928   3.897  0.3103  1.0597 -0.1541
  174SAPS  C31119854   0.940   2.857   3.963 -0.0295 -0.9494 -0.4913
  174SAPS  H11X19855   0.944   2.765   3.901 -0.1044 -1.6848  0.5798
  174SAPS  H11Y19856   0.837   2.897   3.973  0.0993 -0.6876 -0.2079
  174SAPS  C31219857   1.005   2.823   4.100 -0.7321 -1.1651 -0.5506
  174SAPS  H12X19858   1.092   2.759   4.073 -1.2220 -2.2265  0.2779
  174SAPS  H12Y19859   0.939   2.754   4.157  0.7128 -0.9008  1.5373
  174SAPS  C31319860   1.030   2.931   4.205  0.6431  0.1024  0.4631
  174SAPS  H13X19861   0.939   2.991   4.223 -0.3556 -0.7934 -1.3719
  174SAPS  H13Y19862   1.093   3.004   4.150  2.0998 -0.5475  1.2081
  174SAPS  C31419863   1.101   2.876   4.332 -0.5580 -0.2628 -0.5391
  174SAPS  H14X19864   1.194   2.829   4.296  0.7451  3.1651 -2.0846
  174SAPS  H14Y19865   1.046   2.786   4.369  0.0779 -0.4308  0.0057
  174SAPS  C31519866   1.139   2.989   4.433  0.3684  0.2617  0.2701
  174SAPS  H15X19867   1.156   2.949   4.535  0.3991  0.8461  0.4917
  174SAPS  H15Y19868   1.048   3.052   4.442 -0.3754 -0.8088  0.5055
  174SAPS  C31619869   1.250   3.084   4.388  0.4258  0.4255  0.1606
  174SAPS  H16X19870   1.219   3.120   4.287 -3.3161  1.3280  1.4533
  174SAPS  H16Y19871   1.349   3.035   4.384 -0.5471 -1.7237  0.8385
  174SAPS  C31719872   1.281   3.197   4.494  0.2414  0.3785  0.5041
  174SAPS  H17X19873   1.382   3.238   4.473  0.4543 -0.3272  0.1418
  174SAPS  H17Y19874   1.269   3.158   4.598  1.9401  0.0157  0.5929
  174SAPS  C31819875   1.175   3.312   4.494 -0.0717 -0.3883  0.1064
  174SAPS  H18X19876   1.080   3.256   4.487 -0.6310  0.5675 -0.1202
  174SAPS  H18Y19877   1.192   3.381   4.409  0.5426  2.0506  2.0746
  174SAPS  H18Z19878   1.167   3.360   4.594 -1.0369  2.2733 -1.1372
  175SAPS     N19879   4.355   2.007   2.230 -0.0202 -0.1861 -0.3484
  175SAPS   HN119880   4.366   2.097   2.280  0.1119  0.7562 -2.0136
  175SAPS   HN219881   4.256   1.979   2.220 -0.2575  0.4356  0.1932
  175SAPS   HN319882   4.399   1.927   2.281  0.6852  0.9444  0.8802
  175SAPS   C1219883   4.428   2.039   2.105 -0.3177 -0.1998 -0.3331
  175SAPS  H12A19884   4.416   1.943   2.056 -2.5224 -1.2217  1.9302
  175SAPS   C1319885   4.369   2.152   2.021  0.3490 -0.2113  0.1925
  175SAPS  O13A19886   4.273   2.217   2.076 -0.2056  0.8131  0.1462
  175SAPS  O13B19887   4.400   2.178   1.901 -0.8566 -0.1713  0.0692
  175SAPS   C1119888   4.581   2.057   2.143 -0.0670 -0.5422  0.2531
  175SAPS  H11A19889   4.584   2.128   2.229  0.3834 -0.3170  0.0545
  175SAPS  H11B19890   4.634   2.106   2.058  0.2144  2.6728  2.1153
  175SAPS     P19891   4.727   1.846   2.075 -0.0615 -0.6588 -0.3306
  175SAPS   O1319892   4.648   1.806   1.959  0.0631 -0.8878  0.0420
  175SAPS   O1419893   4.858   1.915   2.049  0.1097  0.5169  0.3388
  175SAPS   O1219894   4.644   1.934   2.183  0.4181 -0.5269 -0.2642
  175SAPS   O1119895   4.758   1.721   2.160 -0.2739  0.0223 -0.2082
  175SAPS    C119896   4.661   1.620   2.193  0.2973  0.2721 -0.2611
  175SAPS    HA19897   4.601   1.599   2.102  0.0117  1.5715 -0.3885
  175SAPS    HB19898   4.711   1.537   2.247  0.6001  1.0848  0.7377
  175SAPS    C219899   4.567   1.674   2.300 -0.2684 -0.1859 -0.5137
  175SAPS    HS19900   4.513   1.761   2.257  1.3401  0.0877 -2.0959
  175SAPS   O2119901   4.648   1.715   2.414 -0.0773 -0.7299 -0.0295
  175SAPS   C2119902   4.609   1.819   2.480  0.2570  0.7116 -0.1567
  175SAPS   O2219903   4.508   1.886   2.455 -0.7061  0.2701  0.1535
  175SAPS   C2219904   4.702   1.846   2.600 -0.2830  0.0524 -1.4149
  175SAPS   H2R19905   4.692   1.761   2.671 -1.0738 -0.2143 -1.8488
  175SAPS   H2S19906   4.807   1.859   2.565  0.8373 -1.0252  1.1891
  175SAPS    C319907   4.483   1.557   2.350  0.4244  0.1355 -0.3625
  175SAPS    HX19908   4.559   1.483   2.382 -0.2317 -0.4953 -0.2301
  175SAPS    HY19909   4.420   1.515   2.268  0.6298  0.6169 -0.7788
  175SAPS   O3119910   4.399   1.599   2.466  0.6860  1.1096 -0.0340
  175SAPS   C3119911   4.293   1.670   2.438 -0.7959  1.0201  0.3712
  175SAPS   O3219912   4.262   1.710   2.326  0.2318  0.5958  0.5661
  175SAPS   C3219913   4.218   1.697   2.563 -0.0330 -0.2179  0.3665
  175SAPS   H2X19914   4.275   1.649   2.646  1.4117 -1.8284 -1.4540
  175SAPS   H2Y19915   4.119   1.648   2.552 -0.1835  0.2229 -0.3193
  175SAPS   C2319916   4.665   1.971   2.686  0.6215 -0.0464  0.4640
  175SAPS   H3R19917   4.643   2.052   2.613  0.7297  2.0969  2.6575
  175SAPS   H3S19918   4.743   2.007   2.757  1.0910 -0.8633  0.3663
  175SAPS   C2419919   4.539   1.948   2.773 -0.1441 -0.1991 -0.4863
  175SAPS   H4R19920   4.466   1.892   2.710  0.3963 -0.6725 -0.7047
  175SAPS   H4S19921   4.483   2.040   2.800  1.5583  0.5953  0.5243
  175SAPS   C2519922   4.565   1.865   2.895 -0.2797  0.3854 -0.0111
  175SAPS   H5R19923   4.551   1.756   2.881 -0.2102  0.0256  2.2806
  175SAPS   C2619924   4.588   1.910   3.018 -0.5684 -0.5149  0.2160
  175SAPS   H6R19925   4.608   1.835   3.096  0.4270 -2.0730 -1.4388
  175SAPS   C2719926   4.610   2.054   3.059  0.4205  0.6197  0.6269
  175SAPS   H7R19927   4.516   2.080   3.112  0.8475 -1.7372  2.7783
  175SAPS   H7S19928   4.621   2.119   2.970  0.5017 -0.5630 -0.2525
  175SAPS   C2819929   4.727   2.067   3.149  0.2990  0.0428 -0.4416
  175SAPS   H8R19930   4.824   2.090   3.102  1.0454  0.0280  1.0213
  175SAPS   C2919931   4.722   2.054   3.284 -0.2788 -0.1776 -0.4518
  175SAPS   H9R19932   4.817   2.059   3.340 -1.1646 -1.0850  1.1917
  175SAPS  C21019933   4.599   2.008   3.365  0.5793 -0.4015  0.2230
  175SAPS  H10R19934   4.628   1.918   3.423 -1.1395 -1.2404 -0.1749
  175SAPS  H10S19935   4.524   1.958   3.301  0.1753 -0.8413  1.0288
  175SAPS  C21119936   4.544   2.116   3.450 -0.0118 -0.8791 -0.1672
  175SAPS  H11R19937   4.509   2.208   3.400 -0.1494 -0.1617  1.2067
  175SAPS  C21219938   4.538   2.123   3.586  0.4304  1.0341 -0.4533
  175SAPS  H12R19939   4.508   2.218   3.631  3.0196  1.7778 -0.1246
  175SAPS  C21319940   4.591   2.024   3.685 -0.1443 -0.3573  0.0841
  175SAPS  H13R19941   4.571   1.924   3.640 -1.4406  1.0589 -2.7360
  175SAPS  H13S19942   4.534   2.026   3.780  0.4914 -0.6674  0.4819
  175SAPS  C21419943   4.742   2.033   3.709  0.0216 -0.0235 -0.9636
  175SAPS  H14R19944   4.809   2.077   3.633 -0.1543  1.8997 -0.0738
  175SAPS  C21519945   4.792   2.014   3.833 -0.6504 -0.6412  0.3127
  175SAPS  H15R19946   4.901   2.013   3.842 -0.6793  0.5408  0.9519
  175SAPS  C21619947   4.726   1.973   3.959  0.4902  0.8134 -0.1339
  175SAPS  H16R19948   4.616   1.989   3.957  0.5851  1.4535 -0.4677
  175SAPS  H16S19949   4.761   2.027   4.049  2.3445  2.9044 -1.9856
  175SAPS  C21719950   4.765   1.822   3.969 -0.1111  0.4283  0.1809
  175SAPS  H17R19951   4.876   1.826   3.983  0.1225  1.6494 -1.6331
  175SAPS  H17S19952   4.746   1.759   3.879  0.5830 -1.2320  1.1583
  175SAPS  C21819953   4.695   1.753   4.081 -0.1599 -0.0840 -0.2314
  175SAPS  H18R19954   4.586   1.744   4.061 -0.5897  2.0840  0.8773
  175SAPS  H18S19955   4.688   1.817   4.172 -2.7564 -0.7768  0.1257
  175SAPS  C21919956   4.762   1.620   4.125 -0.3085  0.2822  0.6028
  175SAPS  H19R19957   4.870   1.639   4.139 -0.2930  0.6246  0.0470
  175SAPS  H19S19958   4.764   1.553   4.036  1.1083  1.1765 -0.0703
  175SAPS  C22019959   4.699   1.536   4.241  0.0928  0.0044  0.6327
  175SAPS  H20R19960   4.709   1.606   4.327  0.5514  1.7418 -0.7719
  175SAPS  H20S19961   4.753   1.439   4.249 -1.9582 -1.3469 -0.8306
  175SAPS  H20T19962   4.592   1.521   4.214 -0.6044  1.5724  2.3088
  175SAPS   C3319963   4.183   1.843   2.586  0.5001 -0.1387 -0.3061
  175SAPS   H3X19964   4.116   1.881   2.506 -0.3863  1.7407  1.2554
  175SAPS   H3Y19965   4.275   1.904   2.578 -0.2038  1.0187  0.2193
  175SAPS   C3419966   4.116   1.860   2.721  0.4439  0.8258  0.0701
  175SAPS   H4X19967   4.037   1.784   2.739  0.5201 -0.2464 -3.2719
  175SAPS   H4Y19968   4.070   1.961   2.711 -0.8196  0.2584 -0.0335
  175SAPS   C3519969   4.211   1.866   2.841  0.4346  0.5711  0.4228
  175SAPS   H5X19970   4.270   1.960   2.841  1.0354  0.2700 -1.9401
  175SAPS   H5Y19971   4.284   1.785   2.819 -0.3775  0.1279 -0.7417
  175SAPS   C3619972   4.133   1.846   2.971 -0.1729 -0.2334 -0.6454
  175SAPS   H6X19973   4.081   1.748   2.963 -0.7488 -0.0931  1.0908
  175SAPS   H6Y19974   4.045   1.915   2.972 -0.3861 -0.4849 -1.3223
  175SAPS   C3719975   4.213   1.859   3.100  0.3243  0.8401  1.0840
  175SAPS   H7X19976   4.255   1.961   3.105  1.1943  0.5841 -0.5116
  175SAPS   H7Y19977   4.301   1.792   3.098 -0.9995 -0.9814 -0.6998
  175SAPS   C3819978   4.129   1.843   3.236  0.5532  0.1272  0.2025
  175SAPS   H8X19979   4.093   1.738   3.237  0.2294  0.2009 -1.2158
  175SAPS   H8Y19980   4.045   1.915   3.247  2.4336  2.5623 -0.5851
  175SAPS   C3919981   4.215   1.879   3.358  0.3768 -0.5872  0.3739
  175SAPS   H9X19982   4.249   1.985   3.359 -0.0409 -0.4326 -0.3838
  175SAPS   H9Y19983   4.301   1.808   3.357  0.8507 -0.0293 -0.3189
  175SAPS  C31019984   4.147   1.854   3.489 -0.5598 -0.0180 -0.0924
  175SAPS  H10X19985   4.073   1.771   3.484 -0.9221  0.2903  0.1004
  175SAPS  H10Y19986   4.076   1.937   3.508 -1.2069 -0.5338 -0.1836
  175SAPS  C31119987   4.244   1.862   3.613 -0.6674 -0.3619  0.6186
  175SAPS  H11X19988   4.302   1.956   3.620 -3.1710  1.2184  1.2006
  175SAPS  H11Y19989   4.306   1.771   3.598 -0.0566  0.2544 -0.8004
  175SAPS  C31219990   4.168   1.848   3.746  0.0766  0.3563  0.0491
  175SAPS  H12X19991   4.156   1.738   3.755 -2.0902  0.3633 -1.7266
  175SAPS  H12Y19992   4.064   1.881   3.765 -0.2627 -0.3837 -0.4623
  175SAPS  C31319993   4.245   1.919   3.864  0.1648  0.2132  0.4526
  175SAPS  H13X19994   4.250   2.028   3.843 -2.8556  0.2079 -0.8355
  175SAPS  H13Y19995   4.350   1.887   3.882  0.2725  0.9096  1.1280
  175SAPS  C31419996   4.184   1.916   4.002  0.4521 -0.1615 -0.1972
  175SAPS  H14X19997   4.169   1.816   4.048 -0.8182  0.6895  1.3474
  175SAPS  H14Y19998   4.087   1.968   3.990  0.6975  0.0994 -1.0681
  175SAPS  C31519999   4.267   1.995   4.103  0.5424 -0.5861 -0.7341
  175SAPS  H15X20000   4.290   2.089   4.048 -0.6700 -0.0533 -0.3554
  175SAPS  H15Y20001   4.363   1.939   4.107  1.3541  0.4459 -3.4137
  175SAPS  C31620002   4.186   2.007   4.222  0.1975 -0.3274 -0.0036
  175SAPS  H16X20003   4.173   1.905   4.265 -0.1773 -0.1991  0.1876
  175SAPS  H16Y20004   4.085   2.036   4.187  0.5869 -0.3645 -1.2123
  175SAPS  C31720005   4.243   2.099   4.326  0.0633 -0.3394 -1.0781
  175SAPS  H17X20006   4.256   2.204   4.292  5.1619 -0.3323 -0.0012
  175SAPS  H17Y20007   4.340   2.062   4.366 -0.4180  0.3774  0.8486
  175SAPS  C31820008   4.150   2.127   4.450 -0.1283 -0.1765  0.4822
  175SAPS  H18X20009   4.108   2.033   4.492  1.7917 -1.0817  0.4724
  175SAPS  H18Y20010   4.069   2.203   4.445  0.8044  0.8951  1.1304
  175SAPS  H18Z20011   4.220   2.164   4.528 -1.8289  0.4753  1.7819
  176SAPS     N20012   3.345   1.126   1.977 -0.4230  0.3584  0.4441
  176SAPS   HN120013   3.441   1.159   2.002  0.0453 -1.2019  0.7971
  176SAPS   HN220014   3.295   1.204   1.930 -0.8164 -0.6321 -0.8027
  176SAPS   HN320015   3.293   1.112   2.067  0.9242 -0.3094  1.1530
  176SAPS   C1220016   3.362   0.999   1.900  0.4297 -0.2706  0.7529
  176SAPS  H12A20017   3.264   0.956   1.891  0.9122 -1.2431  0.0019
  176SAPS   C1320018   3.441   1.006   1.767  0.3073  0.5455 -0.4403
  176SAPS  O13A20019   3.482   1.116   1.724 -1.0361  0.7777 -0.1710
  176SAPS  O13B20020   3.437   0.907   1.689 -0.0918 -0.0283  0.2176
  176SAPS   C1120021   3.427   0.886   1.984 -0.3729  0.0058 -0.2753
  176SAPS  H11A20022   3.537   0.891   1.996 -0.5329 -0.9208  2.1260
  176SAPS  H11B20023   3.412   0.794   1.924 -3.2007  0.4475 -0.3798
  176SAPS     P20024   3.409   0.756   2.203  0.5116  0.1615 -0.0912
  176SAPS   O1320025   3.341   0.628   2.169  0.0166 -0.1534  0.2218
  176SAPS   O1420026   3.555   0.753   2.194 -0.4986  0.0504 -0.0494
  176SAPS   O1220027   3.352   0.878   2.108 -0.0048 -0.2294  0.2822
  176SAPS   O1120028   3.385   0.802   2.356  0.4782 -0.4093  0.4602
  176SAPS    C120029   3.268   0.872   2.405 -0.0685 -0.1944 -0.7760
  176SAPS    HA20030   3.280   0.978   2.376  1.3380  0.4475  1.8657
  176SAPS    HB20031   3.169   0.838   2.367 -0.5870  0.8702 -0.4106
  176SAPS    C220032   3.281   0.872   2.562 -0.5119 -0.5113 -0.4715
  176SAPS    HS20033   3.362   0.942   2.592 -0.3721 -1.3691  1.2938
  176SAPS   O2120034   3.301   0.736   2.603 -0.1021  0.3755 -1.3362
  176SAPS   C2120035   3.424   0.689   2.613  0.4175 -0.1728 -0.3892
  176SAPS   O2220036   3.527   0.753   2.588  0.2902 -0.6675 -0.4636
  176SAPS   C2220037   3.420   0.544   2.654  0.1405  0.5529 -0.0889
  176SAPS   H2R20038   3.337   0.530   2.726  0.7614  1.9710  0.9377
  176SAPS   H2S20039   3.411   0.486   2.559  2.3800 -0.0879  0.0410
  176SAPS    C320040   3.152   0.929   2.622  0.1678 -0.1154 -0.8309
  176SAPS    HX20041   3.075   0.861   2.581 -2.1757  0.5727  2.1038
  176SAPS    HY20042   3.130   1.030   2.582 -3.2255 -0.6438 -0.6004
  176SAPS   O3120043   3.179   0.945   2.770  0.2580 -0.3669 -0.2059
  176SAPS   C3120044   3.126   0.843   2.843  0.5716 -0.1088 -0.1984
  176SAPS   O3220045   3.046   0.765   2.804 -0.4848 -0.0934 -0.0783
  176SAPS   C3220046   3.187   0.846   2.986  0.3023 -0.0828 -0.1833
  176SAPS   H2X20047   3.190   0.953   3.015 -0.3159 -0.1540  0.1844
  176SAPS   H2Y20048   3.288   0.801   2.976  1.3271  2.0518 -0.0071
  176SAPS   C2320049   3.547   0.490   2.724 -0.2691 -0.2490  0.1100
  176SAPS   H3R20050   3.635   0.528   2.668 -0.7870  1.3501  0.3366
  176SAPS   H3S20051   3.538   0.379   2.727  0.4633 -0.3044  2.2319
  176SAPS   C2420052   3.559   0.548   2.867 -0.3170  0.4589  0.1056
  176SAPS   H4R20053   3.463   0.519   2.914 -0.0330  1.5076  1.3835
  176SAPS   H4S20054   3.563   0.659   2.864 -1.4889  0.5099  0.1684
  176SAPS   C2520055   3.690   0.499   2.936 -0.0092 -0.8117  0.7778
  176SAPS   H5R20056   3.779   0.487   2.872  1.5808 -0.7860  2.8634
  176SAPS   C2620057   3.692   0.495   3.070  0.6687 -0.2641 -0.3272
  176SAPS   H6R20058   3.786   0.464   3.118 -1.3075 -3.7126  1.8002
  176SAPS   C2720059   3.589   0.533   3.175  0.1612 -0.5224 -0.8096
  176SAPS   H7R20060   3.494   0.555   3.122  0.6826  3.3859 -0.3649
  176SAPS   H7S20061   3.612   0.633   3.216  0.3035 -0.4473 -1.0693
  176SAPS   C2820062   3.598   0.447   3.304  0.3043 -0.3294 -0.1092
  176SAPS   H8R20063   3.538   0.355   3.305  0.5475 -0.4849  0.5294
  176SAPS   C2920064   3.658   0.471   3.419 -0.1486  0.6198 -0.1232
  176SAPS   H9R20065   3.647   0.391   3.493  2.4875  1.0823  0.8827
  176SAPS  C21020066   3.747   0.588   3.470 -0.2915 -0.6376  0.7299
  176SAPS  H10R20067   3.741   0.602   3.580  0.6403 -0.0098  0.7126
  176SAPS  H10S20068   3.701   0.680   3.428  1.1899 -0.3731 -0.3867
  176SAPS  C21120069   3.893   0.566   3.444  0.2080  0.4024  0.8618
  176SAPS  H11R20070   3.922   0.467   3.407 -0.3187  0.6915 -0.3821
  176SAPS  C21220071   3.990   0.658   3.469 -0.3940  0.9151  1.1728
  176SAPS  H12R20072   4.092   0.633   3.436 -1.2664  0.4244 -1.3174
  176SAPS  C21320073   3.974   0.789   3.540  0.3839 -1.0802 -1.0742
  176SAPS  H13R20074   3.868   0.823   3.541  1.2053  1.9009  1.3430
  176SAPS  H13S20075   4.039   0.862   3.487 -0.4404 -0.0050 -0.6662
  176SAPS  C21420076   4.013   0.788   3.682 -0.0933 -0.7608 -0.0292
  176SAPS  H14R20077   3.984   0.692   3.726  0.6469 -1.9047 -1.8725
  176SAPS  C21520078   4.060   0.886   3.761 -0.1547 -0.3668 -0.1333
  176SAPS  H15R20079   4.076   0.860   3.866 -1.0531 -0.5431 -0.0278
  176SAPS  C21620080   4.081   1.030   3.729  0.6131  0.2412  0.3703
  176SAPS  H16R20081   4.061   1.058   3.623 -0.4632 -1.1255  0.1803
  176SAPS  H16S20082   4.188   1.055   3.748  1.0040 -2.2514  1.8973
  176SAPS  C21720083   4.004   1.128   3.818 -0.2356 -0.5572 -0.5964
  176SAPS  H17R20084   4.010   1.102   3.926  3.3251  0.9761 -0.2888
  176SAPS  H17S20085   3.895   1.127   3.795 -0.1858 -2.4065 -0.8885
  176SAPS  C21820086   4.057   1.268   3.819  0.6053  0.0559  0.7993
  176SAPS  H18R20087   4.065   1.302   3.713 -1.4011 -0.3894  0.4634
  176SAPS  H18S20088   4.156   1.268   3.870  0.7574 -1.4501  0.5549
  176SAPS  C21920089   3.961   1.368   3.890 -0.3977  0.4289  0.8526
  176SAPS  H19R20090   3.855   1.355   3.858 -1.2008  0.5204  3.2945
  176SAPS  H19S20091   3.979   1.471   3.854 -1.7370  0.3732 -0.0866
  176SAPS  C22020092   3.966   1.359   4.043 -0.4387 -0.6987  0.0131
  176SAPS  H20R20093   3.911   1.448   4.079  2.1650  1.3060 -0.6420
  176SAPS  H20S20094   4.070   1.359   4.080 -0.3926  0.5746 -0.0690
  176SAPS  H20T20095   3.915   1.264   4.072 -0.6776 -0.0640  1.7860
  176SAPS   C3320096   3.106   0.773   3.092 -0.1119 -0.2594  0.9172
  176SAPS   H3X20097   3.082   0.669   3.061  1.5647 -0.0259 -1.3464
  176SAPS   H3Y20098   3.007   0.822   3.105 -1.2041 -1.8620 -0.8266
  176SAPS   C3420099   3.172   0.760   3.221 -0.3537 -0.1212 -0.4052
  176SAPS   H4X20100   3.233   0.668   3.230 -1.2089 -0.8762 -1.9335
  176SAPS   H4Y20101   3.102   0.749   3.306 -0.3198 -0.7624 -0.4613
  176SAPS   C3520102   3.252   0.886   3.260  0.3239 -0.5557  0.3601
  176SAPS   H5X20103   3.183   0.972   3.242  0.0892 -0.6578  0.7552
  176SAPS   H5Y20104   3.348   0.901   3.206  0.3427  1.7054  0.9303
  176SAPS   C3620105   3.281   0.883   3.407 -0.2969  0.4907 -0.3257
  176SAPS   H6X20106   3.333   0.788   3.432 -0.4535  0.2343 -0.9504
  176SAPS   H6Y20107   3.190   0.892   3.471  0.5974 -0.0565  1.0719
  176SAPS   C3720108   3.362   1.001   3.441  0.1220 -0.2594  0.7477
  176SAPS   H7X20109   3.298   1.092   3.434  1.7030  0.8344 -0.0241
  176SAPS   H7Y20110   3.443   1.023   3.369 -0.3288  2.7598  1.0352
  176SAPS   C3820111   3.439   0.984   3.568 -0.0330 -0.2968  0.5494
  176SAPS   H8X20112   3.517   0.907   3.552 -0.0842 -0.5815  1.5854
  176SAPS   H8Y20113   3.372   0.944   3.647 -0.2212  1.1421  1.1491
  176SAPS   C3920114   3.512   1.107   3.611  0.7261 -0.3991 -0.3381
  176SAPS   H9X20115   3.441   1.186   3.642 -0.4602 -1.6522  0.2472
  176SAPS   H9Y20116   3.572   1.154   3.531  2.1735 -1.3782  0.1310
  176SAPS  C31020117   3.616   1.090   3.723 -0.0880  0.3686  0.7068
  176SAPS  H10X20118   3.661   1.185   3.760  1.6245 -1.2440  3.1219
  176SAPS  H10Y20119   3.697   1.038   3.668 -1.6452 -0.7529 -0.6179
  176SAPS  C31120120   3.577   1.013   3.843  0.0930 -0.1361 -0.1585
  176SAPS  H11X20121   3.546   0.910   3.815  1.3330 -0.7163  0.4907
  176SAPS  H11Y20122   3.503   1.064   3.908  0.0660  1.6615 -1.5361
  176SAPS  C31220123   3.705   0.977   3.920 -0.6656 -0.2345  0.4857
  176SAPS  H12X20124   3.746   1.079   3.940  0.4728 -0.5990  0.0931
  176SAPS  H12Y20125   3.776   0.918   3.859  1.9364  2.1289  0.9934
  176SAPS  C31320126   3.670   0.908   4.048 -0.2513  0.1467  0.0817
  176SAPS  H13X20127   3.627   0.809   4.025 -0.3853  0.1927  0.1361
  176SAPS  H13Y20128   3.596   0.973   4.099 -2.1563 -0.5776 -1.6281
  176SAPS  C31420129   3.788   0.875   4.149 -0.8534 -0.0132  0.5287
  176SAPS  H14X20130   3.830   0.973   4.179  1.7248 -1.2524  1.2229
  176SAPS  H14Y20131   3.862   0.819   4.088 -1.0693 -0.2290  0.4607
  176SAPS  C31520132   3.748   0.793   4.269 -0.0895  1.1385 -0.7019
  176SAPS  H15X20133   3.691   0.850   4.346  0.6345 -1.8264  2.2452
  176SAPS  H15Y20134   3.838   0.754   4.321 -2.6946 -3.5016  0.8834
  176SAPS  C31620135   3.663   0.658   4.248  0.1028 -0.5349  0.7203
  176SAPS  H16X20136   3.568   0.698   4.209 -0.0966  0.6178  2.3025
  176SAPS  H16Y20137   3.650   0.610   4.348  0.0571 -0.0675  0.9449
  176SAPS  C31720138   3.728   0.546   4.162  0.6590  0.0012  0.8600
  176SAPS  H17X20139   3.744   0.572   4.055  0.1440 -0.0377  0.7711
  176SAPS  H17Y20140   3.665   0.455   4.167  1.1790 -0.4575 -0.4838
  176SAPS  C31820141   3.870   0.513   4.208  0.5754 -0.0121 -0.2549
  176SAPS  H18X20142   3.931   0.602   4.184 -1.1697  1.1957 -0.4164
  176SAPS  H18Y20143   3.910   0.421   4.160 -1.0068 -0.8780 -0.0012
  176SAPS  H18Z20144   3.861   0.493   4.316 -0.7355  0.2005 -0.3109
  177SAPS     N20145   5.112   3.004   2.284  0.7645  0.4881  0.7632
  177SAPS   HN120146   5.134   3.103   2.259 -2.1932  0.9663 -0.2965
  177SAPS   HN220147   5.011   2.984   2.266  1.6475 -1.6449 -3.1292
  177SAPS   HN320148   5.147   2.992   2.381  0.6728  0.0160  0.7402
  177SAPS   C1220149   5.199   2.908   2.208  0.1191 -0.8387  0.6515
  177SAPS  H12A20150   5.176   2.808   2.243 -2.3484 -0.3955  0.5052
  177SAPS   C1320151   5.171   2.904   2.058 -0.1506 -0.2071 -0.0634
  177SAPS  O13A20152   5.096   2.995   2.013 -0.3074 -0.4520 -0.2002
  177SAPS  O13B20153   5.233   2.832   1.981 -0.0052 -0.0262  0.5796
  177SAPS   C1120154   5.357   2.943   2.233  0.2120  0.0128  0.3137
  177SAPS  H11A20155   5.386   3.038   2.183  1.8336  0.1197  1.3670
  177SAPS  H11B20156   5.422   2.865   2.188  2.7990  1.7198  0.8354
  177SAPS     P20157   5.397   2.829   2.474 -0.2145  0.2044  0.3081
  177SAPS   O1320158   5.263   2.767   2.491 -0.3202 -0.8765  0.0891
  177SAPS   O1420159   5.506   2.738   2.430  0.0886 -0.1482 -0.6427
  177SAPS   O1220160   5.394   2.954   2.370 -0.1425 -0.0152 -0.4081
  177SAPS   O1120161   5.445   2.896   2.608  0.4724  0.5465  0.3527
  177SAPS    C120162   5.574   2.937   2.637  0.1674 -0.8848  0.4010
  177SAPS    HA20163   5.650   2.857   2.621  0.2467 -0.2565 -3.3953
  177SAPS    HB20164   5.609   3.024   2.577 -0.0769 -1.3464 -0.4368
  177SAPS    C220165   5.594   2.992   2.779  0.0322  0.2440  1.4783
  177SAPS    HS20166   5.700   3.018   2.798  0.3139  0.2734  0.0177
  177SAPS   O2120167   5.544   2.894   2.872 -0.5452  0.5023  0.0642
  177SAPS   C2120168   5.623   2.782   2.878  0.2503  0.5583 -0.3544
  177SAPS   O2220169   5.730   2.769   2.825 -0.3495  0.0680  0.4001
  177SAPS   C2220170   5.550   2.680   2.970  0.1883  0.0737  0.5798
  177SAPS   H2R20171   5.449   2.725   2.982  1.1447  3.1208 -1.4755
  177SAPS   H2S20172   5.550   2.578   2.926  0.0737  0.5687 -0.6008
  177SAPS    C320173   5.520   3.129   2.800 -0.1287  0.4663 -0.2193
  177SAPS    HX20174   5.416   3.107   2.770  0.9970 -3.6054 -1.8956
  177SAPS    HY20175   5.565   3.203   2.730 -1.7386  2.7530  1.0320
  177SAPS   O3120176   5.550   3.186   2.933  0.2095 -0.0942  0.7242
  177SAPS   C3120177   5.468   3.158   3.035  1.0927 -0.6939 -0.6185
  177SAPS   O3220178   5.375   3.076   3.020 -0.4926  0.0973 -0.1421
  177SAPS   C3220179   5.516   3.214   3.168  0.1109 -0.1507  0.2433
  177SAPS   H2X20180   5.611   3.271   3.159  0.7602 -0.8770  1.9654
  177SAPS   H2Y20181   5.541   3.137   3.244  1.1663 -0.5060 -0.4500
  177SAPS   C2320182   5.626   2.664   3.103 -0.7244 -0.0404  0.2847
  177SAPS   H3R20183   5.732   2.637   3.083 -0.2222  2.7382 -1.4490
  177SAPS   H3S20184   5.568   2.591   3.163 -0.8552 -1.5910 -1.6412
  177SAPS   C2420185   5.627   2.795   3.192 -0.8546  0.9064 -0.2463
  177SAPS   H4R20186   5.675   2.881   3.140 -0.9801  0.2797 -1.4584
  177SAPS   H4S20187   5.680   2.776   3.287 -1.4524  0.6683  0.0435
  177SAPS   C2520188   5.486   2.842   3.218  0.5355  0.5353 -0.1018
  177SAPS   H5R20189   5.435   2.882   3.128  1.0345 -1.0796 -1.1497
  177SAPS   C2620190   5.419   2.828   3.331 -0.0980  0.2843  0.1273
  177SAPS   H6R20191   5.316   2.868   3.340 -0.4169 -0.5282  0.1354
  177SAPS   C2720192   5.477   2.775   3.457 -0.5055 -0.3416  0.5676
  177SAPS   H7R20193   5.558   2.702   3.440  1.2823  1.4564  0.9260
  177SAPS   H7S20194   5.405   2.708   3.509 -1.3066  0.3398  0.3654
  177SAPS   C2820195   5.535   2.875   3.554 -0.6718  0.2862 -0.2000
  177SAPS   H8R20196   5.577   2.966   3.509 -2.6582  0.2471 -2.3073
  177SAPS   C2920197   5.518   2.869   3.690 -0.3584 -0.2295  0.1259
  177SAPS   H9R20198   5.555   2.954   3.749  0.4872  0.5869 -1.5183
  177SAPS  C21020199   5.447   2.753   3.762 -0.3470 -0.0962  0.1481
  177SAPS  H10R20200   5.476   2.654   3.721 -2.8394 -1.6686  1.9078
  177SAPS  H10S20201   5.337   2.760   3.749 -0.6651 -2.8154  0.7380
  177SAPS  C21120202   5.485   2.758   3.909  0.3172 -0.1164 -0.0152
  177SAPS  H11R20203   5.416   2.809   3.978  0.7233 -0.7093  0.8566
  177SAPS  C21220204   5.605   2.712   3.958 -0.2286 -0.5688 -0.0245
  177SAPS  H12R20205   5.625   2.729   4.065 -0.1692 -0.8839  0.0150
  177SAPS  C21320206   5.718   2.657   3.873 -0.0432 -0.6905  0.0550
  177SAPS  H13R20207   5.703   2.674   3.764  1.3479 -0.2533 -0.0833
  177SAPS  H13S20208   5.706   2.548   3.886  0.2489 -0.6824  0.3888
  177SAPS  C21420209   5.864   2.686   3.904 -0.5689 -0.5506 -0.6227
  177SAPS  H14R20210   5.882   2.747   3.994 -0.8930 -0.0200 -0.9101
  177SAPS  C21520211   5.967   2.658   3.822  0.0964 -0.9787  0.2432
  177SAPS  H15R20212   6.068   2.692   3.846 -1.5771  2.3984  3.5744
  177SAPS  C21620213   5.952   2.577   3.693  0.2926 -0.0313  0.2294
  177SAPS  H16R20214   5.848   2.549   3.665  0.0148  0.2675  0.9184
  177SAPS  H16S20215   6.021   2.492   3.710 -0.5569 -0.8497 -0.2839
  177SAPS  C21720216   6.002   2.666   3.578 -0.1710  0.1693  0.5621
  177SAPS  H17R20217   6.075   2.737   3.621 -0.7495  0.6742  0.7323
  177SAPS  H17S20218   5.923   2.725   3.527  1.2767  1.2689 -0.4496
  177SAPS  C21820219   6.057   2.587   3.462  0.2151  0.7688 -0.8771
  177SAPS  H18R20220   5.978   2.518   3.423  0.8031  0.3930 -1.4256
  177SAPS  H18S20221   6.140   2.520   3.494 -0.3664  0.4459 -0.0008
  177SAPS  C21920222   6.116   2.670   3.356 -0.5220 -0.6533 -0.0708
  177SAPS  H19R20223   6.215   2.707   3.390 -0.0893 -0.1005 -1.8284
  177SAPS  H19S20224   6.065   2.764   3.322 -0.2485  0.6621  2.8607
  177SAPS  C22020225   6.132   2.594   3.225  0.0014 -0.3805  0.0160
  177SAPS  H20R20226   6.030   2.573   3.185  0.5849 -0.2763 -1.6346
  177SAPS  H20S20227   6.182   2.497   3.244 -1.1434 -1.0019 -0.0822
  177SAPS  H20T20228   6.185   2.655   3.148  0.7866  0.4901  1.1965
  177SAPS   C3320229   5.407   3.304   3.238  0.0439 -0.0911  0.0127
  177SAPS   H3X20230   5.305   3.266   3.219 -0.0731 -1.0702  2.3390
  177SAPS   H3Y20231   5.417   3.408   3.198  3.6850 -0.1908  0.2982
  177SAPS   C3420232   5.437   3.328   3.388  0.4929  0.4474  0.8457
  177SAPS   H4X20233   5.536   3.373   3.409  0.7760 -0.2044  0.9366
  177SAPS   H4Y20234   5.443   3.221   3.416 -2.6849 -0.0906 -0.1129
  177SAPS   C3520235   5.328   3.403   3.469 -0.1943  0.2664 -0.1529
  177SAPS   H5X20236   5.229   3.353   3.465  0.1453 -0.6847  2.0371
  177SAPS   H5Y20237   5.323   3.509   3.434  1.6407  0.5958  0.4660
  177SAPS   C3620238   5.356   3.425   3.618 -0.2377  0.3668  0.1744
  177SAPS   H6X20239   5.461   3.462   3.614 -1.4290  4.1310 -0.1728
  177SAPS   H6Y20240   5.359   3.326   3.668 -4.1788 -0.2325 -0.4834
  177SAPS   C3720241   5.266   3.524   3.687  0.0988  0.1610  0.5427
  177SAPS   H7X20242   5.165   3.478   3.683  0.0276  0.1070  2.3684
  177SAPS   H7Y20243   5.263   3.619   3.629  0.5447 -1.1239 -1.6861
  177SAPS   C3820244   5.303   3.550   3.832  0.3574  0.7452  0.6580
  177SAPS   H8X20245   5.411   3.571   3.821  1.1416 -3.3005 -1.2359
  177SAPS   H8Y20246   5.294   3.456   3.891 -1.5945  1.5830  1.8004
  177SAPS   C3920247   5.226   3.661   3.898 -0.2433 -0.0270  0.4350
  177SAPS   H9X20248   5.119   3.630   3.896  0.2078 -1.6516 -0.1083
  177SAPS   H9Y20249   5.243   3.752   3.836  1.3348 -0.1533  0.6397
  177SAPS  C31020250   5.279   3.696   4.039 -0.2747 -0.0443 -1.0364
  177SAPS  H10X20251   5.226   3.788   4.074 -0.3688 -0.7394  0.7999
  177SAPS  H10Y20252   5.388   3.713   4.033  0.1726 -2.2290  0.0329
  177SAPS  C31120253   5.278   3.585   4.151 -0.4306 -0.1034  0.7732
  177SAPS  H11X20254   5.375   3.531   4.154 -0.6192 -0.4161  1.4085
  177SAPS  H11Y20255   5.201   3.511   4.121  0.1417 -1.2249  1.9851
  177SAPS  C31220256   5.255   3.650   4.285 -0.0234 -1.1057 -0.0980
  177SAPS  H12X20257   5.163   3.712   4.286  0.7288  0.0323 -0.4739
  177SAPS  H12Y20258   5.335   3.724   4.304  1.1518 -2.2915 -0.2822
  177SAPS  C31320259   5.244   3.546   4.394  0.1587  0.3108  0.9732
  177SAPS  H13X20260   5.345   3.500   4.405  0.5484  1.0724  0.6580
  177SAPS  H13Y20261   5.172   3.466   4.368  2.3081 -1.0834 -1.1151
  177SAPS  C31420262   5.200   3.603   4.532  0.3981  0.6163 -0.5289
  177SAPS  H14X20263   5.121   3.679   4.513  1.1123  1.1394 -1.4784
  177SAPS  H14Y20264   5.282   3.663   4.577 -0.6745  1.6140  0.1653
  177SAPS  C31520265   5.147   3.496   4.632  0.7573  0.7771  0.2888
  177SAPS  H15X20266   5.227   3.434   4.676  0.6369  0.3636 -0.0620
  177SAPS  H15Y20267   5.093   3.425   4.564  3.2803  0.7285 -1.8146
  177SAPS  C31620268   5.064   3.566   4.740  0.1519 -0.8837 -0.2635
  177SAPS  H16X20269   4.964   3.591   4.698 -0.0710  3.9191  2.4104
  177SAPS  H16Y20270   5.105   3.668   4.759 -0.7231 -0.8562  1.7430
  177SAPS  C31720271   5.048   3.491   4.875 -0.5673 -0.3352 -0.7195
  177SAPS  H17X20272   5.134   3.524   4.937 -0.1211  1.7755 -2.3782
  177SAPS  H17Y20273   5.043   3.380   4.864  0.0762 -0.3058 -1.3896
  177SAPS  C31820274   4.921   3.540   4.940  0.4499 -0.2661 -0.3165
  177SAPS  H18X20275   4.838   3.479   4.897  0.7700  0.6257 -2.3090
  177SAPS  H18Y20276   4.904   3.649   4.936  1.7073  0.0474  1.6375
  177SAPS  H18Z20277   4.942   3.522   5.048  0.9052  0.8006 -0.2236
  178SAPS     N20278   3.216   6.666   1.973 -0.5289  0.5098 -0.1642
  178SAPS   HN120279   3.202   6.760   1.929 -2.1329 -0.5127 -1.9673
  178SAPS   HN220280   3.226   6.666   2.077  0.7570  2.4795 -0.2223
  178SAPS   HN320281   3.310   6.630   1.948 -0.8661 -0.5271  0.0306
  178SAPS   C1220282   3.115   6.568   1.930  0.4452  0.1013  0.3027
  178SAPS  H12A20283   3.128   6.551   1.824 -0.4740 -0.2720  0.2374
  178SAPS   C1320284   3.125   6.428   1.995 -0.1906  0.1614 -0.2558
  178SAPS  O13A20285   3.218   6.392   2.074  0.5204 -0.2746  0.0279
  178SAPS  O13B20286   3.048   6.337   1.954  0.2998  0.0159 -0.0036
  178SAPS   C1120287   2.972   6.631   1.939 -0.2867 -0.5007 -0.2846
  178SAPS  H11A20288   2.900   6.553   1.907  0.3857 -0.9953 -0.6155
  178SAPS  H11B20289   2.958   6.721   1.875 -2.6159 -0.2295  0.4959
  178SAPS     P20290   2.860   6.785   2.115  0.0237 -0.4694  0.0428
  178SAPS   O1320291   2.933   6.906   2.120 -0.2259 -0.1600 -0.5694
  178SAPS   O1420292   2.740   6.777   2.023 -0.3346  0.5841  0.4540
  178SAPS   O1220293   2.954   6.660   2.078  0.9511 -0.3800  0.0075
  178SAPS   O1120294   2.812   6.742   2.256 -0.0575 -0.1041  0.1064
  178SAPS    C120295   2.888   6.675   2.356 -0.7190 -0.7233 -0.4599
  178SAPS    HA20296   2.923   6.575   2.321 -0.8572 -0.5013 -1.2538
  178SAPS    HB20297   2.978   6.735   2.381 -2.2899  1.6679 -0.2093
  178SAPS    C220298   2.810   6.642   2.489 -0.3317 -0.1236  0.7232
  178SAPS    HS20299   2.715   6.595   2.456 -1.5242  1.9325  1.0794
  178SAPS   O2120300   2.799   6.767   2.562 -0.4942 -0.5682  0.2394
  178SAPS   C2120301   2.673   6.822   2.558 -0.4300  0.1470  0.3048
  178SAPS   O2220302   2.577   6.771   2.505  0.0243  0.0625  0.1525
  178SAPS   C2220303   2.680   6.966   2.600  0.5793 -0.0937 -0.1270
  178SAPS   H2R20304   2.735   7.034   2.531  4.0424  0.5974  2.9939
  178SAPS   H2S20305   2.574   6.997   2.605  1.0619  1.5299  0.8953
  178SAPS    C320306   2.887   6.539   2.581 -0.4531 -1.1521  0.6089
  178SAPS    HX20307   2.991   6.579   2.581 -1.1424  0.7924  1.7956
  178SAPS    HY20308   2.890   6.437   2.538  0.9988 -0.4661 -1.0663
  178SAPS   O3120309   2.842   6.544   2.720  0.1185 -0.0821 -0.9253
  178SAPS   C3120310   2.723   6.517   2.743 -0.4339  0.1126  0.1094
  178SAPS   O3220311   2.633   6.489   2.664 -0.1188 -0.2332  0.0722
  178SAPS   C3220312   2.699   6.533   2.887  0.2160  0.0587 -0.8893
  178SAPS   H2X20313   2.594   6.501   2.904  0.7922 -0.6448  1.8318
  178SAPS   H2Y20314   2.725   6.638   2.911  1.5407 -0.6171  0.8833
  178SAPS   C2320315   2.731   6.973   2.746  0.3341 -0.6325 -0.1251
  178SAPS   H3R20316   2.818   6.905   2.764  0.1305 -1.2235 -1.3153
  178SAPS   H3S20317   2.653   6.934   2.814  1.3035 -1.3733  0.6017
  178SAPS   C2420318   2.761   7.125   2.779 -0.7026 -0.1365 -0.5368
  178SAPS   H4R20319   2.765   7.133   2.889 -4.0103 -0.0185 -0.3310
  178SAPS   H4S20320   2.686   7.194   2.735 -0.6694  0.2657  0.0343
  178SAPS   C2520321   2.904   7.146   2.729 -0.1615 -0.6874 -0.5585
  178SAPS   H5R20322   2.914   7.155   2.620  1.1195  2.6109 -0.2697
  178SAPS   C2620323   3.010   7.193   2.798 -0.4344 -0.1481  0.3666
  178SAPS   H6R20324   3.078   7.252   2.734 -0.6672 -1.4930 -1.1798
  178SAPS   C2720325   3.029   7.207   2.942 -0.1002  0.3674  0.1448
  178SAPS   H7R20326   2.995   7.109   2.983  0.1193  0.1447 -0.1951
  178SAPS   H7S20327   2.952   7.277   2.981 -0.3662  0.8501 -1.2018
  178SAPS   C2820328   3.170   7.226   2.986 -0.4185 -0.6737 -0.4975
  178SAPS   H8R20329   3.238   7.290   2.927  2.3941 -1.4993  1.6314
  178SAPS   C2920330   3.227   7.175   3.099 -0.2905 -0.5337  0.1401
  178SAPS   H9R20331   3.321   7.223   3.133  0.2818 -0.5808 -1.2872
  178SAPS  C21020332   3.141   7.098   3.199  0.6629 -0.1376 -0.1565
  178SAPS  H10R20333   3.095   7.015   3.143  2.4118 -1.3076  0.0493
  178SAPS  H10S20334   3.061   7.164   3.239  2.5547  0.8120  2.4118
  178SAPS  C21120335   3.226   7.054   3.315 -0.0340 -0.0554 -0.0820
  178SAPS  H11R20336   3.282   6.960   3.298 -1.1215 -1.1394  1.9251
  178SAPS  C21220337   3.242   7.103   3.436 -0.2331 -0.1641  0.3069
  178SAPS  H12R20338   3.305   7.051   3.510 -1.7449 -0.4482  1.4627
  178SAPS  C21320339   3.197   7.241   3.478  0.0188  0.2646  0.4359
  178SAPS  H13R20340   3.111   7.215   3.544 -0.8437 -0.2455 -0.8608
  178SAPS  H13S20341   3.162   7.311   3.400 -0.0545  0.7068  0.8588
  178SAPS  C21420342   3.308   7.313   3.547 -0.2594 -0.3840  0.7428
  178SAPS  H14R20343   3.402   7.281   3.500 -1.0380  0.1760 -1.2978
  178SAPS  C21520344   3.311   7.384   3.667  0.0248  0.7063  0.6954
  178SAPS  H15R20345   3.409   7.424   3.698  0.8350  0.3894 -1.2533
  178SAPS  C21620346   3.191   7.419   3.744  0.0132  0.4774 -0.2563
  178SAPS  H16R20347   3.118   7.338   3.722 -0.0233  0.2434  0.6754
  178SAPS  H16S20348   3.153   7.512   3.698 -0.4844  1.0726  1.2994
  178SAPS  C21720349   3.218   7.400   3.898 -0.3962 -0.3072  1.2421
  178SAPS  H17R20350   3.126   7.432   3.950 -1.6111 -1.2822 -0.2272
  178SAPS  H17S20351   3.305   7.465   3.924 -0.7343  0.5526  0.2921
  178SAPS  C21820352   3.260   7.257   3.951 -0.6366  0.0966  0.5598
  178SAPS  H18R20353   3.353   7.234   3.894 -0.3419  1.0400  0.6405
  178SAPS  H18S20354   3.186   7.180   3.922  1.0446 -1.8912  1.3773
  178SAPS  C21920355   3.295   7.242   4.091 -0.2341  0.1504 -0.4758
  178SAPS  H19R20356   3.220   7.306   4.142 -0.8105  0.3157 -1.5061
  178SAPS  H19S20357   3.391   7.292   4.116  0.4791 -2.0312  1.4542
  178SAPS  C22020358   3.304   7.096   4.135  0.6385  0.5175 -0.9816
  178SAPS  H20R20359   3.206   7.045   4.119  2.0674 -2.4923 -0.8011
  178SAPS  H20S20360   3.315   7.079   4.245  0.1837 -0.1018 -1.0235
  178SAPS  H20T20361   3.379   7.035   4.081  0.8837 -0.5897  0.5277
  178SAPS   C3320362   2.782   6.435   2.978 -0.3382  0.3033  0.7586
  178SAPS   H3X20363   2.891   6.426   2.957 -0.4087  0.0857  0.4718
  178SAPS   H3Y20364   2.746   6.332   2.954  0.9098  0.0106  0.0458
  178SAPS   C3420365   2.763   6.462   3.127 -0.1254  0.0142  0.6750
  178SAPS   H4X20366   2.658   6.450   3.163 -0.3749 -1.3460 -0.3888
  178SAPS   H4Y20367   2.784   6.569   3.146  1.2135 -0.2394  0.6763
  178SAPS   C3520368   2.853   6.373   3.224  0.8886 -0.3368 -0.3041
  178SAPS   H5X20369   2.958   6.377   3.188  0.1241  0.1321 -2.6194
  178SAPS   H5Y20370   2.813   6.269   3.227  0.3896 -0.1429 -0.0388
  178SAPS   C3620371   2.856   6.434   3.364  0.1697 -0.5607 -0.2316
  178SAPS   H6X20372   2.755   6.421   3.408  0.7066 -3.9741  0.2802
  178SAPS   H6Y20373   2.874   6.543   3.358 -2.2409 -0.0784  0.1680
  178SAPS   C3720374   2.954   6.356   3.455 -0.1928  0.1449 -0.5562
  178SAPS   H7X20375   3.052   6.350   3.404 -0.6340  0.5713 -1.4809
  178SAPS   H7Y20376   2.911   6.254   3.460 -0.3153  0.2060 -0.3374
  178SAPS   C3820377   2.980   6.415   3.591  0.0802  0.5878 -0.7090
  178SAPS   H8X20378   2.889   6.431   3.652  1.6630  0.9481  1.6671
  178SAPS   H8Y20379   3.002   6.521   3.565 -1.4328  0.9331 -0.7250
  178SAPS   C3920380   3.080   6.332   3.668 -0.3360 -0.0780 -1.2959
  178SAPS   H9X20381   3.180   6.335   3.622  1.4856  2.0109  2.3007
  178SAPS   H9Y20382   3.044   6.227   3.665 -1.3836  0.0965  1.4919
  178SAPS  C31020383   3.126   6.380   3.808 -0.6363 -0.1054  0.3346
  178SAPS  H10X20384   3.033   6.379   3.869 -2.8210  0.7577 -2.7391
  178SAPS  H10Y20385   3.158   6.486   3.793 -0.5002 -0.1005  0.6526
  178SAPS  C31120386   3.243   6.299   3.879 -0.1648  0.3416  0.4681
  178SAPS  H11X20387   3.266   6.340   3.979  1.4780 -0.9480  0.6581
  178SAPS  H11Y20388   3.329   6.307   3.809  0.3707  0.6270  1.1465
  178SAPS  C31220389   3.196   6.150   3.890  0.2694 -0.2286 -0.3190
  178SAPS  H12X20390   3.183   6.094   3.795  0.0393 -0.2702 -0.2627
  178SAPS  H12Y20391   3.095   6.144   3.936  1.0670  0.8250  1.7519
  178SAPS  C31320392   3.298   6.066   3.978 -0.8657 -0.0688  0.1367
  178SAPS  H13X20393   3.395   6.094   3.932 -2.1583  2.1932 -1.3727
  178SAPS  H13Y20394   3.280   5.957   3.967 -0.2921 -0.0215 -1.4977
  178SAPS  C31420395   3.311   6.090   4.129  0.5139 -0.8397  0.2720
  178SAPS  H14X20396   3.214   6.066   4.179 -0.5239  1.4350 -0.5425
  178SAPS  H14Y20397   3.325   6.198   4.148 -0.6069 -0.6940  0.3482
  178SAPS  C31520398   3.436   6.021   4.184 -0.3579 -0.1339  0.2008
  178SAPS  H15X20399   3.523   6.053   4.124 -0.1305 -0.0216  0.5907
  178SAPS  H15Y20400   3.412   5.912   4.194 -0.9488 -0.0379 -0.0847
  178SAPS  C31620401   3.481   6.052   4.330  0.0121  0.4661 -0.3345
  178SAPS  H16X20402   3.398   6.061   4.403  1.2049 -2.2614  1.4756
  178SAPS  H16Y20403   3.536   6.149   4.330  3.0692 -1.1503 -0.2596
  178SAPS  C31720404   3.584   5.948   4.388 -0.1532  0.0060  0.5462
  178SAPS  H17X20405   3.674   5.950   4.323 -0.6016  1.8396 -0.1071
  178SAPS  H17Y20406   3.541   5.846   4.386  2.6632 -1.2584  0.9778
  178SAPS  C31820407   3.635   5.971   4.530  0.4593 -0.4012 -0.2744
  178SAPS  H18X20408   3.590   5.893   4.594  0.4351 -0.4594 -0.3627
  178SAPS  H18Y20409   3.606   6.069   4.574 -0.7223 -0.0259 -1.7870
  178SAPS  H18Z20410   3.746   5.963   4.536  0.4304 -0.1395  0.7831
  179SAPS     N20411   5.756   0.355   2.016 -0.4230 -0.3471 -0.5710
  179SAPS   HN120412   5.830   0.327   1.948 -0.9675  1.0544 -1.7818
  179SAPS   HN220413   5.794   0.416   2.092  0.8328 -1.2566 -0.4412
  179SAPS   HN320414   5.700   0.277   2.057 -0.8415 -0.0038 -0.4875
  179SAPS   C1220415   5.673   0.444   1.924 -0.3047  0.1077 -2.0173
  179SAPS  H12A20416   5.727   0.537   1.920  1.1705 -0.4994  0.8906
  179SAPS   C1320417   5.655   0.391   1.788  0.7688 -0.4033 -0.0049
  179SAPS  O13A20418   5.724   0.295   1.748  0.5825  0.7500 -0.0199
  179SAPS  O13B20419   5.567   0.445   1.710 -0.0471  0.2945  0.0399
  179SAPS   C1120420   5.527   0.470   1.992 -0.6173  0.8282  0.2793
  179SAPS  H11A20421   5.475   0.371   1.994 -1.2415  1.1698  1.3422
  179SAPS  H11B20422   5.465   0.531   1.922 -0.4214 -1.3301 -1.9407
  179SAPS     P20423   5.497   0.673   2.148 -0.3143 -0.1202 -0.5502
  179SAPS   O1320424   5.556   0.773   2.051 -0.3826  0.5456 -0.0049
  179SAPS   O1420425   5.352   0.671   2.168  0.2462  0.5245  0.0788
  179SAPS   O1220426   5.537   0.532   2.116 -0.9384  0.2641 -0.6611
  179SAPS   O1120427   5.572   0.690   2.290  0.3388  0.7935 -0.1123
  179SAPS    C120428   5.581   0.581   2.390  0.1311  0.1504  0.2668
  179SAPS    HA20429   5.485   0.530   2.413  0.9821 -2.4224 -1.4533
  179SAPS    HB20430   5.639   0.497   2.346 -1.8901 -1.9199  1.3855
  179SAPS    C220431   5.654   0.624   2.515  0.8563  0.1048 -0.3484
  179SAPS    HS20432   5.763   0.610   2.502  0.5826 -1.5863 -1.0594
  179SAPS   O2120433   5.612   0.541   2.633 -0.2227 -0.2361 -0.0173
  179SAPS   C2120434   5.687   0.425   2.647 -0.4739  0.5401  0.2173
  179SAPS   O2220435   5.764   0.376   2.566 -0.6112  0.5132 -0.1757
  179SAPS   C2220436   5.647   0.356   2.775  0.0382  0.0952  0.0856
  179SAPS   H2R20437   5.607   0.427   2.850 -0.1113  0.5168 -0.3815
  179SAPS   H2S20438   5.558   0.300   2.738  1.4540 -1.6057 -0.9041
  179SAPS    C320439   5.636   0.777   2.543  0.5282 -0.1721 -0.4931
  179SAPS    HX20440   5.528   0.803   2.552  0.7488  0.9258 -0.8602
  179SAPS    HY20441   5.677   0.838   2.460  0.4851  1.4483  0.6376
  179SAPS   O3120442   5.709   0.810   2.662 -0.1434 -0.2644 -0.0935
  179SAPS   C3120443   5.653   0.914   2.739 -0.2279 -0.8425 -0.1342
  179SAPS   O3220444   5.549   0.969   2.714  0.3876  0.1847 -0.3380
  179SAPS   C3220445   5.746   0.950   2.859  0.6541  0.3856  0.4355
  179SAPS   H2X20446   5.848   0.914   2.832  0.3471  0.2455 -0.5391
  179SAPS   H2Y20447   5.707   0.892   2.946 -4.1847  1.4604 -0.7830
  179SAPS   C2320448   5.739   0.255   2.842 -0.9180  0.0424 -0.3081
  179SAPS   H3R20449   5.755   0.182   2.760  0.9965  1.8378 -1.6312
  179SAPS   H3S20450   5.675   0.200   2.914 -0.8531 -1.9338 -1.6873
  179SAPS   C2420451   5.866   0.316   2.914  0.2368 -0.1782  0.2840
  179SAPS   H4R20452   5.821   0.378   2.994  1.3513 -0.2970  1.0325
  179SAPS   H4S20453   5.920   0.380   2.841  0.6378 -1.7935 -0.8944
  179SAPS   C2520454   5.954   0.197   2.956 -0.4308  0.1684  0.0574
  179SAPS   H5R20455   6.036   0.174   2.886 -1.2465 -2.3391 -0.1765
  179SAPS   C2620456   5.946   0.122   3.067 -0.7132 -0.0662 -0.5227
  179SAPS   H6R20457   6.022   0.047   3.096 -0.8864  0.7560  2.3693
  179SAPS   C2720458   5.838   0.135   3.176  0.0321 -0.3810  0.0026
  179SAPS   H7R20459   5.749   0.178   3.126 -0.4800 -0.1427  1.0804
  179SAPS   H7S20460   5.878   0.208   3.250 -1.5433  0.7783 -0.2441
  179SAPS   C2820461   5.792   0.003   3.237  0.2823  0.0873  0.3196
  179SAPS   H8R20462   5.709  -0.058   3.199 -1.9185  0.7161  3.6709
  179SAPS   C2920463   5.854  -0.049   3.349 -0.2942  0.1948 -0.4015
  179SAPS   H9R20464   5.838  -0.152   3.381 -0.3472 -0.1030 -1.3515
  179SAPS  C21020465   5.975   0.015   3.420 -0.3572 -0.0318 -0.8364
  179SAPS  H10R20466   6.045   0.071   3.354 -0.1605  1.2793  0.4394
  179SAPS  H10S20467   6.036  -0.074   3.450 -1.5946 -0.3004  1.0487
  179SAPS  C21120468   5.943   0.110   3.530  1.4187  1.3537 -0.5692
  179SAPS  H11R20469   5.868   0.186   3.504 -1.3255 -0.8246  0.4575
  179SAPS  C21220470   5.992   0.111   3.658 -0.5042 -0.0215  0.4332
  179SAPS  H12R20471   5.958   0.186   3.731 -0.2763  0.3976  0.1140
  179SAPS  C21320472   6.090   0.015   3.715  0.0218  0.1459 -0.0043
  179SAPS  H13R20473   6.192   0.041   3.681  0.5827 -0.7114  0.9691
  179SAPS  H13S20474   6.069  -0.085   3.670 -1.2589  0.5180 -0.2718
  179SAPS  C21420475   6.088   0.022   3.865  0.4090 -0.2397 -0.1619
  179SAPS  H14R20476   6.012   0.088   3.911 -0.4118 -0.2886 -1.3866
  179SAPS  C21520477   6.174  -0.057   3.935  0.4201 -0.0305 -0.3336
  179SAPS  H15R20478   6.173  -0.046   4.045  1.6099  0.3632 -0.3443
  179SAPS  C21620479   6.276  -0.159   3.880 -0.2274  0.3675 -0.2281
  179SAPS  H16R20480   6.383  -0.132   3.896  0.5283 -3.7358  3.5277
  179SAPS  H16S20481   6.274  -0.178   3.771 -1.3279 -0.7313 -0.0268
  179SAPS  C21720482   6.272  -0.299   3.949 -0.2221 -0.1883 -0.5345
  179SAPS  H17R20483   6.315  -0.365   3.870 -1.6123 -0.8479 -0.7634
  179SAPS  H17S20484   6.168  -0.327   3.974  0.2818 -0.0596  1.9634
  179SAPS  C21820485   6.358  -0.304   4.083 -0.2221 -0.2192  0.9571
  179SAPS  H18R20486   6.299  -0.250   4.161 -0.2145  1.0485  0.1113
  179SAPS  H18S20487   6.453  -0.248   4.071 -0.4698 -0.1534 -1.0209
  179SAPS  C21920488   6.398  -0.441   4.126  0.2671  0.4871  0.9047
  179SAPS  H19R20489   6.401  -0.494   4.028  1.7206 -0.8272  1.6044
  179SAPS  H19S20490   6.317  -0.490   4.183  3.5527 -2.0022  3.9654
  179SAPS  C22020491   6.526  -0.450   4.202 -0.4404 -0.4328 -0.1373
  179SAPS  H20R20492   6.553  -0.553   4.232  0.0152  0.0948  1.3967
  179SAPS  H20S20493   6.522  -0.402   4.303  2.7438  1.5241 -0.8050
  179SAPS  H20T20494   6.616  -0.404   4.156 -0.4630  0.7777  0.9602
  179SAPS   C3320495   5.738   1.101   2.901  0.4183 -0.1921  0.6855
  179SAPS   H3X20496   5.633   1.122   2.932  1.2865  0.9207  3.0726
  179SAPS   H3Y20497   5.764   1.155   2.807  1.0162 -1.5181  0.0564
  179SAPS   C3420498   5.822   1.146   3.013 -0.0801 -0.0715 -0.0887
  179SAPS   H4X20499   5.788   1.116   3.115 -2.3168  0.3018 -0.6731
  179SAPS   H4Y20500   5.817   1.256   3.027 -0.3780 -0.2161  1.0227
  179SAPS   C3520501   5.975   1.113   2.991  0.1824 -0.1661 -0.0105
  179SAPS   H5X20502   5.996   1.123   2.882 -1.6138  1.4064 -0.2781
  179SAPS   H5Y20503   5.992   1.006   3.015 -0.8267 -0.4534 -0.4923
  179SAPS   C3620504   6.063   1.190   3.089  0.1205 -0.9892  0.4263
  179SAPS   H6X20505   6.024   1.294   3.082  0.1100 -0.8524  2.0434
  179SAPS   H6Y20506   6.165   1.198   3.046 -0.4884 -1.6613 -1.2259
  179SAPS   C3720507   6.058   1.135   3.230  0.4787  0.2392  0.4615
  179SAPS   H7X20508   6.098   1.033   3.213 -2.5784 -0.7349 -1.8008
  179SAPS   H7Y20509   5.957   1.112   3.269  0.2592  0.9055  0.3016
  179SAPS   C3820510   6.141   1.222   3.328 -0.8433 -0.1145 -0.5770
  179SAPS   H8X20511   6.096   1.323   3.341  0.8757  0.6684 -0.4565
  179SAPS   H8Y20512   6.243   1.238   3.287 -0.0696 -1.8103  0.5843
  179SAPS   C3920513   6.151   1.150   3.461 -0.3151 -0.1158 -0.0718
  179SAPS   H9X20514   6.236   1.192   3.518 -0.3579 -2.1412  1.5559
  179SAPS   H9Y20515   6.169   1.042   3.444 -0.2993 -0.1189 -0.0336
  179SAPS  C31020516   6.026   1.157   3.545 -0.4873 -0.0724  0.4121
  179SAPS  H10X20517   5.937   1.115   3.494  0.5504 -2.0984  0.1328
  179SAPS  H10Y20518   5.987   1.260   3.558  0.8609  0.7450 -1.5140
  179SAPS  C31120519   6.047   1.085   3.678  0.3475 -0.0261 -0.0873
  179SAPS  H11X20520   6.094   0.988   3.649  0.4449  0.0659 -0.2371
  179SAPS  H11Y20521   5.943   1.070   3.715 -0.2786  2.3658 -0.6952
  179SAPS  C31220522   6.129   1.166   3.776  0.6174 -0.5283 -0.2199
  179SAPS  H12X20523   6.057   1.225   3.837 -0.8570 -0.1384 -2.2028
  179SAPS  H12Y20524   6.203   1.231   3.725  0.8604 -0.8355 -0.2631
  179SAPS  C31320525   6.211   1.087   3.885  0.4973 -0.3542 -0.0538
  179SAPS  H13X20526   6.137   1.026   3.941 -0.3728  0.8894  0.1849
  179SAPS  H13Y20527   6.247   1.166   3.954 -2.9132  0.5195  0.9233
  179SAPS  C31420528   6.328   1.006   3.831 -0.3355 -0.0235 -0.0229
  179SAPS  H14X20529   6.392   1.074   3.772 -2.0953  2.4571  0.7317
  179SAPS  H14Y20530   6.296   0.929   3.758  2.3029 -1.0980 -0.1610
  179SAPS  C31520531   6.400   0.930   3.947 -0.6407 -0.2238 -0.1101
  179SAPS  H15X20532   6.325   0.867   4.000 -0.4861 -1.6629 -1.5180
  179SAPS  H15Y20533   6.447   1.003   4.017 -0.1542 -0.2406 -0.4190
  179SAPS  C31620534   6.506   0.838   3.889 -0.8080 -0.6960  0.0824
  179SAPS  H16X20535   6.583   0.903   3.843 -3.3824  1.3817 -1.5634
  179SAPS  H16Y20536   6.459   0.775   3.811  0.9098 -1.2841 -0.5186
  179SAPS  C31720537   6.581   0.744   3.991 -0.2602  1.2510  0.0414
  179SAPS  H17X20538   6.614   0.811   4.072 -2.2674  0.5697  1.5254
  179SAPS  H17Y20539   6.669   0.702   3.938  0.2416 -0.0344  1.7863
  179SAPS  C31820540   6.497   0.624   4.057  0.2235 -0.0829  0.3517
  179SAPS  H18X20541   6.416   0.659   4.124  0.6082 -0.6894  1.1589
  179SAPS  H18Y20542   6.558   0.570   4.133  1.4423  2.6689  1.4638
  179SAPS  H18Z20543   6.457   0.549   3.985 -1.3081 -1.3271  2.3721
  180SAPS     N20544   3.481   6.319   2.086  0.1143  0.0228 -0.2007
  180SAPS   HN120545   3.520   6.375   2.164 -0.5934  1.7795 -1.0481
  180SAPS   HN220546   3.389   6.362   2.062  0.3695  0.7889  0.1620
  180SAPS   HN320547   3.465   6.221   2.117 -2.6855  0.8097  1.1874
  180SAPS   C1220548   3.558   6.327   1.961  0.1240  0.8475  0.5775
  180SAPS  H12A20549   3.544   6.232   1.913  0.2379 -0.2260  2.5683
  180SAPS   C1320550   3.532   6.441   1.857  0.3283  0.5068 -1.3230
  180SAPS  O13A20551   3.433   6.515   1.874  0.1001  0.1813 -0.0561
  180SAPS  O13B20552   3.592   6.440   1.751 -0.5045 -0.8716  0.4230
  180SAPS   C1120553   3.705   6.312   1.993 -0.6077 -0.8413 -0.1767
  180SAPS  H11A20554   3.733   6.405   2.047  0.8272 -0.7503 -1.0102
  180SAPS  H11B20555   3.763   6.312   1.898  0.6103  0.1831  0.5301
  180SAPS     P20556   3.876   6.159   2.120 -0.0761  0.2034  0.3386
  180SAPS   O1320557   3.894   6.016   2.130  0.5233  0.4775  0.0034
  180SAPS   O1420558   3.972   6.226   2.030  0.1022  0.3398  0.1771
  180SAPS   O1220559   3.731   6.196   2.074 -0.4123 -0.8230  0.0736
  180SAPS   O1120560   3.889   6.222   2.266 -0.6211 -0.6955 -0.1522
  180SAPS    C120561   3.776   6.257   2.344  0.1726 -0.2792 -0.5642
  180SAPS    HA20562   3.727   6.348   2.304  1.2225  0.3359 -0.4776
  180SAPS    HB20563   3.701   6.174   2.351 -0.3821  0.3295  1.4824
  180SAPS    C220564   3.821   6.276   2.494  1.1023 -0.1839  0.3406
  180SAPS    HS20565   3.919   6.328   2.488  2.9355 -3.1862  2.0232
  180SAPS   O2120566   3.806   6.150   2.572  0.6771 -0.0948  0.0151
  180SAPS   C2120567   3.902   6.062   2.571 -0.0550 -0.3270  0.7205
  180SAPS   O2220568   4.007   6.077   2.509 -0.4393  0.2054  0.2126
  180SAPS   C2220569   3.878   5.941   2.654 -0.4495 -0.2575 -0.2910
  180SAPS   H2R20570   3.792   5.969   2.718 -1.3071 -0.1269 -1.4578
  180SAPS   H2S20571   3.846   5.856   2.589  2.7602 -1.2389 -0.7802
  180SAPS    C320572   3.729   6.383   2.558 -0.1676  0.0029  0.1398
  180SAPS    HX20573   3.627   6.363   2.517  0.8867 -1.8955 -1.7428
  180SAPS    HY20574   3.756   6.481   2.513  1.1710 -1.2721 -2.0371
  180SAPS   O3120575   3.737   6.380   2.702 -0.0228 -0.8924 -0.0327
  180SAPS   C3120576   3.841   6.442   2.744 -0.6418  0.2268  0.1053
  180SAPS   O3220577   3.913   6.520   2.677  0.5906 -0.3273  0.6492
  180SAPS   C3220578   3.865   6.398   2.890  0.0088 -0.5333 -0.1266
  180SAPS   H2X20579   3.947   6.324   2.882  1.3714  0.9479 -0.2974
  180SAPS   H2Y20580   3.769   6.362   2.934 -0.1108  0.6816  0.6705
  180SAPS   C2320581   3.993   5.895   2.744  0.3043  0.1470 -0.6118
  180SAPS   H3R20582   4.085   5.869   2.688  1.1729  1.7736 -0.0224
  180SAPS   H3S20583   3.964   5.795   2.784  1.4252  1.2312  3.3464
  180SAPS   C2420584   4.034   5.998   2.854  0.3152 -0.3388 -0.2883
  180SAPS   H4R20585   4.028   6.093   2.796 -1.5205  0.2223  0.7441
  180SAPS   H4S20586   4.142   5.987   2.879  0.2361 -1.6545 -0.4445
  180SAPS   C2520587   3.942   6.004   2.976 -0.4449  0.4258 -0.3942
  180SAPS   H5R20588   3.840   6.038   2.956 -0.0366  1.6985 -0.4505
  180SAPS   C2620589   3.968   5.971   3.102  0.2237 -0.3173 -0.0326
  180SAPS   H6R20590   3.881   5.964   3.169  0.8161  1.7936  1.0286
  180SAPS   C2720591   4.101   5.933   3.158  0.2031 -0.7290 -0.4670
  180SAPS   H7R20592   4.153   6.023   3.198 -1.5388 -0.7850  2.2089
  180SAPS   H7S20593   4.172   5.891   3.083  1.3547 -0.4334  0.4146
  180SAPS   C2820594   4.091   5.829   3.267  0.0865  0.0650  0.0288
  180SAPS   H8R20595   4.042   5.736   3.235  0.5903 -0.9360  2.0567
  180SAPS   C2920596   4.111   5.839   3.402  0.3458  0.8742 -0.2951
  180SAPS   H9R20597   4.103   5.745   3.457  1.4976 -0.0224 -1.6033
  180SAPS  C21020598   4.160   5.960   3.480  0.0470 -0.3386  0.8168
  180SAPS  H10R20599   4.112   5.955   3.580  2.0682 -0.5866  1.8330
  180SAPS  H10S20600   4.121   6.046   3.420  0.6698 -0.7528 -0.2191
  180SAPS  C21120601   4.303   5.974   3.484 -0.5711  0.5291 -0.0044
  180SAPS  H11R20602   4.354   5.993   3.389 -2.2061 -0.9811 -1.2619
  180SAPS  C21220603   4.377   5.947   3.598  0.5372  0.4853 -0.3623
  180SAPS  H12R20604   4.487   5.954   3.591  0.5861 -1.2853 -2.6572
  180SAPS  C21320605   4.328   5.890   3.731 -0.4822 -0.4594  0.5051
  180SAPS  H13R20606   4.246   5.957   3.765  0.1624  1.0605 -0.8190
  180SAPS  H13S20607   4.415   5.897   3.800  0.7158 -0.5561 -0.9371
  180SAPS  C21420608   4.267   5.752   3.749  0.2041  0.0127 -0.1144
  180SAPS  H14R20609   4.264   5.701   3.652  3.4100 -0.2915 -0.1614
  180SAPS  C21520610   4.205   5.704   3.861 -0.3851  0.1265  0.1057
  180SAPS  H15R20611   4.154   5.606   3.860 -1.6088  0.7383  0.5743
  180SAPS  C21620612   4.212   5.786   3.989  0.3773  0.2557  0.0783
  180SAPS  H16R20613   4.265   5.882   3.972  0.2922  0.5632  1.4042
  180SAPS  H16S20614   4.257   5.726   4.072 -0.9153 -0.8350  0.0355
  180SAPS  C21720615   4.080   5.845   4.047 -0.4107 -0.0501 -0.3994
  180SAPS  H17R20616   4.014   5.766   4.088 -0.0398 -0.1650 -0.0154
  180SAPS  H17S20617   4.040   5.899   3.959  0.3589  0.9728 -0.1470
  180SAPS  C21820618   4.099   5.953   4.162  0.1343  0.0044  0.2851
  180SAPS  H18R20619   4.038   6.041   4.131 -1.2289 -0.5827  1.2155
  180SAPS  H18S20620   4.198   6.003   4.149 -0.0679  0.3556  0.0923
  180SAPS  C21920621   4.069   5.907   4.304  0.1078  0.1025  0.4136
  180SAPS  H19R20622   4.147   5.833   4.328  1.2512  1.4103  0.8756
  180SAPS  H19S20623   3.967   5.867   4.323  0.8587 -1.1623  1.9957
  180SAPS  C22020624   4.101   6.015   4.411 -0.2441  0.0060 -0.1896
  180SAPS  H20R20625   4.147   5.971   4.502  4.5085  1.2608 -1.6868
  180SAPS  H20S20626   4.168   6.093   4.369 -0.4082 -0.4036 -1.2510
  180SAPS  H20T20627   4.011   6.076   4.431  0.5041  1.2227 -0.4030
  180SAPS   C3320628   3.921   6.520   2.964  0.1283 -0.9595  0.4380
  180SAPS   H3X20629   3.851   6.606   2.960  1.1216 -0.1673 -1.5139
  180SAPS   H3Y20630   4.009   6.568   2.917  0.9682  1.7433  4.3321
  180SAPS   C3420631   3.955   6.486   3.107  0.0587 -0.4473  0.3905
  180SAPS   H4X20632   3.861   6.470   3.163 -0.5457 -0.2871 -0.5642
  180SAPS   H4Y20633   4.007   6.576   3.148 -0.3443  0.3151 -0.7285
  180SAPS   C3520634   4.036   6.356   3.131  1.0510 -0.5221 -0.5975
  180SAPS   H5X20635   4.127   6.358   3.066  1.8455 -2.4932  0.3481
  180SAPS   H5Y20636   3.981   6.263   3.105 -0.9488  0.6052 -0.5969
  180SAPS   C3620637   4.084   6.343   3.277  0.1405 -0.0022  1.3296
  180SAPS   H6X20638   4.115   6.449   3.291 -1.6887  0.6011  1.0899
  180SAPS   H6Y20639   4.168   6.271   3.272  0.3620  0.3393 -0.8041
  180SAPS   C3720640   3.979   6.329   3.378 -0.0343  1.0222 -0.7840
  180SAPS   H7X20641   3.923   6.234   3.375  0.3036  0.8317 -1.1575
  180SAPS   H7Y20642   3.901   6.407   3.367  0.1268  1.0991 -1.4056
  180SAPS   C3820643   4.043   6.358   3.518 -0.3666 -0.0845 -0.8562
  180SAPS   H8X20644   4.043   6.467   3.542  0.9071 -0.3755  0.6520
  180SAPS   H8Y20645   4.145   6.315   3.515 -0.7364 -1.0762  0.2491
  180SAPS   C3920646   3.957   6.286   3.618  0.1637 -0.2800 -0.4913
  180SAPS   H9X20647   3.954   6.181   3.580  1.4488  0.3220 -2.4055
  180SAPS   H9Y20648   3.852   6.318   3.603 -0.1120 -1.6259 -1.7154
  180SAPS  C31020649   4.010   6.299   3.761  0.0018  0.0658  0.3460
  180SAPS  H10X20650   3.941   6.237   3.822 -3.6344  1.9280 -1.5007
  180SAPS  H10Y20651   3.994   6.399   3.808 -1.4978 -1.0649  2.3809
  180SAPS  C31120652   4.160   6.263   3.785  0.3314  0.1701 -0.4794
  180SAPS  H11X20653   4.231   6.321   3.722  1.6450  0.3760  1.1203
  180SAPS  H11Y20654   4.174   6.159   3.748  0.8915 -0.3524  1.1248
  180SAPS  C31220655   4.209   6.270   3.934  0.6597  0.5153  0.1685
  180SAPS  H12X20656   4.145   6.206   3.998 -1.7179 -0.0539 -2.5650
  180SAPS  H12Y20657   4.212   6.375   3.968  3.6668  0.5376  0.1209
  180SAPS  C31320658   4.350   6.235   3.959 -0.7564  0.6661  0.3496
  180SAPS  H13X20659   4.420   6.299   3.901 -1.7063 -0.9524 -2.7898
  180SAPS  H13Y20660   4.375   6.129   3.936  2.0808  0.8907  1.9781
  180SAPS  C31420661   4.390   6.262   4.105  0.3697  0.0323 -0.5732
  180SAPS  H14X20662   4.370   6.167   4.159  2.1590  0.8160  1.6734
  180SAPS  H14Y20663   4.322   6.336   4.153  0.7685 -1.1219  1.9355
  180SAPS  C31520664   4.527   6.306   4.127 -0.3571 -0.4652 -0.6794
  180SAPS  H15X20665   4.547   6.340   4.231 -4.2586  0.9434 -0.2140
  180SAPS  H15Y20666   4.541   6.399   4.068 -2.7958 -0.6313 -1.5972
  180SAPS  C31620667   4.636   6.209   4.086  0.0725 -0.9343 -0.3662
  180SAPS  H16X20668   4.620   6.158   3.989 -1.2222 -0.6818 -0.2994
  180SAPS  H16Y20669   4.621   6.128   4.161  1.4880 -0.8626  0.0249
  180SAPS  C31720670   4.772   6.271   4.080  0.2538 -0.6539 -0.1727
  180SAPS  H17X20671   4.848   6.190   4.082  0.8904 -0.0551  0.5142
  180SAPS  H17Y20672   4.797   6.328   4.172  1.6020  0.3041 -1.0879
  180SAPS  C31820673   4.791   6.362   3.967 -0.6145  0.1271  0.1822
  180SAPS  H18X20674   4.897   6.395   3.956 -0.5214 -0.8943 -2.6598
  180SAPS  H18Y20675   4.725   6.451   3.972 -1.2469 -0.1918 -1.7773
  180SAPS  H18Z20676   4.778   6.307   3.872  0.4993 -1.3871  0.8478
  181POPC     N20677   4.018   1.124   6.832  0.2020 -0.3922 -0.2671
  181POPC   C1220678   4.061   0.993   6.769  0.8553  0.5158  0.5083
  181POPC  H12A20679   4.116   1.017   6.680 -0.9812  1.6965 -0.3706
  181POPC  H12B20680   3.976   0.936   6.732  0.4484 -0.2263  2.4222
  181POPC   C1320681   3.919   1.102   6.941  0.2112  0.3680 -0.1222
  181POPC  H13A20682   3.872   1.194   6.973  1.5029  0.3695  2.0326
  181POPC  H13B20683   3.848   1.026   6.912  1.0370 -0.0321 -1.1562
  181POPC  H13C20684   3.972   1.083   7.034  0.4458 -0.4754 -0.4201
  181POPC   C1420685   4.140   1.195   6.876 -0.4684  0.1453  0.0779
  181POPC  H14A20686   4.181   1.235   6.785 -1.2585  1.0106  0.0797
  181POPC  H14B20687   4.118   1.276   6.945  0.8836  1.0904 -0.5569
  181POPC  H14C20688   4.207   1.124   6.923 -2.4844 -1.0427  1.3331
  181POPC   C1520689   3.952   1.217   6.733  0.9916  0.5354  0.4775
  181POPC  H15A20690   3.901   1.298   6.783  0.6088  0.3286  0.4307
  181POPC  H15B20691   3.892   1.157   6.666  1.9836 -0.0239  0.0670
  181POPC  H15C20692   4.023   1.257   6.662  0.2043 -1.7803 -1.7971
  181POPC   C1120693   4.145   0.895   6.860 -0.2163 -0.1279 -0.2505
  181POPC  H11A20694   4.166   0.806   6.798  0.8823 -0.4246  0.5103
  181POPC  H11B20695   4.087   0.856   6.946  0.8963 -1.1246  0.0747
  181POPC     P20696   4.406   0.905   6.857 -0.6920  0.1169  0.0388
  181POPC   O1320697   4.444   0.785   6.938  0.2467  0.1306 -0.1609
  181POPC   O1420698   4.497   1.018   6.846  0.1703  0.0849 -0.1914
  181POPC   O1220699   4.268   0.957   6.907  0.4228  0.3682 -0.3721
  181POPC   O1120700   4.384   0.860   6.709 -0.1707 -0.2554 -0.4324
  181POPC    C120701   4.384   0.726   6.661 -0.4405  0.0102  0.5655
  181POPC    HA20702   4.291   0.666   6.676 -0.0024 -2.2393 -3.9897
  181POPC    HB20703   4.469   0.669   6.703  0.5649  0.3409 -0.9525
  181POPC    C220704   4.406   0.716   6.506  0.2841  0.5130 -0.0893
  181POPC    HS20705   4.444   0.614   6.483  0.9318  0.6278  0.4397
  181POPC   O2120706   4.502   0.809   6.452 -0.3229  0.0023  0.6627
  181POPC   C2120707   4.628   0.799   6.502 -0.1249  0.0234  0.0191
  181POPC   O2220708   4.662   0.693   6.561 -0.7521 -0.6553 -0.4554
  181POPC   C2220709   4.700   0.922   6.470 -0.2816 -0.6004  0.0425
  181POPC   H2R20710   4.758   0.957   6.558  1.7347  0.1127 -1.5023
  181POPC   H2S20711   4.640   1.009   6.436  0.5187 -0.8290 -2.1198
  181POPC    C320712   4.271   0.733   6.435 -0.0026 -0.1170 -0.1119
  181POPC    HX20713   4.226   0.832   6.458  0.1889  0.0404 -0.4034
  181POPC    HY20714   4.194   0.664   6.475  0.2252 -0.8847 -0.9408
  181POPC   O3120715   4.290   0.717   6.290 -0.1364 -0.5070 -0.3227
  181POPC   C3120716   4.293   0.831   6.222 -0.5065 -0.0176  0.0727
  181POPC   O3220717   4.277   0.944   6.266  0.1558 -0.5638 -0.3249
  181POPC   C3220718   4.334   0.801   6.077  0.1687  0.1613  0.0826
  181POPC   H2X20719   4.315   0.693   6.056 -3.7482  1.0467 -1.9351
  181POPC   H2Y20720   4.438   0.841   6.069  0.1231  0.1744 -0.5420
  181POPC   C2320721   4.800   0.897   6.356 -0.1752 -0.3871 -0.0040
  181POPC   H3R20722   4.853   0.800   6.371  1.3004  0.3973 -0.0569
  181POPC   H3S20723   4.884   0.968   6.365 -0.1324 -0.2689 -1.1393
  181POPC   C2420724   4.732   0.899   6.220 -0.3289 -0.1215 -0.4522
  181POPC   H4R20725   4.666   0.986   6.199 -2.2224 -1.2702  0.5329
  181POPC   H4S20726   4.668   0.809   6.220  1.3813 -1.3930 -1.1562
  181POPC   C2520727   4.848   0.874   6.123  0.5503  0.2557 -0.6391
  181POPC   H5R20728   4.913   0.792   6.158 -1.9826 -1.8838 -0.6212
  181POPC   H5S20729   4.904   0.970   6.124  1.2003 -0.1216 -0.1774
  181POPC   C2620730   4.820   0.844   5.980 -0.4014  0.0450  0.2267
  181POPC   H6R20731   4.735   0.911   5.954 -0.9217 -0.9235 -0.6501
  181POPC   H6S20732   4.786   0.739   5.972 -0.9918  0.2222  0.3562
  181POPC   C2720733   4.945   0.856   5.886  0.3128 -0.0608  0.4530
  181POPC   H7R20734   5.031   0.809   5.939 -0.4560 -1.9700  0.0793
  181POPC   H7S20735   4.965   0.965   5.882 -1.3851  0.2575 -3.2650
  181POPC   C2820736   4.911   0.811   5.742 -0.3337  0.2332 -0.7335
  181POPC   H8R20737   4.986   0.869   5.684  1.0565  1.3123  1.9412
  181POPC   H8S20738   4.807   0.842   5.717 -0.8584  0.5420  1.5845
  181POPC   C2920739   4.920   0.662   5.711  0.8279  0.2078 -0.4969
  181POPC   H9120740   5.014   0.613   5.739  0.4585 -0.5512 -0.5641
  181POPC  C21020741   4.827   0.579   5.648  0.1484 -0.4659  0.1491
  181POPC  H10120742   4.849   0.471   5.640 -1.8852 -0.9492  0.5232
  181POPC  C21120743   4.684   0.626   5.600  0.0994  0.3041  0.1497
  181POPC  H11R20744   4.655   0.722   5.647 -0.5610  0.3388 -0.3115
  181POPC  H11S20745   4.607   0.555   5.637 -0.2898 -0.3554 -1.8066
  181POPC  C21220746   4.666   0.643   5.447  0.1658 -0.4228  0.5225
  181POPC  H12R20747   4.731   0.728   5.416 -0.8496  0.6661  1.3021
  181POPC  H12S20748   4.562   0.658   5.413  0.4806 -1.1809 -0.8374
  181POPC  C21320749   4.733   0.515   5.373 -0.3258 -0.2436 -0.0672
  181POPC  H13R20750   4.714   0.423   5.432 -1.7772 -0.7314 -1.2529
  181POPC  H13S20751   4.844   0.521   5.380 -0.0844 -2.3285 -1.2415
  181POPC  C21420752   4.701   0.511   5.224  0.7218  0.1609 -0.5690
  181POPC  H14R20753   4.590   0.514   5.216  0.6214 -1.7041 -0.1622
  181POPC  H14S20754   4.735   0.416   5.178 -0.8784 -1.8045  2.0189
  181POPC  C21520755   4.764   0.625   5.156  0.2943 -0.2882  0.2227
  181POPC  H15R20756   4.871   0.624   5.186  0.8927  1.9568 -1.5543
  181POPC  H15S20757   4.730   0.727   5.183  2.0379  0.5017 -0.4199
  181POPC  C21620758   4.749   0.639   5.001  0.3645 -0.1261 -0.5431
  181POPC  H16R20759   4.802   0.554   4.952 -0.8484  0.4176 -2.9757
  181POPC  H16S20760   4.796   0.733   4.965 -1.9981  0.8598 -1.2868
  181POPC  C21720761   4.605   0.632   4.949 -0.2299  0.3613  0.2968
  181POPC  H17R20762   4.550   0.719   4.992  0.3307  0.6631  0.4196
  181POPC  H17S20763   4.550   0.549   4.998  0.5434  0.8346  2.0842
  181POPC  C21820764   4.595   0.625   4.796  0.9644 -0.6235  0.5269
  181POPC  H18R20765   4.651   0.701   4.738 -1.8053 -0.7200 -2.5884
  181POPC  H18S20766   4.491   0.648   4.767  1.3634  0.2171 -0.2755
  181POPC  H18T20767   4.615   0.525   4.752  0.3725 -1.0515  1.2032
  181POPC   C3320768   4.241   0.872   5.977 -0.1796 -0.1359 -0.0681
  181POPC   H3X20769   4.211   0.975   6.006 -1.7331  0.1793 -2.5648
  181POPC   H3Y20770   4.149   0.812   5.964 -0.2540  0.0178 -0.2432
  181POPC   C3420771   4.324   0.893   5.849 -0.1303 -0.2276  0.2419
  181POPC   H4X20772   4.376   0.797   5.826  3.0209  1.5034 -0.3529
  181POPC   H4Y20773   4.406   0.963   5.876 -0.1713 -0.6709  1.6531
  181POPC   C3520774   4.261   0.933   5.720 -0.0634  0.2369  0.2995
  181POPC   H5X20775   4.202   0.852   5.672  2.2877  0.7407 -3.9700
  181POPC   H5Y20776   4.338   0.947   5.640 -0.7101 -0.1959 -0.4145
  181POPC   C3620777   4.152   1.051   5.739 -0.6368  0.0045  0.1504
  181POPC   H6X20778   4.197   1.122   5.812 -0.4163 -1.0930  1.1046
  181POPC   H6Y20779   4.068   1.005   5.795  0.6325 -1.2145  1.1303
  181POPC   C3720780   4.128   1.111   5.604  0.4196 -0.1617  0.0436
  181POPC   H7X20781   4.224   1.119   5.548  0.2601  0.5584 -0.1308
  181POPC   H7Y20782   4.090   1.215   5.603  2.5685  0.6946 -1.8867
  181POPC   C3820783   4.022   1.039   5.523 -0.0097  0.2768 -1.1151
  181POPC   H8X20784   3.927   1.029   5.579  0.3354  0.3835 -0.5001
  181POPC   H8Y20785   4.058   0.934   5.517  0.7815  0.5712 -1.7314
  181POPC   C3920786   4.001   1.103   5.386  0.0794 -0.3021  0.0472
  181POPC   H9X20787   4.099   1.122   5.339 -0.0994 -0.1845 -0.2834
  181POPC   H9Y20788   3.953   1.201   5.406 -1.5330 -1.3003  1.3848
  181POPC  C31020789   3.922   1.019   5.286 -0.2498  0.8408  0.7864
  181POPC  H10X20790   3.830   0.987   5.338 -1.3544  2.2571 -0.2255
  181POPC  H10Y20791   3.971   0.924   5.254 -0.7592  0.7420  0.2724
  181POPC  C31120792   3.881   1.101   5.161 -0.5416  0.3960 -0.0804
  181POPC  H11X20793   3.965   1.134   5.097  1.2099 -0.0765  1.8545
  181POPC  H11Y20794   3.816   1.186   5.191  1.6207  1.9657  0.3495
  181POPC  C31220795   3.791   1.019   5.065 -0.8169 -0.0026  0.0446
  181POPC  H12X20796   3.694   0.999   5.117  0.0810 -0.5072  1.5728
  181POPC  H12Y20797   3.836   0.921   5.039  1.7294  0.6097  1.8733
  181POPC  C31320798   3.751   1.106   4.946  0.1683  0.0077 -0.0491
  181POPC  H13X20799   3.694   1.195   4.983 -0.9734  0.3912 -2.5005
  181POPC  H13Y20800   3.681   1.043   4.888 -0.3517  0.5673 -0.0490
  181POPC  C31420801   3.870   1.145   4.852  0.2873 -0.7998 -0.5080
  181POPC  H14X20802   3.940   1.059   4.864  0.4514 -0.3082  2.9778
  181POPC  H14Y20803   3.918   1.235   4.896 -1.7656 -0.5815  1.4241
  181POPC  C31520804   3.818   1.160   4.708 -0.5026 -0.6705 -0.4736
  181POPC  H15X20805   3.763   1.257   4.700 -0.6032 -0.7580 -0.9033
  181POPC  H15Y20806   3.740   1.083   4.688 -1.4321  0.3357 -0.8529
  181POPC  C31620807   3.929   1.158   4.607  0.6722 -0.2927 -0.7097
  181POPC  H16X20808   3.971   1.056   4.610  1.4253 -0.0115 -1.4994
  181POPC  H16Y20809   4.014   1.229   4.617 -1.6905  2.6405  0.2697
  181POPC  H16Z20810   3.891   1.164   4.503 -0.0588  0.6125 -0.4041
  182POPC     N20811   2.747   6.022   6.758 -0.3144 -0.3114 -0.4652
  182POPC   C1220812   2.657   6.118   6.837  0.0964  0.6160 -0.0724
  182POPC  H12A20813   2.613   6.060   6.917 -0.5166  1.7449  0.4339
  182POPC  H12B20814   2.580   6.148   6.768 -0.3812 -1.1486 -0.3575
  182POPC   C1320815   2.867   5.995   6.842 -0.1449  0.3052  0.3126
  182POPC  H13A20816   2.838   5.968   6.942  0.5291  1.4029  0.8240
  182POPC  H13B20817   2.937   5.920   6.806 -0.7297 -0.1351  0.0754
  182POPC  H13C20818   2.929   6.084   6.840  2.4115 -1.3679  0.0845
  182POPC   C1420819   2.678   5.887   6.733  0.4751  0.0925  0.2296
  182POPC  H14A20820   2.580   5.913   6.696  0.5425 -0.3001 -0.2271
  182POPC  H14B20821   2.733   5.825   6.664  0.7391 -0.6673  1.0873
  182POPC  H14C20822   2.663   5.829   6.823  0.6638 -1.0864 -0.4788
  182POPC   C1520823   2.795   6.073   6.627 -0.3193 -0.2842  0.2035
  182POPC  H15A20824   2.717   6.078   6.553  0.3386  3.5644 -0.4710
  182POPC  H15B20825   2.868   6.007   6.583 -1.0444 -1.3972  0.6454
  182POPC  H15C20826   2.833   6.174   6.633  1.4817 -0.7048 -2.5120
  182POPC   C1120827   2.716   6.248   6.896  0.2780 -0.4204  0.3242
  182POPC  H11A20828   2.780   6.227   6.985 -2.3497  0.1036  2.4993
  182POPC  H11B20829   2.632   6.306   6.942  2.3667  1.6137  1.8469
  182POPC     P20830   2.736   6.456   6.748  0.2822 -0.3881  0.5985
  182POPC   O1320831   2.780   6.567   6.844  0.0671 -0.2748  0.7750
  182POPC   O1420832   2.592   6.436   6.738 -0.0121 -0.2598  0.2653
  182POPC   O1220833   2.794   6.320   6.799 -0.4586  0.3417 -0.1352
  182POPC   O1120834   2.798   6.476   6.611  0.3937  0.3147  0.3083
  182POPC    C120835   2.933   6.434   6.586 -0.0465 -0.4912 -0.0446
  182POPC    HA20836   2.953   6.326   6.599  0.9334 -0.3014  0.0659
  182POPC    HB20837   2.999   6.502   6.644 -1.2132  1.7064 -1.1508
  182POPC    C220838   2.979   6.454   6.443  0.1835  0.2599  0.3762
  182POPC    HS20839   3.073   6.397   6.429  0.4502  0.9546 -0.8318
  182POPC   O2120840   2.999   6.589   6.397  0.0755  0.2427 -0.0974
  182POPC   C2120841   3.104   6.653   6.429 -0.0752  0.4652  0.2079
  182POPC   O2220842   3.197   6.612   6.493 -0.6761  0.0595  0.7709
  182POPC   C2220843   3.108   6.789   6.356  0.5495 -0.5366  0.0714
  182POPC   H2R20844   3.195   6.850   6.388 -0.1062  0.2825  0.3345
  182POPC   H2S20845   3.014   6.841   6.387  0.2591 -0.4863 -0.8653
  182POPC    C320846   2.879   6.384   6.345  1.2058 -0.2379  0.3768
  182POPC    HX20847   2.794   6.454   6.334  2.0061  0.5196 -1.4385
  182POPC    HY20848   2.839   6.286   6.378 -0.7921  0.4104  0.0111
  182POPC   O3120849   2.943   6.378   6.216 -0.4048 -0.6608 -0.3753
  182POPC   C3120850   3.018   6.265   6.195  0.0709 -0.2558 -0.5770
  182POPC   O3220851   3.009   6.173   6.272  0.2099 -0.6572 -0.0796
  182POPC   C3220852   3.107   6.278   6.075 -0.8660  0.0089  0.3869
  182POPC   H2X20853   3.180   6.194   6.067  0.3808  1.2413 -2.7674
  182POPC   H2Y20854   3.158   6.377   6.080  0.3703 -0.5994  0.3573
  182POPC   C2320855   3.103   6.764   6.202  0.5701 -0.6445 -0.3208
  182POPC   H3R20856   3.045   6.678   6.161 -0.6082  0.0413 -0.1328
  182POPC   H3S20857   3.209   6.735   6.182  0.5910 -1.6529  1.0735
  182POPC   C2420858   3.071   6.886   6.118  0.0972 -0.4515  0.7247
  182POPC   H4R20859   3.133   6.976   6.139 -1.9914  1.5314 -1.0136
  182POPC   H4S20860   2.963   6.913   6.126 -0.2467  0.4272 -3.8218
  182POPC   C2520861   3.092   6.860   5.968 -0.7330 -0.1766 -0.0702
  182POPC   H5R20862   3.035   6.773   5.927  0.2766  0.5735 -3.4070
  182POPC   H5S20863   3.201   6.840   5.958 -0.6125  0.9654 -1.3403
  182POPC   C2620864   3.065   6.984   5.881  0.4170  0.5350  0.5296
  182POPC   H6R20865   3.089   7.076   5.938  1.1946  1.7563 -1.6526
  182POPC   H6S20866   2.958   6.984   5.852  1.1285  3.8655 -2.8564
  182POPC   C2720867   3.131   6.975   5.750 -0.3057  0.0422 -0.1015
  182POPC   H7R20868   3.091   6.889   5.692  0.4358 -1.8288  2.0376
  182POPC   H7S20869   3.241   6.964   5.761 -0.0391  2.3264 -0.0091
  182POPC   C2820870   3.110   7.106   5.666 -0.0827 -0.4609  0.1347
  182POPC   H8R20871   3.195   7.114   5.596 -2.4398 -0.2137 -2.8890
  182POPC   H8S20872   3.110   7.194   5.734  0.9589 -1.5176  1.5813
  182POPC   C2920873   2.990   7.106   5.575  0.2017  0.0677  0.0218
  182POPC   H9120874   2.894   7.100   5.628  0.7327  1.1570  1.1649
  182POPC  C21020875   2.987   7.122   5.440  0.5767  0.5902  0.1982
  182POPC  H10120876   2.892   7.100   5.389  0.8775  0.9123 -0.5211
  182POPC  C21120877   3.105   7.130   5.345  0.4311 -0.5495 -0.0887
  182POPC  H11R20878   3.131   7.028   5.309  0.5494  0.4413 -3.1090
  182POPC  H11S20879   3.194   7.179   5.389 -1.1038  3.0168 -0.5395
  182POPC  C21220880   3.051   7.216   5.225  0.0645  0.2276  0.0360
  182POPC  H12R20881   3.046   7.325   5.248 -0.5968  0.6652 -2.0211
  182POPC  H12S20882   2.953   7.185   5.183  0.1372  0.9693 -0.6986
  182POPC  C21320883   3.144   7.185   5.107  0.3157 -0.0994  0.0784
  182POPC  H13R20884   3.133   7.076   5.094 -0.6897 -0.0131  0.0656
  182POPC  H13S20885   3.248   7.220   5.121 -0.3734  2.3782 -0.3489
  182POPC  C21420886   3.108   7.242   4.969  0.9007 -0.6793 -0.1236
  182POPC  H14R20887   3.191   7.217   4.900 -0.2383 -2.8056 -0.7975
  182POPC  H14S20888   3.097   7.352   4.980 -0.6531 -0.6827 -1.2725
  182POPC  C21520889   2.981   7.192   4.897  0.0666 -0.3107 -0.1615
  182POPC  H15R20890   2.892   7.202   4.964 -0.5192 -0.1107 -0.9618
  182POPC  H15S20891   2.985   7.083   4.877 -1.1062 -0.5994  0.9791
  182POPC  C21620892   2.970   7.255   4.757  0.5347 -0.1825 -0.2423
  182POPC  H16R20893   3.064   7.241   4.700  1.9555 -0.2083  2.0086
  182POPC  H16S20894   2.953   7.364   4.756  0.3500 -0.1730  1.5827
  182POPC  C21720895   2.855   7.193   4.677 -0.8465  0.2132 -0.0209
  182POPC  H17R20896   2.765   7.211   4.739  0.3050  1.4430  1.3842
  182POPC  H17S20897   2.888   7.089   4.658 -1.3339  0.0981 -0.2472
  182POPC  C21820898   2.836   7.279   4.550 -0.1086 -0.4370 -0.5240
  182POPC  H18R20899   2.809   7.384   4.575  2.5962  0.4444 -0.8870
  182POPC  H18S20900   2.744   7.255   4.494  0.1610 -0.7650 -0.8319
  182POPC  H18T20901   2.926   7.285   4.486 -1.6602  0.2849 -2.7483
  182POPC   C3320902   3.034   6.268   5.942 -0.7211 -0.0695  0.1970
  182POPC   H3X20903   2.975   6.363   5.938  0.3317  0.8178  3.1073
  182POPC   H3Y20904   2.953   6.191   5.943  0.2536 -1.1157  1.1455
  182POPC   C3420905   3.129   6.249   5.821 -0.0816  0.3166  0.8781
  182POPC   H4X20906   3.183   6.153   5.836  2.9105  1.5894 -0.8458
  182POPC   H4Y20907   3.194   6.337   5.800  0.6598 -0.5995 -0.8981
  182POPC   C3520908   3.042   6.238   5.692  0.5394 -0.2143 -0.5125
  182POPC   H5X20909   2.979   6.328   5.675  0.5968  0.0046  0.3792
  182POPC   H5Y20910   2.968   6.157   5.710  0.9194 -0.2226  1.2124
  182POPC   C3620911   3.104   6.195   5.561  0.1440 -0.3213 -0.2846
  182POPC   H6X20912   3.123   6.086   5.570  0.3308 -0.1802  1.4237
  182POPC   H6Y20913   3.198   6.255   5.558  0.1606 -0.1189  2.0341
  182POPC   C3720914   3.036   6.229   5.431  0.3614  0.2009 -0.7545
  182POPC   H7X20915   3.041   6.338   5.412  0.7227  0.4544  0.6670
  182POPC   H7Y20916   2.929   6.205   5.445 -0.2896  2.4071 -1.5754
  182POPC   C3820917   3.091   6.146   5.315 -0.0088 -0.5561  0.6586
  182POPC   H8X20918   3.059   6.040   5.316  0.6600 -0.7568  1.2048
  182POPC   H8Y20919   3.201   6.154   5.325  0.2112  0.0946 -1.6630
  182POPC   C3920920   3.037   6.193   5.175 -0.3167 -0.1382 -0.9488
  182POPC   H9X20921   3.031   6.304   5.172  0.5375 -0.0612 -0.2678
  182POPC   H9Y20922   2.933   6.155   5.165 -0.5030 -0.0599  0.4898
  182POPC  C31020923   3.121   6.145   5.057 -0.4969  0.6755  0.0419
  182POPC  H10X20924   3.119   6.034   5.063 -1.6568  0.6815 -0.0308
  182POPC  H10Y20925   3.224   6.184   5.075 -0.6095  1.1097 -0.2192
  182POPC  C31120926   3.062   6.213   4.925 -0.1752  0.0082 -0.3011
  182POPC  H11X20927   3.145   6.206   4.851 -1.1340  0.9521 -1.5035
  182POPC  H11Y20928   3.052   6.320   4.951  1.9686  0.3175 -0.5391
  182POPC  C31220929   2.934   6.144   4.881  0.0800  0.0880  0.1695
  182POPC  H12X20930   2.854   6.153   4.957  0.8037  1.2527  0.8298
  182POPC  H12Y20931   2.951   6.035   4.868  1.7163  0.3618 -0.1741
  182POPC  C31320932   2.886   6.205   4.750  0.2446  0.1037  0.2238
  182POPC  H13X20933   2.786   6.159   4.737  0.7528 -1.2368  0.8510
  182POPC  H13Y20934   2.954   6.191   4.664 -0.0611  3.3701 -0.6483
  182POPC  C31420935   2.850   6.363   4.764  0.2897  0.5086  0.5290
  182POPC  H14X20936   2.943   6.415   4.792 -0.5756  2.3857  0.0732
  182POPC  H14Y20937   2.782   6.371   4.852 -2.1394 -0.0860 -1.1906
  182POPC  C31520938   2.773   6.408   4.644  0.1162 -0.3464  0.0652
  182POPC  H15X20939   2.831   6.374   4.555  0.6788  0.2800  0.1873
  182POPC  H15Y20940   2.772   6.518   4.661  1.8808 -0.7258  3.2685
  182POPC  C31620941   2.622   6.381   4.623 -0.4967 -0.3377 -0.3912
  182POPC  H16X20942   2.568   6.425   4.709 -1.7626 -0.9781 -0.8420
  182POPC  H16Y20943   2.613   6.270   4.632  1.4352 -0.6276 -1.4795
  182POPC  H16Z20944   2.582   6.419   4.527  2.0006  2.7270 -0.3790
  183POPC     N20945   4.814   5.490   7.009 -0.1240  0.0591  0.7752
  183POPC   C1220946   4.877   5.537   6.881  0.3603  0.0139  0.3930
  183POPC  H12A20947   4.853   5.476   6.795  0.5349  0.7150 -0.1663
  183POPC  H12B20948   4.984   5.529   6.887  0.3430 -0.8645 -0.3192
  183POPC   C1320949   4.666   5.479   6.981 -0.4667  0.5324 -0.5680
  183POPC  H13A20950   4.653   5.410   6.899 -1.7028 -1.1096  0.9080
  183POPC  H13B20951   4.617   5.448   7.073  0.7261  1.2222  0.3308
  183POPC  H13C20952   4.625   5.574   6.950 -2.0233 -0.8958 -3.2580
  183POPC   C1420953   4.866   5.358   7.045 -0.8638 -0.4963 -0.5985
  183POPC  H14A20954   4.852   5.289   6.963 -2.7693 -1.5101  0.4971
  183POPC  H14B20955   4.970   5.361   7.073 -0.9184 -1.6749 -0.1944
  183POPC  H14C20956   4.830   5.316   7.138  0.8423  0.7163  0.6654
  183POPC   C1520957   4.840   5.582   7.127 -0.2296 -0.2899  0.0983
  183POPC  H15A20958   4.815   5.685   7.107 -0.6446 -0.6527 -1.4285
  183POPC  H15B20959   4.938   5.566   7.170  0.9271  1.3827 -1.7108
  183POPC  H15C20960   4.766   5.558   7.202 -0.9725 -0.5593 -0.7008
  183POPC   C1120961   4.838   5.683   6.837 -0.4640  0.2760  0.3853
  183POPC  H11A20962   4.917   5.737   6.780  0.1728  0.4700  1.4369
  183POPC  H11B20963   4.833   5.746   6.929 -0.9386  2.4562 -1.0446
  183POPC     P20964   4.688   5.668   6.633  0.2422 -0.1114  0.2313
  183POPC   O1320965   4.713   5.793   6.558 -0.3554  0.0162 -0.4097
  183POPC   O1420966   4.557   5.601   6.612  0.2653 -0.5340  0.7128
  183POPC   O1220967   4.706   5.695   6.784  0.7661  0.1464 -1.2067
  183POPC   O1120968   4.795   5.565   6.603 -0.2528 -0.0700  0.1136
  183POPC    C120969   4.888   5.570   6.497 -0.8014  0.2720 -0.6025
  183POPC    HA20970   4.977   5.542   6.557 -2.3801  0.4717  1.9479
  183POPC    HB20971   4.900   5.675   6.462 -2.6151  0.5113 -0.5799
  183POPC    C220972   4.854   5.484   6.373 -0.6277 -0.0612  0.4711
  183POPC    HS20973   4.933   5.507   6.298 -1.2497  2.0842  0.3896
  183POPC   O2120974   4.719   5.518   6.321  0.0545  0.7452  0.4526
  183POPC   C2120975   4.709   5.642   6.271  0.0543  0.7527  0.3685
  183POPC   O2220976   4.804   5.714   6.244  0.4382 -0.2973 -0.4670
  183POPC   C2220977   4.559   5.674   6.240  0.1254 -0.5158 -0.9388
  183POPC   H2R20978   4.547   5.780   6.268 -2.9154 -0.0583 -3.4968
  183POPC   H2S20979   4.502   5.611   6.311 -1.1739  0.1168 -1.3973
  183POPC    C320980   4.863   5.333   6.401  0.1240 -0.3017  0.5400
  183POPC    HX20981   4.776   5.313   6.467 -0.0449  1.4921  0.9088
  183POPC    HY20982   4.958   5.322   6.459 -0.4710  1.0105  1.8383
  183POPC   O3120983   4.869   5.255   6.286 -0.3432 -0.1064  0.0477
  183POPC   C3120984   4.803   5.141   6.299 -0.4165 -0.5160 -0.1842
  183POPC   O3220985   4.765   5.087   6.398 -0.1855 -0.8713  0.2729
  183POPC   C3220986   4.794   5.077   6.161  0.8447  0.1969 -0.0994
  183POPC   H2X20987   4.720   4.994   6.170 -1.5625  2.3763  2.4120
  183POPC   H2Y20988   4.901   5.052   6.145  0.9328  1.0033 -0.8183
  183POPC   C2320989   4.511   5.644   6.095 -0.6053 -0.3174 -0.2124
  183POPC   H3R20990   4.579   5.701   6.028 -1.2792  1.0965  0.2556
  183POPC   H3S20991   4.405   5.673   6.082  0.0203  2.4228  0.0891
  183POPC   C2420992   4.525   5.496   6.050  0.1602 -0.3156 -0.8061
  183POPC   H4R20993   4.449   5.436   6.105 -0.6502  1.0451 -0.3792
  183POPC   H4S20994   4.628   5.460   6.069  0.6678  0.9174 -1.0897
  183POPC   C2520995   4.486   5.497   5.902  0.2399 -0.0874  0.6532
  183POPC   H5R20996   4.393   5.557   5.898 -0.0657 -0.2195  3.3533
  183POPC   H5S20997   4.460   5.392   5.877  1.0503 -0.7765  2.4512
  183POPC   C2620998   4.593   5.549   5.800 -0.9521  0.8267  0.3695
  183POPC   H6R20999   4.682   5.482   5.792  0.5904  3.0333 -2.2552
  183POPC   H6S21000   4.647   5.637   5.841 -0.7092  2.2259 -2.7122
  183POPC   C2721001   4.533   5.573   5.664 -0.7033 -0.7122  0.0525
  183POPC   H7R21002   4.470   5.665   5.663  0.4900  0.1657 -1.9144
  183POPC   H7S21003   4.471   5.486   5.635 -2.0873  0.7995 -1.8442
  183POPC   C2821004   4.639   5.588   5.552 -0.3844  0.1540  0.2219
  183POPC   H8R21005   4.711   5.503   5.558  0.0761  0.5718  0.7846
  183POPC   H8S21006   4.702   5.680   5.553  0.1009 -0.1381 -0.9200
  183POPC   C2921007   4.569   5.571   5.416 -0.3534 -0.3042  0.3270
  183POPC   H9121008   4.465   5.535   5.427 -0.5464  0.6415  2.0727
  183POPC  C21021009   4.620   5.600   5.295  0.1265  0.1782 -0.5606
  183POPC  H10121010   4.555   5.598   5.206 -0.9047  2.0149  0.0976
  183POPC  C21121011   4.762   5.656   5.271  0.2087 -0.4490  0.0152
  183POPC  H11R21012   4.828   5.644   5.360 -0.0062 -2.7155 -0.0703
  183POPC  H11S21013   4.735   5.763   5.257 -3.1809 -1.4925 -2.6242
  183POPC  C21221014   4.848   5.625   5.140 -0.1917  0.5228  0.3069
  183POPC  H12R21015   4.875   5.519   5.123  1.7920  0.9746  0.4140
  183POPC  H12S21016   4.947   5.673   5.158  0.5825 -0.9416  0.0899
  183POPC  C21321017   4.797   5.668   5.008 -0.4273  0.0994  0.3055
  183POPC  H13R21018   4.777   5.777   5.014  1.2572  0.5251 -1.0262
  183POPC  H13S21019   4.707   5.609   4.979  1.1146 -1.5600 -1.4201
  183POPC  C21421020   4.907   5.630   4.895  0.7801  0.0032  0.2800
  183POPC  H14R21021   4.942   5.526   4.914 -0.0207  0.0257  2.0606
  183POPC  H14S21022   4.987   5.706   4.908  2.8676 -1.7405 -1.5847
  183POPC  C21521023   4.836   5.650   4.760 -0.2984  0.8411  0.1777
  183POPC  H15R21024   4.828   5.761   4.758  2.1424  1.0651 -0.4244
  183POPC  H15S21025   4.730   5.618   4.755 -0.7783  2.3698 -0.0580
  183POPC  C21621026   4.916   5.595   4.635 -0.8774  0.3081  0.9520
  183POPC  H16R21027   4.862   5.639   4.549  0.0337  0.1478  0.2888
  183POPC  H16S21028   4.914   5.484   4.632  0.5329  0.2604  1.0482
  183POPC  C21721029   5.061   5.651   4.630  0.6800 -0.3115 -0.5547
  183POPC  H17R21030   5.122   5.606   4.711 -0.5809 -1.6757 -0.3165
  183POPC  H17S21031   5.067   5.758   4.656  4.2697 -0.7002  0.7400
  183POPC  C21821032   5.122   5.637   4.490 -0.8187 -0.3109  0.4086
  183POPC  H18R21033   5.154   5.531   4.476 -1.3395 -0.3241 -0.7472
  183POPC  H18S21034   5.212   5.701   4.496 -0.3367 -0.9594  0.2603
  183POPC  H18T21035   5.051   5.664   4.409 -0.7363 -0.1897  0.3768
  183POPC   C3321036   4.745   5.170   6.051 -0.3720  0.3853  0.5854
  183POPC   H3X21037   4.814   5.256   6.039 -1.1960  0.8539 -1.0959
  183POPC   H3Y21038   4.645   5.215   6.065 -0.3521  0.9947 -1.0013
  183POPC   C3421039   4.749   5.090   5.918  0.0105  0.7662  0.0828
  183POPC   H4X21040   4.688   4.998   5.929 -1.2998  1.6908  0.7635
  183POPC   H4Y21041   4.853   5.056   5.900 -1.2867 -4.1473  0.4574
  183POPC   C3521042   4.689   5.166   5.807  0.2399 -0.6399 -0.2557
  183POPC   H5X21043   4.747   5.258   5.784 -0.9826  0.3900  0.6504
  183POPC   H5Y21044   4.590   5.210   5.831  0.8788  1.0492 -0.6002
  183POPC   C3621045   4.695   5.076   5.680  0.3084  0.0735  0.2434
  183POPC   H6X21046   4.630   4.987   5.678 -1.1752  1.1263 -1.2275
  183POPC   H6Y21047   4.803   5.053   5.664  0.0873 -0.8268  0.0222
  183POPC   C3721048   4.673   5.170   5.558 -0.5235 -0.1413 -0.0605
  183POPC   H7X21049   4.713   5.273   5.569  0.5539 -0.4941 -0.6055
  183POPC   H7Y21050   4.563   5.174   5.543 -0.4330  1.2822 -0.4906
  183POPC   C3821051   4.731   5.126   5.423  0.0814  0.1818  0.4443
  183POPC   H8X21052   4.702   5.021   5.403  1.0262  0.0982 -0.4987
  183POPC   H8Y21053   4.842   5.123   5.428  0.2215 -1.3908 -2.2430
  183POPC   C3921054   4.682   5.214   5.312 -0.3481  0.4706 -0.2701
  183POPC   H9X21055   4.699   5.322   5.330  0.1706  0.1258  1.4874
  183POPC   H9Y21056   4.571   5.204   5.307 -0.3285  0.1460 -0.0615
  183POPC  C31021057   4.743   5.164   5.177  0.0780 -0.7526 -0.0814
  183POPC  H10X21058   4.726   5.054   5.168 -1.9343 -0.5144  0.3136
  183POPC  H10Y21059   4.852   5.184   5.175 -0.1134  0.3147 -1.2665
  183POPC  C31121060   4.683   5.233   5.057 -0.6208 -0.2363 -0.2182
  183POPC  H11X21061   4.687   5.341   5.079  0.7808 -0.5649  1.3514
  183POPC  H11Y21062   4.577   5.199   5.047 -0.6529 -0.6038  1.0976
  183POPC  C31221063   4.757   5.198   4.929  0.0666  0.1475 -0.2113
  183POPC  H12X21064   4.795   5.094   4.940 -1.5332 -0.3316  1.1660
  183POPC  H12Y21065   4.842   5.269   4.916 -0.4330  1.4984  2.9545
  183POPC  C31321066   4.674   5.196   4.797  0.1743  0.1747 -0.1587
  183POPC  H13X21067   4.636   5.299   4.776  1.4560  0.8793  0.7939
  183POPC  H13Y21068   4.593   5.124   4.821 -1.7066  1.5390 -2.0209
  183POPC  C31421069   4.766   5.163   4.678 -0.9419 -0.2936 -0.3480
  183POPC  H14X21070   4.791   5.056   4.696  0.9339  0.3169  1.1130
  183POPC  H14Y21071   4.856   5.227   4.688  0.0156 -1.7730  1.2435
  183POPC  C31521072   4.727   5.186   4.536  0.2343 -0.2621 -0.2744
  183POPC  H15X21073   4.637   5.128   4.508  0.5872 -1.3220  0.7201
  183POPC  H15Y21074   4.800   5.136   4.469 -0.4160 -1.5945 -0.0238
  183POPC  C31621075   4.717   5.336   4.498 -0.2844 -0.3404  0.2525
  183POPC  H16X21076   4.681   5.391   4.587 -3.3728  0.2759 -1.2418
  183POPC  H16Y21077   4.648   5.341   4.411 -1.0384 -1.0634  0.7918
  183POPC  H16Z21078   4.820   5.369   4.474 -0.0279  0.0412  1.7861
  184POPC     N21079   5.288   5.781   6.635  0.1761  0.4697 -0.2102
  184POPC   C1221080   5.339   5.900   6.716 -0.4819 -0.0334  0.4716
  184POPC  H12A21081   5.404   5.865   6.795  2.3978  0.1907 -1.6505
  184POPC  H12B21082   5.256   5.953   6.759  0.8239  1.6109  1.0693
  184POPC   C1321083   5.219   5.819   6.513 -0.1183 -0.1233  0.5369
  184POPC  H13A21084   5.125   5.869   6.528 -0.1534 -0.5653  1.9395
  184POPC  H13B21085   5.286   5.886   6.460  0.7490 -1.0046  0.4826
  184POPC  H13C21086   5.189   5.732   6.456  1.6004 -1.4770  1.5911
  184POPC   C1421087   5.407   5.708   6.583  0.5357  0.4703 -0.3819
  184POPC  H14A21088   5.467   5.779   6.527  0.9224 -0.5687 -1.3472
  184POPC  H14B21089   5.466   5.669   6.664 -0.6369  1.5503  1.0302
  184POPC  H14C21090   5.384   5.636   6.506  2.9025 -0.0821 -0.6505
  184POPC   C1521091   5.202   5.689   6.713  0.0839 -0.1989 -0.3783
  184POPC  H15A21092   5.109   5.738   6.737 -0.1741 -1.7125  2.1088
  184POPC  H15B21093   5.249   5.658   6.805  2.3489 -1.6195 -1.9211
  184POPC  H15C21094   5.194   5.603   6.648 -0.5864 -0.7127  0.3606
  184POPC   C1121095   5.442   5.994   6.646  0.0987  0.7672 -0.6513
  184POPC  H11A21096   5.507   5.938   6.575  0.8990  0.8376  0.0059
  184POPC  H11B21097   5.505   6.041   6.724 -2.4154  0.1567  1.9104
  184POPC     P21098   5.297   6.214   6.658  0.0119  0.0719  0.0484
  184POPC   O1321099   5.394   6.320   6.697 -0.2280  0.2727  0.0834
  184POPC   O1421100   5.202   6.163   6.757 -0.1585  0.0957 -0.2222
  184POPC   O1221101   5.374   6.096   6.574  0.4301 -0.2813 -0.1143
  184POPC   O1121102   5.224   6.293   6.544 -0.6900 -0.2189  0.5678
  184POPC    C121103   5.138   6.222   6.458 -0.4022  0.4682  0.2136
  184POPC    HA21104   5.031   6.250   6.475 -0.5456  0.4928 -0.7096
  184POPC    HB21105   5.131   6.111   6.466 -2.5645  0.2239 -3.1681
  184POPC    C221106   5.170   6.250   6.311  0.2514  0.3150  0.5261
  184POPC    HS21107   5.093   6.207   6.243  0.9873 -0.5441  0.2313
  184POPC   O2121108   5.297   6.215   6.267  0.0960  0.1313 -0.1388
  184POPC   C2121109   5.309   6.085   6.252  0.4278 -0.0587 -0.0431
  184POPC   O2221110   5.240   5.997   6.295  0.3154 -0.1754 -0.0385
  184POPC   C2221111   5.419   6.051   6.152  0.2063 -0.3234 -0.6826
  184POPC   H2R21112   5.449   5.947   6.175  2.1474  0.1289 -0.9942
  184POPC   H2S21113   5.510   6.107   6.185  0.0355 -1.0686  1.1671
  184POPC    C321114   5.158   6.400   6.286 -0.1421  0.3146 -0.5304
  184POPC    HX21115   5.197   6.445   6.380  1.1240 -2.7194  0.5358
  184POPC    HY21116   5.052   6.435   6.291 -0.8599 -1.8294  2.8989
  184POPC   O3121117   5.232   6.446   6.170 -1.0683 -0.4455 -0.5891
  184POPC   C3121118   5.162   6.459   6.057 -0.4165  0.4898 -0.3946
  184POPC   O3221119   5.047   6.421   6.041 -0.3211 -0.8435 -0.4129
  184POPC   C3221120   5.247   6.522   5.944  0.3495  0.2147 -0.2594
  184POPC   H2X21121   5.354   6.524   5.976  1.1478  0.6763 -2.7511
  184POPC   H2Y21122   5.221   6.630   5.939 -0.7012  0.0293  0.7237
  184POPC   C2321123   5.392   6.085   6.001 -0.2118  0.3438  0.3670
  184POPC   H3R21124   5.388   6.195   5.988  4.1087  0.7542  1.1256
  184POPC   H3S21125   5.288   6.054   5.976 -1.6412  2.3831  3.3252
  184POPC   C2421126   5.498   6.041   5.899 -0.1388  1.0440  0.8025
  184POPC   H4R21127   5.502   5.930   5.891 -1.4432  1.0580 -0.3844
  184POPC   H4S21128   5.602   6.076   5.918  0.5323 -0.9626  1.0607
  184POPC   C2521129   5.456   6.068   5.758  0.2940 -0.2437 -0.2290
  184POPC   H5R21130   5.488   6.172   5.733  1.3577  0.4895  3.4693
  184POPC   H5S21131   5.351   6.052   5.725  1.3712 -2.4002 -3.0501
  184POPC   C2621132   5.526   5.978   5.654 -0.9238 -0.8650 -0.1576
  184POPC   H6R21133   5.630   5.976   5.691 -1.3079 -0.9536  0.9670
  184POPC   H6S21134   5.532   6.021   5.552 -2.1117 -2.8972 -1.1512
  184POPC   C2721135   5.472   5.837   5.656  0.7782 -0.4884  0.6465
  184POPC   H7R21136   5.363   5.851   5.673 -0.0542  1.0772 -4.4609
  184POPC   H7S21137   5.503   5.772   5.741  0.7416 -1.6799 -0.2193
  184POPC   C2821138   5.527   5.752   5.543 -0.3100  0.5170  0.3111
  184POPC   H8R21139   5.480   5.796   5.453  1.3298 -1.2680 -1.5336
  184POPC   H8S21140   5.482   5.650   5.552 -0.4356  0.2625 -2.3557
  184POPC   C2921141   5.683   5.742   5.533 -0.0799  0.5734  0.3053
  184POPC   H9121142   5.741   5.665   5.586 -0.1949 -2.6542 -3.7570
  184POPC  C21021143   5.766   5.799   5.447  0.0602 -0.0507 -0.0257
  184POPC  H10121144   5.873   5.776   5.458 -0.1356 -0.8358  0.2478
  184POPC  C21121145   5.732   5.904   5.342  0.0301 -0.2104 -0.1361
  184POPC  H11R21146   5.765   6.003   5.382  3.0632 -1.5527  0.9967
  184POPC  H11S21147   5.621   5.916   5.336 -0.1428 -1.3785  0.4168
  184POPC  C21221148   5.797   5.878   5.206 -0.0141  0.1689  0.3797
  184POPC  H12R21149   5.760   5.949   5.129 -0.7375 -1.3046 -0.6679
  184POPC  H12S21150   5.765   5.777   5.175  2.9198 -1.1443  1.2869
  184POPC  C21321151   5.949   5.875   5.216  0.2566 -0.1123  0.3086
  184POPC  H13R21152   5.974   5.790   5.283 -1.1744 -2.4643 -1.9460
  184POPC  H13S21153   5.995   5.962   5.268 -1.3749  0.4778  0.8266
  184POPC  C21421154   6.010   5.839   5.085 -0.1786 -0.6958 -0.1303
  184POPC  H14R21155   6.001   5.921   5.010 -1.2854 -1.8663 -1.3284
  184POPC  H14S21156   5.973   5.745   5.040  0.1020 -0.5389 -0.7040
  184POPC  C21521157   6.156   5.819   5.102 -0.1792 -0.0965 -0.2180
  184POPC  H15R21158   6.176   5.729   5.164  0.0429 -0.0316 -0.1971
  184POPC  H15S21159   6.197   5.911   5.148  1.7046 -1.0746  0.1385
  184POPC  C21621160   6.238   5.815   4.968  0.5321  0.7648 -0.9718
  184POPC  H16R21161   6.269   5.920   4.949 -1.6887  1.6102 -0.2547
  184POPC  H16S21162   6.168   5.790   4.886  1.8384 -0.7691 -1.6479
  184POPC  C21721163   6.354   5.714   4.965  0.2199  0.3445  0.6911
  184POPC  H17R21164   6.318   5.616   5.003 -2.8565  1.4176  0.8351
  184POPC  H17S21165   6.438   5.744   5.032  4.4669 -2.7737 -2.6778
  184POPC  C21821166   6.417   5.702   4.823 -0.5258 -0.1297  0.2558
  184POPC  H18R21167   6.453   5.799   4.783 -0.1156 -0.6289 -0.6115
  184POPC  H18S21168   6.340   5.670   4.750  1.3633 -0.6425 -1.6019
  184POPC  H18T21169   6.506   5.635   4.826 -0.7393 -0.6682 -2.8328
  184POPC   C3321170   5.241   6.453   5.814  1.0139  0.1249 -0.2222
  184POPC   H3X21171   5.140   6.465   5.770  0.5380  0.4674  0.9291
  184POPC   H3Y21172   5.255   6.342   5.813 -1.3157 -0.2201 -1.3557
  184POPC   C3421173   5.357   6.499   5.721  0.0490 -0.1058  0.1198
  184POPC   H4X21174   5.453   6.468   5.767  0.0321 -0.4019 -0.0496
  184POPC   H4Y21175   5.346   6.609   5.704 -4.5650 -0.2613  0.7615
  184POPC   C3521176   5.340   6.428   5.586  0.7734 -0.2874 -0.1137
  184POPC   H5X21177   5.235   6.432   5.551  0.6278 -3.0115 -0.2055
  184POPC   H5Y21178   5.361   6.320   5.596  2.9846  0.0814 -0.2602
  184POPC   C3621179   5.449   6.472   5.488  0.4150 -0.5553  0.3021
  184POPC   H6X21180   5.546   6.442   5.534  0.9427  2.2670  1.2182
  184POPC   H6Y21181   5.448   6.581   5.466  1.7108 -0.9884 -2.2515
  184POPC   C3721182   5.429   6.404   5.350  0.2258  0.1956  0.2202
  184POPC   H7X21183   5.338   6.450   5.305  1.7486  0.4516 -2.8763
  184POPC   H7Y21184   5.394   6.300   5.368 -3.5265  1.0125 -1.2793
  184POPC   C3821185   5.554   6.414   5.260 -0.5221  0.1973  0.8903
  184POPC   H8X21186   5.638   6.360   5.309  0.2257  0.2313 -0.2862
  184POPC   H8Y21187   5.591   6.517   5.239  1.1677 -0.0527  2.4519
  184POPC   C3921188   5.539   6.346   5.126  0.3131 -0.4323  0.2567
  184POPC   H9X21189   5.460   6.400   5.070  0.7605 -1.3812 -1.3463
  184POPC   H9Y21190   5.504   6.240   5.129  0.5742 -0.5063  1.6682
  184POPC  C31021191   5.669   6.361   5.047 -0.4541 -0.0303  0.5377
  184POPC  H10X21192   5.743   6.295   5.096  0.7139 -1.1482 -2.4605
  184POPC  H10Y21193   5.704   6.466   5.053  0.0769 -0.1972  0.3586
  184POPC  C31121194   5.660   6.317   4.901  0.1009 -0.1648  0.5159
  184POPC  H11X21195   5.572   6.348   4.842  1.5539 -0.3408 -1.8960
  184POPC  H11Y21196   5.654   6.206   4.907 -0.5665 -0.1255  0.6565
  184POPC  C31221197   5.788   6.355   4.826  0.2603  0.0900 -0.0201
  184POPC  H12X21198   5.873   6.297   4.868  0.4490  1.5026  1.6640
  184POPC  H12Y21199   5.805   6.464   4.841  4.3053 -0.1741 -1.6196
  184POPC  C31321200   5.792   6.344   4.670 -0.5421  0.5016 -0.3686
  184POPC  H13X21201   5.757   6.244   4.637  1.2883 -0.5625  0.7101
  184POPC  H13Y21202   5.900   6.353   4.644 -0.8012  2.8858 -0.8442
  184POPC  C31421203   5.712   6.458   4.601  0.2023 -0.0972 -0.3944
  184POPC  H14X21204   5.762   6.557   4.598  0.5818 -0.2929 -0.4957
  184POPC  H14Y21205   5.615   6.473   4.654  0.2597  0.0094 -0.3196
  184POPC  C31521206   5.668   6.422   4.460 -0.1723 -0.4041  0.8871
  184POPC  H15X21207   5.599   6.334   4.467 -0.3342 -0.1884  2.5240
  184POPC  H15Y21208   5.757   6.401   4.398  1.4535  1.7122  2.3747
  184POPC  C31621209   5.580   6.535   4.399 -0.2627 -0.5537  0.0831
  184POPC  H16X21210   5.471   6.528   4.421 -1.1576  0.1859 -3.4673
  184POPC  H16Y21211   5.596   6.532   4.289  1.8497 -2.6860  0.3435
  184POPC  H16Z21212   5.620   6.631   4.437  2.1306 -0.7745 -1.6440
  185POPC     N21213   2.565   4.142   1.613  0.0273  0.1952 -0.4951
  185POPC   C1221214   2.521   4.153   1.761  0.2614  0.3056  0.1130
  185POPC  H12A21215   2.416   4.180   1.761  0.1736  0.0464  1.3857
  185POPC  H12B21216   2.570   4.228   1.821 -2.0997  0.3379  2.1947
  185POPC   C1321217   2.461   4.063   1.544 -0.2647  1.0448 -0.9425
  185POPC  H13A21218   2.361   4.094   1.571 -0.9864 -1.5553 -0.2817
  185POPC  H13B21219   2.473   4.070   1.437  1.2475 -0.6270 -0.9323
  185POPC  H13C21220   2.465   3.958   1.571  2.4115  1.1144 -0.8310
  185POPC   C1421221   2.557   4.277   1.550  0.0281  0.5182 -0.2236
  185POPC  H14A21222   2.587   4.260   1.448 -2.0526  0.0667 -0.8270
  185POPC  H14B21223   2.457   4.319   1.556  0.0296  0.3636  1.1746
  185POPC  H14C21224   2.630   4.345   1.589  0.6422 -0.8775  1.1411
  185POPC   C1521225   2.699   4.083   1.598 -0.0940  0.6310  0.3002
  185POPC  H15A21226   2.707   3.999   1.665 -1.0741 -0.8309 -1.3114
  185POPC  H15B21227   2.779   4.151   1.624  0.3833 -0.0371  0.6130
  185POPC  H15C21228   2.712   4.053   1.495  0.6811  1.9640 -0.0163
  185POPC   C1121229   2.529   4.025   1.847 -0.2149  0.1100 -0.0089
  185POPC  H11A21230   2.475   3.937   1.804 -1.9416  0.2821  1.6980
  185POPC  H11B21231   2.484   4.060   1.942  0.0158  1.0356 -0.2294
  185POPC     P21232   2.753   4.021   1.984 -0.1021 -0.3074 -0.5317
  185POPC   O1321233   2.867   4.098   1.936  0.4582  0.4437 -0.3476
  185POPC   O1421234   2.762   3.910   2.077 -0.2751  0.5554 -0.3896
  185POPC   O1221235   2.668   3.986   1.861  0.1492 -0.0122 -0.1434
  185POPC   O1121236   2.663   4.127   2.059 -0.3891  0.2761 -0.6751
  185POPC    C121237   2.584   4.092   2.175 -0.1600  0.0864  0.5757
  185POPC    HA21238   2.559   3.984   2.181 -0.9350  0.2134 -0.1636
  185POPC    HB21239   2.482   4.135   2.166 -0.7076 -0.6609  2.6751
  185POPC    C221240   2.640   4.139   2.314 -0.2619 -0.0820  1.2621
  185POPC    HS21241   2.639   4.250   2.312 -3.3918  0.0063 -1.3334
  185POPC   O2121242   2.766   4.080   2.338  0.5362 -0.7645  0.0418
  185POPC   C2121243   2.850   4.153   2.400 -0.2775  0.0498  0.7759
  185POPC   O2221244   2.832   4.271   2.434 -0.6995  0.6066  0.2454
  185POPC   C2221245   2.972   4.066   2.429 -0.7948 -0.5155 -0.4319
  185POPC   H2R21246   2.990   4.006   2.337 -0.2968  0.4421 -0.9726
  185POPC   H2S21247   2.940   3.997   2.510 -1.1984  1.0506  0.7787
  185POPC    C321248   2.550   4.096   2.426 -0.6009  0.5055 -0.0540
  185POPC    HX21249   2.547   3.985   2.418  0.2780  0.3855  0.9783
  185POPC    HY21250   2.448   4.131   2.400 -0.9810  0.6654  1.5591
  185POPC   O3121251   2.594   4.130   2.560 -0.3475  0.3383 -0.3134
  185POPC   C3121252   2.516   4.220   2.622 -0.4390 -0.6236  0.2901
  185POPC   O3221253   2.397   4.250   2.601 -0.0621  0.5516  0.5412
  185POPC   C3221254   2.601   4.267   2.734 -0.6057 -0.4155  0.3828
  185POPC   H2X21255   2.680   4.334   2.695 -1.0169 -0.5310 -0.6919
  185POPC   H2Y21256   2.656   4.179   2.774 -1.5901 -0.4508  1.7280
  185POPC   C2321257   3.103   4.139   2.478  0.0067 -0.3923  0.0418
  185POPC   H3R21258   3.134   4.204   2.393 -0.9486  0.7158  0.5106
  185POPC   H3S21259   3.181   4.061   2.492 -1.2964 -1.7989 -0.2935
  185POPC   C2421260   3.075   4.216   2.611 -0.0499 -0.5351 -0.3428
  185POPC   H4R21261   2.986   4.281   2.612  1.4662  1.6364  0.3783
  185POPC   H4S21262   3.163   4.282   2.627  0.1775 -0.7857 -0.5401
  185POPC   C2521263   3.058   4.120   2.731  0.0131  0.5080  0.1915
  185POPC   H5R21264   3.107   4.023   2.707 -0.0869  1.1051 -2.7721
  185POPC   H5S21265   2.953   4.086   2.737  0.5351 -1.0396  1.0351
  185POPC   C2621266   3.095   4.172   2.866 -0.1711 -0.3755 -0.2134
  185POPC   H6R21267   3.033   4.255   2.906  0.3654  0.2443 -0.6563
  185POPC   H6S21268   3.204   4.192   2.866 -0.4067  1.0037 -0.1695
  185POPC   C2721269   3.088   4.060   2.967 -0.3225 -0.6390  0.0572
  185POPC   H7R21270   3.140   3.968   2.933 -1.3522 -1.3053  0.2471
  185POPC   H7S21271   2.984   4.037   3.001  0.3529 -1.0180  1.9688
  185POPC   C2821272   3.173   4.108   3.096 -0.1313  0.0890 -0.2551
  185POPC   H8R21273   3.107   4.184   3.146 -1.1754 -2.2667  2.2442
  185POPC   H8S21274   3.274   4.144   3.067 -0.4639 -0.1174 -1.7000
  185POPC   C2921275   3.191   3.996   3.197  0.2507  0.3365 -0.1142
  185POPC   H9121276   3.286   3.940   3.190  0.9324  1.3210  1.0121
  185POPC  C21021277   3.112   3.975   3.304  0.0239  0.1652 -0.4449
  185POPC  H10121278   3.140   3.887   3.365  2.8005  0.7392 -0.7521
  185POPC  C21121279   2.989   4.051   3.345  0.1146 -0.0121  0.1215
  185POPC  H11R21280   2.914   3.983   3.391 -0.6999  0.2189 -0.8235
  185POPC  H11S21281   2.937   4.081   3.251  1.5661  0.8739 -0.4320
  185POPC  C21221282   2.994   4.165   3.445 -0.1635 -1.4445  0.0465
  185POPC  H12R21283   2.899   4.222   3.450 -0.3185 -1.7811  1.3972
  185POPC  H12S21284   3.062   4.239   3.398 -1.7481 -0.7930 -1.3049
  185POPC  C21321285   3.022   4.120   3.580  0.2977  0.1614 -0.0518
  185POPC  H13R21286   3.036   4.214   3.637 -2.4186  0.0018  1.0303
  185POPC  H13S21287   3.119   4.066   3.575  2.0776  3.0885  0.4047
  185POPC  C21421288   2.921   4.022   3.635 -0.2300  0.0975 -0.1595
  185POPC  H14R21289   2.946   3.921   3.597  0.5988  0.8869 -1.8652
  185POPC  H14S21290   2.819   4.058   3.612 -0.8004 -1.5611 -0.3592
  185POPC  C21521291   2.933   4.018   3.795 -0.2109  0.2124 -0.5060
  185POPC  H15R21292   2.939   4.117   3.844 -0.8457  0.0191 -0.0332
  185POPC  H15S21293   3.024   3.962   3.826 -1.3082 -1.5881 -0.3974
  185POPC  C21621294   2.813   3.935   3.850 -0.3832  0.3710 -0.4348
  185POPC  H16R21295   2.778   3.850   3.787 -3.5041  1.5320 -0.4495
  185POPC  H16S21296   2.728   4.007   3.852 -0.0592  0.7633 -0.7487
  185POPC  C21721297   2.833   3.889   3.991  0.2577 -0.2381  0.0914
  185POPC  H17R21298   2.728   3.863   4.020  0.6742 -2.0614  0.1256
  185POPC  H17S21299   2.872   3.968   4.058 -0.6810  1.6067 -1.4288
  185POPC  C21821300   2.920   3.758   3.999 -0.2397  0.0124  0.0664
  185POPC  H18R21301   3.025   3.793   3.999 -0.4344  0.7219  2.0777
  185POPC  H18S21302   2.892   3.687   3.918 -1.8304 -0.4189  0.9496
  185POPC  H18T21303   2.913   3.706   4.097  0.4659 -1.7190 -0.7637
  185POPC   C3321304   2.529   4.317   2.854  0.0317 -0.3999  0.3539
  185POPC   H3X21305   2.452   4.248   2.895 -1.5323  1.7107  1.1584
  185POPC   H3Y21306   2.485   4.418   2.844  3.1467  1.0616  0.4092
  185POPC   C3421307   2.621   4.339   2.979  0.0607  0.0048 -0.3369
  185POPC   H4X21308   2.676   4.434   2.962  0.7051  0.2248  2.5024
  185POPC   H4Y21309   2.703   4.265   2.987  0.1199  0.2511  1.9522
  185POPC   C3521310   2.549   4.349   3.115  0.2860 -0.5623  0.7778
  185POPC   H5X21311   2.486   4.260   3.136 -2.9937  1.4759  0.2927
  185POPC   H5Y21312   2.477   4.433   3.113  1.6445  0.6280 -0.2902
  185POPC   C3621313   2.644   4.362   3.229 -0.2494  0.7353 -0.5387
  185POPC   H6X21314   2.717   4.444   3.212  1.1853 -0.9657 -3.4854
  185POPC   H6Y21315   2.696   4.264   3.224 -3.1528 -0.9304 -0.2033
  185POPC   C3721316   2.561   4.379   3.360  0.3787  0.5091 -0.1420
  185POPC   H7X21317   2.483   4.301   3.344  2.0500 -1.1072 -0.8079
  185POPC   H7Y21318   2.510   4.477   3.362 -0.8591 -0.1293  0.5514
  185POPC   C3821319   2.647   4.347   3.489  0.4157 -0.4943 -0.3040
  185POPC   H8X21320   2.715   4.435   3.499  1.9103 -1.5935 -0.5539
  185POPC   H8Y21321   2.708   4.255   3.489  0.3987 -0.5076 -0.6721
  185POPC   C3921322   2.560   4.340   3.614  0.5625 -0.6304  0.6640
  185POPC   H9X21323   2.476   4.267   3.621 -0.9515  1.0431  0.7790
  185POPC   H9Y21324   2.498   4.432   3.624  1.3102 -0.0528  0.0716
  185POPC  C31021325   2.641   4.326   3.737 -0.4084  0.2245 -0.2712
  185POPC  H10X21326   2.724   4.397   3.760  1.4958 -2.3033  1.1612
  185POPC  H10Y21327   2.689   4.227   3.748  0.1841  0.5634  0.2890
  185POPC  C31121328   2.553   4.349   3.868 -0.0711  0.1324  0.6012
  185POPC  H11X21329   2.446   4.322   3.856  0.0084 -1.0159  2.1917
  185POPC  H11Y21330   2.546   4.455   3.903 -0.3789  0.2129  0.3016
  185POPC  C31221331   2.616   4.281   3.987  0.8391 -0.7655  0.3268
  185POPC  H12X21332   2.718   4.323   3.978  0.3050  0.5505  0.1712
  185POPC  H12Y21333   2.620   4.171   3.973  1.9987 -0.9792  2.0297
  185POPC  C31321334   2.552   4.316   4.124 -0.2439 -0.2255 -0.6338
  185POPC  H13X21335   2.441   4.307   4.125 -0.1635 -1.3311  0.5100
  185POPC  H13Y21336   2.590   4.417   4.154 -1.7958 -0.0813  0.9609
  185POPC  C31421337   2.602   4.227   4.233 -0.2476 -0.3931  1.0706
  185POPC  H14X21338   2.708   4.250   4.256  0.4913 -1.2869 -1.1409
  185POPC  H14Y21339   2.601   4.124   4.191 -0.9843  0.2363 -0.5550
  185POPC  C31521340   2.538   4.236   4.362  0.4897 -0.7306  0.3850
  185POPC  H15X21341   2.431   4.245   4.334  0.8630 -1.5573 -1.4310
  185POPC  H15Y21342   2.559   4.328   4.420 -2.2863 -0.4913  1.1763
  185POPC  C31621343   2.554   4.112   4.445 -0.1584  0.0998  0.2249
  185POPC  H16X21344   2.542   4.145   4.551  1.2699 -0.0527  0.4513
  185POPC  H16Y21345   2.659   4.076   4.444  0.0965  0.4592  3.5329
  185POPC  H16Z21346   2.484   4.029   4.420 -0.9956  1.2605 -1.5301
  186POPC     N21347   4.524   6.303   1.808  0.4508  0.1163  0.7624
  186POPC   C1221348   4.597   6.331   1.938  0.7062 -0.0171  0.1890
  186POPC  H12A21349   4.579   6.435   1.961  2.1309  0.0786  1.0119
  186POPC  H12B21350   4.705   6.328   1.931  0.7362 -0.5652  0.7712
  186POPC   C1321351   4.555   6.173   1.747 -0.0042  0.0083 -0.2464
  186POPC  H13A21352   4.488   6.169   1.663 -0.6947  1.3557  0.2135
  186POPC  H13B21353   4.656   6.169   1.709  0.5106 -0.7638  1.0965
  186POPC  H13C21354   4.536   6.089   1.813  1.0893 -1.3993 -1.6332
  186POPC   C1421355   4.381   6.311   1.831 -0.3345 -0.4550 -0.8192
  186POPC  H14A21356   4.359   6.405   1.878 -1.4391 -2.6789  3.6749
  186POPC  H14B21357   4.313   6.296   1.748 -0.9960  0.1296 -0.3901
  186POPC  H14C21358   4.353   6.231   1.899 -0.5326 -0.1021 -0.4834
  186POPC   C1521359   4.558   6.407   1.705 -0.2337  0.4898  0.5365
  186POPC  H15A21360   4.525   6.374   1.608 -0.0226  0.7953  0.3577
  186POPC  H15B21361   4.665   6.425   1.703 -0.0592 -0.5627 -0.6704
  186POPC  H15C21362   4.510   6.500   1.734  0.3713  1.6464 -1.8389
  186POPC   C1121363   4.561   6.248   2.059 -0.3441  0.4622  0.1896
  186POPC  H11A21364   4.459   6.270   2.096 -0.7586 -1.6101  0.3894
  186POPC  H11B21365   4.629   6.292   2.135  0.8628 -2.3459  0.8762
  186POPC     P21366   4.489   6.005   2.101 -0.1834  0.0077  0.0061
  186POPC   O1321367   4.546   5.875   2.080 -0.0224 -0.2628  0.3326
  186POPC   O1421368   4.351   6.037   2.055 -0.2311  0.0815 -0.7819
  186POPC   O1221369   4.588   6.111   2.042 -0.8078  0.4256 -0.0966
  186POPC   O1121370   4.496   6.039   2.254  0.2434  0.4086  0.3551
  186POPC    C121371   4.611   5.990   2.331 -0.3456 -1.4909  0.2419
  186POPC    HA21372   4.677   6.077   2.350 -1.7768  0.5317 -3.0842
  186POPC    HB21373   4.671   5.907   2.290  0.2337 -2.6789  3.2102
  186POPC    C221374   4.563   5.946   2.470 -0.3780  0.4028  0.5544
  186POPC    HS21375   4.480   5.875   2.452  1.2410 -1.3214 -0.3940
  186POPC   O2121376   4.524   6.059   2.547 -0.3305 -0.6425 -0.2841
  186POPC   C2121377   4.429   6.044   2.637  0.1038 -0.1000 -0.1364
  186POPC   O2221378   4.355   5.948   2.647 -0.0829 -0.3597  0.4343
  186POPC   C2221379   4.441   6.172   2.731  0.3133  0.4926  0.2242
  186POPC   H2R21380   4.379   6.142   2.818  0.2412 -1.3291 -0.4091
  186POPC   H2S21381   4.382   6.251   2.680  3.0586  2.9091  0.4945
  186POPC    C321382   4.677   5.864   2.529 -0.9241 -0.5048  0.1964
  186POPC    HX21383   4.767   5.928   2.546  0.5893 -2.6383  0.5851
  186POPC    HY21384   4.717   5.786   2.461 -1.1836 -0.4302 -0.0406
  186POPC   O3121385   4.640   5.810   2.661  1.2153 -0.3537 -0.3961
  186POPC   C3121386   4.553   5.713   2.649  0.4962 -0.3593 -0.2381
  186POPC   O3221387   4.532   5.651   2.542 -0.8003  0.2102 -0.4863
  186POPC   C3221388   4.509   5.679   2.788 -0.2518  0.1116 -0.5355
  186POPC   H2X21389   4.532   5.763   2.856  1.5031 -0.0251 -0.9098
  186POPC   H2Y21390   4.586   5.603   2.814  0.6343  1.5012  1.0646
  186POPC   C2321391   4.582   6.211   2.780 -0.2596 -0.5903 -0.3281
  186POPC   H3R21392   4.588   6.307   2.835  3.0361 -0.5063 -0.6468
  186POPC   H3S21393   4.655   6.234   2.699  1.6691  1.5581  1.8812
  186POPC   C2421394   4.655   6.110   2.872  0.0398 -0.2659 -0.1036
  186POPC   H4R21395   4.762   6.140   2.878  0.1154 -0.8332  2.4681
  186POPC   H4S21396   4.643   6.016   2.814  0.3897 -0.4733  0.1536
  186POPC   C2521397   4.575   6.069   3.003 -0.4872  0.4137  0.1235
  186POPC   H5R21398   4.480   6.021   2.970  0.5887 -1.0170 -1.0328
  186POPC   H5S21399   4.556   6.166   3.055 -0.7023 -0.5045  1.8100
  186POPC   C2621400   4.657   5.983   3.095 -0.1467 -0.6349 -0.0311
  186POPC   H6R21401   4.759   6.025   3.100 -0.7301  1.1358 -1.9689
  186POPC   H6S21402   4.672   5.883   3.049  2.1321  0.0164 -0.8314
  186POPC   C2721403   4.589   5.968   3.228 -0.1330  0.2054 -0.4266
  186POPC   H7R21404   4.482   5.945   3.213  0.3481 -1.8454 -0.9692
  186POPC   H7S21405   4.594   6.062   3.287 -0.2396  0.7342 -1.2498
  186POPC   C2821406   4.644   5.843   3.302 -0.4555  0.2611 -0.2743
  186POPC   H8R21407   4.655   5.753   3.238 -1.0638  0.7523 -1.0861
  186POPC   H8S21408   4.574   5.830   3.387 -0.4604  0.0221 -0.3145
  186POPC   C2921409   4.773   5.879   3.368 -0.0623  0.0214 -0.1494
  186POPC   H9121410   4.834   5.954   3.315  0.3406  0.2883  0.6813
  186POPC  C21021411   4.818   5.831   3.479 -0.2002  0.7569  0.0652
  186POPC  H10121412   4.922   5.856   3.506 -0.0687 -0.0460  0.3333
  186POPC  C21121413   4.751   5.731   3.578 -0.0090  0.3277  0.0596
  186POPC  H11R21414   4.777   5.624   3.560 -3.0853 -0.2603 -1.5787
  186POPC  H11S21415   4.647   5.713   3.543 -0.0387  1.9450 -0.7588
  186POPC  C21221416   4.769   5.783   3.722  0.1948 -0.0793  0.0092
  186POPC  H12R21417   4.734   5.888   3.718  0.9099  0.2787  2.1128
  186POPC  H12S21418   4.877   5.783   3.744  0.2799 -1.0746 -0.3500
  186POPC  C21321419   4.673   5.721   3.824  0.4034  0.0402  0.5400
  186POPC  H13R21420   4.695   5.613   3.833 -0.6901 -0.1736  0.6972
  186POPC  H13S21421   4.569   5.718   3.785  0.6447  1.1103 -0.2417
  186POPC  C21421422   4.677   5.774   3.968 -0.1100 -0.1136  0.3004
  186POPC  H14R21423   4.627   5.874   3.970  1.9690  0.9786  1.8929
  186POPC  H14S21424   4.781   5.774   4.009  0.9608 -3.0741 -2.0912
  186POPC  C21521425   4.585   5.681   4.053  0.0902 -0.7764  0.1547
  186POPC  H15R21426   4.628   5.580   4.068 -2.2597 -1.6255  1.7495
  186POPC  H15S21427   4.490   5.674   3.995  0.1613 -0.5917  0.0131
  186POPC  C21621428   4.560   5.730   4.197  0.5491 -0.1576 -0.2165
  186POPC  H16R21429   4.511   5.829   4.188 -0.5077 -0.7678 -1.5249
  186POPC  H16S21430   4.651   5.730   4.261 -0.5043 -0.9120  1.3462
  186POPC  C21721431   4.474   5.622   4.268 -0.4474  0.6212  0.7969
  186POPC  H17R21432   4.526   5.524   4.272 -0.8057  0.3905  0.0702
  186POPC  H17S21433   4.381   5.598   4.213  1.1369 -5.2628 -0.0340
  186POPC  C21821434   4.432   5.652   4.412 -0.8827  0.1985 -0.4941
  186POPC  H18R21435   4.510   5.708   4.468 -1.7783 -1.2347  2.4291
  186POPC  H18S21436   4.352   5.729   4.406  0.6434  1.7664 -1.6394
  186POPC  H18T21437   4.391   5.564   4.467  3.7688 -2.1548 -0.2404
  186POPC   C3321438   4.366   5.625   2.800 -0.2465  0.3181 -0.6721
  186POPC   H3X21439   4.364   5.514   2.804 -3.4812  0.2587 -0.7442
  186POPC   H3Y21440   4.296   5.661   2.722 -2.3225 -1.0802  0.4516
  186POPC   C3421441   4.293   5.678   2.926  0.0242 -0.1475 -0.4979
  186POPC   H4X21442   4.188   5.695   2.895  0.1374  4.0098  0.7467
  186POPC   H4Y21443   4.333   5.777   2.955  0.3852  0.2323 -2.1631
  186POPC   C3521444   4.283   5.578   3.051  0.1797 -0.3182  0.4185
  186POPC   H5X21445   4.242   5.480   3.017  1.2404 -0.2222 -1.2278
  186POPC   H5Y21446   4.206   5.625   3.116 -0.4460  0.6519 -0.9897
  186POPC   C3621447   4.410   5.570   3.137 -0.6620  0.4056 -0.2467
  186POPC   H6X21448   4.429   5.670   3.182  1.6289 -0.7375  1.5381
  186POPC   H6Y21449   4.496   5.541   3.072  0.4488  1.1595  0.8500
  186POPC   C3721450   4.394   5.470   3.249  0.1810  0.7862 -0.1286
  186POPC   H7X21451   4.371   5.363   3.228  0.5705  0.8207 -0.7645
  186POPC   H7Y21452   4.322   5.507   3.325 -0.2170 -1.0660  0.4453
  186POPC   C3821453   4.525   5.471   3.336  0.3530 -0.3811 -0.0362
  186POPC   H8X21454   4.553   5.569   3.378 -0.8363 -0.4081  0.8753
  186POPC   H8Y21455   4.607   5.430   3.273 -0.0327 -1.5080  0.1723
  186POPC   C3921456   4.505   5.382   3.459  0.0964  0.1721 -0.1433
  186POPC   H9X21457   4.608   5.355   3.488  0.6224  1.6948 -0.4763
  186POPC   H9Y21458   4.471   5.282   3.425  0.1261 -0.0665  0.5207
  186POPC  C31021459   4.428   5.456   3.570 -0.5519 -0.6947  0.3583
  186POPC  H10X21460   4.323   5.474   3.539 -0.8024 -0.5965  1.2294
  186POPC  H10Y21461   4.487   5.549   3.583 -0.1876 -0.9746  0.7617
  186POPC  C31121462   4.423   5.380   3.714 -0.7524  0.2046 -0.3203
  186POPC  H11X21463   4.354   5.294   3.720 -0.1411 -0.2103  1.2024
  186POPC  H11Y21464   4.405   5.462   3.787  1.1032  0.3625  0.0240
  186POPC  C31221465   4.563   5.329   3.749 -1.5038 -0.5806 -0.1129
  186POPC  H12X21466   4.621   5.419   3.721 -1.9512 -0.5809 -1.0885
  186POPC  H12Y21467   4.603   5.244   3.689  2.3346  0.1926  1.0603
  186POPC  C31321468   4.594   5.301   3.899 -0.0902 -0.2676 -0.1834
  186POPC  H13X21469   4.604   5.395   3.958 -1.6820  2.0484 -3.2931
  186POPC  H13Y21470   4.692   5.249   3.910  0.2029  0.5873  1.6098
  186POPC  C31421471   4.488   5.222   3.987  0.0961 -0.3567 -0.3344
  186POPC  H14X21472   4.483   5.121   3.940  0.9782  0.3782 -2.1156
  186POPC  H14Y21473   4.394   5.281   3.975  1.0765  1.4449  0.5402
  186POPC  C31521474   4.542   5.222   4.134  0.1878 -0.4315 -0.0758
  186POPC  H15X21475   4.453   5.190   4.192 -0.3268  1.9573  0.5847
  186POPC  H15Y21476   4.586   5.322   4.155 -1.1303  0.7403 -2.4019
  186POPC  C31621477   4.656   5.118   4.147 -0.2061 -0.7291 -0.2461
  186POPC  H16X21478   4.706   5.134   4.245  1.1270  1.8010 -1.2479
  186POPC  H16Y21479   4.738   5.142   4.076 -1.0040  1.2255 -0.5722
  186POPC  H16Z21480   4.619   5.014   4.138 -0.2346 -0.7386 -0.0347
  187POPC     N21481   2.234   3.073   2.098 -0.2502  0.1055 -0.3915
  187POPC   C1221482   2.365   3.044   2.168 -0.0812  0.0364 -0.3850
  187POPC  H12A21483   2.450   3.089   2.119 -1.3843  1.9368 -0.9862
  187POPC  H12B21484   2.383   2.938   2.152 -3.1466 -0.7873  0.8448
  187POPC   C1321485   2.133   2.971   2.123  0.0768 -0.2665 -0.3496
  187POPC  H13A21486   2.043   2.992   2.067 -1.5957 -0.2488  2.1797
  187POPC  H13B21487   2.161   2.870   2.099  1.7098 -0.2007  1.0873
  187POPC  H13C21488   2.107   2.981   2.228  0.1312 -2.6528 -0.0518
  187POPC   C1421489   2.176   3.201   2.137  1.0206 -0.2825  0.0513
  187POPC  H14A21490   2.082   3.234   2.095  2.2375  0.8554 -1.9401
  187POPC  H14B21491   2.152   3.195   2.242 -2.7305 -4.8197 -0.7543
  187POPC  H14C21492   2.241   3.283   2.109 -1.4025  1.3926 -0.9663
  187POPC   C1521493   2.272   3.073   1.956 -0.1966  0.4532 -0.1037
  187POPC  H15A21494   2.176   3.085   1.907 -1.3592  0.2284  1.9974
  187POPC  H15B21495   2.323   2.985   1.920 -3.1497 -0.8472 -1.5433
  187POPC  H15C21496   2.337   3.152   1.922  0.9049 -0.9238 -1.2803
  187POPC   C1121497   2.374   3.076   2.323 -0.3995  0.5324  0.0238
  187POPC  H11A21498   2.390   3.186   2.320  2.4513  0.2068 -3.4806
  187POPC  H11B21499   2.464   3.021   2.357 -1.9622 -1.8387  0.5573
  187POPC     P21500   2.244   2.892   2.457  0.0326  0.1607  0.2119
  187POPC   O1321501   2.363   2.800   2.437 -0.5862 -0.3821 -0.2311
  187POPC   O1421502   2.108   2.835   2.435  0.2939 -0.1921  0.2124
  187POPC   O1221503   2.255   3.030   2.383 -0.5609 -0.0721 -0.2392
  187POPC   O1121504   2.252   2.925   2.610 -0.2995 -0.0521 -0.0931
  187POPC    C121505   2.237   3.061   2.661 -0.1060 -0.9080 -0.4440
  187POPC    HA21506   2.210   3.133   2.581 -0.1967  0.3153  0.6528
  187POPC    HB21507   2.336   3.103   2.688  0.2497 -0.6046 -2.0907
  187POPC    C221508   2.134   3.081   2.782  0.3104  0.1518 -0.3447
  187POPC    HS21509   2.127   3.188   2.811  0.1244 -0.1739  0.8452
  187POPC   O2121510   2.176   2.998   2.892 -0.3548  0.0580 -0.1450
  187POPC   C2121511   2.297   3.033   2.951 -0.2661 -0.6052 -0.1296
  187POPC   O2221512   2.350   3.140   2.914 -0.8431 -0.0203 -0.1835
  187POPC   C2221513   2.344   2.928   3.061 -0.1570 -0.2535 -0.0179
  187POPC   H2R21514   2.443   2.894   3.022 -0.5635  0.0904 -1.4185
  187POPC   H2S21515   2.286   2.835   3.046  0.7137 -0.8001 -0.0720
  187POPC    C321516   2.002   3.043   2.727  0.6012  0.5181 -0.6581
  187POPC    HX21517   2.000   2.932   2.713  0.5403  0.2899  0.9429
  187POPC    HY21518   1.976   3.094   2.632 -1.6974  0.0274 -0.3529
  187POPC   O3121519   1.895   3.069   2.822  0.1215 -0.1216  0.3073
  187POPC   C3121520   1.814   3.170   2.799  0.3712 -0.3795 -0.5809
  187POPC   O3221521   1.818   3.243   2.703  0.1614 -0.0572 -0.4340
  187POPC   C3221522   1.702   3.191   2.905  0.1694 -0.2017 -0.3446
  187POPC   H2X21523   1.618   3.129   2.866 -0.8825  0.6073  0.5634
  187POPC   H2Y21524   1.671   3.298   2.909  2.2435  0.4330  0.2360
  187POPC   C2321525   2.354   2.981   3.203 -0.1684  0.1437 -0.1360
  187POPC   H3R21526   2.261   3.019   3.251 -1.9929 -1.7420 -1.9257
  187POPC   H3S21527   2.419   3.070   3.218  2.9208 -2.2925  2.6303
  187POPC   C2421528   2.405   2.872   3.299 -0.2159  0.1413  0.1683
  187POPC   H4R21529   2.500   2.822   3.270 -1.1743 -2.2507  0.8806
  187POPC   H4S21530   2.326   2.794   3.296  0.0122 -0.0628 -0.5138
  187POPC   C2521531   2.404   2.925   3.446  0.3247  0.1951  0.6448
  187POPC   H5R21532   2.304   2.974   3.454  0.0654  0.5726 -3.1663
  187POPC   H5S21533   2.477   3.006   3.465 -0.9667  1.5235  0.1711
  187POPC   C2621534   2.422   2.815   3.553  0.1728 -0.7030  0.0331
  187POPC   H6R21535   2.327   2.757   3.560  0.8793 -1.8086  0.7921
  187POPC   H6S21536   2.415   2.867   3.651  0.3309  0.1518 -0.4012
  187POPC   C2721537   2.549   2.744   3.538  0.2319  0.1763 -0.1019
  187POPC   H7R21538   2.630   2.819   3.537 -0.2579  0.7444  0.9307
  187POPC   H7S21539   2.573   2.692   3.443  0.7473 -0.9734  0.6329
  187POPC   C2821540   2.585   2.650   3.651  0.1671  0.6656  0.5953
  187POPC   H8R21541   2.615   2.709   3.740 -1.1015 -0.0163  1.5054
  187POPC   H8S21542   2.672   2.594   3.612 -0.5456  0.5029 -0.8105
  187POPC   C2921543   2.481   2.548   3.694 -0.7191  0.9356 -0.0273
  187POPC   H9121544   2.457   2.476   3.615  0.1738  2.7713 -2.0532
  187POPC  C21021545   2.392   2.556   3.795  0.1929  0.3032  0.3774
  187POPC  H10121546   2.337   2.468   3.832 -0.5228  0.3278 -0.5871
  187POPC  C21121547   2.400   2.664   3.896  0.5019 -0.1168 -0.2243
  187POPC  H11R21548   2.297   2.689   3.927 -0.0251 -3.2673  1.0170
  187POPC  H11S21549   2.449   2.757   3.861 -0.5255 -0.3535 -2.4535
  187POPC  C21221550   2.472   2.608   4.028 -0.3690 -0.3152  0.2352
  187POPC  H12R21551   2.403   2.537   4.079 -0.6376  0.5256  1.0675
  187POPC  H12S21552   2.482   2.687   4.106 -1.1169 -0.7326  0.7739
  187POPC  C21321553   2.594   2.515   4.010  0.2457 -0.0308 -0.4198
  187POPC  H13R21554   2.663   2.552   3.931  0.2685 -1.4504 -1.0975
  187POPC  H13S21555   2.556   2.416   3.977 -0.4342 -0.4743  1.5727
  187POPC  C21421556   2.662   2.492   4.144  0.3363 -0.3823 -0.6014
  187POPC  H14R21557   2.585   2.447   4.210  0.9236 -1.6696 -0.7710
  187POPC  H14S21558   2.684   2.589   4.194  1.2989 -2.1980  2.7825
  187POPC  C21521559   2.788   2.402   4.144 -0.6000  0.0663  0.1156
  187POPC  H15R21560   2.831   2.421   4.245 -2.5676  0.1015  1.0047
  187POPC  H15S21561   2.863   2.437   4.071 -1.1304  0.2322 -0.3605
  187POPC  C21621562   2.753   2.256   4.117 -0.2030  0.3649  0.5648
  187POPC  H16R21563   2.722   2.237   4.012 -2.2061  3.9412  0.3316
  187POPC  H16S21564   2.666   2.214   4.172 -0.0118 -3.9511 -2.0581
  187POPC  C21721565   2.873   2.166   4.150  0.1606 -0.1454  0.5552
  187POPC  H17R21566   2.848   2.061   4.127  0.6737 -0.4763  1.4572
  187POPC  H17S21567   2.891   2.170   4.259 -0.7810  1.6177  0.6909
  187POPC  C21821568   2.995   2.198   4.063  0.1140 -0.0951  0.2950
  187POPC  H18R21569   2.979   2.229   3.958  3.3647  1.8858  0.2395
  187POPC  H18S21570   3.062   2.110   4.071  0.1702  0.0557  1.7769
  187POPC  H18T21571   3.043   2.284   4.115  0.3319  0.5915 -1.0170
  187POPC   C3321572   1.736   3.140   3.048 -0.2221  0.6019 -0.5633
  187POPC   H3X21573   1.753   3.030   3.049 -0.5903  0.5268 -1.5914
  187POPC   H3Y21574   1.647   3.154   3.113 -0.1352  0.6719 -0.4600
  187POPC   C3421575   1.857   3.213   3.096  0.0754 -0.1448 -0.2987
  187POPC   H4X21576   1.862   3.324   3.084 -0.4449  0.0780  1.2673
  187POPC   H4Y21577   1.942   3.175   3.036 -0.4746 -3.1346  0.6510
  187POPC   C3521578   1.889   3.180   3.245  0.3514 -0.7615 -0.1763
  187POPC   H5X21579   1.807   3.207   3.314  0.6669  0.0884 -0.1263
  187POPC   H5Y21580   1.981   3.234   3.278  1.8859 -2.3670 -1.5965
  187POPC   C3621581   1.914   3.028   3.262 -0.1538 -0.2923 -0.4954
  187POPC   H6X21582   1.975   3.007   3.171  0.5186  2.2877 -0.7413
  187POPC   H6Y21583   1.817   2.976   3.253 -0.0796 -0.4454 -0.4183
  187POPC   C3721584   1.992   2.987   3.381 -0.6420  0.1416  0.2130
  187POPC   H7X21585   2.100   3.007   3.365 -1.2890  2.5196 -1.6105
  187POPC   H7Y21586   1.984   2.876   3.378 -1.2329  0.2076 -0.8946
  187POPC   C3821587   1.925   3.035   3.509 -0.1658 -0.2562  0.3296
  187POPC   H8X21588   1.816   3.035   3.487 -0.6132  0.7306  2.3454
  187POPC   H8Y21589   1.939   3.145   3.520 -2.3102  0.4801 -2.7734
  187POPC   C3921590   1.948   2.950   3.628  0.3462 -0.0597 -0.1038
  187POPC   H9X21591   2.054   2.940   3.659 -0.1303  1.7055  2.3657
  187POPC   H9Y21592   1.896   2.855   3.600 -1.8668  0.8483  0.7319
  187POPC  C31021593   1.880   2.993   3.762 -0.4436 -0.0331 -1.0244
  187POPC  H10X21594   1.775   3.023   3.743 -0.3548  0.6812 -0.4111
  187POPC  H10Y21595   1.941   3.074   3.807 -0.5565 -0.1788 -0.6071
  187POPC  C31121596   1.870   2.888   3.871 -0.0337  0.5325  0.1781
  187POPC  H11X21597   1.807   2.812   3.820  2.2552  0.4672 -2.8301
  187POPC  H11Y21598   1.804   2.944   3.941 -1.2118  1.3703 -1.5461
  187POPC  C31221599   1.999   2.833   3.935 -0.2667  1.1743 -0.1680
  187POPC  H12X21600   2.058   2.920   3.971  0.5162  0.0238  1.4909
  187POPC  H12Y21601   2.061   2.777   3.862 -1.4497 -2.3596  1.2935
  187POPC  C31321602   1.960   2.739   4.047  0.1916  0.3148 -0.0154
  187POPC  H13X21603   1.896   2.797   4.118 -0.1431  1.5274 -1.2679
  187POPC  H13Y21604   2.055   2.729   4.103 -0.1958  1.8035  1.0008
  187POPC  C31421605   1.891   2.606   4.013  0.7121 -0.0312  0.4462
  187POPC  H14X21606   1.955   2.551   3.940 -0.0093 -1.8242  1.1176
  187POPC  H14Y21607   1.796   2.621   3.958  1.6712  1.2005 -0.9758
  187POPC  C31521608   1.863   2.516   4.130  0.1462 -0.1764 -0.9043
  187POPC  H15X21609   1.963   2.489   4.168 -0.1664 -0.8931 -0.5851
  187POPC  H15Y21610   1.841   2.413   4.095  0.4168 -0.3533 -0.5475
  187POPC  C31621611   1.778   2.566   4.244 -0.0278  0.2857 -0.2272
  187POPC  H16X21612   1.749   2.490   4.320 -0.1345  1.7139  1.1975
  187POPC  H16Y21613   1.677   2.596   4.210 -0.6025  0.9323  1.8876
  187POPC  H16Z21614   1.831   2.651   4.290  1.5204 -1.1170  0.6786
  188POPC     N21615   5.960   3.625   2.328  0.8669 -0.1521 -0.0621
  188POPC   C1221616   5.977   3.654   2.482 -0.4692 -0.2023 -0.1698
  188POPC  H12A21617   6.051   3.732   2.480  0.3580 -0.9910 -1.4814
  188POPC  H12B21618   6.013   3.564   2.530 -1.6744 -1.5755 -1.7444
  188POPC   C1321619   6.095   3.639   2.266 -0.3007 -0.0300  0.4734
  188POPC  H13A21620   6.090   3.601   2.165 -1.2729  1.3289 -0.0257
  188POPC  H13B21621   6.138   3.738   2.262  0.6721 -0.3674  1.9217
  188POPC  H13C21622   6.159   3.567   2.314 -0.1553 -1.2656 -1.4685
  188POPC   C1421623   5.915   3.486   2.309  0.6166  0.0826 -0.3086
  188POPC  H14A21624   5.812   3.474   2.339  0.6521  1.0849  0.2485
  188POPC  H14B21625   5.912   3.454   2.205 -0.3954  0.4360 -0.3998
  188POPC  H14C21626   5.974   3.410   2.357  1.6767 -0.2324 -2.0032
  188POPC   C1521627   5.869   3.727   2.266  0.0490  0.3990 -0.7931
  188POPC  H15A21628   5.885   3.825   2.308  0.5470 -0.0804  0.1686
  188POPC  H15B21629   5.766   3.702   2.291  0.1064 -1.5578 -2.2663
  188POPC  H15C21630   5.882   3.731   2.159 -0.9677  0.3753 -0.9306
  188POPC   C1121631   5.849   3.688   2.563 -0.8272 -0.5295  0.2592
  188POPC  H11A21632   5.882   3.700   2.669  2.9520  1.0620 -0.9325
  188POPC  H11B21633   5.774   3.606   2.569 -0.2749 -0.9796  1.6448
  188POPC     P21634   5.821   3.949   2.572  0.1865  0.3051 -0.5474
  188POPC   O1321635   5.754   4.059   2.504  0.3866  0.3517 -0.4645
  188POPC   O1421636   5.970   3.956   2.587 -0.4060  0.3669  0.2019
  188POPC   O1221637   5.778   3.803   2.516  0.2301 -0.1936 -0.0798
  188POPC   O1121638   5.772   3.947   2.719 -0.1660  0.2848 -0.2295
  188POPC    C121639   5.648   3.924   2.779  0.1776  0.3181 -0.3936
  188POPC    HA21640   5.638   3.813   2.789  0.9426  0.1312 -1.5747
  188POPC    HB21641   5.563   3.962   2.717 -0.5499 -1.2790 -0.4332
  188POPC    C221642   5.644   3.965   2.934 -0.2010  0.4934  0.3724
  188POPC    HS21643   5.619   4.073   2.943  0.7315  0.7533 -0.0027
  188POPC   O2121644   5.769   3.941   2.996 -0.0537 -0.2012 -0.2036
  188POPC   C2121645   5.860   4.040   3.008  0.2831  0.5040 -0.7535
  188POPC   O2221646   5.846   4.149   2.958  0.7114 -0.0173  0.4530
  188POPC   C2221647   5.979   3.994   3.095  0.1303  0.1716  0.0396
  188POPC   H2R21648   6.056   4.048   3.037 -0.3605  0.3475 -0.4572
  188POPC   H2S21649   5.991   3.885   3.081  1.3305  0.5653 -2.4992
  188POPC    C321650   5.533   3.885   3.015 -0.6742 -0.0090 -0.2465
  188POPC    HX21651   5.550   3.777   2.997  0.7632  0.5093 -2.3831
  188POPC    HY21652   5.431   3.903   2.975 -0.8156 -1.1538 -0.4431
  188POPC   O3121653   5.540   3.915   3.156  0.0832 -0.7161  0.2591
  188POPC   C3121654   5.495   3.816   3.235  0.2611  0.0770 -0.0740
  188POPC   O3221655   5.442   3.710   3.196 -1.0250  0.1273 -0.0080
  188POPC   C3221656   5.514   3.850   3.377 -0.4327  0.2072 -0.4684
  188POPC   H2X21657   5.619   3.879   3.399  0.0052 -2.6800  1.9957
  188POPC   H2Y21658   5.503   3.756   3.436  1.1824  0.1499 -0.1917
  188POPC   C2321659   5.980   4.056   3.236  1.5429 -0.1099  0.5320
  188POPC   H3R21660   5.925   4.153   3.244  0.0172 -0.9638  0.8734
  188POPC   H3S21661   6.083   4.082   3.269  0.6621  2.8985  1.2378
  188POPC   C2421662   5.919   3.956   3.337 -0.0642  0.0826  0.5534
  188POPC   H4R21663   5.993   3.873   3.350  0.2982  0.0035 -1.7323
  188POPC   H4S21664   5.824   3.917   3.295  0.0311 -1.5400  1.7307
  188POPC   C2521665   5.892   4.040   3.468  0.9162  0.8409 -0.2015
  188POPC   H5R21666   5.822   4.123   3.447 -1.2759 -1.0302 -0.6986
  188POPC   H5S21667   5.987   4.089   3.499  0.2248  0.9519  1.9026
  188POPC   C2621668   5.847   3.956   3.580 -0.2420 -0.3281 -0.2164
  188POPC   H6R21669   5.914   3.867   3.590  1.6433  0.8814 -1.4332
  188POPC   H6S21670   5.745   3.919   3.557 -0.1988  0.2406 -1.3637
  188POPC   C2721671   5.846   4.031   3.716 -0.8086  0.9779  0.7892
  188POPC   H7R21672   5.823   3.958   3.797  1.2089 -2.3273 -1.3549
  188POPC   H7S21673   5.765   4.106   3.708 -1.1879  0.8563  2.8937
  188POPC   C2821674   5.979   4.095   3.754  0.6441 -0.3551 -1.0091
  188POPC   H8R21675   5.961   4.151   3.849  0.6167 -1.5110 -0.3118
  188POPC   H8S21676   6.006   4.171   3.678  0.9664 -1.9512 -2.5409
  188POPC   C2921677   6.092   3.992   3.773  0.1263 -0.1204 -0.1758
  188POPC   H9121678   6.091   3.916   3.693  0.3741 -0.8646  0.5050
  188POPC  C21021679   6.182   3.982   3.876 -0.0221  0.4903  0.4878
  188POPC  H10121680   6.259   3.904   3.885  0.5301  0.8646 -0.7349
  188POPC  C21121681   6.183   4.090   3.983 -0.4284 -0.1924  0.0486
  188POPC  H11R21682   6.118   4.179   3.969  0.0651  0.9108  3.6298
  188POPC  H11S21683   6.284   4.135   3.994 -0.5379  0.5866 -1.7906
  188POPC  C21221684   6.141   4.018   4.116  0.5460 -0.3535  0.4662
  188POPC  H12R21685   6.045   3.971   4.088  0.5326 -1.6978  2.5577
  188POPC  H12S21686   6.106   4.095   4.189  1.1765 -0.3231  0.7434
  188POPC  C21321687   6.238   3.923   4.189  0.1970 -0.6160 -0.5035
  188POPC  H13R21688   6.319   3.990   4.225  0.1482 -1.2438  0.8079
  188POPC  H13S21689   6.291   3.860   4.114  0.2026 -1.0714 -0.1178
  188POPC  C21421690   6.192   3.844   4.311  0.0965  1.1128 -0.7852
  188POPC  H14R21691   6.273   3.789   4.363 -3.4943 -1.4750  2.6374
  188POPC  H14S21692   6.113   3.772   4.282 -0.8870  1.3453  1.1981
  188POPC  C21521693   6.130   3.928   4.416  0.0769 -0.6825 -0.6178
  188POPC  H15R21694   6.030   3.959   4.378  0.4531 -0.0467 -1.1255
  188POPC  H15S21695   6.183   4.026   4.424 -1.3571  0.0428  0.4735
  188POPC  C21621696   6.107   3.869   4.555 -0.3829  0.2067 -1.1479
  188POPC  H16R21697   6.054   3.772   4.553  0.7379 -0.5439  1.4297
  188POPC  H16S21698   6.041   3.932   4.618  1.4041 -0.4839  1.5619
  188POPC  C21721699   6.235   3.845   4.645 -0.0366 -0.6481 -0.1581
  188POPC  H17R21700   6.285   3.942   4.665  1.7480 -1.6629  0.5036
  188POPC  H17S21701   6.314   3.783   4.598  2.7826 -0.5811  3.9534
  188POPC  C21821702   6.196   3.769   4.780 -0.4520 -0.6801  0.0787
  188POPC  H18R21703   6.283   3.765   4.848 -1.9691 -0.1055  2.1718
  188POPC  H18S21704   6.166   3.664   4.758  0.1990 -0.6253 -1.1439
  188POPC  H18T21705   6.117   3.826   4.834 -0.3469  1.1914 -1.6363
  188POPC   C3321706   5.416   3.954   3.424 -0.2548 -0.1764 -0.6471
  188POPC   H3X21707   5.321   3.897   3.416 -1.2354  1.1193  1.1757
  188POPC   H3Y21708   5.416   4.044   3.359  1.2746 -0.9159 -1.7376
  188POPC   C3421709   5.457   4.013   3.558  0.2872 -0.6357 -0.4302
  188POPC   H4X21710   5.534   4.088   3.530 -0.8569  0.0997 -1.7630
  188POPC   H4Y21711   5.489   3.931   3.626 -0.1329 -0.9134 -0.5687
  188POPC   C3521712   5.342   4.091   3.619 -0.3456 -0.7110 -0.5331
  188POPC   H5X21713   5.266   4.026   3.668 -0.0437 -0.4734  0.2625
  188POPC   H5Y21714   5.300   4.155   3.539  2.0190  0.6357 -0.7852
  188POPC   C3621715   5.383   4.190   3.733  0.3202  0.2949  0.5449
  188POPC   H6X21716   5.285   4.228   3.768 -0.0374  1.9110 -1.9771
  188POPC   H6Y21717   5.445   4.269   3.686  1.1015 -1.1723 -1.0175
  188POPC   C3721718   5.473   4.135   3.843 -0.4665 -1.0913  0.2238
  188POPC   H7X21719   5.572   4.106   3.802  0.0212  1.3977 -0.4827
  188POPC   H7Y21720   5.428   4.043   3.887  0.6847 -2.1949 -0.8304
  188POPC   C3821721   5.495   4.240   3.952 -0.9914 -0.9699  0.0604
  188POPC   H8X21722   5.397   4.274   3.991 -1.2372  1.1160 -2.1482
  188POPC   H8Y21723   5.533   4.334   3.908 -2.0014 -1.6504 -2.4843
  188POPC   C3921724   5.590   4.190   4.063  0.8466 -0.0728 -0.1256
  188POPC   H9X21725   5.661   4.117   4.020 -1.5932 -1.8573 -1.3635
  188POPC   H9Y21726   5.533   4.121   4.128 -0.3878 -0.2099 -1.3117
  188POPC  C31021727   5.654   4.298   4.151 -0.5190  0.1869 -0.0518
  188POPC  H10X21728   5.580   4.326   4.229 -1.6034 -2.2460 -0.1035
  188POPC  H10Y21729   5.678   4.385   4.086 -0.0688 -0.7654 -1.2044
  188POPC  C31121730   5.767   4.243   4.241 -1.1384  0.5906  0.3336
  188POPC  H11X21731   5.849   4.202   4.179 -2.1769 -0.2786 -0.4869
  188POPC  H11Y21732   5.732   4.161   4.307 -0.2319 -0.7241 -0.7804
  188POPC  C31221733   5.829   4.361   4.328  0.1677 -0.0289  0.1677
  188POPC  H12X21734   5.883   4.441   4.273  1.3729 -0.0356  1.2883
  188POPC  H12Y21735   5.900   4.299   4.387 -2.5961 -2.6107  1.0506
  188POPC  C31321736   5.733   4.426   4.418  0.1676 -0.0948  0.7638
  188POPC  H13X21737   5.677   4.343   4.469 -1.5647  1.0724  0.8543
  188POPC  H13Y21738   5.653   4.485   4.367  0.2682 -0.5198  0.1030
  188POPC  C31421739   5.802   4.504   4.532  0.1898 -0.3481 -0.3108
  188POPC  H14X21740   5.725   4.570   4.578  0.9629  0.0631  0.4167
  188POPC  H14Y21741   5.874   4.580   4.494  1.4447 -0.6298  1.3700
  188POPC  C31521742   5.846   4.419   4.641  0.1525  0.9513  0.1397
  188POPC  H15X21743   5.926   4.359   4.593  0.3559  1.1358  0.2412
  188POPC  H15Y21744   5.765   4.349   4.668 -1.0869  2.3307  0.1410
  188POPC  C31621745   5.898   4.490   4.762 -0.2929  0.4102  0.4007
  188POPC  H16X21746   5.918   4.417   4.844  0.5635 -0.3729 -0.4777
  188POPC  H16Y21747   5.820   4.558   4.802 -2.4835 -0.3927 -2.1926
  188POPC  H16Z21748   5.984   4.554   4.734 -0.0274 -0.2327 -0.3083
  189SAPI   C1221749   4.201   0.095   7.054 -0.5691 -0.2605 -0.2178
  189SAPI    H221750   4.143   0.068   6.963  0.2257 -1.9959 -0.2499
  189SAPI    O221751   4.259   0.221   7.024  0.1638 -0.2291 -0.3505
  189SAPI   HO221752   4.208   0.268   6.958  0.4077 -0.4137 -0.6784
  189SAPI   C1321753   4.109   0.099   7.170 -0.1066 -0.5249 -0.0995
  189SAPI    H321754   4.063  -0.002   7.181 -0.5060 -0.2977  0.3600
  189SAPI    O321755   3.989   0.172   7.151  0.3486 -0.4536 -0.0105
  189SAPI   HO321756   3.999   0.266   7.170 -0.1769 -0.6924  1.5607
  189SAPI   C1421757   4.178   0.134   7.307  0.9604  0.2962  0.0664
  189SAPI    H421758   4.209   0.239   7.290 -0.1304  0.6614  0.2679
  189SAPI    O421759   4.096   0.146   7.418  0.5472  0.3456 -0.1839
  189SAPI   HO421760   4.120   0.230   7.456  0.4372  0.1353  0.3591
  189SAPI   C1521761   4.300   0.061   7.327 -0.4024  0.0776  0.5316
  189SAPI    H521762   4.269  -0.028   7.386  0.7733 -1.0639 -0.4946
  189SAPI    O521763   4.397   0.134   7.401 -0.3891  0.0843  0.1862
  189SAPI   HO521764   4.446   0.200   7.352 -0.1088 -0.5663 -0.4324
  189SAPI   C1621765   4.373   0.004   7.208  0.0468  0.6948 -0.5202
  189SAPI    H621766   4.458   0.071   7.184  1.6836 -1.2889 -0.5882
  189SAPI    O621767   4.441  -0.115   7.243 -0.3895  0.7844  0.8566
  189SAPI   HO621768   4.382  -0.178   7.285  0.0019  0.6297  1.1709
  189SAPI   C1121769   4.306  -0.008   7.069  0.1768  0.1077  0.2442
  189SAPI    H121770   4.255  -0.107   7.076  1.2361 -0.5762 -1.2014
  189SAPI     P21771   4.356  -0.090   6.808  0.2847 -0.0778  0.1357
  189SAPI   O1321772   4.268  -0.208   6.844 -0.6642 -0.2879 -0.0439
  189SAPI   O1421773   4.477  -0.115   6.728 -0.5596 -0.4434 -0.2770
  189SAPI   O1221774   4.405  -0.020   6.959 -0.0315  0.4257  0.2754
  189SAPI   O1121775   4.262   0.022   6.735  0.0492  0.4486  0.1992
  189SAPI    C121776   4.337   0.138   6.692  0.2756 -0.2333 -0.8213
  189SAPI    HA21777   4.305   0.221   6.758  3.5498  0.3479  0.2341
  189SAPI    HB21778   4.448   0.136   6.700  0.1831 -0.9655  0.6041
  189SAPI    C221779   4.306   0.166   6.545 -0.3291 -0.2723  0.2216
  189SAPI    HS21780   4.198   0.150   6.529 -0.4215  1.4228 -1.1596
  189SAPI   O2121781   4.376   0.063   6.469  0.3094 -0.1160 -0.9433
  189SAPI   C2121782   4.316   0.029   6.353  0.1344 -1.3878 -0.0807
  189SAPI   O2221783   4.216   0.085   6.303 -0.3078 -0.5729  0.8168
  189SAPI   C2221784   4.391  -0.091   6.302 -0.6173 -0.8533 -0.7717
  189SAPI   H2R21785   4.492  -0.056   6.273 -0.3488 -0.5098  0.5034
  189SAPI   H2S21786   4.409  -0.158   6.389  0.6496  0.3227 -0.0835
  189SAPI    C321787   4.347   0.309   6.500  1.0706  0.1359 -0.0932
  189SAPI    HX21788   4.457   0.314   6.492  1.1430 -1.8531 -0.7497
  189SAPI    HY21789   4.322   0.384   6.579 -0.6690  0.5192 -0.9514
  189SAPI   O3121790   4.298   0.346   6.369  0.6506 -0.9655  1.0947
  189SAPI   C3121791   4.172   0.396   6.372  0.2528 -0.0783 -0.1671
  189SAPI   O3221792   4.104   0.412   6.472 -0.5721  0.7091 -0.0629
  189SAPI   C3221793   4.125   0.437   6.232  0.2006  0.1803  0.0477
  189SAPI   H2X21794   4.121   0.357   6.156  1.6341  0.4374 -0.3253
  189SAPI   H2Y21795   4.208   0.495   6.188 -0.2251 -0.3990 -1.5843
  189SAPI   C2321796   4.323  -0.169   6.186 -1.3587 -0.5041  0.3764
  189SAPI   H3R21797   4.219  -0.193   6.217 -1.5640 -0.0432  0.0533
  189SAPI   H3S21798   4.382  -0.262   6.172 -2.3396 -0.7655 -2.7722
  189SAPI   C2421799   4.322  -0.092   6.054  0.4665  1.0224  0.4835
  189SAPI   H4R21800   4.310   0.018   6.066 -1.3710  0.9299 -0.1692
  189SAPI   H4S21801   4.231  -0.131   6.004  1.4028 -0.8720  0.1760
  189SAPI   C2521802   4.441  -0.127   5.968  0.1755 -0.3608  0.1825
  189SAPI   H5R21803   4.535  -0.123   6.025 -0.4997 -1.4862  1.4540
  189SAPI   C2621804   4.427  -0.178   5.840 -0.5032 -0.5356  0.0744
  189SAPI   H6R21805   4.521  -0.196   5.787 -0.8039 -2.5559  0.1415
  189SAPI   C2721806   4.309  -0.195   5.749  0.1693 -1.0329  1.0688
  189SAPI   H7R21807   4.218  -0.223   5.808  0.0515  0.3105  1.5556
  189SAPI   H7S21808   4.342  -0.272   5.676  0.2048 -0.3251  0.3219
  189SAPI   C2821809   4.254  -0.070   5.674 -0.5186 -0.3010 -0.2868
  189SAPI   H8R21810   4.210   0.013   5.732 -0.5303  0.3193 -1.1598
  189SAPI   C2921811   4.268  -0.050   5.537 -0.1426 -0.6254 -0.8635
  189SAPI   H9R21812   4.255   0.055   5.506  0.9399  0.1311  1.0701
  189SAPI  C21021813   4.329  -0.141   5.435 -0.0534 -0.3894  0.5021
  189SAPI  H10R21814   4.354  -0.243   5.471 -0.0873 -1.4622 -2.2288
  189SAPI  H10S21815   4.427  -0.099   5.403 -1.2268  0.5115 -2.2348
  189SAPI  C21121816   4.232  -0.158   5.318 -1.0190 -0.3482 -0.2415
  189SAPI  H11R21817   4.127  -0.137   5.342 -1.3679 -1.4554 -0.7514
  189SAPI  C21221818   4.264  -0.186   5.188 -0.1053 -0.4271 -0.4420
  189SAPI  H12R21819   4.185  -0.222   5.121 -0.4394  2.0333 -1.4851
  189SAPI  C21321820   4.394  -0.219   5.127 -0.5865 -0.9715  0.0060
  189SAPI  H13R21821   4.470  -0.245   5.204  0.6366  1.0592 -0.4444
  189SAPI  H13S21822   4.433  -0.129   5.074 -1.6429  0.7705  2.0239
  189SAPI  C21421823   4.391  -0.341   5.042 -0.0307  0.3428 -0.1534
  189SAPI  H14R21824   4.373  -0.436   5.094  0.2208  0.1531 -0.4107
  189SAPI  C21521825   4.416  -0.335   4.909  0.4820 -0.2263 -0.3404
  189SAPI  H15R21826   4.410  -0.426   4.848  0.2212 -0.4585  0.0317
  189SAPI  C21621827   4.437  -0.216   4.822  0.1067  0.7424  0.1443
  189SAPI  H16R21828   4.544  -0.188   4.831  0.1210  1.9217 -2.5823
  189SAPI  H16S21829   4.369  -0.130   4.837 -1.0233  0.0490 -0.7925
  189SAPI  C21721830   4.422  -0.246   4.671  0.5848  0.3048  0.6101
  189SAPI  H17R21831   4.323  -0.290   4.648  1.1971 -0.4197 -0.7222
  189SAPI  H17S21832   4.494  -0.321   4.634  2.5919  2.0490  0.8099
  189SAPI  C21821833   4.435  -0.118   4.584  0.3986  0.7880  0.7363
  189SAPI  H18R21834   4.516  -0.051   4.618  2.2438  0.0894 -1.9868
  189SAPI  H18S21835   4.340  -0.060   4.584 -0.6615 -0.8598  2.4665
  189SAPI  C21921836   4.452  -0.148   4.431 -0.7228 -0.5638  0.2515
  189SAPI  H19R21837   4.457  -0.052   4.374  2.2493 -0.8059 -0.0526
  189SAPI  H19S21838   4.361  -0.191   4.386 -1.8930  2.3575 -0.4134
  189SAPI  C22021839   4.577  -0.236   4.398 -0.3151 -0.2269  0.2770
  189SAPI  H20R21840   4.613  -0.217   4.295 -1.2419 -1.3039 -0.2712
  189SAPI  H20S21841   4.538  -0.340   4.393  0.1430 -0.3872  0.0227
  189SAPI  H20T21842   4.654  -0.234   4.478  0.5857 -0.5533 -0.5571
  189SAPI   C3321843   3.994   0.523   6.242 -0.3458  0.6733  0.5405
  189SAPI   H3X21844   3.991   0.585   6.333 -0.1145  2.2454 -0.4890
  189SAPI   H3Y21845   3.911   0.449   6.253 -0.4793  0.9054  1.1281
  189SAPI   C3421846   3.986   0.617   6.123 -0.0435 -0.2438  0.0131
  189SAPI   H4X21847   4.070   0.691   6.125 -0.1888 -0.0806  0.1254
  189SAPI   H4Y21848   3.892   0.677   6.123 -0.0893 -0.3151  0.0725
  189SAPI   C3521849   3.995   0.552   5.984  0.6113 -0.2579 -0.1980
  189SAPI   H5X21850   3.957   0.448   5.996 -0.6539  0.1228 -0.7975
  189SAPI   H5Y21851   4.100   0.551   5.949  0.4159 -2.1928 -0.8680
  189SAPI   C3621852   3.909   0.623   5.882 -0.0964 -0.6069 -0.0207
  189SAPI   H6X21853   3.924   0.733   5.890  0.8485 -0.8297  1.8556
  189SAPI   H6Y21854   3.800   0.614   5.903 -0.0806 -1.6520 -0.3436
  189SAPI   C3721855   3.935   0.579   5.740 -0.2129 -0.5659 -0.5113
  189SAPI   H7X21856   3.943   0.469   5.725 -1.7045 -0.4336 -2.8607
  189SAPI   H7Y21857   4.031   0.625   5.710 -0.3754  0.3600  0.3498
  189SAPI   C3821858   3.820   0.635   5.653  0.5139 -0.2270  0.3650
  189SAPI   H8X21859   3.803   0.743   5.675 -1.7780 -1.0934  3.6161
  189SAPI   H8Y21860   3.727   0.579   5.675 -0.2689  0.2499 -1.5070
  189SAPI   C3921861   3.857   0.604   5.506 -0.5155  0.3695  0.4079
  189SAPI   H9X21862   3.886   0.498   5.488 -0.7614  0.2926  0.4628
  189SAPI   H9Y21863   3.945   0.668   5.487  1.6074 -2.6104 -0.5178
  189SAPI  C31021864   3.746   0.639   5.410 -0.3236  0.6601 -0.7052
  189SAPI  H10X21865   3.729   0.748   5.415  0.2223  0.8434 -2.3360
  189SAPI  H10Y21866   3.651   0.587   5.435 -1.0240  2.6851  1.1698
  189SAPI  C31121867   3.789   0.587   5.279  0.0123  0.1175 -0.1641
  189SAPI  H11X21868   3.781   0.477   5.281  2.5403 -0.1199 -0.0704
  189SAPI  H11Y21869   3.894   0.624   5.274  0.1765 -0.4573 -0.9871
  189SAPI  C31221870   3.684   0.631   5.169  0.6405 -0.2236  0.3452
  189SAPI  H12X21871   3.672   0.742   5.169 -1.3337 -0.4082  0.3585
  189SAPI  H12Y21872   3.586   0.582   5.188 -1.2483  1.8008 -3.1541
  189SAPI  C31321873   3.709   0.580   5.021 -0.5102  0.6805 -0.3007
  189SAPI  H13X21874   3.608   0.578   4.975 -0.6035  2.3073 -0.2415
  189SAPI  H13Y21875   3.749   0.477   5.020  1.5849  1.4302  0.6340
  189SAPI  C31421876   3.804   0.661   4.937 -0.0911  0.2065 -0.1669
  189SAPI  H14X21877   3.905   0.661   4.984  0.3181 -0.4289 -1.0179
  189SAPI  H14Y21878   3.765   0.764   4.950 -0.9855 -0.2639  1.1011
  189SAPI  C31521879   3.822   0.604   4.798 -0.2156  0.0888  0.0931
  189SAPI  H15X21880   3.726   0.615   4.741 -0.5644  2.9383  1.0856
  189SAPI  H15Y21881   3.840   0.495   4.801 -0.1051  0.0782 -0.6762
  189SAPI  C31621882   3.942   0.672   4.735 -0.6980  0.4872 -0.1636
  189SAPI  H16X21883   4.032   0.615   4.766 -1.5004 -0.4758  0.4859
  189SAPI  H16Y21884   3.935   0.781   4.757 -2.4793  0.1922  1.0044
  189SAPI  C31721885   3.952   0.664   4.582  0.3046 -0.0369 -0.5098
  189SAPI  H17X21886   3.876   0.733   4.543  1.0107  0.8463 -0.3592
  189SAPI  H17Y21887   3.929   0.559   4.554 -0.8031  0.4262 -1.4046
  189SAPI  C31821888   4.089   0.703   4.523 -0.4554  0.4970 -0.2162
  189SAPI  H18X21889   4.082   0.732   4.416  0.8008 -1.5376 -0.9149
  189SAPI  H18Y21890   4.171   0.628   4.527  0.4522  1.4490 -0.6343
  189SAPI  H18Z21891   4.131   0.788   4.581  1.5225  0.2523 -1.2145
  190SAPI   C1221892   3.868   5.120   6.583 -0.0826  0.0190 -0.0772
  190SAPI    H221893   3.880   5.148   6.476  0.0725  0.1564 -0.0232
  190SAPI    O221894   3.879   5.247   6.651  0.6580  0.4727  0.4228
  190SAPI   HO221895   3.957   5.287   6.611  1.0853 -1.9462 -1.3915
  190SAPI   C1321896   3.728   5.072   6.599  0.6617  0.5220 -0.4540
  190SAPI    H321897   3.730   4.977   6.541  1.8674 -1.1023  2.0640
  190SAPI    O321898   3.627   5.153   6.536  0.2802  0.2022 -0.1356
  190SAPI   HO321899   3.627   5.240   6.576 -2.3328  1.3234 -2.2469
  190SAPI   C1421900   3.703   5.040   6.746  0.7026  0.1949  0.4929
  190SAPI    H421901   3.689   5.133   6.805 -0.5689  1.6855 -1.9921
  190SAPI    O421902   3.581   4.967   6.748  0.5938  0.9574  0.2486
  190SAPI   HO421903   3.505   5.021   6.771 -1.9376 -0.9789 -2.8436
  190SAPI   C1521904   3.813   4.962   6.824  0.6409  0.1866  0.3463
  190SAPI    H521905   3.794   4.854   6.807  4.9405 -1.1879  2.5620
  190SAPI    O521906   3.797   4.973   6.962  0.1041  0.3676 -0.5927
  190SAPI   HO521907   3.844   4.895   6.995  0.2935  0.5374 -0.4619
  190SAPI   C1621908   3.954   4.969   6.765 -0.4556  0.6152 -0.5860
  190SAPI    H621909   3.999   5.049   6.829 -0.6482 -1.1099  1.8296
  190SAPI    O621910   4.038   4.856   6.794 -0.0826 -0.0415 -0.4802
  190SAPI   HO621911   4.114   4.860   6.736 -0.5560  1.8793 -1.0396
  190SAPI   C1121912   3.965   5.014   6.620 -0.2809 -0.9228  0.1107
  190SAPI    H121913   3.928   4.933   6.554 -0.8726 -1.2071  0.7799
  190SAPI     P21914   4.196   4.949   6.500 -0.1354 -0.2449  0.0340
  190SAPI   O1321915   4.170   4.809   6.532  0.0453  0.3270  0.1865
  190SAPI   O1421916   4.332   4.997   6.520  0.0103  0.4297 -0.0498
  190SAPI   O1221917   4.099   5.048   6.578  0.0228  0.4650  0.2677
  190SAPI   O1121918   4.140   4.979   6.354  0.3324  0.2324  0.0795
  190SAPI    C121919   4.190   5.075   6.269  0.1168  0.3558 -0.4421
  190SAPI    HA21920   4.298   5.097   6.289 -0.4907  1.5170  2.0356
  190SAPI    HB21921   4.192   5.030   6.168  1.1991 -2.3734  0.6960
  190SAPI    C221922   4.098   5.201   6.258 -0.1021 -0.2867 -0.4604
  190SAPI    HS21923   4.100   5.241   6.362  0.7314 -0.5501 -0.3680
  190SAPI   O2121924   3.964   5.161   6.211 -0.3241  0.0847 -0.4194
  190SAPI   C2121925   3.868   5.249   6.243 -0.1906 -0.2588  0.1984
  190SAPI   O2221926   3.883   5.361   6.287 -0.1227 -0.0648 -0.0766
  190SAPI   C2221927   3.732   5.188   6.215  0.6333  0.6406  0.7212
  190SAPI   H2R21928   3.742   5.149   6.111  1.3990 -1.7648  1.6370
  190SAPI   H2S21929   3.710   5.104   6.284 -0.0662 -0.6580 -1.0060
  190SAPI    C321930   4.155   5.306   6.161 -0.4519  0.2361 -0.5811
  190SAPI    HX21931   4.260   5.329   6.187 -0.2786 -0.8230 -0.2709
  190SAPI    HY21932   4.098   5.397   6.190 -1.7350 -1.5490  3.2447
  190SAPI   O3121933   4.131   5.266   6.022  0.3720 -0.2559 -0.2756
  190SAPI   C3121934   4.230   5.225   5.948 -0.0329  0.0635  0.0974
  190SAPI   O3221935   4.341   5.199   5.980 -0.3007  0.1895 -0.1607
  190SAPI   C3221936   4.170   5.224   5.802 -0.2360 -0.0472 -0.0843
  190SAPI   H2X21937   4.086   5.296   5.794  0.9014  1.3187 -0.1279
  190SAPI   H2Y21938   4.121   5.125   5.787 -0.9810  0.3932 -0.6212
  190SAPI   C2321939   3.619   5.299   6.223  0.3535  0.9966  0.5967
  190SAPI   H3R21940   3.607   5.335   6.327 -2.2324  1.2672  0.2593
  190SAPI   H3S21941   3.531   5.246   6.180  0.2558  1.8039 -0.2460
  190SAPI   C2421942   3.647   5.419   6.122 -0.3054 -0.4344  0.4964
  190SAPI   H4R21943   3.693   5.374   6.031  0.5734  0.3627  0.5365
  190SAPI   H4S21944   3.704   5.501   6.169 -0.3514 -0.3417  0.3898
  190SAPI   C2521945   3.505   5.480   6.114 -0.5061  0.7714 -0.4198
  190SAPI   H5R21946   3.472   5.531   6.206 -1.3283  0.9951 -0.8318
  190SAPI   C2621947   3.431   5.489   6.006  0.2337 -0.1598  0.6437
  190SAPI   H6R21948   3.340   5.550   6.012 -1.1344 -2.1166  0.6992
  190SAPI   C2721949   3.462   5.428   5.875  0.4674 -0.5928  0.4050
  190SAPI   H7R21950   3.366   5.430   5.818  0.5002  1.4384  0.3240
  190SAPI   H7S21951   3.497   5.325   5.893 -0.5047 -1.3009 -1.5209
  190SAPI   C2821952   3.563   5.506   5.799 -0.6437 -0.1545  0.1922
  190SAPI   H8R21953   3.659   5.511   5.852 -0.2682 -1.3325 -0.3331
  190SAPI   C2921954   3.542   5.568   5.684  0.3811 -0.3202 -0.2208
  190SAPI   H9R21955   3.618   5.628   5.632  1.2190 -0.6419  0.6143
  190SAPI  C21021956   3.410   5.580   5.604 -0.9378  0.3258 -0.1425
  190SAPI  H10R21957   3.348   5.492   5.631  0.8260 -1.3237 -1.2961
  190SAPI  H10S21958   3.414   5.570   5.494 -0.3283  1.1080 -0.2023
  190SAPI  C21121959   3.335   5.701   5.646 -1.3842 -0.1893 -1.2590
  190SAPI  H11R21960   3.320   5.693   5.754  0.4354 -1.6613 -1.0607
  190SAPI  C21221961   3.275   5.790   5.574  0.7244 -1.0267 -0.4575
  190SAPI  H12R21962   3.221   5.869   5.627 -1.8974 -0.9129 -3.0213
  190SAPI  C21321963   3.277   5.811   5.423  0.0416 -0.4065  0.3732
  190SAPI  H13R21964   3.174   5.840   5.395 -0.6411 -2.3222  0.7984
  190SAPI  H13S21965   3.286   5.708   5.383  0.1725 -0.6546  1.0188
  190SAPI  C21421966   3.383   5.913   5.375  0.2728  0.0442  0.4333
  190SAPI  H14R21967   3.385   6.015   5.417  4.2398  0.3421 -0.0177
  190SAPI  C21521968   3.468   5.880   5.277 -0.3504 -0.4224 -0.5703
  190SAPI  H15R21969   3.542   5.949   5.235 -1.3083  1.6270  0.9212
  190SAPI  C21621970   3.477   5.745   5.212  1.4316  0.5928  0.4151
  190SAPI  H16R21971   3.469   5.662   5.285  3.4964  2.4539  2.9569
  190SAPI  H16S21972   3.577   5.730   5.165  1.2693  0.5717  0.0793
  190SAPI  C21721973   3.374   5.736   5.097  0.3971 -0.5824 -0.3980
  190SAPI  H17R21974   3.282   5.781   5.137  0.6163 -0.3225 -0.1852
  190SAPI  H17S21975   3.353   5.630   5.071  1.4558 -1.2179  1.1621
  190SAPI  C21821976   3.405   5.815   4.963 -0.3975  0.3054  1.0174
  190SAPI  H18R21977   3.501   5.787   4.915 -0.9623  1.8173 -1.1599
  190SAPI  H18S21978   3.410   5.923   4.988 -1.6122  0.2903  1.3931
  190SAPI  C21921979   3.296   5.803   4.860  0.6086 -0.2569 -0.9592
  190SAPI  H19R21980   3.209   5.867   4.884  0.8436 -0.4661  0.5495
  190SAPI  H19S21981   3.241   5.706   4.860 -2.7070  1.4566 -2.7129
  190SAPI  C22021982   3.326   5.828   4.715  0.0151  0.0622 -0.2578
  190SAPI  H20R21983   3.423   5.781   4.690  0.0073  0.5562 -1.2628
  190SAPI  H20S21984   3.320   5.936   4.687 -2.8423  0.6094  1.8789
  190SAPI  H20T21985   3.255   5.776   4.647 -0.5112  1.6025 -0.9413
  190SAPI   C3321986   4.266   5.241   5.684 -0.3742  0.2399 -0.2831
  190SAPI   H3X21987   4.358   5.178   5.689  0.0275  0.8693  0.7753
  190SAPI   H3Y21988   4.308   5.343   5.694  0.8664 -0.0350 -2.2213
  190SAPI   C3421989   4.195   5.239   5.550  1.1136  0.5089 -0.3833
  190SAPI   H4X21990   4.113   5.313   5.556  2.2005  1.7855 -0.6384
  190SAPI   H4Y21991   4.147   5.140   5.539 -0.0959  0.7183  2.2380
  190SAPI   C3521992   4.285   5.275   5.429  0.5163 -0.5109 -0.4078
  190SAPI   H5X21993   4.382   5.222   5.435  0.1923 -1.0594  0.0556
  190SAPI   H5Y21994   4.298   5.385   5.434 -0.4206 -0.3424 -1.2131
  190SAPI   C3621995   4.217   5.233   5.293 -0.8834 -0.3486  0.2213
  190SAPI   H6X21996   4.119   5.284   5.299  0.0021  1.7576 -1.6620
  190SAPI   H6Y21997   4.222   5.123   5.297 -2.3700 -0.4278  0.2452
  190SAPI   C3721998   4.290   5.291   5.171 -0.4133  0.3815 -0.0003
  190SAPI   H7X21999   4.388   5.240   5.159 -0.1735  0.7820  0.2504
  190SAPI   H7Y22000   4.298   5.399   5.195  0.6296  0.2125  0.4904
  190SAPI   C3822001   4.217   5.280   5.033  0.0747 -0.1321  0.0673
  190SAPI   H8X22002   4.132   5.352   5.038 -0.9937 -1.3802  4.5975
  190SAPI   H8Y22003   4.186   5.175   5.021 -0.0795 -0.0304 -0.4199
  190SAPI   C3922004   4.308   5.327   4.915  0.6211  0.2826  0.2793
  190SAPI   H9X22005   4.401   5.269   4.929  0.6783  0.8646  2.6388
  190SAPI   H9Y22006   4.333   5.434   4.933 -2.8708  1.4582 -0.9606
  190SAPI  C31022007   4.231   5.304   4.786  0.5079  0.2922  0.2166
  190SAPI  H10X22008   4.158   5.386   4.776  0.3040  0.1426  0.4885
  190SAPI  H10Y22009   4.170   5.211   4.788 -2.5035  2.1359 -0.7115
  190SAPI  C31122010   4.322   5.297   4.662 -0.2884 -0.3149 -0.5435
  190SAPI  H11X22011   4.381   5.204   4.676 -1.5296 -1.2005 -1.0594
  190SAPI  H11Y22012   4.386   5.384   4.634  0.1203 -0.6152 -0.5537
  190SAPI  C31222013   4.233   5.276   4.539 -0.1023  0.1305 -0.7416
  190SAPI  H12X22014   4.289   5.256   4.445 -1.4053 -2.0052 -1.1271
  190SAPI  H12Y22015   4.156   5.355   4.533 -2.0367 -1.5274  0.8675
  190SAPI  C31322016   4.148   5.148   4.552 -0.8833 -0.9075 -0.5177
  190SAPI  H13X22017   4.076   5.157   4.636 -0.1364  0.0548  0.0506
  190SAPI  H13Y22018   4.217   5.062   4.564  0.6223  0.3879  0.5077
  190SAPI  C31422019   4.056   5.132   4.434  0.5761  0.3496 -0.2100
  190SAPI  H14X22020   4.102   5.143   4.334  0.3736  2.5494 -0.0982
  190SAPI  H14Y22021   3.984   5.216   4.446 -1.5991 -0.9193 -2.9968
  190SAPI  C31522022   3.956   5.009   4.434 -0.1654 -0.1581  0.3739
  190SAPI  H15X22023   3.884   5.000   4.517 -1.7728 -5.0630 -1.1906
  190SAPI  H15Y22024   4.011   4.912   4.427 -0.1593 -0.0918 -0.7282
  190SAPI  C31622025   3.872   5.019   4.306  0.1498 -0.3961 -0.3975
  190SAPI  H16X22026   3.832   5.121   4.289  2.2990  1.0009  2.2313
  190SAPI  H16Y22027   3.783   4.952   4.309  1.7611 -2.8055 -2.5022
  190SAPI  C31722028   3.944   4.973   4.177 -0.1258  0.5379 -0.2605
  190SAPI  H17X22029   4.005   4.881   4.195  1.8529  2.0956  1.4960
  190SAPI  H17Y22030   4.024   5.047   4.153  0.7635 -0.1791  0.3810
  190SAPI  C31822031   3.857   4.963   4.058 -0.0196  0.1626 -0.3591
  190SAPI  H18X22032   3.930   4.933   3.979 -0.2533 -0.6911 -0.2587
  190SAPI  H18Y22033   3.812   5.050   4.006  0.3188 -0.5530 -1.9220
  190SAPI  H18Z22034   3.788   4.876   4.063 -1.6378  1.4264 -0.1714
  191SAPI   C1222035   0.148   6.737   2.147 -0.0161  0.1736 -0.6938
  191SAPI    H222036   0.195   6.818   2.208 -1.8401  1.0790 -0.4075
  191SAPI    O222037   0.020   6.708   2.205  0.0978  0.2795 -0.3394
  191SAPI   HO222038  -0.017   6.788   2.244 -0.2389 -0.3859  0.7485
  191SAPI   C1322039   0.128   6.793   2.005 -0.7603 -0.1848 -0.9871
  191SAPI    H322040   0.231   6.803   1.965 -0.1429 -0.7006  0.4145
  191SAPI    O322041   0.065   6.922   2.011 -0.6553  0.1971  0.5038
  191SAPI   HO322042  -0.019   6.907   2.055 -1.1267 -0.6358 -0.6405
  191SAPI   C1422043   0.054   6.692   1.918 -0.0568 -0.5142  0.5845
  191SAPI    H422044  -0.052   6.695   1.953 -0.9007  1.0095 -1.8419
  191SAPI    O422045   0.042   6.736   1.777  0.4128  0.1760 -0.6883
  191SAPI   HO422046  -0.044   6.708   1.745  0.0518  0.2036  0.2166
  191SAPI   C1522047   0.099   6.547   1.934  0.1117 -0.6559  0.5340
  191SAPI    H522048   0.165   6.526   1.847 -0.3511  0.5809 -0.1431
  191SAPI    O522049  -0.018   6.459   1.919  0.0908 -0.5338  0.4544
  191SAPI   HO522050  -0.077   6.469   1.994  0.3097 -2.5569  0.9463
  191SAPI   C1622051   0.186   6.508   2.053  0.4716  0.0561 -0.6037
  191SAPI    H622052   0.120   6.457   2.126  2.7522  0.1414  1.6746
  191SAPI    O622053   0.282   6.405   2.020 -0.0982  0.3796 -1.0331
  191SAPI   HO622054   0.286   6.358   2.104 -1.5039  1.2617 -0.4281
  191SAPI   C1122055   0.236   6.617   2.147  0.4783 -0.4214  1.1040
  191SAPI    H122056   0.332   6.652   2.103 -0.0007 -1.0061 -0.4453
  191SAPI     P22057   0.367   6.610   2.387  0.1376 -0.1219  0.0077
  191SAPI   O1322058   0.493   6.637   2.314 -0.0879 -0.5496 -0.5152
  191SAPI   O1422059   0.372   6.500   2.484  0.7985  0.2539 -1.0092
  191SAPI   O1222060   0.256   6.566   2.280  0.5584 -0.0974  0.0910
  191SAPI   O1122061   0.313   6.737   2.462  0.0974  0.2803 -0.2581
  191SAPI    C122062   0.198   6.743   2.549  1.0027 -0.0807 -0.7346
  191SAPI    HA22063   0.147   6.841   2.540  2.9580  1.0618  0.0332
  191SAPI    HB22064   0.126   6.666   2.513  1.4540 -0.8815  0.0208
  191SAPI    C222065   0.219   6.722   2.701 -0.3677  0.8106  0.8516
  191SAPI    HS22066   0.283   6.634   2.722  0.3813  1.5518  1.7353
  191SAPI   O2122067   0.096   6.717   2.782 -0.3816 -0.1714 -0.7701
  191SAPI   C2122068   0.034   6.599   2.791 -0.3435 -0.1015  0.5492
  191SAPI   O2222069   0.068   6.505   2.717  0.4476  0.0001  0.2840
  191SAPI   C2222070  -0.076   6.603   2.889 -0.0340  0.6984  0.1650
  191SAPI   H2R22071  -0.071   6.707   2.927  2.1208  0.1945  1.4287
  191SAPI   H2S22072  -0.165   6.577   2.828 -0.2904  1.4263  0.2222
  191SAPI    C322073   0.306   6.841   2.746 -0.3933 -0.7544 -0.1808
  191SAPI    HX22074   0.257   6.935   2.715  0.2905 -0.6056 -0.8559
  191SAPI    HY22075   0.400   6.830   2.687 -0.2651 -1.0133  0.0637
  191SAPI   O3122076   0.320   6.843   2.887 -0.4537 -0.3913 -0.7323
  191SAPI   C3122077   0.425   6.903   2.946  0.4561 -0.2329 -0.4083
  191SAPI   O3222078   0.518   6.947   2.887 -0.1900  0.0110 -0.6379
  191SAPI   C3222079   0.405   6.907   3.095 -0.6626  0.3991  0.4140
  191SAPI   H2X22080   0.392   6.807   3.141  3.0141 -1.1767 -1.4983
  191SAPI   H2Y22081   0.317   6.973   3.106  0.4773  2.1902 -0.7437
  191SAPI   C2322082  -0.072   6.502   3.002  0.4910  0.8109  0.2601
  191SAPI   H3R22083  -0.013   6.412   2.977  1.6234  1.1342  1.6630
  191SAPI   H3S22084  -0.175   6.475   3.033  0.7972  0.9384  1.4494
  191SAPI   C2422085  -0.008   6.553   3.132  0.2769 -0.5839  0.6033
  191SAPI   H4R22086  -0.008   6.457   3.188  0.5956 -0.5057  0.7393
  191SAPI   H4S22087  -0.071   6.630   3.180  0.1873  0.5122 -1.1660
  191SAPI   C2522088   0.134   6.600   3.118 -0.9972 -0.0856 -0.3326
  191SAPI   H5R22089   0.141   6.681   3.044 -0.7333 -0.5139 -0.7780
  191SAPI   C2622090   0.246   6.583   3.197  0.0374 -0.5323 -0.3370
  191SAPI   H6R22091   0.346   6.606   3.157 -0.8237  2.0528 -1.2198
  191SAPI   C2722092   0.247   6.494   3.313  0.0462  0.0258  0.0471
  191SAPI   H7R22093   0.230   6.386   3.296 -0.3713 -0.0940  1.1855
  191SAPI   H7S22094   0.163   6.523   3.379  0.1151 -1.0528  0.6226
  191SAPI   C2822095   0.366   6.510   3.408  0.2853  0.0916  0.2201
  191SAPI   H8R22096   0.444   6.432   3.404  0.2439  0.0761 -0.5642
  191SAPI   C2922097   0.394   6.627   3.481 -0.4637 -0.3062 -0.0538
  191SAPI   H9R22098   0.492   6.641   3.530 -1.1967  1.5421  0.9839
  191SAPI  C21022099   0.312   6.755   3.492 -0.1739 -0.2506 -0.3518
  191SAPI  H10R22100   0.215   6.706   3.516 -0.7888  0.5600 -1.0944
  191SAPI  H10S22101   0.286   6.799   3.393 -0.4598 -3.0886 -1.6480
  191SAPI  C21122102   0.351   6.842   3.608 -0.2056 -0.4888 -0.1951
  191SAPI  H11R22103   0.392   6.939   3.576  0.0546 -0.1520  1.0839
  191SAPI  C21222104   0.360   6.821   3.740 -0.2505  0.1415  0.3615
  191SAPI  H12R22105   0.389   6.908   3.801  0.2240 -0.0004  0.3446
  191SAPI  C21322106   0.345   6.694   3.811  0.5000  0.0606  0.4419
  191SAPI  H13R22107   0.441   6.638   3.819 -0.5867 -1.8263  0.8056
  191SAPI  H13S22108   0.282   6.635   3.741 -0.4415  0.4400  0.9469
  191SAPI  C21422109   0.289   6.693   3.953  0.2786 -0.4558 -0.6714
  191SAPI  H14R22110   0.192   6.644   3.966  0.8268 -1.2896  0.4682
  191SAPI  C21522111   0.345   6.745   4.065 -0.1085 -0.3191 -1.4230
  191SAPI  H15R22112   0.298   6.723   4.162  4.0244 -1.8747  0.4523
  191SAPI  C21622113   0.480   6.805   4.079  0.0011 -0.3607  0.0712
  191SAPI  H16R22114   0.551   6.785   3.996  2.8633  1.8354  1.8064
  191SAPI  H16S22115   0.517   6.775   4.179 -0.0441 -0.0239  0.1876
  191SAPI  C21722116   0.474   6.962   4.107 -0.0125 -0.3544 -0.2723
  191SAPI  H17R22117   0.417   6.974   4.202 -1.6326  2.2307 -1.4330
  191SAPI  H17S22118   0.411   7.011   4.030  0.2468  0.0562 -0.2260
  191SAPI  C21822119   0.612   7.029   4.125  0.1543 -0.2604 -0.4770
  191SAPI  H18R22120   0.667   7.015   4.029  1.0559  0.9461 -0.1657
  191SAPI  H18S22121   0.667   6.977   4.206  0.9845 -2.5094 -2.3828
  191SAPI  C21922122   0.599   7.179   4.161  0.3655  0.2340 -0.6343
  191SAPI  H19R22123   0.540   7.226   4.080  0.8234  0.1621 -1.0174
  191SAPI  H19S22124   0.703   7.217   4.144  0.6321  1.2200  2.4658
  191SAPI  C22022125   0.559   7.218   4.306  0.1798  0.2686  0.2786
  191SAPI  H20R22126   0.538   7.326   4.324 -1.7524 -0.2398  1.3758
  191SAPI  H20S22127   0.635   7.185   4.381  0.3796 -1.2868 -0.5781
  191SAPI  H20T22128   0.461   7.167   4.316 -0.3648  0.5983 -2.6347
  191SAPI   C3322129   0.517   6.985   3.159 -0.4748  0.0931  0.6748
  191SAPI   H3X22130   0.518   7.092   3.126  1.1222 -0.0063  0.3269
  191SAPI   H3Y22131   0.622   6.951   3.148 -0.2265  0.4072  1.9496
  191SAPI   C3422132   0.518   6.988   3.316  0.0008 -0.1510 -0.4219
  191SAPI   H4X22133   0.539   6.886   3.356 -1.4825 -0.9669 -1.6389
  191SAPI   H4Y22134   0.417   7.021   3.348  1.3270  0.9564  3.0775
  191SAPI   C3522135   0.625   7.089   3.377 -1.3056  0.1042  0.0701
  191SAPI   H5X22136   0.607   7.191   3.339  1.3215  0.1585 -1.2890
  191SAPI   H5Y22137   0.726   7.064   3.338 -1.6374 -0.0634 -0.7046
  191SAPI   C3622138   0.644   7.083   3.528 -0.4226 -0.2380 -1.1770
  191SAPI   H6X22139   0.651   6.978   3.565  2.2684  0.0230 -0.7676
  191SAPI   H6Y22140   0.551   7.132   3.565  0.3300  1.8406 -1.9134
  191SAPI   C3722141   0.770   7.162   3.575  0.5130  1.2940  0.0539
  191SAPI   H7X22142   0.753   7.266   3.538 -1.4991  0.3801 -1.7711
  191SAPI   H7Y22143   0.866   7.128   3.532  0.1953  1.1846 -0.5724
  191SAPI   C3822144   0.778   7.166   3.734  0.1517 -0.2848  0.2411
  191SAPI   H8X22145   0.798   7.064   3.773  3.4347  0.9900  2.2947
  191SAPI   H8Y22146   0.686   7.217   3.771 -0.9654 -1.5342 -0.6881
  191SAPI   C3922147   0.889   7.255   3.779 -0.8318  0.3780  0.0752
  191SAPI   H9X22148   0.863   7.361   3.757 -0.1504  0.2976 -1.2215
  191SAPI   H9Y22149   0.995   7.240   3.748 -0.7369  2.0270 -0.4968
  191SAPI  C31022150   0.902   7.257   3.937 -0.7307  0.1193  0.0263
  191SAPI  H10X22151   0.847   7.174   3.986  1.1182 -1.5306 -0.5857
  191SAPI  H10Y22152   0.875   7.354   3.985  2.1806 -0.7060  3.7190
  191SAPI  C31122153   1.048   7.226   3.972  0.3230  0.3058 -0.0615
  191SAPI  H11X22154   1.114   7.302   3.924  1.4803 -0.3924  0.3823
  191SAPI  H11Y22155   1.071   7.126   3.929  0.3604 -0.0115  0.6833
  191SAPI  C31222156   1.090   7.232   4.123 -0.0381  0.3120 -0.1726
  191SAPI  H12X22157   1.107   7.126   4.151 -3.8969 -0.5123 -0.4230
  191SAPI  H12Y22158   1.015   7.289   4.181 -0.2637  3.0720 -2.8783
  191SAPI  C31322159   1.222   7.317   4.139  0.5844  0.0861 -0.3972
  191SAPI  H13X22160   1.206   7.422   4.108  0.1078  0.0205 -0.3755
  191SAPI  H13Y22161   1.307   7.276   4.079  1.3783  2.5380 -1.0592
  191SAPI  C31422162   1.277   7.314   4.287  0.1252  0.0803 -0.0115
  191SAPI  H14X22163   1.339   7.407   4.294 -0.9464  0.8826 -0.8658
  191SAPI  H14Y22164   1.343   7.226   4.304 -1.5550 -1.4282 -0.9356
  191SAPI  C31522165   1.168   7.312   4.405 -0.1243 -0.0656 -0.3641
  191SAPI  H15X22166   1.120   7.213   4.388  3.2697 -1.4005 -3.4835
  191SAPI  H15Y22167   1.106   7.401   4.379  1.5697  1.5241  0.7530
  191SAPI  C31622168   1.214   7.331   4.544 -0.2557  0.1394  0.2328
  191SAPI  H16X22169   1.260   7.431   4.560  2.3526 -1.2553  2.3390
  191SAPI  H16Y22170   1.297   7.258   4.561 -1.3574 -1.1581  0.2489
  191SAPI  C31722171   1.098   7.325   4.646 -0.2826 -0.2443 -0.0068
  191SAPI  H17X22172   1.147   7.311   4.745  0.4360 -0.5311 -0.3992
  191SAPI  H17Y22173   1.044   7.231   4.622 -0.4069 -0.8978  2.5194
  191SAPI  C31822174   0.997   7.439   4.633 -0.9243 -0.0077  0.0476
  191SAPI  H18X22175   0.902   7.411   4.683 -0.5686  1.8986  1.9332
  191SAPI  H18Y22176   0.979   7.463   4.526 -1.3770  1.4531  0.4296
  191SAPI  H18Z22177   1.044   7.533   4.669 -0.2263 -0.7016  0.9844
  192SAPI   C1222178   3.014   1.512   2.109  0.5896  0.7409  0.3071
  192SAPI    H222179   3.029   1.502   2.219  0.4862 -4.3826  0.0974
  192SAPI    O222180   2.881   1.519   2.081  0.0531 -0.7218 -0.3622
  192SAPI   HO222181   2.841   1.573   2.149 -2.5548  0.1797 -2.4110
  192SAPI   C1322182   3.081   1.632   2.056 -0.9243 -0.5197  0.4314
  192SAPI    H322183   3.191   1.615   2.067 -0.9403 -1.4469 -0.6407
  192SAPI    O322184   3.053   1.746   2.137  0.0232 -0.2039 -0.3916
  192SAPI   HO322185   3.134   1.768   2.183  0.3651 -2.4306  0.1837
  192SAPI   C1422186   3.057   1.662   1.911 -0.1150 -0.2015 -0.2950
  192SAPI    H422187   2.948   1.684   1.899  0.3193  1.9793 -0.4909
  192SAPI    O422188   3.123   1.783   1.871 -0.2623  0.3376  0.1836
  192SAPI   HO422189   3.211   1.802   1.903 -0.5871  0.4711  1.0240
  192SAPI   C1522190   3.084   1.542   1.820  0.0287 -0.4848 -1.1355
  192SAPI    H522191   3.191   1.555   1.792  0.5026  0.4307  0.8953
  192SAPI    O522192   3.009   1.545   1.700 -0.1155  0.1210  0.5377
  192SAPI   HO522193   2.915   1.526   1.704 -0.3934  0.4168 -2.4047
  192SAPI   C1622194   3.084   1.402   1.892  0.4972 -0.4673 -0.8847
  192SAPI    H622195   2.989   1.360   1.852  0.1954 -1.3824  0.6676
  192SAPI    O622196   3.188   1.322   1.842 -0.5371  0.1593 -0.1973
  192SAPI   HO622197   3.164   1.260   1.773  0.8398 -1.0481  0.3594
  192SAPI   C1122198   3.069   1.382   2.044  0.1059  0.6623  0.4810
  192SAPI    H122199   3.172   1.367   2.085  0.1831 -0.8225 -0.1915
  192SAPI     P22200   3.038   1.159   2.197  0.0483  0.1653  0.5105
  192SAPI   O1322201   3.185   1.141   2.188  0.1435  0.0108 -0.6857
  192SAPI   O1422202   2.952   1.042   2.192 -0.5441 -0.3235 -0.1828
  192SAPI   O1222203   3.005   1.255   2.066  0.1613  0.2087  0.2358
  192SAPI   O1122204   2.985   1.242   2.312  0.4224 -0.1447  0.2837
  192SAPI    C122205   2.855   1.267   2.343  0.1890 -0.3033 -0.0790
  192SAPI    HA22206   2.831   1.375   2.331  1.8042 -0.0801 -1.6235
  192SAPI    HB22207   2.790   1.215   2.269  1.0266 -1.6549  0.1017
  192SAPI    C222208   2.814   1.218   2.480 -0.4947  0.0081 -0.2202
  192SAPI    HS22209   2.714   1.254   2.511  0.2414 -0.4740  3.0090
  192SAPI   O2122210   2.913   1.254   2.575 -0.3731 -0.6293  0.2049
  192SAPI   C2122211   2.875   1.290   2.696  0.3799 -0.3627  0.5605
  192SAPI   O2222212   2.754   1.313   2.728 -0.2794  0.0013  0.6700
  192SAPI   C2222213   3.002   1.310   2.781  0.2077 -0.3344  0.0959
  192SAPI   H2R22214   3.054   1.212   2.770 -1.5427 -1.3028  0.0338
  192SAPI   H2S22215   3.057   1.386   2.722  0.0005 -0.5004 -0.3168
  192SAPI    C322216   2.810   1.073   2.483  0.1719  0.0954  0.2766
  192SAPI    HX22217   2.913   1.032   2.488  0.5791  0.7562 -1.8754
  192SAPI    HY22218   2.753   1.052   2.390 -1.6414  1.0392  1.1328
  192SAPI   O3122219   2.734   1.017   2.595 -0.1568 -0.3858 -0.7006
  192SAPI   C3122220   2.723   0.882   2.575  0.3443  0.0108 -1.1758
  192SAPI   O3222221   2.776   0.818   2.491 -0.3908 -0.2297  0.1524
  192SAPI   C3222222   2.634   0.825   2.693  0.5536 -0.4608  0.0577
  192SAPI   H2X22223   2.622   0.714   2.690 -0.4885 -0.3678  0.2442
  192SAPI   H2Y22224   2.535   0.873   2.676  0.8267 -0.1913 -0.8479
  192SAPI   C2322225   2.984   1.363   2.924 -0.5597  0.3093 -0.0489
  192SAPI   H3R22226   2.901   1.435   2.936 -0.4507  1.0381 -2.9912
  192SAPI   H3S22227   3.076   1.418   2.953 -0.4027  0.5112 -0.8963
  192SAPI   C2422228   2.951   1.254   3.028 -0.8188  0.3026  0.9043
  192SAPI   H4R22229   2.959   1.303   3.127 -2.0356  1.1910  0.5851
  192SAPI   H4S22230   3.039   1.186   3.020 -0.6308  0.7543 -1.5680
  192SAPI   C2522231   2.829   1.167   3.020  0.7992  0.6872  0.0173
  192SAPI   H5R22232   2.784   1.150   2.922 -0.2686 -0.6788  0.7034
  192SAPI   C2622233   2.770   1.106   3.130  0.8089  0.9976 -0.7748
  192SAPI   H6R22234   2.677   1.048   3.128  2.0309 -1.1061  0.4546
  192SAPI   C2722235   2.824   1.106   3.271 -0.1923  0.8103  0.0188
  192SAPI   H7R22236   2.935   1.109   3.268  0.1883 -4.0658  1.2433
  192SAPI   H7S22237   2.816   1.005   3.315 -2.1023  0.4437 -1.0736
  192SAPI   C2822238   2.775   1.219   3.354 -0.0168 -0.4968 -0.1960
  192SAPI   H8R22239   2.689   1.270   3.307 -0.1389 -0.9913 -0.5248
  192SAPI   C2922240   2.827   1.274   3.465  0.6624 -0.3675 -0.2556
  192SAPI   H9R22241   2.781   1.372   3.486  0.5898 -0.4131 -0.1998
  192SAPI  C21022242   2.954   1.223   3.533  0.3201 -0.3357 -0.6730
  192SAPI  H10R22243   3.031   1.190   3.459  1.6570 -0.4216  0.6973
  192SAPI  H10S22244   2.918   1.127   3.575  0.6158 -0.3129 -0.3630
  192SAPI  C21122245   3.012   1.312   3.639 -0.0861 -0.2965 -0.5019
  192SAPI  H11R22246   3.041   1.411   3.602 -3.2177  0.2066 -2.0084
  192SAPI  C21222247   3.047   1.267   3.766 -0.2824 -0.0187  0.6827
  192SAPI  H12R22248   3.089   1.339   3.838  1.9422  0.3902 -0.8727
  192SAPI  C21322249   3.006   1.133   3.833  0.5830  0.5766 -0.2072
  192SAPI  H13R22250   2.906   1.098   3.798  1.2758  0.8997 -2.7076
  192SAPI  H13S22251   2.989   1.146   3.942 -0.5169 -0.9018 -0.1757
  192SAPI  C21422252   3.109   1.031   3.797 -0.5450  0.2147 -0.1269
  192SAPI  H14R22253   3.108   0.993   3.693  1.4772  1.1286 -0.5184
  192SAPI  C21522254   3.200   0.990   3.886 -0.7430 -0.1457  0.4655
  192SAPI  H15R22255   3.262   0.910   3.843 -1.2005 -0.2860  0.0548
  192SAPI  C21622256   3.213   1.036   4.028 -0.8938 -0.8365 -0.5550
  192SAPI  H16R22257   3.211   1.147   4.041 -0.9235 -0.7198 -1.4573
  192SAPI  H16S22258   3.310   0.998   4.065 -0.7085 -1.3063 -1.4951
  192SAPI  C21722259   3.107   0.966   4.120 -0.6774  0.3027  0.2596
  192SAPI  H17R22260   3.099   0.857   4.103  0.6188  0.2733 -0.2806
  192SAPI  H17S22261   3.012   1.021   4.104 -0.5984  0.9390  1.7725
  192SAPI  C21822262   3.138   0.977   4.267  0.5866  0.0168  0.1332
  192SAPI  H18R22263   3.124   1.081   4.302  0.3217 -0.7395  2.4633
  192SAPI  H18S22264   3.245   0.953   4.287  0.6388 -1.0458 -1.2557
  192SAPI  C21922265   3.051   0.881   4.347 -0.3772  0.2013  0.0083
  192SAPI  H19R22266   3.073   0.774   4.327  2.0033  0.9833 -2.0636
  192SAPI  H19S22267   2.943   0.890   4.321 -0.1932 -0.7056 -1.1620
  192SAPI  C22022268   3.058   0.907   4.496 -0.4616 -0.0608  0.0046
  192SAPI  H20R22269   2.993   0.837   4.553 -0.0032 -0.8766 -0.4699
  192SAPI  H20S22270   3.006   1.005   4.507  0.7784  0.7035 -0.7623
  192SAPI  H20T22271   3.163   0.904   4.533  0.1193  1.2906 -1.4211
  192SAPI   C3322272   2.693   0.853   2.835  0.8444  0.3856  0.1353
  192SAPI   H3X22273   2.623   0.909   2.901  1.1008 -0.2677  0.9829
  192SAPI   H3Y22274   2.781   0.919   2.816 -0.7804  2.2743 -1.1782
  192SAPI   C3422275   2.753   0.728   2.903  0.3612 -0.8090 -0.5920
  192SAPI   H4X22276   2.813   0.765   2.988 -0.2403 -2.5567  0.6281
  192SAPI   H4Y22277   2.818   0.665   2.838 -1.0309 -2.5534 -0.3726
  192SAPI   C3522278   2.643   0.626   2.946 -0.3074 -0.1929  0.0201
  192SAPI   H5X22279   2.678   0.528   2.985 -4.1853 -1.2285  1.3578
  192SAPI   H5Y22280   2.575   0.611   2.859  0.7630  1.6123 -1.1972
  192SAPI   C3622281   2.565   0.679   3.066 -0.5279  0.3567 -0.2127
  192SAPI   H6X22282   2.501   0.599   3.109 -1.0122  0.9400  0.1656
  192SAPI   H6Y22283   2.493   0.758   3.037 -1.0373  0.5264  1.3888
  192SAPI   C3722284   2.633   0.740   3.195 -0.2747  0.6274 -0.2909
  192SAPI   H7X22285   2.557   0.798   3.252  0.2306  0.9566  0.0499
  192SAPI   H7Y22286   2.708   0.816   3.167  0.5149 -0.0298  0.0204
  192SAPI   C3822287   2.712   0.628   3.271 -0.0732 -0.5763  0.2859
  192SAPI   H8X22288   2.802   0.619   3.207  1.9873  2.7478  2.4322
  192SAPI   H8Y22289   2.645   0.539   3.269  0.1717 -0.7503 -0.6674
  192SAPI   C3922290   2.754   0.661   3.415 -0.2790  0.0525 -0.4169
  192SAPI   H9X22291   2.805   0.759   3.422 -0.7433  0.3017 -0.5035
  192SAPI   H9Y22292   2.820   0.576   3.443  0.1726  0.2696 -0.8160
  192SAPI  C31022293   2.635   0.653   3.519  0.1586  0.2254 -0.2512
  192SAPI  H10X22294   2.583   0.556   3.507  1.5432 -0.3608 -1.9911
  192SAPI  H10Y22295   2.560   0.735   3.513  0.1162  0.1707 -0.4880
  192SAPI  C31122296   2.690   0.653   3.664  0.0415 -0.3984 -0.8264
  192SAPI  H11X22297   2.761   0.570   3.686  0.0098 -0.2333 -0.0864
  192SAPI  H11Y22298   2.595   0.645   3.720 -0.1379  1.0025 -0.9042
  192SAPI  C31222299   2.762   0.776   3.706  0.0081  0.1992  0.1043
  192SAPI  H12X22300   2.694   0.862   3.686  0.8676  0.4202 -2.2898
  192SAPI  H12Y22301   2.850   0.781   3.637 -1.6913  0.2737 -2.1880
  192SAPI  C31322302   2.811   0.770   3.842  0.5092 -0.1638 -0.7167
  192SAPI  H13X22303   2.878   0.851   3.879 -0.1090 -0.6842  1.7765
  192SAPI  H13Y22304   2.879   0.682   3.855 -1.0624 -1.1834  1.1239
  192SAPI  C31422305   2.701   0.752   3.944  0.6146 -0.0118 -0.5859
  192SAPI  H14X22306   2.650   0.658   3.915  1.4652  0.4851 -4.2469
  192SAPI  H14Y22307   2.624   0.831   3.928 -0.0184 -0.4963  0.0415
  192SAPI  C31522308   2.746   0.755   4.093 -0.0732  0.5283 -0.5699
  192SAPI  H15X22309   2.657   0.735   4.156  0.5426 -1.1265 -0.1465
  192SAPI  H15Y22310   2.789   0.854   4.117  0.2354  0.0053  1.1848
  192SAPI  C31622311   2.859   0.653   4.136  0.0352  1.0618  1.0438
  192SAPI  H16X22312   2.857   0.662   4.247 -0.5604 -0.1949  1.1529
  192SAPI  H16Y22313   2.963   0.681   4.107 -0.7582  1.8487 -1.2164
  192SAPI  C31722314   2.831   0.503   4.091  0.4154 -0.6508  0.5569
  192SAPI  H17X22315   2.866   0.475   3.990 -0.8701  0.5592 -0.2669
  192SAPI  H17Y22316   2.721   0.494   4.078  0.5282 -2.6760  0.6984
  192SAPI  C31822317   2.882   0.408   4.191  0.3618 -0.7439 -0.4822
  192SAPI  H18X22318   2.842   0.413   4.294 -0.1547  1.1390 -0.7407
  192SAPI  H18Y22319   2.993   0.416   4.198  0.2162  0.9177  0.4774
  192SAPI  H18Z22320   2.862   0.304   4.156  0.9249 -0.7964 -0.6701
  193SOD    SOD22321   3.214   6.198   8.352 -0.4148 -0.2771  0.1249
  194SOD    SOD22322   1.404   1.824   2.273 -0.0288  0.1375 -0.3433
  195SOD    SOD22323   4.957   2.637   0.906 -0.2386 -0.0533 -0.2028
  196SOD    SOD22324   4.398   3.942   2.393  0.2894  0.1628  0.2523
  197SOD    SOD22325   3.936   0.047   1.337  0.3703  0.1723  0.0245
  198SOD    SOD22326   4.496   0.821   1.392  0.2572  0.6574  0.9023
  199SOD    SOD22327   4.536   5.176   7.446 -0.1170  0.5422 -0.0404
  200SOD    SOD22328   2.929   4.801   0.501  0.0396 -0.2933  0.0447
  201SOD    SOD22329   6.146   4.702   8.908 -0.6626 -0.0623 -0.3675
  202SOD    SOD22330   2.654   5.902   2.307  0.2883  0.3713 -0.2816
  203SOD    SOD22331   4.549   3.328   6.635 -0.1571 -0.0410  0.0074
  204SOD    SOD22332   1.130   0.532   8.158  0.1387 -0.0539  0.0382
  205SOD    SOD22333   4.002   1.100   0.803  0.0199 -0.2376  0.3181
  206SOD    SOD22334   5.224   4.417   8.168  0.2319 -0.0623  0.5870
  207SOD    SOD22335   6.516   1.436   1.306 -0.0771  0.1803  0.3549
  208SOD    SOD22336   4.616   5.775   1.584 -0.0113 -0.2056 -0.2046
  209SOD    SOD22337   0.077   4.894   6.729 -0.2694 -0.2588 -0.6348
  210SOD    SOD22338   2.506   0.512   0.125  0.6692  0.0533 -0.4593
  211SOD    SOD22339   1.327   1.502   8.716  0.2090  0.2917  0.0831
  212SOD    SOD22340   4.669   5.548   0.179 -0.4148 -0.0408 -0.0577
  213SOD    SOD22341   0.614   4.401   0.075 -0.0974  0.3724 -0.1719
  214SOD    SOD22342   6.257   6.681   7.731  0.0792 -0.2756 -0.3077
  215SOD    SOD22343   5.832   0.264   0.994  0.0808 -0.2722 -0.2695
  216SOD    SOD22344   4.820   1.902   8.404 -0.0312 -0.2788  0.1466
  217SOD    SOD22345   0.272   5.750   7.119  0.1225 -0.1187 -0.0899
  218SOD    SOD22346   3.425   3.070   8.300  0.3258 -0.4455 -0.1425
  219SOD    SOD22347   6.272   3.344   6.699  0.4951 -0.1235  0.3607
  220SOD    SOD22348   1.314   6.077   7.066 -0.2234  0.4966 -0.3665
  221SOD    SOD22349   4.113   4.230   0.494 -0.2837  0.6212 -0.0784
  222SOD    SOD22350   0.576   3.564   7.158 -0.0727  0.2227 -0.1190
  223SOD    SOD22351   0.066   4.395   2.357 -0.2026 -0.4336 -0.1910
  224SOD    SOD22352   5.021   2.195   1.348  0.0989 -0.2050  0.3117
  225SOD    SOD22353   1.765   0.367   0.484  0.5110  0.3046 -0.2056
  226SOD    SOD22354   5.899   0.285   6.564  0.6989  0.0600 -0.3856
  227SOD    SOD22355   1.909   0.798   2.317  0.3291 -0.2945 -0.0971
  228SOD    SOD22356   6.188   0.450   1.340  0.1181  0.6855  0.1983
  229SOD    SOD22357   2.937   2.123   7.204  0.3956  0.0027 -0.4163
  230CLA    CLA22358   4.726   3.758   8.810 -0.2166  0.0603  0.0843
  231CLA    CLA22359   4.968   5.621   7.503 -0.2278 -0.0971 -0.0549
  232CLA    CLA22360   2.283   6.425   0.439 -0.0412 -0.0310 -0.4287
  233CLA    CLA22361   1.112   1.033   1.336 -0.2671  0.4853 -0.1404
  234CLA    CLA22362   3.787   5.387   0.708 -0.2309  0.1129 -0.0975
  235CLA    CLA22363   6.160   1.147   0.904 -0.2215  0.3571  0.1903
  236CLA    CLA22364   5.749   4.883   8.070 -0.0387  0.0194 -0.1693
  237CLA    CLA22365   4.850   5.071   0.332  0.4058  0.0232 -0.2090
  238CLA    CLA22366   1.113   3.002   1.206  0.0894 -0.0304 -0.4697
  239CLA    CLA22367   5.090   6.001   0.045 -0.0976 -0.1341 -0.1579
  240CLA    CLA22368   2.943   2.713   7.806 -0.0108 -0.5301  0.2701
  241CLA    CLA22369   1.065   1.364   0.146 -0.2696  0.4369 -0.1575
  242CLA    CLA22370   1.933   1.006   7.656 -0.2531 -0.0888  0.2936
  243CLA    CLA22371   2.040   3.562   7.419  0.2294 -0.0822  0.0469
  244CLA    CLA22372   5.954   4.887   1.860 -0.4284  0.0602 -0.4023
  245CLA    CLA22373   6.703   6.283   7.048  0.2339 -0.0624  0.1082
  246CLA    CLA22374   2.541   5.979   7.939 -0.0879 -0.0122  0.1734
  247TIP3   OH222375   5.504   2.682   7.222  0.0121  0.3348 -0.1683
  247TIP3    H122376   5.500   2.598   7.269  0.0696  1.0094  1.0948
  247TIP3    H222377   5.571   2.669   7.156 -0.9958 -1.0773 -0.9692
  248TIP3   OH222378   0.667   2.772   1.122 -0.2850 -0.4705  0.1070
  248TIP3    H122379   0.682   2.684   1.155 -1.5445 -0.5811  0.4182
  248TIP3    H222380   0.592   2.804   1.172 -0.4810  0.3911 -0.7181
  249TIP3   OH222381   4.699   3.899   1.377  1.0386 -0.1000 -0.4056
  249TIP3    H122382   4.792   3.911   1.398  1.0591 -0.0417 -0.5266
  249TIP3    H222383   4.675   3.817   1.420  1.8032 -1.4698 -2.4193
  250TIP3   OH222384   1.792   2.596   0.301 -0.0948 -0.5529  0.1688
  250TIP3    H122385   1.745   2.675   0.328 -1.3135 -0.8006 -1.1434
  250TIP3    H222386   1.795   2.542   0.380 -3.4254 -1.1962 -0.0303
  251TIP3   OH222387   5.452   1.983   0.950 -0.2399 -0.1496  0.0897
  251TIP3    H122388   5.464   1.944   0.863 -0.2103 -0.2337  0.1319
  251TIP3    H222389   5.506   1.929   1.008  0.6192  0.5773 -0.0192
  252TIP3   OH222390   2.385   2.371   6.739  0.0382 -0.0781  0.1476
  252TIP3    H122391   2.350   2.438   6.682 -1.4332 -2.3988 -1.8959
  252TIP3    H222392   2.320   2.363   6.809 -0.3215 -0.0711 -0.1828
  253TIP3   OH222393   0.800   2.035   7.943  0.1590  0.4721 -0.0548
  253TIP3    H122394   0.754   2.010   7.862  0.7724  2.5709 -1.1033
  253TIP3    H222395   0.776   2.126   7.957  1.4393  0.6420  1.1929
  254TIP3   OH222396   4.669   0.435   6.654  0.5795 -0.4182  0.3588
  254TIP3    H122397   4.652   0.526   6.630 -2.3860 -0.5571  1.4535
  254TIP3    H222398   4.599   0.413   6.715 -0.3498 -4.1808 -1.7391
  255TIP3   OH222399   0.201   2.495   1.519 -0.1245  0.1317 -0.6115
  255TIP3    H122400   0.189   2.407   1.485 -1.9167  0.9248 -2.2075
  255TIP3    H222401   0.234   2.545   1.444 -1.4786  1.3122 -0.4651
  256TIP3   OH222402   1.538   1.067   8.398  0.6105  0.2955 -0.4888
  256TIP3    H122403   1.540   1.112   8.314  2.0578  0.5014 -0.3838
  256TIP3    H222404   1.490   0.985   8.382  0.2253  0.6818 -1.3151
  257TIP3   OH222405   0.116   0.968   0.614 -0.3202  0.3002  0.3646
  257TIP3    H122406   0.184   0.904   0.637  0.7938  1.0732 -0.6345
  257TIP3    H222407   0.160   1.030   0.556 -2.4004 -0.3382 -2.0706
  258TIP3   OH222408   6.232   4.614   1.629 -0.1166 -0.1243  0.1685
  258TIP3    H122409   6.242   4.706   1.653  4.4135  0.1674 -1.7472
  258TIP3    H222410   6.310   4.571   1.664 -1.8478 -3.2113  0.6011
  259TIP3   OH222411   3.086   1.693   0.613 -0.3200 -0.4115 -0.2080
  259TIP3    H122412   3.003   1.687   0.659 -2.1168  0.7204 -3.0117
  259TIP3    H222413   3.121   1.779   0.636 -0.9004 -0.1030 -0.4701
  260TIP3   OH222414   2.653   1.872   0.330 -0.1205 -0.7606 -0.2480
  260TIP3    H122415   2.606   1.847   0.409 -1.1028  0.7178 -0.3286
  260TIP3    H222416   2.746   1.861   0.352 -0.3368  0.4149  1.4003
  261TIP3   OH222417   0.182   2.723   2.108  0.6745 -0.2615  0.6987
  261TIP3    H122418   0.208   2.763   2.191 -2.5851 -0.6807  2.0701
  261TIP3    H222419   0.133   2.791   2.062  1.1806 -0.5018 -0.2230
  262TIP3   OH222420   6.157   6.109   8.252 -0.2489  0.8347  0.5048
  262TIP3    H122421   6.155   6.181   8.315 -0.0787  2.4518 -1.2588
  262TIP3    H222422   6.072   6.115   8.207  0.3448  0.8631 -0.6357
  263TIP3   OH222423   6.286   4.250   6.656 -0.1292 -0.2580  0.0949
  263TIP3    H122424   6.321   4.336   6.632  0.1248 -0.6776 -1.1203
  263TIP3    H222425   6.226   4.268   6.728  0.7685  0.7848  0.6164
  264TIP3   OH222426   1.249   1.246   0.632  0.5519 -0.0196  0.1625
  264TIP3    H122427   1.199   1.286   0.703  0.7052  0.4549  0.0050
  264TIP3    H222428   1.183   1.204   0.578  0.3773  0.1150  0.2684
  265TIP3   OH222429   4.049   2.554   7.387 -0.1532 -0.0534 -0.6635
  265TIP3    H122430   3.984   2.598   7.442 -1.1680 -1.2375 -0.8942
  265TIP3    H222431   4.075   2.621   7.323 -1.7119  0.2262 -1.0489
  266TIP3   OH222432   0.302   5.980   7.142  0.1606  0.1594 -0.7237
  266TIP3    H122433   0.362   6.028   7.085  0.4583  0.2979 -0.2989
  266TIP3    H222434   0.233   6.043   7.163  0.5598  0.4182 -0.1536
  267TIP3   OH222435   4.957   2.134   1.976  0.3284  0.5683 -0.1848
  267TIP3    H122436   4.878   2.189   1.972  0.7280  1.1650  0.0959
  267TIP3    H222437   4.925   2.050   2.007 -0.3439  0.5326 -0.9336
  268TIP3   OH222438   3.618   1.898   8.381  0.2214  0.1262 -0.5410
  268TIP3    H122439   3.705   1.859   8.383  0.4561  0.3575 -2.9848
  268TIP3    H222440   3.559   1.823   8.365 -0.0483  0.0117  0.8148
  269TIP3   OH222441   6.354   0.680   8.047 -0.1755  0.2874 -0.6507
  269TIP3    H122442   6.263   0.657   8.068 -1.4868  4.0997 -1.3052
  269TIP3    H222443   6.404   0.653   8.124 -2.9203  3.3715  2.5333
  270TIP3   OH222444   3.456   2.878   1.614  0.0124 -0.4033 -0.0373
  270TIP3    H122445   3.398   2.826   1.558  1.3476  2.1584 -4.2851
  270TIP3    H222446   3.398   2.942   1.655 -0.6611 -0.2586 -1.1669
  271TIP3   OH222447   5.371   5.310   8.692  0.0213 -0.5332 -0.1179
  271TIP3    H122448   5.415   5.234   8.731  0.4812  0.1081  0.6517
  271TIP3    H222449   5.439   5.378   8.690 -0.1091 -0.4105 -1.6756
  272TIP3   OH222450   6.098   4.367   8.606  0.1584 -0.1493 -0.1432
  272TIP3    H122451   6.012   4.326   8.617  0.6434 -0.8985  1.0316
  272TIP3    H222452   6.080   4.448   8.558 -1.4505  0.6960  1.7741
  273TIP3   OH222453   0.310   1.405   0.637  0.1339  0.5188 -0.1833
  273TIP3    H122454   0.403   1.428   0.636  0.6739 -1.3567  1.0085
  273TIP3    H222455   0.280   1.431   0.725 -0.0530 -0.2896 -0.0001
  274TIP3   OH222456   1.047   4.860   0.620  0.1130 -0.4996 -0.5508
  274TIP3    H122457   1.026   4.950   0.645 -0.9972 -0.2386 -2.2288
  274TIP3    H222458   0.981   4.806   0.664  1.4177 -0.6600  1.3201
  275TIP3   OH222459   3.413   6.605   6.765 -0.0123 -0.3978  0.8528
  275TIP3    H122460   3.480   6.586   6.700  0.3633 -0.1138  1.1478
  275TIP3    H222461   3.350   6.660   6.719 -0.6716 -1.6217  0.2347
  276TIP3   OH222462   0.024   6.058   1.492 -0.2067 -0.0958 -0.7995
  276TIP3    H122463   0.053   6.102   1.413  1.3554 -0.6035 -0.5414
  276TIP3    H222464  -0.066   6.030   1.472 -0.7950  2.0583 -1.3989
  277TIP3   OH222465   5.529   0.075   0.736 -0.4303  0.1010 -0.1531
  277TIP3    H122466   5.598   0.126   0.779 -0.7648  1.4747 -1.1969
  277TIP3    H222467   5.523  -0.005   0.789  2.5664 -0.5021 -0.5554
  278TIP3   OH222468   1.741   5.494   1.991  0.1558  0.0130  0.1585
  278TIP3    H122469   1.828   5.457   1.972  0.1834 -0.3341  0.9217
  278TIP3    H222470   1.754   5.545   2.071 -0.8497 -2.1120  1.7916
  279TIP3   OH222471   2.130   4.643   0.001  0.2957 -0.3766 -0.8603
  279TIP3    H122472   2.113   4.660   0.094 -0.4108  2.4236 -1.4110
  279TIP3    H222473   2.218   4.605  -0.001 -0.1307 -1.6096  1.0015
  280TIP3   OH222474   1.431   3.853   8.881  0.0006  0.7003 -0.1533
  280TIP3    H122475   1.451   3.939   8.917 -0.4272  1.3599 -1.4100
  280TIP3    H222476   1.429   3.867   8.786 -1.9758 -0.2491 -0.3035
  281TIP3   OH222477   2.723   5.939   7.134  0.2533 -0.3469 -0.1918
  281TIP3    H122478   2.745   6.001   7.204 -1.1078 -0.7343  0.6188
  281TIP3    H222479   2.794   5.875   7.137  0.4384 -0.1183  0.5621
  282TIP3   OH222480   2.190   0.921   0.619 -0.2946 -0.4784  0.0337
  282TIP3    H122481   2.264   0.945   0.674 -0.1765  1.1208 -0.7547
  282TIP3    H222482   2.199   0.976   0.541 -2.2308 -0.3111 -0.1340
  283TIP3   OH222483   2.131   1.130   1.017  0.0170 -0.4479 -0.0617
  283TIP3    H122484   2.089   1.158   1.098 -0.3738  0.5838 -0.6030
  283TIP3    H222485   2.224   1.124   1.039  0.1765  1.6255  0.0228
  284TIP3   OH222486   2.901   3.099   0.689 -0.8657  0.2604  0.5842
  284TIP3    H122487   2.875   3.143   0.608  0.2310  1.5991  0.9265
  284TIP3    H222488   2.928   3.012   0.662 -0.5068  0.6981 -0.4904
  285TIP3   OH222489   4.533   1.481   1.502 -0.2426  0.5227 -0.2153
  285TIP3    H122490   4.577   1.543   1.560 -0.5081 -0.8929  1.5872
  285TIP3    H222491   4.440   1.500   1.513 -0.3327 -0.2667  0.4651
  286TIP3   OH222492   1.936   1.579   0.522  0.5079  0.0908  0.1967
  286TIP3    H122493   1.937   1.633   0.443  0.6258  0.7676  0.6598
  286TIP3    H222494   1.992   1.625   0.584 -1.3702  0.8100  1.4737
  287TIP3   OH222495   3.435   3.924   7.056  1.0046 -0.2312  0.0609
  287TIP3    H122496   3.360   3.874   7.089  1.3526 -0.4927  0.4604
  287TIP3    H222497   3.409   3.949   6.967  0.4343 -0.2994  0.1990
  288TIP3   OH222498   2.743   0.798   7.369  0.1095 -0.2409  0.7860
  288TIP3    H122499   2.687   0.722   7.382  0.6437 -0.7713  0.0876
  288TIP3    H222500   2.822   0.779   7.420  0.1235 -0.0262  0.8469
  289TIP3   OH222501   5.324   5.726   8.286 -0.2353  0.1776  0.0863
  289TIP3    H122502   5.317   5.638   8.325  4.5592  0.5206  2.4791
  289TIP3    H222503   5.271   5.782   8.344 -0.1902 -0.6077  0.9158
  290TIP3   OH222504   5.445   5.809   8.833  0.1443  0.0674  0.3605
  290TIP3    H122505   5.406   5.859   8.761  1.0578 -0.6215 -0.6459
  290TIP3    H222506   5.525   5.772   8.796  1.1889  0.5515  2.0551
  291TIP3   OH222507   1.085   3.117   8.093  0.6136 -0.4033 -0.4732
  291TIP3    H122508   1.012   3.161   8.137 -1.0019 -0.3506 -2.9928
  291TIP3    H222509   1.149   3.187   8.078 -0.0843  0.1866 -0.7596
  292TIP3   OH222510   0.799   3.834   8.900  0.5747 -0.1678  0.2178
  292TIP3    H122511   0.812   3.896   8.971  2.3665 -1.9339  1.5637
  292TIP3    H222512   0.886   3.820   8.863 -0.2778  0.5614 -2.2829
  293TIP3   OH222513   6.173   1.783   0.786 -0.3650  0.5669 -0.2814
  293TIP3    H122514   6.260   1.796   0.826  0.3993  2.4149 -2.3255
  293TIP3    H222515   6.124   1.861   0.811 -1.5525 -0.5137  0.9436
  294TIP3   OH222516   4.585   3.462   1.104  0.5538 -0.3118 -0.7353
  294TIP3    H122517   4.594   3.413   1.185  0.4131  0.6723 -0.1157
  294TIP3    H222518   4.549   3.398   1.042 -2.0379 -0.4041  0.7051
  295TIP3   OH222519   2.179   1.043   0.365  0.2104 -0.0033 -0.3141
  295TIP3    H122520   2.118   1.117   0.362  0.2584  0.0341 -0.3549
  295TIP3    H222521   2.260   1.077   0.328  0.3905  0.0761  0.1388
  296TIP3   OH222522   2.124   5.814   1.809  0.1094 -0.3063  0.1347
  296TIP3    H122523   2.032   5.788   1.814  0.3100 -0.9093  0.8180
  296TIP3    H222524   2.123   5.909   1.819 -0.4452 -0.2997  0.0424
  297TIP3   OH222525   3.322   4.132   1.207 -0.2839 -0.8795  0.2505
  297TIP3    H122526   3.348   4.134   1.115 -2.3835  1.4920 -0.3888
  297TIP3    H222527   3.388   4.186   1.251  0.8052 -2.1288  0.2296
  298TIP3   OH222528   5.256   2.588   0.181  0.3816 -0.3718 -0.0685
  298TIP3    H122529   5.236   2.605   0.273 -2.1940  0.3390 -0.6742
  298TIP3    H222530   5.228   2.667   0.135 -1.3829 -1.8429 -1.7509
  299TIP3   OH222531   0.968   5.758   1.613 -0.0754 -0.4601  0.5490
  299TIP3    H122532   0.899   5.764   1.679  0.3539 -0.5753  1.0169
  299TIP3    H222533   1.036   5.817   1.644 -1.0572  1.7933 -1.3075
  300TIP3   OH222534   4.309   1.310   2.451  0.1181  0.3789 -0.0964
  300TIP3    H122535   4.310   1.218   2.426 -0.3973  0.4066 -0.2074
  300TIP3    H222536   4.387   1.319   2.507  0.4552 -0.0031 -0.4891
  301TIP3   OH222537   2.082   3.069   8.726 -0.5131  0.1081  0.0757
  301TIP3    H122538   2.125   3.145   8.764 -0.9322 -0.2977  1.4522
  301TIP3    H222539   2.006   3.104   8.680 -0.7756  0.5196  0.8068
  302TIP3   OH222540   0.538   2.089   0.244 -0.5587  0.3042  0.3336
  302TIP3    H122541   0.460   2.054   0.286 -0.3910  0.3759  0.7084
  302TIP3    H222542   0.610   2.037   0.280 -0.4123  0.3716  0.1411
  303TIP3   OH222543   6.155   0.586   8.244 -0.1698  0.3971  0.3569
  303TIP3    H122544   6.154   0.608   8.337 -1.4750 -0.2099  0.5094
  303TIP3    H222545   6.156   0.491   8.241  1.9075  0.3800 -0.2935
  304TIP3   OH222546   4.931   0.041   6.830 -0.1925  0.1948 -0.2144
  304TIP3    H122547   4.915  -0.053   6.822 -1.4102  0.3307  0.3216
  304TIP3    H222548   5.023   0.048   6.856  0.3107 -0.7638 -1.6452
  305TIP3   OH222549   2.009   3.683   1.771  0.0266 -0.1238  0.0448
  305TIP3    H122550   2.065   3.607   1.757  0.3372 -0.0304  0.7178
  305TIP3    H222551   2.012   3.697   1.866 -0.5133  0.3592 -0.0046
  306TIP3   OH222552   5.063   4.792   7.366 -0.0463  0.2037  0.1798
  306TIP3    H122553   5.000   4.730   7.330  0.7971 -0.3343 -0.4067
  306TIP3    H222554   5.133   4.796   7.301 -0.1619  1.9163  0.1145
  307TIP3   OH222555   4.389   5.556   8.301  0.0727  0.6347 -1.0496
  307TIP3    H122556   4.337   5.476   8.290  0.1973  0.6433 -1.7812
  307TIP3    H222557   4.479   5.524   8.308  0.1204  0.7020 -1.3253
  308TIP3   OH222558   1.784   3.541   7.948 -0.2263 -0.0442  0.0847
  308TIP3    H122559   1.821   3.584   8.025  1.3197 -0.4659 -0.3930
  308TIP3    H222560   1.711   3.596   7.923 -0.6098  0.2378  1.7034
  309TIP3   OH222561   5.062   1.211   6.537 -0.5543 -0.1683 -0.2359
  309TIP3    H122562   4.973   1.238   6.559 -1.2303 -1.2538 -1.4851
  309TIP3    H222563   5.118   1.278   6.576 -2.0599  2.5075 -2.4015
  310TIP3   OH222564   5.502   1.680   7.702  0.2300  0.4040 -0.2125
  310TIP3    H122565   5.566   1.670   7.772 -1.5661  0.1825  1.4889
  310TIP3    H222566   5.437   1.613   7.719 -1.6025  2.0065 -0.5305
  311TIP3   OH222567   1.649   1.573   0.437  0.1844 -0.4235  0.0181
  311TIP3    H122568   1.631   1.492   0.388 -0.8950  0.3984 -1.0127
  311TIP3    H222569   1.744   1.574   0.448  0.3472 -1.1609 -1.1737
  312TIP3   OH222570   2.447   3.121   8.325  0.4811 -0.2065  0.2579
  312TIP3    H122571   2.475   3.052   8.264  0.5628  0.7474 -0.8206
  312TIP3    H222572   2.375   3.082   8.374  0.5504 -1.0756 -0.3078
  313TIP3   OH222573   0.702   6.653   1.140 -0.0512  0.0307 -0.2677
  313TIP3    H122574   0.682   6.586   1.074 -0.8185  1.8557 -2.0040
  313TIP3    H222575   0.641   6.634   1.212  1.6641 -2.7825  0.6296
  314TIP3   OH222576   5.236   2.029   7.283  0.7960  0.1507 -0.2027
  314TIP3    H122577   5.284   1.950   7.257 -0.9639 -0.7430 -0.9442
  314TIP3    H222578   5.296   2.076   7.340  2.7888 -0.5436 -1.6196
  315TIP3   OH222579   1.214   2.731   0.474  0.5337 -0.0809  0.0689
  315TIP3    H122580   1.243   2.644   0.500  0.8925 -0.7619 -2.3443
  315TIP3    H222581   1.243   2.740   0.383  0.8208  2.7078  0.3480
  316TIP3   OH222582   1.418   5.958   0.898 -0.1793 -0.4040 -0.0585
  316TIP3    H122583   1.470   5.972   0.977  2.3405  1.7540 -1.9171
  316TIP3    H222584   1.329   5.984   0.923  0.4634 -0.1011  2.1326
  317TIP3   OH222585   4.440   6.290   2.358 -0.0940 -0.4836 -0.0222
  317TIP3    H122586   4.450   6.201   2.326 -0.0022 -0.2193 -0.7571
  317TIP3    H222587   4.347   6.299   2.376  0.0006 -0.9425  0.7226
  318TIP3   OH222588   2.311   2.663   1.980  0.0825 -0.6518 -0.1206
  318TIP3    H122589   2.281   2.641   2.069  1.6846 -2.5355  0.0267
  318TIP3    H222590   2.376   2.732   1.994  0.5292 -1.1276  0.2402
  319TIP3   OH222591   0.263   6.281   7.557 -0.5727  0.1600  0.1957
  319TIP3    H122592   0.183   6.333   7.567  0.1997  1.4711 -0.2204
  319TIP3    H222593   0.239   6.194   7.590 -1.5611  1.0730  2.0480
  320TIP3   OH222594   1.147   0.597   0.552 -0.5508 -0.0210  0.0332
  320TIP3    H122595   1.069   0.618   0.501 -0.0826 -0.3388 -0.8312
  320TIP3    H222596   1.129   0.633   0.639 -1.4599  0.3217 -0.2846
  321TIP3   OH222597   6.274   5.188   1.914  0.0972  0.2102 -0.2539
  321TIP3    H122598   6.232   5.139   1.984 -0.7549 -1.5971 -1.9334
  321TIP3    H222599   6.201   5.223   1.862  0.7106  1.1142 -0.5327
  322TIP3   OH222600   4.827   3.039   2.247 -0.6742 -0.0586  0.2199
  322TIP3    H122601   4.751   3.084   2.210  0.9258  1.7140 -1.0855
  322TIP3    H222602   4.791   2.987   2.319 -3.6016 -1.7549 -2.2083
  323TIP3   OH222603   1.757   3.196   7.429  0.0817 -0.0558 -0.3490
  323TIP3    H122604   1.664   3.186   7.451 -0.3842  1.2190 -1.5883
  323TIP3    H222605   1.758   3.264   7.362  1.7775 -1.1232 -1.4732
  324TIP3   OH222606   2.417   2.801   0.613 -0.0461 -0.4667  0.3714
  324TIP3    H122607   2.451   2.792   0.702 -0.7289  0.2546  0.7269
  324TIP3    H222608   2.436   2.717   0.571  2.2755 -0.0562  0.4745
  325TIP3   OH222609   6.257   2.606   8.113 -0.5477  0.4794  0.0626
  325TIP3    H122610   6.239   2.512   8.118 -0.6413  0.5557  1.6221
  325TIP3    H222611   6.198   2.645   8.178 -0.3741  1.5924 -0.4330
  326TIP3   OH222612   5.446   2.320   8.215  0.2753 -0.4659 -0.3617
  326TIP3    H122613   5.380   2.352   8.153  0.9094 -0.8271 -1.2382
  326TIP3    H222614   5.520   2.380   8.204 -0.0417  0.1980  0.9272
  327TIP3   OH222615   6.118   6.417   0.059  0.0733  0.4967  0.0404
  327TIP3    H122616   6.075   6.499   0.034  0.3672  0.4831 -0.5273
  327TIP3    H222617   6.047   6.361   0.089 -0.0746  1.1382  0.9461
  328TIP3   OH222618   5.491   5.735   1.380 -0.6583  0.3557  0.0832
  328TIP3    H122619   5.506   5.641   1.390 -0.6611  0.0871 -2.0025
  328TIP3    H222620   5.489   5.749   1.286  0.8924  2.6977  0.3161
  329TIP3   OH222621   3.628   3.980   8.316  0.2852 -0.4978  0.3286
  329TIP3    H122622   3.650   4.042   8.247 -0.1317 -0.9620 -0.2323
  329TIP3    H222623   3.601   4.034   8.390  0.1643 -0.0074 -0.0703
  330TIP3   OH222624   2.740   0.268   7.659 -0.5739 -0.3771  0.2830
  330TIP3    H122625   2.680   0.198   7.685  0.0261 -0.7546  0.6805
  330TIP3    H222626   2.684   0.337   7.625 -1.1471 -1.2577 -0.5960
  331TIP3   OH222627   5.700   0.878   1.852 -0.2845  0.9484 -0.2112
  331TIP3    H122628   5.726   0.798   1.807 -1.3687  1.0604 -1.0943
  331TIP3    H222629   5.648   0.847   1.927  0.8479  0.7870  0.5278
  332TIP3   OH222630   4.381   4.015   2.180 -0.8758 -0.1298  0.6595
  332TIP3    H122631   4.361   4.079   2.111  0.4987  2.2138  2.3249
  332TIP3    H222632   4.437   3.951   2.136  0.8258  1.8510 -0.2705
  333TIP3   OH222633   2.616   1.800   0.044 -0.3625  0.2536  0.0094
  333TIP3    H122634   2.618   1.844   0.129 -0.1615  2.8327 -1.2131
  333TIP3    H222635   2.534   1.828   0.004  0.3640  0.5617 -1.3352
  334TIP3   OH222636   0.733   2.426   0.954  0.3097  0.4752 -0.2101
  334TIP3    H122637   0.767   2.489   0.890  0.7558  0.5489  0.0991
  334TIP3    H222638   0.645   2.459   0.974 -0.1018  0.0891 -1.2690
  335TIP3   OH222639   5.584   4.231   0.460  0.7312 -0.2391  0.0811
  335TIP3    H122640   5.510   4.272   0.504  1.0062  0.2938  0.0487
  335TIP3    H222641   5.658   4.246   0.519  1.2884  1.2092 -0.9217
  336TIP3   OH222642   1.925   6.530   7.501  0.3934  0.2543  0.3324
  336TIP3    H122643   1.968   6.471   7.563  2.4166  0.4098 -0.8250
  336TIP3    H222644   1.932   6.616   7.542  2.4534  0.4837 -0.3934
  337TIP3   OH222645   0.780   4.151   0.881  0.4241  0.0523 -0.0854
  337TIP3    H122646   0.725   4.228   0.898  1.4908  0.7973  0.0428
  337TIP3    H222647   0.809   4.122   0.968  0.6337 -0.0496 -0.1882
  338TIP3   OH222648   3.535   5.104   7.223  0.8091 -0.3324 -0.4042
  338TIP3    H122649   3.526   5.149   7.139  1.9805  0.6855 -0.0083
  338TIP3    H222650   3.599   5.035   7.205 -1.2202 -2.1567 -1.0943
  339TIP3   OH222651   3.974   2.187   1.685  0.2461 -0.2312  0.6857
  339TIP3    H122652   3.973   2.122   1.755  0.7555 -0.5208  0.4308
  339TIP3    H222653   3.883   2.196   1.659  0.3771 -2.4038 -0.7000
  340TIP3   OH222654   2.957   4.134   7.771 -0.6471  0.2178 -0.0753
  340TIP3    H122655   2.931   4.081   7.695 -2.1258  1.1957 -0.2956
  340TIP3    H222656   2.910   4.095   7.844 -1.0596  0.6864 -0.0868
  341TIP3   OH222657   5.293   3.467   6.422  0.1349 -0.1786  0.0535
  341TIP3    H122658   5.337   3.417   6.353 -0.5160  0.9502 -1.2007
  341TIP3    H222659   5.268   3.549   6.381 -0.3315  0.5043  1.6275
  342TIP3   OH222660   6.430   3.417   1.667 -0.1153 -0.1431  0.3525
  342TIP3    H122661   6.445   3.368   1.748 -0.9645 -1.9494 -0.5179
  342TIP3    H222662   6.490   3.378   1.603 -3.0048 -2.4825 -1.2258
  343TIP3   OH222663   4.993   3.537   0.406 -0.2614  0.1636 -0.1542
  343TIP3    H122664   5.034   3.584   0.478 -1.5488  1.4287 -0.1924
  343TIP3    H222665   4.995   3.445   0.433  1.5049  0.3158  0.3343
  344TIP3   OH222666   1.242   3.758   8.581  0.1209  0.0523  0.2920
  344TIP3    H122667   1.199   3.676   8.556 -0.1479  0.1002  0.5945
  344TIP3    H222668   1.186   3.826   8.545  0.3105  0.1051  0.0970
  345TIP3   OH222669   1.070   0.836   7.471 -0.1291  0.4914 -0.9679
  345TIP3    H122670   1.081   0.929   7.492  0.2339  0.3314 -0.3994
  345TIP3    H222671   1.157   0.808   7.440  0.1142  0.0630  0.0459
  346TIP3   OH222672   0.181   4.999   8.362  0.5951 -0.4121 -0.6027
  346TIP3    H122673   0.120   4.959   8.423 -0.2366  1.4604 -0.1309
  346TIP3    H222674   0.134   4.999   8.278 -0.8319  2.4506  0.0775
  347TIP3   OH222675   2.565   3.265   1.272  0.1212 -0.1440  0.4034
  347TIP3    H122676   2.581   3.262   1.178  1.3040 -1.3785  0.6057
  347TIP3    H222677   2.473   3.288   1.281  0.0775  0.3155 -1.0363
  348TIP3   OH222678   2.504   1.037   7.109  0.2193 -0.4109  0.3888
  348TIP3    H122679   2.520   1.114   7.054  0.0020 -0.9909 -0.5067
  348TIP3    H222680   2.439   1.067   7.174 -0.9461 -0.2187 -0.8282
  349TIP3   OH222681   1.523   0.713   1.687  0.0714  0.3909 -0.1117
  349TIP3    H122682   1.450   0.754   1.732  0.4360  0.5190  0.3739
  349TIP3    H222683   1.558   0.650   1.750  1.5864  1.7016  0.4103
  350TIP3   OH222684   0.295   4.065   7.781  0.2085 -0.1535 -0.6614
  350TIP3    H122685   0.259   4.103   7.701 -0.9245  1.7548  0.6769
  350TIP3    H222686   0.284   4.133   7.847  1.8450 -1.3698  0.9632
  351TIP3   OH222687   4.482   0.310   1.800 -0.3310 -0.7810 -0.0229
  351TIP3    H122688   4.497   0.226   1.843 -2.3830 -0.9275  0.5024
  351TIP3    H222689   4.425   0.288   1.726  2.2426 -0.3753 -2.3208
  352TIP3   OH222690   6.149   5.203   7.749  0.1682  0.0073  0.2472
  352TIP3    H122691   6.194   5.285   7.772  0.2546  0.5529 -1.7178
  352TIP3    H222692   6.099   5.181   7.828  1.0141  1.3491  1.2078
  353TIP3   OH222693   4.121   3.767   7.441 -0.1435 -0.0564  0.5171
  353TIP3    H122694   4.031   3.779   7.412  1.1398 -1.0887 -4.9086
  353TIP3    H222695   4.156   3.855   7.449 -0.7796  0.3304 -0.7736
  354TIP3   OH222696   6.274   1.549   0.336  0.4212 -0.2782  0.2328
  354TIP3    H122697   6.183   1.579   0.334  0.0974 -1.2439 -0.4817
  354TIP3    H222698   6.326   1.629   0.335 -0.4075  0.3105  1.4131
  355TIP3   OH222699   1.297   2.083   7.632 -0.1988 -0.1042  0.4016
  355TIP3    H122700   1.303   2.174   7.660 -0.7033 -0.0052  0.2000
  355TIP3    H222701   1.384   2.047   7.648  0.3225  0.7036 -0.5513
  356TIP3   OH222702   2.741   2.635   0.652 -0.0778  0.1020  0.0425
  356TIP3    H122703   2.700   2.703   0.705 -0.5111  1.0772 -1.4566
  356TIP3    H222704   2.673   2.609   0.589  1.2411  1.1152 -1.9182
  357TIP3   OH222705   4.464   4.233   8.310 -0.7022  0.1445 -0.1819
  357TIP3    H122706   4.431   4.194   8.390  0.6493 -0.9781 -0.1459
  357TIP3    H222707   4.389   4.234   8.251 -1.3901 -0.1576  0.6740
  358TIP3   OH222708   4.831   6.123   1.407  0.6732  0.6623  0.1740
  358TIP3    H122709   4.849   6.161   1.493  0.1861  0.9193  0.1654
  358TIP3    H222710   4.857   6.192   1.345 -0.6448  1.1747  0.1710
  359TIP3   OH222711   1.321   5.089   7.786  0.1831  0.3630 -0.5766
  359TIP3    H122712   1.407   5.110   7.822 -0.4599 -0.0437  1.3248
  359TIP3    H222713   1.270   5.169   7.797 -0.0463  0.2073 -0.4847
  360TIP3   OH222714   0.947   4.130   0.663 -0.5005  0.0631 -0.3967
  360TIP3    H122715   0.889   4.158   0.733 -0.9015 -0.1431 -0.6421
  360TIP3    H222716   0.998   4.058   0.701  1.9179  2.2754  0.8774
  361TIP3   OH222717   5.766   3.032   1.678  0.5130 -0.7536 -0.0168
  361TIP3    H122718   5.672   3.050   1.680 -0.0166 -3.0156 -0.6103
  361TIP3    H222719   5.773   2.941   1.708  2.5642 -0.5379  0.3208
  362TIP3   OH222720   3.625   4.906   0.593  0.4059  0.1625 -0.0800
  362TIP3    H122721   3.717   4.889   0.613  0.3219 -0.4501 -0.1961
  362TIP3    H222722   3.592   4.955   0.668  0.5587 -0.5250  0.4365
  363TIP3   OH222723   0.499   6.226   8.816 -0.0517 -0.1632 -0.4667
  363TIP3    H122724   0.550   6.284   8.873  1.3359 -1.5220 -0.2639
  363TIP3    H222725   0.525   6.251   8.727  0.7644 -0.6553 -0.3712
  364TIP3   OH222726   3.970   4.419   6.956 -0.0127  0.3238  0.2915
  364TIP3    H122727   3.966   4.335   7.003 -0.0030  0.1700  0.0194
  364TIP3    H222728   3.970   4.395   6.864 -1.2904  0.6678  0.1847
  365TIP3   OH222729   1.644   1.415   1.235 -0.4629  0.7713  0.1348
  365TIP3    H122730   1.619   1.334   1.192  0.0544  0.2204  0.8480
  365TIP3    H222731   1.561   1.456   1.258 -0.7401 -0.2006  0.9429
  366TIP3   OH222732   3.010   6.096   7.785  0.4775 -0.2217  0.5964
  366TIP3    H122733   3.095   6.075   7.824 -0.1539 -2.4812  0.9184
  366TIP3    H222734   2.949   6.098   7.859 -0.0891 -0.7312  0.1546
  367TIP3   OH222735   5.119   3.574   7.663  0.4744  0.3659  0.5578
  367TIP3    H122736   5.095   3.484   7.640  2.1977 -0.9888  3.3718
  367TIP3    H222737   5.044   3.607   7.712  0.4497 -0.1576  0.8830
  368TIP3   OH222738   1.668   6.057   1.340  0.4574 -0.0569 -0.7466
  368TIP3    H122739   1.682   6.137   1.291 -2.7273  0.3445 -1.2482
  368TIP3    H222740   1.610   6.083   1.412 -1.2214 -1.9331 -1.3188
  369TIP3   OH222741   3.028   0.947   8.789 -0.1345 -0.3826 -0.7290
  369TIP3    H122742   3.010   0.971   8.698 -0.0937 -0.3499 -0.7288
  369TIP3    H222743   3.008   1.026   8.839  0.9680 -0.0023 -0.8419
  370TIP3   OH222744   3.223   4.524   6.359 -0.2177 -0.2903 -1.2405
  370TIP3    H122745   3.198   4.531   6.451  1.2047 -0.0575 -0.8522
  370TIP3    H222746   3.139   4.520   6.312 -0.9733 -1.2966  0.1089
  371TIP3   OH222747   5.645   2.957   1.019 -0.2679  0.1999 -0.3394
  371TIP3    H122748   5.623   2.952   0.926  0.6850 -1.6236 -0.5321
  371TIP3    H222749   5.740   2.942   1.021  0.0024  1.8667  0.8311
  372TIP3   OH222750   3.214   1.616   2.683 -0.9737  0.0892  0.4964
  372TIP3    H122751   3.128   1.617   2.725 -1.5730  1.9637 -0.6700
  372TIP3    H222752   3.199   1.569   2.600 -1.8365  3.3297 -1.3703
  373TIP3   OH222753   4.338   0.805   1.562 -0.0895 -0.7039  0.2465
  373TIP3    H122754   4.319   0.713   1.580  0.0185 -0.6756  0.5174
  373TIP3    H222755   4.299   0.852   1.636 -1.2010 -0.4218 -0.4962
  374TIP3   OH222756   1.482   1.221   1.140  0.1705  0.0826 -0.3851
  374TIP3    H122757   1.402   1.259   1.105  0.0986  0.1921 -0.1122
  374TIP3    H222758   1.479   1.129   1.115  0.3708  0.2711 -1.0976
  375TIP3   OH222759   4.624   2.277   7.424 -0.1515 -0.5941  0.2610
  375TIP3    H122760   4.599   2.306   7.337  0.0690  0.0502  0.4073
  375TIP3    H222761   4.690   2.209   7.409 -0.5933 -0.9536 -0.0805
  376TIP3   OH222762   3.562   6.675   0.420  0.0696 -0.1848 -0.2528
  376TIP3    H122763   3.491   6.612   0.405  0.1889 -1.0405  2.3362
  376TIP3    H222764   3.521   6.748   0.466  0.3971  0.5374 -1.0852
  377TIP3   OH222765   6.583   3.052   2.164 -0.6174  0.1683 -0.5065
  377TIP3    H122766   6.522   3.124   2.174 -1.3583 -0.5736  0.6144
  377TIP3    H222767   6.528   2.974   2.157  0.0966 -0.7685  2.4773
  378TIP3   OH222768   3.230   1.175   0.914 -0.1919  0.3089 -0.2420
  378TIP3    H122769   3.322   1.202   0.918 -0.1647  0.3214 -0.8283
  378TIP3    H222770   3.201   1.173   1.005  1.0588 -1.9720  0.1629
  379TIP3   OH222771   4.627   4.087   7.029 -0.1250  0.6657 -0.2255
  379TIP3    H122772   4.693   4.101   7.097  0.8193 -1.3904 -0.6462
  379TIP3    H222773   4.667   4.123   6.950 -0.0165  0.5048 -0.2443
  380TIP3   OH222774   0.330   1.845   0.138 -0.5309  0.0383 -0.1099
  380TIP3    H122775   0.253   1.789   0.152 -0.8230  0.1245 -1.2641
  380TIP3    H222776   0.347   1.839   0.044  1.4823 -0.7610  0.2441
  381TIP3   OH222777   3.044   0.836   7.483 -0.0677 -0.3382 -0.2949
  381TIP3    H122778   3.062   0.800   7.396  3.2064  0.6942 -0.1733
  381TIP3    H222779   3.054   0.931   7.472 -0.0346 -0.1612  1.1392
  382TIP3   OH222780   5.667   4.659   7.637 -0.3316  0.2236 -0.2979
  382TIP3    H122781   5.698   4.717   7.568  2.0431  0.0325  0.5311
  382TIP3    H222782   5.701   4.573   7.613 -2.3440 -0.5425 -0.6018
  383TIP3   OH222783   1.579   6.630   8.285 -0.1557  0.2048  0.1003
  383TIP3    H122784   1.588   6.600   8.195 -1.4827  0.1898 -0.0585
  383TIP3    H222785   1.645   6.698   8.295  0.4491 -0.2571 -0.6687
  384TIP3   OH222786   0.896   6.329   8.378  0.2386 -0.1614  0.4679
  384TIP3    H122787   0.804   6.309   8.361  0.0736  0.5362  0.5409
  384TIP3    H222788   0.942   6.248   8.354 -0.4534 -0.7582  1.0734
  385TIP3   OH222789   5.329   5.984   8.655 -0.4665 -0.3441 -0.0947
  385TIP3    H122790   5.276   6.060   8.679 -0.4048  0.3804 -2.0300
  385TIP3    H222791   5.390   6.017   8.589  1.3352 -1.5325  0.8865
  386TIP3   OH222792   6.585   5.904   2.583  0.3092 -0.4624 -0.0446
  386TIP3    H122793   6.557   5.972   2.645 -0.6484  1.3331 -2.3062
  386TIP3    H222794   6.671   5.932   2.554  0.0140 -0.3282 -0.8073
  387TIP3   OH222795   2.960   0.449   7.341 -0.2422  0.4840  0.0662
  387TIP3    H122796   2.888   0.400   7.300  1.0564  0.0942 -1.9002
  387TIP3    H222797   3.031   0.386   7.346  0.8752  1.6407 -0.7676
  388TIP3   OH222798   0.713   5.760   1.395  0.3963  0.1265 -0.1482
  388TIP3    H122799   0.676   5.845   1.373 -0.2531 -0.5721 -1.9728
  388TIP3    H222800   0.674   5.738   1.480 -0.7411  0.9187 -0.4362
  389TIP3   OH222801   0.778   5.073   0.910 -0.2256 -0.4025  0.1696
  389TIP3    H122802   0.703   5.131   0.910  0.1919  0.1465  0.1924
  389TIP3    H222803   0.790   5.048   1.001  0.2207  0.3133  0.3175
  390TIP3   OH222804   3.720   5.413   0.094 -0.3852  0.6941  0.5254
  390TIP3    H122805   3.628   5.389   0.081 -0.6473  1.6587  0.5303
  390TIP3    H222806   3.757   5.340   0.144 -1.1185  0.2528  0.4358
  391TIP3   OH222807   4.747   2.565   8.840  0.2074  0.4911  0.0483
  391TIP3    H122808   4.719   2.643   8.888 -3.2104 -0.7413  0.3491
  391TIP3    H222809   4.714   2.579   8.751  0.0287 -0.3548 -0.0253
  392TIP3   OH222810   3.487   1.042   0.284  0.7280 -0.0706  0.1348
  392TIP3    H122811   3.527   0.993   0.213  1.7253 -1.9637  1.8882
  392TIP3    H222812   3.398   1.006   0.292  0.8949 -0.4282  0.3711
  393TIP3   OH222813   1.037   1.117   8.670 -0.0003  0.4158  0.2004
  393TIP3    H122814   1.087   1.047   8.712 -0.1580 -0.8549 -1.6569
  393TIP3    H222815   0.964   1.073   8.628 -0.6076  1.8173 -0.2669
  394TIP3   OH222816   2.905   5.108   8.296 -0.6159  0.5130 -0.5780
  394TIP3    H122817   2.952   5.178   8.251  0.2070  1.2136  1.2762
  394TIP3    H222818   2.832   5.152   8.340 -1.3217 -0.1307 -1.0802
  395TIP3   OH222819   6.095   2.366   0.320  0.5764  0.0700 -0.0859
  395TIP3    H122820   6.051   2.288   0.355  1.4588 -0.0623  0.7641
  395TIP3    H222821   6.145   2.333   0.245 -0.1750  0.0904 -0.6093
  396TIP3   OH222822   1.126   4.128   0.954 -0.2245 -0.1377  0.0634
  396TIP3    H122823   1.151   4.067   1.023  0.8365  1.1704  0.8881
  396TIP3    H222824   1.052   4.177   0.991  0.2156  0.4245  0.2306
  397TIP3   OH222825   3.089   1.059   8.491  0.0237  0.5927  0.0057
  397TIP3    H122826   3.178   1.062   8.525  0.5298  1.1896 -1.2924
  397TIP3    H222827   3.100   1.041   8.398 -1.3535 -2.2496  0.3006
  398TIP3   OH222828   6.430   6.411   8.240  0.1212 -0.4366  0.1456
  398TIP3    H122829   6.379   6.465   8.181  1.6551  2.4972  1.3070
  398TIP3    H222830   6.371   6.390   8.312 -0.3086  0.3554  0.0287
  399TIP3   OH222831   3.601   4.425   8.536 -0.5216  0.0335  0.1987
  399TIP3    H122832   3.558   4.480   8.471  0.9699  0.6439 -0.3199
  399TIP3    H222833   3.620   4.484   8.609 -0.3549 -0.1741  0.3248
  400TIP3   OH222834   0.799   0.875   1.988  0.2871 -0.0381 -0.3469
  400TIP3    H122835   0.729   0.861   1.924  1.4938 -0.0594 -1.7436
  400TIP3    H222836   0.842   0.789   1.994  1.2042  0.3728 -0.8092
  401TIP3   OH222837   4.312   2.901   0.174  0.0381 -0.4658 -0.1858
  401TIP3    H122838   4.347   2.850   0.247  0.7277 -0.7814 -0.7179
  401TIP3    H222839   4.239   2.849   0.141 -2.3206  1.1162  2.1584
  402TIP3   OH222840   4.989   5.791   1.176  0.2531 -0.0602 -0.2766
  402TIP3    H122841   4.989   5.863   1.113  1.9159  1.0107  0.8824
  402TIP3    H222842   5.072   5.746   1.162  0.3257 -0.2366  0.6922
  403TIP3   OH222843   2.638   2.763   6.487 -0.0316 -0.7343 -0.3018
  403TIP3    H122844   2.621   2.783   6.579 -0.9368  1.4362 -0.8873
  403TIP3    H222845   2.734   2.759   6.481  0.1601  1.4849  0.3345
  404TIP3   OH222846   0.400   6.162   0.274  0.5440  0.0633  0.2677
  404TIP3    H122847   0.377   6.250   0.245  0.0643  0.0923  0.7245
  404TIP3    H222848   0.453   6.176   0.353  1.4918 -0.0285 -0.3272
  405TIP3   OH222849   2.718   3.207   1.594  0.0920 -0.5034  0.4823
  405TIP3    H122850   2.795   3.251   1.558  0.5795 -1.1530  0.7213
  405TIP3    H222851   2.753   3.132   1.642 -0.6929 -0.8506  0.5288
  406TIP3   OH222852   4.747   6.516   6.449 -0.0170  0.1145  0.0734
  406TIP3    H122853   4.742   6.430   6.409 -0.3336 -0.8671  2.0783
  406TIP3    H222854   4.809   6.565   6.395  0.2715 -1.4076 -1.0287
  407TIP3   OH222855   2.762   3.718   0.329  0.3051  0.2259  0.5238
  407TIP3    H122856   2.696   3.651   0.345 -0.8024  0.8097 -1.2786
  407TIP3    H222857   2.834   3.671   0.286 -0.0668  0.0161  0.1200
  408TIP3   OH222858   1.711   4.461   7.601 -1.0464  0.1956 -0.2140
  408TIP3    H122859   1.746   4.500   7.681 -2.2659  1.1659 -0.1271
  408TIP3    H222860   1.786   4.417   7.561  0.0255  1.3648  0.4545
  409TIP3   OH222861   6.647   0.125   7.911  0.1082 -0.0750  0.0066
  409TIP3    H122862   6.741   0.116   7.894 -0.1538 -1.3372 -0.8434
  409TIP3    H222863   6.642   0.155   8.001  1.3042 -1.2022  0.4757
  410TIP3   OH222864   6.037   5.470   6.569 -0.1859 -0.0065  0.4347
  410TIP3    H122865   6.128   5.497   6.578  1.0463 -3.2104 -0.8226
  410TIP3    H222866   6.027   5.397   6.630 -1.7173 -0.1325  0.0895
  411TIP3   OH222867   4.118   4.535   0.923 -0.5700 -0.1516  0.2903
  411TIP3    H122868   4.100   4.601   0.990 -0.6782 -0.2838  0.3913
  411TIP3    H222869   4.174   4.470   0.967  0.2002  0.2814 -0.0321
  412TIP3   OH222870   3.819   2.046   0.982  0.5835  0.2715  0.0344
  412TIP3    H122871   3.881   2.117   0.965  0.2279  0.7476  0.6684
  412TIP3    H222872   3.734   2.089   0.985  0.3799 -0.1599  0.5530
  413TIP3   OH222873   6.616   1.604   7.207  0.2616  0.0539  0.9172
  413TIP3    H122874   6.669   1.579   7.131  0.1830  0.4106  0.7410
  413TIP3    H222875   6.536   1.552   7.198 -0.5574  1.4386 -0.2815
  414TIP3   OH222876   6.273   3.107   7.241 -0.0920 -0.0531 -0.8954
  414TIP3    H122877   6.270   3.203   7.237  0.0293  0.0430  0.6577
  414TIP3    H222878   6.227   3.078   7.162 -1.4742  1.2803 -0.6259
  415TIP3   OH222879   2.157   5.243   7.188 -0.1085  0.1098  0.3936
  415TIP3    H122880   2.152   5.203   7.275 -0.0067  1.9467  1.2967
  415TIP3    H222881   2.234   5.300   7.192 -0.1045  0.2237 -0.8990
  416TIP3   OH222882   5.898   3.850   0.201  0.3241  0.2541 -0.4860
  416TIP3    H122883   5.845   3.807   0.133 -2.1271 -0.2124  1.5660
  416TIP3    H222884   5.887   3.944   0.184  0.5074  0.1425 -1.2662
  417TIP3   OH222885   3.855   6.292   0.644  0.8340 -0.4302  0.4547
  417TIP3    H122886   3.770   6.335   0.643  0.6283 -0.8340  0.2985
  417TIP3    H222887   3.852   6.230   0.571  0.7702 -1.3860  1.2488
  418TIP3   OH222888   2.735   6.413   7.475 -1.0722  0.0890 -0.0255
  418TIP3    H122889   2.816   6.443   7.435 -1.9650  1.9629 -0.5463
  418TIP3    H222890   2.763   6.354   7.545  0.7347  0.7898 -0.1132
  419TIP3   OH222891   0.403   2.389   7.016  0.2452  0.1627  0.3123
  419TIP3    H122892   0.444   2.303   7.009  0.0751 -0.0136  1.3724
  419TIP3    H222893   0.322   2.373   7.064 -0.5860  0.6722 -0.8848
  420TIP3   OH222894   2.424   0.616   6.339  0.4427  0.0299 -0.2951
  420TIP3    H122895   2.351   0.655   6.291 -0.5826 -0.9766  0.4002
  420TIP3    H222896   2.383   0.554   6.399  1.9168 -0.9882 -0.2878
  421TIP3   OH222897   6.065   0.464   7.264 -0.3132 -0.1553 -0.0186
  421TIP3    H122898   6.093   0.534   7.323  1.4209  0.4744 -1.5057
  421TIP3    H222899   6.146   0.425   7.232 -1.2002 -0.8280 -1.5868
  422TIP3   OH222900   6.273   0.022   1.535 -0.1905  0.7456  0.0182
  422TIP3    H122901   6.332   0.041   1.462  3.3112 -3.2668  1.4371
  422TIP3    H222902   6.214  -0.045   1.501  0.9145 -0.5332  0.5500
  423TIP3   OH222903   0.516   5.788   1.654  0.5493 -0.5712  0.2474
  423TIP3    H122904   0.600   5.823   1.686  0.2058 -0.6729  1.2973
  423TIP3    H222905   0.454   5.859   1.668  0.3277 -0.7306  0.0782
  424TIP3   OH222906   5.115   5.197   2.131  0.1023 -0.2285 -0.4095
  424TIP3    H122907   5.127   5.285   2.096 -3.1287  0.0419 -1.2001
  424TIP3    H222908   5.048   5.207   2.198 -0.7153 -2.1256 -0.8701
  425TIP3   OH222909   1.696   2.860   0.143  0.5292  0.2421  0.1296
  425TIP3    H122910   1.695   2.898   0.055  2.6914 -0.3892 -0.2205
  425TIP3    H222911   1.788   2.859   0.168 -0.0353  0.4048  2.4324
  426TIP3   OH222912   5.068   5.654   0.271  0.0847  0.7380 -0.6638
  426TIP3    H122913   5.120   5.687   0.198 -0.0927  0.5954 -0.8563
  426TIP3    H222914   5.085   5.560   0.273  0.7469  0.8565  0.0112
  427TIP3   OH222915   3.892   3.635   7.919  0.1417  0.0057  0.1791
  427TIP3    H122916   3.854   3.707   7.969 -0.6703  1.5025 -2.3641
  427TIP3    H222917   3.817   3.580   7.896  0.6878 -1.4289  1.6544
  428TIP3   OH222918   5.316   0.160   2.438  0.4945  0.5198 -0.1580
  428TIP3    H122919   5.304   0.241   2.389  1.4591  0.9759  0.3363
  428TIP3    H222920   5.263   0.172   2.517 -0.1069  0.2743 -0.5166
  429TIP3   OH222921   0.940   2.862   7.649 -0.0057 -0.0405  0.0336
  429TIP3    H122922   0.878   2.921   7.693 -0.6370 -0.9699  0.4069
  429TIP3    H222923   0.959   2.795   7.714 -0.8668 -1.3870 -1.0605
  430TIP3   OH222924   6.622   3.300   1.538  0.0030  0.3680  0.6340
  430TIP3    H122925   6.693   3.360   1.563 -0.8254  0.5008  2.8989
  430TIP3    H222926   6.637   3.283   1.445  2.1311  1.5520  0.6883
  431TIP3   OH222927   5.086   6.615   2.248  0.0514  0.6118  0.0914
  431TIP3    H122928   5.041   6.690   2.210  1.0707  1.7056  0.9611
  431TIP3    H222929   5.034   6.539   2.220 -0.6125  1.5595 -1.3786
  432TIP3   OH222930   1.948   0.638   2.145 -0.0250  0.4106 -0.1827
  432TIP3    H122931   2.005   0.689   2.087 -0.5184  0.8111 -0.3293
  432TIP3    H222932   1.970   0.547   2.126  0.2404  0.5527 -0.5716
  433TIP3   OH222933   6.082   5.029   8.436  0.0583 -0.0017 -0.5015
  433TIP3    H122934   6.073   4.993   8.524  3.9876  0.8872  0.4696
  433TIP3    H222935   6.098   4.953   8.380  0.1946 -0.3942  0.0667
  434TIP3   OH222936   5.293   2.713   0.436 -0.4037  0.2194 -0.3730
  434TIP3    H122937   5.284   2.808   0.445 -1.4043  0.0470  0.5317
  434TIP3    H222938   5.379   2.694   0.474 -1.4011  0.4426  2.1858
  435TIP3   OH222939   6.112   2.918   8.068 -0.5551 -1.2648  0.3418
  435TIP3    H122940   6.040   2.859   8.047 -0.6455 -0.3930 -2.0964
  435TIP3    H222941   6.153   2.938   7.984  3.1144 -2.3566  1.6354
  436TIP3   OH222942   2.052   5.566   0.065 -0.4979 -0.1036  0.1634
  436TIP3    H122943   2.109   5.496   0.033  0.4382  1.4293 -1.6876
  436TIP3    H222944   1.999   5.591  -0.011 -0.5240  1.4628  0.6609
  437TIP3   OH222945   1.873   6.424   0.743  0.2192 -0.3480 -0.4701
  437TIP3    H122946   1.922   6.444   0.823  1.4046  2.4951 -1.7634
  437TIP3    H222947   1.890   6.331   0.727  1.3168 -0.5778  1.6572
  438TIP3   OH222948   2.059   6.251   2.286  0.0401 -0.2993  0.3784
  438TIP3    H122949   2.153   6.271   2.296  0.0277  0.0111 -0.0907
  438TIP3    H222950   2.015   6.329   2.322 -0.0274 -0.0622 -0.2179
  439TIP3   OH222951   5.270   4.443   0.704 -0.6226  0.5501  0.2303
  439TIP3    H122952   5.314   4.378   0.759 -3.0554 -1.1388  0.3250
  439TIP3    H222953   5.261   4.520   0.761  1.6810  0.8314  0.3367
  440TIP3   OH222954   4.835   5.978   1.969 -0.0589 -0.2630  0.5882
  440TIP3    H122955   4.751   6.023   1.982 -0.6595 -1.0500 -0.4494
  440TIP3    H222956   4.901   6.048   1.979 -0.7929  0.2974  1.7690
  441TIP3   OH222957   2.162   5.764   0.854  0.3646 -0.0100 -0.1178
  441TIP3    H122958   2.100   5.744   0.784  0.4448  0.1398 -0.2333
  441TIP3    H222959   2.121   5.836   0.903  0.1457 -0.3519  0.2050
  442TIP3   OH222960   3.871   6.465   0.881 -0.4069 -0.5502  0.1696
  442TIP3    H122961   3.883   6.370   0.874 -1.4047 -0.5761 -2.4387
  442TIP3    H222962   3.867   6.495   0.790 -1.5324  1.8057  0.9265
  443TIP3   OH222963   0.566   0.293   0.566 -0.5678 -0.4955  0.7104
  443TIP3    H122964   0.607   0.379   0.568 -0.6313 -0.3909 -1.0929
  443TIP3    H222965   0.639   0.231   0.562 -0.4801 -0.6448  3.0447
  444TIP3   OH222966   3.006   4.489   6.228  0.4293  0.2705 -0.1601
  444TIP3    H122967   3.047   4.466   6.144  2.9560  0.4172  0.9620
  444TIP3    H222968   2.925   4.437   6.230 -0.2767  1.0697 -3.1278
  445TIP3   OH222969   3.696   0.263   7.465  0.0203 -0.0998 -0.1324
  445TIP3    H122970   3.617   0.283   7.414 -0.3654  2.0812  1.2248
  445TIP3    H222971   3.752   0.339   7.453 -0.1004  0.5030  2.6820
  446TIP3   OH222972   2.814   3.765   6.855 -0.7205 -0.2200  0.3511
  446TIP3    H122973   2.818   3.678   6.814 -0.1747 -0.9260  1.8394
  446TIP3    H222974   2.892   3.769   6.910 -0.3797  1.5044 -0.2143
  447TIP3   OH222975   5.031   0.047   7.689 -0.4482  0.0674  0.0732
  447TIP3    H122976   5.039  -0.017   7.619 -0.9626  1.4968 -1.3664
  447TIP3    H222977   5.110   0.100   7.682  0.2993 -0.7648  1.6803
  448TIP3   OH222978   0.536   6.514   1.593  0.2127 -1.1562  0.0329
  448TIP3    H122979   0.614   6.475   1.632 -0.7292 -1.8164  1.3224
  448TIP3    H222980   0.484   6.544   1.667 -0.3092  0.2126 -0.8401
  449TIP3   OH222981   6.281   0.872   6.966 -0.5694 -0.2709  0.1242
  449TIP3    H122982   6.268   0.785   6.928  1.0391 -0.4051 -0.1781
  449TIP3    H222983   6.277   0.858   7.060  0.5173 -0.8413  0.0995
  450TIP3   OH222984   2.329   4.690   1.095  0.6964 -0.3068  0.7779
  450TIP3    H122985   2.355   4.775   1.058  1.8773 -1.1301 -0.3632
  450TIP3    H222986   2.247   4.709   1.141  0.4173  1.2653 -0.2627
  451TIP3   OH222987   3.638   4.003   7.233 -0.0688 -0.2594  0.4949
  451TIP3    H122988   3.553   3.966   7.209 -0.2202 -1.1204  2.1864
  451TIP3    H222989   3.622   4.046   7.317  1.1670 -0.4710  0.8494
  452TIP3   OH222990   2.524   4.923   0.547 -0.1840  0.0831  0.0100
  452TIP3    H122991   2.508   4.855   0.481 -2.3555  0.3234  0.2312
  452TIP3    H222992   2.528   5.005   0.497 -0.4500  0.1107  0.0328
  453TIP3   OH222993   4.200   1.084   7.898 -0.1474 -0.3889  0.0081
  453TIP3    H122994   4.240   1.002   7.870 -0.7362 -0.2100 -1.4538
  453TIP3    H222995   4.111   1.081   7.863  0.0572  1.1956 -0.7650
  454TIP3   OH222996   5.827   3.985   8.332 -0.2169  0.2266  0.1731
  454TIP3    H122997   5.891   4.056   8.338 -1.3047  1.1121  3.0931
  454TIP3    H222998   5.877   3.906   8.353  0.4581  0.4945 -0.4008
  455TIP3   OH222999   4.629   0.052   1.640 -0.0663  0.1655  0.1970
  455TIP3    H123000   4.624   0.066   1.546 -0.1109 -2.1624 -0.2065
  455TIP3    H223001   4.696   0.114   1.670  0.0459  0.8486 -1.3640
  456TIP3   OH223002   0.276   4.669   8.115 -1.1536 -0.3210 -0.5517
  456TIP3    H123003   0.327   4.739   8.153  0.1697 -1.6533  0.2167
  456TIP3    H223004   0.217   4.713   8.054 -0.4069  1.4406 -0.0624
  457TIP3   OH223005   2.454   2.835   8.667  0.1744 -0.1636 -0.0998
  457TIP3    H123006   2.453   2.741   8.688 -0.5510 -0.1164  0.1026
  457TIP3    H223007   2.401   2.841   8.587 -0.1067  0.1214  0.1067
  458TIP3   OH223008   2.038   3.209   0.100  0.7332 -0.0900 -0.4446
  458TIP3    H123009   2.087   3.247   0.027  1.7604  1.7513  1.0916
  458TIP3    H223010   2.054   3.270   0.173 -0.5719 -1.6263  1.2040
  459TIP3   OH223011   3.915   3.067   1.633 -0.1313 -0.3635 -0.4405
  459TIP3    H123012   3.938   3.120   1.709  0.4949 -0.0544 -0.8424
  459TIP3    H223013   3.980   2.997   1.631  1.7394  1.2810 -2.3673
  460TIP3   OH223014   0.355   1.682   8.095  0.8229 -0.8835  0.0301
  460TIP3    H123015   0.402   1.762   8.118 -2.5913  1.2221  0.5206
  460TIP3    H223016   0.365   1.675   8.000 -0.3719  1.3819 -0.3457
  461TIP3   OH223017   4.953   4.582   7.727  0.6301 -0.0116  0.1516
  461TIP3    H123018   4.938   4.487   7.725 -0.0447  0.0644  1.1065
  461TIP3    H223019   5.025   4.596   7.666  0.0056 -1.0110 -0.8538
  462TIP3   OH223020   0.512   4.472   0.730 -0.6394  0.0428  0.1276
  462TIP3    H123021   0.448   4.438   0.792  0.4148 -1.9629  0.2004
  462TIP3    H223022   0.467   4.544   0.686 -1.9709  0.4602  2.0547
  463TIP3   OH223023   1.290   0.186   6.711  0.7028  0.5804 -0.2663
  463TIP3    H123024   1.366   0.245   6.708  1.3505 -0.0097  2.2290
  463TIP3    H223025   1.223   0.235   6.759  0.4215  0.1458 -0.2100
  464TIP3   OH223026   1.504   4.066   0.103  0.1299  0.5827  0.0973
  464TIP3    H123027   1.511   4.082   0.197  1.3926 -0.9665  0.3065
  464TIP3    H223028   1.578   4.112   0.065  0.2325  0.3211 -0.0189
  465TIP3   OH223029   3.327   5.142   0.054  0.0871 -0.5134 -0.0791
  465TIP3    H123030   3.251   5.183   0.013  0.4471 -1.6989 -2.0762
  465TIP3    H223031   3.371   5.214   0.100 -0.7126  0.7959 -1.2688
  466TIP3   OH223032   3.807   2.068   6.381  0.5626  0.5262 -0.1722
  466TIP3    H123033   3.889   2.067   6.431  0.5617  0.4836 -0.1717
  466TIP3    H223034   3.782   2.160   6.379  0.9528  0.6242 -0.7256
  467TIP3   OH223035   2.879   4.102   0.254 -0.2759  0.2334 -0.1359
  467TIP3    H123036   2.802   4.106   0.197 -0.8436  1.3764  0.6658
  467TIP3    H223037   2.844   4.079   0.340  0.1886  1.2495  0.3481
  468TIP3   OH223038   5.280   6.685   2.441 -0.0304 -0.1577  0.4289
  468TIP3    H123039   5.296   6.779   2.440  0.8338 -0.2703 -1.2751
  468TIP3    H223040   5.214   6.672   2.372  0.7423 -0.9060 -0.1912
  469TIP3   OH223041   6.388   5.093   1.592  0.4825  0.4802 -0.4272
  469TIP3    H123042   6.439   5.132   1.664  0.3109 -1.2308  0.6727
  469TIP3    H223043   6.346   5.168   1.550  1.5978  1.6587  0.4469
  470TIP3   OH223044   3.673   5.018   1.824  0.2011 -0.3049  0.0296
  470TIP3    H123045   3.578   5.029   1.814  0.6260  1.7391 -3.2307
  470TIP3    H223046   3.698   5.087   1.885 -0.4303 -1.4219  1.6296
  471TIP3   OH223047   6.147   1.271   0.136 -0.0895  0.0451 -0.2530
  471TIP3    H123048   6.174   1.185   0.168  1.5025  0.8113  0.5247
  471TIP3    H223049   6.070   1.293   0.188  1.6370  0.6632  2.1772
  472TIP3   OH223050   3.392   3.759   6.709 -0.3548 -0.1301  0.2080
  472TIP3    H123051   3.484   3.778   6.690  0.0187 -1.5422  0.4824
  472TIP3    H223052   3.389   3.664   6.721 -1.0490  0.2530  4.4597
  473TIP3   OH223053   2.343   2.689   0.020  0.4134  0.0417  0.3350
  473TIP3    H123054   2.304   2.700   0.107  1.8985  2.0233  0.8303
  473TIP3    H223055   2.291   2.747  -0.036  2.3050  2.5436  0.9600
  474TIP3   OH223056   3.234   3.467   7.881 -1.0556 -0.0557 -0.0396
  474TIP3    H123057   3.164   3.413   7.844 -2.5896  1.1395  0.9913
  474TIP3    H223058   3.285   3.496   7.805 -0.9764 -1.8281 -0.7190
  475TIP3   OH223059   1.754   3.952   8.740 -0.4460 -0.1543 -0.2184
  475TIP3    H123060   1.696   3.897   8.687  0.6328 -0.1384 -1.4543
  475TIP3    H223061   1.706   4.035   8.750 -1.3097 -0.6900  0.1318
  476TIP3   OH223062   2.334   4.024   6.751  0.2955  0.4117 -0.0615
  476TIP3    H123063   2.252   4.073   6.748  0.5826  1.0553  1.3030
  476TIP3    H223064   2.383   4.053   6.674 -0.4020  0.6887 -0.4032
  477TIP3   OH223065   4.166   1.346   7.998  0.0653 -0.0891  0.8591
  477TIP3    H123066   4.171   1.261   7.955  0.8178 -0.1581  1.0685
  477TIP3    H223067   4.229   1.401   7.952 -0.2091  0.2732  0.9092
  478TIP3   OH223068   4.073   2.659   8.548 -0.3032  0.5328 -0.0182
  478TIP3    H123069   3.995   2.617   8.512 -0.6400  0.0230  1.2561
  478TIP3    H223070   4.142   2.640   8.485 -0.4098 -2.0800  0.5266
  479TIP3   OH223071   5.178   0.269   1.918  0.3970  0.2043 -0.1771
  479TIP3    H123072   5.181   0.363   1.903  1.3132  0.8686  3.4035
  479TIP3    H223073   5.088   0.251   1.943 -0.2929 -0.3190 -2.7822
  480TIP3   OH223074   1.199   2.467   0.340 -0.5140 -0.1655  0.6034
  480TIP3    H123075   1.282   2.512   0.326 -2.2198  3.5759  1.1681
  480TIP3    H223076   1.163   2.455   0.252  0.3059 -1.1711  0.3983
  481TIP3   OH223077   4.692   6.761   6.607  0.2163 -0.1571 -0.5779
  481TIP3    H123078   4.617   6.753   6.665  0.2856 -0.4097 -0.5215
  481TIP3    H223079   4.689   6.682   6.553 -0.5377  0.6480 -1.7431
  482TIP3   OH223080   5.333   5.449   0.139  0.1722 -0.0838  0.1568
  482TIP3    H123081   5.269   5.432   0.070 -2.5627  0.9497  2.2145
  482TIP3    H223082   5.369   5.535   0.119  0.1507 -0.2226 -0.4857
  483TIP3   OH223083   5.834   6.611   1.703 -0.0330  0.6588  0.2386
  483TIP3    H123084   5.810   6.698   1.736  1.0488  0.4395  1.6828
  483TIP3    H223085   5.802   6.551   1.771 -1.2425 -0.1478 -0.9962
  484TIP3   OH223086   0.374   3.919   0.379  0.3719  0.3674  0.5216
  484TIP3    H123087   0.317   3.945   0.452  0.8884  0.7741  0.7836
  484TIP3    H223088   0.385   3.824   0.391 -0.4187  0.2414  0.3408
  485TIP3   OH223089   3.434   4.760   1.722  0.1854 -0.0673 -0.6044
  485TIP3    H123090   3.398   4.846   1.745 -0.4516 -0.4421 -0.1682
  485TIP3    H223091   3.472   4.726   1.803 -0.7507 -0.7566 -0.4376
  486TIP3   OH223092   6.174   1.036   8.432  0.0312  0.2297 -0.1008
  486TIP3    H123093   6.168   1.130   8.420 -0.1984  0.0590 -1.4172
  486TIP3    H223094   6.096   1.000   8.390  0.4899 -0.5979 -0.2792
  487TIP3   OH223095   4.706   0.468   8.419  0.3260 -0.3473 -0.4621
  487TIP3    H123096   4.748   0.446   8.336 -0.6504  0.3473 -1.1516
  487TIP3    H223097   4.661   0.550   8.403  0.3076 -0.0795  0.8299
  488TIP3   OH223098   2.176   0.748   1.984  0.2179  0.5535  0.6347
  488TIP3    H123099   2.262   0.790   1.994  0.9035  0.1008 -2.3875
  488TIP3    H223100   2.119   0.818   1.952 -0.0483  0.3917  0.7536
  489TIP3   OH223101   5.413   1.645   0.531 -0.2724  0.0710 -0.3584
  489TIP3    H123102   5.393   1.706   0.460  0.1142  2.3569  1.3496
  489TIP3    H223103   5.400   1.697   0.611  0.6892 -1.9335  1.1963
  490TIP3   OH223104   5.007   4.762   0.772 -0.2099 -0.1665 -0.0764
  490TIP3    H123105   4.946   4.736   0.841 -0.6226  0.9360 -0.0190
  490TIP3    H223106   5.090   4.720   0.797 -0.3855  0.1128  1.0180
  491TIP3   OH223107   6.755   5.166   7.347 -0.4749  0.4960 -0.2946
  491TIP3    H123108   6.797   5.198   7.427 -2.5861 -1.2422  1.6612
  491TIP3    H223109   6.808   5.091   7.321  0.7502  1.6068 -1.1334
  492TIP3   OH223110   5.726   6.570   1.440 -0.0363 -0.4234 -0.2366
  492TIP3    H123111   5.728   6.487   1.392 -0.1486 -1.1507  0.9524
  492TIP3    H223112   5.760   6.547   1.527  0.5446  0.9249 -0.0880
  493TIP3   OH223113   2.646   4.807   7.729  0.2211 -0.5595  0.6187
  493TIP3    H123114   2.578   4.780   7.666 -0.3201  0.3184  0.8162
  493TIP3    H223115   2.725   4.760   7.700  0.1493  0.3096 -1.1150
  494TIP3   OH223116   4.561   3.497   8.582  0.2942 -0.1294 -0.2029
  494TIP3    H123117   4.638   3.500   8.640 -0.5541  0.8384  0.9139
  494TIP3    H223118   4.510   3.574   8.606 -1.3757 -1.1154 -0.4532
  495TIP3   OH223119   0.988   3.500   1.935 -0.0250  0.5045 -1.0820
  495TIP3    H123120   1.046   3.424   1.935 -0.1487  0.4096 -0.3007
  495TIP3    H223121   1.046   3.574   1.952 -0.1636  0.3790 -0.0203
  496TIP3   OH223122   0.759   6.020   2.507 -0.5215  0.0237  0.3953
  496TIP3    H123123   0.684   6.028   2.566  0.3852  1.1525  1.4139
  496TIP3    H223124   0.795   5.933   2.526 -1.2495 -0.3275  0.2449
  497TIP3   OH223125   5.797   2.174   8.431 -0.4903  0.3103 -0.7839
  497TIP3    H123126   5.842   2.233   8.370  0.5125 -0.0516 -0.4206
  497TIP3    H223127   5.831   2.087   8.410 -0.2802  0.1578  0.1518
  498TIP3   OH223128   5.057   4.205   1.277 -0.0965  0.5381  0.6028
  498TIP3    H123129   5.145   4.243   1.284 -0.1902  0.7988  0.4173
  498TIP3    H223130   5.001   4.266   1.325 -0.1575  0.2994  0.8381
  499TIP3   OH223131   3.012   4.726   1.566  0.1342  0.0484 -0.1393
  499TIP3    H123132   3.048   4.771   1.490  0.3649 -0.7893 -0.5354
  499TIP3    H223133   3.019   4.789   1.637  1.9033  0.0999 -0.3279
  500TIP3   OH223134   3.617   2.500   1.570 -0.1558  0.2226  0.5282
  500TIP3    H123135   3.533   2.483   1.527 -1.4019  1.5838  2.2973
  500TIP3    H223136   3.656   2.413   1.580 -0.3870 -0.2652 -2.0737
  501TIP3   OH223137   2.427   0.759   0.065 -0.7191  0.3634  0.1145
  501TIP3    H123138   2.400   0.709  -0.012  2.2239 -2.1503  0.5103
  501TIP3    H223139   2.444   0.847   0.033 -2.7699  0.2847 -1.3520
  502TIP3   OH223140   1.507   4.560   0.874 -0.0265  0.3366  1.1636
  502TIP3    H123141   1.484   4.614   0.950  1.8139 -0.4193  2.3324
  502TIP3    H223142   1.449   4.485   0.879  0.0894  0.2849  1.8530
  503TIP3   OH223143   0.112   2.784   1.633  0.0363  0.1113  0.4774
  503TIP3    H123144   0.032   2.739   1.658  0.4839 -1.2151 -0.3738
  503TIP3    H223145   0.150   2.730   1.564  2.4283 -0.1284  1.8435
  504TIP3   OH223146   0.714   3.652   6.509 -0.5780 -0.0252  0.0714
  504TIP3    H123147   0.746   3.649   6.600 -0.0683 -0.2833 -0.1136
  504TIP3    H223148   0.792   3.670   6.457 -0.8693  0.1098 -0.3175
  505TIP3   OH223149   3.070   4.307   0.155 -0.4767  0.0372  0.2009
  505TIP3    H123150   3.047   4.234   0.213 -3.0812  2.4714  2.5161
  505TIP3    H223151   3.156   4.334   0.184 -0.6086 -0.4736  1.1058
  506TIP3   OH223152   3.198   4.131   6.955 -0.4395 -0.6011 -0.7477
  506TIP3    H123153   3.256   4.162   7.025 -0.1760 -2.4962 -0.0686
  506TIP3    H223154   3.111   4.128   6.996 -0.8975  1.2130 -1.4566
  507TIP3   OH223155   5.969   6.202   6.824  0.5289  0.3633  0.6303
  507TIP3    H123156   5.991   6.127   6.769  0.9066  0.0468  1.2061
  507TIP3    H223157   6.053   6.239   6.849  0.4075 -0.3120  2.1070
  508TIP3   OH223158   3.693   0.867   6.916 -0.0608  0.2667  0.2740
  508TIP3    H123159   3.628   0.855   6.846 -0.2198 -0.8286  0.5782
  508TIP3    H223160   3.652   0.930   6.976 -0.0879  0.9137 -0.4162
  509TIP3   OH223161   3.711   0.828   8.906  0.1513  0.5488 -0.1999
  509TIP3    H123162   3.737   0.777   8.983  1.0084 -1.1238 -1.5234
  509TIP3    H223163   3.732   0.918   8.928  0.2711  0.1173  1.5632
  510TIP3   OH223164   5.788   4.283   7.800 -0.3080  0.1702 -0.5801
  510TIP3    H123165   5.730   4.358   7.812  0.3203  0.6452 -0.4332
  510TIP3    H223166   5.730   4.211   7.779 -0.9026  0.7681 -1.0359
  511TIP3   OH223167   5.492   1.284   8.722  0.3032  0.0463  0.4077
  511TIP3    H123168   5.423   1.270   8.787  0.2968 -1.6969  0.0777
  511TIP3    H223169   5.571   1.300   8.774 -0.1097  0.8269  0.8038
  512TIP3   OH223170   5.482   1.524   1.605 -0.5519 -0.5497  0.2203
  512TIP3    H123171   5.480   1.596   1.668 -0.0935  0.4992 -0.9311
  512TIP3    H223172   5.559   1.473   1.630 -0.0839  0.1452  0.2087
  513TIP3   OH223173   0.779   2.375   0.534 -0.4292 -0.3611  0.2443
  513TIP3    H123174   0.847   2.410   0.477 -0.5946 -2.1071 -1.1319
  513TIP3    H223175   0.733   2.453   0.567  1.9670  0.8495  0.9887
  514TIP3   OH223176   3.232   3.276   0.315  0.0943  0.4689 -0.2578
  514TIP3    H123177   3.155   3.307   0.362  1.2488  0.6000  1.6851
  514TIP3    H223178   3.294   3.349   0.320  0.6681  0.0508 -1.0067
  515TIP3   OH223179   1.187   2.624   7.031  0.1208  0.7559 -0.3192
  515TIP3    H123180   1.205   2.668   7.114  0.5243  0.8909 -0.4735
  515TIP3    H223181   1.269   2.632   6.982  0.4580 -0.7796 -0.0845
  516TIP3   OH223182   2.437   1.678   7.776  0.4635  0.2960 -0.4463
  516TIP3    H123183   2.413   1.587   7.794  1.0278  0.2214 -0.0292
  516TIP3    H223184   2.354   1.726   7.777  0.2849  0.0050  0.6534
  517TIP3   OH223185   2.329   5.230   8.695  0.5978 -0.1808 -0.0660
  517TIP3    H123186   2.304   5.142   8.721  1.8302 -0.4321  0.3407
  517TIP3    H223187   2.286   5.244   8.610 -2.4264  0.1539  1.3601
  518TIP3   OH223188   3.889   1.903   8.512 -0.5435  0.2869 -0.5901
  518TIP3    H123189   3.879   1.988   8.555 -0.3474  0.5557 -1.0588
  518TIP3    H223190   3.980   1.901   8.483 -0.6915  0.1615 -1.0688
  519TIP3   OH223191   4.602   1.246   8.267 -0.3162  0.4421  0.0558
  519TIP3    H123192   4.667   1.273   8.332  0.7197 -0.3381 -0.6180
  519TIP3    H223193   4.583   1.154   8.289 -1.3105  0.6986  0.3269
  520TIP3   OH223194   2.029   2.892   7.909  0.1600  0.3446 -0.5100
  520TIP3    H123195   1.949   2.853   7.943  0.0212  0.5510 -0.6007
  520TIP3    H223196   2.005   2.983   7.889  0.9217  1.0030  1.3154
  521TIP3   OH223197   0.196   6.415   0.382 -0.0107 -0.4293  0.2408
  521TIP3    H123198   0.158   6.451   0.302  2.2247 -1.2777 -1.2986
  521TIP3    H223199   0.240   6.488   0.424  1.5095 -0.5845 -1.0189
  522TIP3   OH223200   2.366   3.286   8.112 -0.1643  0.2154 -0.2278
  522TIP3    H123201   2.397   3.231   8.184 -0.2523  0.6117  0.1142
  522TIP3    H223202   2.273   3.296   8.128 -0.0344  0.9959  0.0691
  523TIP3   OH223203   5.040   3.586   1.121 -0.1829 -0.2184  0.0855
  523TIP3    H123204   4.978   3.568   1.191  0.0750 -1.9013 -0.0962
  523TIP3    H223205   4.988   3.582   1.040 -0.2367  0.5156  0.0704
  524TIP3   OH223206   0.609   5.291   0.874  0.0127  0.7081  0.1369
  524TIP3    H123207   0.702   5.313   0.871  0.1014  0.3093 -0.3034
  524TIP3    H223208   0.579   5.304   0.784 -0.8955  2.9920  0.7229
  525TIP3   OH223209   4.840   0.905   1.538 -0.0035 -1.0505  0.1535
  525TIP3    H123210   4.899   0.892   1.465 -0.7481  0.6941 -0.8064
  525TIP3    H223211   4.896   0.939   1.608  0.5924 -2.0934  0.2071
  526TIP3   OH223212   1.056   0.157   0.579  0.6609 -0.4811  0.1433
  526TIP3    H123213   1.071   0.225   0.513 -2.8764  0.8004  0.4209
  526TIP3    H223214   1.058   0.204   0.662  0.1670 -1.1084  0.5146
  527TIP3   OH223215   0.808   2.079   0.891  0.0130 -0.1294  0.1154
  527TIP3    H123216   0.868   2.051   0.822 -0.7811 -1.5874 -0.0160
  527TIP3    H223217   0.861   2.138   0.946  0.9327  0.2910 -1.1732
  528TIP3   OH223218   3.109   3.435   8.916 -0.3619 -0.0256 -0.3580
  528TIP3    H123219   3.181   3.484   8.877 -0.3461  1.5248  1.4809
  528TIP3    H223220   3.150   3.358   8.955  0.6192  1.4815  1.8125
  529TIP3   OH223221   3.017   0.371   7.741  0.0166  0.0380  0.0032
  529TIP3    H123222   2.935   0.322   7.730  0.0038  0.1140 -0.2263
  529TIP3    H223223   2.992   0.463   7.733 -0.1219  0.1401  1.3850
  530TIP3   OH223224   6.371   4.536   0.937 -0.0378 -0.5265  0.2594
  530TIP3    H123225   6.370   4.515   0.844 -0.9335  1.0735 -0.1275
  530TIP3    H223226   6.440   4.602   0.946 -0.3220 -0.2724  0.6268
  531TIP3   OH223227   5.652   2.468   8.111 -0.0696  0.3643  0.2251
  531TIP3    H123228   5.653   2.543   8.051 -1.7116 -0.9901 -1.6173
  531TIP3    H223229   5.682   2.395   8.057 -0.9076 -0.7650  1.2568
  532TIP3   OH223230   2.659   4.441   7.987 -0.2440 -0.5247  0.0018
  532TIP3    H123231   2.682   4.418   8.077 -0.5849  1.5226  0.6662
  532TIP3    H223232   2.736   4.419   7.935  0.3331 -0.7851  0.9525
  533TIP3   OH223233   4.791   1.414   2.555 -0.1459  0.3832  0.5480
  533TIP3    H123234   4.842   1.458   2.486 -0.3145 -1.9436 -1.1665
  533TIP3    H223235   4.857   1.371   2.610 -0.1197 -0.1028  0.1412
  534TIP3   OH223236   5.123   2.016   1.432 -0.0244  0.3780 -0.2385
  534TIP3    H123237   5.218   2.004   1.431  0.4770  2.1733  4.2247
  534TIP3    H223238   5.101   2.025   1.525 -3.8629  4.9358 -1.2205
  535TIP3   OH223239   5.144   3.420   0.206  0.4352  0.1995 -0.1975
  535TIP3    H123240   5.155   3.483   0.278  2.3927  2.9771 -2.7024
  535TIP3    H223241   5.052   3.427   0.181  0.0691  0.2397  1.0843
  536TIP3   OH223242   2.992   2.384   7.929  0.4871  0.3053  0.0874
  536TIP3    H123243   3.082   2.388   7.897  0.8765 -1.5285  0.7747
  536TIP3    H223244   2.939   2.416   7.857  1.5860 -0.3545 -1.0559
  537TIP3   OH223245   2.292   1.546   7.476  0.9018 -0.3440 -0.1988
  537TIP3    H123246   2.347   1.551   7.399 -1.3535  0.2695 -1.8786
  537TIP3    H223247   2.263   1.636   7.491  0.9929 -0.5148  1.1353
  538TIP3   OH223248   5.667   5.550   1.985 -0.1002 -0.4491  0.7281
  538TIP3    H123249   5.622   5.466   1.991 -2.8568  1.0004  2.3124
  538TIP3    H223250   5.618   5.599   1.919  0.3116  0.5480  1.1404
  539TIP3   OH223251   6.471   5.093   0.831  0.3699  0.0159 -0.4173
  539TIP3    H123252   6.545   5.116   0.886  1.6927 -1.7175 -1.3719
  539TIP3    H223253   6.438   5.011   0.868 -0.4668  0.2541 -0.5972
  540TIP3   OH223254   3.209   0.828   6.942  0.0072  0.1692  0.0415
  540TIP3    H123255   3.126   0.854   6.981 -0.4131 -0.4165 -0.4468
  540TIP3    H223256   3.269   0.900   6.963 -0.4316  0.2750  0.9906
  541TIP3   OH223257   4.801   1.481   7.370  0.5414 -0.4287 -0.9232
  541TIP3    H123258   4.713   1.502   7.341  0.6611  0.1291 -0.8820
  541TIP3    H223259   4.816   1.538   7.445 -0.4190 -3.0271  1.4160
  542TIP3   OH223260   4.106   6.534   1.031 -0.2918 -0.2218  0.1079
  542TIP3    H123261   4.121   6.611   1.086  0.2303 -0.3646  0.1677
  542TIP3    H223262   4.053   6.567   0.958  0.4882  0.3364 -0.2152
  543TIP3   OH223263   2.872   3.432   7.978  0.2535  0.1286  0.1029
  543TIP3    H123264   2.783   3.455   8.005  0.0710  1.3072 -1.3693
  543TIP3    H223265   2.898   3.362   8.038 -0.9439  1.0499  1.7875
  544TIP3   OH223266   5.711   5.162   1.086 -0.1693  0.1655  0.4812
  544TIP3    H123267   5.787   5.169   1.028 -0.4400  0.1663  0.1236
  544TIP3    H223268   5.745   5.184   1.173 -0.2237  2.4547 -0.0138
  545TIP3   OH223269   4.413   3.164   6.814  0.4775  0.6042 -0.3070
  545TIP3    H123270   4.327   3.181   6.852  1.1834 -0.8779  2.2064
  545TIP3    H223271   4.402   3.081   6.766  0.3585  0.7437 -0.5213
  546TIP3   OH223272   1.184   0.961   0.381  0.4025  0.1399  0.4221
  546TIP3    H123273   1.277   0.960   0.403  0.3772  1.5486  0.7235
  546TIP3    H223274   1.139   0.972   0.465  0.0953  1.6100  0.0955
  547TIP3   OH223275   6.690   2.374   8.606 -0.1202 -0.6938  0.0788
  547TIP3    H123276   6.708   2.414   8.521 -0.9698  0.7992  0.5673
  547TIP3    H223277   6.596   2.388   8.620 -0.1600 -1.6477  0.9158
  548TIP3   OH223278   4.125   5.529   2.623  0.2639 -0.1702  0.4598
  548TIP3    H123279   4.202   5.485   2.587 -0.1249 -1.2162  0.8396
  548TIP3    H223280   4.056   5.463   2.617 -1.0089  1.2171 -1.2320
  549TIP3   OH223281   5.232   4.077   0.480 -0.0440  0.0218 -0.3740
  549TIP3    H123282   5.273   4.061   0.565 -2.1035  0.9028  0.8641
  549TIP3    H223283   5.234   4.172   0.469 -3.0588  0.3220  0.5655
  550TIP3   OH223284   2.416   2.430   0.198  0.5236  0.0596 -0.2705
  550TIP3    H123285   2.348   2.363   0.207  0.1315  0.2284 -1.7343
  550TIP3    H223286   2.372   2.513   0.214  0.6815  0.0840  0.0555
  551TIP3   OH223287   1.421   4.361   1.876 -0.3750 -0.5430  0.2535
  551TIP3    H123288   1.502   4.323   1.843  0.6021  0.5728  1.2432
  551TIP3    H223289   1.437   4.455   1.875 -1.4577 -0.3374  0.9687
  552TIP3   OH223290   2.489   1.955   7.101 -0.2492  0.1331 -0.6715
  552TIP3    H123291   2.401   1.921   7.114 -0.1697  0.1517 -0.0401
  552TIP3    H223292   2.530   1.895   7.039 -0.6208 -0.0275 -0.7592
  553TIP3   OH223293   1.306   4.483   0.181  0.2418  0.0403  0.2620
  553TIP3    H123294   1.246   4.522   0.245  0.3070  2.4172 -0.9897
  553TIP3    H223295   1.381   4.454   0.232  0.1704  1.6379  1.3589
  554TIP3   OH223296   0.558   2.172   7.966 -0.0868  0.2271  0.0363
  554TIP3    H123297   0.577   2.258   7.927 -1.9229  0.0348 -1.3860
  554TIP3    H223298   0.503   2.192   8.042  0.4798  0.3669  0.4169
  555TIP3   OH223299   6.283   5.878   8.460  0.2539 -0.2039  0.6272
  555TIP3    H123300   6.272   5.791   8.498  1.4456 -0.7779 -0.2496
  555TIP3    H223301   6.257   5.867   8.368 -1.7725  0.9462  1.0204
  556TIP3   OH223302   1.628   4.982   0.393 -0.0871 -0.1134  0.0208
  556TIP3    H123303   1.591   5.013   0.310  0.4642  1.3759  0.3071
  556TIP3    H223304   1.568   4.913   0.422 -0.2528 -0.7029 -1.6342
  557TIP3   OH223305   1.903   3.434   1.649  0.2294  0.0277 -0.0283
  557TIP3    H123306   1.863   3.354   1.683 -0.9665  0.0904 -1.2326
  557TIP3    H223307   1.865   3.504   1.702 -0.5425  0.0030 -0.5435
  558TIP3   OH223308   4.783   3.302   7.143 -0.2666 -0.1567 -0.2955
  558TIP3    H123309   4.857   3.310   7.082 -0.4669  1.4229 -0.3729
  558TIP3    H223310   4.823   3.273   7.225  0.2340 -0.6919 -0.7184
  559TIP3   OH223311   2.326   6.526   2.019  0.2335 -0.2062 -0.0164
  559TIP3    H123312   2.389   6.597   2.002  0.8242 -0.6401  0.3394
  559TIP3    H223313   2.291   6.545   2.106 -0.9546  0.6381 -0.6496
  560TIP3   OH223314   3.757   5.626   1.270 -0.9915  0.6460  0.4065
  560TIP3    H123315   3.669   5.612   1.305 -1.7269 -0.5779 -1.7428
  560TIP3    H223316   3.744   5.685   1.195 -0.3959 -1.3425 -1.3561
  561TIP3   OH223317   5.946   0.070   7.140 -0.6545  0.3497  1.0688
  561TIP3    H123318   5.914  -0.020   7.130 -0.9550  0.4331  1.2520
  561TIP3    H223319   5.906   0.118   7.068 -0.4364  0.3228  0.9285
  562TIP3   OH223320   6.445   1.937   0.662 -0.7753  0.3895 -0.6039
  562TIP3    H123321   6.453   1.911   0.754 -0.5490 -2.8411 -1.4436
  562TIP3    H223322   6.532   1.972   0.640 -0.5121  0.2265  0.1486
  563TIP3   OH223323   4.302   5.280   7.488 -0.7699 -0.3105 -0.2470
  563TIP3    H123324   4.259   5.199   7.513 -2.1873  1.1974  2.8457
  563TIP3    H223325   4.284   5.340   7.561  2.1948  2.0727 -1.2505
  564TIP3   OH223326   2.232   3.800   1.574  0.1876 -0.1861 -0.0260
  564TIP3    H123327   2.234   3.800   1.669  0.8776  0.1112 -0.0355
  564TIP3    H223328   2.257   3.711   1.549 -0.9887 -0.5623  0.0745
  565TIP3   OH223329   1.221   2.078   0.929  0.0686  0.2545 -0.0579
  565TIP3    H123330   1.159   2.009   0.905  0.7261 -0.7386  0.9845
  565TIP3    H223331   1.215   2.083   1.024  1.0485  0.6646 -0.0118
  566TIP3   OH223332   6.779   5.541   2.874  1.1407 -0.3223 -0.2782
  566TIP3    H123333   6.743   5.626   2.849 -0.0431 -0.5782  0.4783
  566TIP3    H223334   6.873   5.557   2.880  1.2965  0.2304 -2.8360
  567TIP3   OH223335   2.544   4.502   0.999  0.1195 -0.1472  0.4137
  567TIP3    H123336   2.617   4.532   1.053  0.4225 -1.0695  0.5166
  567TIP3    H223337   2.479   4.573   1.006  1.2511  1.0088 -0.2118
  568TIP3   OH223338   1.350   3.689   0.159  0.2045 -0.0448 -0.2436
  568TIP3    H123339   1.297   3.742   0.218 -0.5359 -0.9261 -0.0747
  568TIP3    H223340   1.412   3.750   0.119  0.1221  0.7213  0.7709
  569TIP3   OH223341   0.215   3.352   1.108 -0.1552 -0.2431 -0.1739
  569TIP3    H123342   0.160   3.427   1.127 -1.1158 -0.9185 -0.1963
  569TIP3    H223343   0.212   3.300   1.189  0.0313 -0.5293 -0.3520
  570TIP3   OH223344   0.639   1.055   6.979 -0.0334 -0.1141  0.3658
  570TIP3    H123345   0.587   1.104   7.043 -1.1270 -0.7908  0.0257
  570TIP3    H223346   0.577   0.993   6.940  0.3832  0.8226 -1.9531
  571TIP3   OH223347   3.464   5.501   8.246  0.3967 -0.7548  0.7347
  571TIP3    H123348   3.512   5.574   8.207 -2.1237  0.5446 -0.1262
  571TIP3    H223349   3.406   5.470   8.177 -0.7517 -1.5838  2.0072
  572TIP3   OH223350   2.979   6.213   1.119 -0.3734  0.1424 -0.7974
  572TIP3    H123351   3.064   6.216   1.075 -0.0487  2.2134 -0.1326
  572TIP3    H223352   2.943   6.301   1.109 -0.8351  0.3668  1.9288
  573TIP3   OH223353   0.733   3.047   8.880  0.1689 -0.4028  0.1160
  573TIP3    H123354   0.791   3.101   8.934 -1.2029 -0.6836  2.0103
  573TIP3    H223355   0.707   2.976   8.938 -2.3674 -0.0581 -0.4836
  574TIP3   OH223356   2.396   3.072   0.482  0.2412 -0.3043  0.3566
  574TIP3    H123357   2.312   3.031   0.463 -0.1131 -0.5849  2.3014
  574TIP3    H223358   2.454   2.998   0.504  0.6087 -0.0103  0.3836
  575TIP3   OH223359   2.936   5.129   8.763 -0.2095 -0.4295 -0.1364
  575TIP3    H123360   2.957   5.051   8.712  0.5674 -0.7293  0.6216
  575TIP3    H223361   3.014   5.184   8.758  0.3496 -0.9813  1.6541
  576TIP3   OH223362   4.516   4.578   0.031 -0.3491 -0.0960  0.4581
  576TIP3    H123363   4.445   4.531   0.074 -1.0760  0.2481 -0.3439
  576TIP3    H223364   4.472   4.640  -0.028  0.5523  2.1796  2.0513
  577TIP3   OH223365   6.704   6.398   1.218 -0.2787 -0.5221 -0.4496
  577TIP3    H123366   6.610   6.381   1.210 -0.8219  1.5931  0.5941
  577TIP3    H223367   6.736   6.401   1.128 -1.4271 -0.2928 -0.8622
  578TIP3   OH223368   2.527   5.553   0.361  0.4073  0.0401 -0.2340
  578TIP3    H123369   2.622   5.559   0.373  0.5141 -0.3857 -0.7866
  578TIP3    H223370   2.517   5.506   0.278 -0.2853 -2.2202  1.0390
  579TIP3   OH223371   1.747   4.974   1.854 -0.2168  0.7946  0.0545
  579TIP3    H123372   1.718   5.045   1.911  0.3646  1.9225 -0.9971
  579TIP3    H223373   1.793   4.914   1.912 -0.6901  1.2925  0.9654
  580TIP3   OH223374   2.699   1.024   1.374  0.3504 -0.3492 -0.4526
  580TIP3    H123375   2.745   1.009   1.457 -0.4782  1.6945  0.4367
  580TIP3    H223376   2.610   0.993   1.390 -0.0366  0.8209 -0.2704
  581TIP3   OH223377   6.794   3.079   1.523  0.0872  0.3102 -0.3364
  581TIP3    H123378   6.857   3.052   1.591  1.2751 -0.1748 -1.5821
  581TIP3    H223379   6.726   3.126   1.571 -0.2168 -1.7855  1.4898
  582TIP3   OH223380   5.469   0.221   8.140 -0.0667 -0.0935 -0.3761
  582TIP3    H123381   5.494   0.238   8.231  0.2542  0.6088 -0.5959
  582TIP3    H223382   5.385   0.266   8.130 -0.9159 -1.4917  0.0224
  583TIP3   OH223383   0.962   2.231   1.614 -0.5148 -0.8348  0.2576
  583TIP3    H123384   0.996   2.310   1.655 -0.4144  0.1790 -1.6996
  583TIP3    H223385   1.038   2.173   1.608  0.4851  0.5828 -2.1056
  584TIP3   OH223386   0.050   2.967   7.725 -0.3913  0.3781 -0.4430
  584TIP3    H123387   0.021   3.040   7.670  0.4600  0.4951 -0.7534
  584TIP3    H223388   0.137   2.993   7.755  0.6077 -1.1537 -1.8159
  585TIP3   OH223389   0.972   3.480   0.605  0.0624 -0.2053 -0.4664
  585TIP3    H123390   1.056   3.526   0.600  0.1195 -0.3711 -1.3431
  585TIP3    H223391   0.940   3.496   0.694  0.6517  0.5118 -0.3727
  586TIP3   OH223392   1.474   2.055   0.241  0.2397  0.4193  0.3370
  586TIP3    H123393   1.408   1.999   0.201 -1.2726  0.6190  2.4049
  586TIP3    H223394   1.447   2.144   0.217 -0.8550  0.5605  1.9322
  587TIP3   OH223395   1.676   6.521   8.022 -0.3384  0.0413  0.1133
  587TIP3    H123396   1.749   6.460   8.032  0.8744  1.7658  3.0024
  587TIP3    H223397   1.691   6.563   7.938  1.3998 -0.4001  0.1729
  588TIP3   OH223398   4.270   5.957   1.841  0.7362 -0.2121  0.5937
  588TIP3    H123399   4.300   5.989   1.926 -1.5280 -0.7950  1.7049
  588TIP3    H223400   4.210   6.024   1.810 -0.5183 -1.2062  0.7783
  589TIP3   OH223401   4.421   4.592   2.282  0.0701 -0.3526 -0.2346
  589TIP3    H123402   4.460   4.556   2.362 -0.8311 -0.5720  0.1240
  589TIP3    H223403   4.391   4.515   2.234  0.5581 -0.2170 -0.7710
  590TIP3   OH223404   1.034   5.135   8.255  0.1563 -0.3931  0.0035
  590TIP3    H123405   0.980   5.190   8.199  1.9699  1.9831  0.4115
  590TIP3    H223406   1.036   5.050   8.212 -2.0835  0.0653 -1.1240
  591TIP3   OH223407   0.933   2.291   1.064 -0.2561 -0.2339  0.3287
  591TIP3    H123408   0.866   2.338   1.016  1.2885 -0.4181 -2.1647
  591TIP3    H223409   0.893   2.272   1.149 -3.2382 -0.1889 -0.9622
  592TIP3   OH223410   0.471   6.380   7.238 -0.6350 -0.1081 -0.6905
  592TIP3    H123411   0.396   6.343   7.191 -0.0187 -1.2829 -0.7850
  592TIP3    H223412   0.518   6.304   7.272  0.3245  0.6265 -0.3326
  593TIP3   OH223413   0.909   3.282   8.252 -0.0001 -0.2033 -0.5675
  593TIP3    H123414   0.881   3.308   8.164 -0.5517 -0.9494 -0.6236
  593TIP3    H223415   0.830   3.288   8.305  0.1977 -0.3265 -0.2545
  594TIP3   OH223416   0.588   4.050   0.695 -0.3219  0.3142  0.3008
  594TIP3    H123417   0.664   4.061   0.753 -0.4984  0.8792  0.4301
  594TIP3    H223418   0.587   3.957   0.674  0.9742  0.4441 -0.4547
  595TIP3   OH223419   2.724   4.720   0.389  0.4666 -0.4714  0.0290
  595TIP3    H123420   2.721   4.742   0.296  0.0791  1.3876  0.4373
  595TIP3    H223421   2.640   4.678   0.406 -0.2627  0.8742 -0.1031
  596TIP3   OH223422   1.323   2.742   7.260  0.2347  0.2948  0.3531
  596TIP3    H123423   1.285   2.735   7.347 -0.2884 -0.6931  0.0573
  596TIP3    H223424   1.295   2.828   7.228 -1.4360 -0.2447  0.3035
  597TIP3   OH223425   3.010   4.379   6.925 -0.4465  1.0595  0.4990
  597TIP3    H123426   2.962   4.354   6.846 -2.6170  0.6405  1.8431
  597TIP3    H223427   3.089   4.325   6.924 -1.3714 -0.3209 -0.4341
  598TIP3   OH223428   5.935   2.673   7.675 -0.3887  0.2928 -0.1338
  598TIP3    H123429   5.990   2.734   7.625 -0.6585  1.8494  1.3904
  598TIP3    H223430   5.850   2.676   7.630  0.0906 -0.3171 -1.1028
  599TIP3   OH223431   1.888   2.232   8.313 -0.5208  0.0832  0.3381
  599TIP3    H123432   1.909   2.178   8.237  0.5503 -0.5925  1.0846
  599TIP3    H223433   1.946   2.308   8.305 -1.8478  1.0485 -0.5755
  600TIP3   OH223434   6.263   1.914   7.005 -0.1658 -0.3492 -0.1810
  600TIP3    H123435   6.348   1.875   7.020 -0.1326 -0.3675 -0.4026
  600TIP3    H223436   6.272   1.959   6.921 -1.0150 -2.2087 -1.3417
  601TIP3   OH223437   2.893   0.574   1.894  0.3400 -0.7061  0.3636
  601TIP3    H123438   2.981   0.564   1.930  1.4790 -0.0647 -2.0404
  601TIP3    H223439   2.876   0.491   1.849 -1.0783 -1.5122  2.2116
  602TIP3   OH223440   4.288   4.426   0.161  0.2627  0.0129 -0.2632
  602TIP3    H123441   4.200   4.418   0.196  0.5752 -0.3418  0.4549
  602TIP3    H223442   4.338   4.471   0.229  0.7701 -0.2901 -0.4278
  603TIP3   OH223443   0.287   6.780   1.606  0.2489  0.3149  0.3361
  603TIP3    H123444   0.213   6.743   1.653 -1.2238  3.5044  0.7307
  603TIP3    H223445   0.345   6.813   1.675  0.8697  0.0079 -0.0294
  604TIP3   OH223446   0.857   2.670   2.838  0.4589 -0.6082 -0.0871
  604TIP3    H123447   0.795   2.617   2.788  2.0118 -0.2937 -2.5032
  604TIP3    H223448   0.804   2.742   2.873 -0.3495  0.7575 -3.7220
  605TIP3   OH223449   3.094   1.500   2.440 -0.2473  0.2517 -0.2087
  605TIP3    H123450   3.008   1.542   2.429 -0.3931 -0.1449 -0.6141
  605TIP3    H223451   3.076   1.406   2.433  0.4807  0.2186 -2.3009
  606TIP3   OH223452   6.471   2.296   8.787  0.0076  0.1374  0.0028
  606TIP3    H123453   6.407   2.327   8.723 -0.5980  0.4397  0.7451
  606TIP3    H223454   6.478   2.202   8.770 -0.6297  0.1031 -0.0781
  607TIP3   OH223455   3.468   5.381   8.605 -0.1416 -0.2079  0.1342
  607TIP3    H123456   3.506   5.297   8.580  1.1585  0.3042  0.2635
  607TIP3    H223457   3.469   5.432   8.524  0.5589  0.1952  0.3863
  608TIP3   OH223458   4.015   1.879   7.265 -0.6065 -0.0584  0.2414
  608TIP3    H123459   4.100   1.843   7.289 -0.8461 -1.2354 -0.6079
  608TIP3    H223460   4.032   1.972   7.251  0.8945 -0.5318 -1.4199
  609TIP3   OH223461   2.301   0.307   6.805  0.5454  0.0214  0.2162
  609TIP3    H123462   2.333   0.312   6.894  2.4313  0.1779 -0.4364
  609TIP3    H223463   2.220   0.359   6.805  0.8508  0.5273  1.6640
  610TIP3   OH223464   5.247   5.936   1.942  0.6651 -0.1644  0.7922
  610TIP3    H123465   5.201   5.859   1.910  0.3695  0.2518  0.1991
  610TIP3    H223466   5.280   5.910   2.028 -2.5939  0.2536  2.3109
  611TIP3   OH223467   5.168   5.490   7.678 -0.2927 -0.4012  0.0066
  611TIP3    H123468   5.109   5.543   7.624 -0.2561  0.0762  0.4299
  611TIP3    H223469   5.251   5.490   7.630 -0.0434  0.6358  0.4068
  612TIP3   OH223470   3.857   6.187   7.005  0.0069 -0.3804 -0.1895
  612TIP3    H123471   3.793   6.116   7.010 -0.7070  0.3403  1.9575
  612TIP3    H223472   3.836   6.231   6.922 -0.7018 -1.5777 -0.6769
  613TIP3   OH223473   6.778   0.139   1.194  1.3630 -0.1125  0.1164
  613TIP3    H123474   6.825   0.218   1.167 -1.7817  1.0470 -2.7031
  613TIP3    H223475   6.733   0.164   1.275  2.2912  0.1336  0.5639
  614TIP3   OH223476   2.672   1.685   7.895  0.1136 -0.1384  0.4467
  614TIP3    H123477   2.666   1.766   7.947 -0.0995  1.1473 -1.4738
  614TIP3    H223478   2.585   1.676   7.856  0.3480 -0.9159  0.1002
  615TIP3   OH223479   1.028   6.273   1.214  0.3893 -0.0404  0.0594
  615TIP3    H123480   0.972   6.205   1.175  1.2558 -0.1865 -0.9767
  615TIP3    H223481   1.053   6.237   1.299  1.8638 -1.6380 -0.9811
  616TIP3   OH223482   5.420   4.784   7.614 -0.2420  0.0853 -0.4045
  616TIP3    H123483   5.426   4.834   7.532 -0.2934  4.3379  1.9017
  616TIP3    H223484   5.511   4.759   7.634  0.4073  2.5300  0.0541
  617TIP3   OH223485   4.328   4.600   1.873 -0.3192  0.2593 -0.2443
  617TIP3    H123486   4.307   4.591   1.780 -1.9263 -0.9475  0.1863
  617TIP3    H223487   4.243   4.600   1.917  0.4494 -0.4202  1.3235
  618TIP3   OH223488   1.191   4.943   7.429 -0.5382 -0.3472 -0.2173
  618TIP3    H123489   1.161   4.882   7.362 -0.7880 -0.5317  0.0584
  618TIP3    H223490   1.286   4.941   7.424 -0.4979 -1.8203  0.7296
  619TIP3   OH223491   1.738   5.406   7.680 -0.3553  0.3710  0.6763
  619TIP3    H123492   1.672   5.474   7.665 -1.0502 -0.4336 -0.0247
  619TIP3    H223493   1.771   5.424   7.768  0.3650  2.3459  0.0541
  620TIP3   OH223494   3.660   4.215   1.759 -0.0681 -0.0055 -0.3274
  620TIP3    H123495   3.569   4.235   1.781 -0.2685 -1.1872 -0.0231
  620TIP3    H223496   3.657   4.130   1.715  0.5311  1.3863 -3.3787
  621TIP3   OH223497   4.537   3.862   7.552 -0.5552  0.2506 -0.1946
  621TIP3    H123498   4.554   3.920   7.478 -0.6589 -2.2495 -2.3549
  621TIP3    H223499   4.448   3.830   7.538 -0.4415 -0.5593  0.7856
  622TIP3   OH223500   6.783   6.343   7.989  0.3680 -0.1815  0.0568
  622TIP3    H123501   6.813   6.284   7.920  1.9431  1.0037 -0.3190
  622TIP3    H223502   6.780   6.288   8.067  0.3205 -1.1039 -0.5716
  623TIP3   OH223503   2.627   5.692   0.766  0.4328 -0.5971 -0.2807
  623TIP3    H123504   2.653   5.773   0.722 -1.1321 -0.7797 -1.6204
  623TIP3    H223505   2.559   5.655   0.710 -2.5436 -0.2657  2.7895
  624TIP3   OH223506   3.575   2.988   8.727 -0.3509  0.0023  0.2554
  624TIP3    H123507   3.560   2.908   8.677 -0.9975  0.7375 -0.7749
  624TIP3    H223508   3.607   2.958   8.812 -1.1767 -1.3720  0.1139
  625TIP3   OH223509   6.109   2.451   7.524 -0.0104 -0.3479 -0.1362
  625TIP3    H123510   6.090   2.357   7.521  0.6771 -0.6373  2.4502
  625TIP3    H223511   6.091   2.476   7.615  0.2439  1.9509 -0.6622
  626TIP3   OH223512   2.478   2.082   1.612 -0.3987 -0.6531 -0.2667
  626TIP3    H123513   2.445   2.030   1.685 -0.8706 -0.2320 -0.1763
  626TIP3    H223514   2.515   2.018   1.551 -1.5756 -1.1554 -0.4709
  627TIP3   OH223515   2.260   5.014   8.414  0.5538  0.0034  0.3785
  627TIP3    H123516   2.211   4.998   8.495 -0.2023  1.9130  0.3493
  627TIP3    H223517   2.261   4.929   8.370 -0.9522 -0.5663  1.3578
  628TIP3   OH223518   3.251   0.501   1.537 -0.1130 -0.5517 -0.2146
  628TIP3    H123519   3.156   0.499   1.536 -0.0955 -1.8065 -0.4355
  628TIP3    H223520   3.273   0.590   1.564 -1.3547 -0.8220  1.9076
  629TIP3   OH223521   0.623   3.966   7.233  0.8821 -0.2462 -0.8969
  629TIP3    H123522   0.658   3.885   7.195  1.3658  0.4087 -1.8809
  629TIP3    H223523   0.566   4.001   7.166 -0.1346 -0.2789 -0.0688
  630TIP3   OH223524   3.261   4.712   7.150  1.0638 -0.0652 -0.0066
  630TIP3    H123525   3.219   4.657   7.084  1.2904 -1.0908  0.6873
  630TIP3    H223526   3.218   4.797   7.141 -0.9339 -0.9700  0.4372
  631TIP3   OH223527   4.515   1.414   6.760  0.2510  0.3324  0.3409
  631TIP3    H123528   4.515   1.332   6.710 -0.0665 -0.2291  1.2309
  631TIP3    H223529   4.513   1.386   6.852 -1.3045  1.3494  0.6538
  632TIP3   OH223530   2.203   5.526   0.976  0.2266 -0.2193 -0.0212
  632TIP3    H123531   2.134   5.463   0.993  0.8021 -0.7056  0.5823
  632TIP3    H223532   2.157   5.609   0.963 -0.5150 -0.6999 -0.5149
  633TIP3   OH223533   2.938   4.129   0.845 -0.0650  0.5041 -0.1025
  633TIP3    H123534   3.002   4.159   0.910  1.9296 -1.1797 -1.1729
  633TIP3    H223535   2.917   4.039   0.871  1.1908 -0.4070 -2.0015
  634TIP3   OH223536   1.583   4.423   8.122 -0.3794  0.4305  0.3101
  634TIP3    H123537   1.500   4.415   8.168  0.5894  0.4307  2.1240
  634TIP3    H223538   1.618   4.333   8.121 -0.1695  0.5144 -0.0031
  635TIP3   OH223539   3.478   2.961   7.729 -0.3833 -0.3492 -0.2184
  635TIP3    H123540   3.405   2.962   7.792  1.1846 -1.1698  1.7184
  635TIP3    H223541   3.435   2.957   7.643 -2.6116 -0.6476  0.8274
  636TIP3   OH223542   2.725   2.952   2.307  0.4642 -0.3837 -0.1207
  636TIP3    H123543   2.805   2.931   2.258  0.2824 -2.3772  0.3575
  636TIP3    H223544   2.683   3.020   2.255  1.8833 -0.1367 -1.0108
  637TIP3   OH223545   6.356   4.860   0.930 -0.1966 -0.4082  0.2838
  637TIP3    H123546   6.264   4.851   0.904 -0.2136  1.0976 -0.3126
  637TIP3    H223547   6.351   4.889   1.021 -0.2578 -1.6950  0.7029
  638TIP3   OH223548   2.121   4.704   8.677  0.2064  0.4053 -0.0467
  638TIP3    H123549   2.035   4.684   8.640 -0.0559 -0.9106  1.1927
  638TIP3    H223550   2.114   4.680   8.770  1.8665  0.3862  0.1086
  639TIP3   OH223551   5.628   0.534   0.129 -0.0366  0.1698  0.0361
  639TIP3    H123552   5.554   0.480   0.157 -0.6105 -0.4685 -2.4528
  639TIP3    H223553   5.704   0.476   0.135 -0.2951 -0.2380 -0.5016
  640TIP3   OH223554   2.540   0.664   8.541 -0.3869  0.7268 -0.1174
  640TIP3    H123555   2.491   0.640   8.463 -0.1061  2.4983 -0.8938
  640TIP3    H223556   2.530   0.759   8.547 -0.1952  0.6729  1.8740
  641TIP3   OH223557   2.877   1.521   8.338  0.2686  0.4986 -0.4128
  641TIP3    H123558   2.913   1.605   8.366  0.3592 -0.4550  2.6467
  641TIP3    H223559   2.932   1.495   8.264  3.4046  0.9558  1.5609
  642TIP3   OH223560   0.483   4.891   0.835  0.6583 -0.0338  0.1160
  642TIP3    H123561   0.491   4.825   0.766 -1.6713 -1.8843  1.4358
  642TIP3    H223562   0.513   4.846   0.914 -0.8046  0.4885  1.0117
  643TIP3   OH223563   1.492   5.279   0.347  0.2868  0.6559  0.8285
  643TIP3    H123564   1.437   5.353   0.322  0.1150  0.2057 -0.1662
  643TIP3    H223565   1.531   5.305   0.431 -0.7727  1.3308  1.1288
  644TIP3   OH223566   3.629   4.576   7.508  0.0931 -0.0268  0.1180
  644TIP3    H123567   3.671   4.537   7.431  1.3990  0.1734  0.7028
  644TIP3    H223568   3.621   4.503   7.570  0.6618  0.1951  0.4512
  645TIP3   OH223569   5.169   1.936   0.647  0.1483  0.7037 -0.3810
  645TIP3    H123570   5.121   1.940   0.564 -0.3847  0.5811 -0.0820
  645TIP3    H223571   5.261   1.927   0.621 -0.1397 -0.9106 -0.9602
  646TIP3   OH223572   1.893   4.342   1.699  0.6836  0.2605  0.2291
  646TIP3    H123573   1.823   4.321   1.637  1.3360 -0.0360 -0.4175
  646TIP3    H223574   1.961   4.277   1.683 -0.1591 -1.4875  3.0505
  647TIP3   OH223575   6.188   5.732   8.114 -1.0173  0.4053  0.1559
  647TIP3    H123576   6.229   5.705   8.032 -1.9618  0.6212 -0.3945
  647TIP3    H223577   6.218   5.667   8.178 -1.1013 -0.3714 -0.5802
  648TIP3   OH223578   2.003   0.776   6.809  0.2950 -0.5576 -0.0548
  648TIP3    H123579   2.020   0.869   6.794  0.8331 -0.1611  2.5166
  648TIP3    H223580   1.915   0.762   6.775  0.4717  0.7138 -1.0979
  649TIP3   OH223581   1.686   1.498   7.844  0.2410 -0.1788  0.5258
  649TIP3    H123582   1.724   1.574   7.800 -1.3246 -0.3007 -1.1729
  649TIP3    H223583   1.627   1.536   7.910 -2.0250  0.2532 -1.5854
  650TIP3   OH223584   5.610   4.383   1.889 -0.2515 -0.4833  0.0478
  650TIP3    H123585   5.607   4.288   1.903 -1.2266 -0.4416  0.1477
  650TIP3    H223586   5.555   4.419   1.958 -1.9644 -0.0150 -1.5043
  651TIP3   OH223587   0.134   2.801   0.363 -0.2641 -0.2280  0.0633
  651TIP3    H123588   0.092   2.714   0.360 -0.3207 -0.1791 -1.7583
  651TIP3    H223589   0.062   2.863   0.354 -0.1627 -0.0035  0.7596
  652TIP3   OH223590   4.040   1.354   6.255 -0.0668 -0.4508 -0.1758
  652TIP3    H123591   4.108   1.420   6.273  0.2803 -1.0253  0.6878
  652TIP3    H223592   4.026   1.359   6.160 -0.8082  1.5902  0.0035
  653TIP3   OH223593   2.424   3.943   8.309 -0.4150  0.3984  0.4380
  653TIP3    H123594   2.408   3.983   8.395  1.0026 -0.3039  1.0414
  653TIP3    H223595   2.396   3.852   8.319 -0.4468  0.3665  0.0759
  654TIP3   OH223596   1.993   2.421   7.482 -0.3495  0.3515  0.3786
  654TIP3    H123597   1.979   2.327   7.472 -1.0963  0.4267  0.6860
  654TIP3    H223598   1.907   2.456   7.503 -0.2017  1.1954 -0.3633
  655TIP3   OH223599   5.583   2.776   0.417  0.1351 -0.6040 -0.1434
  655TIP3    H123600   5.510   2.812   0.366  0.5772  0.4854 -0.0276
  655TIP3    H223601   5.655   2.770   0.354  0.9623  1.6188  0.5029
  656TIP3   OH223602   6.217   4.048   8.146  0.2021  0.1107 -0.1580
  656TIP3    H123603   6.187   4.116   8.085  0.7583  0.2623 -0.2655
  656TIP3    H223604   6.286   4.002   8.098  2.1507  1.5715  1.0917
  657TIP3   OH223605   2.596   1.225   7.875 -0.3017 -0.2684  0.4005
  657TIP3    H123606   2.683   1.252   7.905 -0.0071 -1.1310  0.3493
  657TIP3    H223607   2.579   1.279   7.798  0.6173 -0.7911 -0.1741
  658TIP3   OH223608   3.589   0.666   7.513  0.0415 -0.4224  0.3424
  658TIP3    H123609   3.575   0.710   7.597  1.5961 -0.4555  0.6497
  658TIP3    H223610   3.668   0.614   7.526 -0.2296 -1.1752 -0.8640
  659TIP3   OH223611   1.620   5.854   8.357  0.0585 -0.8031  0.4029
  659TIP3    H123612   1.637   5.946   8.378  1.5774 -1.1689  0.8923
  659TIP3    H223613   1.606   5.853   8.262  1.6889 -0.2681  0.1271
  660TIP3   OH223614   6.149   2.970   7.788  0.0411  0.0265  0.0783
  660TIP3    H123615   6.232   3.011   7.811  0.6257 -0.4965 -1.0128
  660TIP3    H223616   6.116   3.022   7.715 -1.2050  0.9573  1.2524
  661TIP3   OH223617   0.835   4.747   7.118  0.1383 -0.7857 -0.6512
  661TIP3    H123618   0.745   4.749   7.084  0.1343 -0.9708 -0.6515
  661TIP3    H223619   0.888   4.786   7.048  0.0287 -0.4793 -0.5639
  662TIP3   OH223620   3.708   6.538   0.645  0.0411 -0.3200 -0.1118
  662TIP3    H123621   3.649   6.584   0.706  0.3481  0.1352 -0.1523
  662TIP3    H223622   3.655   6.524   0.567  0.3087  1.1237 -0.5901
  663TIP3   OH223623   1.472   6.325   0.853  0.0810  0.2703  0.0957
  663TIP3    H123624   1.553   6.289   0.890  1.0092  2.0145 -0.0925
  663TIP3    H223625   1.426   6.363   0.928 -0.9447 -1.3012  0.3120
  664TIP3   OH223626   6.029   1.589   8.383  0.5923  0.5804 -0.2473
  664TIP3    H123627   6.069   1.675   8.377  0.3337  0.7024 -0.2472
  664TIP3    H223628   6.032   1.567   8.476  0.7955  0.5229 -0.2670
  665TIP3   OH223629   1.203   4.191   8.306  0.5943 -0.0077  0.0460
  665TIP3    H123630   1.184   4.167   8.215 -2.5818  0.3289  0.5108
  665TIP3    H223631   1.118   4.205   8.346  1.9124  0.7401  2.8934
  666TIP3   OH223632   6.518   0.536   8.297 -0.4505  0.3536 -0.4990
  666TIP3    H123633   6.476   0.570   8.376 -1.0690  1.1771 -1.1718
  666TIP3    H223634   6.605   0.576   8.298 -0.1128 -0.3579  0.2275
  667TIP3   OH223635   3.502   6.363   1.138 -0.6094 -0.3904 -0.0316
  667TIP3    H123636   3.568   6.323   1.195 -0.7777  0.1675  0.5650
  667TIP3    H223637   3.442   6.291   1.118 -0.9229 -0.4523  1.0457
  668TIP3   OH223638   5.100   2.251   6.638  0.0642 -0.1733  0.3702
  668TIP3    H123639   5.005   2.262   6.640 -0.3634 -1.7448 -3.3196
  668TIP3    H223640   5.134   2.341   6.633 -1.2967  0.3701  0.3755
  669TIP3   OH223641   0.880   5.787   0.631  0.2077  0.3526  0.3855
  669TIP3    H123642   0.788   5.770   0.610  0.5406 -1.3542  0.1503
  669TIP3    H223643   0.910   5.848   0.564 -0.5936  0.4796  0.1357
  670TIP3   OH223644   2.477   2.407   1.911 -0.1625  0.1644  0.0583
  670TIP3    H123645   2.440   2.470   1.972  1.6533 -0.8116  2.3472
  670TIP3    H223646   2.563   2.443   1.889  1.3887 -1.8154  2.2669
  671TIP3   OH223647   4.099   5.945   7.022 -0.4833 -0.4654  0.1129
  671TIP3    H123648   4.100   6.018   6.959 -0.7889  0.1010  0.7504
  671TIP3    H223649   4.140   5.873   6.975  1.1162  0.4986 -0.0592
  672TIP3   OH223650   2.513   3.711   6.227 -0.1935  0.1928  0.4441
  672TIP3    H123651   2.572   3.703   6.153  0.2748 -1.7842  0.9624
  672TIP3    H223652   2.558   3.769   6.288  0.8499 -0.6104  0.4667
  673TIP3   OH223653   6.452   4.622   7.730  0.3099 -0.0477 -0.4063
  673TIP3    H123654   6.477   4.570   7.653  0.4730  0.2353 -0.5484
  673TIP3    H223655   6.371   4.666   7.704  1.3176  1.4829 -1.1056
  674TIP3   OH223656   3.321   0.252   1.449  0.4354  0.3782  0.4557
  674TIP3    H123657   3.330   0.341   1.482  0.4093  0.8115 -0.6418
  674TIP3    H223658   3.237   0.253   1.402 -0.4158 -0.7171  1.8694
  675TIP3   OH223659   4.558   6.514   2.232 -0.6244 -0.1207 -0.4267
  675TIP3    H123660   4.650   6.488   2.236 -0.2143  1.3608  0.8977
  675TIP3    H223661   4.516   6.462   2.300 -0.8211 -0.9337 -1.1569
  676TIP3   OH223662   5.659   4.695   8.466 -0.1913  0.1174  0.1568
  676TIP3    H123663   5.631   4.714   8.556  0.9571  0.0373  0.5473
  676TIP3    H223664   5.729   4.758   8.449  0.2029 -0.4490 -0.3623
  677TIP3   OH223665   4.108   1.565   0.389 -0.1866  1.0650 -0.4026
  677TIP3    H123666   4.080   1.582   0.299  1.1024  0.2582 -0.9945
  677TIP3    H223667   4.177   1.630   0.404  1.8569 -0.7712 -1.2023
  678TIP3   OH223668   4.981   1.795   8.555 -0.0071  0.0532  0.5412
  678TIP3    H123669   5.074   1.817   8.562 -0.1830  0.5757  1.2712
  678TIP3    H223670   4.970   1.718   8.611 -0.3023  0.8911  1.6645
  679TIP3   OH223671   4.673   5.667   7.422 -0.5241 -0.0023 -0.3680
  679TIP3    H123672   4.684   5.761   7.404 -0.9265  0.2352  0.5962
  679TIP3    H223673   4.761   5.636   7.442 -0.4868  0.3055 -0.0550
  680TIP3   OH223674   6.539   6.666   1.664 -0.3283 -0.9585 -0.1745
  680TIP3    H123675   6.518   6.732   1.599 -0.2668 -0.3924  0.3646
  680TIP3    H223676   6.525   6.710   1.748 -1.1986 -1.9157  0.2009
  681TIP3   OH223677   4.426   1.547   1.926 -0.1633 -0.2412 -0.5938
  681TIP3    H123678   4.362   1.583   1.988 -0.0004  2.4793 -1.8589
  681TIP3    H223679   4.469   1.476   1.974 -1.2964  0.5428  1.7303
  682TIP3   OH223680   6.652   3.554   7.476  0.1680 -0.7386 -0.9505
  682TIP3    H123681   6.708   3.626   7.447 -0.0195 -0.6030 -0.9823
  682TIP3    H223682   6.634   3.573   7.569 -1.5533  0.3909 -1.4475
  683TIP3   OH223683   0.039   4.687   8.817 -0.7189  0.9475  0.0059
  683TIP3    H123684   0.085   4.603   8.815  0.7850  1.6786  1.3315
  683TIP3    H223685   0.079   4.735   8.890 -2.3286  2.3808  0.0239
  684TIP3   OH223686   3.613   6.753   0.900  0.7089  0.1581  0.2494
  684TIP3    H123687   3.649   6.725   0.984 -0.0193  0.0279  0.5259
  684TIP3    H223688   3.577   6.673   0.861 -0.9561  0.5771  0.8318
  685TIP3   OH223689   1.723   4.190   0.578 -0.2590 -0.2739 -0.5222
  685TIP3    H123690   1.675   4.138   0.643  0.6820 -0.5837 -0.0664
  685TIP3    H223691   1.781   4.246   0.630  0.0888 -0.1170 -1.0774
  686TIP3   OH223692   3.775   4.619   1.652 -0.1242 -0.3615  0.0932
  686TIP3    H123693   3.689   4.625   1.610 -0.6162 -2.5591  0.6769
  686TIP3    H223694   3.837   4.616   1.578 -0.5920  0.2321 -0.3407
  687TIP3   OH223695   1.572   6.442   6.692  0.0346  0.4870 -0.1068
  687TIP3    H123696   1.662   6.448   6.659  0.2264 -0.3857  0.2206
  687TIP3    H223697   1.577   6.475   6.781  0.2304 -0.4734  0.2425
  688TIP3   OH223698   5.208   1.537   2.145  0.7098 -0.9081  0.3768
  688TIP3    H123699   5.175   1.448   2.158 -0.6896 -0.2810  1.4676
  688TIP3    H223700   5.259   1.555   2.224  0.7010 -0.6331  0.3206
  689TIP3   OH223701   5.388   5.332   0.495  0.5902 -0.4297 -0.2741
  689TIP3    H123702   5.305   5.339   0.449  0.3409 -2.3321 -0.1864
  689TIP3    H223703   5.437   5.265   0.448  1.0690 -1.1138  1.1161
  690TIP3   OH223704   3.207   2.227   8.208  0.2584 -0.0435 -0.6692
  690TIP3    H123705   3.231   2.148   8.256  2.8946  1.3032  0.4642
  690TIP3    H223706   3.200   2.199   8.117  3.3643 -1.3059 -0.6616
  691TIP3   OH223707   5.722   6.314   1.331  0.1311 -0.0701  0.1277
  691TIP3    H123708   5.817   6.316   1.345  0.3602  0.1181 -1.3125
  691TIP3    H223709   5.711   6.266   1.250 -0.8830  1.4659 -0.6876
  692TIP3   OH223710   2.746   4.662   6.532  0.2316 -0.6366  0.3350
  692TIP3    H123711   2.676   4.726   6.544  0.7190 -0.1586  0.6474
  692TIP3    H223712   2.782   4.681   6.445 -0.6515 -1.5075 -0.2413
  693TIP3   OH223713   4.444   3.915   7.123  0.1677 -0.0956  0.4878
  693TIP3    H123714   4.509   3.855   7.088 -0.2794 -0.1354 -0.2858
  693TIP3    H223715   4.480   4.002   7.106  0.1708 -0.1218  0.3617
  694TIP3   OH223716   2.414   1.545   1.110 -0.0860  0.2515 -0.4574
  694TIP3    H123717   2.323   1.570   1.097 -0.8794 -0.9858  1.9924
  694TIP3    H223718   2.464   1.601   1.050 -2.4185  1.0727 -1.7370
  695TIP3   OH223719   4.071   4.954   8.419  0.2269  0.2538 -0.2569
  695TIP3    H123720   4.081   4.861   8.440  1.0788  0.3967  0.0393
  695TIP3    H223721   4.021   4.990   8.493  0.7569  0.2108  0.1345
  696TIP3   OH223722   0.779   1.405   1.617  0.4058  0.1879  0.6266
  696TIP3    H123723   0.734   1.323   1.595  1.6800 -0.2811 -0.3601
  696TIP3    H223724   0.772   1.411   1.712 -0.5788 -0.5492  0.6139
  697TIP3   OH223725   4.418   2.704   7.781  0.2210 -0.0900 -0.1746
  697TIP3    H123726   4.340   2.757   7.797 -0.7872 -1.2636 -0.9866
  697TIP3    H223727   4.485   2.743   7.836 -0.9881  0.8444  0.7038
  698TIP3   OH223728   0.105   5.590   2.173 -0.7624  0.5072 -0.1507
  698TIP3    H123729   0.112   5.633   2.089 -0.9468  0.4166 -0.2141
  698TIP3    H223730   0.044   5.517   2.158 -1.5182  1.0261  0.2679
  699TIP3   OH223731   6.272   0.859   1.423 -0.0971 -0.5504  0.0957
  699TIP3    H123732   6.210   0.925   1.457  0.6309 -0.9980  2.4993
  699TIP3    H223733   6.334   0.910   1.371  0.7870  0.8706  2.3595
  700TIP3   OH223734   1.573   1.291   7.481  0.4680 -0.1406 -0.4081
  700TIP3    H123735   1.615   1.313   7.565  0.8902  2.5929 -1.2278
  700TIP3    H223736   1.640   1.242   7.434  0.3581 -1.3960  0.6750
  701TIP3   OH223737   2.947   1.784   8.442 -0.3375  0.5957  0.0797
  701TIP3    H123738   2.990   1.785   8.528  0.4084  1.6655 -0.2860
  701TIP3    H223739   3.019   1.791   8.379 -0.8069 -1.0154 -0.6902
  702TIP3   OH223740   4.412   3.948   1.561  0.3017 -0.0017 -0.4240
  702TIP3    H123741   4.358   3.871   1.548 -2.2457  1.6855 -0.6305
  702TIP3    H223742   4.406   3.967   1.654  1.1242 -0.1520 -0.3282
  703TIP3   OH223743   3.869   3.935   0.642 -0.0508 -0.1436  0.0612
  703TIP3    H123744   3.962   3.947   0.623 -0.2287  0.8645 -0.2194
  703TIP3    H223745   3.867   3.862   0.704  0.9172 -0.2528 -0.0177
  704TIP3   OH223746   5.864   1.981   1.822 -0.1060 -0.2513 -0.2457
  704TIP3    H123747   5.876   1.934   1.904  0.5590 -0.8824 -0.6842
  704TIP3    H223748   5.925   1.939   1.761 -0.2766  0.4797 -0.9482
  705TIP3   OH223749   5.868   5.323   6.765 -0.2369  0.0215 -0.1701
  705TIP3    H123750   5.781   5.292   6.789  0.4463 -0.7392  1.5258
  705TIP3    H223751   5.917   5.323   6.848  0.9874  1.7435 -0.8429
  706TIP3   OH223752   1.653   4.025   2.754  0.0730 -0.1927  0.6728
  706TIP3    H123753   1.711   3.971   2.700 -1.3676  0.1910 -1.3429
  706TIP3    H223754   1.692   4.112   2.751 -0.5058  0.0333 -0.5612
  707TIP3   OH223755   5.099   1.244   7.579  0.0462 -0.0544  0.4996
  707TIP3    H123756   5.072   1.170   7.634 -2.8008  0.1308 -0.4794
  707TIP3    H223757   5.043   1.316   7.606  0.6104  0.8568 -0.6771
  708TIP3   OH223758   2.953   3.345   7.710 -0.3727  0.5982 -0.1868
  708TIP3    H123759   2.954   3.249   7.706 -3.3296  0.4878 -0.7185
  708TIP3    H223760   2.923   3.365   7.798 -0.3003  0.9974 -0.2532
  709TIP3   OH223761   6.489   2.543   0.321 -0.3336  0.1295 -0.3597
  709TIP3    H123762   6.437   2.558   0.242  0.0830  1.0967 -0.4545
  709TIP3    H223763   6.434   2.576   0.392 -1.9006 -3.1459  0.1436
  710TIP3   OH223764   5.279   3.865   8.902  0.2030 -0.0855 -0.1100
  710TIP3    H123765   5.233   3.882   8.820  1.2673  0.7319 -0.5619
  710TIP3    H223766   5.236   3.922   8.966 -0.5434 -0.6285 -0.1212
  711TIP3   OH223767   3.421   3.220   8.481  0.0387 -0.8088 -0.1158
  711TIP3    H123768   3.514   3.245   8.487  0.2127 -1.6991  1.7776
  711TIP3    H223769   3.378   3.274   8.548 -0.5966 -1.2495 -0.1661
  712TIP3   OH223770   4.282   1.645   7.488  0.0751  0.4465 -0.6310
  712TIP3    H123771   4.355   1.652   7.550  0.0910  0.9933 -0.7027
  712TIP3    H223772   4.277   1.732   7.448  0.5619 -0.1273 -1.9686
  713TIP3   OH223773   1.526   2.108   6.877 -0.1365  0.1033  0.2767
  713TIP3    H123774   1.474   2.187   6.861 -0.7341 -0.5155 -0.8981
  713TIP3    H223775   1.614   2.131   6.847 -0.5117  0.0374 -0.9038
  714TIP3   OH223776   5.545   1.310   1.163  0.0360 -0.1251 -0.4948
  714TIP3    H123777   5.470   1.368   1.162  0.8157  1.0556  2.0521
  714TIP3    H223778   5.619   1.365   1.137  0.8281  0.2248  2.2141
  715TIP3   OH223779   4.086   6.733   6.553 -0.3251  0.1008 -0.4105
  715TIP3    H123780   4.092   6.639   6.569  0.2967  0.3363  0.8286
  715TIP3    H223781   4.141   6.773   6.620 -0.1059  1.3297 -1.2852
  716TIP3   OH223782   6.644   2.522   0.909  0.7099  0.2448  0.5216
  716TIP3    H123783   6.681   2.605   0.879 -0.3744  0.3077 -0.7881
  716TIP3    H223784   6.675   2.458   0.844 -0.0286 -0.0103  0.4147
  717TIP3   OH223785   5.479   3.178   2.432  0.0328  0.2347  0.4862
  717TIP3    H123786   5.408   3.242   2.431 -0.1675  0.0116 -0.4341
  717TIP3    H223787   5.437   3.095   2.407  0.6610  0.1728 -0.4328
  718TIP3   OH223788   3.289   6.247   0.368  0.0023 -0.4344  0.0113
  718TIP3    H123789   3.353   6.181   0.340 -0.3885 -0.9187  0.2360
  718TIP3    H223790   3.226   6.198   0.421  0.4061  0.3416  1.2636
  719TIP3   OH223791   5.890   1.315   0.809 -0.1955 -0.6369  0.1654
  719TIP3    H123792   5.956   1.248   0.795  0.4823 -0.3569  1.8081
  719TIP3    H223793   5.935   1.397   0.789 -0.2925 -0.4977  0.5180
  720TIP3   OH223794   5.100   5.466   0.017 -0.2198  0.4153 -0.0777
  720TIP3    H123795   5.137   5.551   0.043 -1.5167  1.7041 -2.1311
  720TIP3    H223796   5.013   5.487  -0.016 -0.6979 -1.7805 -0.3649
  721TIP3   OH223797   4.994   2.121   1.101 -0.2713 -0.1967  0.1078
  721TIP3    H123798   4.900   2.139   1.096  0.1215  1.9011 -0.4088
  721TIP3    H223799   5.025   2.126   1.011  0.2012 -1.8929  0.1387
  722TIP3   OH223800   4.421   6.468   1.031 -0.0203  0.3495 -0.2489
  722TIP3    H123801   4.352   6.424   1.081 -0.7275  2.8809  1.2247
  722TIP3    H223802   4.378   6.497   0.951  0.6556 -2.1543 -1.6237
  723TIP3   OH223803   3.929   1.097   0.394 -0.3242  0.6964  0.6184
  723TIP3    H123804   3.895   1.155   0.326 -0.6942 -0.1121  0.1026
  723TIP3    H223805   3.863   1.101   0.464 -1.7043 -1.0988 -0.5007
  724TIP3   OH223806   4.022   1.384   1.591  0.4958 -0.9691  0.6357
  724TIP3    H123807   4.021   1.443   1.667  0.7661 -0.9825  0.6493
  724TIP3    H223808   4.003   1.298   1.628  0.3652 -0.9353  0.6510
  725TIP3   OH223809   3.592   6.582   7.787  0.9335  0.2492  0.1170
  725TIP3    H123810   3.501   6.580   7.815  0.9275 -2.1038  0.1076
  725TIP3    H223811   3.642   6.560   7.866  1.1651 -2.4140 -0.6611
  726TIP3   OH223812   2.111   5.527   8.576 -0.0194  0.6317 -0.4507
  726TIP3    H123813   2.140   5.586   8.506  0.1779  0.9948 -0.0692
  726TIP3    H223814   2.193   5.499   8.618 -0.1823  1.4199  0.4406
  727TIP3   OH223815   5.249   3.587   8.809  0.8118 -0.5119 -0.4615
  727TIP3    H123816   5.164   3.589   8.854  1.1966  1.3519  0.2464
  727TIP3    H223817   5.285   3.674   8.822  3.0037 -1.3660 -0.4842
  728TIP3   OH223818   4.224   6.278   2.119  0.4630 -0.5868 -0.4470
  728TIP3    H123819   4.129   6.272   2.111 -0.0737  0.1303  3.5145
  728TIP3    H223820   4.255   6.189   2.104 -0.8169 -0.8763 -1.5579
  729TIP3   OH223821   0.337   5.463   6.865  0.4967  0.3607  0.1558
  729TIP3    H123822   0.352   5.369   6.870  0.4338  0.2628 -1.1633
  729TIP3    H223823   0.419   5.502   6.895  0.0248 -0.0748  2.1311
  730TIP3   OH223824   6.126   6.711   1.189  0.5770  0.1941  0.4852
  730TIP3    H123825   6.130   6.650   1.262 -0.8961  0.6377  0.9791
  730TIP3    H223826   6.075   6.666   1.123  1.7994 -0.1549 -0.2447
  731TIP3   OH223827   4.490   0.033   7.633 -0.6504  0.3965  0.0500
  731TIP3    H123828   4.553  -0.030   7.598  0.1545  0.8193  0.7078
  731TIP3    H223829   4.433   0.054   7.558 -0.2080 -0.2223 -0.4721
  732TIP3   OH223830   1.467   1.062   8.707  0.1766  0.1777 -0.5466
  732TIP3    H123831   1.393   1.004   8.724  1.6900 -1.6136  0.2763
  732TIP3    H223832   1.470   1.070   8.612 -0.2308 -0.8682 -0.6584
  733TIP3   OH223833   4.166   1.863   1.881  0.2375 -1.3828 -0.2167
  733TIP3    H123834   4.176   1.796   1.948 -0.0511 -2.2114 -0.9764
  733TIP3    H223835   4.254   1.877   1.847  0.3418 -1.1641  0.1437
  734TIP3   OH223836   2.124   3.894   0.427 -0.4422 -0.4669  0.1331
  734TIP3    H123837   2.061   3.960   0.399 -0.8827 -0.2673  1.5395
  734TIP3    H223838   2.204   3.944   0.446  0.0973 -0.6889 -1.3918
  735TIP3   OH223839   5.106   3.818   1.773  0.0493  0.0287 -0.4014
  735TIP3    H123840   5.135   3.733   1.806 -1.0553 -0.8135 -1.5040
  735TIP3    H223841   5.042   3.848   1.837  1.9683  1.0963  1.1333
  736TIP3   OH223842   2.366   0.669   7.412  0.4619 -0.9152  0.1459
  736TIP3    H123843   2.423   0.704   7.343  0.7973 -0.7877  0.4816
  736TIP3    H223844   2.290   0.728   7.412  0.8745 -0.3679  0.4861
  737TIP3   OH223845   2.504   6.675   8.404 -0.5023 -0.3505 -0.1501
  737TIP3    H123846   2.449   6.596   8.411  0.7013 -1.3666 -1.7234
  737TIP3    H223847   2.523   6.683   8.311  1.2828  0.5023  0.2579
  738TIP3   OH223848   4.969   5.636   8.141  0.1160  0.0107 -0.5501
  738TIP3    H123849   4.987   5.626   8.235  0.0930  1.5736 -0.3468
  738TIP3    H223850   5.055   5.636   8.100  0.1455 -0.3311 -0.4915
  739TIP3   OH223851   6.568   4.004   1.973 -0.4458 -0.3355  0.4050
  739TIP3    H123852   6.551   4.087   2.019 -1.7571 -0.4865  0.2159
  739TIP3    H223853   6.526   3.938   2.027 -2.3233 -0.4834 -1.1247
  740TIP3   OH223854   1.731   0.006   7.312  0.2216  0.5329  0.2374
  740TIP3    H123855   1.797   0.069   7.283  0.1591  0.8635  0.7959
  740TIP3    H223856   1.778  -0.055   7.368 -0.0657  1.1802  1.2113
  741TIP3   OH223857   5.244   6.303   0.274  0.2575 -0.2964  0.2110
  741TIP3    H123858   5.159   6.295   0.232  0.1457  0.2598  0.3290
  741TIP3    H223859   5.308   6.291   0.203  0.0730  1.0690 -0.2188
  742TIP3   OH223860   2.575   4.146   8.214  0.4446 -0.6903 -0.0418
  742TIP3    H123861   2.665   4.143   8.245  0.4149 -0.9661  0.0219
  742TIP3    H223862   2.541   4.057   8.229 -0.7044  0.0749  2.5162
  743TIP3   OH223863   6.645   2.670   2.871  0.0792 -0.9993  0.1133
  743TIP3    H123864   6.612   2.708   2.952  0.7581  1.8738 -0.8324
  743TIP3    H223865   6.567   2.656   2.817 -0.0979  1.5899 -0.4479
  744TIP3   OH223866   4.727   3.568   8.110  0.4158 -0.5567  0.3959
  744TIP3    H123867   4.666   3.577   8.183 -0.1374  1.1205 -0.2075
  744TIP3    H223868   4.671   3.559   8.033  0.9220 -0.0551 -0.0460
  745TIP3   OH223869   0.633   2.365   7.793  0.8415 -0.3192 -0.0785
  745TIP3    H123870   0.637   2.435   7.858 -2.3732  0.2853 -0.3815
  745TIP3    H223871   0.708   2.382   7.735  0.0093  3.1339 -0.3429
  746TIP3   OH223872   2.007   0.496   8.796  0.3354  0.4487 -0.1940
  746TIP3    H123873   2.091   0.452   8.800  0.6760  1.1663  1.2692
  746TIP3    H223874   2.027   0.584   8.763  0.2657  0.8258  0.7418
  747TIP3   OH223875   2.788   2.614   8.413 -0.4855  0.3133 -0.8005
  747TIP3    H123876   2.715   2.676   8.419 -0.1778  0.5471  1.1812
  747TIP3    H223877   2.866   2.668   8.411 -0.2611  0.0116 -0.2952
  748TIP3   OH223878   4.942   0.405   7.684 -0.4643  0.1069  0.1422
  748TIP3    H123879   4.931   0.500   7.671  2.1595  0.8899  2.5297
  748TIP3    H223880   5.016   0.382   7.629 -0.5939 -0.3798  0.1696
  749TIP3   OH223881   4.755   3.207   6.653 -0.2416  0.0284 -0.6744
  749TIP3    H123882   4.825   3.143   6.662  0.6800  1.3087  2.1591
  749TIP3    H223883   4.800   3.290   6.635 -1.1564  0.5537 -0.6269
  750TIP3   OH223884   3.755   2.463   0.786  0.2899 -0.1113 -0.1406
  750TIP3    H123885   3.688   2.474   0.719  0.5345 -1.6191 -0.6517
  750TIP3    H223886   3.798   2.549   0.791 -0.4868  0.3488 -1.0873
  751TIP3   OH223887   4.417   2.232   7.063 -0.3952  0.2474 -0.0828
  751TIP3    H123888   4.343   2.204   7.009 -0.1724  0.7686 -0.6782
  751TIP3    H223889   4.382   2.301   7.119  0.4192  3.5484 -3.1944
  752TIP3   OH223890   0.369   1.352   7.799 -0.0808 -0.1998 -0.1006
  752TIP3    H123891   0.391   1.446   7.797  0.5811 -0.3589 -0.5950
  752TIP3    H223892   0.388   1.325   7.889 -2.0543  0.5352  0.5972
  753TIP3   OH223893   3.894   2.342   0.154  0.2430  0.3034  0.7182
  753TIP3    H123894   3.881   2.435   0.172 -0.9278  0.3499 -0.2501
  753TIP3    H223895   3.902   2.301   0.240 -1.3920  1.0157  1.2480
  754TIP3   OH223896   2.432   1.062   0.231  0.2085  0.0089  0.0781
  754TIP3    H123897   2.457   1.027   0.146 -0.7406 -0.0219 -0.1949
  754TIP3    H223898   2.453   0.993   0.293  1.8891  0.4248  0.0206
  755TIP3   OH223899   4.629   2.477   7.002  0.1415  0.4434 -0.1990
  755TIP3    H123900   4.572   2.551   7.023  0.1346  0.1711  0.8050
  755TIP3    H223901   4.614   2.461   6.909 -1.1352  0.6307 -0.0480
  756TIP3   OH223902   1.976   0.325   1.576 -0.3129  0.3543 -0.4771
  756TIP3    H123903   2.071   0.341   1.578 -0.5486  1.8535 -0.1111
  756TIP3    H223904   1.955   0.295   1.665 -0.4179  1.6426 -0.0477
  757TIP3   OH223905   1.551   2.255   7.664 -0.0162 -0.3519 -0.5391
  757TIP3    H123906   1.607   2.271   7.740  1.2647 -0.0874 -1.4900
  757TIP3    H223907   1.603   2.197   7.608  0.2037  1.4598 -2.3600
  758TIP3   OH223908   1.460   1.789   2.519  0.2069 -0.1372 -0.1114
  758TIP3    H123909   1.523   1.721   2.543  1.2788  0.9431  0.2370
  758TIP3    H223910   1.471   1.856   2.586 -0.2972  0.7069 -0.8537
  759TIP3   OH223911   1.566   1.370   0.290  0.2145  0.6502  0.0299
  759TIP3    H123912   1.588   1.277   0.298 -1.0314  0.2524 -0.8918
  759TIP3    H223913   1.477   1.377   0.324 -0.2254  1.2449 -1.1860
  760TIP3   OH223914   3.316   1.236   0.427  0.4008  0.3716 -0.0175
  760TIP3    H123915   3.266   1.293   0.486  1.5701 -0.0892  1.4961
  760TIP3    H223916   3.346   1.165   0.484  2.1642  0.2662 -1.0295
  761TIP3   OH223917   0.644   3.323   0.729  0.2573 -0.4316 -0.5410
  761TIP3    H123918   0.686   3.385   0.789 -2.2482 -1.0760  2.1144
  761TIP3    H223919   0.698   3.244   0.733  0.2916 -0.3600  0.6895
  762TIP3   OH223920   0.642   2.049   8.602 -0.0507  0.4915  0.3022
  762TIP3    H123921   0.734   2.038   8.575 -0.5159 -0.6298 -0.9809
  762TIP3    H223922   0.618   1.965   8.640 -0.9289  0.2855 -0.6564
  763TIP3   OH223923   6.236   3.768   1.137 -0.3495  0.4325  0.0329
  763TIP3    H123924   6.235   3.858   1.170  0.9949  0.5358 -0.1622
  763TIP3    H223925   6.166   3.766   1.072 -0.9011  1.1155  0.5973
  764TIP3   OH223926   6.190   6.146   7.365  0.1580 -0.2139  0.2612
  764TIP3    H123927   6.135   6.191   7.302  1.6615  1.5097  0.1141
  764TIP3    H223928   6.270   6.126   7.317  0.4011 -1.0363  0.9812
  765TIP3   OH223929   0.679   4.770   1.487  0.1889 -0.2574  0.1009
  765TIP3    H123930   0.604   4.826   1.505 -0.1944 -0.8054  0.2537
  765TIP3    H223931   0.674   4.701   1.553 -0.1312 -1.2290 -0.9062
  766TIP3   OH223932   4.741   1.675   8.425 -0.0565  0.1229  0.2440
  766TIP3    H123933   4.763   1.582   8.412 -0.4984  0.2972 -2.1515
  766TIP3    H223934   4.664   1.689   8.370 -0.3978  1.7860  1.0921
  767TIP3   OH223935   1.427   4.597   7.775 -0.1498  0.1689 -0.1952
  767TIP3    H123936   1.513   4.588   7.815 -1.0965  0.5981  2.1305
  767TIP3    H223937   1.413   4.691   7.769 -0.5818  0.1067 -0.2269
  768TIP3   OH223938   3.736   6.122   0.390 -0.0427 -0.0763  0.9223
  768TIP3    H123939   3.825   6.096   0.414  0.1843  0.5155  0.7531
  768TIP3    H223940   3.685   6.109   0.470  0.2967  0.0251  1.1596
  769TIP3   OH223941   2.568   6.146   1.420 -0.0690  0.6428 -0.1671
  769TIP3    H123942   2.483   6.104   1.434  0.0832  0.3925  0.0157
  769TIP3    H223943   2.560   6.230   1.465 -0.2834  0.6979 -0.3074
  770TIP3   OH223944   3.232   5.773   1.555 -0.0749  0.5440 -0.1954
  770TIP3    H123945   3.192   5.800   1.472  1.7779  0.2526 -1.2559
  770TIP3    H223946   3.290   5.846   1.578 -0.1952  0.3988  0.5726
  771TIP3   OH223947   3.032   1.333   0.308  0.1112  0.1286 -0.0113
  771TIP3    H123948   3.066   1.361   0.394  3.4570  3.6319 -2.1501
  771TIP3    H223949   3.009   1.415   0.264  0.3679 -1.3513 -3.1191
  772TIP3   OH223950   1.845   1.913   0.608 -0.5272  0.0409  0.0197
  772TIP3    H123951   1.872   1.887   0.696 -0.9737  0.4066  0.2720
  772TIP3    H223952   1.757   1.877   0.599 -0.2859 -0.4302 -0.4737
  773TIP3   OH223953   1.938   4.005   8.558 -0.4892 -0.4812  0.0188
  773TIP3    H123954   1.932   4.099   8.543  1.4954 -0.4506 -0.8674
  773TIP3    H223955   1.880   3.989   8.632  0.0909  1.6486  1.0143
  774TIP3   OH223956   0.029   1.513   7.355  0.3703 -0.3150  0.2167
  774TIP3    H123957   0.069   1.596   7.382 -2.7074  1.2695  0.3473
  774TIP3    H223958  -0.037   1.538   7.290  0.9011 -2.9830 -1.5154
  775TIP3   OH223959   5.533   2.709   6.879 -0.3914 -0.1600  0.3406
  775TIP3    H123960   5.565   2.709   6.789  0.2200 -0.1661  0.5514
  775TIP3    H223961   5.478   2.787   6.885  1.4810  1.2021  0.6183
  776TIP3   OH223962   4.719   0.489   7.837 -0.0691  0.3603 -0.0412
  776TIP3    H123963   4.770   0.409   7.846 -0.1598  0.2803 -0.2518
  776TIP3    H223964   4.763   0.538   7.768  0.3963  0.8058  0.5627
  777TIP3   OH223965   4.067   0.974   1.182  0.1618  0.3392  0.7931
  777TIP3    H123966   4.013   1.047   1.216 -1.4520 -0.5807  0.3229
  777TIP3    H223967   4.103   1.008   1.100 -0.3828  0.7109  0.6941
  778TIP3   OH223968   0.208   5.579   8.867  0.7064 -0.5459 -0.1335
  778TIP3    H123969   0.165   5.663   8.881  2.4328  0.1684  1.3184
  778TIP3    H223970   0.144   5.526   8.820 -0.4190  1.5771 -1.1089
  779TIP3   OH223971   1.000   6.491   6.443  0.0327 -0.0726 -0.0975
  779TIP3    H123972   0.923   6.444   6.414 -1.0588  2.0958 -0.9491
  779TIP3    H223973   0.985   6.581   6.415  1.9274  0.8355  1.5410
  780TIP3   OH223974   6.426   0.897   0.001  0.7890  0.1936 -0.3032
  780TIP3    H123975   6.342   0.900   0.048  0.8559  1.6781 -0.2553
  780TIP3    H223976   6.454   0.988  -0.006  1.2566 -0.0591 -2.4110
  781TIP3   OH223977   6.416   2.922   0.183 -0.1017  0.5678  0.3107
  781TIP3    H123978   6.446   3.011   0.203  0.0299  0.4133  0.8044
  781TIP3    H223979   6.344   2.935   0.121  0.6018  0.9630 -0.4404
  782TIP3   OH223980   5.176   2.331   1.244  0.3348 -0.1055  0.8427
  782TIP3    H123981   5.260   2.297   1.213  1.0011  2.9105 -1.0233
  782TIP3    H223982   5.195   2.420   1.273 -2.4244  1.2343 -1.0594
  783TIP3   OH223983   2.635   0.354   0.930 -0.3250 -0.0271 -0.5537
  783TIP3    H123984   2.668   0.443   0.922 -0.6358  0.2939  1.2356
  783TIP3    H223985   2.712   0.303   0.957 -0.5230  0.0830  0.2681
  784TIP3   OH223986   2.018   3.105   6.535 -0.4827 -0.0220 -0.0792
  784TIP3    H123987   1.986   3.029   6.487  1.9763 -2.6249  2.0497
  784TIP3    H223988   1.944   3.132   6.590 -1.5368 -0.5061 -1.2147
  785TIP3   OH223989   0.616   3.672   7.375  0.6005  0.0910 -0.1885
  785TIP3    H123990   0.619   3.610   7.447  4.5434 -0.2813 -0.4500
  785TIP3    H223991   0.690   3.730   7.391 -0.2154  1.8875 -2.4036
  786TIP3   OH223992   6.482   1.919   2.140 -0.4876  0.1688  0.3744
  786TIP3    H123993   6.510   2.009   2.123 -0.1991 -0.1178 -0.7047
  786TIP3    H223994   6.389   1.928   2.163 -0.6943  0.6692 -0.5838
  787TIP3   OH223995   0.412   4.831   2.352  0.6469 -0.3225 -0.3314
  787TIP3    H123996   0.456   4.890   2.290 -1.0952  0.6697 -0.6887
  787TIP3    H223997   0.328   4.873   2.369  0.8381 -0.8789  2.3012
  788TIP3   OH223998   6.532   6.591   0.069 -0.4098 -0.0842  0.1518
  788TIP3    H123999   6.503   6.550  -0.013 -1.4932  0.2256  0.3614
  788TIP3    H224000   6.476   6.552   0.136 -1.0393  1.2520  0.4348
  789TIP3   OH224001   5.742   2.723   1.502 -0.3643  0.0608 -0.6977
  789TIP3    H124002   5.760   2.724   1.596 -0.2500 -0.4884 -0.7145
  789TIP3    H224003   5.662   2.671   1.493  0.0921 -0.6065 -0.9814
  790TIP3   OH224004   1.051   5.523   8.423  0.6204 -0.1093  0.0256
  790TIP3    H124005   1.011   5.609   8.430 -2.1835 -1.3462  0.5564
  790TIP3    H224006   1.083   5.504   8.511  1.1560  0.3363 -0.0701
  791TIP3   OH224007   0.942   1.543   0.342 -0.1556  0.2215 -0.2095
  791TIP3    H124008   0.901   1.604   0.281 -2.0483 -1.1073 -0.3578
  791TIP3    H224009   0.972   1.470   0.286 -0.6283 -0.3557  0.2861
  792TIP3   OH224010   5.421   5.505   7.277 -0.9451 -0.0554  0.0219
  792TIP3    H124011   5.328   5.515   7.256 -0.4165  0.3005 -2.5018
  792TIP3    H224012   5.461   5.587   7.250 -0.1692  0.9544  3.6609
  793TIP3   OH224013   2.427   3.782   6.888 -0.2194  0.0318  0.2518
  793TIP3    H124014   2.371   3.832   6.829 -1.2469 -0.8679  0.4381
  793TIP3    H224015   2.496   3.746   6.832 -1.5211 -1.3126 -0.5589
  794TIP3   OH224016   6.082   3.683   0.304 -0.0460  0.3107  0.2822
  794TIP3    H124017   6.043   3.601   0.334  0.0495  0.2643  0.2821
  794TIP3    H224018   6.012   3.729   0.259 -0.3074  0.5712  0.9442
  795TIP3   OH224019   5.094   6.785   1.450  0.4544  0.1936 -0.2304
  795TIP3    H124020   5.096   6.870   1.493  0.3498  0.7062 -1.2200
  795TIP3    H224021   5.134   6.800   1.365 -0.3388 -0.5491 -0.7507
  796TIP3   OH224022   5.075   2.334   8.475  0.0421 -0.1713 -0.4188
  796TIP3    H124023   5.123   2.257   8.444 -0.5726  0.1259 -2.2651
  796TIP3    H224024   5.128   2.408   8.445  0.3117  0.1378  0.7976
  797TIP3   OH224025   4.290   6.655   7.808 -0.0613 -0.5985 -0.2868
  797TIP3    H124026   4.270   6.747   7.793 -1.0431 -0.3736  2.0042
  797TIP3    H224027   4.337   6.628   7.730  0.3115  1.8592 -1.0026
  798TIP3   OH224028   0.939   6.005   1.908  0.3576  0.3158  0.1174
  798TIP3    H124029   1.022   6.048   1.890 -0.2973  1.5938  0.0873
  798TIP3    H224030   0.911   6.040   1.993 -1.2367  1.6762 -0.8966
  799TIP3   OH224031   4.495   3.359   1.843 -0.6193  0.1240 -0.1059
  799TIP3    H124032   4.506   3.451   1.868 -0.8225 -0.3797  1.9736
  799TIP3    H224033   4.407   3.354   1.805  0.0014  1.0609 -1.7822
  800TIP3   OH224034   6.396   3.102   8.783 -0.5516  0.5573  0.2595
  800TIP3    H124035   6.386   3.095   8.688  0.8139  1.5446  0.0196
  800TIP3    H224036   6.334   3.169   8.810 -1.3564 -0.1314  0.1684
  801TIP3   OH224037   0.400   0.834   7.241 -0.1755 -0.7530  0.7295
  801TIP3    H124038   0.386   0.888   7.318  0.1350 -1.0412  0.9919
  801TIP3    H224039   0.495   0.822   7.237 -0.1709 -0.5495  0.1718
  802TIP3   OH224040   3.057   6.149   0.179  0.0697 -0.2233  0.1992
  802TIP3    H124041   3.008   6.185   0.253  1.0446  0.1583  0.6659
  802TIP3    H224042   3.027   6.058   0.173 -0.0346 -0.2505  1.0485
  803TIP3   OH224043   5.262   2.103   8.482 -0.0608  0.2996 -0.3094
  803TIP3    H124044   5.263   2.040   8.554 -0.9742 -1.6248 -1.8809
  803TIP3    H224045   5.354   2.112   8.457  0.2901  1.2074  1.2501
  804TIP3   OH224046   6.332   2.980   8.245 -0.1771 -0.0213 -0.5281
  804TIP3    H124047   6.289   2.940   8.170 -3.4321 -0.5528  1.4621
  804TIP3    H224048   6.301   3.070   8.246  0.3134  0.1540 -0.1269
  805TIP3   OH224049   4.979   3.067   8.257 -0.4616  0.4447 -0.1701
  805TIP3    H124050   4.945   3.118   8.330  0.0738 -0.4739  0.7575
  805TIP3    H224051   4.955   3.116   8.179 -0.4673  1.7878  0.6583
  806TIP3   OH224052   3.856   1.485   8.598 -0.2827 -0.1668 -0.0928
  806TIP3    H124053   3.797   1.442   8.537 -0.1278 -1.9248  0.9258
  806TIP3    H224054   3.817   1.571   8.613 -1.2496 -0.3688 -1.2903
  807TIP3   OH224055   1.554   4.007   1.074  0.6966  0.4435  0.4104
  807TIP3    H124056   1.612   3.935   1.048 -0.6402 -0.2686 -0.7509
  807TIP3    H224057   1.590   4.038   1.157  0.5370 -2.4966  1.6845
  808TIP3   OH224058   2.643   3.085   0.761  0.5035 -0.1323 -0.0658
  808TIP3    H124059   2.613   3.152   0.823  1.0836  0.2006 -0.1355
  808TIP3    H224060   2.736   3.104   0.749  1.2613 -2.3540  1.6924
  809TIP3   OH224061   3.984   0.260   2.168  0.4158  0.8418 -0.3835
  809TIP3    H124062   4.009   0.168   2.175 -1.2270  0.3772 -0.0057
  809TIP3    H224063   4.066   0.307   2.153  1.3159 -0.6505 -0.3173
  810TIP3   OH224064   1.939   3.345   0.873  0.3604  0.5420 -0.6537
  810TIP3    H124065   2.033   3.358   0.887  0.4060 -0.7312  0.4452
  810TIP3    H224066   1.933   3.272   0.812  0.0679  3.2749 -4.2266
  811TIP3   OH224067   4.709   5.449   0.780 -0.7929 -0.0846 -0.0910
  811TIP3    H124068   4.679   5.381   0.719  0.5639 -0.5272 -0.3162
  811TIP3    H224069   4.758   5.400   0.847  0.3714  0.6794 -0.3630
  812TIP3   OH224070   5.050   1.904   6.297  0.5246 -0.3234  0.0259
  812TIP3    H124071   5.045   1.840   6.226  0.6140  1.5840 -1.7917
  812TIP3    H224072   5.069   1.987   6.254 -1.6219  1.3559  2.0350
  813TIP3   OH224073   6.227   4.967   0.566 -0.4338  0.2491  0.1253
  813TIP3    H124074   6.200   5.055   0.541  0.5163  1.0652  1.7479
  813TIP3    H224075   6.166   4.942   0.635 -1.0203 -0.6081 -0.6812
  814TIP3   OH224076   1.870   4.876   8.797  0.0041 -0.8874  0.5426
  814TIP3    H124077   1.914   4.833   8.870  0.0812  0.0097  1.0430
  814TIP3    H224078   1.848   4.963   8.830 -2.4266 -1.3744  0.4230
  815TIP3   OH224079   0.851   6.542   7.767  0.2847  0.4244  0.4965
  815TIP3    H124080   0.886   6.494   7.842  0.4959 -0.0307  0.1103
  815TIP3    H224081   0.907   6.619   7.760 -0.6749  1.2737  1.7403
  816TIP3   OH224082   3.373   3.468   0.524  0.6850 -0.9755  0.2188
  816TIP3    H124083   3.341   3.526   0.455  2.8691  1.1895  0.8929
  816TIP3    H224084   3.431   3.407   0.478  1.5455 -0.0220  0.0057
  817TIP3   OH224085   5.289   4.263   0.921 -0.1176  0.1872  0.3216
  817TIP3    H124086   5.290   4.209   0.999  1.4468  1.6825  1.4163
  817TIP3    H224087   5.197   4.290   0.911 -0.4786 -0.6943  1.1377
  818TIP3   OH224088   2.517   6.259   8.513 -0.6193 -0.4523 -0.1817
  818TIP3    H124089   2.457   6.228   8.446  0.0785 -2.0322 -0.1283
  818TIP3    H224090   2.494   6.209   8.591  0.9171 -1.3243 -0.2354
  819TIP3   OH224091   2.530   0.981   7.766 -0.1898 -0.3412  0.3683
  819TIP3    H124092   2.607   0.927   7.745 -1.0432 -1.2518 -0.5383
  819TIP3    H224093   2.565   1.051   7.821  0.9910 -1.6998  1.4330
  820TIP3   OH224094   3.167   5.000   1.505 -0.3456 -0.2733  0.2782
  820TIP3    H124095   3.241   5.061   1.502  0.0241 -0.7339 -0.2739
  820TIP3    H224096   3.115   5.028   1.581 -1.1809  1.8738 -0.9963
  821TIP3   OH224097   0.430   5.343   8.184  0.2849  0.0149  0.7000
  821TIP3    H124098   0.419   5.437   8.173  0.2471  0.0105  0.7007
  821TIP3    H224099   0.470   5.314   8.102 -4.0265 -0.7308 -1.4201
  822TIP3   OH224100   5.512   5.145   8.342 -0.2542  0.0179  0.0805
  822TIP3    H124101   5.419   5.168   8.339 -0.5408 -1.1537 -0.3726
  822TIP3    H224102   5.533   5.116   8.253 -0.1166 -2.1689  0.7887
  823TIP3   OH224103   1.288   0.717   7.050  0.1947 -0.1924  0.3336
  823TIP3    H124104   1.239   0.643   7.013  0.6831 -0.0590 -0.5861
  823TIP3    H224105   1.228   0.754   7.115 -1.7978  1.2008 -2.1150
  824TIP3   OH224106   3.291   5.658   6.964 -0.1090 -0.3071 -0.0415
  824TIP3    H124107   3.292   5.597   7.039 -0.7460 -1.0339 -0.6063
  824TIP3    H224108   3.352   5.728   6.989  0.3070 -0.9537  0.8115
  825TIP3   OH224109   5.515   2.175   1.386  0.0294 -0.0918 -0.5504
  825TIP3    H124110   5.491   2.178   1.294 -0.6378  1.0732 -0.3508
  825TIP3    H224111   5.605   2.208   1.389  0.3317 -0.8499 -0.8500
  826TIP3   OH224112   3.760   2.756   7.885 -0.3450  0.2109  0.5404
  826TIP3    H124113   3.678   2.708   7.872  0.3288 -0.5654 -1.1296
  826TIP3    H224114   3.749   2.835   7.833 -0.0681  0.1473  0.3876
  827TIP3   OH224115   4.751   4.906   1.179  0.5053  0.0642 -0.3461
  827TIP3    H124116   4.802   4.982   1.205  0.8122 -0.4375  0.5667
  827TIP3    H224117   4.789   4.834   1.229 -0.0661 -0.6085 -0.8659
  828TIP3   OH224118   5.745   4.614   7.105 -0.1775  0.2883  0.2612
  828TIP3    H124119   5.811   4.681   7.124 -1.0460  0.9251  1.1134
  828TIP3    H224120   5.670   4.663   7.071 -0.1171 -0.4628 -1.0196
  829TIP3   OH224121   3.674   2.545   0.371 -0.0860  0.2022  0.4037
  829TIP3    H124122   3.765   2.542   0.399 -0.5650  1.0916  2.2052
  829TIP3    H224123   3.629   2.594   0.440 -2.0633 -0.8186 -0.0862
  830TIP3   OH224124   3.301   6.656   1.293 -0.0760 -0.4612  0.1138
  830TIP3    H124125   3.267   6.583   1.241  0.7647 -1.4453  0.9092
  830TIP3    H224126   3.332   6.616   1.373  2.5737  0.4231 -0.3750
  831TIP3   OH224127   4.421   4.180   2.439  0.8305  0.3832  0.4637
  831TIP3    H124128   4.509   4.208   2.413 -0.2392  1.9527 -1.8342
  831TIP3    H224129   4.364   4.254   2.416 -1.1095 -0.5351  1.9739
  832TIP3   OH224130   0.388   3.381   0.683 -0.3458  0.0617  0.3372
  832TIP3    H124131   0.478   3.375   0.651 -0.7143 -2.0075 -0.4967
  832TIP3    H224132   0.395   3.416   0.772  1.4239 -1.5847  0.8875
  833TIP3   OH224133   6.573   2.443   7.892  0.3653  0.7257 -0.3699
  833TIP3    H124134   6.620   2.384   7.834 -0.4301  0.1931 -0.4922
  833TIP3    H224135   6.496   2.471   7.842 -0.3771  0.1947  0.4249
  834TIP3   OH224136   4.172   1.149   0.980  0.2302  0.4793  0.3378
  834TIP3    H124137   4.195   1.227   1.032 -1.4477  0.2293  1.5382
  834TIP3    H224138   4.250   1.093   0.985 -0.0085  0.2700  3.0265
  835TIP3   OH224139   1.386   4.165   1.327 -0.5824  0.0753  0.2606
  835TIP3    H124140   1.360   4.079   1.294  0.2110  0.3950 -1.2482
  835TIP3    H224141   1.306   4.218   1.322 -0.2294  0.4847 -2.4595
  836TIP3   OH224142   6.142   1.819   2.546  0.2908 -0.0958  0.7217
  836TIP3    H124143   6.128   1.770   2.627 -0.6941 -1.2974 -0.1322
  836TIP3    H224144   6.059   1.864   2.531  0.9786  1.3527  1.1562
  837TIP3   OH224145   0.625   5.741   0.142 -0.3680 -0.0647  0.2702
  837TIP3    H124146   0.580   5.696   0.071 -0.5686  1.0250 -0.3259
  837TIP3    H224147   0.557   5.759   0.207 -0.2533 -0.7529  0.5881
  838TIP3   OH224148   4.840   1.274   6.762  0.3271  0.0423  0.6328
  838TIP3    H124149   4.870   1.206   6.822  0.9123  0.5325  0.9029
  838TIP3    H224150   4.847   1.355   6.812  0.3762  0.4002  0.0548
  839TIP3   OH224151   5.737   0.845   8.633  0.0998 -0.1519 -0.2737
  839TIP3    H124152   5.698   0.758   8.627 -1.0755  0.3491 -0.1361
  839TIP3    H224153   5.665   0.905   8.615  1.0046  0.7887 -0.8819
  840TIP3   OH224154   6.294   6.611   0.735 -0.6111 -0.1561 -0.0990
  840TIP3    H124155   6.386   6.633   0.723 -0.7688  0.1767 -0.7410
  840TIP3    H224156   6.296   6.528   0.783  0.0103  0.1053  0.3455
  841TIP3   OH224157   0.767   3.851   1.792  0.2827  0.0138  0.1502
  841TIP3    H124158   0.775   3.867   1.698  1.4648 -0.0323  0.2267
  841TIP3    H224159   0.673   3.837   1.806  0.0419  0.4109 -0.9541
  842TIP3   OH224160   5.716   0.709   7.846 -0.4015  0.0430  0.4857
  842TIP3    H124161   5.774   0.634   7.864  0.8954  0.8564 -0.1396
  842TIP3    H224162   5.676   0.728   7.931  0.4966 -0.3450  1.0182
  843TIP3   OH224163   6.285   4.086   1.879 -0.1862 -0.2634  0.0385
  843TIP3    H124164   6.374   4.051   1.878 -1.0088 -2.5915  0.6480
  843TIP3    H224165   6.284   4.146   1.954  0.9765  0.1499 -0.2590
  844TIP3   OH224166   5.886   3.959   8.030  0.2282 -0.2545 -0.1718
  844TIP3    H124167   5.885   4.052   8.054  0.1274 -0.1698 -0.4918
  844TIP3    H224168   5.880   3.912   8.113  1.0600  0.0201  0.0484
  845TIP3   OH224169   5.084   3.725   8.326  0.4932  0.5057 -0.0010
  845TIP3    H124170   5.049   3.638   8.344  0.2354  0.8125  1.0066
  845TIP3    H224171   5.048   3.747   8.240  1.1126 -0.6483 -0.5887
  846TIP3   OH224172   4.803   1.691   1.066  0.2068 -0.4188  0.0578
  846TIP3    H124173   4.768   1.604   1.085  0.7910 -0.6577  0.0398
  846TIP3    H224174   4.792   1.739   1.148  1.0250 -0.8895  0.4519
  847TIP3   OH224175   4.391   2.048   6.339 -0.4148  0.0635  0.1098
  847TIP3    H124176   4.424   2.036   6.250 -1.1760 -0.5420 -0.0965
  847TIP3    H224177   4.350   1.964   6.361 -0.1814  0.1834  1.0576
  848TIP3   OH224178   4.341   5.753   6.569 -0.7299 -0.1103  0.1438
  848TIP3    H124179   4.432   5.723   6.570 -1.2905 -1.9202  1.2660
  848TIP3    H224180   4.337   5.816   6.497  1.4974  0.3504  0.3478
  849TIP3   OH224181   4.057   3.329   6.797 -0.0763  0.1581  0.3111
  849TIP3    H124182   4.079   3.251   6.746 -1.9093  1.7660 -3.3088
  849TIP3    H224183   3.973   3.307   6.839  0.8419 -0.7524  1.7472
  850TIP3   OH224184   6.764   5.759   1.405  0.1106 -0.0410  0.0541
  850TIP3    H124185   6.739   5.829   1.466 -1.4169  0.5800 -1.2031
  850TIP3    H224186   6.800   5.806   1.330 -2.6426 -0.3650 -1.6128
  851TIP3   OH224187   3.011   6.493   7.405 -0.3982  0.1617 -0.1168
  851TIP3    H124188   2.981   6.456   7.322  0.0131 -1.9100  0.6161
  851TIP3    H224189   3.076   6.431   7.438 -0.7248  0.7994  1.8788
  852TIP3   OH224190   4.807   5.054   7.081 -0.4353 -0.2128  0.0009
  852TIP3    H124191   4.798   4.959   7.083 -0.8020 -0.1839 -0.1999
  852TIP3    H224192   4.717   5.087   7.091 -0.5857  0.0962 -2.0336
  853TIP3   OH224193   5.069   1.887   7.910  0.0816  0.4009 -0.0431
  853TIP3    H124194   5.159   1.910   7.936  0.6045  0.5603 -1.8518
  853TIP3    H224195   5.035   1.967   7.870  0.2689 -0.5268 -2.1796
  854TIP3   OH224196   4.107   3.352   0.421  0.2946  0.4359  0.2118
  854TIP3    H124197   4.076   3.386   0.505 -0.1962  2.1888 -0.6273
  854TIP3    H224198   4.159   3.423   0.384 -1.6081  0.7620 -2.0694
  855TIP3   OH224199   3.809   6.252   0.033  0.3073 -0.0080  0.3309
  855TIP3    H124200   3.799   6.226  -0.058 -1.2626 -0.0881  0.5027
  855TIP3    H224201   3.872   6.190   0.069  0.9288  0.0153 -0.6720
  856TIP3   OH224202   1.262   5.157   0.628  0.3320 -0.5387  0.1213
  856TIP3    H124203   1.198   5.165   0.558 -0.5272 -2.2045  0.6626
  856TIP3    H224204   1.285   5.064   0.630  0.0368 -0.6262  2.2624
  857TIP3   OH224205   6.554   6.569   2.389 -0.0168 -0.5244 -0.1623
  857TIP3    H124206   6.591   6.497   2.441  0.3477 -0.3946 -0.2342
  857TIP3    H224207   6.491   6.611   2.447 -0.3506 -1.0066 -0.1798
  858TIP3   OH224208   0.179   2.416   7.366 -0.4951 -0.2538  0.4273
  858TIP3    H124209   0.175   2.410   7.271 -0.6195  0.4906  0.3773
  858TIP3    H224210   0.234   2.493   7.383 -0.6436 -0.2595  0.9491
  859TIP3   OH224211   1.897   4.329   0.742  0.0550  0.1518 -0.3266
  859TIP3    H124212   1.825   4.392   0.740  0.2789  0.4995  1.2199
  859TIP3    H224213   1.958   4.365   0.806  0.1652 -1.6404  0.6472
  860TIP3   OH224214   2.145   5.077   2.167  0.4219 -0.3783 -0.4102
  860TIP3    H124215   2.233   5.110   2.183  0.5177 -0.1482 -1.3783
  860TIP3    H224216   2.156   4.982   2.163  0.4794 -0.4108  0.3001
  861TIP3   OH224217   6.458   5.843   0.113  0.1251  0.1660 -0.5575
  861TIP3    H124218   6.530   5.900   0.087  0.6840 -0.0071  0.5595
  861TIP3    H224219   6.418   5.888   0.187  0.7767 -1.0172  0.5534
  862TIP3   OH224220   3.527   2.683   7.789 -0.2562 -0.1122 -0.0120
  862TIP3    H124221   3.497   2.759   7.739 -2.0793 -1.4900 -1.1505
  862TIP3    H224222   3.447   2.647   7.828  0.5499 -1.4710  0.4473
  863TIP3   OH224223   4.608   4.285   7.646  0.6439 -0.2146 -0.2822
  863TIP3    H124224   4.518   4.263   7.624  1.2867 -2.4629 -0.9668
  863TIP3    H224225   4.607   4.303   7.740 -0.5128 -0.2445 -0.2812
  864TIP3   OH224226   5.532   2.439   7.367 -0.2151  0.3131  0.4774
  864TIP3    H124227   5.468   2.388   7.416  0.7745 -1.5630 -0.0630
  864TIP3    H224228   5.598   2.374   7.339  0.0911  1.5353 -1.9440
  865TIP3   OH224229   6.283   2.101   1.941  0.0950 -0.4829 -0.0614
  865TIP3    H124230   6.261   2.100   1.847 -0.1122  1.5115 -0.0816
  865TIP3    H224231   6.199   2.111   1.985  0.4189  2.1948  0.1111
  866TIP3   OH224232   3.870   2.803   8.673 -0.2022  0.3624 -0.3178
  866TIP3    H124233   3.893   2.888   8.637  1.8134  0.2721  0.6584
  866TIP3    H224234   3.943   2.746   8.651 -0.0713 -0.3248  1.6441
  867TIP3   OH224235   6.510   3.372   7.303 -0.5099  0.0267  0.6253
  867TIP3    H124236   6.566   3.437   7.346  1.6060 -1.3750  0.1260
  867TIP3    H224237   6.480   3.415   7.223  0.6214  0.4898  0.4469
  868TIP3   OH224238   6.780   6.367   7.594  0.3961  0.2267  0.5981
  868TIP3    H124239   6.764   6.460   7.609 -0.1044  0.4241 -0.9279
  868TIP3    H224240   6.719   6.322   7.653  2.3163  0.7619  3.1566
  869TIP3   OH224241   1.956   2.192   2.539  0.4734 -0.4722 -0.3371
  869TIP3    H124242   1.861   2.208   2.537  0.5849  0.1372 -1.1481
  869TIP3    H224243   1.972   2.156   2.626 -0.5241 -0.6867 -0.2316
  870TIP3   OH224244   1.842   1.508   2.423  0.5824  0.1529  0.4223
  870TIP3    H124245   1.921   1.454   2.423  1.0777  0.8411 -0.8668
  870TIP3    H224246   1.777   1.456   2.375  0.7359  0.2658  0.0953
  871TIP3   OH224247   1.657   5.446   1.420 -0.2410  0.0756 -0.5510
  871TIP3    H124248   1.693   5.361   1.394  2.3974  0.4738  1.4218
  871TIP3    H224249   1.675   5.503   1.345 -0.8117 -0.7458 -1.3474
  872TIP3   OH224250   1.673   4.566   7.886 -0.1643 -0.1682 -0.4342
  872TIP3    H124251   1.684   4.658   7.911 -1.1949  0.0397 -0.6937
  872TIP3    H224252   1.654   4.521   7.968  0.5596 -0.1977 -0.2742
  873TIP3   OH224253   4.846   1.497   6.949 -0.5946 -0.3009  0.0737
  873TIP3    H124254   4.914   1.491   7.016 -0.8450 -0.6231  0.3066
  873TIP3    H224255   4.766   1.471   6.995 -0.4720 -2.4081 -0.8139
  874TIP3   OH224256   1.469   1.815   6.949  0.7083 -0.1012  0.0161
  874TIP3    H124257   1.481   1.905   6.919 -0.6518 -0.3148 -1.2979
  874TIP3    H224258   1.381   1.791   6.919  0.8903 -1.7392  0.6670
  875TIP3   OH224259   1.020   6.746   7.650  0.1740 -0.2030  0.0176
  875TIP3    H124260   1.097   6.772   7.599 -0.9239  1.0020 -1.0825
  875TIP3    H224261   0.967   6.825   7.657 -1.4375 -1.2189 -0.0868
  876TIP3   OH224262   0.339   1.674   8.631  0.3216  0.1275 -0.1537
  876TIP3    H124263   0.321   1.731   8.557 -0.6601 -0.5388 -0.4431
  876TIP3    H224264   0.333   1.731   8.708  1.0439  0.7532 -0.5469
  877TIP3   OH224265   1.404   3.379   7.958 -0.2731 -0.1690  0.7185
  877TIP3    H124266   1.312   3.393   7.980 -0.0656 -0.8709  2.2023
  877TIP3    H224267   1.436   3.322   8.028  0.8707 -1.3600 -0.7184
  878TIP3   OH224268   3.580   5.312   1.503  0.6950 -0.1222  0.1425
  878TIP3    H124269   3.667   5.296   1.466  1.4289 -1.3393  2.2278
  878TIP3    H224270   3.521   5.261   1.449  1.1459  1.1930 -1.6846
  879TIP3   OH224271   4.022   2.923   7.919  0.0972  0.3379 -0.4501
  879TIP3    H124272   4.016   2.979   7.842 -1.2647  1.1489  0.2077
  879TIP3    H224273   3.949   2.862   7.910  0.5071 -0.1847 -0.2726
  880TIP3   OH224274   2.696   2.961   8.190  0.0055 -0.2476  0.1390
  880TIP3    H124275   2.651   2.916   8.118 -0.9121 -0.9207  1.1187
  880TIP3    H224276   2.688   2.902   8.264  2.3115 -0.2537  0.4286
  881TIP3   OH224277   4.144   2.301   6.429  0.2071 -0.5720  0.1871
  881TIP3    H124278   4.127   2.207   6.424 -0.5004 -0.4876  0.8053
  881TIP3    H224279   4.237   2.309   6.409 -0.0162 -1.2545 -1.3183
  882TIP3   OH224280   4.111   4.781   7.980  0.5772 -0.0360  0.1443
  882TIP3    H124281   4.202   4.809   7.976  0.6789 -0.3916 -0.0700
  882TIP3    H224282   4.076   4.824   8.059  1.1240 -0.4739  0.6328
  883TIP3   OH224283   0.750   2.551   8.791 -0.5492  0.2582 -0.6513
  883TIP3    H124284   0.755   2.456   8.790 -0.3259  0.2461 -3.1626
  883TIP3    H224285   0.810   2.577   8.861 -1.4757 -1.4150  0.8797
  884TIP3   OH224286   2.328   5.231   7.632  0.3375  0.3182 -0.3714
  884TIP3    H124287   2.422   5.215   7.643  0.6834  2.2968 -0.1680
  884TIP3    H224288   2.321   5.324   7.612 -1.5195 -0.0047 -1.4949
  885TIP3   OH224289   2.309   4.066   8.064 -0.4400 -0.0589 -0.6422
  885TIP3    H124290   2.353   4.030   8.141  2.7320  0.6778 -1.9289
  885TIP3    H224291   2.265   3.991   8.025 -0.4089 -0.8605  0.7810
  886TIP3   OH224292   5.036   1.283   8.417 -0.0246  0.3273 -0.0864
  886TIP3    H124293   5.044   1.378   8.422  0.3783  0.3967 -1.6078
  886TIP3    H224294   5.117   1.254   8.378 -0.5286 -0.5597 -0.4959
  887TIP3   OH224295   5.294   3.958   8.268  0.2490  0.2700  0.0955
  887TIP3    H124296   5.202   3.935   8.284 -0.0440  1.6753  0.5857
  887TIP3    H224297   5.339   3.874   8.263 -1.2084 -0.4870 -1.1572
  888TIP3   OH224298   5.463   2.758   1.638 -0.3397  0.3433  0.2114
  888TIP3    H124299   5.384   2.811   1.647  0.7192  1.9149  0.5771
  888TIP3    H224300   5.476   2.719   1.724 -0.1037  0.9899  0.4728
  889TIP3   OH224301   6.173   3.620   8.653  0.1019 -0.0584  0.1688
  889TIP3    H124302   6.116   3.685   8.611 -2.0872 -0.3954  2.4020
  889TIP3    H224303   6.213   3.667   8.726  1.5995 -0.2364 -0.5050
  890TIP3   OH224304   0.810   0.657   1.415  0.4491  0.0379  0.3574
  890TIP3    H124305   0.750   0.623   1.348 -0.8435  0.9556  1.0134
  890TIP3    H224306   0.887   0.686   1.365  0.6800 -1.8147 -0.4243
  891TIP3   OH224307   6.563   0.166   0.229 -0.3016  0.6372  0.0001
  891TIP3    H124308   6.550   0.090   0.172 -0.7511 -1.1197  2.2553
  891TIP3    H224309   6.487   0.164   0.288  1.2352  0.9533  2.0921
  892TIP3   OH224310   0.631   0.553   1.210  0.9232 -0.0975  0.3956
  892TIP3    H124311   0.562   0.620   1.213  0.6420 -0.3733  0.2404
  892TIP3    H224312   0.674   0.566   1.126  0.1676 -0.7857 -0.1182
  893TIP3   OH224313   3.227   6.373   7.848  0.5657  0.1355 -0.2412
  893TIP3    H124314   3.174   6.448   7.874  0.2715 -0.0141 -0.4058
  893TIP3    H224315   3.190   6.344   7.764  0.2352 -0.6206  0.1558
  894TIP3   OH224316   4.300   0.803   8.819  0.4194 -0.2176 -0.5100
  894TIP3    H124317   4.217   0.781   8.777 -0.0511  0.1213  0.2165
  894TIP3    H224318   4.331   0.720   8.856  0.2940 -0.2963 -0.5826
  895TIP3   OH224319   3.073   0.262   0.169  0.0335 -1.0652  0.1526
  895TIP3    H124320   3.123   0.247   0.089 -1.0938 -0.4176 -0.7078
  895TIP3    H224321   3.091   0.353   0.192  0.8850 -1.4400  1.0399
  896TIP3   OH224322   1.712   3.213   1.261  0.3496 -0.3200 -0.0205
  896TIP3    H124323   1.695   3.119   1.263 -1.2054 -0.0677  0.6444
  896TIP3    H224324   1.709   3.236   1.168 -1.2603 -0.6378 -0.0831
  897TIP3   OH224325   5.038   2.793   7.993  0.5413 -0.0833  0.1248
  897TIP3    H124326   5.011   2.822   7.906  0.9919 -1.0403 -0.3604
  897TIP3    H224327   5.133   2.805   7.994  0.5691 -0.3085  0.3954
  898TIP3   OH224328   1.653   2.720   1.192  0.4070  0.0530 -0.0064
  898TIP3    H124329   1.633   2.765   1.274  0.6750  0.2326 -0.0392
  898TIP3    H224330   1.568   2.708   1.150  0.3210  0.4034  0.0659
  899TIP3   OH224331   1.107   5.306   1.550 -0.0293 -0.5913 -0.0568
  899TIP3    H124332   1.019   5.273   1.570  0.5170 -1.1634  1.5872
  899TIP3    H224333   1.116   5.382   1.607 -0.0467  0.4450 -1.4189
  900TIP3   OH224334   5.681   5.902   1.281 -0.1457  0.4512 -0.4947
  900TIP3    H124335   5.733   5.939   1.353  1.8088 -3.0101  0.0452
  900TIP3    H224336   5.609   5.856   1.325 -1.0680  1.3114 -1.0347
  901TIP3   OH224337   0.892   1.212   7.175  0.2502  0.0438 -0.1127
  901TIP3    H124338   0.935   1.162   7.244 -0.3923 -1.2861 -0.6406
  901TIP3    H224339   0.963   1.245   7.120  0.6512 -2.0057 -0.9039
  902TIP3   OH224340   0.484   5.196   0.054  0.0725  0.5921  0.1654
  902TIP3    H124341   0.529   5.121   0.092  0.3172 -0.0248 -1.2975
  902TIP3    H224342   0.417   5.218   0.118  0.1923 -0.6736  0.7595
  903TIP3   OH224343   0.314   4.540   8.912  0.0488 -0.1647  0.1447
  903TIP3    H124344   0.331   4.542   8.818  1.5856  0.2921  0.4012
  903TIP3    H224345   0.337   4.451   8.939 -0.2068 -0.2376  0.1234
  904TIP3   OH224346   1.193   3.554   8.327  0.1287 -0.4468  0.1941
  904TIP3    H124347   1.168   3.476   8.378  0.8891  0.8951  2.7874
  904TIP3    H224348   1.285   3.540   8.305 -0.1546 -0.9490 -0.7437
  905TIP3   OH224349   2.223   5.543   0.434 -0.0125  0.4091 -0.0384
  905TIP3    H124350   2.309   5.538   0.392  0.4799  0.7145  0.9089
  905TIP3    H224351   2.234   5.607   0.505 -0.4326 -1.0477  1.4130
  906TIP3   OH224352   0.952   5.112   0.699  0.0009 -0.9444  0.4042
  906TIP3    H124353   0.905   5.110   0.782 -0.8074 -1.1376 -0.0525
  906TIP3    H224354   0.884   5.116   0.632  0.6350  1.2781 -0.2162
  907TIP3   OH224355   3.268   3.400   8.633 -0.0940 -0.0758 -0.2302
  907TIP3    H124356   3.184   3.389   8.679  0.1071  0.4922  0.2905
  907TIP3    H224357   3.319   3.457   8.691  0.3745  0.1928 -0.9041
  908TIP3   OH224358   5.104   1.407   1.534 -0.6908  0.0957 -0.1047
  908TIP3    H124359   5.191   1.386   1.499 -0.3736  0.4713  0.4447
  908TIP3    H224360   5.112   1.498   1.564 -0.9607 -0.2056  0.9078
  909TIP3   OH224361   6.200   5.983   1.029 -0.2667  0.0346 -0.1335
  909TIP3    H124362   6.191   5.960   1.122 -0.0999 -0.9219 -0.3387
  909TIP3    H224363   6.293   5.975   1.011 -0.5441 -2.4187 -0.9847
  910TIP3   OH224364   1.211   0.355   7.261 -0.5990  0.1205  0.1456
  910TIP3    H124365   1.155   0.288   7.300 -1.8346  1.5964  1.0667
  910TIP3    H224366   1.271   0.380   7.332 -0.2800  0.1276 -0.1262
  911TIP3   OH224367   4.740   0.129   7.738 -0.1976  0.7606 -0.6046
  911TIP3    H124368   4.682   0.084   7.677 -0.4762  0.9090 -0.4518
  911TIP3    H224369   4.827   0.121   7.699  0.1274 -1.7620  0.4446
  912TIP3   OH224370   0.123   5.033   7.720 -0.0815  0.5331 -0.1187
  912TIP3    H124371   0.049   4.978   7.694  1.0506 -1.6103  0.9933
  912TIP3    H224372   0.192   5.011   7.659  0.8363 -0.4171  1.2045
  913TIP3   OH224373   2.982   0.473   1.503  0.3463  0.1657 -0.2783
  913TIP3    H124374   2.963   0.386   1.538 -0.3174 -1.0312 -3.2996
  913TIP3    H224375   2.920   0.531   1.548  0.2385 -1.0257  1.2039
  914TIP3   OH224376   3.676   4.871   7.290 -0.0192 -0.3346 -0.5172
  914TIP3    H124377   3.649   4.868   7.381 -1.0483  0.7521 -0.7688
  914TIP3    H224378   3.623   4.805   7.246  0.0218 -0.4131 -0.4486
  915TIP3   OH224379   1.140   1.876   7.701  0.4469 -0.2396 -0.0289
  915TIP3    H124380   1.082   1.910   7.770 -0.3110  0.8710 -1.1703
  915TIP3    H224381   1.197   1.950   7.680  0.5278 -0.5019 -0.7349
  916TIP3   OH224382   3.810   5.757   0.956 -0.1627  0.4209 -0.0899
  916TIP3    H124383   3.827   5.663   0.966  1.2009  0.6340 -0.2375
  916TIP3    H224384   3.894   5.794   0.929  0.1302  2.1258  2.8015
  917TIP3   OH224385   5.412   0.381   0.216  0.0718  0.3725 -0.0925
  917TIP3    H124386   5.332   0.365   0.165 -0.1572 -0.5748  0.5353
  917TIP3    H224387   5.391   0.458   0.269 -0.6880 -0.2635  0.5619
  918TIP3   OH224388   5.420   3.966   6.516 -0.0811  0.2813 -0.0776
  918TIP3    H124389   5.382   4.034   6.460  0.5703  0.6233 -0.1026
  918TIP3    H224390   5.368   3.970   6.596  0.1075  0.9813  0.0181
  919TIP3   OH224391   4.472   4.591   0.705  0.3565 -0.1163  0.4149
  919TIP3    H124392   4.505   4.554   0.623 -1.1202  0.5833 -0.5260
  919TIP3    H224393   4.482   4.520   0.768 -1.9662 -2.0762 -1.2215
  920TIP3   OH224394   2.602   1.070   0.529  0.3174 -0.0457  0.1091
  920TIP3    H124395   2.657   1.142   0.499 -1.6499  1.5191  0.0463
  920TIP3    H224396   2.644   0.992   0.493  2.2502  1.0755 -0.2454
  921TIP3   OH224397   4.241   5.347   7.228  0.4216 -0.4389 -0.1019
  921TIP3    H124398   4.264   5.341   7.321 -1.2374  0.1173  0.3942
  921TIP3    H224399   4.224   5.257   7.202 -0.4971 -0.4714  0.5538
  922TIP3   OH224400   1.826   6.256   7.324 -0.5421  0.0390 -0.1831
  922TIP3    H124401   1.834   6.256   7.420 -1.1874  0.8037 -0.1241
  922TIP3    H224402   1.854   6.343   7.297  0.1733 -0.3580 -0.7465
  923TIP3   OH224403   2.001   1.465   2.125 -0.4151  0.0084  0.2102
  923TIP3    H124404   2.071   1.510   2.173 -0.3288 -1.1019  1.1709
  923TIP3    H224405   1.940   1.535   2.101  1.0451  1.0115 -0.7376
  924TIP3   OH224406   2.139   4.895   0.475  0.4889  0.6122  0.1075
  924TIP3    H124407   2.185   4.835   0.534  0.2362  0.2214 -0.0861
  924TIP3    H224408   2.095   4.956   0.534 -2.8149 -1.9273  0.6055
  925TIP3   OH224409   5.780   0.555   0.783 -0.1792  0.2843 -0.2836
  925TIP3    H124410   5.804   0.624   0.844  1.4524 -1.3336  1.0109
  925TIP3    H224411   5.689   0.533   0.805 -0.8084  2.0953 -0.8756
  926TIP3   OH224412   1.702   0.631   7.036  0.1256  0.3610  0.5090
  926TIP3    H124413   1.705   0.645   7.131  0.7281  2.3262  0.2572
  926TIP3    H224414   1.675   0.716   7.001  3.4460  0.8478 -1.2481
  927TIP3   OH224415   6.365   2.055   6.530  0.1217 -0.5229  0.1771
  927TIP3    H124416   6.295   2.083   6.470 -0.0309  0.0203  0.6010
  927TIP3    H224417   6.324   2.055   6.616  0.9621  1.0256  0.6081
  928TIP3   OH224418   2.025   2.015   2.725  0.2969 -0.1978 -0.4851
  928TIP3    H124419   1.955   1.950   2.723  0.8825 -0.8367 -0.6926
  928TIP3    H224420   2.099   1.970   2.765  1.3019 -0.2945 -2.3147
  929TIP3   OH224421   3.363   0.428   6.975  0.2632 -0.1432  0.8460
  929TIP3    H124422   3.406   0.495   7.029 -0.8929  0.6941  0.7703
  929TIP3    H224423   3.431   0.396   6.917  0.9239  0.7267  1.1232
  930TIP3   OH224424   2.942   5.782   8.522 -0.2789 -0.1245  0.1650
  930TIP3    H124425   2.905   5.826   8.446 -1.0620 -0.6815  0.2138
  930TIP3    H224426   2.911   5.692   8.515  0.0023 -0.2866  0.9084
  931TIP3   OH224427   2.022   1.200   2.080 -0.3907 -0.1731  0.5054
  931TIP3    H124428   2.005   1.290   2.107 -2.0849 -0.5390  0.7767
  931TIP3    H224429   2.117   1.197   2.066 -0.4211  1.9283 -0.5680
  932TIP3   OH224430   2.443   1.301   1.232 -0.0790  0.1515 -0.3763
  932TIP3    H124431   2.539   1.292   1.238 -0.1675 -0.8203 -0.1037
  932TIP3    H224432   2.429   1.374   1.172  0.8476  1.6119  1.1015
  933TIP3   OH224433   5.578   0.170   2.131 -0.5510 -0.0055 -0.0239
  933TIP3    H124434   5.626   0.149   2.211 -1.3666 -1.5469  0.0899
  933TIP3    H224435   5.539   0.087   2.103 -0.4962  0.5517 -1.8955
  934TIP3   OH224436   6.683   3.048   8.056  0.8134  0.2374 -0.3595
  934TIP3    H124437   6.769   3.011   8.040 -0.2916 -2.0866 -1.4846
  934TIP3    H224438   6.636   2.980   8.104  0.2320  2.3312  2.2922
  935TIP3   OH224439   4.698   4.569   1.173 -0.1558 -0.3928  0.3589
  935TIP3    H124440   4.708   4.477   1.196 -0.8942 -0.3717  0.7819
  935TIP3    H224441   4.691   4.614   1.257 -3.2019 -0.3473  0.1711
  936TIP3   OH224442   3.396   3.120   1.803  0.0533 -0.8974  0.5926
  936TIP3    H124443   3.472   3.147   1.751 -0.2809 -0.1287  0.4964
  936TIP3    H224444   3.402   3.173   1.883 -0.5455 -0.6188  0.4523
  937TIP3   OH224445   2.167   1.083   6.978 -0.0728 -0.3177  0.0617
  937TIP3    H124446   2.224   1.156   6.951 -0.6885 -0.0982 -0.6811
  937TIP3    H224447   2.087   1.095   6.926 -0.2184 -1.4703  0.0028
  938TIP3   OH224448   3.235   3.973   0.934  0.4934 -0.1658  0.2681
  938TIP3    H124449   3.281   4.053   0.911 -0.2894  0.4684  0.8579
  938TIP3    H224450   3.226   3.926   0.851  0.8497  0.4084 -0.1053
  939TIP3   OH224451   1.388   2.732   1.812  0.0614 -0.8505  0.7392
  939TIP3    H124452   1.380   2.661   1.748 -0.3872 -0.2013  0.0653
  939TIP3    H224453   1.304   2.734   1.856 -0.7296  0.6503 -0.7343
  940TIP3   OH224454   3.936   5.162   1.204 -0.5129 -0.3734  0.7831
  940TIP3    H124455   3.910   5.163   1.112  0.6282 -2.4275  0.3744
  940TIP3    H224456   3.874   5.221   1.247 -3.5708 -2.2560 -0.6836
  941TIP3   OH224457   5.598   5.489   7.765 -0.4433  0.1541  0.1204
  941TIP3    H124458   5.554   5.489   7.680 -0.7270 -1.5588  0.2299
  941TIP3    H224459   5.654   5.411   7.762 -0.2321  0.2402  1.3935
  942TIP3   OH224460   1.107   2.403   1.877 -0.2114  0.4094  0.1614
  942TIP3    H124461   1.044   2.443   1.817  1.3419  1.7621 -0.6314
  942TIP3    H224462   1.108   2.462   1.953  0.5674  0.7592 -0.1136
  943TIP3   OH224463   0.583   6.288   8.550  0.0914  0.5296  0.1708
  943TIP3    H124464   0.577   6.262   8.457 -1.5269  0.0954  0.3632
  943TIP3    H224465   0.658   6.347   8.553  1.1881 -0.7242 -1.1156
  944TIP3   OH224466   5.876   0.686   6.852 -0.2602  0.5355 -0.2389
  944TIP3    H124467   5.817   0.718   6.783 -0.2691  3.0770  0.8694
  944TIP3    H224468   5.822   0.684   6.931  0.4025  0.0877  0.2175
  945TIP3   OH224469   5.047   1.938   1.698  0.1912 -0.0026  0.3113
  945TIP3    H124470   4.957   1.953   1.727 -0.3405 -1.6611 -0.3713
  945TIP3    H224471   5.101   1.978   1.766 -1.0497  0.8344  0.8415
  946TIP3   OH224472   5.019   0.900   1.737  0.3388 -0.4476  0.2261
  946TIP3    H124473   4.956   0.970   1.755  2.2028  1.7835 -1.3077
  946TIP3    H224474   5.104   0.945   1.738  1.7476 -2.9796  0.4213
  947TIP3   OH224475   1.278   4.155   0.711  0.6235 -0.2425 -0.1699
  947TIP3    H124476   1.218   4.125   0.780  0.3715  1.1526  0.2315
  947TIP3    H224477   1.231   4.136   0.630 -0.2292  0.5172  0.1271
  948TIP3   OH224478   2.097   5.887   0.081  0.5057 -0.3426  0.0791
  948TIP3    H124479   2.024   5.855   0.134  0.0942 -3.7833 -2.2379
  948TIP3    H224480   2.142   5.951   0.137 -3.0548  0.4446  2.3366
  949TIP3   OH224481   6.197   3.110   1.099  0.2302 -0.4909 -0.2866
  949TIP3    H124482   6.201   3.181   1.163 -0.5040  0.2495 -1.0398
  949TIP3    H224483   6.261   3.046   1.130  2.8879  1.6695 -1.0328
  950TIP3   OH224484   0.837   5.929   7.846 -0.4131  0.0706 -0.7053
  950TIP3    H124485   0.861   6.015   7.879 -1.7334 -0.0264  0.5898
  950TIP3    H224486   0.871   5.927   7.756  0.6299  1.4868 -0.3650
  951TIP3   OH224487   4.327   3.970   8.210  0.3950  0.0128 -0.3495
  951TIP3    H124488   4.341   3.980   8.304 -1.8137  0.8391 -0.0334
  951TIP3    H224489   4.259   3.903   8.203 -1.6139  1.9909 -1.0929
  952TIP3   OH224490   6.689   3.008   8.717 -0.2135 -0.4006  0.0873
  952TIP3    H124491   6.713   2.953   8.643 -1.0569  0.4811 -0.8642
  952TIP3    H224492   6.594   3.005   8.719 -0.2149 -0.0725  0.8892
  953TIP3   OH224493   6.775   6.034   6.846 -0.1915  0.0060  0.6521
  953TIP3    H124494   6.754   6.089   6.921 -0.6121 -3.0025  2.9204
  953TIP3    H224495   6.728   6.074   6.773 -0.6375  2.4660  2.1606
  954TIP3   OH224496   2.203   4.163   2.087 -0.3764  0.1871  0.1752
  954TIP3    H124497   2.221   4.107   2.163 -3.1854  0.0369  0.8257
  954TIP3    H224498   2.112   4.189   2.098 -0.1867  2.0258 -2.0023
  955TIP3   OH224499   1.760   3.227   0.241  0.1172  0.7047  0.3606
  955TIP3    H124500   1.811   3.185   0.172  0.5285 -0.2475  1.2208
  955TIP3    H224501   1.813   3.302   0.267 -0.4285  1.5692 -0.8994
  956TIP3   OH224502   1.164   4.661   0.958 -0.2198  0.0586  0.2175
  956TIP3    H124503   1.207   4.739   0.925  0.3390 -0.2282  0.2533
  956TIP3    H224504   1.231   4.592   0.952 -0.3381 -0.1683  1.2218
  957TIP3   OH224505   5.713   5.920   0.009  0.3522 -0.3414  0.3259
  957TIP3    H124506   5.668   5.979  -0.051  0.1745 -1.2827 -0.4956
  957TIP3    H224507   5.785   5.972   0.045 -0.1864  0.5605  0.1224
  958TIP3   OH224508   2.334   6.714   0.919  0.1757  0.6196  0.1544
  958TIP3    H124509   2.252   6.757   0.897  0.0172 -0.0774 -0.6832
  958TIP3    H224510   2.348   6.651   0.848  1.5954  0.9417  0.1147
  959TIP3   OH224511   0.313   5.605   8.537 -0.3453  0.2042 -0.1254
  959TIP3    H124512   0.269   5.639   8.615  1.7604  0.1311  1.1874
  959TIP3    H224513   0.248   5.611   8.468 -2.0955  0.8836  1.4887
  960TIP3   OH224514   2.292   2.648   7.193 -0.2854 -0.3242  0.6649
  960TIP3    H124515   2.199   2.625   7.194 -0.6294  0.9387  0.0020
  960TIP3    H224516   2.313   2.661   7.100  0.5796 -0.6628  0.7981
  961TIP3   OH224517   3.824   3.593   0.063 -0.1038  0.1240 -0.1605
  961TIP3    H124518   3.890   3.653   0.098 -1.4416  1.4025  0.3000
  961TIP3    H224519   3.802   3.629  -0.023  0.2975 -0.7102 -0.6257
  962TIP3   OH224520   3.950   1.535   7.196  0.1549 -0.2966 -0.5968
  962TIP3    H124521   4.008   1.511   7.124  0.9489 -1.2256  0.3180
  962TIP3    H224522   3.895   1.605   7.161 -0.3933 -1.6234 -2.5270
  963TIP3   OH224523   0.283   1.432   1.791  0.4741  0.1666 -0.1355
  963TIP3    H124524   0.303   1.339   1.800  2.0074  0.4391 -0.5389
  963TIP3    H224525   0.355   1.468   1.740 -0.5907  1.4081 -0.8429
  964TIP3   OH224526   1.826   6.300   0.303 -0.2462 -0.5902  0.1519
  964TIP3    H124527   1.766   6.358   0.350  0.7195  0.3231  0.3020
  964TIP3    H224528   1.778   6.218   0.293 -0.9359 -0.4038  1.6565
  965TIP3   OH224529   1.806   3.158   8.886  0.5670  0.4372  0.4387
  965TIP3    H124530   1.806   3.253   8.874 -1.5712  0.5765  1.1523
  965TIP3    H224531   1.889   3.140   8.931  1.1236  1.9168  0.0772
  966TIP3   OH224532   5.988   0.362   2.403 -0.1969  0.2432 -0.3147
  966TIP3    H124533   5.991   0.440   2.346 -1.0823  0.5060 -0.0200
  966TIP3    H224534   5.909   0.374   2.455 -0.8284 -1.2750 -0.8658
  967TIP3   OH224535   6.524   3.315   1.266 -0.4167 -0.3960 -0.3789
  967TIP3    H124536   6.480   3.234   1.239 -0.6141 -0.2308 -0.5584
  967TIP3    H224537   6.456   3.364   1.312 -0.3859 -0.1977 -0.5419
  968TIP3   OH224538   4.337   6.586   0.769 -0.2565  0.0552 -0.3736
  968TIP3    H124539   4.376   6.647   0.707 -0.4730  1.0726  0.4747
  968TIP3    H224540   4.336   6.502   0.722 -0.4071  0.7906 -1.7358
  969TIP3   OH224541   3.489   2.719   1.180 -0.0202 -0.5488 -0.0658
  969TIP3    H124542   3.549   2.725   1.254 -2.3051  0.6169  1.8156
  969TIP3    H224543   3.438   2.800   1.184  2.1763  1.5337 -5.2298
  970TIP3   OH224544   5.691   0.104   8.032  0.1892 -0.0061  0.0151
  970TIP3    H124545   5.734   0.161   7.968  0.6440  0.8235  1.0445
  970TIP3    H224546   5.606   0.145   8.048 -0.2576 -0.6415 -0.6175
  971TIP3   OH224547   3.602   1.135   7.050  0.6013 -0.0968  0.1808
  971TIP3    H124548   3.532   1.180   7.097  0.4654  0.4894 -0.5679
  971TIP3    H224549   3.600   1.173   6.962  0.1294 -1.9318 -0.6411
  972TIP3   OH224550   5.157   1.104   7.923  0.1423 -0.0219 -0.6786
  972TIP3    H124551   5.082   1.155   7.892 -0.3302 -0.7296 -0.7391
  972TIP3    H224552   5.122   1.015   7.932  0.5211 -0.0373  0.9308
  973TIP3   OH224553   2.706   5.961   7.686  0.3723  0.1242  0.1965
  973TIP3    H124554   2.686   5.976   7.778 -1.1780 -0.3678 -0.0319
  973TIP3    H224555   2.699   5.866   7.675  1.1322  0.1192 -0.3079
  974TIP3   OH224556   5.332   0.836   0.279  0.3771 -0.0364 -0.6333
  974TIP3    H124557   5.286   0.919   0.295 -0.2899 -0.9344  2.8330
  974TIP3    H224558   5.418   0.863   0.247 -0.3946  1.9118 -1.2485
  975TIP3   OH224559   2.429   4.764   8.357 -0.0130 -0.7242  0.2122
  975TIP3    H124560   2.518   4.766   8.320 -0.2263  3.0053 -0.5062
  975TIP3    H224561   2.442   4.772   8.451  0.4225  0.2910  0.0718
  976TIP3   OH224562   5.241   4.640   0.902 -0.0196  0.2890 -0.0759
  976TIP3    H124563   5.309   4.705   0.914 -0.1994  0.3988  0.3383
  976TIP3    H224564   5.239   4.590   0.984 -1.5889  1.3772  0.5912
  977TIP3   OH224565   1.159   5.794   0.793 -0.0165  0.6909  0.4192
  977TIP3    H124566   1.094   5.833   0.734 -0.4452  0.6200  0.8443
  977TIP3    H224567   1.232   5.772   0.735 -0.8879 -0.4567 -0.3201
  978TIP3   OH224568   0.807   1.036   6.626  0.4319  0.5704 -0.0738
  978TIP3    H124569   0.714   1.038   6.646  0.4767 -1.3908  0.6461
  978TIP3    H224570   0.812   1.052   6.532 -0.3948  3.0091  0.2368
  979TIP3   OH224571   1.241   4.398   0.848  0.2324  0.5054 -0.1328
  979TIP3    H124572   1.310   4.357   0.900 -1.8710 -1.3227  1.4411
  979TIP3    H224573   1.216   4.331   0.785 -0.3683  0.9846 -0.4110
  980TIP3   OH224574   5.934   2.304   8.242 -0.2696 -0.1430 -0.6242
  980TIP3    H124575   6.018   2.335   8.208 -1.3849  1.9292 -1.6714
  980TIP3    H224576   5.874   2.309   8.168 -1.2657 -2.0006 -0.0085
  981TIP3   OH224577   4.902   2.584   1.207 -0.2493  0.0944 -0.1521
  981TIP3    H124578   4.992   2.579   1.239  0.4260 -2.4504 -2.1218
  981TIP3    H224579   4.855   2.633   1.275  2.4865  1.1329  1.1419
  982TIP3   OH224580   1.322   3.623   1.983  0.2075  0.6660  0.1455
  982TIP3    H124581   1.324   3.714   2.013  0.2833  0.4916  0.6957
  982TIP3    H224582   1.294   3.573   2.061 -2.7057  0.5184 -0.8654
  983TIP3   OH224583   6.180   5.707   7.440 -0.2563  0.0978 -0.0835
  983TIP3    H124584   6.133   5.646   7.497 -0.5229  0.4008  0.0225
  983TIP3    H224585   6.236   5.757   7.499 -0.5684  0.4452 -0.0810
  984TIP3   OH224586   4.340   0.958   1.300  0.2780  0.1084  0.1929
  984TIP3    H124587   4.246   0.945   1.282 -0.0480 -1.0933  2.4383
  984TIP3    H224588   4.345   1.046   1.337  0.2176  0.5946 -0.9186
  985TIP3   OH224589   0.434   0.718   6.389 -0.0401 -0.1265 -0.2598
  985TIP3    H124590   0.393   0.651   6.334  1.3847 -1.2648  0.0046
  985TIP3    H224591   0.373   0.729   6.461 -0.8757 -0.2463 -0.9284
  986TIP3   OH224592   6.136   3.498   1.110 -0.2661  0.1353  0.3080
  986TIP3    H124593   6.174   3.585   1.125  0.7013 -0.5717  2.2797
  986TIP3    H224594   6.167   3.473   1.023 -2.6170  2.7206 -1.4822
  987TIP3   OH224595   6.588   0.134   2.089 -0.1507  0.1390  0.0612
  987TIP3    H124596   6.549   0.080   2.157 -0.9303 -1.3571 -1.5105
  987TIP3    H224597   6.532   0.211   2.084 -1.6607 -0.9678 -0.6620
  988TIP3   OH224598   2.143   2.856   8.870  0.0522  0.1209 -0.1637
  988TIP3    H124599   2.107   2.940   8.841  0.0845 -0.2545 -1.3654
  988TIP3    H224600   2.101   2.792   8.812  1.3784 -0.5005 -0.4613
  989TIP3   OH224601   1.048   4.272   2.023  0.0965 -0.6194 -0.0158
  989TIP3    H124602   1.010   4.230   2.100 -0.2693 -0.9572 -0.3786
  989TIP3    H224603   0.973   4.307   1.975  0.4322  1.2951  0.7390
  990TIP3   OH224604   5.527   5.242   7.267 -0.0261  0.8344  0.0595
  990TIP3    H124605   5.461   5.297   7.226  0.8703  3.2727  1.6231
  990TIP3    H224606   5.505   5.244   7.360  1.7823  1.1385  0.5212
  991TIP3   OH224607   1.514   2.286   1.088 -0.3257 -0.8120  0.5935
  991TIP3    H124608   1.431   2.248   1.058 -0.0369 -0.6527 -0.4731
  991TIP3    H224609   1.490   2.374   1.116 -0.4964 -0.6922  0.0950
  992TIP3   OH224610   1.597   1.101   0.267 -0.1022  0.2705 -0.1068
  992TIP3    H124611   1.682   1.063   0.286 -0.5393 -0.6671  0.0463
  992TIP3    H224612   1.598   1.118   0.173 -1.1614 -3.5538 -0.9791
  993TIP3   OH224613   2.409   1.579   0.568  0.4107 -0.2034  0.4726
  993TIP3    H124614   2.414   1.490   0.535 -2.3871 -0.7436  1.2177
  993TIP3    H224615   2.407   1.570   0.663 -0.6617  0.5450  0.5459
  994TIP3   OH224616   0.282   2.652   1.336  0.3289  0.3578 -0.0658
  994TIP3    H124617   0.357   2.678   1.283  0.7485  1.5063  1.0526
  994TIP3    H224618   0.211   2.711   1.308  0.4792  0.7916  0.4574
  995TIP3   OH224619   0.110   4.425   2.592  0.2677 -0.4997  0.2664
  995TIP3    H124620   0.183   4.447   2.651 -0.5942 -0.0640  1.1976
  995TIP3    H224621   0.047   4.496   2.605 -0.3739 -0.9284 -0.4453
  996TIP3   OH224622   0.579   4.175   1.114 -0.4229  0.3834 -0.5083
  996TIP3    H124623   0.603   4.259   1.075  0.1638  0.7239  0.5329
  996TIP3    H224624   0.484   4.180   1.125 -0.3578  1.0274 -0.2051
  997TIP3   OH224625   5.107   6.643   0.915 -0.5358 -0.1426  0.3266
  997TIP3    H124626   5.024   6.647   0.962 -0.0159  1.3753  1.1673
  997TIP3    H224627   5.090   6.687   0.832 -0.8582 -0.8389  0.0162
  998TIP3   OH224628   4.751   3.307   0.590 -0.7053 -0.2320 -0.6254
  998TIP3    H124629   4.731   3.230   0.643  2.0950  0.0450  0.9922
  998TIP3    H224630   4.764   3.273   0.502  0.3931 -1.6314  0.0428
  999TIP3   OH224631   4.908   0.572   8.597  0.7044  0.2569  0.2586
  999TIP3    H124632   4.842   0.538   8.536 -0.2027  1.6238  0.4481
  999TIP3    H224633   4.939   0.653   8.556 -1.4360  2.3797  2.4754
 1000TIP3   OH224634   1.636   1.507   0.069  0.5499 -0.2559  0.6880
 1000TIP3    H124635   1.613   1.461   0.149  0.0875  0.3870  0.9306
 1000TIP3    H224636   1.605   1.597   0.082 -1.2428 -0.5713 -0.9319
 1001TIP3   OH224637   1.153   5.562   1.629 -0.6860  0.3104  0.3723
 1001TIP3    H124638   1.222   5.552   1.563  0.7490  0.3945  1.8084
 1001TIP3    H224639   1.096   5.631   1.594 -0.0282  0.2736 -0.8279
 1002TIP3   OH224640   0.791   6.507   8.539  0.0680 -0.2341 -0.0389
 1002TIP3    H124641   0.839   6.467   8.466  1.0087  2.4266 -1.0036
 1002TIP3    H224642   0.859   6.533   8.601 -0.5615 -0.5542  0.8052
 1003TIP3   OH224643   3.566   0.487   1.095  0.3357  0.3311 -0.7586
 1003TIP3    H124644   3.511   0.433   1.039  0.1067  0.7966 -0.9871
 1003TIP3    H224645   3.605   0.425   1.157  0.4325 -0.1598 -1.2987
 1004TIP3   OH224646   3.015   4.447   7.275  0.3914 -0.0633 -0.8818
 1004TIP3    H124647   3.055   4.412   7.195  0.7533 -0.3196 -0.5913
 1004TIP3    H224648   3.090   4.465   7.333  0.3021  1.9120 -1.2953
 1005TIP3   OH224649   1.232   0.943   8.810  0.2148 -0.0050  0.5403
 1005TIP3    H124650   1.252   1.012   8.873 -1.9577  2.1409 -0.9373
 1005TIP3    H224651   1.170   0.886   8.856  2.2478 -1.2641  1.8747
 1006TIP3   OH224652   1.196   3.811   2.225 -0.5755  0.0277 -0.2284
 1006TIP3    H124653   1.193   3.716   2.235 -0.3155 -0.0590 -0.9204
 1006TIP3    H224654   1.144   3.828   2.146  0.1960  0.3697 -0.6683
 1007TIP3   OH224655   4.643   2.037   8.490 -0.3384  0.7248  0.0625
 1007TIP3    H124656   4.588   2.021   8.567 -0.6158  2.2729  0.2324
 1007TIP3    H224657   4.586   2.087   8.431 -1.0112 -2.4988 -2.3336
 1008TIP3   OH224658   0.525   4.269   0.526  0.3674  0.0374  0.1684
 1008TIP3    H124659   0.527   4.347   0.580  2.1385  1.2882 -1.5429
 1008TIP3    H224660   0.566   4.201   0.580  1.8771  1.1892  0.5496
 1009TIP3   OH224661   2.659   4.410   1.281 -0.3203 -0.4608  0.3007
 1009TIP3    H124662   2.749   4.441   1.273 -0.2845 -0.7035 -0.3416
 1009TIP3    H224663   2.607   4.489   1.297  0.1433 -0.4583  1.9258
 1010TIP3   OH224664   6.351   5.928   7.150  0.1108  0.2797 -0.0402
 1010TIP3    H124665   6.391   6.009   7.183 -0.1156  1.2696 -2.0793
 1010TIP3    H224666   6.285   5.957   7.087 -0.1516 -1.5065 -0.6510
 1011TIP3   OH224667   3.706   1.698   8.061  0.1986  0.0082  0.8103
 1011TIP3    H124668   3.698   1.741   8.146 -0.0189 -0.9068  1.2577
 1011TIP3    H224669   3.776   1.633   8.073  1.2950  0.9471 -0.1700
 1012TIP3   OH224670   6.595   6.473   2.133 -0.1242  0.5024  0.2186
 1012TIP3    H124671   6.583   6.503   2.223 -1.8512  1.1171 -0.1823
 1012TIP3    H224672   6.549   6.537   2.079  2.8994  1.5232 -1.3864
 1013TIP3   OH224673   1.305   0.854   1.793  0.0155 -0.5850  0.2340
 1013TIP3    H124674   1.355   0.881   1.870  0.7507  0.1722 -0.4846
 1013TIP3    H224675   1.214   0.864   1.819  0.2566  1.1429  0.5201
 1014TIP3   OH224676   0.229   4.928   6.520  0.2805  0.0739  0.3438
 1014TIP3    H124677   0.320   4.954   6.506  0.4333 -0.8787 -0.5878
 1014TIP3    H224678   0.179   4.989   6.466  0.5173 -0.5196 -0.5729
 1015TIP3   OH224679   2.885   0.154   1.430  0.0567 -0.0724  0.6325
 1015TIP3    H124680   2.955   0.108   1.382  1.1005  1.3977  0.6637
 1015TIP3    H224681   2.924   0.173   1.515 -0.4278  0.6502  0.6991
 1016TIP3   OH224682   1.873   1.047   0.225  0.3945 -0.1682  0.6770
 1016TIP3    H124683   1.898   1.136   0.250 -1.1078  0.6033 -0.4008
 1016TIP3    H224684   1.935   1.023   0.157 -0.4156  0.8789 -0.4626
 1017TIP3   OH224685   6.600   4.533   8.930 -1.1129 -0.9431  0.1553
 1017TIP3    H124686   6.673   4.589   8.955 -0.7413 -1.2681 -0.1783
 1017TIP3    H224687   6.557   4.509   9.012 -0.5318 -1.1693  0.3915
 1018TIP3   OH224688   0.448   5.224   2.544 -0.1232 -0.2006  1.0141
 1018TIP3    H124689   0.531   5.270   2.559  0.4821 -0.2052 -1.8645
 1018TIP3    H224690   0.471   5.152   2.487 -2.3458  0.8817 -1.4409
 1019TIP3   OH224691   4.015   5.302   8.047  0.2857  0.2689  0.3068
 1019TIP3    H124692   3.933   5.260   8.074  0.0517  0.2541 -0.4047
 1019TIP3    H224693   3.991   5.394   8.034  0.0583  0.0219 -1.1851
 1020TIP3   OH224694   0.896   1.591   0.919  0.1957 -0.4822 -0.1478
 1020TIP3    H124695   0.812   1.627   0.945 -0.1214 -1.0665 -0.3406
 1020TIP3    H224696   0.879   1.497   0.907  0.9522 -0.6668  0.1639
 1021TIP3   OH224697   0.829   1.505   8.837  0.3018  0.6003  0.3977
 1021TIP3    H124698   0.911   1.483   8.881 -0.1611 -0.5532  0.7205
 1021TIP3    H224699   0.847   1.491   8.744 -0.0091 -1.4005  0.5951
 1022TIP3   OH224700   0.503   6.552   1.319  0.3543  0.1793 -0.2527
 1022TIP3    H124701   0.510   6.547   1.414 -0.1156 -1.1451 -0.2569
 1022TIP3    H224702   0.502   6.461   1.290 -0.9445  0.5044 -1.3980
 1023TIP3   OH224703   0.019   0.086   7.559  0.4317 -0.1755  0.0982
 1023TIP3    H124704   0.076   0.162   7.550  1.5722 -1.1260 -1.2497
 1023TIP3    H224705   0.077   0.011   7.544 -1.4749 -1.1344 -3.8566
 1024TIP3   OH224706   1.155   3.328   0.965  0.4296 -1.2802 -0.5899
 1024TIP3    H124707   1.173   3.418   0.938  1.8523 -2.2633 -3.1962
 1024TIP3    H224708   1.221   3.310   1.032  0.2100 -0.4908 -0.1328
 1025TIP3   OH224709   3.025   3.319   0.780 -0.3441  0.0824 -0.3149
 1025TIP3    H124710   2.983   3.244   0.739 -0.2495  0.6917 -1.5523
 1025TIP3    H224711   3.005   3.310   0.873  2.6320 -3.4775  0.2190
 1026TIP3   OH224712   4.639   4.218   1.081 -0.3649  0.0253  0.8172
 1026TIP3    H124713   4.732   4.208   1.061 -0.1065  0.8264  1.5345
 1026TIP3    H224714   4.605   4.129   1.085  0.1225 -0.2414 -0.5481
 1027TIP3   OH224715   5.516   3.757   0.637 -0.1073  0.6892  0.2042
 1027TIP3    H124716   5.571   3.687   0.602 -1.3062 -0.5039  0.6208
 1027TIP3    H224717   5.497   3.813   0.562  0.7697  0.5196 -0.1578
 1028TIP3   OH224718   5.594   4.057   1.033  0.4678  0.3628 -0.5467
 1028TIP3    H124719   5.594   4.036   0.940 -0.6980  1.3142 -0.7822
 1028TIP3    H224720   5.582   3.973   1.077 -4.2657  0.2750 -1.4539
 1029TIP3   OH224721   1.475   3.296   1.401  0.2493  0.2356  0.3581
 1029TIP3    H124722   1.568   3.315   1.412  0.7256 -1.5991 -0.1587
 1029TIP3    H224723   1.467   3.260   1.313 -1.1286  1.2937  0.0126
 1030TIP3   OH224724   1.625   4.730   8.725 -0.3641  0.1098 -0.5229
 1030TIP3    H124725   1.646   4.734   8.632 -0.3239 -0.9636 -0.5680
 1030TIP3    H224726   1.700   4.772   8.768  0.1771 -0.4420 -0.9102
 1031TIP3   OH224727   2.841   1.048   8.586  0.2471  0.2716  0.1206
 1031TIP3    H124728   2.924   1.070   8.544 -0.3942  0.5550 -1.0660
 1031TIP3    H224729   2.775   1.060   8.516 -0.7255 -0.4286  0.8824
 1032TIP3   OH224730   1.403   2.871   0.740  0.3467 -0.2521 -0.1990
 1032TIP3    H124731   1.429   2.913   0.658 -0.0812  0.6757  0.1225
 1032TIP3    H224732   1.310   2.894   0.750  0.1756 -1.0544  0.1304
 1033TIP3   OH224733   2.817   2.291   2.681  0.0438 -0.1270  0.2449
 1033TIP3    H124734   2.751   2.303   2.613 -1.2091 -1.3034  1.2053
 1033TIP3    H224735   2.900   2.312   2.638 -0.9209  1.1661 -1.0454
 1034TIP3   OH224736   2.425   1.633   7.014 -0.3059  0.0830  0.0940
 1034TIP3    H124737   2.452   1.717   6.977 -0.1246 -0.1393 -0.2842
 1034TIP3    H224738   2.433   1.571   6.942  1.1385 -0.5807  0.7833
 1035TIP3   OH224739   4.480   3.191   7.439  0.4987 -0.0536 -0.4754
 1035TIP3    H124740   4.405   3.131   7.436  0.5277 -0.2362  1.3181
 1035TIP3    H224741   4.476   3.238   7.356 -1.9097  0.2989 -0.2325
 1036TIP3   OH224742   2.982   5.949   1.671  0.6340 -0.2088 -0.2421
 1036TIP3    H124743   2.937   6.007   1.610  1.2052 -0.2129 -0.6729
 1036TIP3    H224744   2.988   5.865   1.624  0.7731 -0.3097 -0.0473
 1037TIP3   OH224745   2.202   6.185   8.813 -0.4364 -0.0226  0.4105
 1037TIP3    H124746   2.211   6.264   8.761 -0.5716  0.0506  0.4988
 1037TIP3    H224747   2.110   6.160   8.804 -0.4681  0.0082  0.6401
 1038TIP3   OH224748   3.178   0.518   2.002 -0.5151 -0.2236  0.2858
 1038TIP3    H124749   3.222   0.576   2.065  1.1530 -1.7707  0.6328
 1038TIP3    H224750   3.187   0.431   2.041 -0.8120 -1.0218 -1.3734
 1039TIP3   OH224751   2.646   0.154   0.429  0.1842  0.1753 -0.4677
 1039TIP3    H124752   2.663   0.072   0.384  0.9995  0.8309 -1.3971
 1039TIP3    H224753   2.551   0.161   0.433  0.1122 -0.5442 -0.8805
 1040TIP3   OH224754   0.341   2.288   1.724 -0.1198  0.7343 -0.8326
 1040TIP3    H124755   0.248   2.271   1.711  0.2760  0.2171 -3.4732
 1040TIP3    H224756   0.348   2.384   1.722 -0.7047  0.8510  0.7941
 1041TIP3   OH224757   3.129   0.480   8.146 -0.0084 -0.3332  0.4775
 1041TIP3    H124758   3.172   0.463   8.062 -1.9548 -0.3897 -0.5763
 1041TIP3    H224759   3.142   0.400   8.196 -0.2807 -0.9699 -0.4476
 1042TIP3   OH224760   0.683   4.304   0.293  0.0806 -0.7865  0.1165
 1042TIP3    H124761   0.610   4.273   0.346 -0.1659  0.3455  0.4766
 1042TIP3    H224762   0.760   4.291   0.349 -0.3268  1.6576  1.4012
 1043TIP3   OH224763   0.517   3.664   0.373 -0.2181 -0.1271 -0.4314
 1043TIP3    H124764   0.469   3.585   0.348  0.3002 -1.1434  1.5705
 1043TIP3    H224765   0.604   3.632   0.397  0.4373  1.2563 -0.8610
 1044TIP3   OH224766   3.710   6.225   7.852  0.1355 -0.1050 -0.3850
 1044TIP3    H124767   3.627   6.266   7.875  0.7495 -0.0825  2.1254
 1044TIP3    H224768   3.771   6.299   7.844 -0.1267 -0.0778 -2.7186
 1045TIP3   OH224769   0.507   4.734   0.605  0.2132 -0.3293 -0.3636
 1045TIP3    H124770   0.448   4.781   0.546 -0.1748 -0.8151 -0.3713
 1045TIP3    H224771   0.595   4.753   0.572  0.1554  1.3687  0.3484
 1046TIP3   OH224772   4.717   0.705   0.304  0.3454  0.7054 -0.1812
 1046TIP3    H124773   4.801   0.661   0.303  0.2808  0.3527  2.9082
 1046TIP3    H224774   4.733   0.790   0.346 -0.7831  0.7136  0.2874
 1047TIP3   OH224775   3.708   4.900   7.965  0.2069 -0.4962  0.5845
 1047TIP3    H124776   3.630   4.852   7.993  0.8866 -1.1146  1.4865
 1047TIP3    H224777   3.748   4.844   7.898 -1.4201  0.9830 -1.7854
 1048TIP3   OH224778   1.736   0.938   8.696 -0.3822 -0.1079 -0.2206
 1048TIP3    H124779   1.665   1.001   8.679  0.3211  0.4700 -1.1435
 1048TIP3    H224780   1.736   0.928   8.791 -0.6247  1.1814 -0.0556
 1049TIP3   OH224781   4.884   6.072   8.496  0.2542 -0.3018  0.3220
 1049TIP3    H124782   4.899   6.010   8.567 -0.9157 -0.9117  0.0760
 1049TIP3    H224783   4.954   6.137   8.504 -0.9212  0.7441  3.2016
 1050TIP3   OH224784   5.856   5.946   1.488 -0.0868 -0.3185  0.2827
 1050TIP3    H124785   5.933   5.995   1.516 -0.7660  1.1528 -0.3167
 1050TIP3    H224786   5.806   5.931   1.568 -0.8126  1.7082  0.2710
 1051TIP3   OH224787   0.591   5.193   0.492 -0.4769  0.2443  0.0200
 1051TIP3    H124788   0.572   5.269   0.546 -1.4079  0.6822 -0.8911
 1051TIP3    H224789   0.506   5.154   0.472 -0.1929  0.2300 -1.2989
 1052TIP3   OH224790   1.904   0.705   6.286  0.4507  0.0564 -0.6811
 1052TIP3    H124791   1.827   0.651   6.270  0.7256 -0.2597 -0.9660
 1052TIP3    H224792   1.870   0.786   6.324 -0.0379  0.0009 -0.9982
 1053TIP3   OH224793   3.495   2.329   6.981 -0.3313  0.3779  0.3058
 1053TIP3    H124794   3.491   2.374   6.897 -2.2263 -0.0178  0.1248
 1053TIP3    H224795   3.506   2.399   7.046 -1.5248  0.9858 -0.1059
 1054TIP3   OH224796   6.402   1.762   1.598  0.3491  0.3364 -0.3866
 1054TIP3    H124797   6.388   1.670   1.621 -3.9425  0.8512 -0.0268
 1054TIP3    H224798   6.449   1.798   1.673  1.2288 -1.3540 -0.0771
 1055TIP3   OH224799   3.714   4.941   8.516 -0.3495 -0.4830 -0.2375
 1055TIP3    H124800   3.771   5.014   8.541  0.0062 -1.1963  1.1169
 1055TIP3    H224801   3.749   4.912   8.431  0.8951 -0.4799  0.2493
 1056TIP3   OH224802   0.097   5.812   1.918 -0.0485  0.4645 -0.3070
 1056TIP3    H124803   0.140   5.876   1.861  1.3344 -0.5079 -0.4282
 1056TIP3    H224804   0.055   5.751   1.857  1.3124 -0.4967 -0.3190
 1057TIP3   OH224805   3.940   3.400   1.383  0.7467  1.0521  0.7052
 1057TIP3    H124806   3.871   3.375   1.445  0.3704  1.9350  0.6584
 1057TIP3    H224807   3.997   3.459   1.432  0.7454  1.3409  0.3635
 1058TIP3   OH224808   0.007   1.217   8.478  0.0769 -0.5668 -0.1901
 1058TIP3    H124809   0.040   1.189   8.564  0.6757  1.1167  0.1572
 1058TIP3    H224810  -0.070   1.270   8.498 -0.4665 -1.1125 -0.7823
 1059TIP3   OH224811   3.163   1.394   7.181 -0.5648  0.1868 -0.0672
 1059TIP3    H124812   3.104   1.408   7.255 -1.7386  1.4106 -1.1786
 1059TIP3    H224813   3.110   1.345   7.118  0.6310 -1.4247  0.1331
 1060TIP3   OH224814   4.437   3.833   1.290 -0.0690  0.1155  0.5450
 1060TIP3    H124815   4.430   3.865   1.380 -0.6793  0.0327  0.5314
 1060TIP3    H224816   4.524   3.862   1.262  0.1039  0.1965  1.1363
 1061TIP3   OH224817   3.436   4.571   8.368 -0.2653  0.2631  0.5769
 1061TIP3    H124818   3.501   4.565   8.298  0.0798 -1.1459  0.9849
 1061TIP3    H224819   3.357   4.604   8.325  1.1581  3.8501  0.4078
 1062TIP3   OH224820   4.189   2.530   0.184  0.2302 -0.6039 -0.1555
 1062TIP3    H124821   4.164   2.438   0.180  0.5761 -0.6696 -1.7312
 1062TIP3    H224822   4.127   2.574   0.125  2.3701 -0.4481 -2.4715
 1063TIP3   OH224823   5.369   4.979   7.419 -0.1289  0.4856 -0.0010
 1063TIP3    H124824   5.301   5.040   7.447  0.8032  1.7219 -0.3629
 1063TIP3    H224825   5.379   4.995   7.325  0.4349  0.0805 -0.0165
 1064TIP3   OH224826   6.332   6.607   8.088  0.8675  0.3259  0.4656
 1064TIP3    H124827   6.387   6.676   8.051 -2.0260  2.9431  0.6288
 1064TIP3    H224828   6.277   6.579   8.014 -0.2786  0.6811  1.1579
 1065TIP3   OH224829   4.895   0.687   8.124 -0.4121 -0.0963 -0.1166
 1065TIP3    H124830   4.832   0.734   8.070  0.1089  1.3547  0.5053
 1065TIP3    H224831   4.978   0.733   8.109  0.5359 -1.9395 -0.8940
 1066TIP3   OH224832   5.032   4.370   0.977 -0.1071 -1.0782  0.3736
 1066TIP3    H124833   4.978   4.440   0.941 -0.7013 -1.2459  0.9280
 1066TIP3    H224834   4.971   4.298   0.994  0.3931 -1.5035  0.3932
 1067TIP3   OH224835   1.298   1.739   8.340  0.2621 -0.2591  0.1517
 1067TIP3    H124836   1.238   1.811   8.321 -0.6185 -0.3915  2.1937
 1067TIP3    H224837   1.385   1.775   8.321 -0.2870  0.7042 -0.6471
 1068TIP3   OH224838   1.820   4.864   6.984 -0.3493 -0.3883  0.5984
 1068TIP3    H124839   1.797   4.773   7.002 -0.2309 -0.7780 -1.0030
 1068TIP3    H224840   1.759   4.915   7.037 -0.8092 -1.3951  1.0770
 1069TIP3   OH224841   4.266   6.087   7.401 -0.0965 -0.2215  0.5052
 1069TIP3    H124842   4.328   6.023   7.365 -1.3270 -1.8713  1.1975
 1069TIP3    H224843   4.281   6.166   7.349  2.1721 -0.7249  0.2840
 1070TIP3   OH224844   4.903   0.143   8.841  0.0471 -0.2541  0.0059
 1070TIP3    H124845   4.998   0.158   8.838  0.2962 -0.9532  2.5365
 1070TIP3    H224846   4.866   0.229   8.862  0.1688 -0.1343 -0.2624
 1071TIP3   OH224847   3.621   2.788   8.120  0.1566 -0.3011  0.0946
 1071TIP3    H124848   3.564   2.855   8.084  0.2345 -0.1261  0.2978
 1071TIP3    H224849   3.692   2.779   8.057 -0.2092 -0.6778 -0.2687
 1072TIP3   OH224850   5.774   2.688   0.907 -1.0247  0.3288  0.4742
 1072TIP3    H124851   5.859   2.697   0.862 -0.7700 -0.1040  0.8617
 1072TIP3    H224852   5.713   2.738   0.852 -0.6261  0.2078 -0.0937
 1073TIP3   OH224853   1.434   6.616   1.863 -0.6429  0.0033  0.0247
 1073TIP3    H124854   1.380   6.548   1.903  0.6802 -0.1208  1.7239
 1073TIP3    H224855   1.399   6.626   1.774 -1.9162 -1.7066  0.2886
 1074TIP3   OH224856   3.435   5.037   6.392  0.1495  0.2670 -0.1382
 1074TIP3    H124857   3.508   5.075   6.441  0.8585 -0.7132 -0.3999
 1074TIP3    H224858   3.446   4.942   6.403 -2.2804  0.1022  1.5536
 1075TIP3   OH224859   5.456   0.410   6.432  0.0051 -0.5524 -0.0498
 1075TIP3    H124860   5.530   0.470   6.427 -1.5625  1.4708 -0.5068
 1075TIP3    H224861   5.380   0.464   6.411 -1.3364 -3.1702 -2.5969
 1076TIP3   OH224862   6.180   2.991   0.013  0.3322 -0.0173  0.3607
 1076TIP3    H124863   6.185   3.010  -0.081  1.4613  0.4510  0.5017
 1076TIP3    H224864   6.158   3.075   0.053 -2.0913 -0.5925  0.3892
 1077TIP3   OH224865   2.755   1.466   8.009 -0.3772 -0.1105 -0.7239
 1077TIP3    H124866   2.707   1.481   8.091  1.4776  0.6772  0.2843
 1077TIP3    H224867   2.725   1.535   7.950  0.4006  1.2155  0.3481
 1078TIP3   OH224868   3.916   5.024   2.162  0.0633 -0.0588  0.4202
 1078TIP3    H124869   3.934   4.962   2.233 -0.0748  0.2108  0.6921
 1078TIP3    H224870   3.959   5.105   2.189  0.2368 -0.0327  0.0686
 1079TIP3   OH224871   2.445   3.263   6.222  0.9010  1.1116  0.3478
 1079TIP3    H124872   2.513   3.246   6.158  0.6300  0.7338  0.1560
 1079TIP3    H224873   2.391   3.184   6.222  0.6565  1.2722  0.7386
 1080TIP3   OH224874   3.650   3.128   8.235 -0.2650  0.0652  0.5044
 1080TIP3    H124875   3.676   3.184   8.308 -0.7020 -0.2235  0.8942
 1080TIP3    H224876   3.732   3.099   8.195 -0.0213  0.2335  0.8826
 1081TIP3   OH224877   2.801   0.944   1.126  0.6139 -0.0364 -0.7391
 1081TIP3    H124878   2.894   0.920   1.130  0.5279 -0.1960  1.2499
 1081TIP3    H224879   2.782   0.979   1.212 -1.6965 -1.8982 -0.3963
 1082TIP3   OH224880   6.068   5.289   1.764  0.3239  0.5801 -0.3528
 1082TIP3    H124881   6.063   5.253   1.676 -0.6744  0.7367 -0.3673
 1082TIP3    H224882   6.003   5.359   1.765 -0.1990  0.1002  0.7326
 1083TIP3   OH224883   6.388   1.873   1.290 -0.2614  0.5225 -0.5277
 1083TIP3    H124884   6.409   1.862   1.383 -0.1058  1.1083 -0.4901
 1083TIP3    H224885   6.473   1.893   1.250 -0.3228  0.2287 -0.8034
 1084TIP3   OH224886   5.867   0.771   7.111 -0.1147  0.2876  0.0244
 1084TIP3    H124887   5.829   0.688   7.137  0.1891  0.6311  1.6574
 1084TIP3    H224888   5.961   0.753   7.101 -0.3449 -0.0766 -1.9639
 1085TIP3   OH224889   0.583   4.878   8.421  0.6269 -1.0738  0.0534
 1085TIP3    H124890   0.672   4.862   8.391  0.2116 -1.4214 -1.0898
 1085TIP3    H224891   0.578   4.973   8.435  0.7381 -0.8086 -1.4897
 1086TIP3   OH224892   5.158   5.660   0.530 -0.4254  0.1530  0.0001
 1086TIP3    H124893   5.134   5.655   0.437  0.1810  0.0829 -0.1546
 1086TIP3    H224894   5.117   5.741   0.560  0.1289  0.6546 -0.5595
 1087TIP3   OH224895   1.601   0.470   0.620  0.3050 -0.4765  0.8534
 1087TIP3    H124896   1.596   0.513   0.706 -0.2152  1.2071  0.0044
 1087TIP3    H224897   1.546   0.523   0.563 -1.5784 -3.1044  0.0387
 1088TIP3   OH224898   1.974   0.353   7.021  0.4034  0.2127  0.6740
 1088TIP3    H124899   2.037   0.422   7.043  0.4894 -0.3146  2.1947
 1088TIP3    H224900   1.937   0.380   6.937  1.6137  1.2682  0.4524
 1089TIP3   OH224901   1.751   5.193   0.512  0.2457 -0.0319  0.7573
 1089TIP3    H124902   1.796   5.157   0.589  0.2112 -1.4137  0.1524
 1089TIP3    H224903   1.692   5.124   0.484  0.0662  0.5565 -0.3732
 1090TIP3   OH224904   1.095   6.704   7.214  0.8412 -0.4248 -0.1723
 1090TIP3    H124905   1.034   6.713   7.288  0.6235  0.7620 -0.4838
 1090TIP3    H224906   1.064   6.767   7.150  1.8841 -0.4388 -0.7067
 1091TIP3   OH224907   0.714   6.451   2.309 -0.0597 -0.2526  0.0447
 1091TIP3    H124908   0.623   6.472   2.330 -0.2822 -0.5890 -0.5664
 1091TIP3    H224909   0.754   6.535   2.288 -0.1895 -0.0853  0.4598
 1092TIP3   OH224910   1.109   5.411   0.746 -0.2936 -0.0216 -0.3744
 1092TIP3    H124911   1.140   5.321   0.759 -0.0168  0.2303  0.7994
 1092TIP3    H224912   1.177   5.466   0.785 -1.9925  0.5718  1.9851
 1093TIP3   OH224913   1.924   2.752   8.439 -0.7516  0.1486 -0.0798
 1093TIP3    H124914   1.829   2.764   8.447 -1.3399 -0.9515 -3.4294
 1093TIP3    H224915   1.948   2.806   8.363  1.0656 -0.5023 -0.0137
 1094TIP3   OH224916   6.744   4.080   7.746 -0.0297  0.1020 -0.4460
 1094TIP3    H124917   6.839   4.091   7.749  0.1733 -1.3761  2.5215
 1094TIP3    H224918   6.728   4.030   7.666  1.5854  1.0653 -1.4136
 1095TIP3   OH224919   6.214   1.792   8.340 -0.4485  0.0115 -0.1778
 1095TIP3    H124920   6.190   1.853   8.270 -2.2199 -0.5121 -0.0589
 1095TIP3    H224921   6.216   1.845   8.419 -0.6055  0.1868 -0.2917
 1096TIP3   OH224922   6.465   4.066   8.852  0.0034  0.3169  0.7236
 1096TIP3    H124923   6.389   4.098   8.804 -1.0686 -0.9543  1.5009
 1096TIP3    H224924   6.540   4.084   8.795 -1.1744 -0.8759 -1.3112
 1097TIP3   OH224925   4.883   4.602   7.298  0.1929 -0.5832  0.5711
 1097TIP3    H124926   4.804   4.654   7.287  1.0935  0.8743  0.7686
 1097TIP3    H224927   4.853   4.522   7.342 -0.8145  1.1022  3.1981
 1098TIP3   OH224928   0.319   3.082   2.605  0.0705 -0.0953  0.1829
 1098TIP3    H124929   0.227   3.076   2.631 -0.4355  1.8782 -0.9179
 1098TIP3    H224930   0.343   2.993   2.581 -1.6249 -0.6225  0.3290
 1099TIP3   OH224931   0.192   4.414   8.162  0.1070  0.0442 -0.2404
 1099TIP3    H124932   0.242   4.495   8.148 -0.0703  0.4846  1.3957
 1099TIP3    H224933   0.102   4.437   8.140 -0.1248  0.6463  1.1864
 1100TIP3   OH224934   4.519   3.714   0.323 -0.6047  0.3737 -0.1403
 1100TIP3    H124935   4.610   3.726   0.296 -0.3427 -1.3791 -0.1189
 1100TIP3    H224936   4.468   3.768   0.262  0.2560 -0.6879 -1.8443
 1101TIP3   OH224937   5.431   4.057   1.403 -0.0897  0.4437 -0.2606
 1101TIP3    H124938   5.376   3.979   1.392  1.0762 -0.2252 -1.8046
 1101TIP3    H224939   5.373   4.130   1.379 -0.9799 -0.0067  0.4693
 1102TIP3   OH224940   6.591   0.672   1.719  0.2420  0.1200  0.1758
 1102TIP3    H124941   6.594   0.618   1.640  0.0028  4.3941 -3.0896
 1102TIP3    H224942   6.506   0.716   1.714  0.9737  1.8394  1.9007
 1103TIP3   OH224943   5.949   3.249   0.897  0.5408 -0.0349  0.0244
 1103TIP3    H124944   5.934   3.158   0.923 -0.2834  0.0255 -0.2070
 1103TIP3    H224945   5.985   3.291   0.976  1.4579 -0.6877 -0.0407
 1104TIP3   OH224946   1.129   5.563   1.913 -0.3066 -0.0244  0.3380
 1104TIP3    H124947   1.044   5.608   1.914 -0.0043  0.5637  0.5155
 1104TIP3    H224948   1.150   5.554   1.820 -1.4150 -1.8593  0.2281
 1105TIP3   OH224949   5.176   3.992   8.012 -0.0844 -0.4074  0.4620
 1105TIP3    H124950   5.221   3.977   8.095  0.9592 -0.6982 -0.1395
 1105TIP3    H224951   5.212   3.926   7.953 -0.4979  0.0671 -0.3334
 1106TIP3   OH224952   6.711   0.192   0.502 -0.4874  0.7182  0.4617
 1106TIP3    H124953   6.704   0.265   0.440  1.1512  0.2364 -0.3419
 1106TIP3    H224954   6.716   0.114   0.447  1.6271  0.3245  1.1314
 1107TIP3   OH224955   2.462   5.892   7.176 -0.1223 -0.5736 -0.0180
 1107TIP3    H124956   2.408   5.866   7.102 -0.8603  0.1491  0.2647
 1107TIP3    H224957   2.550   5.903   7.139 -0.5542  0.1406 -0.8631
 1108TIP3   OH224958   5.642   3.778   8.282  0.5212  0.0877  0.3594
 1108TIP3    H124959   5.577   3.798   8.350 -1.5452  0.7108 -1.6486
 1108TIP3    H224960   5.693   3.858   8.273  0.3401  0.2402  0.6786
 1109TIP3   OH224961   0.085   4.926   0.643  0.1490  0.4040 -0.2653
 1109TIP3    H124962   0.007   4.977   0.620  2.1246  3.5546 -0.5081
 1109TIP3    H224963   0.093   4.936   0.737  0.3544  0.2137 -0.2633
 1110TIP3   OH224964   6.722   3.516   7.795  0.5205  0.2194 -0.2887
 1110TIP3    H124965   6.697   3.424   7.789 -1.1371  0.4356  2.0736
 1110TIP3    H224966   6.811   3.515   7.832 -0.1613 -0.4603  1.4340
 1111TIP3   OH224967   3.696   6.256   1.328  0.0760 -0.4224  0.1451
 1111TIP3    H124968   3.703   6.269   1.423  0.1304 -0.2686  0.1202
 1111TIP3    H224969   3.783   6.279   1.295  0.2040 -0.9461  0.1123
 1112TIP3   OH224970   0.906   5.219   7.519 -0.3158  0.8904 -0.0805
 1112TIP3    H124971   0.930   5.135   7.557 -1.2460  1.0486  0.9038
 1112TIP3    H224972   0.817   5.207   7.487  0.4991  0.7108 -2.4632
 1113TIP3   OH224973   3.058   5.353   1.612  0.0416 -0.6900 -0.0790
 1113TIP3    H124974   3.040   5.261   1.632 -3.4531 -0.4763 -1.5909
 1113TIP3    H224975   2.984   5.401   1.648  0.1108  1.1220 -2.1076
 1114TIP3   OH224976   0.542   0.635   0.844  0.2952  0.4924 -0.1333
 1114TIP3    H124977   0.507   0.667   0.928 -0.1782 -2.2052  0.7943
 1114TIP3    H224978   0.508   0.546   0.836  1.9042 -0.0178 -2.2910
 1115TIP3   OH224979   1.124   2.529   1.238  0.0399  0.3505  0.5210
 1115TIP3    H124980   1.149   2.524   1.145 -2.2875 -0.8306 -0.1384
 1115TIP3    H224981   1.141   2.441   1.272 -1.3931  0.0386  0.5012
 1116TIP3   OH224982   3.857   1.548   0.463  0.3271 -0.1666 -0.7757
 1116TIP3    H124983   3.952   1.552   0.446  0.3186 -2.1577 -1.6889
 1116TIP3    H224984   3.843   1.606   0.537  2.3228 -0.0297 -0.4427
 1117TIP3   OH224985   4.422   5.542   7.175  0.3277  0.0861  0.2225
 1117TIP3    H124986   4.349   5.481   7.179 -0.1234  0.6241  0.4388
 1117TIP3    H224987   4.391   5.611   7.116  0.2826  0.7945  1.0524
 1118TIP3   OH224988   6.398   1.062   7.325  0.4584 -0.5252  0.0245
 1118TIP3    H124989   6.307   1.071   7.296  0.9277  0.5614 -1.2237
 1118TIP3    H224990   6.450   1.099   7.254  1.8814 -0.9177  0.8082
 1119TIP3   OH224991   2.982   3.611   0.895  0.3547  0.8168  0.3563
 1119TIP3    H124992   2.980   3.544   0.827  0.7903  1.6933 -0.5536
 1119TIP3    H224993   2.943   3.688   0.853 -0.0293  1.1654  1.3421
 1120TIP3   OH224994   3.514   6.610   6.527 -0.5266  0.2837 -0.9993
 1120TIP3    H124995   3.489   6.670   6.457 -1.0259 -0.3226 -1.3555
 1120TIP3    H224996   3.484   6.524   6.496  0.6084 -0.2244 -0.7197
 1121TIP3   OH224997   4.420   1.129   8.868  0.0351  0.4172  0.0481
 1121TIP3    H124998   4.344   1.077   8.897 -1.1347  2.4576  0.8772
 1121TIP3    H224999   4.421   1.204   8.927  1.1346  1.7738 -1.6055
 1122TIP3   OH225000   5.845   4.168   0.474 -0.0601  0.2568  0.1250
 1122TIP3    H125001   5.927   4.208   0.444 -0.4852  0.6833 -0.4984
 1122TIP3    H225002   5.804   4.135   0.394 -0.2961 -0.3382  0.4874
 1123TIP3   OH225003   5.007   6.048   8.052 -0.2631 -0.4593  0.5340
 1123TIP3    H125004   4.930   6.044   8.109 -0.8022 -0.3588 -0.1678
 1123TIP3    H225005   5.016   5.960   8.017 -1.6548  0.1002 -1.4044
 1124TIP3   OH225006   0.659   1.104   1.183 -0.1351 -0.4988 -0.3752
 1124TIP3    H125007   0.737   1.055   1.158  0.6838  0.9383 -0.7716
 1124TIP3    H225008   0.613   1.119   1.101  0.3592  0.5840 -0.4715
 1125TIP3   OH225009   1.897   0.311   1.085  0.4679  0.5634 -0.0733
 1125TIP3    H125010   1.903   0.361   1.167 -1.7818 -0.9501  1.1438
 1125TIP3    H225011   1.986   0.282   1.068  1.6929  3.9275 -0.2691
 1126TIP3   OH225012   1.508   1.053   7.186 -0.0691  0.3959 -0.4616
 1126TIP3    H125013   1.438   1.110   7.157  0.3083  0.7441 -0.6929
 1126TIP3    H225014   1.515   0.987   7.117 -1.2063 -0.5639  0.2961
 1127TIP3   OH225015   4.347   3.560   1.284 -0.7339 -0.5342  1.2986
 1127TIP3    H125016   4.427   3.511   1.299 -0.6560 -0.3556  1.4789
 1127TIP3    H225017   4.373   3.652   1.293 -0.0570 -0.1703 -2.6769
 1128TIP3   OH225018   2.982   0.214   2.400  0.3397  0.3860 -0.3589
 1128TIP3    H125019   2.933   0.151   2.453  1.3782  0.8941  1.3047
 1128TIP3    H225020   2.937   0.216   2.316 -0.1616 -1.9914 -0.2023
 1129TIP3   OH225021   2.256   6.516   1.116  0.8012  0.0934 -0.6156
 1129TIP3    H125022   2.312   6.583   1.077  0.4102  0.7529 -0.0693
 1129TIP3    H225023   2.302   6.434   1.101  2.2633  0.6822  0.3974
 1130TIP3   OH225024   2.943   5.508   8.421  0.3006  0.2466 -0.1912
 1130TIP3    H125025   2.941   5.550   8.335 -1.1628  1.2968  0.3037
 1130TIP3    H225026   2.870   5.446   8.419  0.9351 -0.5027 -0.0769
 1131TIP3   OH225027   3.638   6.386   0.324  0.5265 -0.7785  0.1134
 1131TIP3    H125028   3.564   6.373   0.382  1.3419 -1.9219  0.9611
 1131TIP3    H225029   3.669   6.297   0.305  2.5178 -0.3257  0.9387
 1132TIP3   OH225030   4.420   3.272   7.750  0.4680 -0.2495 -0.0757
 1132TIP3    H125031   4.351   3.221   7.792 -0.2838 -0.0876 -1.0574
 1132TIP3    H225032   4.502   3.239   7.787 -0.0301 -1.7988 -0.2878
 1133TIP3   OH225033   4.090   2.790   0.380  0.0885 -0.3997  0.2149
 1133TIP3    H125034   4.179   2.758   0.391  0.2313  0.1113  0.5883
 1133TIP3    H225035   4.098   2.885   0.383 -0.4590 -0.3462  0.1667
 1134TIP3   OH225036   6.068   5.187   0.720  0.0067  0.3823  0.2770
 1134TIP3    H125037   6.022   5.261   0.681 -0.7487 -0.2257  0.0002
 1134TIP3    H225038   6.161   5.210   0.712 -0.2097  1.1812 -0.0269
 1135TIP3   OH225039   3.468   2.914   7.451  0.6352 -0.4999  0.1510
 1135TIP3    H125040   3.430   2.828   7.438  1.0879 -0.5402 -1.0226
 1135TIP3    H225041   3.481   2.948   7.363 -0.0274  0.9956  0.5926
 1136TIP3   OH225042   2.648   4.171   1.059 -0.1379 -0.2696  0.0276
 1136TIP3    H125043   2.673   4.216   0.978  2.9006  0.7232  1.3774
 1136TIP3    H225044   2.594   4.235   1.106 -1.5903 -0.7082 -0.9857
 1137TIP3   OH225045   1.703   3.842   1.697  0.4326  0.1105 -0.0062
 1137TIP3    H125046   1.703   3.767   1.757  2.4629  0.0363 -0.0034
 1137TIP3    H225047   1.745   3.912   1.747 -1.4255  1.2947 -0.0137
 1138TIP3   OH225048   1.865   0.930   2.493  0.1253  0.0152  0.2772
 1138TIP3    H125049   1.891   1.019   2.470 -0.1049  0.3464  1.2765
 1138TIP3    H225050   1.771   0.936   2.511 -0.4569 -0.9195 -2.0273
 1139TIP3   OH225051   6.437   6.107   2.223  0.1475 -0.0493 -0.3328
 1139TIP3    H125052   6.413   6.164   2.295  0.9908  0.5032 -0.4767
 1139TIP3    H225053   6.454   6.022   2.264 -1.4417 -0.3168 -0.1619
 1140TIP3   OH225054   4.328   3.101   8.476  0.3410 -0.0738 -0.1583
 1140TIP3    H125055   4.244   3.108   8.520  0.0872  2.2995 -0.8758
 1140TIP3    H225056   4.393   3.099   8.546 -0.1958  0.5748  0.3560
 1141TIP3   OH225057   3.705   3.413   1.564 -0.4534 -0.9785  1.0526
 1141TIP3    H125058   3.623   3.421   1.516 -0.2510  0.8148  0.9636
 1141TIP3    H225059   3.725   3.502   1.593  2.1337 -1.1393 -0.0348
 1142TIP3   OH225060   5.968   0.754   8.753 -0.6326  1.0776 -0.1561
 1142TIP3    H125061   5.974   0.767   8.848 -0.9122  2.3724 -0.2987
 1142TIP3    H225062   5.894   0.807   8.726  0.3749  1.9359 -1.3038
 1143TIP3   OH225063   5.190   3.188   1.869 -0.6655 -0.1524  0.2601
 1143TIP3    H125064   5.258   3.230   1.922  1.4442 -1.1393 -1.5177
 1143TIP3    H225065   5.154   3.119   1.926 -0.2801  0.4529  1.2589
 1144TIP3   OH225066   3.989   1.138   8.565 -0.1956 -0.1627  0.1484
 1144TIP3    H125067   4.047   1.143   8.488 -0.6223 -0.0270 -0.1686
 1144TIP3    H225068   4.033   1.077   8.624  0.4558  0.2197  0.0724
 1145TIP3   OH225069   6.047   4.809   6.935 -0.2269 -0.0016 -0.6602
 1145TIP3    H125070   5.983   4.837   6.870 -0.6621 -0.4611 -0.4282
 1145TIP3    H225071   6.125   4.861   6.915 -1.0537  1.4948 -0.1533
 1146TIP3   OH225072   1.141   0.114   8.784  0.0464  0.1412 -0.4711
 1146TIP3    H125073   1.189   0.033   8.798  0.4131  0.0003 -2.2205
 1146TIP3    H225074   1.208   0.182   8.786  0.7418 -0.1899 -4.3510
 1147TIP3   OH225075   1.138   3.139   8.389  0.5967  0.1639 -0.1598
 1147TIP3    H125076   1.067   3.194   8.357 -2.6115 -2.1098  2.3414
 1147TIP3    H225077   1.151   3.167   8.480 -0.1941 -2.1917  0.7476
 1148TIP3   OH225078   5.995   5.054   6.544  0.1211  0.2347 -0.2477
 1148TIP3    H125079   6.004   5.071   6.637 -1.7977 -0.2695  0.0673
 1148TIP3    H225080   6.083   5.027   6.516  0.6341 -0.0034  1.4789
 1149TIP3   OH225081   4.760   6.602   0.771  0.0268  0.6456 -0.0067
 1149TIP3    H125082   4.711   6.557   0.701  0.0676  1.7132 -0.7571
 1149TIP3    H225083   4.711   6.684   0.785  2.2947  2.4381 -1.7944
 1150TIP3   OH225084   0.913   0.166   1.679  0.0795  0.0606 -0.3902
 1150TIP3    H125085   0.992   0.202   1.719 -1.0986  2.0316  0.3103
 1150TIP3    H225086   0.842   0.195   1.736 -1.2649 -0.7714 -1.5780
 1151TIP3   OH225087   1.187   3.037   0.739  0.3096 -0.1700 -0.1497
 1151TIP3    H125088   1.131   3.015   0.664  0.9567 -0.6667 -0.4925
 1151TIP3    H225089   1.196   3.132   0.735 -0.0928 -0.1386 -0.3849
 1152TIP3   OH225090   5.796   4.352   0.809  0.1774 -0.1974  0.5062
 1152TIP3    H125091   5.879   4.308   0.831  1.4861  1.1073 -1.4622
 1152TIP3    H225092   5.786   4.418   0.878  0.8567 -0.2929  0.7128
 1153TIP3   OH225093   4.344   3.678   7.329 -0.0778  0.5978 -0.2991
 1153TIP3    H125094   4.263   3.690   7.380  0.3226  2.0042  0.0657
 1153TIP3    H225095   4.322   3.711   7.242  0.1438  1.1479 -0.1507
 1154TIP3   OH225096   5.238   2.759   7.129 -0.2401  0.7921  0.1565
 1154TIP3    H125097   5.219   2.719   7.214 -1.9667 -0.4783 -0.7590
 1154TIP3    H225098   5.331   2.743   7.115 -0.2979 -0.5054  1.0668
 1155TIP3   OH225099   6.640   3.938   7.992 -0.1959  0.3915 -0.2743
 1155TIP3    H125100   6.701   3.990   8.045 -0.7077 -0.5342  1.2927
 1155TIP3    H225101   6.632   3.986   7.910  2.0286  0.9525 -0.2300
 1156TIP3   OH225102   5.886   2.470   1.035  0.5884 -0.0450 -0.6397
 1156TIP3    H125103   5.899   2.500   1.125  1.4985 -1.2294 -0.3628
 1156TIP3    H225104   5.856   2.548   0.988  1.5353  0.9514  0.3653
 1157TIP3   OH225105   4.520   1.650   0.300 -0.0833  0.1113  0.1527
 1157TIP3    H125106   4.490   1.559   0.295 -0.0276  0.0081  1.4397
 1157TIP3    H225107   4.613   1.644   0.322 -0.1818  0.4790  0.6893
 1158TIP3   OH225108   0.784   2.718   8.562  0.3419  0.3091  0.0712
 1158TIP3    H125109   0.831   2.794   8.595  0.2134  0.9535 -1.1778
 1158TIP3    H225110   0.786   2.655   8.634  0.1945  1.5938  1.2237
 1159TIP3   OH225111   5.172   0.829   6.232 -0.5780 -0.6243 -0.3736
 1159TIP3    H125112   5.208   0.883   6.301  0.2096 -1.4681 -0.1024
 1159TIP3    H225113   5.077   0.830   6.247 -0.7625  1.9134 -1.3252
 1160TIP3   OH225114   4.093   5.812   8.523  0.5743 -0.0737 -0.1736
 1160TIP3    H125115   4.062   5.804   8.613  2.3803  0.6670  0.5573
 1160TIP3    H225116   4.063   5.898   8.495 -0.3531 -0.4746 -0.4557
 1161TIP3   OH225117   3.090   6.153   8.544  0.6143 -0.2127 -0.1000
 1161TIP3    H125118   3.111   6.081   8.603 -0.3743 -0.0440  0.4810
 1161TIP3    H225119   3.044   6.217   8.600  0.1760  0.2047 -0.9252
 1162TIP3   OH225120   1.463   2.557   7.853  0.2183 -0.0530  0.1299
 1162TIP3    H125121   1.551   2.544   7.819  0.7724 -1.0097  1.7830
 1162TIP3    H225122   1.445   2.650   7.839  2.6565  0.8636  2.2271
 1163TIP3   OH225123   3.486   3.052   6.368 -0.3363  0.3619  0.1287
 1163TIP3    H125124   3.538   2.973   6.351  2.1574  1.6223  1.3270
 1163TIP3    H225125   3.470   3.049   6.463 -1.2221  0.7223 -0.0101
 1164TIP3   OH225126   3.110   4.614   6.956  0.3734 -0.1494  0.3226
 1164TIP3    H125127   3.093   4.689   6.899  0.9303  1.0415  1.6595
 1164TIP3    H225128   3.063   4.541   6.915 -0.9456  1.1243 -0.5176
 1165TIP3   OH225129   3.255   0.424   7.914  0.4658 -0.0589 -0.5810
 1165TIP3    H125130   3.315   0.462   7.850  1.7137 -1.4874 -0.3307
 1165TIP3    H225131   3.182   0.391   7.861 -0.4228  2.1485 -0.8376
 1166TIP3   OH225132   4.557   5.680   7.870 -0.0165  0.3370 -0.2301
 1166TIP3    H125133   4.539   5.701   7.961 -0.9172 -1.5557  0.0813
 1166TIP3    H225134   4.653   5.676   7.865  0.0930  1.8448  0.2576
 1167TIP3   OH225135   3.264   4.327   8.161 -0.2664 -0.6763 -0.4365
 1167TIP3    H125136   3.233   4.381   8.233 -1.0087 -2.4345  0.6120
 1167TIP3    H225137   3.299   4.248   8.203 -0.1393 -1.4673 -1.9584
 1168TIP3   OH225138   2.396   5.196   1.043 -0.7749  0.3866 -0.1852
 1168TIP3    H125139   2.335   5.186   1.116 -0.1700  1.2916  0.4566
 1168TIP3    H225140   2.479   5.223   1.083  0.0408 -0.6801 -1.0468
 1169TIP3   OH225141   0.512   6.018   6.751  0.1572  0.3708 -0.3098
 1169TIP3    H125142   0.574   6.072   6.802  0.5582 -1.7209  1.5737
 1169TIP3    H225143   0.444   6.080   6.725  0.7968  1.9130  1.3770
 1170TIP3   OH225144   1.351   4.825   8.783  0.5821  0.1215  0.1904
 1170TIP3    H125145   1.443   4.800   8.773  1.0212  1.5139  0.4696
 1170TIP3    H225146   1.318   4.772   8.855  1.6934  0.9026  1.3036
 1171TIP3   OH225147   1.128   4.655   7.589 -0.2331 -0.3173 -0.3657
 1171TIP3    H125148   1.101   4.695   7.506  0.0137  1.1975  0.2489
 1171TIP3    H225149   1.090   4.711   7.657  0.1796 -1.1086  0.5499
 1172TIP3   OH225150   1.912   6.479   2.370 -0.0960  0.1612 -0.6444
 1172TIP3    H125151   1.873   6.536   2.303  1.7667  0.2702 -1.7390
 1172TIP3    H225152   1.941   6.539   2.438 -1.4249  0.1145 -0.0075
 1173TIP3   OH225153   5.558   4.558   0.843 -0.0024  0.4867  0.1828
 1173TIP3    H125154   5.567   4.505   0.921  0.2198  0.6208  0.2498
 1173TIP3    H225155   5.550   4.495   0.771 -1.4479  0.3450  0.4343
 1174TIP3   OH225156   4.724   1.738   8.713 -0.5301 -0.2601  0.3782
 1174TIP3    H125157   4.765   1.710   8.632 -0.5058 -1.8671  0.9078
 1174TIP3    H225158   4.751   1.673   8.778 -0.6679  0.8897  1.6551
 1175TIP3   OH225159   4.108   6.448   6.643 -0.0349  1.0237  0.0502
 1175TIP3    H125160   4.164   6.485   6.711  0.2465  1.3319 -0.3436
 1175TIP3    H225161   4.167   6.428   6.571  0.1278 -1.9256  0.9034
 1176TIP3   OH225162   5.409   6.065   1.456  0.1970 -0.0024  0.0745
 1176TIP3    H125163   5.481   6.121   1.483  0.3660  0.2802 -0.9199
 1176TIP3    H225164   5.405   5.997   1.523  0.7119  0.5627  0.6927
 1177TIP3   OH225165   6.301   6.593   8.812 -0.4342  0.3933  0.2991
 1177TIP3    H125166   6.345   6.563   8.732 -0.7358 -0.2597  0.3692
 1177TIP3    H225167   6.267   6.513   8.852  0.5854  0.5991  1.6218
 1178TIP3   OH225168   3.076   4.885   6.832  0.1504  0.0360  0.4025
 1178TIP3    H125169   3.102   4.874   6.741  1.7728  0.9435  0.7253
 1178TIP3    H225170   2.980   4.885   6.830  0.1705  0.3113 -1.3205
 1179TIP3   OH225171   1.991   6.528   1.574  0.3071  0.4952 -0.1683
 1179TIP3    H125172   2.071   6.526   1.521 -0.3575  0.6757 -1.2018
 1179TIP3    H225173   1.920   6.523   1.510 -0.5058 -1.4131  0.8299
 1180TIP3   OH225174   3.007   2.656   1.406 -0.0364  0.2015 -0.2482
 1180TIP3    H125175   2.966   2.728   1.358 -0.7003  0.3701  0.5440
 1180TIP3    H225176   2.968   2.577   1.369  2.4369  0.0204 -2.8134
 1181TIP3   OH225177   5.063   1.641   0.831  0.0355  0.2187 -0.2972
 1181TIP3    H125178   5.079   1.591   0.911  0.8939  0.0157 -0.5834
 1181TIP3    H225179   5.035   1.727   0.861 -2.0018 -0.5613  0.2098
 1182TIP3   OH225180   5.170   3.405   0.831  0.5006  0.2929  0.0142
 1182TIP3    H125181   5.233   3.465   0.791  0.3080  2.2449  2.4015
 1182TIP3    H225182   5.086   3.451   0.824  0.2494  0.0808  1.3651
 1183TIP3   OH225183   3.411   5.350   2.176  0.2107  0.0447 -0.4931
 1183TIP3    H125184   3.495   5.342   2.221  1.7279 -0.5896 -3.2424
 1183TIP3    H225185   3.372   5.263   2.184 -0.8818  0.6664  1.8758
 1184TIP3   OH225186   2.602   4.296   7.427 -0.0399  0.3944  0.2062
 1184TIP3    H125187   2.637   4.270   7.512  0.2951 -0.5764 -0.2190
 1184TIP3    H225188   2.563   4.215   7.391 -0.3482  0.8357 -0.4799
 1185TIP3   OH225189   5.200   3.256   2.336 -0.7395  0.2102  0.3407
 1185TIP3    H125190   5.261   3.329   2.328 -0.9196  0.3043 -0.2500
 1185TIP3    H225191   5.161   3.266   2.423  0.7350 -0.3770  1.0926
 1186TIP3   OH225192   4.380   1.219   1.426 -0.5924 -0.2595 -0.3709
 1186TIP3    H125193   4.350   1.310   1.417 -1.9405 -0.7918 -1.7499
 1186TIP3    H225194   4.331   1.185   1.501  0.3700  0.3077  0.5309
 1187TIP3   OH225195   1.440   1.902   2.061 -0.2420  0.5379 -0.0882
 1187TIP3    H125196   1.451   1.996   2.074 -3.2569  1.0384 -0.2446
 1187TIP3    H225197   1.416   1.893   1.969 -0.0007 -0.3729 -0.0694
 1188TIP3   OH225198   6.434   3.033   7.760  0.7184 -0.1179  0.6279
 1188TIP3    H125199   6.470   3.122   7.765  0.5020 -0.0366  0.7451
 1188TIP3    H225200   6.393   3.029   7.674  1.2657 -0.3099  0.3722
 1189TIP3   OH225201   1.969   4.411   0.090 -0.3603  0.2266  0.1381
 1189TIP3    H125202   1.934   4.493   0.056 -1.8620 -0.4483  0.0072
 1189TIP3    H225203   2.063   4.417   0.073 -0.6514  1.2334 -1.3047
 1190TIP3   OH225204   0.188   1.058   1.621  0.3181  0.6648 -0.0320
 1190TIP3    H125205   0.102   1.018   1.636  0.8128 -0.7636 -0.8422
 1190TIP3    H225206   0.178   1.105   1.538  0.2271  0.8464  0.0780
 1191TIP3   OH225207   6.761   3.734   7.300 -0.1628  0.0590 -0.2029
 1191TIP3    H125208   6.812   3.719   7.220 -0.2190  0.8908 -0.3983
 1191TIP3    H225209   6.670   3.723   7.272 -0.2768  1.8259 -0.6096
 1192TIP3   OH225210   3.219   6.783   7.513 -0.7185  0.5623  0.5152
 1192TIP3    H125211   3.252   6.713   7.457  0.9607  1.3525  0.4781
 1192TIP3    H225212   3.132   6.753   7.539 -0.5511 -0.9430 -0.5253
 1193TIP3   OH225213   6.208   5.393   6.816 -0.6441  0.4817 -0.2047
 1193TIP3    H125214   6.142   5.353   6.873 -0.4025 -0.5739 -0.6442
 1193TIP3    H225215   6.192   5.487   6.824 -0.9555  0.3291  1.1795
 1194TIP3   OH225216   2.614   6.003   7.434  0.3557 -0.1698  0.5192
 1194TIP3    H125217   2.571   5.927   7.396 -2.5812  0.6328  1.9575
 1194TIP3    H225218   2.631   5.978   7.525 -1.7083  1.1781  1.3470
 1195TIP3   OH225219   4.586   3.046   8.586 -0.1165  0.6796 -0.1243
 1195TIP3    H125220   4.608   3.139   8.592 -0.6654  0.7590  1.1877
 1195TIP3    H225221   4.655   3.003   8.637 -0.1450  0.4118 -0.3125
 1196TIP3   OH225222   1.789   5.924   2.186 -0.2994 -0.4368 -0.8145
 1196TIP3    H125223   1.734   5.877   2.249 -0.6509 -1.9006 -2.1422
 1196TIP3    H225224   1.731   5.991   2.150 -0.2915 -0.0188 -0.0703
 1197TIP3   OH225225   5.816   4.749   0.818  0.0410  0.0968 -0.0951
 1197TIP3    H125226   5.801   4.717   0.907 -0.0989  1.7603  0.5121
 1197TIP3    H225227   5.756   4.823   0.809 -0.3782 -0.4054 -1.8061
 1198TIP3   OH225228   1.292   4.234   0.033  0.2928 -0.4294 -1.1220
 1198TIP3    H125229   1.344   4.312   0.051  0.4032 -0.2355 -2.2061
 1198TIP3    H225230   1.357   4.164   0.024  0.3546 -0.2786 -1.9907
 1199TIP3   OH225231   3.838   3.853   8.441 -0.0324 -0.0561  0.4149
 1199TIP3    H125232   3.765   3.904   8.405  0.6690  0.4079 -0.3835
 1199TIP3    H225233   3.916   3.891   8.401  0.6332 -0.7072  1.0675
 1200TIP3   OH225234   4.278   4.930   0.954  0.1441 -0.5666  0.3435
 1200TIP3    H125235   4.339   4.863   0.985  0.7057  0.2218  0.9843
 1200TIP3    H225236   4.259   4.905   0.864  1.5142 -0.7568  0.0910
 1201TIP3   OH225237   5.218   1.120   1.308 -0.2460 -1.1229  0.5430
 1201TIP3    H125238   5.185   1.184   1.244 -0.0604 -0.9268  0.6430
 1201TIP3    H225239   5.272   1.172   1.368 -0.3829 -1.3186  0.8304
 1202TIP3   OH225240   2.068   5.073   0.660 -0.3853  0.0396  0.0025
 1202TIP3    H125241   2.010   5.093   0.734 -1.0859 -0.5941 -0.3634
 1202TIP3    H225242   2.152   5.112   0.685 -0.8431  0.5911  0.7421
 1203TIP3   OH225243   1.743   2.866   1.650 -0.6432 -0.0747  0.4326
 1203TIP3    H125244   1.837   2.882   1.645 -0.9732  2.1533  0.2255
 1203TIP3    H225245   1.723   2.865   1.743 -0.3811 -0.8043  0.4825
 1204TIP3   OH225246   6.312   5.524   0.981 -0.3061 -0.1502  0.2653
 1204TIP3    H125247   6.354   5.548   1.063 -2.3249 -1.2051  1.6878
 1204TIP3    H225248   6.226   5.490   1.006 -1.3593  0.3060 -2.3559
 1205TIP3   OH225249   0.107   1.720   7.779  0.5484  0.0326 -0.3117
 1205TIP3    H125250   0.062   1.635   7.773 -0.6079  0.7000 -2.3715
 1205TIP3    H225251   0.036   1.784   7.788  1.1771  0.9593 -1.5522
 1206TIP3   OH225252   5.648   5.818   0.755  0.5747  0.8138  0.3403
 1206TIP3    H125253   5.623   5.809   0.663  2.3337 -0.7130 -0.0435
 1206TIP3    H225254   5.576   5.776   0.803  0.0180  0.9255 -0.3745
 1207TIP3   OH225255   6.138   6.344   8.411 -0.8863  0.5358  0.0386
 1207TIP3    H125256   6.046   6.329   8.433 -0.5764  1.3312  2.1719
 1207TIP3    H225257   6.144   6.439   8.400 -0.6132  0.3349 -1.6964
 1208TIP3   OH225258   0.738   5.516   1.781  0.5347  0.5255 -0.3900
 1208TIP3    H125259   0.795   5.460   1.729 -0.2416  0.3104 -1.0274
 1208TIP3    H225260   0.792   5.592   1.804  1.2183  0.0986 -0.5548
 1209TIP3   OH225261   3.331   1.106   8.602 -0.4412 -0.3679 -0.5358
 1209TIP3    H125262   3.413   1.127   8.558 -1.1265  2.4560 -0.6458
 1209TIP3    H225263   3.354   1.104   8.695 -0.5014  2.4204 -0.3789
 1210TIP3   OH225264   2.428   3.373   1.913  0.2350 -0.0929  0.1654
 1210TIP3    H125265   2.462   3.439   1.851 -1.5980  1.4190  0.6558
 1210TIP3    H225266   2.474   3.392   1.995  2.0650 -1.5697 -0.4540
 1211TIP3   OH225267   0.660   2.728   6.968 -0.2022  0.2413  0.4475
 1211TIP3    H125268   0.672   2.773   6.884 -1.0409  0.0199  0.2012
 1211TIP3    H225269   0.741   2.679   6.980  0.2366  0.8775  0.1374
 1212TIP3   OH225270   5.953   4.028   2.130  0.2703  0.2031  0.0215
 1212TIP3    H125271   5.861   4.022   2.157  0.5929  1.0638  1.4257
 1212TIP3    H225272   5.986   4.106   2.175  1.5546  0.2325 -0.9079
 1213TIP3   OH225273   6.042   6.695   0.808 -0.2476 -0.5782 -0.0261
 1213TIP3    H125274   6.025   6.635   0.881 -2.3467  0.6488  0.5500
 1213TIP3    H225275   6.133   6.677   0.784  0.0609 -2.0017  1.9523
 1214TIP3   OH225276   1.169   2.063   1.634 -0.1825 -0.0044  0.0189
 1214TIP3    H125277   1.155   1.968   1.636 -1.9050  0.0878 -2.6101
 1214TIP3    H225278   1.255   2.073   1.591  2.3516 -0.3056  4.4210
 1215TIP3   OH225279   1.852   6.008   8.615 -0.1938 -0.2196  0.0826
 1215TIP3    H125280   1.898   6.091   8.632 -0.3341  0.5675 -2.7958
 1215TIP3    H225281   1.918   5.941   8.630  1.3792  0.7602 -1.9555
 1216TIP3   OH225282   4.671   5.746   0.008 -0.5621  0.1236 -0.0768
 1216TIP3    H125283   4.618   5.763  -0.069  0.1997  2.6500 -0.1183
 1216TIP3    H225284   4.653   5.819   0.067  1.9066  0.4446  0.3943
 1217TIP3   OH225285   1.175   4.750   1.748  0.0238  0.4365  0.3649
 1217TIP3    H125286   1.234   4.738   1.673  0.7334  3.1978  0.3548
 1217TIP3    H225287   1.147   4.842   1.741 -1.6705  0.1309  2.2489
 1218TIP3   OH225288   4.266   5.133   7.062 -0.2209 -0.9729 -0.4197
 1218TIP3    H125289   4.274   5.179   6.979  0.3108  0.8398  0.5811
 1218TIP3    H225290   4.172   5.115   7.071 -0.8652  2.2375  0.2802
 1219TIP3   OH225291   2.252   0.209   7.175 -0.0138 -0.4057 -0.0202
 1219TIP3    H125292   2.210   0.150   7.112  0.5022 -1.8434  0.9377
 1219TIP3    H225293   2.330   0.241   7.129  0.4874 -1.6275 -0.0732
 1220TIP3   OH225294   3.874   4.823   0.657 -0.0904  0.0783  0.0192
 1220TIP3    H125295   3.890   4.730   0.675 -0.8502 -0.5367 -2.1436
 1220TIP3    H225296   3.953   4.853   0.613  0.0201  0.3841  0.4186
 1221TIP3   OH225297   2.132   1.020   7.265 -0.4065 -0.0448  0.1984
 1221TIP3    H125298   2.099   1.109   7.265  0.7921  0.4175  0.7685
 1221TIP3    H225299   2.141   0.997   7.172 -0.8793  0.3539  0.0537
 1222TIP3   OH225300   0.241   5.181   7.157 -0.3819 -0.4405 -0.4074
 1222TIP3    H125301   0.223   5.089   7.176  0.8751 -0.7718 -0.7405
 1222TIP3    H225302   0.281   5.180   7.070 -0.0645  0.3963 -0.2797
 1223TIP3   OH225303   1.351   5.308   2.262  0.2690  0.4109 -0.3853
 1223TIP3    H125304   1.300   5.361   2.323 -1.5992 -0.1717 -1.3777
 1223TIP3    H225305   1.419   5.267   2.316 -1.3568 -0.1369  1.3260
 1224TIP3   OH225306   0.743   5.715   0.874  0.2776 -0.2242 -0.0961
 1224TIP3    H125307   0.815   5.718   0.937  0.4032 -0.8422 -0.2063
 1224TIP3    H225308   0.786   5.709   0.789  0.0964 -0.4496 -0.1725
 1225TIP3   OH225309   3.462   4.701   7.964  0.0765  0.2866  0.1323
 1225TIP3    H125310   3.409   4.779   7.983 -0.3731  0.0491 -0.1420
 1225TIP3    H225311   3.467   4.698   7.869  0.9994  0.5807  0.1655
 1226TIP3   OH225312   2.795   4.426   8.218  0.2417  0.2097  0.0431
 1226TIP3    H125313   2.733   4.467   8.277 -0.5632  1.1302 -1.3764
 1226TIP3    H225314   2.841   4.499   8.176  0.0158 -0.3579 -1.2548
 1227TIP3   OH225315   3.452   0.298   0.299  0.3831  0.3422 -0.0122
 1227TIP3    H125316   3.435   0.280   0.391 -1.1926  1.7356  0.0184
 1227TIP3    H225317   3.418   0.220   0.253  0.0370  0.1821  0.5041
 1228TIP3   OH225318   0.611   4.049   6.693 -0.3086 -0.3505 -0.1241
 1228TIP3    H125319   0.655   4.054   6.777  2.4659 -2.3950 -1.3060
 1228TIP3    H225320   0.518   4.059   6.714  0.3679  0.7299  2.9265
 1229TIP3   OH225321   5.953   1.898   8.798  0.1172 -0.2043  0.0560
 1229TIP3    H125322   5.916   1.898   8.710 -0.9945 -0.8937  0.4961
 1229TIP3    H225323   6.007   1.819   8.801 -0.5647 -0.6844  0.2470
 1230TIP3   OH225324   5.336   2.897   7.434 -0.0050 -0.0994 -0.2319
 1230TIP3    H125325   5.398   2.894   7.361 -1.1901  0.2107 -1.2787
 1230TIP3    H225326   5.389   2.924   7.509  1.1464  0.0231 -1.0621
 1231TIP3   OH225327   4.985   5.238   7.758 -0.1927 -0.4275  0.4674
 1231TIP3    H125328   4.915   5.303   7.749 -0.6222 -1.1281 -1.8014
 1231TIP3    H225329   5.066   5.289   7.745 -0.3606  0.0628  1.2491
 1232TIP3   OH225330   1.492   1.884   7.368 -0.3390 -0.1660  0.0858
 1232TIP3    H125331   1.439   1.885   7.448 -1.1364  1.2544 -0.4314
 1232TIP3    H225332   1.465   1.805   7.322 -1.5757  0.1971  0.1437
 1233TIP3   OH225333   0.303   5.978   7.678  0.4102 -0.2503 -0.0306
 1233TIP3    H125334   0.389   5.936   7.672  0.7484  0.5437 -1.8255
 1233TIP3    H225335   0.243   5.919   7.633  0.0094 -0.7779  1.1722
 1234TIP3   OH225336   1.496   2.173   0.630  0.6293 -0.4937  0.6774
 1234TIP3    H125337   1.584   2.168   0.593  0.0286  1.4248 -1.2377
 1234TIP3    H225338   1.443   2.116   0.573  0.4448 -0.8500  1.2026
 1235TIP3   OH225339   1.772   6.543   1.410  0.1618 -0.0284 -0.3442
 1235TIP3    H125340   1.718   6.481   1.458  0.8962  0.2209  0.8428
 1235TIP3    H225341   1.722   6.562   1.330 -0.5397 -1.3428 -0.2444
 1236TIP3   OH225342   3.048   1.079   1.839 -0.6458  0.2618  0.3166
 1236TIP3    H125343   3.046   1.143   1.910 -1.7601 -2.4257  2.8870
 1236TIP3    H225344   2.976   1.105   1.781 -1.4630  0.9897  1.6193
 1237TIP3   OH225345   6.678   0.188   6.100 -0.2311 -0.2309  0.4115
 1237TIP3    H125346   6.707   0.155   6.185 -0.9889  1.4997  1.3989
 1237TIP3    H225347   6.652   0.279   6.118 -0.9861 -0.0247 -1.5523
 1238TIP3   OH225348   3.802   6.613   8.505 -0.4527  0.1172 -0.0889
 1238TIP3    H125349   3.759   6.574   8.581 -0.6054  1.8693  0.7638
 1238TIP3    H225350   3.886   6.566   8.499 -0.0377  0.5447  1.7318
 1239TIP3   OH225351   3.921   1.729   2.319  0.6281  0.1488 -0.3745
 1239TIP3    H125352   3.844   1.739   2.374  0.8373  0.5287 -0.1423
 1239TIP3    H225353   3.970   1.657   2.358 -0.4914 -1.3133 -1.5790
 1240TIP3   OH225354   4.110   6.172   1.807  0.2091  0.3158 -0.1701
 1240TIP3    H125355   4.063   6.202   1.884  1.4420  1.0147  0.3474
 1240TIP3    H225356   4.054   6.195   1.734  0.7204  3.3446  0.2403
 1241TIP3   OH225357   5.937   5.810   0.364  0.2555  0.0559  0.2539
 1241TIP3    H125358   5.924   5.901   0.390 -1.0363 -0.1187  0.2943
 1241TIP3    H225359   5.862   5.764   0.401 -0.0206 -0.7181 -1.1853
 1242TIP3   OH225360   1.297   1.218   7.459  0.0884  0.1004  0.4446
 1242TIP3    H125361   1.305   1.286   7.392  0.3480 -0.6699 -0.3352
 1242TIP3    H225362   1.384   1.213   7.499  0.1358  0.0772  0.3403
 1243TIP3   OH225363   5.057   0.028   8.454 -0.1327 -0.3636 -0.0953
 1243TIP3    H125364   5.048  -0.066   8.438 -3.8159 -0.1510 -0.0159
 1243TIP3    H225365   5.006   0.070   8.385 -1.7112  1.3585  1.9887
 1244TIP3   OH225366   1.188   6.221   0.111  0.1074 -0.2139 -0.4096
 1244TIP3    H125367   1.189   6.126   0.108 -0.5242 -0.2499  0.2333
 1244TIP3    H225368   1.262   6.248   0.057 -0.6371 -1.0404 -1.9160
 1245TIP3   OH225369   3.707   6.039   1.819  0.5106  0.1526  0.0161
 1245TIP3    H125370   3.692   6.046   1.913  0.5727 -0.1327  0.0487
 1245TIP3    H225371   3.752   5.956   1.808  1.4933  0.7003 -0.1537
 1246TIP3   OH225372   1.738   5.793   1.311  0.8147  0.0122  0.4846
 1246TIP3    H125373   1.652   5.770   1.346  1.3242 -1.2348  0.9584
 1246TIP3    H225374   1.728   5.885   1.284 -0.6383 -0.0834  0.5813
 1247TIP3   OH225375   3.616   3.742   7.797 -0.1745  0.0444  0.0624
 1247TIP3    H125376   3.610   3.646   7.802 -0.1900  0.0927  1.1531
 1247TIP3    H225377   3.556   3.773   7.865 -2.5452  0.9093 -2.2826
 1248TIP3   OH225378   1.878   1.247   6.961 -0.4600 -0.5312  0.0851
 1248TIP3    H125379   1.948   1.265   7.024 -2.7057  0.7726  2.4209
 1248TIP3    H225380   1.854   1.156   6.978 -0.5850 -0.4003  0.6253
 1249TIP3   OH225381   5.211   2.976   2.823 -0.2929  0.6163  0.2578
 1249TIP3    H125382   5.239   3.013   2.906  0.6088 -1.1397  0.8017
 1249TIP3    H225383   5.289   2.932   2.789 -0.8636  0.6063 -1.1147
 1250TIP3   OH225384   4.005   3.190   1.862  0.7723 -0.2958 -0.4725
 1250TIP3    H125385   3.957   3.270   1.844  1.4469  0.0391 -0.8179
 1250TIP3    H225386   4.037   3.201   1.952 -0.3406 -0.8136  0.0140
 1251TIP3   OH225387   5.614   6.347   0.400 -0.8894 -0.0666 -0.2134
 1251TIP3    H125388   5.571   6.268   0.367  1.7685 -1.1461 -1.3859
 1251TIP3    H225389   5.632   6.400   0.322 -1.0772  0.8946  0.3725
 1252TIP3   OH225390   2.309   6.433   8.699 -0.2284  0.5250  0.0113
 1252TIP3    H125391   2.381   6.394   8.650 -1.0360 -1.7550  0.5223
 1252TIP3    H225392   2.255   6.475   8.633 -0.1093 -0.5525 -0.7924
 1253TIP3   OH225393   1.949   4.679   8.109 -0.6574 -0.0129  0.5654
 1253TIP3    H125394   2.030   4.693   8.159 -0.4037 -0.5395  0.3137
 1253TIP3    H225395   1.879   4.684   8.174 -0.3599 -0.2967  0.9163
 1254TIP3   OH225396   5.448   5.740   7.169  0.1248 -0.1385  0.1372
 1254TIP3    H125397   5.521   5.793   7.139  0.7540 -1.7231 -1.2622
 1254TIP3    H225398   5.395   5.725   7.091 -0.5060 -0.8592  0.6889
 1255TIP3   OH225399   2.735   3.364   6.769  0.7998  0.4074 -0.5720
 1255TIP3    H125400   2.780   3.434   6.722  2.6090  0.3275  0.9070
 1255TIP3    H225401   2.671   3.331   6.707  0.9209  2.3663 -1.8357
 1256TIP3   OH225402   2.617   4.776   0.757 -0.1508  0.1612  0.3955
 1256TIP3    H125403   2.599   4.830   0.679 -1.7149 -0.4161  0.3360
 1256TIP3    H225404   2.576   4.692   0.738  1.3928 -0.7646  0.9199
 1257TIP3   OH225405   2.005   4.842   8.369 -0.0191 -0.0945 -0.6260
 1257TIP3    H125406   1.976   4.919   8.320  0.6767  1.3174  1.0445
 1257TIP3    H225407   2.075   4.804   8.315  0.2798  1.0207 -1.0593
 1258TIP3   OH225408   1.508   5.082   0.164 -0.2104  0.5739  0.4455
 1258TIP3    H125409   1.518   5.159   0.220 -2.6121  1.0557  0.2909
 1258TIP3    H225410   1.452   5.110   0.093 -0.9278 -1.2281  0.2293
 1259TIP3   OH225411   3.416   1.090   0.644 -0.0213 -0.6835 -0.2131
 1259TIP3    H125412   3.370   1.017   0.687  1.5847 -0.6655  1.6825
 1259TIP3    H225413   3.399   1.166   0.700 -0.5418  0.1298 -1.4230
 1260TIP3   OH225414   4.524   0.693   8.193  0.3734 -0.0579  0.6534
 1260TIP3    H125415   4.459   0.636   8.234 -0.7775  0.3648 -0.5381
 1260TIP3    H225416   4.507   0.780   8.229  0.3602  0.0318  0.4343
 1261TIP3   OH225417   6.563   1.315   8.865 -0.1443 -0.3719 -0.5992
 1261TIP3    H125418   6.536   1.282   8.779  1.8693 -0.2535 -1.3166
 1261TIP3    H225419   6.535   1.247   8.926  0.1425 -1.3923 -1.5676
 1262TIP3   OH225420   1.337   6.478   8.411 -0.2217  0.2551 -0.5903
 1262TIP3    H125421   1.429   6.492   8.388  0.0587 -2.3575 -1.4384
 1262TIP3    H225422   1.324   6.384   8.398 -2.9482  0.5056 -0.1662
 1263TIP3   OH225423   2.155   4.211   7.470  0.2298 -0.4529  0.1012
 1263TIP3    H125424   2.235   4.239   7.514  0.7743  0.2595 -1.3163
 1263TIP3    H225425   2.115   4.148   7.532  1.4517 -0.2209  1.1669
 1264TIP3   OH225426   0.432   4.727   7.255 -0.0821 -0.4468  0.8027
 1264TIP3    H125427   0.462   4.724   7.346  1.2478 -1.0975  0.3605
 1264TIP3    H225428   0.445   4.638   7.222 -1.7185 -0.5419  0.3167
 1265TIP3   OH225429   2.095   5.556   6.659 -0.2454 -0.4478  0.1370
 1265TIP3    H125430   2.064   5.505   6.584  0.6704  0.2560 -0.7374
 1265TIP3    H225431   2.179   5.592   6.631 -0.5170  0.9317  1.0065
 1266TIP3   OH225432   4.906   6.091   0.493  0.7243 -0.1710  0.0256
 1266TIP3    H125433   4.896   6.042   0.411  0.1972  0.2923 -0.1860
 1266TIP3    H225434   5.000   6.108   0.498  0.6976  0.2551 -0.7529
 1267TIP3   OH225435   4.287   2.884   1.442  0.1321 -0.1138 -0.3592
 1267TIP3    H125436   4.211   2.836   1.408 -0.1149 -0.0706  0.1121
 1267TIP3    H225437   4.254   2.926   1.521  0.5479  0.2270 -0.3646
 1268TIP3   OH225438   1.748   2.085   0.846 -0.2053  0.3555 -0.1099
 1268TIP3    H125439   1.750   2.180   0.851 -0.9769  0.4240 -0.9875
 1268TIP3    H225440   1.655   2.062   0.848 -0.0181 -0.4408  0.9303
 1269TIP3   OH225441   2.193   5.469   6.915 -0.1263  0.4655  0.0882
 1269TIP3    H125442   2.286   5.492   6.914 -0.2174  0.8619  0.5365
 1269TIP3    H225443   2.159   5.499   6.831 -0.0370  1.1161  0.2814
 1270TIP3   OH225444   4.645   5.024   2.063 -0.8492 -0.3263  0.0372
 1270TIP3    H125445   4.604   4.971   2.131  1.6246  0.1995  2.0637
 1270TIP3    H225446   4.585   5.097   2.050 -0.2730  0.9894  3.6445
 1271TIP3   OH225447   2.885   6.699   8.068 -0.0401 -0.4341  0.3840
 1271TIP3    H125448   2.971   6.682   8.031  0.0204 -0.6489  0.6149
 1271TIP3    H225449   2.876   6.635   8.139  0.6262  1.1306  1.9697
 1272TIP3   OH225450   4.234   6.242   0.937  0.6970 -0.1236  0.0119
 1272TIP3    H125451   4.223   6.200   1.022 -1.4899  1.9796  0.8820
 1272TIP3    H225452   4.156   6.219   0.888  0.6302  0.9116 -0.3914
 1273TIP3   OH225453   0.170   2.253   7.587  0.0133  0.6154  0.3271
 1273TIP3    H125454   0.149   2.324   7.648  2.0389  0.1377  1.6807
 1273TIP3    H225455   0.196   2.297   7.507 -0.1324  1.3577  0.6786
 1274TIP3   OH225456   1.876   5.566   8.761 -0.2234 -0.2278  0.0907
 1274TIP3    H125457   1.940   5.531   8.699 -1.0330 -0.5352 -0.5930
 1274TIP3    H225458   1.797   5.580   8.708 -0.8752 -0.3204  1.0177
 1275TIP3   OH225459   2.719   1.762   1.674 -0.0716 -0.7233  0.2487
 1275TIP3    H125460   2.633   1.767   1.631 -0.2226  1.6468  0.6886
 1275TIP3    H225461   2.778   1.734   1.605 -0.5652  1.5727 -1.2417
 1276TIP3   OH225462   1.236   4.644   8.036  0.3300 -0.0593  0.1058
 1276TIP3    H125463   1.277   4.717   8.082  1.5924 -1.1232  0.7170
 1276TIP3    H225464   1.285   4.635   7.955  0.0210 -0.0793 -0.0820
 1277TIP3   OH225465   4.575   3.140   2.173 -0.0343  0.0478  0.0562
 1277TIP3    H125466   4.488   3.144   2.132  0.1440  1.0190 -0.2414
 1277TIP3    H225467   4.567   3.195   2.251 -0.3077 -1.6136  1.2696
 1278TIP3   OH225468   5.476   6.514   8.792  0.2564  0.2826 -0.1759
 1278TIP3    H125469   5.560   6.485   8.757  0.0707 -0.3575 -0.0963
 1278TIP3    H225470   5.468   6.469   8.876  0.2810  1.1082  0.2832
 1279TIP3   OH225471   1.511   2.645   2.491 -0.7184  0.4027 -0.3450
 1279TIP3    H125472   1.462   2.692   2.559  0.3465  1.2883 -0.1538
 1279TIP3    H225473   1.446   2.625   2.424 -1.3571  1.5038 -0.0791
 1280TIP3   OH225474   3.775   0.693   6.565 -0.0551  0.0086 -0.0049
 1280TIP3    H125475   3.748   0.606   6.594 -0.9919  0.9476  2.1190
 1280TIP3    H225476   3.706   0.752   6.597 -0.1255  1.4325 -2.4845
 1281TIP3   OH225477   5.482   4.119   1.955  0.1526 -0.1067  0.1502
 1281TIP3    H125478   5.393   4.117   1.990  0.5439  1.0737  1.2795
 1281TIP3    H225479   5.470   4.142   1.862 -0.6736  1.7298  0.6567
 1282TIP3   OH225480   6.627   2.428   1.653  0.2633 -0.3943  0.0870
 1282TIP3    H125481   6.592   2.365   1.715 -0.6260 -0.4861 -0.4955
 1282TIP3    H225482   6.610   2.390   1.567 -0.1562  0.5665 -0.2695
 1283TIP3   OH225483   4.419   1.650   7.208 -0.2303  0.7854 -0.0755
 1283TIP3    H125484   4.504   1.692   7.222 -0.1628  0.5889  0.0966
 1283TIP3    H225485   4.407   1.593   7.284 -0.3322  0.5069 -0.2999
 1284TIP3   OH225486   3.194   0.114   0.459 -0.0062  0.1591 -0.0012
 1284TIP3    H125487   3.175   0.067   0.378 -1.1613 -0.4743  0.6166
 1284TIP3    H225488   3.132   0.187   0.461 -0.1909 -0.0051  0.4546
 1285TIP3   OH225489   6.267   0.586   1.502 -0.5918 -0.3866 -0.0184
 1285TIP3    H125490   6.282   0.676   1.473 -0.4368 -0.7541 -1.1355
 1285TIP3    H225491   6.213   0.594   1.580 -3.2669  0.5948 -1.8365
 1286TIP3   OH225492   0.492   2.980   7.448 -0.3876  0.2567  0.2540
 1286TIP3    H125493   0.588   2.986   7.453 -0.3351 -0.0941 -0.3309
 1286TIP3    H225494   0.475   2.903   7.395 -0.9724  1.5376 -1.4916
 1287TIP3   OH225495   2.833   5.037   7.868 -0.2344 -0.0002 -0.7919
 1287TIP3    H125496   2.854   5.070   7.780 -1.0738  0.8411 -0.6941
 1287TIP3    H225497   2.830   5.115   7.923 -1.6230 -0.2774 -0.4233
 1288TIP3   OH225498   2.906   1.106   0.566  0.3180  0.5399 -0.0385
 1288TIP3    H125499   2.967   1.150   0.506  0.7386 -0.4424 -0.3644
 1288TIP3    H225500   2.957   1.092   0.646  0.0234  1.0899  0.2517
 1289TIP3   OH225501   1.838   1.331   1.404  0.2251  0.2083 -0.5282
 1289TIP3    H125502   1.786   1.265   1.451 -0.0106  0.2541 -0.7238
 1289TIP3    H225503   1.774   1.381   1.354  0.4334  0.4163 -0.5904
 1290TIP3   OH225504   2.047   2.178   1.499 -0.3337  0.2845  0.2447
 1290TIP3    H125505   2.018   2.268   1.516 -0.3413  0.1666  0.8645
 1290TIP3    H225506   2.034   2.132   1.582 -1.7607 -0.6766 -0.4652
 1291TIP3   OH225507   5.494   6.756   7.786  0.0289 -0.2140 -0.4280
 1291TIP3    H125508   5.448   6.688   7.737  0.1045 -0.2208 -0.4905
 1291TIP3    H225509   5.449   6.761   7.870  1.2388 -1.7129  0.3578
 1292TIP3   OH225510   2.596   6.396   2.067  0.0959 -0.4902  0.0043
 1292TIP3    H125511   2.529   6.429   2.128  2.2148  1.9278  1.1855
 1292TIP3    H225512   2.595   6.301   2.080 -0.3940 -0.1765  2.9686
 1293TIP3   OH225513   3.246   1.981   0.995 -0.2031 -0.0781  0.5172
 1293TIP3    H125514   3.233   1.896   0.955 -0.5833 -0.6537  1.7918
 1293TIP3    H225515   3.170   1.991   1.054 -0.2107  1.1735  0.3263
 1294TIP3   OH225516   1.160   1.635   1.008  0.4420 -0.0850 -0.2118
 1294TIP3    H125517   1.095   1.611   0.941  1.5419  1.2974 -1.8429
 1294TIP3    H225518   1.236   1.665   0.959  1.7160 -0.0281  1.6732
 1295TIP3   OH225519   2.576   4.883   7.992  0.3119  0.0184 -0.1671
 1295TIP3    H125520   2.609   4.843   7.912  2.4151  2.9942 -1.0043
 1295TIP3    H225521   2.652   4.884   8.050  0.2543  2.2190 -0.0500
 1296TIP3   OH225522   6.649   2.928   0.605  0.0342  0.3310  0.8089
 1296TIP3    H125523   6.558   2.932   0.576  0.0393 -0.6414  0.6493
 1296TIP3    H225524   6.700   2.939   0.524  0.0486 -0.4820  0.6982
 1297TIP3   OH225525   5.363   2.757   8.701  0.0534  0.4498 -0.1662
 1297TIP3    H125526   5.396   2.806   8.777  1.8240 -0.3112 -0.4050
 1297TIP3    H225527   5.312   2.685   8.739 -0.5664  1.0895  0.2394
 1298TIP3   OH225528   2.949   6.089   2.424  0.0459  0.1224  0.4654
 1298TIP3    H125529   3.043   6.080   2.444 -0.0863  0.1638  1.1350
 1298TIP3    H225530   2.934   6.027   2.353  0.3972 -0.5449  0.9637
 1299TIP3   OH225531   4.435   4.405   6.945 -1.0004  0.0125  0.0180
 1299TIP3    H125532   4.396   4.372   7.026  0.2620 -0.0159  0.6428
 1299TIP3    H225533   4.529   4.399   6.960 -0.7456  1.0006 -1.0568
 1300TIP3   OH225534   5.718   4.492   0.090 -0.1089  0.3192  0.2490
 1300TIP3    H125535   5.634   4.450   0.074  0.6897 -0.9289 -0.8785
 1300TIP3    H225536   5.709   4.532   0.177 -2.3959  1.6567 -0.5058
 1301TIP3   OH225537   4.094   0.200   8.600  0.0066  0.4251 -0.2174
 1301TIP3    H125538   4.001   0.222   8.599 -0.1269 -0.0761 -1.6491
 1301TIP3    H225539   4.127   0.238   8.681 -1.4595  0.5261  0.3664
 1302TIP3   OH225540   2.168   2.340   0.188  0.6898  0.4674  0.4450
 1302TIP3    H125541   2.132   2.317   0.274 -0.4675  1.2429  0.1836
 1302TIP3    H225542   2.116   2.414   0.159  1.8910  1.0212 -0.3931
 1303TIP3   OH225543   0.488   1.190   7.178  0.0057  0.1578 -0.9308
 1303TIP3    H125544   0.439   1.123   7.227  1.1058 -0.6483 -0.8956
 1303TIP3    H225545   0.494   1.264   7.239 -2.1724  0.7558 -1.3654
 1304TIP3   OH225546   2.407   6.617   1.682 -0.7381 -0.4080  0.2473
 1304TIP3    H125547   2.364   6.696   1.715  0.1985  0.2426 -0.0790
 1304TIP3    H225548   2.483   6.606   1.738  0.1545 -0.0220 -0.8590
 1305TIP3   OH225549   0.581   1.481   0.017  0.0456  0.0742  0.3524
 1305TIP3    H125550   0.654   1.487  -0.045  0.3983 -2.6231  0.3946
 1305TIP3    H225551   0.504   1.467  -0.037 -0.0075  0.0852  0.4254
 1306TIP3   OH225552   6.363   4.514   6.556  0.5175  0.8582  0.0209
 1306TIP3    H125553   6.454   4.526   6.531  0.2321 -0.6599 -2.0077
 1306TIP3    H225554   6.313   4.557   6.487 -0.2899 -0.4808 -0.2735
 1307TIP3   OH225555   3.286   3.043   0.847  0.3467 -0.2300  0.1043
 1307TIP3    H125556   3.298   3.123   0.796 -0.1414  0.0746  0.4627
 1307TIP3    H225557   3.289   3.071   0.938 -2.5249 -0.1281  0.2760
 1308TIP3   OH225558   2.990   2.346   1.424  0.1244 -0.8366 -0.1478
 1308TIP3    H125559   2.951   2.308   1.502 -0.1433 -0.3036 -0.0169
 1308TIP3    H225560   2.921   2.342   1.358 -1.3143  2.8238  0.8854
 1309TIP3   OH225561   5.434   1.629   6.935  0.3263  0.1536  0.3009
 1309TIP3    H125562   5.353   1.655   6.890  0.8414  0.5842 -0.4048
 1309TIP3    H225563   5.489   1.593   6.865  0.4385 -0.8873  0.9157
 1310TIP3   OH225564   2.696   0.584   7.913 -0.2030  0.5296  0.5962
 1310TIP3    H125565   2.700   0.491   7.934  1.4427  0.5938  0.7425
 1310TIP3    H225566   2.689   0.587   7.818  0.4562  0.2448  0.5319
 1311TIP3   OH225567   3.902   1.337   0.238 -0.1292  0.0685  0.0696
 1311TIP3    H125568   3.868   1.377   0.158 -2.1626  1.0055  1.3245
 1311TIP3    H225569   3.864   1.389   0.309 -0.3288 -2.1769  1.7275
 1312TIP3   OH225570   1.802   5.543   7.375 -0.6164  0.1053  0.5357
 1312TIP3    H125571   1.811   5.449   7.391 -0.3639 -0.0885 -0.6809
 1312TIP3    H225572   1.742   5.550   7.302 -0.1956  0.8675  0.2463
 1313TIP3   OH225573   3.000   6.631   7.639 -0.2799  0.7031 -0.1198
 1313TIP3    H125574   2.929   6.596   7.693  0.8298  1.4092  1.8923
 1313TIP3    H225575   2.999   6.577   7.559 -2.8805  0.5427 -0.0552
 1314TIP3   OH225576   3.807   0.184   0.990  0.1678 -0.2397  0.0211
 1314TIP3    H125577   3.744   0.112   0.993  1.1309 -1.0923  0.3144
 1314TIP3    H225578   3.847   0.184   1.076 -0.4142  1.2240  0.3198
 1315TIP3   OH225579   0.596   4.960   2.186  0.8274 -0.0215 -0.1399
 1315TIP3    H125580   0.679   4.935   2.146 -0.1484 -0.3096 -2.1351
 1315TIP3    H225581   0.563   5.030   2.129  0.5848  1.4769  1.7426
 1316TIP3   OH225582   1.731   1.915   7.152 -0.3196 -0.3610  0.3852
 1316TIP3    H125583   1.649   1.886   7.191  0.0312  0.4116  1.7452
 1316TIP3    H225584   1.734   2.009   7.168  1.1639 -0.4776  1.0208
 1317TIP3   OH225585   5.814   1.144   7.693  0.0351  0.5482 -0.1878
 1317TIP3    H125586   5.872   1.144   7.617 -1.3211  0.5837 -1.2602
 1317TIP3    H225587   5.808   1.053   7.719 -0.7548  0.3039 -1.1520
 1318TIP3   OH225588   1.327   3.826   7.741  0.0259  0.5641  0.1578
 1318TIP3    H125589   1.349   3.775   7.663 -0.0846 -0.5732  0.8440
 1318TIP3    H225590   1.381   3.905   7.734  0.5617  0.1411 -0.6955
 1319TIP3   OH225591   2.434   3.584   0.822 -0.6451 -0.0568  0.4084
 1319TIP3    H125592   2.478   3.623   0.898 -1.1696  1.0279  0.1591
 1319TIP3    H225593   2.506   3.561   0.763 -0.3218  0.3871  0.6208
 1320TIP3   OH225594   2.763   1.096   1.828  0.2279  0.6001 -0.1225
 1320TIP3    H125595   2.752   1.121   1.919 -1.5957  1.3613 -0.5140
 1320TIP3    H225596   2.678   1.061   1.802  0.1429  2.0062 -1.9836
 1321TIP3   OH225597   4.899   3.575   7.244  0.2090 -0.6652  0.0395
 1321TIP3    H125598   4.812   3.569   7.284 -0.5151  0.3728 -1.3150
 1321TIP3    H225599   4.895   3.519   7.167  0.9711 -1.1111  0.3043
 1322TIP3   OH225600   2.298   3.885   1.308 -0.2722  0.4141 -0.0796
 1322TIP3    H125601   2.286   3.876   1.402  0.0066  1.1877  0.0316
 1322TIP3    H225602   2.209   3.876   1.272 -0.9854  3.6815  0.5516
 1323TIP3   OH225603   2.905   5.956   1.172 -0.3501  0.0008 -0.1639
 1323TIP3    H125604   2.864   5.920   1.094 -2.1656 -0.1583  0.8218
 1323TIP3    H225605   2.912   6.050   1.154 -1.2181  0.0400 -0.3480
 1324TIP3   OH225606   5.285   6.671   0.054  0.9392  0.3079 -0.2789
 1324TIP3    H125607   5.367   6.640   0.093  0.7269  0.6668  0.4685
 1324TIP3    H225608   5.312   6.707  -0.031  1.7055  1.1948  0.3121
 1325TIP3   OH225609   6.739   4.384   0.755  0.3366  0.8262 -0.3563
 1325TIP3    H125610   6.725   4.294   0.786 -1.2945  1.2115  0.1456
 1325TIP3    H225611   6.795   4.375   0.678 -2.5460 -0.9973 -2.4419
 1326TIP3   OH225612   6.024   6.377   0.841  0.2264  1.0078 -0.5235
 1326TIP3    H125613   6.095   6.314   0.830  0.3840  0.5076  2.6073
 1326TIP3    H225614   5.947   6.332   0.807  0.8800  0.4364 -1.2991
 1327TIP3   OH225615   6.425   6.520   7.707 -0.0468  0.9523  0.6711
 1327TIP3    H125616   6.408   6.501   7.615 -0.6131  1.7333  0.6090
 1327TIP3    H225617   6.453   6.435   7.744 -2.4264 -0.0298  0.3861
 1328TIP3   OH225618   1.634   3.549   1.630 -0.1091  0.4062  0.4358
 1328TIP3    H125619   1.571   3.478   1.622 -0.8563  1.0378  0.6375
 1328TIP3    H225620   1.663   3.567   1.541 -0.3747  0.2628  0.3215
 1329TIP3   OH225621   4.683   0.362   7.556  0.4642  0.3425  0.1629
 1329TIP3    H125622   4.733   0.420   7.499  1.9254 -0.3593  0.6773
 1329TIP3    H225623   4.740   0.351   7.633 -0.1838 -1.0361  0.4629
 1330TIP3   OH225624   4.802   2.248   8.247 -0.3907 -0.2636 -0.7800
 1330TIP3    H125625   4.870   2.188   8.277 -0.5861  0.8595  2.2007
 1330TIP3    H225626   4.849   2.322   8.210 -0.0846 -0.7679 -1.4132
 1331TIP3   OH225627   1.339   4.527   2.718 -0.4007  0.5385 -0.1683
 1331TIP3    H125628   1.267   4.585   2.696  0.1751  0.5732 -2.1389
 1331TIP3    H225629   1.411   4.586   2.741 -0.4358  0.5429 -0.0679
 1332TIP3   OH225630   2.875   0.854   0.479 -0.5690 -0.5096 -0.5183
 1332TIP3    H125631   2.853   0.832   0.388  0.4541  0.0448 -0.9229
 1332TIP3    H225632   2.882   0.950   0.479  1.8389 -0.6310 -0.4665
 1333TIP3   OH225633   2.685   5.672   8.219 -0.1204  0.3826 -0.7121
 1333TIP3    H125634   2.684   5.673   8.315  1.1766 -1.9685 -0.5991
 1333TIP3    H225635   2.749   5.739   8.195 -0.1399  0.6958  0.0781
 1334TIP3   OH225636   5.927   5.994   0.959  0.2946 -0.0137  0.1337
 1334TIP3    H125637   5.907   5.980   0.867 -0.1133  1.5784 -0.0531
 1334TIP3    H225638   6.022   5.991   0.965  0.2947 -0.9314 -0.1760
 1335TIP3   OH225639   0.915   1.525   7.607 -0.0238 -0.1426 -0.3565
 1335TIP3    H125640   0.929   1.432   7.590  1.2980 -0.3507  1.5130
 1335TIP3    H225641   0.984   1.549   7.669 -2.0901  1.3661  1.5307
 1336TIP3   OH225642   1.277   0.825   2.134 -0.2689 -0.3988 -0.2440
 1336TIP3    H125643   1.368   0.854   2.125  0.2466 -1.8532  0.0515
 1336TIP3    H225644   1.226   0.906   2.126  0.9162  0.2390 -2.2128
 1337TIP3   OH225645   4.539   1.607   1.260 -0.0303  0.2769 -0.3828
 1337TIP3    H125646   4.555   1.546   1.189  0.5145 -0.0847  0.0454
 1337TIP3    H225647   4.509   1.552   1.333  0.4729  0.5091  0.0075
 1338TIP3   OH225648   1.732   2.308   8.661  0.0663 -0.0180 -0.4589
 1338TIP3    H125649   1.788   2.236   8.633  1.4004  0.8421 -0.0694
 1338TIP3    H225650   1.672   2.269   8.725  1.5150 -0.5676  0.6084
 1339TIP3   OH225651   3.711   1.173   8.654  0.0913  0.0140 -0.4408
 1339TIP3    H125652   3.671   1.140   8.574  1.8023 -2.1076 -0.5325
 1339TIP3    H225653   3.802   1.191   8.631  0.2085  0.9325  0.6383
 1340TIP3   OH225654   2.288   0.617   2.318  0.1337 -0.2003 -0.1491
 1340TIP3    H125655   2.315   0.589   2.231  0.4990  0.9795 -0.4389
 1340TIP3    H225656   2.358   0.675   2.347 -0.2511 -0.1485  0.7065
 1341TIP3   OH225657   5.189   4.049   0.194 -0.7508  0.2105 -0.2887
 1341TIP3    H125658   5.222   4.046   0.283  0.0501  1.3799 -0.5239
 1341TIP3    H225659   5.210   4.138   0.163 -3.1144  0.6505 -0.8393
 1342TIP3   OH225660   5.221   5.093   8.575 -0.2860  0.1383 -0.2285
 1342TIP3    H125661   5.278   5.169   8.575 -0.9904  0.7401  2.1363
 1342TIP3    H225662   5.212   5.069   8.668 -0.6009 -2.4346 -0.8366
 1343TIP3   OH225663   2.405   6.718   7.192  0.1189 -0.5778 -0.2874
 1343TIP3    H125664   2.464   6.669   7.134 -0.4282 -2.0685  0.3793
 1343TIP3    H225665   2.358   6.651   7.241 -0.1804  0.6390  1.1487
 1344TIP3   OH225666   0.887   1.018   1.047 -0.1650  0.1799  0.2065
 1344TIP3    H125667   0.953   1.088   1.052  0.2994 -0.3487  2.1470
 1344TIP3    H225668   0.937   0.938   1.061 -1.1539 -0.2720  1.2064
 1345TIP3   OH225669   2.918   5.827   7.409 -0.8908  0.0882 -0.4731
 1345TIP3    H125670   2.967   5.818   7.491 -0.3083 -1.1371 -0.9202
 1345TIP3    H225671   2.849   5.762   7.416 -1.0530  0.2245 -0.8072
 1346TIP3   OH225672   6.467   5.413   7.473 -0.2227  0.5954 -0.1412
 1346TIP3    H125673   6.535   5.478   7.457 -0.6761  0.7541 -1.6071
 1346TIP3    H225674   6.480   5.347   7.405 -2.1640  1.1868 -1.1715
 1347TIP3   OH225675   2.391   4.891   2.180  0.6354 -0.2038 -0.0711
 1347TIP3    H125676   2.337   4.863   2.254  1.0294  2.3053  1.2612
 1347TIP3    H225677   2.480   4.867   2.205  0.9310  1.7001  0.9262
 1348TIP3   OH225678   2.791   5.472   8.688  0.4844  0.2021 -0.1905
 1348TIP3    H125679   2.752   5.401   8.738 -1.8189  0.2264 -1.7871
 1348TIP3    H225680   2.853   5.429   8.630 -0.1932 -0.4144 -0.4763
 1349TIP3   OH225681   1.173   4.179   7.794 -0.3025 -0.6243  0.0774
 1349TIP3    H125682   1.234   4.163   7.722  0.6669  0.2320  0.6946
 1349TIP3    H225683   1.151   4.271   7.787 -0.8980 -0.7413  0.3582
 1350TIP3   OH225684   3.642   2.815   6.335 -0.3478  0.6137  0.3420
 1350TIP3    H125685   3.733   2.788   6.324 -0.2048  1.7104 -1.6531
 1350TIP3    H225686   3.595   2.773   6.263 -1.2105  0.9128  0.7186
 1351TIP3   OH225687   4.799   3.207   0.344 -0.6976 -0.0654 -0.0558
 1351TIP3    H125688   4.863   3.155   0.296 -0.8299 -1.2140  0.9811
 1351TIP3    H225689   4.731   3.226   0.279 -0.5178 -0.9528 -0.5216
 1352TIP3   OH225690   1.292   2.490   1.669 -0.0886  0.2280 -0.8310
 1352TIP3    H125691   1.245   2.534   1.598 -0.5574 -0.5701 -1.0358
 1352TIP3    H225692   1.223   2.445   1.718  0.3325  0.0502 -0.3950
 1353TIP3   OH225693   3.669   3.109   7.530  0.3541  0.3655  0.3656
 1353TIP3    H125694   3.610   3.039   7.500 -0.3936  1.1596 -0.0694
 1353TIP3    H225695   3.736   3.114   7.462  0.9055 -0.4993  0.8289
 1354TIP3   OH225696   6.765   2.149   8.015  0.2036 -0.8854  0.1926
 1354TIP3    H125697   6.803   2.236   8.002  0.3954 -1.0696 -0.5234
 1354TIP3    H225698   6.800   2.120   8.100  0.7462 -0.5792  0.0803
 1355TIP3   OH225699   2.691   0.536   0.639  0.1703 -0.2103 -0.0096
 1355TIP3    H125700   2.729   0.449   0.623 -0.3622 -0.3544 -0.5329
 1355TIP3    H225701   2.598   0.526   0.619  0.1614  0.5636 -0.4063
 1356TIP3   OH225702   3.632   3.835   8.908 -0.2067 -0.0270  0.1571
 1356TIP3    H125703   3.618   3.928   8.891 -0.9228  0.0448  1.0431
 1356TIP3    H225704   3.689   3.806   8.837 -0.7779  0.8603 -0.6913
 1357TIP3   OH225705   4.347   2.214   8.044 -0.2184 -0.7223 -0.2413
 1357TIP3    H125706   4.336   2.306   8.019 -0.1990 -0.5590  0.3490
 1357TIP3    H225707   4.441   2.197   8.034 -0.2074 -0.6536 -0.2560
 1358TIP3   OH225708   6.790   1.229   7.466  0.3901  0.0016 -0.1443
 1358TIP3    H125709   6.746   1.259   7.545 -1.1017  0.7765 -1.1992
 1358TIP3    H225710   6.848   1.301   7.442 -0.0453  0.2818 -0.3794
 1359TIP3   OH225711   6.784   0.911   0.866  0.0719  0.2467 -0.3285
 1359TIP3    H125712   6.825   0.958   0.794 -0.7487  1.3881 -0.0789
 1359TIP3    H225713   6.803   0.819   0.848  0.6244  0.5711 -1.5275
 1360TIP3   OH225714   2.582   4.349   1.974  0.3649 -0.0760 -0.4356
 1360TIP3    H125715   2.667   4.391   1.959  0.9471 -0.0340  2.4970
 1360TIP3    H225716   2.603   4.263   2.009 -0.7942 -0.2362 -0.0895
 1361TIP3   OH225717   5.474   4.198   7.536 -0.1295  0.1525 -0.8417
 1361TIP3    H125718   5.537   4.155   7.592 -0.7202  0.2517 -0.0813
 1361TIP3    H225719   5.527   4.243   7.470  0.6172  0.5735  0.0206
 1362TIP3   OH225720   4.024   4.016   8.316  0.0957 -0.2300 -0.3732
 1362TIP3    H125721   4.114   4.016   8.348  0.2723  0.0248 -0.8607
 1362TIP3    H225722   4.026   4.074   8.240  0.0332 -2.0267 -1.8288
 1363TIP3   OH225723   4.895   0.855   0.908  0.0603 -0.2762  0.1074
 1363TIP3    H125724   4.813   0.904   0.915 -0.0603 -0.5367  0.5425
 1363TIP3    H225725   4.933   0.859   0.995  1.3792  1.3106 -0.4978
 1364TIP3   OH225726   1.724   0.050   0.061  0.6082 -0.3601 -0.2591
 1364TIP3    H125727   1.670   0.081  -0.012  0.8571  1.9491  0.4735
 1364TIP3    H225728   1.707  -0.044   0.065 -4.0824  0.3019  0.5002
 1365TIP3   OH225729   4.455   1.909   6.664 -0.7869 -0.5764  0.1635
 1365TIP3    H125730   4.361   1.901   6.678 -0.8458 -2.6315 -0.9341
 1365TIP3    H225731   4.480   1.824   6.627  1.1170  0.7129 -1.6894
 1366TIP3   OH225732   4.277   5.745   1.397 -0.3838 -0.3620 -0.2009
 1366TIP3    H125733   4.339   5.801   1.349 -0.8836  0.3925  0.0089
 1366TIP3    H225734   4.332   5.695   1.457  0.2477 -1.2484 -1.4679
 1367TIP3   OH225735   1.690   2.169   1.254 -0.0329 -0.1426  0.1258
 1367TIP3    H125736   1.766   2.186   1.199  0.3656 -0.5943  0.5361
 1367TIP3    H225737   1.617   2.210   1.207  0.3372 -0.3485 -0.6344
 1368TIP3   OH225738   3.023   0.651   0.993 -0.0000  0.3876 -0.5859
 1368TIP3    H125739   2.963   0.593   1.040  0.9539  0.5372  0.8804
 1368TIP3    H225740   3.025   0.731   1.045 -0.8615  1.5867 -2.2742
 1369TIP3   OH225741   4.297   4.327   6.717 -0.3819 -0.4047 -0.0814
 1369TIP3    H125742   4.352   4.343   6.793 -1.1854 -2.2451  0.9642
 1369TIP3    H225743   4.245   4.407   6.707  1.7682  1.0103 -0.5454
 1370TIP3   OH225744   4.302   1.471   6.998 -0.3342  0.2864 -0.1801
 1370TIP3    H125745   4.376   1.468   7.059 -0.0830  2.4573 -0.3025
 1370TIP3    H225746   4.301   1.561   6.966 -0.7144 -0.6397 -3.0804
 1371TIP3   OH225747   5.918   3.634   1.286 -0.0448 -0.1156  0.5141
 1371TIP3    H125748   5.904   3.548   1.326 -1.4898 -0.6260 -0.9987
 1371TIP3    H225749   5.995   3.623   1.230 -1.1964 -0.9322 -0.9590
 1372TIP3   OH225750   1.032   3.571   0.052  0.0869  0.8484  0.0239
 1372TIP3    H125751   1.016   3.612   0.137  0.1898 -0.8789  0.9174
 1372TIP3    H225752   1.096   3.503   0.070 -0.9499 -0.4991 -1.1780
 1373TIP3   OH225753   0.534   2.953   8.698 -0.8399  0.3701  0.2769
 1373TIP3    H125754   0.613   2.998   8.728 -1.5148  1.8005 -0.0520
 1373TIP3    H225755   0.538   2.868   8.742 -0.5173  1.4341  2.4406
 1374TIP3   OH225756   2.311   6.661   7.662 -0.0713 -0.0989 -0.1131
 1374TIP3    H125757   2.339   6.750   7.684  1.3390 -0.3101 -0.9138
 1374TIP3    H225758   2.370   6.635   7.592  0.9167 -2.4287  1.4716
 1375TIP3   OH225759   4.520   0.710   7.712  0.3312  0.2204 -0.0233
 1375TIP3    H125760   4.533   0.615   7.717  1.8432  0.3789 -0.4906
 1375TIP3    H225761   4.588   0.741   7.652 -0.9019  1.4650 -0.8385
 1376TIP3   OH225762   2.180   6.520   7.231  0.1365 -0.2542  0.0863
 1376TIP3    H125763   2.179   6.470   7.312 -3.1597 -1.0073 -0.2929
 1376TIP3    H225764   2.236   6.469   7.172  2.5869  0.3068  1.7499
 1377TIP3   OH225765   4.237   1.491   0.826  0.1567  0.0851 -1.3724
 1377TIP3    H125766   4.290   1.570   0.839  1.7245 -1.0861 -0.1799
 1377TIP3    H225767   4.212   1.464   0.914 -0.9576 -0.3753 -1.8127
 1378TIP3   OH225768   0.716   6.017   0.922 -0.1350 -0.5091 -0.1134
 1378TIP3    H125769   0.670   6.086   0.875  0.3981 -0.3768 -0.4466
 1378TIP3    H225770   0.702   5.938   0.869  0.4402 -0.3663 -0.4872
 1379TIP3   OH225771   5.274   0.748   6.921  0.1959  0.4103 -0.1117
 1379TIP3    H125772   5.194   0.798   6.940  0.3141  0.8253 -0.7020
 1379TIP3    H225773   5.256   0.703   6.839  0.3574  0.0365  0.0522
 1380TIP3   OH225774   1.720   3.198   0.992 -0.0155 -0.0431 -0.6678
 1380TIP3    H125775   1.778   3.263   0.953 -0.5791  0.6818 -0.3222
 1380TIP3    H225776   1.641   3.201   0.938 -1.1514  1.5850  0.9452
 1381TIP3   OH225777   1.123   2.840   7.442  0.3642  0.7599 -0.0021
 1381TIP3    H125778   1.169   2.924   7.444 -0.6428  1.3181  1.0860
 1381TIP3    H225779   1.052   2.850   7.506 -2.4562  0.6309 -2.8662
 1382TIP3   OH225780   3.434   1.337   7.117 -0.4394 -0.8880 -0.1576
 1382TIP3    H125781   3.455   1.380   7.035 -0.7880 -1.7465 -0.7171
 1382TIP3    H225782   3.343   1.359   7.134 -0.6857 -1.5580 -0.5597
 1383TIP3   OH225783   0.853   5.787   8.467  0.5468 -0.0877 -0.1499
 1383TIP3    H125784   0.868   5.874   8.505 -1.1805  0.5774 -0.8978
 1383TIP3    H225785   0.810   5.737   8.537  0.2127  0.1336 -0.1959
 1384TIP3   OH225786   0.919   3.398   2.659 -0.0412  0.4004  0.0324
 1384TIP3    H125787   0.824   3.399   2.644  0.0063 -0.1908 -0.3964
 1384TIP3    H225788   0.953   3.344   2.587  0.4524 -0.7022  1.0551
 1385TIP3   OH225789   0.971   6.175   7.833  0.8218 -0.9793 -0.7764
 1385TIP3    H125790   0.966   6.157   7.739 -0.2646 -1.5083 -0.6424
 1385TIP3    H225791   0.885   6.212   7.854  1.8875  1.4608 -0.4334
 1386TIP3   OH225792   3.009   5.574   7.265 -0.4126 -0.3767  0.1401
 1386TIP3    H125793   3.010   5.655   7.317 -0.7698  0.2244 -0.7583
 1386TIP3    H225794   3.001   5.504   7.330 -0.0090  0.3004  0.9407
 1387TIP3   OH225795   2.271   6.098   7.425 -0.2916 -0.2541 -0.5813
 1387TIP3    H125796   2.331   6.107   7.351 -0.7642 -2.7614 -1.3650
 1387TIP3    H225797   2.326   6.114   7.502  0.3642  1.7059 -1.3922
 1388TIP3   OH225798   5.988   3.572   8.878  0.2835 -0.1738 -0.2586
 1388TIP3    H125799   6.056   3.639   8.872  1.1655 -0.9953  0.2419
 1388TIP3    H225800   5.988   3.531   8.792  0.1057  0.1249 -0.4016
 1389TIP3   OH225801   0.377   1.625   1.611  0.2405  0.6355  0.7219
 1389TIP3    H125802   0.403   1.708   1.570  0.9100  0.1104  0.0561
 1389TIP3    H225803   0.451   1.604   1.669  0.1732  0.3903  0.7186
 1390TIP3   OH225804   0.393   2.615   0.598  0.0232 -0.2275  0.3699
 1390TIP3    H125805   0.425   2.555   0.665  0.1674  0.8792  1.3168
 1390TIP3    H225806   0.317   2.571   0.561 -0.2666 -0.7138  1.4955
 1391TIP3   OH225807   1.436   4.645   1.734 -0.0798 -0.4641 -0.1300
 1391TIP3    H125808   1.448   4.712   1.667 -1.0291  0.8337  0.9321
 1391TIP3    H225809   1.477   4.681   1.812  0.5017 -1.6963  0.1528
 1392TIP3   OH225810   5.926   3.440   8.604 -0.0197 -0.2328 -0.2316
 1392TIP3    H125811   5.929   3.351   8.571 -0.6003 -1.3568  2.4624
 1392TIP3    H225812   5.934   3.495   8.526 -0.1089 -2.6035 -2.0249
 1393TIP3   OH225813   1.014   1.640   7.367  0.1513 -0.0405  0.5085
 1393TIP3    H125814   0.990   1.613   7.279  0.3862  1.7303 -0.1173
 1393TIP3    H225815   0.956   1.589   7.424  0.1553 -1.3716 -0.6285
 1394TIP3   OH225816   0.923   5.012   7.245  0.3910 -0.3909  0.3728
 1394TIP3    H125817   0.955   4.924   7.226  1.1865 -0.7851  3.0378
 1394TIP3    H225818   0.976   5.069   7.189  1.0041 -1.5150 -0.2234
 1395TIP3   OH225819   5.570   4.471   8.734 -0.3113 -0.4341 -0.2885
 1395TIP3    H125820   5.560   4.399   8.797 -3.3008  0.4825  0.4417
 1395TIP3    H225821   5.498   4.460   8.672 -1.7541  2.5846  0.6348
 1396TIP3   OH225822   6.307   2.488   1.658 -0.4145 -0.0414  0.0766
 1396TIP3    H125823   6.334   2.561   1.713 -0.0506  0.4195 -0.6916
 1396TIP3    H225824   6.319   2.520   1.568  1.3671 -1.5900 -0.3029
 1397TIP3   OH225825   1.326   6.103   7.293  0.0716 -0.3457  0.1147
 1397TIP3    H125826   1.366   6.185   7.322 -2.7102  1.6200 -1.1120
 1397TIP3    H225827   1.267   6.079   7.365 -0.0406 -0.5829 -0.0562
 1398TIP3   OH225828   4.720   2.245   7.158 -0.1421 -0.3717 -0.1502
 1398TIP3    H125829   4.790   2.208   7.104 -1.0679 -0.9368 -0.9762
 1398TIP3    H225830   4.696   2.326   7.115  1.0443  0.6525  0.9975
 1399TIP3   OH225831   4.286   4.588   1.584 -0.0818  0.1872  0.1075
 1399TIP3    H125832   4.255   4.679   1.585  1.2972  0.6814 -0.3056
 1399TIP3    H225833   4.267   4.558   1.495  1.5364  0.8458 -0.4978
 1400TIP3   OH225834   5.437   1.125   0.486  0.1745  0.3866  0.5283
 1400TIP3    H125835   5.459   1.094   0.398 -1.8277  0.8950 -0.2271
 1400TIP3    H225836   5.516   1.169   0.517  1.4941 -1.3199 -0.2817
 1401TIP3   OH225837   1.689   3.067   6.558 -0.5584 -0.0256 -0.1975
 1401TIP3    H125838   1.635   3.136   6.520 -0.2862  1.3582  1.7977
 1401TIP3    H225839   1.747   3.112   6.619  0.2091 -1.9255  0.5614
 1402TIP3   OH225840   3.802   2.747   1.017  0.1656  0.3311 -0.0966
 1402TIP3    H125841   3.831   2.832   0.985  2.2811 -0.5406 -0.6327
 1402TIP3    H225842   3.712   2.738   0.984  0.5709  1.5356 -1.6234
 1403TIP3   OH225843   6.215   5.796   7.780  0.0867 -0.5918  0.0313
 1403TIP3    H125844   6.299   5.750   7.773 -1.1428 -2.6061 -2.8115
 1403TIP3    H225845   6.204   5.838   7.695 -1.9668 -0.6722  0.2274
 1404TIP3   OH225846   6.730   4.886   2.235 -0.2331  0.0308  0.2532
 1404TIP3    H125847   6.717   4.980   2.220 -0.4712  0.0746  0.7265
 1404TIP3    H225848   6.753   4.879   2.328  2.6675 -0.1022 -0.3777
 1405TIP3   OH225849   4.201   6.149   6.737  0.0902  0.2248 -0.1239
 1405TIP3    H125850   4.203   6.213   6.808  1.3696 -0.6590  0.6646
 1405TIP3    H225851   4.199   6.202   6.657 -3.2687  1.2981  0.4733
 1406TIP3   OH225852   1.255   1.679   8.597 -0.4324  0.4073  0.0973
 1406TIP3    H125853   1.290   1.725   8.521  1.9095  2.3956  2.1754
 1406TIP3    H225854   1.198   1.742   8.640  0.7901  0.5249  1.6360
 1407TIP3   OH225855   6.360   6.141   7.893  0.1844  0.2122  0.2804
 1407TIP3    H125856   6.366   6.091   7.974  0.9514  2.0912  1.4411
 1407TIP3    H225857   6.266   6.146   7.875  0.0423 -0.6701  0.7317
 1408TIP3   OH225858   1.816   1.112   7.396 -0.1264  0.1358  0.1513
 1408TIP3    H125859   1.859   1.092   7.478 -0.4617  0.0498  0.3074
 1408TIP3    H225860   1.775   1.030   7.369 -0.6960  0.3647  0.3072
 1409TIP3   OH225861   1.928   4.376   7.445 -0.3717 -0.2059  0.0022
 1409TIP3    H125862   1.993   4.312   7.474  0.3384  0.2213 -0.6170
 1409TIP3    H225863   1.879   4.330   7.376  0.4023  0.0416 -0.7259
 1410TIP3   OH225864   6.703   3.196   0.627  0.1730  0.6346  0.0719
 1410TIP3    H125865   6.719   3.110   0.666 -1.0823  0.1257 -0.5098
 1410TIP3    H225866   6.610   3.196   0.605 -0.0142  2.4248  0.7312
 1411TIP3   OH225867   1.235   0.041   1.313 -0.3350  0.7834  0.1287
 1411TIP3    H125868   1.225  -0.054   1.316 -1.6928  0.8968 -0.1002
 1411TIP3    H225869   1.208   0.070   1.400  0.8885  0.9193  0.4864
 1412TIP3   OH225870   0.615   6.686   2.086 -0.3726  0.8297  0.3745
 1412TIP3    H125871   0.710   6.685   2.095 -0.3354 -1.1140  0.1411
 1412TIP3    H225872   0.582   6.685   2.176 -0.1177 -1.4646  0.4879
 1413TIP3   OH225873   0.002   2.117   2.314  0.0894  0.4134  0.5400
 1413TIP3    H125874  -0.041   2.054   2.373 -0.7229 -0.7171 -1.2009
 1413TIP3    H225875   0.095   2.095   2.321 -0.0067  0.1700  1.2382
 1414TIP3   OH225876   1.967   4.742   1.547  0.0915 -0.5574 -0.2582
 1414TIP3    H125877   2.008   4.754   1.632  0.8578  1.7053 -0.8527
 1414TIP3    H225878   1.891   4.801   1.549 -1.4188 -2.4223 -0.2608
 1415TIP3   OH225879   1.495   4.814   7.997  0.0671  0.7191  0.2741
 1415TIP3    H125880   1.503   4.838   7.905  0.0790  0.9805  0.3410
 1415TIP3    H225881   1.584   4.825   8.032 -0.4911  3.7293  1.0458
 1416TIP3   OH225882   4.298   1.344   7.587  0.6040  0.1033 -0.0858
 1416TIP3    H125883   4.262   1.416   7.639 -0.9373 -0.6145 -0.1012
 1416TIP3    H225884   4.245   1.344   7.507  0.4430 -1.1747  0.0098
 1417TIP3   OH225885   6.526   2.674   8.658  0.7600  1.0437  0.3023
 1417TIP3    H125886   6.447   2.663   8.606 -0.1106 -0.1803  1.7742
 1417TIP3    H225887   6.498   2.727   8.733  0.9463 -0.5116  1.5209
 1418TIP3   OH225888   3.653   3.173   1.707  0.0143  0.0784  0.2841
 1418TIP3    H125889   3.740   3.148   1.674 -0.0950  0.9882 -0.7508
 1418TIP3    H225890   3.629   3.249   1.654 -1.7200 -0.5843  0.0682
 1419TIP3   OH225891   1.019   4.660   1.942 -0.2955  1.0749  0.2086
 1419TIP3    H125892   0.970   4.631   1.865  0.6863  1.7143 -0.6924
 1419TIP3    H225893   1.106   4.682   1.908  0.9629 -0.9276  1.8936
 1420TIP3   OH225894   0.389   4.582   6.920 -0.3818 -0.0831 -0.3951
 1420TIP3    H125895   0.470   4.631   6.906  0.1349 -1.3097 -1.9831
 1420TIP3    H225896   0.397   4.548   7.009  0.1728  0.9844 -0.0158
 1421TIP3   OH225897   4.851   3.833   1.010 -0.0892  0.4233  0.6854
 1421TIP3    H125898   4.868   3.760   0.952  2.6178  1.1031  0.4801
 1421TIP3    H225899   4.916   3.825   1.079 -0.2159  2.2080  1.0781
 1422TIP3   OH225900   4.099   3.117   8.633  0.5534 -0.1989 -0.5455
 1422TIP3    H125901   4.066   3.104   8.722  1.0570  2.2091  0.0438
 1422TIP3    H225902   4.021   3.118   8.578  0.0247  0.8305  0.2155
 1423TIP3   OH225903   1.697   4.637   8.246  0.6002  0.2814  0.7161
 1423TIP3    H125904   1.770   4.576   8.252  0.6649  0.2934  0.1144
 1423TIP3    H225905   1.625   4.585   8.212  0.4383  0.3654  0.9231
 1424TIP3   OH225906   2.383   6.263   1.168  0.1786 -0.0780  0.1554
 1424TIP3    H125907   2.390   6.221   1.254 -1.2333 -1.8573 -0.5181
 1424TIP3    H225908   2.473   6.283   1.143  0.6665 -0.1552  1.7447
 1425TIP3   OH225909   5.209   3.761   7.068  0.0037  0.5227 -0.0835
 1425TIP3    H125910   5.198   3.849   7.105 -0.6082  0.0653  0.8709
 1425TIP3    H225911   5.184   3.770   6.976 -0.8105  1.1981  0.1897
 1426TIP3   OH225912   1.279   1.659   7.449  0.1378 -0.5432  0.4489
 1426TIP3    H125913   1.334   1.601   7.396  0.6919  0.9640 -0.6734
 1426TIP3    H225914   1.200   1.671   7.397  0.7318  1.0412 -0.1442
 1427TIP3   OH225915   6.273   4.338   7.989 -0.7144  0.1006 -0.2354
 1427TIP3    H125916   6.290   4.298   7.903 -0.8168 -0.2444 -0.0967
 1427TIP3    H225917   6.189   4.383   7.979 -0.8211 -0.1020 -0.2623
 1428TIP3   OH225918   1.196   0.293   1.455  0.4716  0.5889  0.0998
 1428TIP3    H125919   1.226   0.363   1.513  0.8574  2.0483 -1.7459
 1428TIP3    H225920   1.273   0.268   1.405  0.5384 -1.8003  1.2399
 1429TIP3   OH225921   1.053   6.572   8.698 -0.0814  0.0642 -0.1607
 1429TIP3    H125922   1.105   6.515   8.754 -1.3839 -1.2418 -0.1940
 1429TIP3    H225923   1.094   6.565   8.612 -1.1459 -2.2671 -0.5809
 1430TIP3   OH225924   6.558   3.820   1.671  0.0644 -0.0255 -0.2902
 1430TIP3    H125925   6.471   3.827   1.631  0.1549  0.8225 -0.3549
 1430TIP3    H225926   6.545   3.765   1.748 -0.8213  1.2594  0.5077
 1431TIP3   OH225927   2.427   2.299   0.495  0.3806 -0.0569  0.3023
 1431TIP3    H125928   2.442   2.223   0.440 -1.0468  0.3117 -0.6702
 1431TIP3    H225929   2.336   2.290   0.525  0.2400  1.1570  0.3172
 1432TIP3   OH225930   3.490   0.642   1.682  0.2493  0.6538  0.6458
 1432TIP3    H125931   3.453   0.730   1.679  1.5940  1.2324  0.3958
 1432TIP3    H225932   3.495   0.615   1.590 -1.4629 -0.2972  0.7702
 1433TIP3   OH225933   0.406   4.886   8.211 -0.0456  0.3671  0.2743
 1433TIP3    H125934   0.479   4.914   8.267  0.0573  0.9955 -0.1654
 1433TIP3    H225935   0.328   4.914   8.258  0.0139  0.1509  0.5021
 1434TIP3   OH225936   0.811   2.437   7.584 -0.1917 -0.2131 -0.3405
 1434TIP3    H125937   0.860   2.481   7.514  1.9724 -0.4606  0.9063
 1434TIP3    H225938   0.814   2.344   7.561  2.4223 -0.5692  1.0308
 1435TIP3   OH225939   1.516   2.500   1.456 -0.0940 -0.2656 -0.1539
 1435TIP3    H125940   1.462   2.532   1.528 -0.6839  1.3342 -1.2385
 1435TIP3    H225941   1.453   2.475   1.388  0.4817 -0.1266 -0.7506
 1436TIP3   OH225942   3.398   1.668   6.735  0.3256  0.0583 -0.1471
 1436TIP3    H125943   3.428   1.643   6.648 -0.2412 -1.1270 -0.0292
 1436TIP3    H225944   3.342   1.744   6.721  0.2258 -0.1348 -0.8312
 1437TIP3   OH225945   6.106   4.967   0.236  0.5665 -0.1041 -0.0893
 1437TIP3    H125946   6.134   5.013   0.316 -1.8697 -1.7683  1.8627
 1437TIP3    H225947   6.051   5.031   0.191  0.2798  0.1781  0.6370
 1438TIP3   OH225948   1.450   5.599   2.069 -0.3940  0.4187 -0.1271
 1438TIP3    H125949   1.492   5.553   1.996 -1.7800 -0.3380 -0.4824
 1438TIP3    H225950   1.485   5.688   2.065  0.8622 -0.0721 -0.6344
 1439TIP3   OH225951   2.495   1.607   1.355  0.0974  0.0527 -0.0118
 1439TIP3    H125952   2.444   1.578   1.280  2.4627  3.0291 -3.0881
 1439TIP3    H225953   2.573   1.550   1.354 -0.7796 -1.2867  1.6583
 1440TIP3   OH225954   4.887   4.049   7.420 -0.0758 -0.3150 -0.2653
 1440TIP3    H125955   4.903   3.955   7.429 -0.6451 -0.2863  1.2892
 1440TIP3    H225956   4.870   4.079   7.509  2.5249  1.7305 -0.3149
 1441TIP3   OH225957   3.337   2.613   1.707  0.6796 -0.0549 -0.2298
 1441TIP3    H125958   3.301   2.686   1.657  1.4248  0.6170  0.1933
 1441TIP3    H225959   3.317   2.536   1.654 -1.3682  0.2716 -0.0088
 1442TIP3   OH225960   3.459   2.014   7.580 -0.0713 -0.9602  0.4030
 1442TIP3    H125961   3.529   2.018   7.644 -0.8580  1.0841  1.1993
 1442TIP3    H225962   3.380   1.998   7.631 -0.5670 -0.3998 -0.1676
 1443TIP3   OH225963   5.512   6.130   1.949 -0.1215 -0.3334 -0.0836
 1443TIP3    H125964   5.519   6.225   1.946 -3.3063  0.0116  0.0065
 1443TIP3    H225965   5.504   6.109   2.042  0.0475 -0.6177 -0.1336
 1444TIP3   OH225966   1.228   0.501   8.368  0.3746  0.1777  0.1854
 1444TIP3    H125967   1.269   0.542   8.444  2.0537  0.8763 -1.0311
 1444TIP3    H225968   1.199   0.416   8.400  2.9670 -0.4400  1.1345
 1445TIP3   OH225969   3.658   5.329   2.328  0.1762 -0.3405 -0.1638
 1445TIP3    H125970   3.679   5.245   2.368 -0.4854 -0.8371 -0.8330
 1445TIP3    H225971   3.730   5.344   2.266  0.2567 -0.4519 -0.0975
 1446TIP3   OH225972   0.744   5.955   1.736  0.4861 -0.5878 -0.0977
 1446TIP3    H125973   0.819   5.969   1.795 -0.1370 -0.3801  0.6608
 1446TIP3    H225974   0.679   6.020   1.764  0.0565 -0.6950 -0.8173
 1447TIP3   OH225975   2.756   2.104   2.166 -0.3520  0.3087 -0.1776
 1447TIP3    H125976   2.769   2.019   2.123  0.6712  0.5783 -0.4325
 1447TIP3    H225977   2.825   2.160   2.130  1.2537  0.2683  2.5618
 1448TIP3   OH225978   4.706   6.761   8.725  0.2259  0.0382 -0.3231
 1448TIP3    H125979   4.647   6.835   8.735  1.2184  0.5982  2.1607
 1448TIP3    H225980   4.792   6.795   8.752  1.0007 -1.6114 -0.5890
 1449TIP3   OH225981   1.162   6.065   7.996 -0.5141  0.5151  0.2692
 1449TIP3    H125982   1.105   6.100   7.928  0.6945  0.7533 -0.6469
 1449TIP3    H225983   1.164   5.970   7.980  1.0616  0.7373 -1.0925
 1450TIP3   OH225984   4.598   0.146   1.382 -0.5380 -0.2535  0.4495
 1450TIP3    H125985   4.563   0.233   1.366 -1.7183 -1.1888 -2.6929
 1450TIP3    H225986   4.683   0.146   1.338 -0.0338 -0.3872  1.3948
 1451TIP3   OH225987   2.369   6.535   0.703  0.5595  0.3076 -0.1581
 1451TIP3    H125988   2.326   6.529   0.618 -0.8886  2.2763  0.3683
 1451TIP3    H225989   2.393   6.444   0.724 -1.6334 -0.6372 -1.3724
 1452TIP3   OH225990   0.970   1.335   7.888 -0.3017  0.2301  0.2425
 1452TIP3    H125991   0.965   1.431   7.883 -1.8151  0.1505 -0.0067
 1452TIP3    H225992   0.915   1.312   7.963  1.3856 -0.3641  1.3673
 1453TIP3   OH225993   0.726   6.389   2.605 -0.3145  0.0435 -0.5555
 1453TIP3    H125994   0.654   6.329   2.625  0.1889 -1.5396 -3.0377
 1453TIP3    H225995   0.710   6.416   2.515  0.5202  2.2015 -0.0989
 1454TIP3   OH225996   3.959   3.826   0.144  0.3707  0.7138  0.1289
 1454TIP3    H125997   3.999   3.911   0.124  0.0506  1.3699  2.0965
 1454TIP3    H225998   3.902   3.843   0.219  1.4640 -1.5299  1.5722
 1455TIP3   OH225999   5.182   0.910   2.240  0.2419  0.5227 -0.0001
 1455TIP3    H126000   5.118   0.965   2.195 -0.4179  0.6348  1.0558
 1455TIP3    H226001   5.234   0.872   2.170  0.0266  1.6569 -0.8098
 1456TIP3   OH226002   4.599   3.261   0.145  0.0830  0.3328  0.0692
 1456TIP3    H126003   4.564   3.189   0.092  1.9975  0.3961 -1.4206
 1456TIP3    H226004   4.602   3.336   0.085 -0.3183  1.2263  1.1198
 1457TIP3   OH226005   5.494   3.198   0.034 -0.0287 -0.2870 -0.4707
 1457TIP3    H126006   5.485   3.289   0.063 -0.7388  0.1991 -2.1208
 1457TIP3    H226007   5.512   3.204  -0.060 -1.3253 -1.8729 -0.8674
 1458TIP3   OH226008   1.109   3.419   6.453  0.3108 -0.0299 -0.4459
 1458TIP3    H126009   1.076   3.333   6.481  0.0271 -0.1219 -1.0428
 1458TIP3    H226010   1.191   3.430   6.501 -1.4614  1.0706  2.6816
 1459TIP3   OH226011   2.869   6.528   8.284 -0.3040  0.3489  0.0401
 1459TIP3    H126012   2.873   6.567   8.371  1.0327  0.2734  0.0321
 1459TIP3    H226013   2.787   6.478   8.284 -0.0574 -0.1170  1.4556
 1460TIP3   OH226014   0.467   2.388   7.547 -0.2091  0.0426 -0.1819
 1460TIP3    H126015   0.437   2.473   7.515  0.0698  1.0172  1.9353
 1460TIP3    H226016   0.509   2.408   7.631 -0.9670 -2.3014  0.8367
 1461TIP3   OH226017   0.503   0.765   0.248 -0.7867 -0.0977  0.9935
 1461TIP3    H126018   0.587   0.744   0.206  0.4406  1.6346  2.3876
 1461TIP3    H226019   0.447   0.690   0.229  0.5497 -0.6045 -1.3362
 1462TIP3   OH226020   2.371   0.102   7.808  0.6069 -0.1792 -0.2797
 1462TIP3    H126021   2.463   0.078   7.814  0.2041 -2.8826 -3.0353
 1462TIP3    H226022   2.368   0.173   7.744  0.9648  2.3998  2.3117
 1463TIP3   OH226023   6.100   5.700   2.146  0.5445  0.3142  0.1172
 1463TIP3    H126024   6.016   5.664   2.175 -0.1535  2.6306  1.1345
 1463TIP3    H226025   6.076   5.766   2.081  1.5662  1.0180  0.4424
 1464TIP3   OH226026   3.108   2.399   7.001  0.1904  0.4367  0.3264
 1464TIP3    H126027   3.034   2.458   6.985  0.1969  0.5659  0.7690
 1464TIP3    H226028   3.154   2.395   6.917  0.9045  2.0513  0.6032
 1465TIP3   OH226029   5.350   6.705   1.003  0.0293 -0.5658  0.4322
 1465TIP3    H126030   5.265   6.696   0.959 -0.3976  1.0331  0.8704
 1465TIP3    H226031   5.412   6.659   0.946 -1.1194 -1.7611  0.1049
 1466TIP3   OH226032   1.114   4.535   0.401 -0.2172 -0.1887 -0.3019
 1466TIP3    H126033   1.087   4.526   0.492 -0.4026  1.5024 -0.1559
 1466TIP3    H226034   1.034   4.556   0.353  0.0739  0.1305 -0.6565
 1467TIP3   OH226035   3.262   0.276   8.284 -0.1575  0.1106 -0.3305
 1467TIP3    H126036   3.226   0.210   8.344 -0.7847  0.7921  0.0689
 1467TIP3    H226037   3.298   0.344   8.342 -1.0554  0.9285 -0.7010
 1468TIP3   OH226038   5.505   5.984   6.976 -0.0430  0.1891  0.1475
 1468TIP3    H126039   5.586   5.955   7.017 -0.7913 -1.8153  0.3407
 1468TIP3    H226040   5.481   6.063   7.024  1.7863  0.8550  0.0480
 1469TIP3   OH226041   6.451   0.697   2.239  0.3586  0.0223  0.9024
 1469TIP3    H126042   6.464   0.753   2.316 -2.5075 -0.7718  2.0712
 1469TIP3    H226043   6.414   0.755   2.173  1.7466  0.4451  0.4495
 1470TIP3   OH226044   5.953   0.004   1.467 -0.2077 -0.2268  0.1195
 1470TIP3    H126045   5.918  -0.085   1.461 -1.7227  0.1529  2.1847
 1470TIP3    H226046   5.876   0.060   1.461  0.6028  0.9032 -0.0001
 1471TIP3   OH226047   2.902   0.812   0.178 -0.3461 -0.2363 -0.3073
 1471TIP3    H126048   2.936   0.901   0.189  1.0068 -0.8224  0.5590
 1471TIP3    H226049   2.963   0.772   0.115 -0.1692 -0.9344  0.2984
 1472TIP3   OH226050   3.171   4.818   0.645  0.0390 -0.2394  0.0765
 1472TIP3    H126051   3.214   4.745   0.601 -2.2342 -1.6305 -0.0206
 1472TIP3    H226052   3.143   4.783   0.729 -1.6224  0.2759 -0.2126
 1473TIP3   OH226053   0.504   2.385   1.477  0.1127  0.5434 -0.4675
 1473TIP3    H126054   0.505   2.364   1.570  1.4888  2.0865 -0.0832
 1473TIP3    H226055   0.413   2.374   1.451 -0.6893  1.9389  1.5256
 1474TIP3   OH226056   2.731   3.257   8.353  0.3310 -0.0065 -0.0131
 1474TIP3    H126057   2.674   3.333   8.366  1.6553  1.2367 -1.0315
 1474TIP3    H226058   2.676   3.192   8.310 -0.6157  0.7160  0.0869
 1475TIP3   OH226059   3.958   6.616   0.565 -0.2692  0.5805 -0.1845
 1475TIP3    H126060   3.938   6.660   0.483 -0.1896 -0.1814 -0.6161
 1475TIP3    H226061   3.873   6.584   0.597 -0.0987 -0.5432 -0.8017
 1476TIP3   OH226062   6.042   4.155   7.869 -0.0246  0.3993  0.1950
 1476TIP3    H126063   5.998   4.139   7.952  0.9079 -0.3994  0.5498
 1476TIP3    H226064   5.971   4.176   7.808 -1.3859 -3.9118 -0.0319
 1477TIP3   OH226065   4.822   1.707   6.767 -0.2697 -0.9213 -0.5114
 1477TIP3    H126066   4.827   1.632   6.827  1.7851 -0.4397 -0.0322
 1477TIP3    H226067   4.814   1.783   6.824 -3.0761 -0.7185 -1.0011
 1478TIP3   OH226068   2.606   0.847   0.293  0.0711  0.2312 -0.2883
 1478TIP3    H126069   2.685   0.851   0.238  1.0667  0.7042  1.1235
 1478TIP3    H226070   2.566   0.763   0.270  1.3357 -0.3167 -0.5945
 1479TIP3   OH226071   0.293   2.536   8.133  0.0020  0.1828  0.1480
 1479TIP3    H126072   0.311   2.484   8.055 -0.6826  1.3176 -0.8063
 1479TIP3    H226073   0.360   2.605   8.131  0.9834 -0.6732  1.4686
 1480TIP3   OH226074   2.026   3.677   1.247  0.4383 -0.7269  0.0346
 1480TIP3    H126075   2.012   3.635   1.332  0.5289 -1.9161 -0.5247
 1480TIP3    H226076   2.113   3.649   1.220  1.0677  0.9037  0.2311
 1481TIP3   OH226077   5.817   1.496   8.698 -0.6363  0.0200 -0.1423
 1481TIP3    H126078   5.912   1.501   8.685 -0.6612  4.0066 -0.0167
 1481TIP3    H226079   5.807   1.470   8.790  0.3345 -0.3446 -0.1306
 1482TIP3   OH226080   4.121   3.908   1.267 -0.0290  0.1989 -0.0052
 1482TIP3    H126081   4.133   3.830   1.212  1.3026 -0.4370  1.1314
 1482TIP3    H226082   4.199   3.961   1.250 -0.5966  0.9609 -0.2498
 1483TIP3   OH226083   3.657   4.759   0.925  0.1795  0.1236 -0.3191
 1483TIP3    H126084   3.713   4.820   0.877 -2.1837  3.2552  0.5214
 1483TIP3    H226085   3.669   4.782   1.017 -0.7880 -0.7162  0.0416
 1484TIP3   OH226086   5.425   3.225   7.087 -0.0694 -0.1919  0.5525
 1484TIP3    H126087   5.402   3.270   7.005  0.6312 -0.8068  0.0019
 1484TIP3    H226088   5.343   3.185   7.116 -0.0287 -1.1880 -0.6316
 1485TIP3   OH226089   5.927   5.506   1.867 -0.0992 -0.4928  0.2539
 1485TIP3    H126090   5.892   5.536   1.783  1.2487  2.4766  0.6343
 1485TIP3    H226091   5.851   5.504   1.925 -0.5100  0.8137 -0.1955
 1486TIP3   OH226092   2.166   0.723   1.521  0.4833 -0.3622  0.3168
 1486TIP3    H126093   2.089   0.671   1.543  0.5505  0.1633  1.9053
 1486TIP3    H226094   2.237   0.682   1.571  1.9953 -2.7037 -3.3226
 1487TIP3   OH226095   1.870   4.748   2.005 -0.1320 -0.4346 -0.1854
 1487TIP3    H126096   1.870   4.689   1.930  1.6645 -0.6883 -0.0164
 1487TIP3    H226097   1.811   4.706   2.068  0.1971 -1.4330 -0.5267
 1488TIP3   OH226098   4.550   2.658   8.650  0.2269  0.1306  0.0313
 1488TIP3    H126099   4.461   2.688   8.669  0.6175  1.1732  0.2768
 1488TIP3    H226100   4.538   2.578   8.599 -0.8551 -0.7478  1.5699
 1489TIP3   OH226101   4.481   5.013   0.614 -0.0462  0.3401  0.0205
 1489TIP3    H126102   4.472   5.002   0.519 -1.0082 -0.7761  0.2112
 1489TIP3    H226103   4.547   5.081   0.625  1.6143 -0.9659 -1.4263
 1490TIP3   OH226104   0.474   4.503   7.919 -0.1592  0.2327 -0.0140
 1490TIP3    H126105   0.459   4.593   7.950 -0.9318 -0.5645  2.1061
 1490TIP3    H226106   0.551   4.474   7.968  0.2793 -0.1735 -0.9250
 1491TIP3   OH226107   3.727   6.419   7.107 -0.1060  0.7621  0.1163
 1491TIP3    H126108   3.638   6.439   7.079 -0.3922 -0.8825 -0.2791
 1491TIP3    H226109   3.738   6.326   7.086  2.5293  1.4384 -2.1459
 1492TIP3   OH226110   5.995   6.782   7.417  0.3012 -0.4115  0.1016
 1492TIP3    H126111   5.989   6.863   7.468 -0.3484 -1.6764  2.1600
 1492TIP3    H226112   5.978   6.809   7.327  0.0773  1.7191  0.7279
 1493TIP3   OH226113   1.987   1.049   6.749 -0.4289  0.1167 -0.0844
 1493TIP3    H126114   1.904   1.093   6.766 -0.0546  1.0405 -0.5153
 1493TIP3    H226115   2.000   1.058   6.654 -0.1299 -0.5540 -0.1147
 1494TIP3   OH226116   4.493   5.997   8.358  0.2026  0.3708 -0.3665
 1494TIP3    H126117   4.465   5.943   8.431  0.7262  0.5041 -0.0657
 1494TIP3    H226118   4.542   6.069   8.397  0.6218  0.3613 -0.8492
 1495TIP3   OH226119   0.130   3.342   6.723 -0.1689 -0.3348 -0.0992
 1495TIP3    H126120   0.132   3.391   6.804  2.1376 -0.1272 -0.2204
 1495TIP3    H226121   0.213   3.362   6.680 -1.6104  0.1759 -2.9022
 1496TIP3   OH226122   6.014   4.154   1.295  0.1803  0.1329  0.1067
 1496TIP3    H126123   6.073   4.221   1.261  0.6824  0.0470  0.7903
 1496TIP3    H226124   5.940   4.203   1.331  0.6873  0.3477  0.8761
 1497TIP3   OH226125   3.390   0.840   8.921 -0.7066 -0.1249 -0.6117
 1497TIP3    H126126   3.356   0.790   8.847 -1.6344 -0.8149  0.2422
 1497TIP3    H226127   3.485   0.836   8.913 -0.7953 -0.0669 -1.8236
 1498TIP3   OH226128   5.503   5.038   1.675  0.3389 -0.2370 -0.0227
 1498TIP3    H126129   5.526   5.099   1.604 -1.9684  2.9365  1.7429
 1498TIP3    H226130   5.443   4.976   1.634 -2.7070  2.8196 -0.5964
 1499TIP3   OH226131   6.086   6.131   7.810  0.1156  0.3503  0.0620
 1499TIP3    H126132   6.073   6.179   7.728  0.4239  1.7994  0.8235
 1499TIP3    H226133   6.031   6.053   7.801 -0.1932  0.6952 -1.3388
 1500TIP3   OH226134   5.566   0.584   8.715  0.9881 -0.6178  0.4178
 1500TIP3    H126135   5.582   0.495   8.685 -0.5659 -1.1326  1.0595
 1500TIP3    H226136   5.536   0.575   8.805 -0.9670  0.3877 -0.0781
 1501TIP3   OH226137   5.908   6.792   8.607 -0.5207 -0.4194 -0.1236
 1501TIP3    H126138   5.931   6.884   8.621 -1.6455 -0.2958  1.1971
 1501TIP3    H226139   5.908   6.781   8.512 -0.9296  1.1054 -0.3207
 1502TIP3   OH226140   0.060   4.204   0.095  0.1945 -0.3349  0.4153
 1502TIP3    H126141  -0.025   4.177   0.129  0.2878  0.1316  1.0405
 1502TIP3    H226142   0.118   4.131   0.113 -0.3719 -1.2831 -1.3396
 1503TIP3   OH226143   5.589   1.465   0.419 -0.1992 -0.2998  0.0287
 1503TIP3    H126144   5.525   1.520   0.464  0.6745  0.0040  0.9225
 1503TIP3    H226145   5.611   1.396   0.481  0.1268 -0.5728 -0.3809
 1504TIP3   OH226146   2.061   3.369   1.409  0.0772  0.2965  0.1970
 1504TIP3    H126147   2.148   3.337   1.433 -0.6698 -1.7114  0.3963
 1504TIP3    H226148   2.024   3.402   1.490  0.8203  1.6682  0.0090
 1505TIP3   OH226149   1.483   4.878   7.720 -0.1005  0.2909  0.2090
 1505TIP3    H126150   1.533   4.893   7.639 -0.4297  0.3269  0.0111
 1505TIP3    H226151   1.415   4.946   7.718 -0.1953  0.2015  0.4444
 1506TIP3   OH226152   1.524   0.928   6.387 -0.5625 -0.1533  0.2054
 1506TIP3    H126153   1.461   0.998   6.403  0.9680  1.7435 -1.5069
 1506TIP3    H226154   1.516   0.871   6.464 -3.9031  0.2514  0.3048
 1507TIP3   OH226155   6.335   2.985   1.878 -0.4714 -0.0186  0.2054
 1507TIP3    H126156   6.369   3.051   1.817 -1.3443 -0.2745 -0.5762
 1507TIP3    H226157   6.371   3.010   1.963  0.7204  0.3897 -0.3952
 1508TIP3   OH226158   3.294   5.892   0.103 -0.1725  0.0633  0.6368
 1508TIP3    H126159   3.324   5.857   0.019  0.1557 -1.7174  1.4397
 1508TIP3    H226160   3.199   5.881   0.100 -0.3587  1.6074 -0.1495
 1509TIP3   OH226161   2.229   2.555   1.494  0.5127 -0.1208 -0.5878
 1509TIP3    H126162   2.273   2.470   1.504  0.4521  0.0450  1.5118
 1509TIP3    H226163   2.263   2.608   1.566 -0.1552  1.3418 -1.3116
 1510TIP3   OH226164   3.930   1.492   8.090  0.1455  0.0642  0.4171
 1510TIP3    H126165   3.908   1.424   8.027 -0.0665  0.0896  0.4618
 1510TIP3    H226166   4.025   1.489   8.098  0.1079 -0.4565  0.6783
 1511TIP3   OH226167   5.306   5.200   7.772  0.0723 -0.1062  0.0483
 1511TIP3    H126168   5.267   5.157   7.695 -0.1695  1.3008 -0.6505
 1511TIP3    H226169   5.260   5.283   7.778  0.7335  0.1934  1.1880
 1512TIP3   OH226170   6.673   1.690   8.585  0.4197 -0.0929 -0.7204
 1512TIP3    H126171   6.578   1.680   8.596  0.5770  0.0379  1.0567
 1512TIP3    H226172   6.711   1.653   8.664  1.7255  1.8894 -0.3295
 1513TIP3   OH226173   1.491   5.859   0.029  0.3941  0.3567  0.1326
 1513TIP3    H126174   1.579   5.895   0.015  0.5502 -1.1453 -4.2929
 1513TIP3    H226175   1.505   5.766   0.047 -0.2441  0.1543 -0.3630
 1514TIP3   OH226176   0.597   0.162   8.059  0.2227  0.4005 -0.4272
 1514TIP3    H126177   0.655   0.218   8.007  1.1871  0.1883  0.3821
 1514TIP3    H226178   0.655   0.096   8.095 -0.7507 -0.5677 -0.5935
 1515TIP3   OH226179   6.760   1.863   1.434  0.1890 -0.7055  0.2290
 1515TIP3    H126180   6.817   1.880   1.359  0.0507 -1.4974 -0.0625
 1515TIP3    H226181   6.818   1.869   1.510  0.1367  1.1060  0.1699
 1516TIP3   OH226182   4.770   2.153   0.528 -0.2469  0.3594  0.1257
 1516TIP3    H126183   4.827   2.175   0.602  0.0980 -0.3545  0.0767
 1516TIP3    H226184   4.711   2.087   0.562 -0.8136  0.8340  0.0705
 1517TIP3   OH226185   5.322   4.487   8.380  0.4146 -0.2970  0.6006
 1517TIP3    H126186   5.336   4.579   8.402  0.5864 -0.0465 -0.5209
 1517TIP3    H226187   5.354   4.439   8.457  0.4553  0.5664  1.1354
 1518TIP3   OH226188   2.345   3.677   8.336  0.4013 -0.2817 -0.3158
 1518TIP3    H126189   2.254   3.649   8.340  0.1748  0.5329  0.9777
 1518TIP3    H226190   2.368   3.673   8.243 -1.9367  2.4802 -1.1632
 1519TIP3   OH226191   0.576   3.066   7.961 -0.4909  0.0004  0.1069
 1519TIP3    H126192   0.593   3.029   8.048 -0.1609 -0.3175 -0.0887
 1519TIP3    H226193   0.655   3.048   7.911  0.2428  2.1906  0.3836
 1520TIP3   OH226194   1.138   2.316   7.448  0.8003  0.0624 -0.2778
 1520TIP3    H126195   1.230   2.344   7.443  0.2918  1.9821  0.3371
 1520TIP3    H226196   1.088   2.394   7.427 -0.7438 -1.5795 -3.2612
 1521TIP3   OH226197   3.150   6.625   7.992  0.0025 -0.3932 -0.7880
 1521TIP3    H126198   3.232   6.660   8.029 -1.9227  1.8592  1.7258
 1521TIP3    H226199   3.127   6.687   7.923 -0.2892 -0.1738 -0.4985
 1522TIP3   OH226200   5.314   4.758   8.035 -0.3792 -0.5363 -0.1042
 1522TIP3    H126201   5.295   4.842   7.995 -1.2184 -0.4329  0.4773
 1522TIP3    H226202   5.228   4.716   8.045  0.0321 -1.5292 -0.5169
 1523TIP3   OH226203   6.667   4.981   7.121  0.1630  0.3006 -0.3352
 1523TIP3    H126204   6.712   4.896   7.123 -3.4397 -1.7952  0.4748
 1523TIP3    H226205   6.615   4.979   7.041 -0.4813  1.4501  0.0293
 1524TIP3   OH226206   4.105   5.920   0.245 -0.3213  0.1279 -0.0171
 1524TIP3    H126207   4.087   5.827   0.236 -0.3072 -0.1155  1.9628
 1524TIP3    H226208   4.181   5.936   0.190  0.9835 -1.4939  1.2297
 1525TIP3   OH226209   2.970   4.273   8.802  0.3619 -0.0724  0.0581
 1525TIP3    H126210   3.033   4.323   8.751  1.0007 -1.0319 -0.1223
 1525TIP3    H226211   3.007   4.269   8.890 -0.6878  1.4919  0.6010
 1526TIP3   OH226212   5.189   6.678   1.843 -0.5892  0.2743  0.8541
 1526TIP3    H126213   5.132   6.753   1.830 -2.1172 -1.0739 -0.8033
 1526TIP3    H226214   5.130   6.602   1.836  1.0594 -1.1105  1.3434
 1527TIP3   OH226215   6.511   4.914   1.865 -0.5947  0.2482  0.0035
 1527TIP3    H126216   6.508   5.009   1.853 -0.5193  0.0807 -1.5894
 1527TIP3    H226217   6.435   4.882   1.818  0.1978 -0.5795 -0.7515
 1528TIP3   OH226218   3.067   5.250   7.772  0.5270 -0.2293 -0.0689
 1528TIP3    H126219   3.136   5.312   7.748  0.2336  0.4572  0.8018
 1528TIP3    H226220   3.016   5.296   7.839  0.4096 -1.4884  0.7378
 1529TIP3   OH226221   4.567   4.874   1.593 -0.3064  0.3492  0.1367
 1529TIP3    H126222   4.557   4.963   1.560 -0.3876  0.2524 -0.1076
 1529TIP3    H226223   4.515   4.872   1.674 -0.3088  0.5209  0.1400
 1530TIP3   OH226224   5.840   6.082   0.379 -0.1744  0.1702 -0.4748
 1530TIP3    H126225   5.869   6.126   0.298  0.8910  0.0609 -0.1708
 1530TIP3    H226226   5.804   6.153   0.432 -0.9029  0.2401 -1.0471
 1531TIP3   OH226227   4.621   6.516   8.924  0.3650 -0.1703 -0.1587
 1531TIP3    H126228   4.598   6.552   9.010  0.2665  0.0477 -0.2747
 1531TIP3    H226229   4.653   6.591   8.874  1.3389 -0.4660 -0.0066
 1532TIP3   OH226230   0.048   4.421   2.010 -0.5510  0.2796 -0.4683
 1532TIP3    H126231   0.077   4.332   1.992  0.9437  0.8879 -1.1922
 1532TIP3    H226232   0.097   4.447   2.088  0.1661  0.9917 -1.1471
 1533TIP3   OH226233   3.484   6.648   8.760  0.0996 -0.0903 -0.3493
 1533TIP3    H126234   3.419   6.605   8.704  0.0767  0.5768 -0.8490
 1533TIP3    H226235   3.563   6.594   8.751 -0.0797 -0.3180 -0.5665
 1534TIP3   OH226236   4.757   5.789   0.828 -0.6640  0.1611 -0.2631
 1534TIP3    H126237   4.681   5.751   0.786  0.2616 -0.8738 -1.0669
 1534TIP3    H226238   4.788   5.855   0.767  0.1834 -0.7536 -0.8536
 1535TIP3   OH226239   0.866   4.341   0.504 -0.7616  0.4744 -0.1133
 1535TIP3    H126240   0.826   4.408   0.558 -2.6099 -1.4593  1.0674
 1535TIP3    H226241   0.912   4.284   0.566  0.2603  0.2667 -1.0153
 1536TIP3   OH226242   5.258   6.432   8.610  0.4235  0.1129 -0.3223
 1536TIP3    H126243   5.219   6.378   8.678 -1.5056 -0.0211 -1.4468
 1536TIP3    H226244   5.335   6.471   8.651 -0.6998  0.1055  1.9533
 1537TIP3   OH226245   2.202   0.610   0.916  0.0016  0.6220  0.5772
 1537TIP3    H126246   2.212   0.695   0.959  0.1101  0.4793  0.8389
 1537TIP3    H226247   2.110   0.586   0.931 -0.0838  0.7823  0.3293
 1538TIP3   OH226248   0.455   3.273   1.772  0.3958 -0.2361  0.5822
 1538TIP3    H126249   0.509   3.314   1.840  1.3553  1.3509 -1.0238
 1538TIP3    H226250   0.511   3.206   1.733 -0.6124 -2.0795  2.1384
 1539TIP3   OH226251   5.240   0.614   0.155 -0.0478  0.2218  0.8060
 1539TIP3    H126252   5.291   0.695   0.151  0.5761 -0.1681  0.5419
 1539TIP3    H226253   5.217   0.604   0.248 -1.7532  1.6607  0.5668
 1540TIP3   OH226254   1.761   0.764   6.672  0.0481  0.0163  0.6447
 1540TIP3    H126255   1.792   0.802   6.590 -0.6888 -0.8259 -0.0528
 1540TIP3    H226256   1.691   0.704   6.645  0.5965 -1.1691  1.7820
 1541TIP3   OH226257   6.034   2.973   7.516  0.1066 -0.0306  0.1193
 1541TIP3    H126258   6.099   3.036   7.547  0.2307 -0.4644  0.7658
 1541TIP3    H226259   6.085   2.896   7.491 -0.0140  0.2309 -0.9824
 1542TIP3   OH226260   5.872   3.339   7.673  0.0896 -0.1178  0.0306
 1542TIP3    H126261   5.900   3.255   7.637  1.0062  0.0525  0.3196
 1542TIP3    H226262   5.846   3.390   7.596 -0.1911 -0.5539 -0.1720
 1543TIP3   OH226263   2.677   0.295   7.967  0.0386 -0.2071  0.3315
 1543TIP3    H126264   2.592   0.280   8.009  0.3876  0.4346  1.2861
 1543TIP3    H226265   2.665   0.262   7.878 -1.2361 -0.0741  0.4307
 1544TIP3   OH226266   6.002   6.482   2.445 -0.0920  0.7624  0.1817
 1544TIP3    H126267   6.037   6.430   2.517 -0.2416  0.5482  0.0981
 1544TIP3    H226268   5.908   6.484   2.460 -0.4237 -1.3539 -1.3628
 1545TIP3   OH226269   3.205   5.307   8.192  0.0611  0.0323  0.0596
 1545TIP3    H126270   3.231   5.217   8.211  0.3408 -0.0241 -0.5469
 1545TIP3    H226271   3.229   5.357   8.270  0.3232 -0.3377  0.2165
 1546TIP3   OH226272   3.595   1.560   6.948  0.3311  0.2085 -0.7243
 1546TIP3    H126273   3.577   1.570   7.042 -1.2219 -2.2380 -0.6617
 1546TIP3    H226274   3.532   1.619   6.906  1.2300  1.5408 -0.2577
 1547TIP3   OH226275   2.340   4.875   7.376 -0.3515  0.0064  0.2067
 1547TIP3    H126276   2.365   4.849   7.287  0.4774 -0.0014  0.4418
 1547TIP3    H226277   2.257   4.922   7.364 -1.4980 -2.0248 -0.3162
 1548TIP3   OH226278   3.355   4.518   1.562  0.6901 -0.3794 -0.6713
 1548TIP3    H126279   3.320   4.450   1.619 -0.1268  0.0184 -0.6914
 1548TIP3    H226280   3.384   4.588   1.621 -0.5772  0.2312 -0.7406
 1549TIP3   OH226281   6.649   2.856   7.103 -0.1554 -0.3485  0.0008
 1549TIP3    H126282   6.722   2.795   7.111  0.0579 -0.1565 -0.4408
 1549TIP3    H226283   6.622   2.849   7.011 -1.4838 -1.3238  0.4226
 1550TIP3   OH226284   0.944   6.584   1.275 -0.3100  0.1454 -0.0902
 1550TIP3    H126285   0.891   6.642   1.221  1.9274  0.7082 -1.8276
 1550TIP3    H226286   0.910   6.496   1.256  0.6451  0.2778 -2.8336
 1551TIP3   OH226287   0.783   0.964   7.440 -0.5349 -0.1551  0.6651
 1551TIP3    H126288   0.827   0.908   7.503 -0.8143 -0.4117  0.6342
 1551TIP3    H226289   0.796   1.053   7.473  1.2069 -0.0904 -0.0862
 1552TIP3   OH226290   4.236   4.169   0.674  0.0649  0.1177 -0.4422
 1552TIP3    H126291   4.330   4.152   0.668  0.1190  0.4306 -0.5188
 1552TIP3    H226292   4.223   4.203   0.762 -0.1817 -1.1415  0.0249
 1553TIP3   OH226293   2.122   2.067   7.267 -0.0682  0.3132 -0.1928
 1553TIP3    H126294   2.115   2.151   7.222 -1.5634  1.1102  1.4453
 1553TIP3    H226295   2.096   2.085   7.357 -0.9666 -2.0087  0.0853
 1554TIP3   OH226296   2.208   3.501   1.767  0.1657 -0.2269  0.5408
 1554TIP3    H126297   2.287   3.548   1.740 -0.2918 -0.2054 -0.8114
 1554TIP3    H226298   2.233   3.459   1.850  2.0710 -1.4304 -0.5765
 1555TIP3   OH226299   4.710   5.161   0.621 -0.0746  0.5114  0.0588
 1555TIP3    H126300   4.753   5.131   0.701 -1.8505 -0.4103  0.7428
 1555TIP3    H226301   4.752   5.111   0.551  1.0808  0.8739  0.4814
 1556TIP3   OH226302   4.757   2.906   7.756 -0.1698  0.1982 -0.0649
 1556TIP3    H126303   4.767   2.949   7.671 -1.2845 -0.3650 -0.4948
 1556TIP3    H226304   4.731   2.976   7.815  0.0645  0.4925 -0.3049
 1557TIP3   OH226305   6.022   2.044   1.377 -0.4375 -0.1454 -0.6577
 1557TIP3    H126306   6.102   2.095   1.388 -0.1563 -0.5710 -0.6704
 1557TIP3    H226307   5.952   2.101   1.408 -0.2201  0.5364 -1.3852
 1558TIP3   OH226308   6.148   5.631   1.790 -0.4164 -0.2788 -0.2839
 1558TIP3    H126309   6.157   5.650   1.883 -1.1940  0.4073 -0.3364
 1558TIP3    H226310   6.069   5.577   1.784  0.6279 -1.8712 -0.3670
 1559TIP3   OH226311   5.735   5.865   8.328  0.1512  0.4788  0.0958
 1559TIP3    H126312   5.666   5.813   8.287 -0.2596  1.1978 -0.1327
 1559TIP3    H226313   5.815   5.815   8.313 -0.5019 -1.2262  1.7864
 1560TIP3   OH226314   0.816   1.425   0.561 -0.4831  0.8105 -0.6999
 1560TIP3    H126315   0.870   1.346   0.555  0.9754  1.2693  3.4112
 1560TIP3    H226316   0.854   1.484   0.496  1.9459 -0.0017 -0.1200
 1561TIP3   OH226317   4.557   1.259   6.988 -0.1697 -0.2272 -0.1062
 1561TIP3    H126318   4.593   1.233   7.073 -1.1607 -0.6670  0.1949
 1561TIP3    H226319   4.542   1.176   6.942  0.6624  0.0188 -0.8519
 1562TIP3   OH226320   1.007   1.656   1.241 -0.0568  1.1087  0.0385
 1562TIP3    H126321   1.034   1.643   1.150 -0.8414 -2.2477  0.1577
 1562TIP3    H226322   0.923   1.611   1.248  1.0713 -0.8900  2.9062
 1563TIP3   OH226323   1.206   5.728   7.852 -0.4260 -0.3972  0.1128
 1563TIP3    H126324   1.126   5.747   7.901  0.0020 -0.8700  1.0292
 1563TIP3    H226325   1.183   5.656   7.794 -0.2292 -1.7413  1.6439
 1564TIP3   OH226326   0.717   2.800   1.465 -0.0480  0.2787 -0.0545
 1564TIP3    H126327   0.687   2.882   1.427  0.4139 -0.1489 -1.3934
 1564TIP3    H226328   0.787   2.770   1.407 -1.8820 -2.3261 -1.1343
 1565TIP3   OH226329   3.924   3.655   1.578 -0.4422  0.6941 -0.1540
 1565TIP3    H126330   3.960   3.570   1.602  1.9412  1.1991 -1.6077
 1565TIP3    H226331   3.893   3.692   1.660  0.7712 -0.5635  0.9147
 1566TIP3   OH226332   4.419   0.314   7.685 -0.1110 -0.5940  0.1576
 1566TIP3    H126333   4.501   0.331   7.639 -0.2010 -1.0967 -0.1901
 1566TIP3    H226334   4.426   0.224   7.715 -1.4664 -1.4376 -1.8571
 1567TIP3   OH226335   6.623   4.116   0.199  0.7070  0.2978 -0.0473
 1567TIP3    H126336   6.540   4.098   0.155  0.7114  1.7327 -0.7100
 1567TIP3    H226337   6.611   4.083   0.288  0.6340 -2.5473 -1.0165
 1568TIP3   OH226338   5.727   0.970   7.023 -0.4321  0.1821  0.4111
 1568TIP3    H126339   5.659   0.919   6.980 -0.4454 -1.0724  1.8550
 1568TIP3    H226340   5.793   0.906   7.048  0.1409  1.0470  1.1545
 1569TIP3   OH226341   6.145   6.099   2.686 -0.3363  0.1603 -0.1576
 1569TIP3    H126342   6.185   6.043   2.619 -0.7269  0.5444 -0.7296
 1569TIP3    H226343   6.197   6.085   2.764  0.4553  0.0896 -0.6865
 1570TIP3   OH226344   0.141   4.353   7.270 -0.3302 -0.0152 -0.3595
 1570TIP3    H126345   0.170   4.399   7.348  0.8520  0.3149 -0.9734
 1570TIP3    H226346   0.070   4.407   7.234  1.2167  1.5307 -1.2302
 1571TIP3   OH226347   4.131   0.822   2.289  0.4926 -0.6840 -0.4832
 1571TIP3    H126348   4.056   0.773   2.322  0.4594 -1.1520 -1.2225
 1571TIP3    H226349   4.193   0.755   2.261  0.5245 -0.3131 -1.3338
 1572TIP3   OH226350   5.972   5.732   8.281 -0.2469 -0.3191  0.2906
 1572TIP3    H126351   6.055   5.754   8.238  0.4568 -0.5681  1.4679
 1572TIP3    H226352   5.941   5.654   8.235  0.3673 -0.4357  0.0663
 1573TIP3   OH226353   0.653   2.556   7.993 -0.2435 -0.5650  0.4389
 1573TIP3    H126354   0.573   2.609   7.997 -1.0366 -1.7713  1.4791
 1573TIP3    H226355   0.699   2.578   8.074  0.5204  0.1694 -0.1879
 1574TIP3   OH226356   3.897   4.276   1.028 -0.1971  0.0694 -0.5487
 1574TIP3    H126357   3.980   4.236   1.002 -0.0081  0.3630 -0.4076
 1574TIP3    H226358   3.830   4.221   0.987  0.0605 -0.2768 -0.5115
 1575TIP3   OH226359   4.822   0.244   7.172  0.8589  0.0524  0.0179
 1575TIP3    H126360   4.786   0.186   7.105  0.0545  1.0561 -0.4547
 1575TIP3    H226361   4.820   0.193   7.253  0.5799 -0.7127 -0.4639
 1576TIP3   OH226362   1.105   4.392   1.111 -0.4715  0.0985 -0.3916
 1576TIP3    H126363   1.081   4.306   1.147  0.2032 -0.4875 -1.2751
 1576TIP3    H226364   1.165   4.371   1.039 -0.7210  1.2911 -0.9692
 1577TIP3   OH226365   3.703   0.402   0.210  0.0805 -0.5195  0.0860
 1577TIP3    H126366   3.720   0.406   0.116  0.3472  1.0304  0.1830
 1577TIP3    H226367   3.617   0.361   0.217  1.5669 -4.2661 -0.6242
 1578TIP3   OH226368   3.232   2.222   7.518 -0.4993  0.0178  0.0102
 1578TIP3    H126369   3.274   2.208   7.433  0.9384 -1.3752  0.8922
 1578TIP3    H226370   3.303   2.214   7.581 -1.4729  1.4453  1.3439
 1579TIP3   OH226371   6.240   4.483   7.494  0.1992 -0.6393 -0.1448
 1579TIP3    H126372   6.207   4.446   7.412 -1.0228  0.8726 -0.3967
 1579TIP3    H226373   6.322   4.526   7.471 -0.4810  0.3742 -0.7646
 1580TIP3   OH226374   4.200   4.071   7.215  0.1621 -0.0172 -0.1073
 1580TIP3    H126375   4.284   4.026   7.202 -0.4174 -1.0732 -0.2852
 1580TIP3    H226376   4.166   4.034   7.297 -0.8472 -0.7622 -0.8381
 1581TIP3   OH226377   3.406   3.412   0.982 -0.6871 -0.3162 -0.1942
 1581TIP3    H126378   3.338   3.479   0.990 -0.8155 -0.5318  0.6148
 1581TIP3    H226379   3.375   3.355   0.911 -1.2016 -0.2469 -0.0283
 1582TIP3   OH226380   6.461   5.699   0.815  0.6388 -0.6993  0.7077
 1582TIP3    H126381   6.389   5.656   0.860  1.1974 -1.3979  0.9470
 1582TIP3    H226382   6.536   5.640   0.827  0.5452 -1.5244 -2.1679
 1583TIP3   OH226383   3.798   1.743   8.726 -0.2899  0.1199 -0.3967
 1583TIP3    H126384   3.769   1.814   8.784 -1.8368 -1.3046  0.6308
 1583TIP3    H226385   3.844   1.788   8.655  0.4117  2.0278  1.1656
 1584TIP3   OH226386   4.800   1.908   6.957  0.0826  0.1953  0.3082
 1584TIP3    H126387   4.710   1.938   6.946  1.0864  3.1838 -0.9715
 1584TIP3    H226388   4.798   1.855   7.037 -2.3932  2.1784  1.7287
 1585TIP3   OH226389   1.206   2.253   7.930 -0.1413 -0.4107  0.4016
 1585TIP3    H126390   1.219   2.300   7.848 -1.6232  1.7330  1.3159
 1585TIP3    H226391   1.122   2.284   7.963  0.4471 -1.1331  2.7884
 1586TIP3   OH226392   0.245   3.919   1.690 -0.6933  0.2216  0.3191
 1586TIP3    H126393   0.184   3.854   1.723 -1.3241  0.2554 -0.7233
 1586TIP3    H226394   0.207   3.947   1.607  1.4843 -0.9205 -1.1846
 1587TIP3   OH226395   0.966   1.717   8.597  0.3920 -0.7319 -0.2072
 1587TIP3    H126396   0.993   1.627   8.613 -2.1807 -1.2975  1.6346
 1587TIP3    H226397   0.901   1.711   8.526  1.2929 -0.0905 -1.1139
 1588TIP3   OH226398   6.518   5.863   2.295  0.0499 -0.7883 -0.4326
 1588TIP3    H126399   6.571   5.833   2.369 -2.6133  1.0927  2.5060
 1588TIP3    H226400   6.449   5.797   2.287  1.3525 -2.0103 -2.7079
 1589TIP3   OH226401   1.825   3.310   8.293 -0.0320  0.1712 -0.7086
 1589TIP3    H126402   1.916   3.340   8.294 -0.0457  0.1917 -0.2411
 1589TIP3    H226403   1.808   3.279   8.382 -0.8103  1.1681 -0.4890
 1590TIP3   OH226404   1.017   6.493   7.473  0.0844 -0.6481 -0.0180
 1590TIP3    H126405   1.008   6.578   7.516  0.1846 -1.3124  1.3856
 1590TIP3    H226406   0.928   6.465   7.453  0.0427 -0.2873 -0.3293
 1591TIP3   OH226407   4.313   2.354   7.315  0.3981 -0.3850 -0.4661
 1591TIP3    H126408   4.279   2.346   7.404  0.3641 -1.8160 -0.5863
 1591TIP3    H226409   4.359   2.438   7.314 -0.1233 -0.0746  0.7209
 1592TIP3   OH226410   1.796   1.168   0.845  0.5633 -0.4102  0.1602
 1592TIP3    H126411   1.789   1.149   0.751  0.5442 -0.0925  0.0938
 1592TIP3    H226412   1.850   1.247   0.849 -0.8260  0.5590  0.3085
 1593TIP3   OH226413   1.164   2.443   0.071 -0.1868  0.0475  0.2295
 1593TIP3    H126414   1.172   2.525   0.022 -0.5048  0.5778  1.0466
 1593TIP3    H226415   1.069   2.429   0.079 -0.1334 -0.4661 -0.0115
 1594TIP3   OH226416   4.205   5.006   0.174  0.3707  0.4181 -0.0040
 1594TIP3    H126417   4.205   5.100   0.189  3.3683  0.1811  2.7365
 1594TIP3    H226418   4.138   4.972   0.233  0.2764  0.7342  0.0694
 1595TIP3   OH226419   3.369   4.097   8.842  0.4251 -0.0843 -0.3946
 1595TIP3    H126420   3.361   4.010   8.804 -3.6000  0.7533 -1.8798
 1595TIP3    H226421   3.371   4.082   8.937 -1.3255 -1.8066 -0.5766
 1596TIP3   OH226422   1.855   3.164   2.060 -1.1915  0.0556 -0.5470
 1596TIP3    H126423   1.863   3.191   2.151  1.1783  1.0474 -0.9929
 1596TIP3    H226424   1.800   3.231   2.019 -1.4998  0.1052 -0.0540
 1597TIP3   OH226425   5.909   6.732   7.942  0.0520 -0.5782 -0.1344
 1597TIP3    H126426   5.837   6.771   7.991  1.0146  2.5683 -0.9685
 1597TIP3    H226427   5.942   6.803   7.887  3.0023 -2.2069 -0.7083
 1598TIP3   OH226428   6.726   0.447   1.313  0.2533  0.2499  0.2718
 1598TIP3    H126429   6.808   0.401   1.297  0.6689  1.5398 -1.6771
 1598TIP3    H226430   6.669   0.382   1.355  1.4730 -1.3961 -0.5234
 1599TIP3   OH226431   2.728   4.151   8.458 -1.0308  0.7226  0.3063
 1599TIP3    H126432   2.798   4.178   8.397 -2.4469  0.6441 -1.4521
 1599TIP3    H226433   2.737   4.056   8.464 -1.2265  0.6661 -0.2441
 1600TIP3   OH226434   2.853   2.075   0.791  0.1274 -0.0022 -0.2079
 1600TIP3    H126435   2.941   2.107   0.770 -0.0715  1.0045  0.4273
 1600TIP3    H226436   2.796   2.118   0.727  0.3786 -2.9787 -2.6339
 1601TIP3   OH226437   0.168   6.098   8.711  0.1679  0.0197  0.4470
 1601TIP3    H126438   0.225   6.065   8.642  0.7829  0.1519  0.8888
 1601TIP3    H226439   0.213   6.076   8.792  0.0513  0.9762  0.7782
 1602TIP3   OH226440   1.456   0.819   8.362  0.1624  0.0340  0.7505
 1602TIP3    H126441   1.429   0.762   8.434  0.0536  0.1054  0.7649
 1602TIP3    H226442   1.535   0.777   8.327 -0.6566 -0.8445 -0.0871
 1603TIP3   OH226443   4.885   3.848   2.428 -0.8200 -0.5287  0.2216
 1603TIP3    H126444   4.917   3.758   2.428 -3.2645 -1.4779  0.4776
 1603TIP3    H226445   4.958   3.900   2.461  0.5853 -2.4424  0.2575
 1604TIP3   OH226446   5.947   0.527   1.308 -0.5578 -0.2252 -0.0543
 1604TIP3    H126447   5.922   0.619   1.298  1.0056  0.2678  0.2141
 1604TIP3    H226448   5.866   0.478   1.298 -1.1862  1.0799 -1.6626
 1605TIP3   OH226449   1.583   0.518   0.299  0.6851  0.5019  0.2680
 1605TIP3    H126450   1.526   0.547   0.371  0.8847  1.1456  0.1694
 1605TIP3    H226451   1.523   0.502   0.226  0.6490  1.4312  0.0844
 1606TIP3   OH226452   1.442   5.164   8.814  0.1594 -0.0572 -0.1059
 1606TIP3    H126453   1.440   5.225   8.740 -1.8960  0.1306  0.0444
 1606TIP3    H226454   1.423   5.078   8.775  1.8473 -0.4364 -0.1495
 1607TIP3   OH226455   2.398   0.769   6.579  0.4298 -0.2198  0.2629
 1607TIP3    H126456   2.454   0.718   6.638  0.9709  0.1683  0.0931
 1607TIP3    H226457   2.384   0.712   6.504  1.2541 -0.0379 -0.0460
 1608TIP3   OH226458   5.578   6.675   8.159  0.0266 -1.0133  0.1751
 1608TIP3    H126459   5.625   6.749   8.123 -0.3222 -2.0158 -2.5213
 1608TIP3    H226460   5.634   6.600   8.143 -1.9624 -2.1148 -2.3968
 1609TIP3   OH226461   3.551   4.265   1.504 -0.3443 -0.1906 -0.3096
 1609TIP3    H126462   3.588   4.178   1.513 -0.4181 -0.2796 -0.8497
 1609TIP3    H226463   3.490   4.273   1.578 -1.5740 -1.2212 -1.1608
 1610TIP3   OH226464   1.086   1.123   6.651 -0.1531 -0.1322  0.4323
 1610TIP3    H126465   1.054   1.208   6.682 -1.6710 -0.0405 -1.2567
 1610TIP3    H226466   1.010   1.065   6.658  0.4817 -1.0082  0.2220
 1611TIP3   OH226467   3.121   6.551   0.049  0.0196  0.2543  0.1713
 1611TIP3    H126468   3.048   6.514  -0.001 -0.2652  1.4885 -0.3739
 1611TIP3    H226469   3.192   6.488   0.038 -0.8299 -0.7646  0.3692
 1612TIP3   OH226470   3.340   0.972   8.054  0.0534 -0.0168 -0.1879
 1612TIP3    H126471   3.371   1.042   7.996  0.7601 -1.1485 -1.2114
 1612TIP3    H226472   3.308   0.904   7.995 -1.0888 -0.3757  0.8009
 1613TIP3   OH226473   6.595   6.058   1.349  0.1371  0.1415 -0.0216
 1613TIP3    H126474   6.536   6.114   1.399 -0.7431 -1.1871  0.4650
 1613TIP3    H226475   6.606   6.103   1.265 -0.9931  0.7599  0.1482
 1614TIP3   OH226476   5.411   0.576   7.917  0.4755  0.1876  0.2486
 1614TIP3    H126477   5.394   0.512   7.848  0.9825  1.0905 -0.7480
 1614TIP3    H226478   5.490   0.542   7.961 -0.0938 -0.6134  0.6836
 1615TIP3   OH226479   4.973   4.855   8.067 -0.0618 -0.2925 -0.4583
 1615TIP3    H126480   5.054   4.903   8.053 -0.2496  1.2224  2.7003
 1615TIP3    H226481   4.908   4.901   8.014  0.4426  0.9373 -0.0456
 1616TIP3   OH226482   0.571   4.578   0.216  0.6364  0.2424 -0.5319
 1616TIP3    H126483   0.600   4.668   0.228 -0.9175  1.0094 -2.1905
 1616TIP3    H226484   0.498   4.568   0.277 -0.8936  0.9966 -2.1671
 1617TIP3   OH226485   2.130   6.301   7.964  0.2245 -0.2835  0.2279
 1617TIP3    H126486   2.186   6.375   7.987  1.1924 -0.9500  0.0717
 1617TIP3    H226487   2.190   6.228   7.950 -0.5704 -0.7136 -1.1788
 1618TIP3   OH226488   3.155   4.406   8.435  0.5187  0.3954 -0.3006
 1618TIP3    H126489   3.222   4.363   8.489  0.6962  1.7512  0.5931
 1618TIP3    H226490   3.164   4.499   8.455 -0.6223  0.7477 -1.3369
 1619TIP3   OH226491   0.877   4.552   8.094 -0.1633  0.2707 -0.3170
 1619TIP3    H126492   0.859   4.549   8.188 -0.5761  0.4183 -0.3923
 1619TIP3    H226493   0.973   4.551   8.088 -0.1325 -1.3136  0.0475
 1620TIP3   OH226494   5.710   2.729   2.250  0.1173 -0.3851  0.4144
 1620TIP3    H126495   5.779   2.698   2.308  0.4816 -0.5119 -0.0752
 1620TIP3    H226496   5.633   2.738   2.306  0.9488  1.3906  1.3406
 1621TIP3   OH226497   1.595   5.626   7.629  0.5034 -0.2141 -0.4002
 1621TIP3    H126498   1.647   5.706   7.630 -0.2878  0.3035  0.6840
 1621TIP3    H226499   1.570   5.615   7.538  0.2855  0.9978 -0.5008
 1622TIP3   OH226500   1.414   5.348   1.746  0.2013 -0.2765  0.2803
 1622TIP3    H126501   1.383   5.360   1.836  1.5442 -0.7726  0.8436
 1622TIP3    H226502   1.426   5.437   1.713  0.6278 -0.0797  0.9408
 1623TIP3   OH226503   5.911   5.360   0.581  0.3696 -0.0245  0.1800
 1623TIP3    H126504   5.969   5.433   0.558  0.8422 -0.3135  0.4339
 1623TIP3    H226505   5.858   5.347   0.502  0.9832 -0.0651 -0.2419
 1624TIP3   OH226506   3.504   2.087   8.029 -0.0767  0.8205  0.4114
 1624TIP3    H126507   3.412   2.093   8.002 -0.1487  1.0701  0.6992
 1624TIP3    H226508   3.514   2.157   8.094 -0.1927 -0.4065  1.8133
 1625TIP3   OH226509   2.517   1.004   8.905  0.1963  0.2632  0.0979
 1625TIP3    H126510   2.592   0.987   8.847  0.1866  0.5564 -0.0031
 1625TIP3    H226511   2.452   1.046   8.848  0.0154  0.1528  0.2218
 1626TIP3   OH226512   5.132   0.054   0.197  0.0891  0.0684 -0.0215
 1626TIP3    H126513   5.176  -0.013   0.146 -1.1734 -0.3362 -0.6218
 1626TIP3    H226514   5.151   0.136   0.151  0.3884 -0.0761 -0.1532
 1627TIP3   OH226515   5.340   4.318   1.289  0.4054 -0.6667 -0.2935
 1627TIP3    H126516   5.310   4.362   1.368  1.9594 -1.0591  0.5530
 1627TIP3    H226517   5.436   4.323   1.293  0.6275 -3.3882 -0.5728
 1628TIP3   OH226518   4.800   3.727   0.381  0.2218  0.3883 -0.4095
 1628TIP3    H126519   4.841   3.650   0.420 -0.0154  0.8098  0.7058
 1628TIP3    H226520   4.868   3.764   0.325 -0.1799 -1.5159 -2.2901
 1629TIP3   OH226521   0.112   2.809   8.702 -0.8348  0.5982  0.2419
 1629TIP3    H126522   0.163   2.834   8.779 -4.7463  1.8367  2.7311
 1629TIP3    H226523   0.079   2.722   8.722  0.0956 -0.1434 -1.2692
 1630TIP3   OH226524   4.370   5.156   1.449 -0.3530  0.8579  0.3179
 1630TIP3    H126525   4.351   5.208   1.527  0.0041  0.7522  0.4790
 1630TIP3    H226526   4.308   5.187   1.383  0.2149  1.8681  0.2351
 1631TIP3   OH226527   3.476   2.637   0.704 -0.3279  0.7938 -0.3627
 1631TIP3    H126528   3.511   2.668   0.788  0.6244  0.3131 -0.5704
 1631TIP3    H226529   3.497   2.706   0.642 -0.6960  0.9780 -0.2865
 1632TIP3   OH226530   2.474   0.934   8.516 -0.1272 -0.0432  0.7224
 1632TIP3    H126531   2.471   1.006   8.453  2.0921 -0.3921  0.1478
 1632TIP3    H226532   2.409   0.958   8.582 -1.0680  1.3294 -0.6350
 1633TIP3   OH226533   6.063   2.270   8.888 -0.0082  0.0517 -0.1918
 1633TIP3    H126534   6.065   2.175   8.895  1.8615 -0.1314 -2.1768
 1633TIP3    H226535   6.150   2.299   8.916 -0.1731  1.0634 -0.6607
 1634TIP3   OH226536   2.395   4.712   7.598  0.0763 -0.0742 -0.2889
 1634TIP3    H126537   2.380   4.766   7.520 -0.4938 -0.9748 -0.8203
 1634TIP3    H226538   2.317   4.725   7.652  0.5391  0.6701  0.2211
 1635TIP3   OH226539   0.960   4.610   8.714  0.3994  0.2316 -0.1496
 1635TIP3    H126540   1.022   4.560   8.767  0.5928  0.0456 -0.5405
 1635TIP3    H226541   0.999   4.697   8.708  0.7549  0.0479 -0.5990
 1636TIP3   OH226542   3.548   0.845   7.309 -0.2012 -0.0478  0.7423
 1636TIP3    H126543   3.585   0.761   7.334  1.5721  0.5495  0.2921
 1636TIP3    H226544   3.610   0.910   7.344 -1.3873  1.0745  0.8626
 1637TIP3   OH226545   2.244   1.726   1.299 -0.4800 -0.2505  0.0749
 1637TIP3    H126546   2.321   1.741   1.245  0.6643 -0.9574  1.4445
 1637TIP3    H226547   2.217   1.814   1.327 -0.5989  0.0519 -0.9715
 1638TIP3   OH226548   3.288   5.668   7.998  0.0045  0.4016  0.2904
 1638TIP3    H126549   3.345   5.607   7.952  1.8434  1.2033  1.3743
 1638TIP3    H226550   3.280   5.743   7.939  0.2074  0.3462  0.1919
 1639TIP3   OH226551   1.218   6.343   7.598  0.1392 -0.2039  0.2848
 1639TIP3    H126552   1.218   6.389   7.683 -1.5717 -1.2746  0.9147
 1639TIP3    H226553   1.162   6.396   7.542  0.6967  0.1183  0.0165
 1640TIP3   OH226554   5.896   3.777   0.511 -0.1677 -0.2660  0.4276
 1640TIP3    H126555   5.864   3.790   0.422  1.8716  0.4424 -0.2622
 1640TIP3    H226556   5.910   3.683   0.518 -3.1482 -0.7509  1.0978
 1641TIP3   OH226557   0.769   4.480   2.543  0.4251  0.0336  0.4934
 1641TIP3    H126558   0.845   4.532   2.571  1.1220  2.5915 -4.7868
 1641TIP3    H226559   0.699   4.544   2.533 -0.5362 -1.1317 -0.5993
 1642TIP3   OH226560   0.047   0.732   6.278  0.1786  0.0327 -0.2325
 1642TIP3    H126561   0.135   0.705   6.254  0.4766 -2.7468  3.1640
 1642TIP3    H226562   0.049   0.828   6.274  3.1975  0.0320 -0.7069
 1643TIP3   OH226563   1.871   5.468   6.796  0.4116  0.5939  0.0164
 1643TIP3    H126564   1.953   5.510   6.773  0.9574 -0.7298 -0.5685
 1643TIP3    H226565   1.817   5.538   6.834  0.8895  2.0219 -1.8157
 1644TIP3   OH226566   5.072   3.071   7.818  0.1502  0.2423  0.2456
 1644TIP3    H126567   4.998   3.126   7.842 -0.1978  0.2511 -0.8089
 1644TIP3    H226568   5.138   3.132   7.784  0.0905  0.1011 -0.1320
 1645TIP3   OH226569   5.696   1.356   8.921 -0.1979 -0.4242  0.1445
 1645TIP3    H126570   5.753   1.293   8.966 -0.1244 -1.1817 -0.9568
 1645TIP3    H226571   5.670   1.419   8.988  0.9648 -0.7680  0.9318
 1646TIP3   OH226572   2.761   0.963   7.093  0.3039  0.6855 -0.3608
 1646TIP3    H126573   2.761   0.867   7.091 -0.9276  0.6908 -1.3007
 1646TIP3    H226574   2.668   0.987   7.093  0.5526  1.8741  1.5837
 1647TIP3   OH226575   6.588   1.267   2.361  0.6703 -0.3198 -0.3937
 1647TIP3    H126576   6.680   1.251   2.386  1.4466 -0.1869 -2.8522
 1647TIP3    H226577   6.589   1.354   2.321  0.3591 -1.6772 -3.7622
 1648TIP3   OH226578   0.354   0.879   1.426  0.6115 -0.2028 -0.2786
 1648TIP3    H126579   0.435   0.925   1.448 -0.0684  0.2798  1.3444
 1648TIP3    H226580   0.320   0.927   1.351  0.5502  1.2175  0.6203
 1649TIP3   OH226581   5.818   0.216   0.734  0.0676  0.0962  0.0053
 1649TIP3    H126582   5.843   0.129   0.703  0.8400  0.4131 -0.2961
 1649TIP3    H226583   5.812   0.268   0.655  1.3052  0.7303  0.3048
 1650TIP3   OH226584   6.096   2.509   8.497 -0.2455 -0.0953 -0.0460
 1650TIP3    H126585   6.074   2.430   8.547  0.7532 -0.2515  0.1806
 1650TIP3    H226586   6.034   2.575   8.528 -0.9560 -0.7243 -0.0850
 1651TIP3   OH226587   4.630   0.376   0.271  0.2649  0.4024  0.3963
 1651TIP3    H126588   4.553   0.406   0.319 -1.5811 -2.3209 -0.6447
 1651TIP3    H226589   4.692   0.349   0.339 -0.3368  1.1393  1.2539
 1652TIP3   OH226590   0.653   3.010   8.211 -0.0056 -0.0255 -0.3479
 1652TIP3    H126591   0.648   3.063   8.291 -1.0158 -1.1990  0.3934
 1652TIP3    H226592   0.733   2.959   8.220 -0.8353 -1.1978  0.6066
 1653TIP3   OH226593   4.794   4.363   1.480  0.2236  0.0478  0.5485
 1653TIP3    H126594   4.707   4.402   1.494 -0.3439 -0.8020 -0.4139
 1653TIP3    H226595   4.779   4.269   1.487  0.7484 -0.1964 -1.1305
 1654TIP3   OH226596   1.511   0.597   0.859 -0.0477 -0.2028 -0.2719
 1654TIP3    H126597   1.466   0.677   0.831 -1.9875 -0.7730  1.0042
 1654TIP3    H226598   1.524   0.609   0.953 -1.5650 -1.8860  0.1991
 1655TIP3   OH226599   2.254   0.039   1.764 -0.2084 -0.5025  0.4326
 1655TIP3    H126600   2.297   0.073   1.843 -0.6739 -1.3561  1.0590
 1655TIP3    H226601   2.272   0.106   1.697 -0.5669  0.6719  1.4722
 1656TIP3   OH226602   6.167   3.863   2.012  0.3839  0.0410 -0.1756
 1656TIP3    H126603   6.076   3.869   2.040  0.3888 -1.7692  0.3278
 1656TIP3    H226604   6.181   3.943   1.961 -1.5168  0.2941 -0.3835
 1657TIP3   OH226605   6.617   0.441   6.167 -0.2288  0.4995 -0.1599
 1657TIP3    H126606   6.610   0.513   6.103 -0.0448 -0.4946 -1.3372
 1657TIP3    H226607   6.596   0.482   6.251 -2.1947  1.5024 -1.0627
 1658TIP3   OH226608   6.130   0.666   0.919  0.0243  0.1050  0.1599
 1658TIP3    H126609   6.159   0.718   0.994 -0.5346  1.8360 -0.7391
 1658TIP3    H226610   6.129   0.729   0.847 -0.3576 -1.2865 -1.0852
 1659TIP3   OH226611   4.117   2.829   0.747  0.4692 -0.2707  0.0252
 1659TIP3    H126612   4.128   2.922   0.726 -0.4639 -0.1933 -0.1361
 1659TIP3    H226613   4.207   2.796   0.753  0.8575  0.9270  1.4326
 1660TIP3   OH226614   3.472   4.779   1.255  0.2853 -0.5423 -0.0577
 1660TIP3    H126615   3.513   4.792   1.340 -0.2764  1.6489 -0.0618
 1660TIP3    H226616   3.540   4.804   1.192 -0.4076  1.3361 -0.1124
 1661TIP3   OH226617   2.162   3.935   7.242  0.4579  0.2682 -0.3086
 1661TIP3    H126618   2.178   3.967   7.153  1.4371 -2.4746 -1.2149
 1661TIP3    H226619   2.066   3.936   7.251  0.3255  0.2425 -1.5252
 1662TIP3   OH226620   6.445   1.105   8.696 -0.0530 -0.3476  0.0848
 1662TIP3    H126621   6.350   1.112   8.699 -0.4062 -3.7229  0.0602
 1662TIP3    H226622   6.466   1.087   8.604  0.4212 -1.0998  0.3222
 1663TIP3   OH226623   0.381   5.646   8.137 -0.5853  0.4350  0.7780
 1663TIP3    H126624   0.406   5.662   8.046 -1.4239  0.7532  0.6008
 1663TIP3    H226625   0.451   5.687   8.189 -0.7347  1.3119  0.2930
 1664TIP3   OH226626   4.979   3.656   0.068  0.5960 -0.4689  0.2869
 1664TIP3    H126627   4.967   3.561   0.080 -0.7257 -0.2361  0.9288
 1664TIP3    H226628   4.893   3.688   0.044 -0.0078  1.1373  3.9539
 1665TIP3   OH226629   4.688   0.786   7.969 -0.0172 -0.3394 -0.1480
 1665TIP3    H126630   4.638   0.767   8.048 -0.4757  0.9235 -0.1057
 1665TIP3    H226631   4.633   0.754   7.898 -0.3131 -0.1030 -0.0288
 1666TIP3   OH226632   3.746   2.330   1.307  0.1377 -0.2663 -0.0648
 1666TIP3    H126633   3.809   2.321   1.377  0.1869 -0.7893 -0.1757
 1666TIP3    H226634   3.705   2.415   1.323 -0.1249 -0.5498  0.8126
 1667TIP3   OH226635   5.485   2.741   1.217 -0.4638 -0.3233 -0.0977
 1667TIP3    H126636   5.565   2.766   1.172  1.0916 -3.2909  0.7444
 1667TIP3    H226637   5.419   2.802   1.185  2.0562  2.1307 -0.9624
 1668TIP3   OH226638   1.522   1.475   0.843 -0.8427 -0.2296 -0.7445
 1668TIP3    H126639   1.616   1.458   0.831 -0.6220  1.7521 -2.3154
 1668TIP3    H226640   1.491   1.401   0.895  1.8594 -0.2764  1.0454
 1669TIP3   OH226641   5.508   1.572   7.337 -0.1910  0.3815 -0.2375
 1669TIP3    H126642   5.413   1.562   7.335 -0.1631  0.1201 -0.3112
 1669TIP3    H226643   5.541   1.505   7.277 -0.0403  1.6661 -1.6308
 1670TIP3   OH226644   0.643   5.209   7.404 -0.2396  0.6106 -0.5081
 1670TIP3    H126645   0.628   5.300   7.377 -2.0223  0.4022 -0.3413
 1670TIP3    H226646   0.582   5.158   7.352 -0.2638 -0.3461  0.4193
 1671TIP3   OH226647   3.678   4.250   0.798  0.2756 -0.1751 -0.2273
 1671TIP3    H126648   3.670   4.336   0.758 -1.3895 -0.1560  0.0821
 1671TIP3    H226649   3.588   4.223   0.815  0.7895 -1.7728  0.1258
 1672TIP3   OH226650   1.097   3.563   1.508  0.0527 -0.6327 -0.3078
 1672TIP3    H126651   1.154   3.496   1.471  0.1505 -0.6009 -0.2173
 1672TIP3    H226652   1.136   3.646   1.481 -0.2128 -0.6131 -0.6354
 1673TIP3   OH226653   5.902   2.977   0.320 -0.1490 -0.3823  0.2697
 1673TIP3    H126654   5.924   3.016   0.235 -0.4228  0.7604  0.6949
 1673TIP3    H226655   5.866   2.891   0.299 -0.0308 -0.1906 -0.7562
 1674TIP3   OH226656   4.407   1.110   7.218  0.1373 -0.3606  0.3528
 1674TIP3    H126657   4.435   1.019   7.207 -2.3509 -1.3740  1.6340
 1674TIP3    H226658   4.361   1.131   7.137 -2.2881 -1.5180  1.3314
 1675TIP3   OH226659   5.843   3.550   7.434  0.4739  0.2184  0.0955
 1675TIP3    H126660   5.925   3.520   7.395 -0.7247 -1.1508 -1.5268
 1675TIP3    H226661   5.795   3.591   7.362 -0.3015  0.9757  1.0014
 1676TIP3   OH226662   0.426   1.823   1.398 -0.5182  0.7185 -0.6997
 1676TIP3    H126663   0.400   1.882   1.328 -1.3679  1.1034 -0.0792
 1676TIP3    H226664   0.516   1.849   1.420  0.0346  0.1265 -2.0930
 1677TIP3   OH226665   5.758   5.139   1.870  0.2937  0.1528 -0.1114
 1677TIP3    H126666   5.829   5.075   1.866 -0.1623 -0.4205  0.6472
 1677TIP3    H226667   5.744   5.154   1.964  0.6128  1.6271 -0.2708
 1678TIP3   OH226668   4.373   6.124   6.974 -0.3728 -0.1171 -0.2484
 1678TIP3    H126669   4.327   6.198   6.934 -1.0455 -0.6176 -0.4147
 1678TIP3    H226670   4.312   6.051   6.965  0.0463 -0.5531  0.4482
 1679TIP3   OH226671   0.513   0.355   7.543  0.2823 -0.5215  0.0442
 1679TIP3    H126672   0.546   0.425   7.600 -0.1919 -1.4875  1.5381
 1679TIP3    H226673   0.441   0.396   7.495  0.0822  0.0504  0.8193
 1680TIP3   OH226674   6.110   1.259   7.360  0.3302  0.1779  0.7058
 1680TIP3    H126675   6.035   1.318   7.370 -0.1875 -0.1427 -0.9347
 1680TIP3    H226676   6.073   1.171   7.371 -0.1803 -0.1776 -2.6138
 1681TIP3   OH226677   2.504   0.240   7.028 -0.3216  0.6459  0.1427
 1681TIP3    H126678   2.586   0.280   6.999 -0.5856  0.8610 -0.3112
 1681TIP3    H226679   2.531   0.163   7.077  0.1461  0.6265 -0.1423
 1682TIP3   OH226680   0.261   5.286   7.558 -0.3130 -0.7188  0.1931
 1682TIP3    H126681   0.167   5.298   7.576 -0.0917  1.9012 -0.0144
 1682TIP3    H226682   0.273   5.320   7.469  1.0614  0.5089  0.8027
 1683TIP3   OH226683   3.933   3.608   6.762 -0.4910  0.0316  0.0213
 1683TIP3    H126684   3.900   3.518   6.764 -0.9118  0.1892  1.4709
 1683TIP3    H226685   4.027   3.600   6.745 -0.4956 -0.6941  0.3246
 1684TIP3   OH226686   6.189   5.193   0.431  0.5246 -0.5453  0.1163
 1684TIP3    H126687   6.152   5.258   0.371  1.3059  1.9994  2.1867
 1684TIP3    H226688   6.265   5.237   0.470 -0.9814 -1.1555  4.3098
 1685TIP3   OH226689   1.781   1.903   6.859 -0.4140 -0.0240  0.1579
 1685TIP3    H126690   1.755   1.906   6.951 -1.3196  0.9560 -0.1125
 1685TIP3    H226691   1.765   1.992   6.827  3.5728  0.8126  0.0025
 1686TIP3   OH226692   2.651   3.834   6.426  0.1292  0.1530  0.1438
 1686TIP3    H126693   2.626   3.884   6.504  1.1490  0.9243 -0.0070
 1686TIP3    H226694   2.744   3.815   6.438  0.0644 -0.5712 -0.4318
 1687TIP3   OH226695   6.720   2.633   1.808 -0.0897  0.0222 -0.1851
 1687TIP3    H126696   6.710   2.554   1.754  0.6738  0.1123 -0.4697
 1687TIP3    H226697   6.733   2.600   1.897 -0.0771 -0.1631 -0.2552
 1688TIP3   OH226698   3.768   3.696   0.814  0.6231  0.0691 -0.2931
 1688TIP3    H126699   3.677   3.671   0.796  0.9892 -1.1748 -0.5187
 1688TIP3    H226700   3.813   3.613   0.831  1.7896  0.6305 -0.5072
 1689TIP3   OH226701   3.529   0.123   8.832 -0.0662 -0.7534  0.2829
 1689TIP3    H126702   3.513   0.033   8.802  0.4905 -0.7331 -0.0919
 1689TIP3    H226703   3.524   0.118   8.927 -2.5710 -0.6951  0.2368
 1690TIP3   OH226704   1.953   3.411   0.322 -0.0479  0.0033 -0.1259
 1690TIP3    H126705   2.004   3.491   0.317  1.3069 -0.8113  0.3056
 1690TIP3    H226706   1.963   3.380   0.412  0.2248 -1.1414 -0.5279
 1691TIP3   OH226707   3.821   2.723   0.689 -0.1436 -0.1569  0.3344
 1691TIP3    H126708   3.740   2.768   0.665  1.1063  1.7419 -0.4409
 1691TIP3    H226709   3.874   2.724   0.610  0.4679 -1.8623  0.6845
 1692TIP3   OH226710   2.307   2.295   1.497 -0.2566  1.0923 -0.1050
 1692TIP3    H126711   2.361   2.232   1.546 -0.2917  2.0561  1.2065
 1692TIP3    H226712   2.227   2.247   1.476 -0.0790  0.5475  0.4473
 1693TIP3   OH226713   0.418   1.430   8.735  0.0838 -0.1004  0.1957
 1693TIP3    H126714   0.462   1.384   8.663  0.9221  0.6910  0.1843
 1693TIP3    H226715   0.359   1.492   8.692 -3.2621 -3.0004  0.1481
 1694TIP3   OH226716   6.747   5.956   8.615 -0.2109 -0.6879 -0.3928
 1694TIP3    H126717   6.785   5.870   8.633 -0.4707 -1.1319 -1.8027
 1694TIP3    H226718   6.820   6.017   8.625 -0.2064 -0.9558  1.4000
 1695TIP3   OH226719   5.026   5.648   2.224  0.0432 -0.3093  0.3107
 1695TIP3    H126720   4.990   5.674   2.309 -1.7886 -0.5100 -0.3641
 1695TIP3    H226721   5.121   5.647   2.238 -0.1110  1.2018  1.9157
 1696TIP3   OH226722   1.375   6.065   1.799  0.7970 -0.1608  0.4040
 1696TIP3    H126723   1.326   6.075   1.880  3.1624 -1.1682  2.0739
 1696TIP3    H226724   1.314   6.023   1.738 -1.0173  0.5712  1.6403
 1697TIP3   OH226725   4.524   6.441   7.057  0.2739  0.0430  0.1366
 1697TIP3    H126726   4.541   6.463   6.966 -1.1749 -1.1193 -0.4688
 1697TIP3    H226727   4.430   6.456   7.068  0.6268  1.3079  1.8010
 1698TIP3   OH226728   6.013   1.682   6.383 -0.1799 -0.0504 -0.0055
 1698TIP3    H126729   6.076   1.718   6.321  0.3611 -1.3266 -0.2150
 1698TIP3    H226730   5.975   1.759   6.426 -0.3977  0.8407 -1.7236
 1699TIP3   OH226731   0.026   0.252   0.099  0.0870 -0.4772 -0.9340
 1699TIP3    H126732   0.015   0.204   0.017 -0.5510  0.9302 -1.7129
 1699TIP3    H226733  -0.033   0.209   0.160  0.3524 -1.3708 -1.2981
 1700TIP3   OH226734   4.716   6.561   7.282  0.0613 -0.7682  0.1300
 1700TIP3    H126735   4.799   6.520   7.257 -0.2663 -1.7064  0.5744
 1700TIP3    H226736   4.685   6.601   7.200  0.9650 -0.3586 -0.0323
 1701TIP3   OH226737   2.315   0.398   7.421  0.0519 -0.6732 -0.7244
 1701TIP3    H126738   2.355   0.485   7.419 -1.0860 -0.0829  0.7708
 1701TIP3    H226739   2.251   0.400   7.349 -1.0471  0.3038  0.2309
 1702TIP3   OH226740   6.125   6.508   7.645  0.8451 -0.3522 -0.0900
 1702TIP3    H126741   6.035   6.505   7.614  0.9348 -1.5720 -0.3030
 1702TIP3    H226742   6.175   6.460   7.578  1.8739  1.4361 -0.6590
 1703TIP3   OH226743   4.784   5.194   8.388 -0.3965 -0.1828 -0.0343
 1703TIP3    H126744   4.714   5.129   8.383 -0.9548  0.3815  0.3184
 1703TIP3    H226745   4.851   5.152   8.441 -0.7423 -0.4835  0.1727
 1704TIP3   OH226746   3.300   3.761   0.647  0.3433 -0.0645 -0.1907
 1704TIP3    H126747   3.293   3.696   0.716  1.5895  1.2439  1.2244
 1704TIP3    H226748   3.394   3.772   0.632  0.1419 -1.3724 -3.1916
 1705TIP3   OH226749   0.096   0.228   0.923 -0.1290 -0.0631  0.0890
 1705TIP3    H126750   0.100   0.280   0.842 -1.9280 -1.4307 -0.9426
 1705TIP3    H226751   0.031   0.272   0.977 -0.9301 -0.6653 -0.3719
 1706TIP3   OH226752   0.426   4.376   7.672  0.0789  0.0857 -0.2726
 1706TIP3    H126753   0.443   4.288   7.706  1.1546  0.5858  0.5246
 1706TIP3    H226754   0.442   4.434   7.746 -0.4193  0.9843 -0.8504
 1707TIP3   OH226755   2.313   5.489   7.618 -0.0669  0.4143 -0.2442
 1707TIP3    H126756   2.293   5.569   7.569  0.2301  1.7105  1.6686
 1707TIP3    H226757   2.247   5.485   7.686  0.4269 -0.5246  0.1970
 1708TIP3   OH226758   4.173   4.844   1.556 -0.7260 -0.4804  0.6730
 1708TIP3    H126759   4.157   4.920   1.612 -0.6129  0.1186 -0.0926
 1708TIP3    H226760   4.208   4.880   1.475  0.7184 -1.4600  0.8118
 1709TIP3   OH226761   0.002   5.415   8.410  0.1109 -0.1774  0.3733
 1709TIP3    H126762   0.067   5.440   8.344 -0.4256 -0.6872 -0.3521
 1709TIP3    H226763   0.049   5.355   8.468  0.7995  0.8401  0.9034
 1710TIP3   OH226764   5.060   3.471   8.432  0.7616  0.4471  0.0913
 1710TIP3    H126765   5.112   3.406   8.479  0.4586  0.8731  1.0464
 1710TIP3    H226766   5.034   3.534   8.499 -1.9818 -0.3533 -0.0669
 1711TIP3   OH226767   0.810   4.613   1.302  0.0885 -0.0625  0.0590
 1711TIP3    H126768   0.761   4.622   1.221  0.8763 -0.0181 -0.4174
 1711TIP3    H226769   0.762   4.667   1.365  0.1271  0.8457 -0.6701
 1712TIP3   OH226770   5.305   0.680   1.218 -0.0584 -0.2347 -0.0013
 1712TIP3    H126771   5.253   0.623   1.274 -0.1794  0.6891  0.8533
 1712TIP3    H226772   5.245   0.709   1.150  0.2131 -1.7476 -0.9254
 1713TIP3   OH226773   4.746   5.612   1.480  0.4263  0.3292 -0.5770
 1713TIP3    H126774   4.703   5.529   1.499 -0.6845  0.9250 -0.4183
 1713TIP3    H226775   4.838   5.589   1.467  0.1727 -0.8877 -0.3154
 1714TIP3   OH226776   6.416   6.640   2.014 -0.0546  0.2811  0.5127
 1714TIP3    H126777   6.343   6.591   2.051 -0.3810  0.5626  0.2501
 1714TIP3    H226778   6.404   6.729   2.047  0.6223  0.1565  1.1116
 1715TIP3   OH226779   6.097   0.871   0.755 -0.3078  0.1914  0.0157
 1715TIP3    H126780   6.061   0.877   0.666  0.4557 -0.4811 -0.3526
 1715TIP3    H226781   6.106   0.962   0.783 -1.4665  0.3903 -0.2139
 1716TIP3   OH226782   6.602   0.084   6.727 -0.2442 -0.7326  0.2849
 1716TIP3    H126783   6.510   0.057   6.728 -0.2779 -0.8192 -1.4755
 1716TIP3    H226784   6.633   0.056   6.641  1.7300 -1.6399  1.2434
 1717TIP3   OH226785   5.393   3.567   7.639 -0.7955 -0.1531  0.8226
 1717TIP3    H126786   5.373   3.492   7.582  0.5866  0.1282 -0.0903
 1717TIP3    H226787   5.308   3.604   7.660 -1.4236 -1.0991  0.0680
 1718TIP3   OH226788   2.234   1.650   0.368 -0.3330  0.1285  0.1311
 1718TIP3    H126789   2.292   1.614   0.435 -0.4719  2.4293  1.5997
 1718TIP3    H226790   2.238   1.745   0.382 -3.4827  0.4449 -0.4775
 1719TIP3   OH226791   1.143   2.860   8.355  0.1370 -0.0495  0.8708
 1719TIP3    H126792   1.161   2.949   8.386 -0.7472  0.7086 -0.6709
 1719TIP3    H226793   1.178   2.858   8.266 -0.9905 -0.8173  0.4218
 1720TIP3   OH226794   3.798   4.114   7.550 -0.4575  0.3671 -0.5572
 1720TIP3    H126795   3.709   4.148   7.564  0.4930  2.3268  1.1819
 1720TIP3    H226796   3.852   4.193   7.542  1.4679 -0.7694  0.7418
 1721TIP3   OH226797   4.529   1.389   0.027 -0.0637 -0.0898  0.4187
 1721TIP3    H126798   4.488   1.398   0.114  0.5659  1.0085  0.6156
 1721TIP3    H226799   4.490   1.459  -0.025  1.5405  0.9760  0.6093
 1722TIP3   OH226800   1.875   4.992   8.188  0.1651 -0.1415  0.7987
 1722TIP3    H126801   1.791   5.000   8.144  0.7556 -1.8803 -0.7793
 1722TIP3    H226802   1.933   5.050   8.139 -0.0599  0.9697  1.8153
 1723TIP3   OH226803   0.030   6.694   7.111  0.2183 -0.2057  0.5214
 1723TIP3    H126804   0.022   6.622   7.174 -1.0630 -2.2854 -1.8510
 1723TIP3    H226805   0.119   6.686   7.077 -0.1242 -1.1497 -0.2016
 1724TIP3   OH226806   6.660   4.368   8.742 -0.1694  0.1862  0.0760
 1724TIP3    H126807   6.651   4.415   8.659  1.6499 -0.2218 -0.3994
 1724TIP3    H226808   6.645   4.434   8.809 -0.2122  0.8588 -0.5810
 1725TIP3   OH226809   1.622   5.457   0.592  0.4189  0.2179 -0.0748
 1725TIP3    H126810   1.701   5.420   0.552  1.7405  0.5359  2.0666
 1725TIP3    H226811   1.649   5.482   0.680 -2.1251  0.2558  0.7846
 1726TIP3   OH226812   6.401   2.504   7.690  0.3246 -0.0136  0.7644
 1726TIP3    H126813   6.341   2.569   7.724 -0.1854  1.7140 -2.9496
 1726TIP3    H226814   6.469   2.555   7.645  0.6484 -1.9775 -1.1453
 1727TIP3   OH226815   6.445   4.999   8.316  0.2595  0.1835  0.4182
 1727TIP3    H126816   6.385   4.926   8.328  0.8972 -0.5862 -0.8542
 1727TIP3    H226817   6.515   4.964   8.261  2.1524  0.9049  2.2200
 1728TIP3   OH226818   3.597   0.709   8.025  0.0363  0.1278 -0.5811
 1728TIP3    H126819   3.657   0.635   8.012  0.1324 -0.0558  0.8228
 1728TIP3    H226820   3.516   0.670   8.057  0.6420  0.7294  1.8565
 1729TIP3   OH226821   3.926   4.915   1.357 -0.1287  0.5240 -0.0974
 1729TIP3    H126822   3.938   4.992   1.301 -0.2623  0.8726  0.3453
 1729TIP3    H226823   3.951   4.945   1.445  1.0503 -0.2946 -0.1264
 1730TIP3   OH226824   1.011   6.763   6.396 -0.2767 -0.0170 -0.5112
 1730TIP3    H126825   0.979   6.853   6.401 -0.3752 -0.0931  0.6617
 1730TIP3    H226826   1.095   6.764   6.442 -1.2083 -0.8740  1.3615
 1731TIP3   OH226827   3.123   4.728   0.911  0.0379  0.3334 -0.0443
 1731TIP3    H126828   3.127   4.684   0.996  0.9838  0.8973  0.2099
 1731TIP3    H226829   3.144   4.819   0.930 -0.1349  0.5472 -0.8338
 1732TIP3   OH226830   4.633   3.145   2.482 -0.4816  0.1182 -0.0628
 1732TIP3    H126831   4.654   3.076   2.420  1.2107 -1.4180  2.0604
 1732TIP3    H226832   4.544   3.125   2.511 -0.3154 -0.6917 -0.0931
 1733TIP3   OH226833   2.399   5.442   7.216  0.2587  0.1678 -0.2992
 1733TIP3    H126834   2.438   5.510   7.270 -0.5128 -1.8776  3.1511
 1733TIP3    H226835   2.463   5.371   7.218 -0.2805 -0.3591 -1.1811
 1734TIP3   OH226836   5.597   5.861   6.346 -0.0472  0.1123  0.4045
 1734TIP3    H126837   5.670   5.915   6.376  0.0533 -0.0451  0.4469
 1734TIP3    H226838   5.623   5.831   6.259 -0.9017  1.6323 -0.4273
 1735TIP3   OH226839   3.342   3.588   8.834  0.6093 -0.3996  0.9149
 1735TIP3    H126840   3.425   3.564   8.793  1.0435  0.9286  0.9805
 1735TIP3    H226841   3.329   3.680   8.811 -0.5559 -0.4212  1.3986
 1736TIP3   OH226842   0.019   3.231   8.361 -0.4855 -0.5930 -0.4541
 1736TIP3    H126843  -0.009   3.317   8.390  0.5434 -0.6207  0.7039
 1736TIP3    H226844  -0.059   3.193   8.320 -1.2050  0.5214 -0.1677
 1737TIP3   OH226845   0.086   6.023   0.855 -0.0811  0.5137 -0.1208
 1737TIP3    H126846   0.060   5.931   0.853  0.6851  0.2943 -1.2791
 1737TIP3    H226847   0.182   6.020   0.847 -0.0799  1.4163 -0.5203
 1738TIP3   OH226848   3.549   3.549   0.775 -0.2749  0.0548  0.1749
 1738TIP3    H126849   3.523   3.533   0.866 -0.3771  0.8562  0.2999
 1738TIP3    H226850   3.588   3.467   0.746 -2.6827 -1.1512  0.0557
 1739TIP3   OH226851   2.729   5.861   0.963 -0.0222 -0.0744 -0.6873
 1739TIP3    H126852   2.718   5.950   0.928 -0.5864  0.4158  0.6751
 1739TIP3    H226853   2.704   5.804   0.891 -0.3434  0.8817 -1.3600
 1740TIP3   OH226854   1.053   4.446   6.776 -0.0809 -0.1263  0.1978
 1740TIP3    H126855   1.129   4.410   6.823 -0.6927 -0.7050  0.7837
 1740TIP3    H226856   1.057   4.404   6.690  0.4337  0.0814  0.1167
 1741TIP3   OH226857   3.591   3.810   0.579  0.4076  0.0848  0.1797
 1741TIP3    H126858   3.638   3.827   0.661  0.1666 -1.6796  0.7261
 1741TIP3    H226859   3.607   3.718   0.561 -0.0078  0.3084 -1.4863
 1742TIP3   OH226860   0.997   6.202   0.455  0.1710 -0.6773  0.3795
 1742TIP3    H126861   0.926   6.153   0.414  1.9426 -3.6901  0.6328
 1742TIP3    H226862   1.019   6.270   0.391 -0.8140 -1.7149 -1.1354
 1743TIP3   OH226863   5.665   1.016   7.298  0.3510  0.4421 -0.0935
 1743TIP3    H126864   5.646   0.927   7.327  0.9708  0.4865  0.4691
 1743TIP3    H226865   5.692   1.006   7.207 -0.4167  0.1564 -0.2940
 1744TIP3   OH226866   5.672   5.490   0.170 -0.2868  0.4867 -0.3267
 1744TIP3    H126867   5.603   5.557   0.177 -1.0289 -0.2105 -0.7198
 1744TIP3    H226868   5.645   5.437   0.094 -0.8467 -1.5132  1.1821
 1745TIP3   OH226869   5.520   1.397   7.120 -0.3634  0.0233  0.5939
 1745TIP3    H126870   5.487   1.444   7.043  0.7940 -0.9517 -0.5312
 1745TIP3    H226871   5.512   1.304   7.096 -0.6873 -0.3226  1.9645
 1746TIP3   OH226872   2.472   6.580   2.363  0.2536 -0.3121  0.3714
 1746TIP3    H126873   2.507   6.493   2.384 -0.7142 -0.7046  0.4016
 1746TIP3    H226874   2.516   6.639   2.423  0.9060 -0.7845  0.3687
 1747TIP3   OH226875   2.915   2.457   0.120  0.0714  0.2092  0.6318
 1747TIP3    H126876   2.881   2.545   0.139 -0.5046 -0.3796  2.4976
 1747TIP3    H226877   2.995   2.473   0.070 -0.4469  1.7621  0.2214
 1748TIP3   OH226878   3.530   5.154   0.347 -0.5714  0.0326 -0.0262
 1748TIP3    H126879   3.447   5.106   0.354  0.8276 -2.7552 -1.1687
 1748TIP3    H226880   3.504   5.244   0.328 -3.3284 -0.5342  0.5984
 1749TIP3   OH226881   5.472   4.451   7.166 -0.1654 -0.1439 -0.0140
 1749TIP3    H126882   5.475   4.446   7.071  2.3084 -0.2029  0.0080
 1749TIP3    H226883   5.478   4.545   7.185 -0.0476 -0.1715  0.0844
 1750TIP3   OH226884   1.939   0.701   7.768  0.1610 -0.4271 -0.8570
 1750TIP3    H126885   1.942   0.789   7.730  0.7531 -0.3158 -0.5701
 1750TIP3    H226886   1.933   0.642   7.693  0.0590 -0.1543 -1.0636
 1751TIP3   OH226887   4.735   6.269   0.015 -0.2769 -0.2815  0.0209
 1751TIP3    H126888   4.699   6.358   0.015 -1.2553 -0.6189 -1.8851
 1751TIP3    H226889   4.816   6.276  -0.035 -0.3814 -0.4615 -0.1755
 1752TIP3   OH226890   0.263   6.697   6.974 -0.0608  0.3674  0.1242
 1752TIP3    H126891   0.320   6.752   7.026  2.1071 -1.0872 -0.5625
 1752TIP3    H226892   0.225   6.756   6.908  0.9728  1.3013  0.3487
 1753TIP3   OH226893   6.229   4.259   7.180  0.2169 -0.2048  0.4606
 1753TIP3    H126894   6.283   4.201   7.126  0.2825  0.0422  0.2581
 1753TIP3    H226895   6.143   4.259   7.137  0.1827 -0.2507  0.5300
 1754TIP3   OH226896   4.161   4.379   2.525 -0.2722 -0.3068  0.1740
 1754TIP3    H126897   4.084   4.436   2.536 -1.6651 -2.2699  1.1069
 1754TIP3    H226898   4.208   4.386   2.608  0.8397  1.2047 -0.5387
 1755TIP3   OH226899   5.183   0.606   7.572 -0.4123 -0.4496 -0.2151
 1755TIP3    H126900   5.092   0.635   7.580  0.3598  3.0871 -1.8857
 1755TIP3    H226901   5.189   0.572   7.483 -0.0870 -0.6401 -0.1192
 1756TIP3   OH226902   4.820   6.506   6.129  0.3210 -0.6283  0.5472
 1756TIP3    H126903   4.822   6.600   6.152 -0.6836 -0.3051 -0.6193
 1756TIP3    H226904   4.908   6.488   6.096  0.4179 -0.0049  0.4509
 1757TIP3   OH226905   1.080   1.910   1.346  0.3741 -0.1725 -0.1786
 1757TIP3    H126906   1.049   1.827   1.310  0.1968  0.2212 -0.9571
 1757TIP3    H226907   1.072   1.899   1.441 -1.0107 -0.5374 -0.3146
 1758TIP3   OH226908   0.492   5.649   6.465 -0.0392  0.2039  0.3221
 1758TIP3    H126909   0.504   5.744   6.464 -0.1761  0.2646  1.8833
 1758TIP3    H226910   0.573   5.614   6.501 -0.2152 -0.2204  0.3149
 1759TIP3   OH226911   4.461   5.309   2.133  0.6946 -0.2504 -0.6657
 1759TIP3    H126912   4.497   5.388   2.092 -0.1577  0.8265  0.5920
 1759TIP3    H226913   4.447   5.334   2.224  1.1356 -2.1176 -0.0509
 1760TIP3   OH226914   4.166   6.442   1.356  0.1856 -0.2744  0.1208
 1760TIP3    H126915   4.190   6.492   1.434 -0.5013  2.3818 -1.2545
 1760TIP3    H226916   4.244   6.391   1.335  1.6148  1.5946  0.6272
 1761TIP3   OH226917   1.785   6.748   8.664  0.1836  0.0952  0.0475
 1761TIP3    H126918   1.727   6.825   8.662 -0.8469 -0.6250  1.2026
 1761TIP3    H226919   1.867   6.781   8.700 -0.6347  0.4413  1.6921
 1762TIP3   OH226920   5.809   4.398   7.433 -0.2654  0.2554 -0.6900
 1762TIP3    H126921   5.882   4.346   7.465  0.2617  0.7011 -1.1574
 1762TIP3    H226922   5.849   4.465   7.378 -1.0338  0.4179 -1.0665
 1763TIP3   OH226923   4.909   0.937   8.673  0.2520 -0.8671  0.1636
 1763TIP3    H126924   4.881   0.951   8.764  1.4497  1.0470  0.3078
 1763TIP3    H226925   5.001   0.963   8.672  0.1012 -0.2161 -1.7064
 1764TIP3   OH226926   5.204   0.663   1.567  0.1951 -0.2181  0.2742
 1764TIP3    H126927   5.293   0.650   1.536  0.1165 -1.1529  0.4176
 1764TIP3    H226928   5.188   0.757   1.556  0.7307 -0.2627 -0.9673
 1765TIP3   OH226929   3.336   2.171   2.213  0.6105 -0.3537 -0.2916
 1765TIP3    H126930   3.279   2.136   2.144 -1.4290  0.3944  0.9224
 1765TIP3    H226931   3.315   2.118   2.290  1.4329  0.0737  0.2390
 1766TIP3   OH226932   4.943   2.737   6.138 -0.2103 -0.5353  0.0798
 1766TIP3    H126933   4.877   2.806   6.146 -0.8309 -1.0772 -0.3364
 1766TIP3    H226934   4.922   2.675   6.207  0.8373  0.0664  0.9870
 1767TIP3   OH226935   0.361   1.596   0.924 -0.5195  0.4601  0.4397
 1767TIP3    H126936   0.350   1.678   0.875  0.0334  0.2310 -0.0884
 1767TIP3    H226937   0.280   1.586   0.974 -1.3234  0.4346 -0.8325
 1768TIP3   OH226938   2.703   5.409   1.028 -0.6976 -0.0279  0.9290
 1768TIP3    H126939   2.769   5.478   1.023 -0.2740 -0.4298  0.9751
 1768TIP3    H226940   2.620   5.456   1.037 -0.5199  0.5038 -0.0560
 1769TIP3   OH226941   2.721   2.149   1.041  0.5300  0.7630  0.3195
 1769TIP3    H126942   2.759   2.109   0.962 -1.2103  0.4433 -0.3877
 1769TIP3    H226943   2.643   2.194   1.010 -1.1364 -0.7409  2.0606
 1770TIP3   OH226944   5.772   0.071   1.872 -0.4853  0.3517  0.3650
 1770TIP3    H126945   5.696   0.040   1.921 -0.5325  0.7829  0.5681
 1770TIP3    H226946   5.737   0.135   1.810 -0.1800  1.2432  1.0894
 1771TIP3   OH226947   5.378   6.283   0.031 -0.4817  0.3723 -0.4382
 1771TIP3    H126948   5.467   6.249   0.025 -0.6399 -0.0470 -0.4211
 1771TIP3    H226949   5.340   6.265  -0.055 -0.8411 -0.2758 -0.1531
 1772TIP3   OH226950   6.426   6.171   7.239  0.0448 -0.4366  0.3384
 1772TIP3    H126951   6.422   6.229   7.163 -1.9725 -0.6336  0.2574
 1772TIP3    H226952   6.519   6.148   7.246  1.1108  3.3297  0.8317
 1773TIP3   OH226953   0.622   1.350   8.337  0.5995  0.0127  0.0371
 1773TIP3    H126954   0.691   1.403   8.297  2.0775 -1.5484  0.4171
 1773TIP3    H226955   0.660   1.263   8.345 -1.1898 -0.7378  0.9133
 1774TIP3   OH226956   5.401   3.680   8.108  0.0083  0.1612  0.8124
 1774TIP3    H126957   5.484   3.719   8.135 -0.1186  0.0813  1.3328
 1774TIP3    H226958   5.415   3.586   8.121  0.1950  0.0542 -0.1060
 1775TIP3   OH226959   3.334   5.011   1.828 -0.0997  0.8476 -0.2573
 1775TIP3    H126960   3.376   5.092   1.800 -0.9060  0.9103 -1.3675
 1775TIP3    H226961   3.241   5.032   1.833 -0.2125  0.2583  0.4788
 1776TIP3   OH226962   5.040   0.068   7.978  0.2148  0.3089  0.4066
 1776TIP3    H126963   5.009   0.036   7.893  1.7628  1.4070 -0.6313
 1776TIP3    H226964   5.129   0.034   7.985  1.0187  2.2562  0.3890
 1777TIP3   OH226965   3.999   4.309   6.710 -0.1950  0.5134  0.3056
 1777TIP3    H126966   4.043   4.263   6.639 -1.2311  1.7970 -1.2329
 1777TIP3    H226967   3.911   4.272   6.711 -0.4974  1.2280  0.2318
 1778TIP3   OH226968   6.356   2.563   1.373  0.5967 -0.6370  0.0142
 1778TIP3    H126969   6.277   2.567   1.319  0.8287  2.6309 -0.2544
 1778TIP3    H226970   6.422   2.524   1.316  0.1847  0.4184 -1.2317
 1779TIP3   OH226971   0.845   3.905   7.930  0.1605  0.1029  0.5366
 1779TIP3    H126972   0.842   3.996   7.958  1.9658  0.6673 -0.9125
 1779TIP3    H226973   0.905   3.863   7.993 -0.4437 -0.0417  1.0291
 1780TIP3   OH226974   1.636   2.028   7.993 -0.0509 -0.0212  0.3344
 1780TIP3    H126975   1.661   2.120   7.987 -0.4052  0.3083  3.0498
 1780TIP3    H226976   1.710   1.981   7.953  0.6199  1.3656 -0.1224
 1781TIP3   OH226977   2.525   4.243   8.855 -0.3482  0.3116  0.0263
 1781TIP3    H126978   2.578   4.254   8.775  3.0057 -2.6885  1.5376
 1781TIP3    H226979   2.535   4.325   8.902  2.0517  0.3290 -0.3836
 1782TIP3   OH226980   5.228   2.512   8.345 -0.0430 -0.0313  0.1911
 1782TIP3    H126981   5.250   2.465   8.264 -1.2129 -1.0493  0.4259
 1782TIP3    H226982   5.163   2.576   8.318  0.1441  0.1632  0.1996
 1783TIP3   OH226983   5.833   3.211   8.830 -0.3695  0.1156  0.0412
 1783TIP3    H126984   5.745   3.175   8.819 -0.5277  0.4642  0.1358
 1783TIP3    H226985   5.846   3.267   8.753  0.6870 -1.7279 -1.2036
 1784TIP3   OH226986   4.109   4.345   7.809  0.0848 -0.0892  0.6129
 1784TIP3    H126987   4.041   4.315   7.869  0.3274 -0.0928  0.8909
 1784TIP3    H226988   4.162   4.406   7.861  0.7613 -0.6874  0.6448
 1785TIP3   OH226989   2.536   5.508   7.770  0.4769  0.1565  0.3191
 1785TIP3    H126990   2.470   5.505   7.701  1.8945 -1.1887 -1.0706
 1785TIP3    H226991   2.498   5.564   7.838 -0.6666  2.1501 -1.8426
 1786TIP3   OH226992   4.102   5.637   6.531  0.1025 -0.0474  0.0026
 1786TIP3    H126993   4.049   5.688   6.470 -0.8822 -0.8973  0.1203
 1786TIP3    H226994   4.189   5.677   6.528 -0.5298  1.3430 -0.2344
 1787TIP3   OH226995   5.886   2.889   8.317 -0.0112 -0.6639 -0.5377
 1787TIP3    H126996   5.814   2.914   8.374  0.3425 -0.9261  0.0283
 1787TIP3    H226997   5.905   2.798   8.340  0.4289 -0.6286 -0.7527
 1788TIP3   OH226998   0.319   0.443   8.321  0.2217  0.3094  0.3387
 1788TIP3    H126999   0.309   0.350   8.300 -3.0893  0.6522 -0.1000
 1788TIP3    H227000   0.295   0.451   8.413 -2.1030  0.9470 -0.2376
 1789TIP3   OH227001   1.046   5.429   6.807  0.1007  0.3097  0.1322
 1789TIP3    H127002   1.091   5.466   6.732  1.3224 -0.8884  0.2457
 1789TIP3    H227003   0.956   5.460   6.798  0.0683 -0.2913 -2.1433
 1790TIP3   OH227004   4.822   1.676   1.533 -0.1914  0.0162 -0.3292
 1790TIP3    H127005   4.821   1.731   1.454 -0.4950  1.2422  0.5048
 1790TIP3    H227006   4.842   1.736   1.604  0.9726 -1.2370  0.4415
 1791TIP3   OH227007   3.135   1.270   6.657  0.0370 -0.8104 -0.5090
 1791TIP3    H127008   3.130   1.329   6.732 -1.4952  0.0353 -1.2145
 1791TIP3    H227009   3.226   1.272   6.630  0.4044 -0.3541  0.7256
 1792TIP3   OH227010   1.291   3.657   7.495  0.4255 -0.2355 -0.1033
 1792TIP3    H127011   1.337   3.714   7.433 -3.4002  0.0665 -3.0106
 1792TIP3    H227012   1.320   3.569   7.473 -1.0671 -0.1627 -2.6872
 1793TIP3   OH227013   0.383   2.846   0.269 -0.2929  0.1057  0.0416
 1793TIP3    H127014   0.402   2.759   0.232  0.1675  0.3103 -0.2062
 1793TIP3    H227015   0.291   2.841   0.294 -0.3413 -0.3735 -0.2096
 1794TIP3   OH227016   1.652   4.156   8.231 -0.6036 -0.1052  0.2941
 1794TIP3    H127017   1.739   4.116   8.238 -0.7535 -0.5647 -0.3845
 1794TIP3    H227018   1.603   4.097   8.175 -0.8021  1.1033 -0.8515
 1795TIP3   OH227019   1.965   1.056   1.667  0.0989 -0.1154  0.3935
 1795TIP3    H127020   1.893   1.006   1.706  0.0032 -0.2564  0.0451
 1795TIP3    H227021   1.948   1.146   1.692  0.0088 -0.1967  0.6323
 1796TIP3   OH227022   2.644   5.637   8.500  0.4000 -0.2027 -0.1054
 1796TIP3    H127023   2.605   5.723   8.519 -0.2383 -0.6537  0.7620
 1796TIP3    H227024   2.693   5.616   8.579  0.0848 -0.8754 -0.0809
 1797TIP3   OH227025   2.583   2.356   2.511 -0.4655 -0.7007  0.2626
 1797TIP3    H127026   2.601   2.404   2.431 -0.2043 -0.8337  0.2412
 1797TIP3    H227027   2.490   2.336   2.507 -0.2539 -1.5862 -0.4929
 1798TIP3   OH227028   0.170   0.790   0.301  0.1520  0.1390 -0.2797
 1798TIP3    H127029   0.194   0.879   0.277  2.3328 -0.0973  0.8253
 1798TIP3    H227030   0.228   0.734   0.249  3.0468 -0.4248  3.1560
 1799TIP3   OH227031   6.490   1.375   1.569 -0.2815 -0.8969  0.3417
 1799TIP3    H127032   6.460   1.288   1.598  1.5252 -1.5388  0.4198
 1799TIP3    H227033   6.430   1.436   1.611 -1.9595 -2.1048 -0.1615
 1800TIP3   OH227034   1.903   0.854   0.705  0.7814 -0.0418  0.0204
 1800TIP3    H127035   1.880   0.774   0.750  1.0411 -0.1925 -0.1078
 1800TIP3    H227036   1.998   0.848   0.692  1.0505  0.9589  1.3258
 1801TIP3   OH227037   1.114   1.365   8.166  0.7529 -0.0536  0.4721
 1801TIP3    H127038   1.121   1.363   8.071  1.9060  0.4443  0.5334
 1801TIP3    H227039   1.200   1.394   8.196  0.8203 -1.4359  1.7316
 1802TIP3   OH227040   4.478   1.172   6.624 -0.1726  0.3340 -0.0707
 1802TIP3    H127041   4.493   1.095   6.679 -2.9249  0.6346  1.2716
 1802TIP3    H227042   4.398   1.151   6.576 -0.6995  2.1392 -0.0400
 1803TIP3   OH227043   3.467   2.469   0.041  0.0777  0.8129 -0.0433
 1803TIP3    H127044   3.487   2.424  -0.041  3.3931  1.7601  0.0995
 1803TIP3    H227045   3.445   2.559   0.014 -1.2495  0.5220  0.0048
 1804TIP3   OH227046   5.753   5.430   6.252 -0.0085  0.3818 -0.0941
 1804TIP3    H127047   5.811   5.505   6.267 -0.1986  0.2211  1.6602
 1804TIP3    H227048   5.780   5.366   6.317 -1.4592 -0.1170  0.0403
 1805TIP3   OH227049   1.560   4.797   0.157 -0.1189  0.1978 -0.1595
 1805TIP3    H127050   1.640   4.840   0.129 -0.6748  1.4797  0.1275
 1805TIP3    H227051   1.490   4.859   0.136 -0.9900 -0.6687  0.0598
 1806TIP3   OH227052   2.535   2.186   8.865 -0.1532 -0.4672  0.0970
 1806TIP3    H127053   2.441   2.203   8.856 -0.1208 -0.6978 -0.8097
 1806TIP3    H227054   2.555   2.205   8.957 -0.6778  1.6334 -0.1585
 1807TIP3   OH227055   5.670   2.980   6.538  0.4254 -0.1680  0.0315
 1807TIP3    H127056   5.671   3.005   6.630 -0.1036 -0.2788  0.0666
 1807TIP3    H227057   5.695   3.059   6.491 -0.0386  0.0925  0.2217
 1808TIP3   OH227058   2.331   2.345   8.822  0.0914  0.1562 -0.4123
 1808TIP3    H127059   2.319   2.387   8.907 -1.7373  0.1444 -0.6199
 1808TIP3    H227060   2.381   2.408   8.771 -0.0579  0.7962  0.2119
 1809TIP3   OH227061   0.060   4.244   1.681 -0.8677 -0.1796 -0.2306
 1809TIP3    H127062   0.107   4.220   1.761  2.6839  0.8907 -1.7743
 1809TIP3    H227063   0.029   4.333   1.697 -1.4412 -0.4967  0.4453
 1810TIP3   OH227064   1.821   1.838   2.735 -0.1826 -0.1178  0.0210
 1810TIP3    H127065   1.795   1.767   2.677 -0.9988  1.0638 -1.0977
 1810TIP3    H227066   1.739   1.872   2.770 -0.0675  2.0039 -1.5718
 1811TIP3   OH227067   1.788   1.499   0.783  0.1990 -0.2149  0.1786
 1811TIP3    H127068   1.791   1.535   0.695 -1.1575 -0.3496  0.0585
 1811TIP3    H227069   1.872   1.453   0.793 -0.9829 -3.2821 -2.4120
 1812TIP3   OH227070   1.261   0.746   8.139  0.1835 -0.6329  0.3922
 1812TIP3    H127071   1.307   0.758   8.223  0.4974  0.3737  0.0830
 1812TIP3    H227072   1.201   0.820   8.134  0.9394 -0.0826 -0.7755
 1813TIP3   OH227073   0.224   0.758   8.400 -0.1005  0.5623  0.3074
 1813TIP3    H127074   0.256   0.848   8.397  0.3907  0.5184  2.5918
 1813TIP3    H227075   0.303   0.704   8.400 -0.3963  0.0545 -1.5840
 1814TIP3   OH227076   3.517   2.613   8.600  0.9608 -0.0282  0.4745
 1814TIP3    H127077   3.441   2.576   8.556 -0.0306  0.6982  1.5103
 1814TIP3    H227078   3.591   2.587   8.546  0.1043 -1.7313  0.0516
 1815TIP3   OH227079   6.366   0.768   1.987  0.2780  0.0735 -0.3547
 1815TIP3    H127080   6.366   0.821   1.908 -0.5259 -0.9119 -1.0371
 1815TIP3    H227081   6.366   0.678   1.956  2.4630 -0.3739  0.7779
 1816TIP3   OH227082   2.826   0.296   0.045  0.3792 -0.1180 -0.3576
 1816TIP3    H127083   2.869   0.314  -0.038  0.5871  2.1212  0.1812
 1816TIP3    H227084   2.896   0.268   0.103  0.7973  1.3521 -0.1081
 1817TIP3   OH227085   2.887   6.484   7.080 -0.0189 -0.3097 -0.0353
 1817TIP3    H127086   2.982   6.484   7.065  0.0408  0.8574  0.2606
 1817TIP3    H227087   2.849   6.488   6.992  0.1739 -1.4814 -0.1926
 1818TIP3   OH227088   2.080   4.449   7.743  0.7482  0.4493 -0.1707
 1818TIP3    H127089   2.087   4.519   7.677  3.6604  1.0551  0.5961
 1818TIP3    H227090   2.125   4.375   7.704 -0.4002 -0.2954 -0.1127
 1819TIP3   OH227091   6.253   6.637   2.447  0.0639  0.1398 -0.1160
 1819TIP3    H127092   6.190   6.567   2.460  1.8497 -1.9993 -2.0845
 1819TIP3    H227093   6.199   6.715   2.433 -2.0833 -1.2618 -0.1131
 1820TIP3   OH227094   3.060   5.585   6.815 -0.4609  0.1096  0.5852
 1820TIP3    H127095   3.046   5.642   6.738 -2.4665  0.0988  0.8801
 1820TIP3    H227096   3.144   5.614   6.850 -0.4894  1.5652 -0.4092
 1821TIP3   OH227097   1.663   6.549   7.514 -0.0263 -0.0306  0.0162
 1821TIP3    H127098   1.624   6.529   7.428  0.2697 -2.9522  0.4527
 1821TIP3    H227099   1.756   6.526   7.504  0.2708  0.7615  0.8043
 1822TIP3   OH227100   3.130   3.893   0.244  0.5244  0.1771  0.0413
 1822TIP3    H127101   3.216   3.935   0.248  0.2492  0.6395  1.8341
 1822TIP3    H227102   3.071   3.954   0.288 -0.4575 -0.7655  0.0698
 1823TIP3   OH227103   4.999   3.681   8.590 -0.3027  0.1134 -0.5061
 1823TIP3    H127104   5.041   3.766   8.579 -0.6520  0.2065 -1.1508
 1823TIP3    H227105   4.924   3.699   8.647  0.6152 -0.0893  0.8141
 1824TIP3   OH227106   4.262   0.594   7.010 -0.3510  0.0276 -0.4513
 1824TIP3    H127107   4.314   0.668   6.980 -0.6375  0.2316 -0.4450
 1824TIP3    H227108   4.259   0.602   7.105 -1.8236  0.9870 -0.5555
 1825TIP3   OH227109   6.297   5.001   1.179  0.6016  0.5160 -0.1840
 1825TIP3    H127110   6.287   5.096   1.170 -0.8907  0.3903 -0.1123
 1825TIP3    H227111   6.330   4.989   1.267  1.1667  0.9824 -0.3224
 1826TIP3   OH227112   6.399   5.238   7.934  0.3196 -0.4747 -0.3526
 1826TIP3    H127113   6.377   5.146   7.918  0.6997 -0.8556  1.1741
 1826TIP3    H227114   6.321   5.275   7.975  0.5026 -0.3605 -0.1043
 1827TIP3   OH227115   2.691   0.736   1.750  0.3308  0.4869 -0.1174
 1827TIP3    H127116   2.620   0.737   1.815 -0.3453 -1.1246 -0.7946
 1827TIP3    H227117   2.769   0.717   1.801  0.1951  1.6183  0.5462
 1828TIP3   OH227118   6.102   2.097   8.362 -0.3718 -0.2375 -0.0767
 1828TIP3    H127119   6.041   2.024   8.371 -0.8163  0.1981  0.5970
 1828TIP3    H227120   6.046   2.173   8.346 -0.0698  0.2661  1.1436
 1829TIP3   OH227121   0.994   5.764   8.001  0.6203  0.2735 -0.5937
 1829TIP3    H127122   0.945   5.703   8.056  1.6699  1.7383  2.1173
 1829TIP3    H227123   0.926   5.818   7.960 -0.1870 -1.0035 -1.0323
 1830TIP3   OH227124   4.246   4.905   1.999 -1.2097 -0.0604 -0.1521
 1830TIP3    H127125   4.324   4.895   1.943 -1.5875 -1.4957 -0.4676
 1830TIP3    H227126   4.235   5.000   2.007  0.2612  0.1831 -0.5343
 1831TIP3   OH227127   4.128   2.340   8.412  0.1802 -0.0053 -0.1327
 1831TIP3    H127128   4.033   2.344   8.421  0.1934  0.7502 -0.2400
 1831TIP3    H227129   4.152   2.423   8.370  0.7869 -0.5949 -1.0052
 1832TIP3   OH227130   3.905   2.872   7.375 -0.0998  0.0374  0.5753
 1832TIP3    H127131   3.934   2.922   7.298 -1.5929  2.3258  1.3914
 1832TIP3    H227132   3.827   2.825   7.344  0.6135 -0.9034  0.1330
 1833TIP3   OH227133   0.856   6.743   7.365 -0.1506  0.2054  0.5031
 1833TIP3    H127134   0.804   6.694   7.301 -0.1064 -1.4340  1.6715
 1833TIP3    H227135   0.815   6.725   7.449  0.9603  0.7326  1.1789
 1834TIP3   OH227136   3.119   6.166   2.153 -0.1987  0.0376  0.3105
 1834TIP3    H127137   3.130   6.252   2.114 -0.0713  0.1206  0.5319
 1834TIP3    H227138   3.027   6.164   2.180 -0.1366  0.1940  0.5289
 1835TIP3   OH227139   6.590   6.060   0.548 -0.6311  0.5272 -0.1133
 1835TIP3    H127140   6.676   6.094   0.525 -0.3123 -0.0348  0.2459
 1835TIP3    H227141   6.594   6.045   0.642 -0.7751 -0.4730 -0.2596
 1836TIP3   OH227142   0.848   5.473   7.599 -0.1081  0.2026 -0.6606
 1836TIP3    H127143   0.864   5.393   7.550 -0.5297  0.2790 -0.9277
 1836TIP3    H227144   0.835   5.540   7.532 -1.1064  0.2246 -0.4561
 1837TIP3   OH227145   0.795   0.538   7.192 -0.1093  0.2665 -0.4336
 1837TIP3    H127146   0.809   0.632   7.187 -1.1747  0.5788  1.3252
 1837TIP3    H227147   0.743   0.517   7.114  0.4627  1.0463 -1.0388
 1838TIP3   OH227148   4.474   0.840   7.185 -0.2071  0.6561 -0.5210
 1838TIP3    H127149   4.566   0.821   7.202 -1.0181 -1.8921  1.9334
 1838TIP3    H227150   4.457   0.803   7.099  0.7166 -0.4797 -0.2490
 1839TIP3   OH227151   3.650   6.007   8.903  0.5783 -0.5386 -0.2465
 1839TIP3    H127152   3.596   6.086   8.899 -0.5746 -1.1262  2.0019
 1839TIP3    H227153   3.735   6.034   8.867 -0.5056  1.0239 -1.7804
 1840TIP3   OH227154   1.351   4.451   7.542 -0.1004  0.1294  0.7477
 1840TIP3    H127155   1.272   4.503   7.527 -1.0978 -1.1043  1.4061
 1840TIP3    H227156   1.362   4.452   7.637  2.3513  2.5552  0.5577
 1841TIP3   OH227157   5.785   0.551   0.503 -0.5121  0.2594  0.2199
 1841TIP3    H127158   5.781   0.554   0.599  0.0552  1.9565  0.2295
 1841TIP3    H227159   5.804   0.460   0.482  1.5034  0.2512  1.8314
 1842TIP3   OH227160   1.072   2.715   2.647 -0.3032  0.1700  0.1501
 1842TIP3    H127161   1.012   2.681   2.712  1.8870 -2.1239  1.1533
 1842TIP3    H227162   1.122   2.782   2.693  1.8174 -2.0217  1.2903
 1843TIP3   OH227163   1.777   4.749   8.475 -0.0910 -0.3048  0.9547
 1843TIP3    H127164   1.755   4.710   8.390 -0.3482 -0.3756  1.0534
 1843TIP3    H227165   1.865   4.784   8.463 -0.6238  0.8593  0.2558
 1844TIP3   OH227166   0.209   3.192   1.326  0.0197  0.4162 -0.0081
 1844TIP3    H127167   0.157   3.184   1.406 -0.8020  0.5389 -0.5188
 1844TIP3    H227168   0.297   3.167   1.353 -0.0140  1.4799  1.1772
 1845TIP3   OH227169   4.769   5.209   1.890 -0.1371 -0.4923  0.4873
 1845TIP3    H127170   4.792   5.296   1.922  1.3639 -1.1376  1.2332
 1845TIP3    H227171   4.755   5.157   1.969 -1.7222 -0.7915  0.0530
 1846TIP3   OH227172   4.711   0.202   0.966  0.0567  0.4418 -0.0559
 1846TIP3    H127173   4.684   0.257   1.040 -0.0313  0.1410  0.1388
 1846TIP3    H227174   4.652   0.227   0.895 -0.0855  0.4882  0.0767
 1847TIP3   OH227175   5.180   1.678   1.618  0.6856  0.2435  0.0714
 1847TIP3    H127176   5.269   1.675   1.652  1.1873  2.4593 -0.9041
 1847TIP3    H227177   5.154   1.769   1.628 -0.6152  0.1217 -1.8182
 1848TIP3   OH227178   6.390   1.836   0.179  0.0104  0.0049 -0.1670
 1848TIP3    H127179   6.441   1.895   0.234 -1.0226 -0.3309  1.2225
 1848TIP3    H227180   6.300   1.847   0.210 -0.2616 -2.0016 -0.1363
 1849TIP3   OH227181   3.707   0.006   7.659  0.2956  0.1562 -0.1451
 1849TIP3    H127182   3.690  -0.065   7.720  0.6782  0.9776  0.9587
 1849TIP3    H227183   3.620   0.032   7.628  0.0530  0.0574  0.4371
 1850TIP3   OH227184   0.793   2.970   0.440 -0.3701 -0.1699 -0.7084
 1850TIP3    H127185   0.755   3.053   0.471 -0.1024 -0.2163 -0.2426
 1850TIP3    H227186   0.745   2.903   0.488  0.4603 -0.2194  0.0768
 1851TIP3   OH227187   3.955   1.011   7.811  0.4093 -0.5216  0.0533
 1851TIP3    H127188   3.863   0.986   7.818 -0.2915  1.8616  0.1244
 1851TIP3    H227189   3.989   0.958   7.738 -1.0437 -1.3266 -0.0711
 1852TIP3   OH227190   0.674   3.554   7.647  0.0193  0.6943 -0.3460
 1852TIP3    H127191   0.616   3.506   7.706  0.1912 -0.6211 -1.2250
 1852TIP3    H227192   0.673   3.644   7.681 -1.5144  0.4227  0.4169
 1853TIP3   OH227193   2.099   5.474   7.804 -0.5909  0.1155  1.3169
 1853TIP3    H127194   2.125   5.563   7.829  2.1461  0.2872 -1.4825
 1853TIP3    H227195   2.032   5.450   7.867 -1.0106  3.9169  2.5742
 1854TIP3   OH227196   5.334   0.864   7.575 -0.2042 -0.4143 -0.5631
 1854TIP3    H127197   5.314   0.770   7.582 -0.2151 -0.4351 -0.8927
 1854TIP3    H227198   5.331   0.883   7.482  0.9521 -0.3364 -0.5936
 1855TIP3   OH227199   0.382   4.225   2.098  0.5396  0.0178  0.4408
 1855TIP3    H127200   0.444   4.294   2.121  1.4120  0.1803 -2.0979
 1855TIP3    H227201   0.435   4.156   2.059 -0.4714 -1.6001  1.7527
 1856TIP3   OH227202   3.821   2.500   1.851  0.0021  0.2210  0.3757
 1856TIP3    H127203   3.894   2.546   1.811 -0.0327 -0.0860 -0.0424
 1856TIP3    H227204   3.855   2.413   1.873  0.2795  0.6612  1.8321
 1857TIP3   OH227205   2.515   6.459   1.456 -0.3632 -0.1744 -0.7222
 1857TIP3    H127206   2.485   6.525   1.393  1.5852  1.0255 -0.4714
 1857TIP3    H227207   2.500   6.499   1.541  0.1964 -0.3382 -0.5430
 1858TIP3   OH227208   6.740   3.191   7.589  0.6033  0.7891  0.1210
 1858TIP3    H127209   6.700   3.243   7.660  0.2563  0.9040 -0.1566
 1858TIP3    H227210   6.825   3.231   7.576  0.3171  1.3264 -0.1254
 1859TIP3   OH227211   2.477   3.386   6.831 -0.0134  0.6627  0.3100
 1859TIP3    H127212   2.573   3.387   6.826 -0.0241  2.8655 -1.4394
 1859TIP3    H227213   2.458   3.404   6.923  1.2116 -0.6446  0.8607
 1860TIP3   OH227214   6.195   3.297   8.563 -0.0622  0.0685 -0.0000
 1860TIP3    H127215   6.287   3.321   8.572  0.2027 -0.9978  0.2036
 1860TIP3    H227216   6.147   3.377   8.586  0.7955  0.3790  0.7654
 1861TIP3   OH227217   6.408   1.149   6.941 -0.1552 -0.5880  0.8542
 1861TIP3    H127218   6.428   1.169   6.850  0.4524  0.8248  1.2625
 1861TIP3    H227219   6.374   1.059   6.940 -1.2825 -0.1782 -0.8955
 1862TIP3   OH227220   1.904   1.884   7.602 -0.0921  0.2176 -1.0064
 1862TIP3    H127221   1.979   1.868   7.545 -0.3920  0.0964 -1.3750
 1862TIP3    H227222   1.862   1.962   7.564  1.6040  2.2473  1.0122
 1863TIP3   OH227223   0.634   6.619   7.231  0.3101 -0.2533 -0.0070
 1863TIP3    H127224   0.597   6.654   7.312 -0.3234 -0.0519 -0.3793
 1863TIP3    H227225   0.598   6.530   7.226  0.7241 -0.4342  0.1679
 1864TIP3   OH227226   1.031   3.834   1.993  0.2163 -0.4307 -0.0116
 1864TIP3    H127227   0.955   3.871   1.949 -0.4201  0.2604  1.6040
 1864TIP3    H227228   1.103   3.849   1.932 -0.8368 -0.6218 -1.3395
 1865TIP3   OH227229   0.602   5.135   1.536  0.4062  0.4363 -0.6771
 1865TIP3    H127230   0.516   5.166   1.509  0.9887  1.2283 -1.6683
 1865TIP3    H227231   0.652   5.126   1.455  0.9357 -1.0679 -0.2263
 1866TIP3   OH227232   0.293   2.334   8.350  0.5387  0.0595 -0.3711
 1866TIP3    H127233   0.337   2.251   8.330  2.1186  1.0591 -1.2765
 1866TIP3    H227234   0.333   2.397   8.291 -2.1986  1.0867 -1.2930
 1867TIP3   OH227235   3.328   4.963   7.950  0.0653  0.2550  0.7570
 1867TIP3    H127236   3.382   4.937   8.025  1.4961 -0.1571 -0.3653
 1867TIP3    H227237   3.376   5.035   7.910 -0.1288 -0.2217 -0.3666
 1868TIP3   OH227238   3.852   4.308   8.676  0.6747 -0.5737  0.0950
 1868TIP3    H127239   3.773   4.261   8.701 -0.0529 -0.2305 -1.4407
 1868TIP3    H227240   3.837   4.334   8.585  0.6133  3.4435  1.0740
 1869TIP3   OH227241   4.649   2.809   0.074  0.5057  0.1589  0.2179
 1869TIP3    H127242   4.658   2.806   0.169 -0.7020 -3.4134  0.3718
 1869TIP3    H227243   4.575   2.751   0.055  0.3692  1.1626 -2.9188
 1870TIP3   OH227244   6.509   2.481   1.137  0.1637  0.2064 -0.8186
 1870TIP3    H127245   6.551   2.490   1.052  0.6993  1.7749 -0.4291
 1870TIP3    H227246   6.568   2.526   1.198 -0.3804 -0.5789  0.3205
 1871TIP3   OH227247   4.668   5.727   8.463 -0.3520  0.0273  0.5080
 1871TIP3    H127248   4.707   5.732   8.375 -1.9183  1.8696 -0.1387
 1871TIP3    H227249   4.574   5.718   8.447 -0.4619 -2.2291  2.0391
 1872TIP3   OH227250   3.865   5.968   7.904 -0.0484 -0.4883 -0.3777
 1872TIP3    H127251   3.794   6.028   7.930  1.2756  1.0608 -0.2002
 1872TIP3    H227252   3.928   6.024   7.859  0.8059 -1.9517 -1.0674
 1873TIP3   OH227253   6.414   0.534   0.215  0.2788  0.1586  0.3686
 1873TIP3    H127254   6.445   0.615   0.256  0.6158  0.2386 -0.0448
 1873TIP3    H227255   6.491   0.498   0.172 -0.3253  0.7002 -1.2285
 1874TIP3   OH227256   1.495   1.350   8.810 -0.4078  0.5276 -0.1661
 1874TIP3    H127257   1.553   1.364   8.886 -1.5352  0.6219  0.6987
 1874TIP3    H227258   1.530   1.271   8.769 -0.2389 -0.0013  0.9304
 1875TIP3   OH227259   1.549   6.260   7.371 -0.3961  0.1630 -0.3916
 1875TIP3    H127260   1.544   6.336   7.314  0.7918 -0.1669 -0.9579
 1875TIP3    H227261   1.641   6.233   7.369 -0.3003  0.1130  1.6422
 1876TIP3   OH227262   1.985   0.092   1.974  0.7553  0.4519  0.5563
 1876TIP3    H127263   1.973   0.040   1.894  2.7248 -0.4593  0.8071
 1876TIP3    H227264   1.986   0.182   1.943  0.3066  0.1786 -0.2879
 1877TIP3   OH227265   0.653   6.242   8.292  0.4856  0.0379  0.1793
 1877TIP3    H127266   0.646   6.147   8.302 -0.5590  0.0565 -0.1897
 1877TIP3    H227267   0.662   6.256   8.198 -1.1871  0.3533  0.0214
 1878TIP3   OH227268   2.266   2.501   0.711 -0.2345 -0.1146 -0.4103
 1878TIP3    H127269   2.277   2.563   0.783  0.1478 -1.4061  0.6629
 1878TIP3    H227270   2.348   2.452   0.708 -1.6628 -2.7269  0.8519
 1879TIP3   OH227271   0.879   4.235   2.596 -0.2984 -0.3001  0.0466
 1879TIP3    H127272   0.802   4.288   2.574  0.2449  0.7013  0.4507
 1879TIP3    H227273   0.954   4.292   2.577  0.2988 -0.7798  0.8491
 1880TIP3   OH227274   0.916   2.946   1.734 -0.6709 -0.1135  0.0119
 1880TIP3    H127275   0.944   3.017   1.792  0.3566 -1.0956  0.7481
 1880TIP3    H227276   0.940   2.976   1.646 -2.9587  1.7448 -0.0734
 1881TIP3   OH227277   4.255   0.064   8.427  0.2513  0.1802 -0.0715
 1881TIP3    H127278   4.200   0.108   8.491  0.6066 -0.6440  0.8203
 1881TIP3    H227279   4.194   0.028   8.362 -0.3022 -0.9020  1.0096
 1882TIP3   OH227280   6.487   1.901   1.816 -0.5206  0.5739 -0.2453
 1882TIP3    H127281   6.414   1.940   1.864 -0.5371  0.9479 -0.5741
 1882TIP3    H227282   6.523   1.836   1.877 -1.9151 -0.5267 -0.5449
 1883TIP3   OH227283   2.243   6.376   7.459 -0.0730  0.3616 -0.3526
 1883TIP3    H127284   2.207   6.403   7.543  0.6814  0.0415  0.0789
 1883TIP3    H227285   2.235   6.280   7.460 -0.2870  0.3710 -0.7549
 1884TIP3   OH227286   0.780   0.122   0.473 -0.3301  0.5461 -0.1946
 1884TIP3    H127287   0.752   0.045   0.424  0.2627 -0.0428  0.3763
 1884TIP3    H227288   0.867   0.100   0.505 -0.3184  1.2993  0.3163
 1885TIP3   OH227289   5.442   1.076   7.739  0.2673  0.2830 -0.2126
 1885TIP3    H127290   5.369   1.079   7.800  1.5228 -0.3633  1.4233
 1885TIP3    H227291   5.417   1.012   7.673 -0.1109 -0.9408  1.0882
 1886TIP3   OH227292   4.881   2.203   0.781  0.3114  0.0598 -0.4348
 1886TIP3    H127293   4.804   2.185   0.835  1.3177  0.6281  1.2562
 1886TIP3    H227294   4.947   2.141   0.812  1.7467  2.1563  0.9262
 1887TIP3   OH227295   3.301   4.914   1.052 -0.0728  0.3151 -0.6584
 1887TIP3    H127296   3.388   4.943   1.079 -0.3094  2.1001 -1.6615
 1887TIP3    H227297   3.248   4.920   1.132  0.2581  1.2336 -0.4944
 1888TIP3   OH227298   0.177   4.074   1.447  0.0633  0.6980 -0.0211
 1888TIP3    H127299   0.085   4.054   1.466  0.9089 -0.8400  3.1866
 1888TIP3    H227300   0.192   4.159   1.489 -0.1245  1.4966 -1.5259
 1889TIP3   OH227301   2.861   3.350   8.850 -0.4621  0.0046  0.1482
 1889TIP3    H127302   2.948   3.387   8.869 -1.0763  1.8356 -0.3989
 1889TIP3    H227303   2.816   3.419   8.801 -1.8812 -1.3152 -0.4699
 1890TIP3   OH227304   2.530   5.952   8.238 -0.2010 -0.1369 -0.1529
 1890TIP3    H127305   2.543   5.968   8.145  1.1056  1.3827  0.2294
 1890TIP3    H227306   2.610   5.907   8.266 -1.0792 -1.6135  0.0387
 1891TIP3   OH227307   0.284   6.086   6.463  0.0457 -0.6135  0.2968
 1891TIP3    H127308   0.273   6.134   6.381 -1.1597 -0.2536  0.6559
 1891TIP3    H227309   0.202   6.037   6.473  1.2599 -2.8604 -0.1087
 1892TIP3   OH227310   5.125   5.881   7.593  0.2505  0.2743  0.3837
 1892TIP3    H127311   5.207   5.862   7.547  0.6580  1.6659  0.4595
 1892TIP3    H227312   5.064   5.814   7.563  0.3089  1.4085 -2.6921
 1893TIP3   OH227313   2.705   1.251   0.933  0.0679  0.8288  0.1691
 1893TIP3    H127314   2.712   1.158   0.913 -1.6885  0.7603 -0.3222
 1893TIP3    H227315   2.741   1.260   1.021 -0.8572 -0.5373  0.7126
 1894TIP3   OH227316   4.730   4.739   7.546 -0.1787 -0.2206 -0.7625
 1894TIP3    H127317   4.754   4.647   7.545 -0.8009 -0.4081  0.4556
 1894TIP3    H227318   4.729   4.764   7.453 -0.8147 -1.6411 -1.1690
 1895TIP3   OH227319   3.206   4.820   6.530  0.2427  0.0623  0.1377
 1895TIP3    H127320   3.153   4.856   6.459  1.7398  2.3802  0.0759
 1895TIP3    H227321   3.295   4.818   6.495  1.1213  1.8460  2.0698
 1896TIP3   OH227322   5.669   3.370   2.490 -0.2012 -0.0471  0.1752
 1896TIP3    H127323   5.732   3.317   2.540 -0.8501  1.2712  2.5849
 1896TIP3    H227324   5.602   3.308   2.463  1.3348 -1.2156 -1.1460
 1897TIP3   OH227325   6.152   1.785   0.484 -0.1653 -0.1557  0.2337
 1897TIP3    H127326   6.095   1.822   0.552 -0.1897  0.6035 -0.1973
 1897TIP3    H227327   6.125   1.693   0.478 -0.0176 -0.2968  1.3997
 1898TIP3   OH227328   2.999   2.073   1.668  0.2539 -0.3639  0.2180
 1898TIP3    H127329   3.067   2.140   1.667 -0.1309  0.0358  0.6751
 1898TIP3    H227330   2.921   2.117   1.635  0.1841 -0.7967 -0.2111
 1899TIP3   OH227331   0.383   1.940   1.119  0.1423  0.1880  0.3655
 1899TIP3    H127332   0.419   2.023   1.151 -0.4581  0.1193  1.2325
 1899TIP3    H227333   0.450   1.908   1.058  1.2304  0.4119  1.3960
 1900TIP3   OH227334   2.168   1.651   1.557 -0.4027 -0.1199 -0.1886
 1900TIP3    H127335   2.146   1.559   1.572  0.3883 -0.1371  1.0636
 1900TIP3    H227336   2.228   1.650   1.483  0.7241 -0.7866  0.6939
 1901TIP3   OH227337   4.902   3.365   8.166  0.1683 -0.4309  0.2709
 1901TIP3    H127338   4.844   3.441   8.165  0.3493 -0.2932  0.2041
 1901TIP3    H227339   4.953   3.375   8.247  1.6008  0.5888 -0.6978
 1902TIP3   OH227340   1.669   1.079   1.392 -0.7752 -0.4231 -0.1626
 1902TIP3    H127341   1.620   1.099   1.313 -1.9524  0.2826  0.7147
 1902TIP3    H227342   1.663   0.984   1.401 -0.7709 -0.4871 -0.8343
 1903TIP3   OH227343   4.724   3.019   7.467 -0.6839  0.5399 -0.2008
 1903TIP3    H127344   4.653   3.083   7.466 -0.4573  0.7917 -0.5876
 1903TIP3    H227345   4.680   2.934   7.459 -1.1045  0.5106  1.8867
 1904TIP3   OH227346   0.465   0.063   7.798 -0.1027  0.1569 -0.2450
 1904TIP3    H127347   0.470   0.132   7.865 -1.4477  0.0207  0.0180
 1904TIP3    H227348   0.504  -0.014   7.840  1.5940  0.7763 -0.6079
 1905TIP3   OH227349   5.419   1.630   2.004 -0.3505  0.0318  0.7535
 1905TIP3    H127350   5.496   1.588   2.044 -0.3129 -0.9623 -0.2991
 1905TIP3    H227351   5.345   1.582   2.041 -0.4484  0.7211  1.4595
 1906TIP3   OH227352   5.153   5.488   7.254  1.4922  0.3018 -0.1575
 1906TIP3    H127353   5.113   5.516   7.336 -1.0100  0.1881 -1.2463
 1906TIP3    H227354   5.149   5.393   7.255  2.7434  0.2283  0.1403
 1907TIP3   OH227355   5.521   5.185   7.536 -0.1778  0.2975  0.2316
 1907TIP3    H127356   5.513   5.092   7.515 -1.8262  0.1599  1.3063
 1907TIP3    H227357   5.523   5.188   7.631  2.4292  1.2351  0.2400
 1908TIP3   OH227358   5.289   5.776   1.592 -0.0678 -0.6088 -0.1292
 1908TIP3    H127359   5.204   5.736   1.613 -0.9597  1.2343  0.0243
 1908TIP3    H227360   5.299   5.762   1.498 -1.5279  0.8102 -0.5503
 1909TIP3   OH227361   4.697   4.173   8.779 -0.0010  0.1290 -0.5685
 1909TIP3    H127362   4.626   4.236   8.767 -0.6985  0.0245  2.3772
 1909TIP3    H227363   4.684   4.110   8.708 -1.6952  1.1494 -1.2424
 1910TIP3   OH227364   5.310   2.849   7.991 -0.0973 -0.3907 -0.1337
 1910TIP3    H127365   5.307   2.754   8.001  1.5696 -0.5128 -0.4553
 1910TIP3    H227366   5.330   2.862   7.898  1.5920  0.1856  0.2789
 1911TIP3   OH227367   6.470   0.464   8.630  0.2657  0.4683 -0.2937
 1911TIP3    H127368   6.451   0.549   8.668 -0.6195  0.5758 -0.9430
 1911TIP3    H227369   6.451   0.401   8.699 -1.5293  0.6424 -0.5820
 1912TIP3   OH227370   3.471   5.281   7.015 -0.1731  0.3366 -0.3080
 1912TIP3    H127371   3.443   5.224   6.943  0.6786 -1.0163  0.3825
 1912TIP3    H227372   3.402   5.346   7.023 -1.0382 -0.4234 -1.3292
 1913TIP3   OH227373   6.395   2.374   2.895  0.5545 -0.1500 -0.4009
 1913TIP3    H127374   6.357   2.325   2.968  1.0699  0.0104 -0.0173
 1913TIP3    H227375   6.489   2.363   2.906  0.6962  1.3111 -0.0290
 1914TIP3   OH227376   2.617   3.292   0.916 -0.1096  0.0635  0.3504
 1914TIP3    H127377   2.579   3.356   0.976  0.0496 -0.9659  1.5917
 1914TIP3    H227378   2.637   3.342   0.837  1.0230  1.8098  1.6621
 1915TIP3   OH227379   3.994   0.859   0.800  0.0903  0.4350 -1.1859
 1915TIP3    H127380   3.921   0.798   0.808  1.5074 -1.1965  0.1971
 1915TIP3    H227381   4.045   0.826   0.725  1.1287 -0.4653 -0.1307
 1916TIP3   OH227382   3.829   6.649   0.336  0.0472 -0.6005  0.3420
 1916TIP3    H127383   3.735   6.634   0.339 -0.3086  1.0805 -0.7280
 1916TIP3    H227384   3.857   6.614   0.252 -0.1294  1.1377 -0.4897
 1917TIP3   OH227385   3.689   4.384   7.717  0.2666  0.1706  0.3895
 1917TIP3    H127386   3.759   4.373   7.652  0.3474 -1.0089  0.6516
 1917TIP3    H227387   3.735   4.395   7.800  0.1603 -1.1831  0.6469
 1918TIP3   OH227388   2.975   1.078   0.217 -0.3250 -0.3878  0.1131
 1918TIP3    H127389   3.003   1.166   0.239 -0.7821 -0.5397  1.3985
 1918TIP3    H227390   2.944   1.084   0.127  1.1369  0.3929 -0.3727
 1919TIP3   OH227391   5.528   1.119   0.202  0.8252 -0.5617 -0.6121
 1919TIP3    H127392   5.465   1.081   0.140  0.8151 -1.0871 -0.2870
 1919TIP3    H227393   5.607   1.134   0.151  0.5335 -0.1720 -0.9563
 1920TIP3   OH227394   4.774   3.857   8.299 -0.5249  0.6154  0.3233
 1920TIP3    H127395   4.742   3.918   8.233 -1.4796  0.8394  0.9719
 1920TIP3    H227396   4.728   3.775   8.279  0.3770  0.2264 -0.2389
 1921TIP3   OH227397   1.079   4.355   8.555  0.1874  0.8929 -0.0794
 1921TIP3    H127398   1.053   4.337   8.645  2.0297 -0.5556  0.2183
 1921TIP3    H227399   1.175   4.354   8.557  0.3353  3.1163 -1.6385
 1922TIP3   OH227400   2.885   3.626   0.644 -0.4158 -0.0198 -0.2013
 1922TIP3    H127401   2.950   3.653   0.579  0.5055 -0.2194  0.6131
 1922TIP3    H227402   2.844   3.708   0.672 -1.5771 -0.0203 -1.7740
 1923TIP3   OH227403   5.085   5.878   7.045 -0.1758  0.1468  0.3033
 1923TIP3    H127404   5.047   5.909   6.963  1.2295  0.8198 -0.1295
 1923TIP3    H227405   5.105   5.785   7.028 -0.9307 -0.0175  0.2890
 1924TIP3   OH227406   6.641   0.218   1.460 -0.0983  0.6779  0.5169
 1924TIP3    H127407   6.615   0.126   1.452 -1.0262  0.8624  1.1397
 1924TIP3    H227408   6.698   0.220   1.537  1.5543  0.3269 -0.6514
 1925TIP3   OH227409   4.818   3.546   0.958 -0.3184 -0.2919 -0.2766
 1925TIP3    H127410   4.786   3.553   0.868 -1.3193  2.4794  0.1840
 1925TIP3    H227411   4.745   3.575   1.012  1.3814  1.6437  1.1544
 1926TIP3   OH227412   5.793   1.363   7.254 -0.0467  0.6660  0.1448
 1926TIP3    H127413   5.704   1.390   7.230  0.0024  0.3416 -0.4380
 1926TIP3    H227414   5.815   1.296   7.189  1.0923  1.6185 -0.4898
 1927TIP3   OH227415   3.523   4.679   7.189 -0.0715 -0.1190 -0.5929
 1927TIP3    H127416   3.517   4.614   7.260  0.1616 -1.0241 -1.3817
 1927TIP3    H227417   3.435   4.713   7.180 -0.1644 -0.2102 -0.0543
 1928TIP3   OH227418   1.801   3.709   8.170 -0.2723  0.3428 -0.1153
 1928TIP3    H127419   1.852   3.789   8.162 -1.9972  1.5183  0.1750
 1928TIP3    H227420   1.718   3.737   8.208 -0.7214 -1.6695  0.5030
 1929TIP3   OH227421   6.101   3.068   8.692  0.3298  0.1444  0.5215
 1929TIP3    H127422   6.107   3.162   8.674 -0.4637  0.0674 -0.1726
 1929TIP3    H227423   6.164   3.029   8.632  0.5890  0.2170  0.7422
 1930TIP3   OH227424   2.708   2.896   8.686  0.2007  0.5323 -0.0200
 1930TIP3    H127425   2.725   2.951   8.762 -0.8188 -0.9084  1.3182
 1930TIP3    H227426   2.617   2.868   8.697  0.3739 -0.5928 -1.2004
 1931TIP3   OH227427   6.791   5.716   7.841 -0.4652  0.1955 -0.5618
 1931TIP3    H127428   6.738   5.754   7.911 -1.5989 -0.0560 -1.2473
 1931TIP3    H227429   6.804   5.625   7.868  1.5027  0.7728  0.6506
 1932TIP3   OH227430   0.736   0.630   7.453  0.0538  0.0492  0.0237
 1932TIP3    H127431   0.648   0.658   7.478 -0.1452 -0.5537  0.0195
 1932TIP3    H227432   0.735   0.628   7.358 -0.6599 -2.1345  0.0205
 1933TIP3   OH227433   0.409   4.789   0.047  0.0419 -0.5433 -0.0567
 1933TIP3    H127434   0.434   4.841  -0.029  3.9287 -1.9047  0.1208
 1933TIP3    H227435   0.363   4.713   0.010  1.1173 -0.7641 -0.9807
 1934TIP3   OH227436   0.825   4.821   0.787 -0.2574  0.0395 -0.1369
 1934TIP3    H127437   0.775   4.900   0.767  1.5942  1.5329  0.8049
 1934TIP3    H227438   0.860   4.835   0.875  1.2831 -1.1768 -0.4956
 1935TIP3   OH227439   4.501   4.809   1.119 -0.2497  0.0593  0.8006
 1935TIP3    H127440   4.585   4.827   1.161 -0.3922  0.7577  0.7906
 1935TIP3    H227441   4.502   4.714   1.105  1.5196  0.2907 -1.2338
 1936TIP3   OH227442   1.274   2.409   7.726 -0.5035 -0.3636  0.1148
 1936TIP3    H127443   1.354   2.445   7.765  0.3784 -2.1275 -0.0030
 1936TIP3    H227444   1.296   2.395   7.634 -0.9208 -0.9657  0.1056
 1937TIP3   OH227445   3.641   1.441   0.666 -0.9760 -0.5233 -0.3392
 1937TIP3    H127446   3.715   1.427   0.726 -1.0673  1.5496  0.3464
 1937TIP3    H227447   3.678   1.429   0.579 -0.3552 -1.6564  0.0665
 1938TIP3   OH227448   4.410   0.443   0.450  0.5405  0.0857  0.2081
 1938TIP3    H127449   4.317   0.433   0.472  0.0994  1.2248 -1.0205
 1938TIP3    H227450   4.450   0.477   0.529 -0.5034  1.5881  0.1195
 1939TIP3   OH227451   5.760   5.578   1.639  0.2991  0.0963  0.4896
 1939TIP3    H127452   5.735   5.486   1.632 -0.2791  0.1710  1.3513
 1939TIP3    H227453   5.819   5.593   1.566 -0.9521 -0.5273 -0.6952
 1940TIP3   OH227454   3.515   2.505   7.203 -0.0056 -0.3372 -1.1062
 1940TIP3    H127455   3.558   2.589   7.219  2.5124 -1.3441 -2.1064
 1940TIP3    H227456   3.573   2.440   7.242 -1.1599 -1.7157 -1.5926
 1941TIP3   OH227457   1.572   4.951   2.152  0.2373  0.2748 -0.1466
 1941TIP3    H127458   1.589   5.044   2.134 -1.3646  1.3762  3.2619
 1941TIP3    H227459   1.632   4.929   2.223 -1.0148 -0.5928  0.6770
 1942TIP3   OH227460   1.803   6.325   6.980  0.1590 -0.2205 -0.1938
 1942TIP3    H127461   1.865   6.353   7.048 -0.3985 -0.6032  0.4828
 1942TIP3    H227462   1.846   6.349   6.898  0.6862  0.5887  0.2983
 1943TIP3   OH227463   2.317   3.562   0.058  0.2657  1.0262 -0.0221
 1943TIP3    H127464   2.276   3.575   0.144 -1.2270  0.9753 -0.6926
 1943TIP3    H227465   2.248   3.585  -0.005  0.6813 -0.7957 -1.2200
 1944TIP3   OH227466   3.414   2.358   0.318 -0.7305 -0.1128  0.2180
 1944TIP3    H127467   3.482   2.419   0.344 -0.6400 -0.2786  0.3708
 1944TIP3    H227468   3.421   2.354   0.222  0.2276 -0.9938  0.3114
 1945TIP3   OH227469   2.790   6.695   0.570 -0.0235 -0.3313 -0.4330
 1945TIP3    H127470   2.701   6.703   0.535 -0.3823 -0.1525  0.5049
 1945TIP3    H227471   2.842   6.669   0.494 -0.9106 -0.6870 -0.9433
 1946TIP3   OH227472   4.886   3.253   7.902 -0.0779  0.4244 -0.4513
 1946TIP3    H127473   4.918   3.307   7.974 -0.7180  4.1613 -2.6929
 1946TIP3    H227474   4.798   3.226   7.929  0.4942 -0.1210  0.9736
 1947TIP3   OH227475   4.066   0.794   0.538 -0.1112 -0.1653 -0.0620
 1947TIP3    H127476   3.986   0.795   0.485 -0.5978  1.6362  0.6565
 1947TIP3    H227477   4.127   0.741   0.487 -0.9348  0.5363 -1.8681
 1948TIP3   OH227478   1.337   6.784   0.030  0.0207  0.4570 -0.2553
 1948TIP3    H127479   1.286   6.753   0.105 -0.8344 -1.8126 -1.6622
 1948TIP3    H227480   1.415   6.825   0.069  0.1272 -1.5507  1.8843
 1949TIP3   OH227481   0.794   2.476   1.438 -0.2350  0.0075 -0.0436
 1949TIP3    H127482   0.769   2.551   1.383  0.0527 -0.5822 -1.0138
 1949TIP3    H227483   0.713   2.450   1.482 -0.0795  1.6744  1.3273
 1950TIP3   OH227484   6.369   3.550   6.747 -0.7632  0.1719  0.2011
 1950TIP3    H127485   6.402   3.617   6.807 -0.7288  0.0353  0.3366
 1950TIP3    H227486   6.431   3.550   6.674  0.6335 -1.3877  1.3202
 1951TIP3   OH227487   1.598   0.383   8.322 -0.1613 -0.1166 -0.2507
 1951TIP3    H127488   1.689   0.371   8.348 -1.0494 -2.3478  2.2804
 1951TIP3    H227489   1.602   0.408   8.230  2.9211 -4.9114 -1.7761
 1952TIP3   OH227490   0.906   4.173   1.118 -0.4373  0.0059 -0.1748
 1952TIP3    H127491   0.924   4.103   1.181  0.0211  0.8908  0.6895
 1952TIP3    H227492   0.838   4.226   1.160  0.3729  1.0068 -0.0965
 1953TIP3   OH227493   4.561   5.820   7.623  0.4061 -0.2098 -0.0276
 1953TIP3    H127494   4.555   5.740   7.570 -3.1253 -0.2629  0.2337
 1953TIP3    H227495   4.554   5.789   7.714  1.2155  0.2812  0.2141
 1954TIP3   OH227496   5.159   5.140   7.510  0.4553 -0.4287  0.2031
 1954TIP3    H127497   5.086   5.094   7.553 -0.8161  0.0695 -1.2994
 1954TIP3    H227498   5.132   5.147   7.418  3.0839 -1.5236 -0.7433
 1955TIP3   OH227499   2.532   5.453   0.106  0.5071  0.0877  0.0406
 1955TIP3    H127500   2.461   5.419   0.052  1.1488 -1.3998  0.0909
 1955TIP3    H227501   2.605   5.393   0.091  1.6902  1.4439  0.1812
 1956TIP3   OH227502   4.808   0.176   8.274  0.0211 -0.4696 -0.0843
 1956TIP3    H127503   4.807   0.257   8.223  2.3229  0.3127  0.9783
 1956TIP3    H227504   4.744   0.120   8.231 -1.2455  1.6832 -1.2053
 1957TIP3   OH227505   6.412   4.467   1.774 -0.0076 -0.0693  0.1850
 1957TIP3    H127506   6.439   4.377   1.756 -0.7629 -0.6116  1.5698
 1957TIP3    H227507   6.461   4.492   1.852  0.6145  0.9477 -0.5009
 1958TIP3   OH227508   5.260   0.702   5.979 -0.1200  0.2649  0.2186
 1958TIP3    H127509   5.228   0.760   6.048  1.5632 -0.9996  2.2023
 1958TIP3    H227510   5.187   0.641   5.963 -0.2797  0.0866  1.5088
 1959TIP3   OH227511   2.945   1.652   2.765 -0.1915  0.1739 -0.2588
 1959TIP3    H127512   2.934   1.638   2.671 -0.1706  1.0272 -0.3946
 1959TIP3    H227513   2.857   1.645   2.801  0.0705 -3.0263  0.1076
 1960TIP3   OH227514   2.062   2.169   7.827  0.1258  0.2177  0.6358
 1960TIP3    H127515   2.114   2.229   7.775 -1.0691  0.9026  0.1836
 1960TIP3    H227516   2.120   2.094   7.843  0.9068  0.5069 -0.6844
 1961TIP3   OH227517   4.171   0.356   7.576 -0.1774 -0.2032  0.4006
 1961TIP3    H127518   4.265   0.364   7.587  0.0227  1.3554 -1.7175
 1961TIP3    H227519   4.134   0.431   7.623 -0.1943  0.1931 -0.2301
 1962TIP3   OH227520   3.653   4.505   0.454  0.3120 -0.4441  0.4699
 1962TIP3    H127521   3.645   4.496   0.549  0.6727 -0.9086  0.4598
 1962TIP3    H227522   3.579   4.456   0.419 -0.3544  0.4872  0.5231
 1963TIP3   OH227523   5.909   6.134   8.062 -0.2564  0.4946 -0.2223
 1963TIP3    H127524   5.949   6.051   8.037  1.4079  1.7159 -1.9546
 1963TIP3    H227525   5.903   6.183   7.980  0.3994  2.7025  0.9491
 1964TIP3   OH227526   6.062   1.534   0.483 -0.5951  0.2571  0.2598
 1964TIP3    H127527   6.097   1.474   0.549  1.3554  0.6457 -0.3544
 1964TIP3    H227528   5.974   1.554   0.513 -0.2609 -0.6748  1.9880
 1965TIP3   OH227529   0.038   4.273   0.488  1.1849  0.1783  0.3580
 1965TIP3    H127530   0.124   4.246   0.457  0.8280 -0.5377 -0.0286
 1965TIP3    H227531   0.032   4.366   0.463  1.1701 -0.2004 -1.1477
 1966TIP3   OH227532   5.620   6.605   6.848 -0.1589 -0.0621  0.0721
 1966TIP3    H127533   5.655   6.641   6.767 -0.3699  0.0036  0.0103
 1966TIP3    H227534   5.614   6.510   6.831  0.9828 -0.2145  0.4532
 1967TIP3   OH227535   2.392   5.536   1.387 -0.5728 -0.2239 -0.4170
 1967TIP3    H127536   2.371   5.586   1.467  0.3756  0.4101 -0.5491
 1967TIP3    H227537   2.459   5.588   1.343  2.1370 -2.6733  0.5251
 1968TIP3   OH227538   6.568   6.266   7.768  0.3304 -0.3381  0.4817
 1968TIP3    H127539   6.485   6.223   7.790  0.0255  0.0131  0.0278
 1968TIP3    H227540   6.619   6.262   7.849 -0.8142  1.0395  1.3073
 1969TIP3   OH227541   1.380   6.229   8.810 -0.0092 -0.3775  0.4787
 1969TIP3    H127542   1.369   6.314   8.768  0.9469 -0.1297  0.6962
 1969TIP3    H227543   1.461   6.195   8.773 -0.6445 -1.4369  0.0093
 1970TIP3   OH227544   2.658   5.590   7.253  0.3101  0.0794 -0.1989
 1970TIP3    H127545   2.662   5.628   7.166 -0.0843  0.1689 -0.1793
 1970TIP3    H227546   2.618   5.658   7.307  0.6162  0.0528  0.0673
 1971TIP3   OH227547   0.542   1.165   0.042 -0.0433 -0.2111 -0.3672
 1971TIP3    H127548   0.628   1.145   0.078 -0.4191  1.3904  1.6573
 1971TIP3    H227549   0.553   1.163  -0.053  1.5751 -2.5431 -0.1982
 1972TIP3   OH227550   0.206   2.490   0.049  0.2833 -0.4219 -0.1826
 1972TIP3    H127551   0.188   2.423   0.115 -1.4504  1.0726  0.9801
 1972TIP3    H227552   0.140   2.475  -0.019 -1.0090  0.8376  0.7267
 1973TIP3   OH227553   3.938   6.567   7.150 -0.0149 -0.1992  0.5215
 1973TIP3    H127554   3.874   6.499   7.130  0.9951 -1.1713  0.5251
 1973TIP3    H227555   3.937   6.573   7.246 -0.9195  0.6191  0.4807
 1974TIP3   OH227556   4.435   6.340   8.149 -0.1678 -0.3969 -0.1730
 1974TIP3    H127557   4.473   6.271   8.094  0.2240  0.1745 -0.6296
 1974TIP3    H227558   4.370   6.294   8.203 -0.9192 -0.8894 -1.4573
 1975TIP3   OH227559   0.678   1.516   7.705 -0.1237 -0.0968  0.2225
 1975TIP3    H127560   0.769   1.507   7.678  0.4610 -1.8248  2.5349
 1975TIP3    H227561   0.670   1.608   7.733  0.4852  0.4324 -1.2285
 1976TIP3   OH227562   2.242   0.300   1.998  0.6126  0.4220  0.4875
 1976TIP3    H127563   2.297   0.375   2.020 -0.9144  1.2104  1.8790
 1976TIP3    H227564   2.299   0.224   2.009  1.7520  1.2733  0.6524
 1977TIP3   OH227565   2.033   6.735   1.083  0.1757  0.2390  0.0951
 1977TIP3    H127566   2.042   6.830   1.077  1.8423  0.1340  0.2368
 1977TIP3    H227567   2.119   6.706   1.113 -1.5027 -0.9442  4.5831
 1978TIP3   OH227568   5.801   3.409   0.726 -0.1885 -0.1304  0.4126
 1978TIP3    H127569   5.721   3.403   0.779  0.3337 -0.8705  1.1498
 1978TIP3    H227570   5.859   3.344   0.764  0.9284  0.6876  0.1418
 1979TIP3   OH227571   5.593   1.995   7.983 -0.4235 -0.0732 -0.0747
 1979TIP3    H127572   5.677   2.026   7.950 -0.3804 -1.2768 -1.1659
 1979TIP3    H227573   5.614   1.947   8.063 -0.0567 -0.4146 -0.3734
 1980TIP3   OH227574   4.621   5.352   1.144 -0.0707  0.3791  0.2833
 1980TIP3    H127575   4.711   5.343   1.112  0.7759 -1.8723  2.9113
 1980TIP3    H227576   4.575   5.276   1.105 -0.5115  0.7805  0.0074
 1981TIP3   OH227577   3.388   2.584   8.276 -0.4292  0.0373 -0.3700
 1981TIP3    H127578   3.483   2.583   8.287 -0.4272 -0.4292 -0.4050
 1981TIP3    H227579   3.375   2.578   8.181 -0.4978 -1.0385 -0.3098
 1982TIP3   OH227580   3.289   2.912   1.221  0.4029  0.2243 -0.3927
 1982TIP3    H127581   3.227   2.862   1.168 -0.7834 -1.0833  2.0524
 1982TIP3    H227582   3.252   3.000   1.225 -0.5743 -0.1860 -0.1101
 1983TIP3   OH227583   2.615   4.811   2.315 -0.3922 -0.2409  0.2014
 1983TIP3    H127584   2.684   4.865   2.353  0.1116 -1.3443  0.9151
 1983TIP3    H227585   2.609   4.736   2.373 -0.9139 -1.0649 -0.8768
 1984TIP3   OH227586   5.855   2.425   0.033 -0.2774 -0.1753  0.1909
 1984TIP3    H127587   5.939   2.387   0.008  0.6093  0.2997  2.2991
 1984TIP3    H227588   5.846   2.502  -0.024  0.4129 -0.5583 -0.4578
 1985TIP3   OH227589   2.815   3.995   7.327 -0.0564 -0.1270  0.0070
 1985TIP3    H127590   2.871   4.065   7.361  0.5873 -1.0383  0.9302
 1985TIP3    H227591   2.834   3.920   7.385 -1.9188 -0.5991  0.0662
 1986TIP3   OH227592   0.741   1.338   1.886 -0.3176  0.2047  0.4497
 1986TIP3    H127593   0.795   1.355   1.963  1.8680 -0.4198 -0.8558
 1986TIP3    H227594   0.698   1.254   1.904  1.8981 -1.0666  0.1669
 1987TIP3   OH227595   4.527   1.013   8.408  0.0137  0.0096  0.2556
 1987TIP3    H127596   4.588   0.957   8.457  1.0578  1.5529  0.7873
 1987TIP3    H227597   4.484   1.066   8.476 -1.7028 -0.8090 -0.1441
 1988TIP3   OH227598   0.165   5.520   1.128  0.5677  0.7846 -0.3036
 1988TIP3    H127599   0.241   5.472   1.096  0.7673  0.9162 -0.0350
 1988TIP3    H227600   0.132   5.467   1.200  0.6431  0.9234 -0.1651
 1989TIP3   OH227601   4.285   4.530   7.947  0.2986  0.1329  0.3408
 1989TIP3    H127602   4.255   4.615   7.978 -1.2952 -0.2107 -0.1350
 1989TIP3    H227603   4.365   4.549   7.898  0.4185  1.2345  0.9288
 1990TIP3   OH227604   3.935   6.619   1.386  0.3525 -0.0975  0.3898
 1990TIP3    H127605   3.880   6.588   1.458 -1.2754 -0.0614 -0.7780
 1990TIP3    H227606   3.947   6.542   1.330 -1.8876  0.7483 -1.3923
 1991TIP3   OH227607   3.419   1.321   0.781 -0.1566 -0.0388 -0.2662
 1991TIP3    H127608   3.494   1.360   0.735  0.8173  0.2945  1.5146
 1991TIP3    H227609   3.352   1.390   0.780  0.3737  0.4936  0.0405
 1992TIP3   OH227610   6.119   6.116   0.485 -0.2317  0.0348  0.1847
 1992TIP3    H127611   6.162   6.076   0.561  0.8646  1.1266  0.1823
 1992TIP3    H227612   6.026   6.096   0.497  0.0053 -0.4501  1.4241
 1993TIP3   OH227613   0.865   3.395   1.487 -0.1884 -0.2785  0.4761
 1993TIP3    H127614   0.940   3.450   1.508  1.0357 -0.9725 -1.7194
 1993TIP3    H227615   0.895   3.341   1.414 -2.6315 -1.0359 -0.0602
 1994TIP3   OH227616   0.338   6.560   8.391  0.2009 -0.3455 -0.1450
 1994TIP3    H127617   0.361   6.624   8.323 -0.5981 -0.8088 -0.8608
 1994TIP3    H227618   0.413   6.562   8.451  0.5849  0.6132 -0.6267
 1995TIP3   OH227619   5.075   0.589   2.070  0.1775 -0.5687  0.4361
 1995TIP3    H127620   5.145   0.630   2.121  0.0052 -0.9037  0.9480
 1995TIP3    H227621   5.109   0.586   1.980  0.4425  0.1113  0.5089
 1996TIP3   OH227622   5.560   3.555   7.318  0.2692 -0.8065  0.7176
 1996TIP3    H127623   5.514   3.638   7.311  0.7103 -0.5700  0.6437
 1996TIP3    H227624   5.490   3.490   7.325 -0.0687 -0.3804  1.3833
 1997TIP3   OH227625   4.760   1.881   7.955  0.1823  0.0885 -0.3321
 1997TIP3    H127626   4.681   1.934   7.963 -0.4535 -0.8617 -0.0903
 1997TIP3    H227627   4.800   1.910   7.873 -0.2329  0.8213 -0.2855
 1998TIP3   OH227628   2.927   4.005   0.549  0.1348  0.6133 -0.1104
 1998TIP3    H127629   2.891   4.030   0.634  1.1782  0.8757  0.2695
 1998TIP3    H227630   2.942   3.911   0.556  0.9653  0.7709  0.2887
 1999TIP3   OH227631   0.365   3.058   0.446  0.3161 -0.2770 -0.8083
 1999TIP3    H127632   0.449   3.103   0.443  0.1935 -0.0068 -0.3590
 1999TIP3    H227633   0.387   2.965   0.440  0.7417 -0.2728  0.3985
 2000TIP3   OH227634   6.539   6.167   8.228 -0.7647  0.1356  0.2684
 2000TIP3    H127635   6.583   6.157   8.313 -2.0065  2.2692  1.2409
 2000TIP3    H227636   6.484   6.244   8.239 -4.0822 -1.8444 -1.1895
 2001TIP3   OH227637   3.395   0.753   0.446 -0.3710 -0.2913  0.8611
 2001TIP3    H127638   3.319   0.810   0.436  0.3780  0.5694 -0.2431
 2001TIP3    H227639   3.385   0.688   0.377 -0.4327 -0.5571  1.1222
 2002TIP3   OH227640   4.665   4.296   1.825  0.5275  0.0700  0.3070
 2002TIP3    H127641   4.633   4.231   1.762  0.0849  1.7329 -1.2595
 2002TIP3    H227642   4.734   4.250   1.873 -0.0886 -1.7012 -0.4101
 2003TIP3   OH227643   0.572   1.090   2.303  0.1983 -0.5814 -0.0383
 2003TIP3    H127644   0.663   1.064   2.283  0.5268  1.4343 -1.4625
 2003TIP3    H227645   0.523   1.008   2.301  1.8311 -1.6013 -0.1838
 2004TIP3   OH227646   1.872   2.934   2.480 -0.4299  0.3611 -0.0714
 2004TIP3    H127647   1.960   2.897   2.482 -0.0232  1.2035 -1.2920
 2004TIP3    H227648   1.818   2.871   2.528  0.8196 -0.1840  0.6739
 2005TIP3   OH227649   2.866   4.346   1.852 -0.3068  0.0272 -0.0022
 2005TIP3    H127650   2.929   4.380   1.915 -0.8907 -1.8352  1.7144
 2005TIP3    H227651   2.877   4.251   1.857 -0.8228 -0.2007 -2.2992
 2006TIP3   OH227652   6.522   3.369   0.983 -0.4033 -0.3121 -1.3269
 2006TIP3    H127653   6.583   3.365   1.057 -1.0690 -1.2831 -0.8183
 2006TIP3    H227654   6.578   3.384   0.907  0.6561 -2.5680 -1.0628
 2007TIP3   OH227655   3.247   4.117   7.750 -0.4624  0.2645 -0.6059
 2007TIP3    H127656   3.243   4.066   7.830 -2.9616 -0.7171 -1.2665
 2007TIP3    H227657   3.193   4.194   7.767 -2.2425 -0.6744 -1.7708
 2008TIP3   OH227658   0.613   6.177   8.048  0.4719 -0.7143 -1.1801
 2008TIP3    H127659   0.519   6.185   8.036  0.0272  0.3138  2.0206
 2008TIP3    H227660   0.649   6.181   7.960 -2.4463 -1.0718 -2.4979
 2009TIP3   OH227661   2.413   6.030   0.985  0.2195  0.4154  0.4120
 2009TIP3    H127662   2.430   5.940   0.956 -1.4049  0.1527  0.1734
 2009TIP3    H227663   2.352   6.020   1.059  1.2844  1.2646  1.4509
 2010TIP3   OH227664   6.597   0.384   1.857  0.3055  0.3081 -0.5673
 2010TIP3    H127665   6.525   0.348   1.908  1.6238 -1.1315  0.3851
 2010TIP3    H227666   6.568   0.472   1.834 -1.5963 -0.1063  0.0608
 2011TIP3   OH227667   4.579   2.823   0.834 -0.3824 -0.9479 -0.6104
 2011TIP3    H127668   4.562   2.818   0.928  1.0118 -0.2803 -0.2940
 2011TIP3    H227669   4.626   2.742   0.814 -1.1027 -1.3157 -0.8417
 2012TIP3   OH227670   3.821   1.155   6.404 -0.0481 -0.0216 -0.3352
 2012TIP3    H127671   3.848   1.116   6.321  2.1881  0.6175  0.0148
 2012TIP3    H227672   3.845   1.247   6.396  0.5836 -0.0312  1.1326
 2013TIP3   OH227673   0.369   5.134   0.838  0.4202 -0.3155  0.2198
 2013TIP3    H127674   0.410   5.047   0.843 -0.9280 -1.0316 -0.5939
 2013TIP3    H227675   0.405   5.172   0.758  1.2657  0.0208  0.7526
 2014TIP3   OH227676   1.870   5.744   0.190  0.0030 -0.5533 -0.1224
 2014TIP3    H127677   1.804   5.691   0.235 -1.0001 -0.3806 -1.3617
 2014TIP3    H227678   1.937   5.681   0.163 -0.3889 -0.9493 -0.1765
 2015TIP3   OH227679   5.334   6.775   8.022 -0.4312 -0.0035 -0.1426
 2015TIP3    H127680   5.340   6.705   8.088 -0.1707  0.7054  0.5977
 2015TIP3    H227681   5.393   6.843   8.054  1.5092 -0.5545 -2.2821
 2016TIP3   OH227682   2.818   2.585   0.997 -0.4734 -0.5260  0.2395
 2016TIP3    H127683   2.780   2.655   1.050 -1.2903  0.5330 -1.6458
 2016TIP3    H227684   2.746   2.554   0.942  0.8195 -0.0027 -1.8494
 2017TIP3   OH227685   4.930   3.764   7.761  0.1111  0.1231 -0.8658
 2017TIP3    H127686   4.875   3.808   7.826 -0.4957 -0.5306 -0.9227
 2017TIP3    H227687   4.886   3.778   7.677  1.0884  1.2858 -1.2108
 2018TIP3   OH227688   2.002   3.911   8.179 -0.1193  0.1185 -0.1865
 2018TIP3    H127689   2.068   3.853   8.142 -0.0048  0.8505 -1.1740
 2018TIP3    H227690   1.978   3.969   8.106 -1.1338  0.4883  0.4322
 2019TIP3   OH227691   1.280   1.261   1.448 -0.3413 -0.6062 -0.0137
 2019TIP3    H127692   1.353   1.201   1.464  0.6300 -0.5246 -3.3424
 2019TIP3    H227693   1.212   1.205   1.410 -0.8197 -0.1592  0.1805
 2020TIP3   OH227694   6.546   4.222   2.121  0.0516 -0.1531  0.7427
 2020TIP3    H127695   6.452   4.224   2.138 -0.1847  0.3092 -0.5118
 2020TIP3    H227696   6.564   4.301   2.070  0.9593 -0.6847  0.2011
 2021TIP3   OH227697   1.238   3.249   1.535 -0.0913 -0.0098 -0.2159
 2021TIP3    H127698   1.312   3.271   1.479  0.2532  1.0620  0.6251
 2021TIP3    H227699   1.247   3.307   1.610 -2.0361  0.4571 -0.2968
 2022TIP3   OH227700   5.149   2.292   1.831 -0.1244  0.4124  0.4432
 2022TIP3    H127701   5.068   2.271   1.878 -0.5094 -0.2532 -0.4722
 2022TIP3    H227702   5.218   2.249   1.882 -0.7891 -2.4207 -0.8295
 2023TIP3   OH227703   2.718   5.892   1.336 -0.0660  0.4289 -0.0375
 2023TIP3    H127704   2.788   5.915   1.274  0.2831 -0.1819  0.1256
 2023TIP3    H227705   2.665   5.971   1.342 -0.0025  0.5562 -0.9865
 2024TIP3   OH227706   1.956   6.283   1.266 -0.3493 -0.5675 -0.1285
 2024TIP3    H127707   1.956   6.220   1.338 -1.7295 -0.8998 -0.3832
 2024TIP3    H227708   1.894   6.351   1.295 -0.8071 -0.6298 -0.9358
 2025TIP3   OH227709   2.174   2.556   8.283  0.7397  0.0756 -0.0897
 2025TIP3    H127710   2.176   2.473   8.235 -0.8102 -0.0307 -0.0068
 2025TIP3    H227711   2.100   2.603   8.246  0.5268  0.6832  1.0636
 2026TIP3   OH227712   4.380   3.842   0.126 -0.4367  0.1608 -0.3186
 2026TIP3    H127713   4.417   3.864   0.041  1.8050  1.0728  0.7980
 2026TIP3    H227714   4.397   3.920   0.180 -2.0109 -0.2904  0.9052
 2027TIP3   OH227715   2.013   1.526   8.563 -0.1142  0.2128 -0.1965
 2027TIP3    H127716   2.038   1.457   8.502  2.2360 -0.2971  1.2248
 2027TIP3    H227717   2.019   1.607   8.512 -0.6378 -0.4095 -1.2711
 2028TIP3   OH227718   0.776   0.743   1.080  0.0248 -0.3516 -0.6564
 2028TIP3    H127719   0.858   0.734   1.128 -0.6396 -0.0647  0.5817
 2028TIP3    H227720   0.779   0.830   1.042  0.3996 -0.4406 -0.8341
 2029TIP3   OH227721   0.189   6.208   7.188 -0.3343  0.7444  0.2733
 2029TIP3    H127722   0.102   6.234   7.160 -0.1882  0.6929 -0.2425
 2029TIP3    H227723   0.241   6.206   7.108 -0.2225 -0.6646  0.3532
 2030TIP3   OH227724   5.942   1.512   7.441  0.3246  0.1925  0.1490
 2030TIP3    H127725   5.908   1.525   7.529  0.2719  0.6344  0.0695
 2030TIP3    H227726   5.895   1.436   7.407  0.6503 -0.2410  0.6508
 2031TIP3   OH227727   1.810   2.230   7.097 -0.0146  0.7758  0.2079
 2031TIP3    H127728   1.815   2.236   7.002 -0.8031 -0.1471  0.0887
 2031TIP3    H227729   1.901   2.238   7.127  0.2796  0.7107 -0.6473
 2032TIP3   OH227730   5.746   1.754   8.610 -0.3957  0.5624  0.4337
 2032TIP3    H127731   5.656   1.739   8.579 -0.1498 -0.6600  0.2654
 2032TIP3    H227732   5.773   1.670   8.647  1.5821  0.1027 -1.8422
 2033TIP3   OH227733   5.310   0.820   7.871  0.3817  0.3184  0.3823
 2033TIP3    H127734   5.312   0.725   7.878 -2.1185  0.2589  1.5819
 2033TIP3    H227735   5.308   0.837   7.776  0.5274 -0.8275  0.1607
 2034TIP3   OH227736   3.685   5.651   0.018 -0.4614 -0.6640 -0.4040
 2034TIP3    H127737   3.721   5.719   0.073 -1.9157  0.0117 -0.2291
 2034TIP3    H227738   3.706   5.569   0.063 -0.0019 -0.2331  0.1673
 2035TIP3   OH227739   0.589   4.999   7.232  0.2473 -0.4782  0.6536
 2035TIP3    H127740   0.629   5.037   7.154 -0.2934  2.7090  1.8057
 2035TIP3    H227741   0.539   4.924   7.199 -1.2858  1.6654 -2.3611
 2036TIP3   OH227742   4.142   1.429   8.653  0.0428 -0.1633 -0.1789
 2036TIP3    H127743   4.155   1.467   8.566 -1.5075 -1.8063 -1.2180
 2036TIP3    H227744   4.047   1.414   8.658  0.4201 -2.8582  0.5384
 2037TIP3   OH227745   3.452   2.372   0.659  0.3700  0.5679  0.5961
 2037TIP3    H127746   3.467   2.466   0.668 -0.0416  0.6536  0.4184
 2037TIP3    H227747   3.357   2.364   0.648  0.5046  0.2190 -0.4258
 2038TIP3   OH227748   3.839   5.055   8.909 -0.1179  0.0369 -0.0146
 2038TIP3    H127749   3.860   5.099   8.992 -1.4023  2.8820 -1.0694
 2038TIP3    H227750   3.745   5.039   8.913 -0.1788  0.1320 -0.8889
 2039TIP3   OH227751   1.502   2.754   2.084  0.0451 -0.0490  0.1708
 2039TIP3    H127752   1.450   2.722   2.010  0.5884 -1.5227  0.3951
 2039TIP3    H227753   1.580   2.793   2.043  0.3103 -0.7917 -0.0581
 2040TIP3   OH227754   2.844   4.759   7.406 -0.4715  0.7673  0.0853
 2040TIP3    H127755   2.799   4.675   7.408  0.9778 -0.0780 -1.2428
 2040TIP3    H227756   2.858   4.781   7.499 -1.8613  0.1217  0.4654
 2041TIP3   OH227757   1.354   2.476   2.123  0.6529 -0.3911 -0.0227
 2041TIP3    H127758   1.357   2.476   2.219 -0.7283 -2.9105  0.1130
 2041TIP3    H227759   1.261   2.480   2.102  0.9402  0.0881 -1.2943
 2042TIP3   OH227760   2.276   5.320   7.998 -0.1838  0.0294 -0.4232
 2042TIP3    H127761   2.222   5.322   7.919 -1.5368  0.8614  0.4911
 2042TIP3    H227762   2.327   5.239   7.990 -1.9142 -1.0445 -1.1071
 2043TIP3   OH227763   4.458   2.065   8.801 -0.8185 -0.0434 -0.2791
 2043TIP3    H127764   4.473   2.157   8.824 -0.7845 -0.1677  0.2118
 2043TIP3    H227765   4.410   2.069   8.718  0.2195  0.3932 -0.8798
 2044TIP3   OH227766   3.210   0.791   7.923  0.0417  0.0865 -0.8487
 2044TIP3    H127767   3.245   0.733   7.856  0.0646 -0.4382 -0.3872
 2044TIP3    H227768   3.115   0.789   7.911  0.0010 -0.5028 -0.4689
 2045TIP3   OH227769   4.178   1.412   1.129 -0.0500  0.1117 -0.1333
 2045TIP3    H127770   4.093   1.454   1.115 -0.1223  0.9998  2.3706
 2045TIP3    H227771   4.203   1.437   1.218  2.4542 -0.8320 -0.4662
 2046TIP3   OH227772   1.243   0.533   1.031  0.4865 -0.0268  0.3379
 2046TIP3    H127773   1.203   0.487   1.105  0.8457  0.9100  1.1423
 2046TIP3    H227774   1.305   0.593   1.072 -0.3017  1.5123 -0.6393
 2047TIP3   OH227775   3.720   2.041   1.364 -0.1041 -0.2262 -0.4968
 2047TIP3    H127776   3.731   2.109   1.298  0.6655  0.5416  0.3962
 2047TIP3    H227777   3.631   2.053   1.397  0.6468  1.6720  1.0396
 2048TIP3   OH227778   1.991   2.912   0.225  0.2624 -0.2594 -0.2752
 2048TIP3    H127779   2.051   2.870   0.163  2.9861 -1.6688  3.0173
 2048TIP3    H227780   2.006   3.005   0.213  1.6393 -0.5372 -0.9162
 2049TIP3   OH227781   0.876   3.776   1.062 -0.6804  0.4406  0.2476
 2049TIP3    H127782   0.911   3.691   1.091  0.0593 -0.1902 -2.2213
 2049TIP3    H227783   0.870   3.828   1.142  1.1990 -1.1128  1.5053
 2050TIP3   OH227784   5.623   6.781   0.457 -0.2003  0.0838  0.1904
 2050TIP3    H127785   5.622   6.729   0.537  0.3104 -0.6476 -0.2665
 2050TIP3    H227786   5.540   6.829   0.458  0.0901  0.5918  1.4749
 2051TIP3   OH227787   2.170   5.104   7.429 -0.0846 -0.3388 -0.0025
 2051TIP3    H127788   2.091   5.072   7.473 -0.5988 -0.4678 -0.9865
 2051TIP3    H227789   2.212   5.160   7.494 -1.2330  0.1175  0.3780
 2052TIP3   OH227790   3.384   1.017   7.672 -0.7813  0.4519 -0.0737
 2052TIP3    H127791   3.405   0.930   7.638  2.4708  1.4557 -0.9975
 2052TIP3    H227792   3.328   1.056   7.605 -0.8830 -0.3195 -0.4498
 2053TIP3   OH227793   6.358   0.808   1.698 -0.3670 -0.0397 -0.3105
 2053TIP3    H127794   6.272   0.831   1.735 -0.3365 -0.5308  0.0797
 2053TIP3    H227795   6.378   0.880   1.638 -1.7660 -0.6811 -1.6284
 2054TIP3   OH227796   2.689   5.901   2.530 -0.1194  0.2006 -0.1633
 2054TIP3    H127797   2.772   5.875   2.568 -1.3093 -3.0101  0.5588
 2054TIP3    H227798   2.636   5.930   2.605 -1.0250 -2.0198  0.1482
 2055TIP3   OH227799   2.011   3.293   7.564  0.0912  1.1429  0.1884
 2055TIP3    H127800   2.040   3.369   7.515  2.3378 -0.4117 -1.0714
 2055TIP3    H227801   1.924   3.273   7.530  0.4910  1.7273 -1.2012
 2056TIP3   OH227802   2.263   5.678   1.588  0.0017  0.3371  0.5165
 2056TIP3    H127803   2.233   5.618   1.656 -0.4302  1.0470  0.9640
 2056TIP3    H227804   2.213   5.758   1.603  0.1284  0.6075 -0.4464
 2057TIP3   OH227805   2.116   2.956   0.488  0.3753  0.0382  0.3361
 2057TIP3    H127806   2.060   2.900   0.434 -0.2400  0.6216  0.3567
 2057TIP3    H227807   2.104   2.922   0.577  0.4622 -0.1693  0.2694
 2058TIP3   OH227808   4.448   4.806   7.103 -0.5230 -0.3857 -0.3833
 2058TIP3    H127809   4.456   4.731   7.045 -0.0459  0.1155 -0.9900
 2058TIP3    H227810   4.429   4.880   7.045 -2.1737 -0.2224  0.3175
 2059TIP3   OH227811   1.191   3.835   0.326  0.5506  0.3155 -0.5101
 2059TIP3    H127812   1.153   3.923   0.324  0.7103  0.3986 -2.6840
 2059TIP3    H227813   1.116   3.776   0.316  0.4698  0.1910  0.6952
 2060TIP3   OH227814   4.665   4.199   0.464 -0.0857  0.1465 -0.3222
 2060TIP3    H127815   4.704   4.130   0.518 -1.5367 -0.7657 -0.3894
 2060TIP3    H227816   4.722   4.205   0.388 -0.0015 -1.0644 -0.3635
 2061TIP3   OH227817   4.606   5.330   6.704 -0.1385  0.2166 -0.1657
 2061TIP3    H127818   4.552   5.279   6.644  0.8540  1.4630 -2.2325
 2061TIP3    H227819   4.604   5.419   6.669  2.3536  0.5133  0.2584
 2062TIP3   OH227820   5.347   6.327   8.115  0.0296  0.3687  0.2342
 2062TIP3    H127821   5.296   6.403   8.143 -0.7350  0.3273 -0.9677
 2062TIP3    H227822   5.421   6.323   8.176 -0.5558  1.3741  1.0266
 2063TIP3   OH227823   2.760   4.774   1.007  0.2549 -0.0357 -0.2909
 2063TIP3    H127824   2.692   4.761   0.942 -0.2347  2.2021 -0.3047
 2063TIP3    H227825   2.717   4.822   1.078  1.8619  1.8718 -0.5115
 2064TIP3   OH227826   5.367   2.966   1.095  0.2459 -0.2457  0.5476
 2064TIP3    H127827   5.457   2.988   1.072  0.3585  1.8482  2.6361
 2064TIP3    H227828   5.323   3.050   1.105 -1.4112 -1.1632  1.4828
 2065TIP3   OH227829   0.184   3.721   8.224 -0.1131 -0.6151 -0.0840
 2065TIP3    H127830   0.225   3.737   8.139  0.6160 -2.3691 -0.1161
 2065TIP3    H227831   0.256   3.690   8.280 -0.8772 -0.9917  0.7094
 2066TIP3   OH227832   0.598   1.685   8.568  0.0359 -0.1206 -0.0602
 2066TIP3    H127833   0.508   1.661   8.590 -0.6785  1.8586 -0.6459
 2066TIP3    H227834   0.600   1.690   8.473  1.5668 -2.8690 -0.2815
 2067TIP3   OH227835   4.383   4.339   2.203 -0.3440  0.2509  0.1465
 2067TIP3    H127836   4.326   4.282   2.152  1.8676 -1.1463 -0.8620
 2067TIP3    H227837   4.436   4.385   2.138 -0.8724  2.2145  1.0226
 2068TIP3   OH227838   2.919   2.892   2.115  0.0977 -0.5556 -0.6409
 2068TIP3    H127839   2.957   2.819   2.065 -0.1373  0.2656 -2.0915
 2068TIP3    H227840   2.993   2.949   2.135  0.7638 -2.3514  2.8036
 2069TIP3   OH227841   3.606   6.704   8.327  0.1857 -0.2156  0.5406
 2069TIP3    H127842   3.552   6.764   8.378 -0.6765  0.0169 -0.6060
 2069TIP3    H227843   3.683   6.689   8.382 -0.2403  0.8055  1.4623
 2070TIP3   OH227844   0.838   3.776   1.517  0.5534 -1.1108 -0.1038
 2070TIP3    H127845   0.777   3.734   1.577  0.2016 -1.3858 -0.6440
 2070TIP3    H227846   0.875   3.704   1.465 -1.2678 -0.6722 -2.1551
 2071TIP3   OH227847   6.023   4.001   1.510  0.0814  0.1158  0.1723
 2071TIP3    H127848   6.044   4.073   1.450 -0.0450 -0.9425 -1.2110
 2071TIP3    H227849   5.935   3.974   1.485 -0.7843  0.8773  2.1809
 2072TIP3   OH227850   4.166   2.724   8.089 -0.0849  0.5654 -0.1986
 2072TIP3    H127851   4.238   2.786   8.088  0.4274 -0.0042 -1.6875
 2072TIP3    H227852   4.118   2.741   8.008 -0.2056 -0.6565 -0.4103
 2073TIP3   OH227853   0.186   1.627   6.694 -0.6056 -0.2665  0.0926
 2073TIP3    H127854   0.124   1.697   6.673 -0.5242 -0.0752  0.4818
 2073TIP3    H227855   0.271   1.670   6.698 -0.3680 -0.6162 -0.9324
 2074TIP3   OH227856   2.742   3.469   7.547  0.1832  0.3756  0.1548
 2074TIP3    H127857   2.807   3.449   7.614  0.7925  0.3368 -0.4367
 2074TIP3    H227858   2.791   3.513   7.478  0.0577 -1.5591 -1.2748
 2075TIP3   OH227859   6.761   4.922   1.064  0.4646 -0.2125 -0.2965
 2075TIP3    H127860   6.695   4.878   1.010  1.3835 -0.9323 -0.8690
 2075TIP3    H227861   6.822   4.960   1.001  0.7978  0.1255  0.2245
 2076TIP3   OH227862   3.681   2.230   0.014 -0.2269  0.4401  0.1909
 2076TIP3    H127863   3.762   2.265   0.053  0.6987  1.0399 -2.0878
 2076TIP3    H227864   3.611   2.272   0.063  0.8107 -0.0749  2.2344
 2077TIP3   OH227865   0.300   4.207   1.225  0.3332  0.0520 -0.1822
 2077TIP3    H127866   0.287   4.144   1.296  2.0516 -0.9862 -0.7124
 2077TIP3    H227867   0.347   4.280   1.267  0.0239  0.1244  0.0440
 2078TIP3   OH227868   0.824   0.211   0.806  0.3725  0.2401  0.1526
 2078TIP3    H127869   0.745   0.160   0.824 -0.2747  0.4671 -1.8087
 2078TIP3    H227870   0.865   0.222   0.891 -0.5456 -1.7804  0.9094
 2079TIP3   OH227871   6.087   4.608   8.464  0.4577  0.3984 -0.1517
 2079TIP3    H127872   6.137   4.665   8.406  0.4227  0.7346  0.1463
 2079TIP3    H227873   6.011   4.582   8.412  0.2387  0.9902 -0.1299
 2080TIP3   OH227874   0.285   5.527   2.626 -0.4923 -0.1382  0.7584
 2080TIP3    H127875   0.257   5.562   2.711  0.5838  2.9517 -0.0153
 2080TIP3    H227876   0.380   5.542   2.624 -0.5772  0.4915 -1.2005
 2081TIP3   OH227877   3.408   4.954   7.453 -0.4417 -0.2249 -0.4447
 2081TIP3    H127878   3.350   4.971   7.379 -1.0318  0.7755  0.2218
 2081TIP3    H227879   3.358   4.980   7.530  0.7390  0.3108  0.1858
 2082TIP3   OH227880   3.575   4.340   1.100  0.0050  0.5502  0.0642
 2082TIP3    H127881   3.582   4.387   1.184 -1.0239  0.4715  0.2108
 2082TIP3    H227882   3.626   4.261   1.113 -0.1698  0.5220  0.6457
 2083TIP3   OH227883   0.739   6.257   1.326  1.1296 -0.0830 -0.4136
 2083TIP3    H127884   0.813   6.214   1.282  2.4558  1.8003 -0.1244
 2083TIP3    H227885   0.772   6.277   1.413 -1.1706 -2.9822  1.3393
 2084TIP3   OH227886   3.331   6.032   6.812  0.0037  0.5189  0.3944
 2084TIP3    H127887   3.412   6.046   6.763  0.1561 -2.6347 -0.4614
 2084TIP3    H227888   3.353   5.965   6.876 -2.1078 -1.2234 -0.5706
 2085TIP3   OH227889   4.445   4.956   8.550  0.3379 -0.0596 -0.3598
 2085TIP3    H127890   4.450   4.969   8.644  1.0601 -1.1064 -0.2468
 2085TIP3    H227891   4.388   5.027   8.519  2.0243  1.7684  0.5408
 2086TIP3   OH227892   1.676   3.639   8.700 -0.0886 -0.0848 -0.4416
 2086TIP3    H127893   1.634   3.724   8.687  0.3925  0.1569 -0.4396
 2086TIP3    H227894   1.680   3.601   8.612 -1.6107 -0.7400 -0.2473
 2087TIP3   OH227895   3.863   2.184   6.714 -0.0175 -0.5325 -0.6714
 2087TIP3    H127896   3.928   2.130   6.668 -1.0607 -1.8936 -0.6163
 2087TIP3    H227897   3.813   2.226   6.644 -0.1011 -0.7524 -0.7450
 2088TIP3   OH227898   6.200   4.799   8.306 -0.1150  0.1758 -0.2727
 2088TIP3    H127899   6.155   4.832   8.228  1.1358 -0.5661 -1.3350
 2088TIP3    H227900   6.270   4.743   8.272 -1.0339 -2.1658  1.4205
 2089TIP3   OH227901   4.655   0.248   8.580  0.1519 -0.0776 -0.7826
 2089TIP3    H127902   4.674   0.329   8.533 -1.0473  0.7578  0.1094
 2089TIP3    H227903   4.676   0.178   8.518  0.8692  0.9210 -1.6882
 2090TIP3   OH227904   5.967   5.189   0.980 -0.1306  0.5600 -0.0392
 2090TIP3    H127905   5.985   5.147   0.896 -0.3252 -2.3739  1.2551
 2090TIP3    H227906   6.027   5.263   0.984  1.3089 -0.4379 -1.9153
 2091TIP3   OH227907   0.290   5.522   2.349  0.1193  0.1703 -0.0917
 2091TIP3    H127908   0.210   5.562   2.314  0.9811  1.6898 -0.4328
 2091TIP3    H227909   0.275   5.518   2.443 -0.4779  0.1346 -0.1792
 2092TIP3   OH227910   1.015   3.233   7.276 -0.0973  0.4026 -0.2954
 2092TIP3    H127911   0.996   3.326   7.266 -0.0968  0.4284 -0.0601
 2092TIP3    H227912   1.011   3.198   7.187 -1.6963  0.3121 -0.2093
 2093TIP3   OH227913   2.597   3.515   0.000  0.2332  0.3451 -0.5947
 2093TIP3    H127914   2.611   3.430   0.043  1.2223  0.9531  0.3359
 2093TIP3    H227915   2.504   3.533   0.013  0.4597  0.4142  1.1765
 2094TIP3   OH227916   6.641   0.881   6.576 -0.9536  0.1905  0.5713
 2094TIP3    H127917   6.641   0.963   6.526  0.6156 -0.1266 -0.0170
 2094TIP3    H227918   6.553   0.845   6.562 -1.4700  1.4797  0.3577
 2095TIP3   OH227919   1.135   2.750   1.895  0.0061  0.1046 -0.7305
 2095TIP3    H127920   1.077   2.694   1.948  1.0340  0.4083  0.7873
 2095TIP3    H227921   1.080   2.822   1.867 -1.0179 -0.9942 -1.6221
 2096TIP3   OH227922   4.386   4.813   8.309 -0.6106 -0.2371  0.0919
 2096TIP3    H127923   4.347   4.817   8.396  2.8606  0.1024  1.8171
 2096TIP3    H227924   4.403   4.720   8.294 -2.5446 -0.4676 -0.9786
 2097TIP3   OH227925   1.911   1.755   0.315 -0.4768 -0.1476  0.3630
 2097TIP3    H127926   1.833   1.808   0.299 -0.4229  0.3360  1.5244
 2097TIP3    H227927   1.959   1.756   0.232 -1.0519  0.6750  0.0257
 2098TIP3   OH227928   0.908   2.232   1.335  0.0165 -0.0001  0.0493
 2098TIP3    H127929   0.888   2.323   1.355  0.8294  0.2012 -0.0235
 2098TIP3    H227930   0.918   2.190   1.421  0.5490  0.1874  0.0793
 2099TIP3   OH227931   3.047   2.169   0.114  0.5334  0.2017 -0.4981
 2099TIP3    H127932   3.037   2.193   0.022 -0.6575 -1.0994 -0.7538
 2099TIP3    H227933   2.982   2.099   0.127  0.1015  0.9223  1.5378
 2100TIP3   OH227934   2.648   0.332   8.315  0.3468  0.1330  0.2876
 2100TIP3    H127935   2.725   0.294   8.272  0.2852  0.9139 -0.5486
 2100TIP3    H227936   2.574   0.303   8.261  0.3250  1.6294 -0.5275
 2101TIP3   OH227937   4.646   1.591   7.898  0.3381 -0.2776 -0.5211
 2101TIP3    H127938   4.699   1.658   7.942 -2.3870  2.0591 -0.4108
 2101TIP3    H227939   4.687   1.508   7.922  0.8106  0.9656  4.0836
 2102TIP3   OH227940   2.263   1.931   0.708 -0.5617  0.5497  1.0277
 2102TIP3    H127941   2.192   1.959   0.650  0.7343  2.0305  0.0732
 2102TIP3    H227942   2.339   1.924   0.651  0.2326 -0.3242  2.1512
 2103TIP3   OH227943   4.581   6.083   0.853 -0.1996  0.2179  0.7266
 2103TIP3    H127944   4.613   6.172   0.867  0.9371 -0.0410 -0.0843
 2103TIP3    H227945   4.616   6.058   0.768 -3.7714  0.4116 -0.9717
 2104TIP3   OH227946   6.600   3.714   0.524  0.3309  0.0070 -0.1449
 2104TIP3    H127947   6.548   3.732   0.602 -1.5449 -0.3213 -1.2478
 2104TIP3    H227948   6.537   3.718   0.452  1.8354 -0.5330 -1.5522
 2105TIP3   OH227949   1.094   4.407   7.444 -0.3326  0.1413  0.0503
 2105TIP3    H127950   1.061   4.496   7.435 -4.6536 -1.3353 -1.3505
 2105TIP3    H227951   1.045   4.371   7.519  0.6818 -1.3228  0.0617
 2106TIP3   OH227952   2.588   4.921   1.223 -0.0825 -0.4080  0.2545
 2106TIP3    H127953   2.621   5.011   1.226 -1.5129  0.2814 -1.9308
 2106TIP3    H227954   2.500   4.926   1.261 -0.6622 -0.5828 -1.0077
 2107TIP3   OH227955   2.247   6.591   0.180  0.5903 -0.5716  0.2312
 2107TIP3    H127956   2.309   6.555   0.243 -1.0980 -0.6125  1.9324
 2107TIP3    H227957   2.170   6.535   0.187 -0.9319  1.4903  0.6684
 2108TIP3   OH227958   0.518   6.494   0.314  0.4926  0.2513 -0.6016
 2108TIP3    H127959   0.507   6.486   0.409  2.5269  0.6900 -0.2736
 2108TIP3    H227960   0.480   6.579   0.292 -0.6414 -0.1734 -0.3051
 2109TIP3   OH227961   3.847   2.979   0.861 -0.3388  0.6714 -0.3344
 2109TIP3    H127962   3.919   3.037   0.836 -1.7313  1.6387 -2.4973
 2109TIP3    H227963   3.845   2.913   0.792 -0.5026 -0.3334  0.6130
 2110TIP3   OH227964   2.220   1.425   8.107 -0.0801 -0.1773 -0.1247
 2110TIP3    H127965   2.284   1.376   8.055  0.1126 -1.5021  1.2760
 2110TIP3    H227966   2.261   1.510   8.122  1.6737 -1.1894  1.2227
 2111TIP3   OH227967   3.419   0.030   8.486  0.1891 -0.9259  0.0537
 2111TIP3    H127968   3.335   0.071   8.468 -1.4276 -4.2308 -0.7500
 2111TIP3    H227969   3.418   0.012   8.580  0.9822  0.8924  0.4410
 2112TIP3   OH227970   5.421   5.586   7.925  0.0623 -0.3174 -0.6866
 2112TIP3    H127971   5.444   5.673   7.893 -0.9861 -0.0004 -0.6092
 2112TIP3    H227972   5.488   5.528   7.887  1.0671  0.5758 -0.3316
 2113TIP3   OH227973   1.352   4.621   0.552  0.3722  0.2386  0.3636
 2113TIP3    H127974   1.374   4.538   0.593  2.2647  0.1211 -0.7684
 2113TIP3    H227975   1.264   4.608   0.517 -0.1787 -0.5575  1.9688
 2114TIP3   OH227976   1.160   0.359   0.392 -0.1796 -0.4190  0.0152
 2114TIP3    H127977   1.234   0.320   0.439  1.8427  1.1377 -1.7032
 2114TIP3    H227978   1.134   0.433   0.447  0.6065 -0.0268 -0.1244
 2115TIP3   OH227979   5.932   2.893   0.697 -0.0722  0.3197 -0.5924
 2115TIP3    H127980   5.982   2.970   0.672  0.5062  0.9970  2.2820
 2115TIP3    H227981   5.975   2.820   0.653  1.5432  1.2672 -0.6424
 2116TIP3   OH227982   5.790   3.166   1.207  0.2399  0.4593  0.4784
 2116TIP3    H127983   5.696   3.169   1.225 -0.0860  1.7260 -1.1162
 2116TIP3    H227984   5.803   3.084   1.159 -0.0866  0.3944  0.4987
 2117TIP3   OH227985   5.885   5.086   7.337 -0.1399  0.6552  0.2331
 2117TIP3    H127986   5.868   5.159   7.278  0.6050  1.0966  0.5467
 2117TIP3    H227987   5.857   5.009   7.289  2.7594  0.6886 -1.7840
 2118TIP3   OH227988   4.477   5.587   1.587 -0.0209  0.3859 -0.2114
 2118TIP3    H127989   4.524   5.516   1.544  2.8833  0.4092  2.5761
 2118TIP3    H227990   4.454   5.553   1.673  1.4039  2.6775  1.1932
 2119TIP3   OH227991   6.421   3.830   2.143  0.5461 -0.4225  0.2758
 2119TIP3    H127992   6.334   3.864   2.119 -0.1932 -1.0423  1.9375
 2119TIP3    H227993   6.434   3.755   2.085 -0.2980 -0.6871  0.4212
 2120TIP3   OH227994   4.945   2.071   2.279 -0.4830  0.6909 -0.6547
 2120TIP3    H127995   4.928   2.013   2.204  1.0742 -0.6109 -0.0695
 2120TIP3    H227996   4.943   2.013   2.355  2.8344  0.9638 -0.2068
 2121TIP3   OH227997   3.686   3.223   1.202 -0.0576 -0.0225 -0.1387
 2121TIP3    H127998   3.769   3.244   1.160 -0.6094  1.9252 -0.3409
 2121TIP3    H227999   3.711   3.168   1.276  1.4893  1.0390  0.1860
 2122TIP3   OH228000   4.046   0.545   8.035  0.1524 -0.2767  0.2597
 2122TIP3    H128001   4.055   0.579   8.124  0.2480  4.2244 -1.2516
 2122TIP3    H228002   4.132   0.557   7.996 -0.3058 -0.7065 -0.9197
 2123TIP3   OH228003   3.059   0.803   2.118 -0.2052  0.6204 -0.0983
 2123TIP3    H128004   3.148   0.835   2.131 -0.0609  0.7574 -1.3179
 2123TIP3    H228005   3.003   0.880   2.128  0.0794  1.1645 -2.2721
 2124TIP3   OH228006   3.736   5.888   2.365 -0.0120  0.1312 -0.5079
 2124TIP3    H128007   3.641   5.876   2.357  0.2341 -1.2226 -1.7673
 2124TIP3    H228008   3.761   5.934   2.285  0.2712  1.5341  0.3521
 2125TIP3   OH228009   0.668   6.015   0.071 -0.3514 -0.1444 -0.4639
 2125TIP3    H128010   0.588   6.064   0.056 -0.6843 -0.8569 -1.0859
 2125TIP3    H228011   0.638   5.926   0.091  0.2016  0.0225  1.3012
 2126TIP3   OH228012   2.564   5.916   8.881 -0.0439 -0.3483  0.0144
 2126TIP3    H128013   2.594   5.880   8.964 -0.4408 -3.3830 -1.0463
 2126TIP3    H228014   2.484   5.868   8.861  0.5162 -0.3721 -2.5130
 2127TIP3   OH228015   1.771   3.798   2.034  0.4280 -0.1565  0.4599
 2127TIP3    H128016   1.826   3.727   2.068  0.3697 -1.3884 -1.8207
 2127TIP3    H228017   1.681   3.772   2.057  0.5098 -0.1163  0.8262
 2128TIP3   OH228018   1.547   6.175   8.302 -0.0280  0.0964 -0.5724
 2128TIP3    H128019   1.469   6.187   8.357  1.3453  1.3613  1.2025
 2128TIP3    H228020   1.514   6.184   8.213 -1.9982  0.0763  0.0915
 2129TIP3   OH228021   6.083   5.083   7.976 -0.7614 -0.4197 -0.6011
 2129TIP3    H128022   6.085   4.987   7.980  0.0549 -0.3907 -0.1067
 2129TIP3    H228023   6.139   5.111   8.049 -0.6614  0.4274 -0.9928
 2130TIP3   OH228024   3.477   4.942   8.204 -0.2158 -0.0320 -0.4420
 2130TIP3    H128025   3.553   4.890   8.232 -0.8867 -0.7245  0.1440
 2130TIP3    H228026   3.493   5.029   8.241  0.0298 -0.3178  0.1402
 2131TIP3   OH228027   2.483   0.066   8.601 -0.8706 -0.2315 -0.1552
 2131TIP3    H128028   2.464   0.010   8.676  0.4561 -0.3239  0.1459
 2131TIP3    H228029   2.488   0.005   8.527  0.5696 -0.5495  0.1727
 2132TIP3   OH228030   1.883   2.180   0.234 -0.1960  0.6292 -0.1632
 2132TIP3    H128031   1.955   2.119   0.222  0.8653  1.3445  2.0583
 2132TIP3    H228032   1.891   2.242   0.162  0.3511 -0.2897 -0.9042
 2133TIP3   OH228033   0.642   0.021   7.566  0.7378 -0.6426 -0.0213
 2133TIP3    H128034   0.596   0.043   7.647  2.0405 -2.6400  1.3580
 2133TIP3    H228035   0.572   0.002   7.503 -0.3348 -0.9433  1.2117
 2134TIP3   OH228036   5.675   1.544   0.185 -0.2162 -0.2706 -0.1665
 2134TIP3    H128037   5.682   1.503   0.272  0.4858 -2.0541 -1.0023
 2134TIP3    H228038   5.704   1.634   0.198  1.3242 -0.9096  1.1884
 2135TIP3   OH228039   2.735   0.079   1.765  0.0241  0.3716 -0.0308
 2135TIP3    H128040   2.744   0.048   1.855  2.1940  0.8519 -0.0334
 2135TIP3    H228041   2.737  -0.001   1.712 -1.5482  0.0642  0.3324
 2136TIP3   OH228042   6.178   2.453   0.705  0.0728  0.2472 -0.2904
 2136TIP3    H128043   6.220   2.372   0.676 -0.7444 -0.4792  0.4703
 2136TIP3    H228044   6.237   2.490   0.770  0.0995 -0.1397 -0.0924
 2137TIP3   OH228045   4.223   3.151   7.924  0.5444 -0.7799 -0.1747
 2137TIP3    H128046   4.213   3.157   8.019 -0.2755 -2.3626 -0.1330
 2137TIP3    H228047   4.205   3.059   7.904 -1.3959 -0.0444 -2.1146
 2138TIP3   OH228048   0.042   6.434   1.599  0.3373  0.2627 -0.5125
 2138TIP3    H128049   0.058   6.466   1.688 -1.3538 -1.0044  0.3024
 2138TIP3    H228050   0.084   6.348   1.596  0.4563  0.3337 -0.9668
 2139TIP3   OH228051   4.855   3.575   1.323  0.0291 -0.8415 -0.5707
 2139TIP3    H128052   4.931   3.598   1.377  0.1604 -2.5917  0.0258
 2139TIP3    H228053   4.780   3.582   1.382 -0.0508 -1.0154 -0.6526
 2140TIP3   OH228054   2.617   4.722   0.116  0.0490 -0.0328  0.2954
 2140TIP3    H128055   2.650   4.725   0.026 -0.1715  1.6911  0.2442
 2140TIP3    H228056   2.526   4.751   0.110 -0.0530 -0.1559  1.0568
 2141TIP3   OH228057   4.064   3.822   8.817 -0.0111 -0.0178 -0.1269
 2141TIP3    H128058   4.082   3.915   8.832  1.4146 -0.5771  2.2357
 2141TIP3    H228059   3.978   3.807   8.858  0.2662  0.0592  0.4919
 2142TIP3   OH228060   2.589   4.749   7.179 -0.3090  0.5812  0.5841
 2142TIP3    H128061   2.681   4.755   7.153 -0.2686 -1.7141  0.0394
 2142TIP3    H228062   2.586   4.678   7.244 -1.7813  0.1566  0.0993
 2143TIP3   OH228063   0.135   6.380   8.774  0.0107  0.4089 -0.2400
 2143TIP3    H128064   0.221   6.398   8.813 -0.4328  0.8260  0.5657
 2143TIP3    H228065   0.148   6.301   8.722  0.4615 -0.5701  1.3187
 2144TIP3   OH228066   0.080   1.800   1.712  0.8140 -0.7940  0.1253
 2144TIP3    H128067   0.172   1.819   1.728  0.7113 -0.9939  1.0019
 2144TIP3    H228068   0.041   1.794   1.800 -0.1514 -0.0986 -0.2369
 2145TIP3   OH228069   2.156   4.436   2.180  1.3889  0.1227  0.3725
 2145TIP3    H128070   2.072   4.474   2.156  1.6419  0.4292 -0.0457
 2145TIP3    H228071   2.145   4.406   2.270  0.4706 -0.8752 -0.0475
 2146TIP3   OH228072   4.500   4.152   1.344 -0.0268 -0.0332  0.7643
 2146TIP3    H128073   4.578   4.110   1.380  0.8595  0.4828 -0.4875
 2146TIP3    H228074   4.499   4.239   1.385 -0.7819 -0.5528  1.8877
 2147TIP3   OH228075   4.324   5.674   7.420 -0.0920 -0.0287 -0.4557
 2147TIP3    H128076   4.372   5.608   7.369  2.0836  2.4865 -1.9398
 2147TIP3    H228077   4.343   5.757   7.375 -0.2695  2.0176  2.9304
 2148TIP3   OH228078   0.273   4.001   0.135 -0.0923 -0.2811  0.0195
 2148TIP3    H128079   0.307   4.010   0.224 -2.8683 -0.0597  1.1609
 2148TIP3    H228080   0.297   3.913   0.109  0.3694 -0.5265  1.1928
 2149TIP3   OH228081   3.995   0.834   8.072  0.1810  0.0867 -0.0477
 2149TIP3    H128082   4.073   0.846   8.127 -0.3151 -0.8591  0.8885
 2149TIP3    H228083   4.021   0.869   7.987  0.9435  1.6430  0.7894
 2150TIP3   OH228084   2.788   2.214   1.554 -0.7283  0.0932  0.0590
 2150TIP3    H128085   2.771   2.149   1.486  0.4777  0.0313 -0.2093
 2150TIP3    H228086   2.739   2.291   1.526 -2.2160 -0.6794  0.4055
 2151TIP3   OH228087   6.288   4.527   8.897 -0.5398 -0.3164 -0.4608
 2151TIP3    H128088   6.380   4.539   8.871 -1.1124  2.0488 -1.6864
 2151TIP3    H228089   6.290   4.454   8.958  2.6742  1.7575  2.2617
 2152TIP3   OH228090   4.529   2.138   1.654  0.0343 -0.1960 -0.3156
 2152TIP3    H128091   4.464   2.187   1.603  1.1160  1.6219 -0.0410
 2152TIP3    H228092   4.489   2.129   1.741 -0.7645 -1.0975 -0.7564
 2153TIP3   OH228093   6.210   6.535   2.169  0.7964 -0.0644  0.0523
 2153TIP3    H128094   6.122   6.551   2.135  0.8831  0.9936  0.2980
 2153TIP3    H228095   6.212   6.580   2.254  1.8202  0.5793 -0.2943
 2154TIP3   OH228096   3.751   3.636   7.566  0.4848  0.3863  0.5846
 2154TIP3    H128097   3.760   3.644   7.661  0.7395 -1.1093  0.7124
 2154TIP3    H228098   3.703   3.553   7.554  3.0580 -1.0253 -0.6560
 2155TIP3   OH228099   3.068   4.214   1.314 -0.0894  0.6450  0.3058
 2155TIP3    H128100   3.055   4.226   1.408  0.4394 -0.5791  0.5557
 2155TIP3    H228101   3.151   4.167   1.307 -0.2796  0.4332 -0.7586
 2156TIP3   OH228102   5.429   0.227   6.619  0.1448  0.2194 -0.2950
 2156TIP3    H128103   5.407   0.282   6.544  0.6591  1.2407  0.2854
 2156TIP3    H228104   5.412   0.282   6.695 -0.7465 -0.9404  0.3771
 2157TIP3   OH228105   4.729   4.710   7.807  0.0347 -0.3541  0.1924
 2157TIP3    H128106   4.700   4.710   7.716 -0.3398 -1.5575  0.2913
 2157TIP3    H228107   4.817   4.674   7.804  0.2019  0.0401  0.2665
 2158TIP3   OH228108   0.241   4.905   7.162  0.0000 -0.8998 -0.3376
 2158TIP3    H128109   0.152   4.869   7.161  0.0409 -1.0861  1.1607
 2158TIP3    H228110   0.298   4.829   7.150 -0.0040 -0.9728  0.0925
 2159TIP3   OH228111   5.645   6.008   1.038 -0.3190  0.6243  0.0946
 2159TIP3    H128112   5.632   5.974   1.126 -0.0454  0.9532  0.2672
 2159TIP3    H228113   5.732   5.976   1.013 -0.9060 -0.5188 -0.5567
 2160TIP3   OH228114   5.624   0.843   0.418 -0.5065  0.1346 -0.1338
 2160TIP3    H128115   5.587   0.840   0.506 -1.0283  0.2511 -0.3484
 2160TIP3    H228116   5.639   0.751   0.396  2.5175  0.1668  1.2703
 2161TIP3   OH228117   5.736   5.243   7.073  0.1224  0.4583  0.0948
 2161TIP3    H128118   5.677   5.250   7.148  1.4393  2.9555  0.9961
 2161TIP3    H228119   5.679   5.254   6.997 -1.3439 -2.7777  0.5705
 2162TIP3   OH228120   2.641   0.020   7.755  0.3276  0.1356 -0.4460
 2162TIP3    H128121   2.634  -0.023   7.670 -0.0241  0.7673 -0.7437
 2162TIP3    H228122   2.688  -0.042   7.810  0.3116 -0.3928 -1.0252
 2163TIP3   OH228123   4.192   5.546   0.847 -0.1693  0.0944 -0.1798
 2163TIP3    H128124   4.221   5.630   0.883  0.9090  0.3169 -1.4786
 2163TIP3    H228125   4.267   5.488   0.857  0.0984  0.1047 -1.7876
 2164TIP3   OH228126   3.329   3.514   6.383 -0.1900 -0.4784 -0.1047
 2164TIP3    H128127   3.287   3.542   6.464  0.1588  1.1033 -0.4509
 2164TIP3    H228128   3.321   3.588   6.324 -2.1848 -2.2664 -2.2687
 2165TIP3   OH228129   3.443   1.694   0.665  0.7091 -0.0948  0.4058
 2165TIP3    H128130   3.478   1.780   0.686 -0.4574  1.7060 -3.9938
 2165TIP3    H228131   3.509   1.632   0.697  1.6627  2.3255  3.5514
 2166TIP3   OH228132   2.949   0.608   7.647 -1.6012 -0.1793  0.2240
 2166TIP3    H128133   2.955   0.570   7.559  0.9290  0.0751  0.2152
 2166TIP3    H228134   2.961   0.702   7.633 -2.7411  0.0623  0.7358
 2167TIP3   OH228135   1.463   6.792   7.396  0.1353 -0.0332  0.3208
 2167TIP3    H128136   1.550   6.765   7.365 -0.5326 -2.1146  0.1109
 2167TIP3    H228137   1.406   6.720   7.372 -1.6681  1.2668  0.5398
 2168TIP3   OH228138   2.732   5.987   0.252  0.4237 -0.6263  0.2708
 2168TIP3    H128139   2.646   5.988   0.296 -0.1759  1.0462 -0.8449
 2168TIP3    H228140   2.731   5.907   0.201  0.8234 -2.2334  2.6099
 2169TIP3   OH228141   1.026   3.612   0.339  0.2043  0.4821 -0.0336
 2169TIP3    H128142   1.094   3.548   0.360  0.6300  1.3955  1.5750
 2169TIP3    H228143   1.019   3.666   0.418 -1.6817  1.0522 -0.5355
 2170TIP3   OH228144   6.533   2.009   8.711 -0.0887  0.3371 -0.1173
 2170TIP3    H128145   6.541   1.935   8.772  0.2585 -0.5910 -1.2635
 2170TIP3    H228146   6.624   2.036   8.696 -0.0063 -0.7234 -1.7362
 2171TIP3   OH228147   3.191   2.386   0.601  0.4168 -0.9744  0.5249
 2171TIP3    H128148   3.198   2.403   0.507  1.5841  1.3865  0.9609
 2171TIP3    H228149   3.116   2.440   0.629  0.4291 -1.2181  1.0317
 2172TIP3   OH228150   1.065   1.670   0.574 -0.2756 -0.5937 -0.0311
 2172TIP3    H128151   1.057   1.628   0.489  1.2743 -0.4911 -0.2644
 2172TIP3    H228152   1.003   1.743   0.571  0.9532  0.4594 -1.7722
 2173TIP3   OH228153   3.689   0.360   1.311  0.1890  0.2970  0.4578
 2173TIP3    H128154   3.697   0.275   1.355  0.0585 -1.1811 -2.1543
 2173TIP3    H228155   3.776   0.399   1.319 -0.0923  0.5663  2.7933
 2174TIP3   OH228156   1.515   3.999   2.024 -0.0959  0.4020 -0.1465
 2174TIP3    H128157   1.553   4.043   1.947  1.6291  3.5560  2.2698
 2174TIP3    H228158   1.436   4.049   2.043  1.4809  2.2274  2.1962
 2175TIP3   OH228159   3.947   0.917   6.514 -0.0321 -0.1440  0.0372
 2175TIP3    H128160   3.916   0.966   6.437 -0.2594 -0.9460 -0.3915
 2175TIP3    H228161   3.887   0.843   6.521  0.7235 -0.7465  0.2582
 2176TIP3   OH228162   0.453   4.268   6.499 -0.3912 -0.2835  0.0610
 2176TIP3    H128163   0.431   4.228   6.583  0.8070  0.8890  0.9862
 2176TIP3    H228164   0.548   4.262   6.494 -0.4991 -1.0108 -1.5884
 2177TIP3   OH228165   3.898   1.748   1.613 -0.0010 -0.5616 -0.2052
 2177TIP3    H128166   3.952   1.728   1.689  0.6205 -0.0761 -0.5164
 2177TIP3    H228167   3.954   1.800   1.555 -0.5852 -0.5970 -0.8261
 2178TIP3   OH228168   4.189   1.947   0.888 -0.3272 -0.1472  0.1181
 2178TIP3    H128169   4.128   1.875   0.871 -0.8727  0.5676 -1.0175
 2178TIP3    H228170   4.142   2.005   0.947 -0.2299 -0.2630  0.3111
 2179TIP3   OH228171   1.057   3.286   1.305 -0.3661 -0.4451 -0.2342
 2179TIP3    H128172   1.139   3.303   1.353 -0.9910 -1.9415  1.4930
 2179TIP3    H228173   1.078   3.212   1.248 -0.5382 -0.9722  0.3690
 2180TIP3   OH228174   0.048   1.589   1.561  0.1788  0.1255 -0.1208
 2180TIP3    H128175   0.038   1.673   1.605 -0.4385 -0.1011  0.1770
 2180TIP3    H228176   0.141   1.568   1.572  0.2091  0.4796  0.3245
 2181TIP3   OH228177   6.583   1.403   8.453 -0.0896  0.4518  0.4448
 2181TIP3    H128178   6.563   1.464   8.524  0.6238  1.9070 -0.5560
 2181TIP3    H228179   6.621   1.458   8.384  1.0356 -1.2095 -0.3127
 2182TIP3   OH228180   5.608   1.881   8.274 -0.4087  0.2391 -0.6823
 2182TIP3    H128181   5.583   1.973   8.284 -0.8896  0.1387 -0.9170
 2182TIP3    H228182   5.529   1.839   8.240 -0.1986 -0.2653 -0.5512
 2183TIP3   OH228183   3.628   5.616   0.578 -0.1420  0.2380 -0.3573
 2183TIP3    H128184   3.625   5.590   0.485  1.1440  1.6353 -0.8316
 2183TIP3    H228185   3.673   5.545   0.621 -0.5974 -0.3509 -0.8297
 2184TIP3   OH228186   6.280   0.878   1.029 -0.3312 -0.1642 -0.1017
 2184TIP3    H128187   6.364   0.856   0.990  0.2945  0.8034  0.6343
 2184TIP3    H228188   6.245   0.948   0.974 -0.0603  0.2999  0.3117
 2185TIP3   OH228189   5.563   5.510   0.647 -1.0497 -0.1047  0.2189
 2185TIP3    H128190   5.474   5.485   0.626 -0.5114 -1.9614 -0.0303
 2185TIP3    H228191   5.596   5.439   0.703  0.8431 -0.4054 -1.1653
 2186TIP3   OH228192   0.080   1.182   8.738 -0.6081  0.2294  0.0148
 2186TIP3    H128193   0.097   1.107   8.795  1.8088  0.5332 -0.2183
 2186TIP3    H228194   0.115   1.257   8.787  0.8622  0.5946 -1.5156
 2187TIP3   OH228195   2.353   1.889   8.917  0.0915 -0.4462  0.1094
 2187TIP3    H128196   2.277   1.832   8.932  1.6429 -3.0431 -1.1128
 2187TIP3    H228197   2.333   1.933   8.834 -0.4048 -0.5794  0.1533
 2188TIP3   OH228198   1.456   2.061   1.518  0.1824  0.3957  0.3669
 2188TIP3    H128199   1.551   2.071   1.518  0.0500  1.8547 -0.0737
 2188TIP3    H228200   1.437   2.013   1.437  0.6082 -0.9575  1.0359
 2189TIP3   OH228201   0.299   4.240   0.367 -0.2039 -0.3230  0.7053
 2189TIP3    H128202   0.288   4.153   0.404 -0.8321  0.0162  1.3467
 2189TIP3    H228203   0.383   4.271   0.401  1.2223 -1.5849 -1.4443
 2190TIP3   OH228204   2.431   5.871   0.467 -0.3380  0.1085 -0.1816
 2190TIP3    H128205   2.446   5.777   0.455 -0.3568  0.0925 -0.0810
 2190TIP3    H228206   2.414   5.881   0.560  1.1599  0.4099  0.0976
 2191TIP3   OH228207   0.707   0.076   0.142  0.1612  0.1183 -0.1128
 2191TIP3    H128208   0.711   0.166   0.175  0.5729 -0.0241  0.2285
 2191TIP3    H228209   0.782   0.032   0.181  0.9771  0.0729 -1.6587
 2192TIP3   OH228210   5.564   0.818   0.101  0.0910  0.3526 -0.4937
 2192TIP3    H128211   5.639   0.869   0.131  0.3304  0.6171 -1.5003
 2192TIP3    H228212   5.595   0.728   0.098 -0.3705  0.0836  1.4121
 2193TIP3   OH228213   5.951   4.557   8.875  0.3551  0.5912 -0.2020
 2193TIP3    H128214   5.892   4.521   8.809 -0.1564  0.5274  0.2794
 2193TIP3    H228215   5.894   4.609   8.932  0.8488  0.9364 -0.0244
 2194TIP3   OH228216   4.129   0.392   0.518 -0.0431 -0.2413 -0.3397
 2194TIP3    H128217   4.094   0.309   0.551  0.4516 -1.3253 -2.4216
 2194TIP3    H228218   4.057   0.430   0.469  0.2173 -0.2106 -0.7023
 2195TIP3   OH228219   2.553   5.170   8.200  0.2710 -0.1887  0.5051
 2195TIP3    H128220   2.463   5.180   8.233  0.8222  1.2009  1.7344
 2195TIP3    H228221   2.543   5.146   8.109 -1.3579 -0.8518  0.8280
 2196TIP3   OH228222   3.090   6.768   0.214 -0.0574  0.2953  0.2695
 2196TIP3    H128223   3.050   6.820   0.144  0.9636  0.8472  0.0799
 2196TIP3    H228224   3.105   6.682   0.176  4.2482  1.6304 -1.6764
 2197TIP3   OH228225   3.529   0.695   0.740 -0.2154  0.1317  0.1662
 2197TIP3    H128226   3.440   0.724   0.762 -0.2908  0.3032 -0.3521
 2197TIP3    H228227   3.532   0.699   0.644 -0.0603 -1.0854  0.1046
 2198TIP3   OH228228   0.329   5.988   8.518  0.3417  0.2112 -0.6330
 2198TIP3    H128229   0.305   5.937   8.441  1.8995 -1.2970 -0.1774
 2198TIP3    H228230   0.399   5.938   8.560  0.5349  1.7139  0.9828
 2199TIP3   OH228231   3.167   2.701   8.616 -0.5280  0.2932 -0.0441
 2199TIP3    H128232   3.108   2.760   8.663 -1.6778  0.2112 -1.3312
 2199TIP3    H228233   3.129   2.693   8.529  1.3657  0.1696 -0.9076
 2200TIP3   OH228234   1.701   0.735   8.262 -0.0690 -0.0894 -0.2427
 2200TIP3    H128235   1.743   0.821   8.252 -1.6309  0.8994  1.1731
 2200TIP3    H228236   1.754   0.676   8.208  2.7073  1.1886  0.8759
 2201TIP3   OH228237   0.168   2.888   8.130 -0.4884 -0.4590  0.1894
 2201TIP3    H128238   0.105   2.823   8.098  1.0322 -1.8812 -0.0084
 2201TIP3    H228239   0.254   2.850   8.112  0.4414  0.8159  1.6976
 2202TIP3   OH228240   1.655   0.980   0.646  0.3360  0.3619  0.2047
 2202TIP3    H128241   1.748   0.958   0.651 -0.0656 -1.5418  0.1177
 2202TIP3    H228242   1.619   0.954   0.731 -0.3095 -0.0109 -0.1707
 2203TIP3   OH228243   4.490   0.938   0.635 -0.2520 -0.9092  0.4951
 2203TIP3    H128244   4.419   0.985   0.591  0.6536 -0.0224 -0.0652
 2203TIP3    H228245   4.504   0.860   0.581  1.1817  0.4141 -1.1664
 2204TIP3   OH228246   0.796   3.103   1.332  0.0741  0.2413  0.2496
 2204TIP3    H128247   0.874   3.080   1.282 -0.5536 -0.2517 -0.5510
 2204TIP3    H228248   0.826   3.113   1.422  0.7383 -1.9206  0.3298
 2205TIP3   OH228249   0.774   5.503   7.882  0.2667 -0.0510  0.2009
 2205TIP3    H128250   0.710   5.433   7.896  0.1634 -0.0223 -0.1217
 2205TIP3    H228251   0.819   5.478   7.801 -0.8738  1.0721 -0.8311
 2206TIP3   OH228252   4.417   0.148   1.048  0.3323  0.5039  0.2250
 2206TIP3    H128253   4.346   0.174   0.990 -0.4141 -0.8269  0.4903
 2206TIP3    H228254   4.491   0.204   1.023 -0.3877  0.9223 -1.0330
 2207TIP3   OH228255   2.535   4.649   1.292  0.0112  0.2729 -0.1267
 2207TIP3    H128256   2.564   4.737   1.266 -0.0732  1.0925  2.2827
 2207TIP3    H228257   2.457   4.633   1.239  1.1327  0.8089 -2.0001
 2208TIP3   OH228258   6.362   3.886   7.984  0.0600  0.4197 -0.0928
 2208TIP3    H128259   6.454   3.884   8.011  0.2268 -0.6500 -0.7023
 2208TIP3    H228260   6.336   3.794   7.980 -1.3419  0.7344  1.0535
 2209TIP3   OH228261   4.444   2.478   7.551 -0.0690  0.3763 -0.2847
 2209TIP3    H128262   4.512   2.419   7.518 -1.5082 -1.4997 -0.0380
 2209TIP3    H228263   4.492   2.556   7.580  1.9025 -0.6674 -0.5835
 2210TIP3   OH228264   1.988   2.535   0.127  0.5555  0.3590 -0.3590
 2210TIP3    H128265   1.925   2.538   0.055  1.2862 -1.6199 -1.1453
 2210TIP3    H228266   1.934   2.546   0.206 -0.7080 -0.7355 -1.0324
 2211TIP3   OH228267   2.770   6.525   7.741 -0.4557  0.0074 -0.5955
 2211TIP3    H128268   2.784   6.489   7.828  2.9425  1.6055 -0.2974
 2211TIP3    H228269   2.743   6.450   7.688 -0.6523 -1.4045  1.3929
 2212TIP3   OH228270   1.192   2.519   8.227 -0.0250 -0.0681 -0.5921
 2212TIP3    H128271   1.122   2.582   8.208 -0.6844 -0.3535  0.7986
 2212TIP3    H228272   1.272   2.572   8.225 -0.4780  0.6427 -0.2904
 2213TIP3   OH228273   5.936   5.384   8.857 -0.1659  0.0891  0.6135
 2213TIP3    H128274   5.957   5.478   8.858 -1.1497  0.3231 -0.1021
 2213TIP3    H228275   5.953   5.356   8.768  0.2086 -0.4471  0.8464
 2214TIP3   OH228276   2.011   3.236   7.188  0.0358 -0.1955  0.1841
 2214TIP3    H128277   1.958   3.309   7.221 -0.5189 -0.8336  0.7271
 2214TIP3    H228278   1.996   3.236   7.094  0.2670  0.5696  0.1372
 2215TIP3   OH228279   5.620   3.976   7.235 -0.6285 -0.2953 -0.2332
 2215TIP3    H128280   5.632   4.060   7.278 -0.6574 -1.1422  1.5033
 2215TIP3    H228281   5.550   3.933   7.285 -1.4165 -0.9125 -1.7923
 2216TIP3   OH228282   3.794   5.768   8.739 -0.2688  0.2047  0.2210
 2216TIP3    H128283   3.747   5.719   8.807  0.5691 -0.7218  0.1473
 2216TIP3    H228284   3.840   5.837   8.787  0.1590 -0.3245  0.5847
 2217TIP3   OH228285   0.242   1.397   8.517 -0.3333  0.0406 -0.0535
 2217TIP3    H128286   0.226   1.458   8.446 -0.9904 -0.1336 -0.0593
 2217TIP3    H228287   0.157   1.356   8.534 -0.0091 -0.5160  0.2747
 2218TIP3   OH228288   5.392   0.110   0.358 -0.4720  0.4593  0.1711
 2218TIP3    H128289   5.416   0.198   0.329  0.7266  0.6573  1.6122
 2218TIP3    H228290   5.319   0.084   0.302  0.4864  1.5414 -1.6556
 2219TIP3   OH228291   1.170   5.226   0.150 -0.8427  0.1803 -0.1993
 2219TIP3    H128292   1.158   5.255   0.060 -0.5513  0.5512 -0.1164
 2219TIP3    H228293   1.224   5.293   0.191 -0.6719 -0.1684  0.1554
 2220TIP3   OH228294   2.950   4.734   8.439  0.8171  0.3460  0.0905
 2220TIP3    H128295   3.009   4.670   8.480  0.9261 -0.4615 -1.2483
 2220TIP3    H228296   3.006   4.782   8.377  0.5232  1.0751  0.3798
 2221TIP3   OH228297   0.172   2.896   2.323 -0.3685  0.0504  0.3977
 2221TIP3    H128298   0.086   2.933   2.344 -1.5148 -2.5529  0.6737
 2221TIP3    H228299   0.218   2.891   2.406 -1.1096 -1.1878  0.7608
 2222TIP3   OH228300   0.615   3.922   1.203  0.0893 -0.2926  0.4389
 2222TIP3    H128301   0.610   4.012   1.171  1.5478  0.0231  1.0244
 2222TIP3    H228302   0.547   3.875   1.154 -0.2884  0.9879 -0.3081
 2223TIP3   OH228303   3.369   3.277   8.219  0.5803 -0.0147 -0.0470
 2223TIP3    H128304   3.321   3.295   8.300  1.6431 -2.3585  1.1991
 2223TIP3    H228305   3.429   3.351   8.210 -0.5496  0.9936  0.4843
 2224TIP3   OH228306   6.008   4.496   7.278 -1.0034  0.0290 -0.3003
 2224TIP3    H128307   6.015   4.434   7.205  3.0749  0.6600 -0.6608
 2224TIP3    H228308   6.049   4.576   7.245 -1.0490  1.0600  1.9828
 2225TIP3   OH228309   5.131   6.189   7.841 -0.7582  0.0079  0.2397
 2225TIP3    H128310   5.055   6.183   7.783 -0.2212  1.1521 -0.6029
 2225TIP3    H228311   5.102   6.147   7.922 -0.9667 -3.3013 -1.3558
 2226TIP3   OH228312   2.276   6.157   1.426 -0.0473  0.4680 -0.4351
 2226TIP3    H128313   2.274   6.098   1.351  2.1767 -1.8805  1.1818
 2226TIP3    H228314   2.187   6.156   1.460 -0.1651 -1.7958 -0.6599
 2227TIP3   OH228315   4.834   2.849   8.389  0.0908 -0.2965 -0.4078
 2227TIP3    H128316   4.825   2.870   8.482  1.8473  0.1646 -0.3029
 2227TIP3    H228317   4.885   2.921   8.353  0.2020 -0.9182 -1.5462
 2228TIP3   OH228318   5.506   1.076   1.667  0.2579 -0.8011  0.0296
 2228TIP3    H128319   5.538   1.028   1.743  1.4361 -1.2826 -0.7409
 2228TIP3    H228320   5.565   1.051   1.596  0.3060  1.0378 -0.6232
 2229TIP3   OH228321   3.798   3.141   8.664  0.2598  0.1399  0.2481
 2229TIP3    H128322   3.730   3.073   8.659  1.1998 -0.8325  0.3710
 2229TIP3    H228323   3.832   3.134   8.753 -1.0571  2.2303  0.9932
 2230TIP3   OH228324   1.418   6.604   0.337  0.3959 -0.0509  0.0673
 2230TIP3    H128325   1.339   6.648   0.367  0.8374  0.9596 -0.2020
 2230TIP3    H228326   1.482   6.674   0.326  1.3921 -0.8608  0.4431
 2231TIP3   OH228327   2.313   1.980   1.797 -0.2762  0.0938 -0.4294
 2231TIP3    H128328   2.248   1.983   1.727 -2.3886  1.6070  1.4253
 2231TIP3    H228329   2.289   1.902   1.848  0.5918 -0.4059 -0.7619
 2232TIP3   OH228330   6.351   1.486   0.045 -0.2485  0.0014 -0.0920
 2232TIP3    H128331   6.325   1.407  -0.001 -1.2996 -0.1923  0.7899
 2232TIP3    H228332   6.312   1.477   0.132 -2.9373  2.7765 -0.8374
 2233TIP3   OH228333   5.105   3.956   8.569 -0.1591 -0.2179 -0.0031
 2233TIP3    H128334   5.073   4.008   8.495 -1.8349 -0.8517  0.2333
 2233TIP3    H228335   5.065   3.996   8.646  0.2203 -0.5820  0.3900
 2234TIP3   OH228336   2.014   1.666   8.256 -0.0206  0.3682  0.3950
 2234TIP3    H128337   2.030   1.740   8.314 -0.0390 -0.5927  1.6852
 2234TIP3    H228338   2.065   1.594   8.295 -0.8865 -0.5755 -0.1670
 2235TIP3   OH228339   1.830   4.763   7.585 -0.3599 -0.5295  0.6714
 2235TIP3    H128340   1.754   4.804   7.544  0.0168  1.3630  1.7518
 2235TIP3    H228341   1.806   4.755   7.678  1.2908  1.5794  1.3425
 2236TIP3   OH228342   5.993   1.517   1.691 -0.2696 -0.3499  0.2238
 2236TIP3    H128343   5.998   1.599   1.642  3.1684 -1.4004 -1.5054
 2236TIP3    H228344   5.899   1.500   1.700 -1.0626  2.5463 -1.4362
 2237TIP3   OH228345   5.554   1.512   0.795  0.0661 -0.3968 -0.8387
 2237TIP3    H128346   5.563   1.417   0.806 -1.5642 -0.3283  2.1343
 2237TIP3    H228347   5.470   1.522   0.750  0.0803 -0.3602 -0.8569
 2238TIP3   OH228348   1.243   3.097   7.398 -0.6134  0.2184 -0.0516
 2238TIP3    H128349   1.160   3.140   7.376  0.0320  0.7156 -1.6902
 2238TIP3    H228350   1.273   3.060   7.315 -0.1425 -1.6667  0.9119
 2239TIP3   OH228351   3.426   1.678   7.134 -0.2111 -0.3593  0.1647
 2239TIP3    H128352   3.360   1.708   7.072  0.5267 -1.7458 -1.3536
 2239TIP3    H228353   3.427   1.745   7.203 -1.2809  1.0489 -1.1321
 2240TIP3   OH228354   3.915   2.445   8.176 -0.0205  0.9244  0.2744
 2240TIP3    H128355   3.961   2.361   8.170 -0.7288  0.3959  1.7897
 2240TIP3    H228356   3.876   2.457   8.090  1.1812  0.3510 -0.3747
 2241TIP3   OH228357   2.281   0.438   0.157 -0.5188  0.0146 -0.5649
 2241TIP3    H128358   2.242   0.424   0.244  0.5449 -0.0278 -0.0758
 2241TIP3    H228359   2.208   0.425   0.096 -1.4747  0.8565  0.3548
 2242TIP3   OH228360   3.724   4.887   1.159  0.5265  0.3412  0.1267
 2242TIP3    H128361   3.795   4.849   1.211  2.1515  1.7298 -0.9339
 2242TIP3    H228362   3.733   4.982   1.173  2.3087  0.9898 -3.9961
 2243TIP3   OH228363   4.715   3.965   8.576 -0.1512 -0.3916 -0.1465
 2243TIP3    H128364   4.751   3.886   8.617 -1.2230 -1.1636 -0.6760
 2243TIP3    H228365   4.725   3.951   8.482 -0.9665 -0.2004 -0.2678
 2244TIP3   OH228366   0.548   4.429   1.940  0.4820  0.2170  0.3396
 2244TIP3    H128367   0.480   4.392   1.885  1.7459  0.4194 -1.4561
 2244TIP3    H228368   0.524   4.521   1.951  1.4929  0.8449 -2.1147
 2245TIP3   OH228369   1.037   2.957   0.530 -0.2387  0.1370 -0.0514
 2245TIP3    H128370   1.075   2.872   0.509 -1.5122 -0.7404  1.0443
 2245TIP3    H228371   0.948   2.953   0.496 -1.2569 -0.0955  2.4352
 2246TIP3   OH228372   6.624   2.049   1.621 -0.4052 -0.8291 -0.1438
 2246TIP3    H128373   6.566   1.986   1.663  0.7028 -2.2867 -0.7350
 2246TIP3    H228374   6.667   2.000   1.551  1.0286  0.3696 -0.1515
 2247TIP3   OH228375   6.685   3.672   0.170 -0.9262 -0.5890 -0.3051
 2247TIP3    H128376   6.677   3.613   0.245 -1.0044 -1.5099 -1.0171
 2247TIP3    H228377   6.777   3.700   0.171 -0.7702 -1.0967 -0.2328
 2248TIP3   OH228378   6.695   5.029   6.575  0.2945 -0.1346  0.0077
 2248TIP3    H128379   6.757   5.067   6.513  0.9617 -2.9542 -1.2558
 2248TIP3    H228380   6.609   5.056   6.542  0.7364  2.0692  0.5348
 2249TIP3   OH228381   0.759   4.567   8.923  0.5055  0.1307  1.0627
 2249TIP3    H128382   0.819   4.572   8.849 -0.0453 -0.7840  0.5293
 2249TIP3    H228383   0.801   4.618   8.992  1.1300  0.8279  0.1918
 2250TIP3   OH228384   3.050   5.099   7.553  0.2892  0.1183  0.2173
 2250TIP3    H128385   2.972   5.044   7.563  1.3237 -1.1116  2.1799
 2250TIP3    H228386   3.041   5.165   7.622  0.8066  0.1895  0.2179
 2251TIP3   OH228387   5.716   1.279   1.419  0.2301 -0.0685  0.4591
 2251TIP3    H128388   5.698   1.309   1.330 -0.5279 -0.5101  0.4580
 2251TIP3    H228389   5.802   1.236   1.412 -0.2364 -0.9095 -0.2597
 2252TIP3   OH228390   0.078   5.417   8.017  0.6250  0.8761 -0.1383
 2252TIP3    H128391   0.162   5.421   7.971  1.8503 -1.5934  1.6789
 2252TIP3    H228392   0.081   5.335   8.065 -1.8400  1.8830  1.9423
 2253TIP3   OH228393   2.496   3.709   2.047 -0.2132  0.9131  0.1363
 2253TIP3    H128394   2.501   3.629   2.100 -0.8251  0.1539 -0.9100
 2253TIP3    H228395   2.495   3.780   2.111 -2.2462 -0.0047  1.2464
 2254TIP3   OH228396   0.272   4.839   0.487  0.1670  0.2667 -0.1669
 2254TIP3    H128397   0.218   4.801   0.418  0.0518  1.6959 -0.8988
 2254TIP3    H228398   0.209   4.870   0.552  0.0794  1.6163 -0.8561
 2255TIP3   OH228399   6.662   6.004   7.902  0.5614 -0.1014  0.1480
 2255TIP3    H128400   6.702   5.980   7.985  1.5205  0.5658 -0.1068
 2255TIP3    H228401   6.578   6.043   7.927  0.7494 -0.0881  0.7899
 2256TIP3   OH228402   6.189   5.654   6.908  0.2617 -0.1478 -0.2794
 2256TIP3    H128403   6.168   5.640   7.001  0.2833 -0.1401 -0.2731
 2256TIP3    H228404   6.228   5.742   6.906 -0.1738  0.0499 -0.3639
 2257TIP3   OH228405   2.084   4.026   1.549  0.3347 -0.5290 -0.1244
 2257TIP3    H128406   2.089   4.053   1.640  0.1894  3.7679 -1.1807
 2257TIP3    H228407   2.106   3.933   1.550  0.5720 -0.6043  4.1995
 2258TIP3   OH228408   4.956   2.589   6.364  0.0123  0.1014  0.0346
 2258TIP3    H128409   5.027   2.570   6.425 -0.8653 -0.8640  0.7894
 2258TIP3    H228410   4.876   2.564   6.410 -0.7596  0.3139 -1.1279
 2259TIP3   OH228411   3.237   1.576   1.557 -0.0532 -0.4977 -0.6497
 2259TIP3    H128412   3.286   1.495   1.572 -0.4931 -0.9553 -1.5797
 2259TIP3    H228413   3.154   1.562   1.601  0.0587 -0.3503 -0.3911
 2260TIP3   OH228414   4.181   6.728   1.221 -0.0369 -0.2750  0.3030
 2260TIP3    H128415   4.267   6.754   1.253 -0.2391 -0.2416  0.8366
 2260TIP3    H228416   4.156   6.653   1.275  0.0072 -0.8007 -0.3965
 2261TIP3   OH228417   4.518   3.403   6.842  0.0974 -0.1939 -0.1854
 2261TIP3    H128418   4.459   3.348   6.894 -0.2766  0.4171  0.0391
 2261TIP3    H228419   4.557   3.463   6.906  0.6812 -0.3383 -0.3956
 2262TIP3   OH228420   4.638   0.870   1.204 -0.0807  0.0480  0.0060
 2262TIP3    H128421   4.637   0.902   1.114 -3.1868 -2.4228 -1.0288
 2262TIP3    H228422   4.712   0.809   1.207  0.4456  0.6300 -0.6060
 2263TIP3   OH228423   5.197   6.062   0.446 -0.5859  0.1519 -0.2588
 2263TIP3    H128424   5.203   6.000   0.374 -0.2934 -0.4648  0.2846
 2263TIP3    H228425   5.249   6.137   0.417 -3.1945  1.3809 -2.1138
 2264TIP3   OH228426   5.325   2.308   1.545 -0.2005 -0.1361  0.2543
 2264TIP3    H128427   5.343   2.394   1.507 -0.9882 -0.0344  0.0991
 2264TIP3    H228428   5.398   2.253   1.517  0.4798  0.5617  0.6227
 2265TIP3   OH228429   5.227   1.527   7.355 -0.6874  0.1531  0.3825
 2265TIP3    H128430   5.197   1.440   7.330  0.7322 -0.1003 -0.6041
 2265TIP3    H228431   5.173   1.551   7.430 -0.2670 -2.1296  1.4995
 2266TIP3   OH228432   1.767   1.798   8.403  0.8344  0.2839  0.2276
 2266TIP3    H128433   1.752   1.737   8.476  1.0301 -0.2222 -0.1513
 2266TIP3    H228434   1.700   1.865   8.415  0.4441 -0.1435  0.5055
 2267TIP3   OH228435   0.508   4.044   7.468  0.1297  0.1105 -0.1771
 2267TIP3    H128436   0.416   4.018   7.478 -0.7428  2.2764 -1.7636
 2267TIP3    H228437   0.537   3.999   7.389  0.0772  0.3405 -0.3261
 2268TIP3   OH228438   2.273   3.179   6.484 -0.2781  0.0774  0.2179
 2268TIP3    H128439   2.271   3.135   6.399 -1.9700  0.1276  0.1923
 2268TIP3    H228440   2.197   3.144   6.530  0.0150  0.8415  1.3128
 2269TIP3   OH228441   4.368   4.984   6.783  0.8346  0.4050  0.0395
 2269TIP3    H128442   4.395   4.896   6.808  2.3722  0.9669  0.4982
 2269TIP3    H228443   4.359   4.980   6.688 -0.2539 -0.5280  0.1706
 2270TIP3   OH228444   2.035   4.545   1.828 -0.3196 -0.0895  0.9523
 2270TIP3    H128445   2.082   4.492   1.892 -1.4762 -0.9088  1.1539
 2270TIP3    H228446   1.989   4.482   1.774  1.6856  0.5004 -1.6196
 2271TIP3   OH228447   5.051   2.149   6.149  0.4679  0.1902  0.2319
 2271TIP3    H128448   5.088   2.149   6.060 -0.4380  1.5454 -0.1752
 2271TIP3    H228449   4.957   2.162   6.135  0.4826  1.8553  1.4179
 2272TIP3   OH228450   3.107   6.420   8.366  0.2789 -0.1345  0.5574
 2272TIP3    H128451   3.154   6.498   8.337  1.7720 -1.3308 -0.4013
 2272TIP3    H228452   3.021   6.427   8.324 -0.2933  1.8087  1.8804
 2273TIP3   OH228453   5.867   4.920   7.116  0.2583 -0.1582 -0.3438
 2273TIP3    H128454   5.788   4.949   7.071  0.2843 -0.2291 -0.4364
 2273TIP3    H228455   5.913   4.868   7.051 -0.1834 -1.0899  0.0706
 2274TIP3   OH228456   2.507   2.412   7.866 -0.1878 -0.0910  0.2485
 2274TIP3    H128457   2.505   2.501   7.902  1.9194  0.5806 -1.1062
 2274TIP3    H228458   2.577   2.414   7.801  1.5576 -3.3495  1.7753
 2275TIP3   OH228459   0.807   2.277   7.254 -0.2224 -0.6266 -0.6958
 2275TIP3    H128460   0.825   2.252   7.163  2.4074 -0.6443 -0.2330
 2275TIP3    H228461   0.804   2.372   7.253 -0.6941 -0.6380 -0.8558
 2276TIP3   OH228462   1.843   2.787   0.949 -0.6506 -0.7753 -0.5415
 2276TIP3    H128463   1.914   2.722   0.945 -0.0677 -0.1561 -0.3772
 2276TIP3    H228464   1.783   2.752   1.015 -0.1367 -0.9522 -0.1618
 2277TIP3   OH228465   2.192   2.657   0.501 -0.0546 -0.4277 -0.2652
 2277TIP3    H128466   2.209   2.590   0.567  0.6979  0.4335  0.4332
 2277TIP3    H228467   2.243   2.733   0.529 -1.0615  0.5283 -0.9213
 2278TIP3   OH228468   0.882   1.901   7.395 -0.2886  0.2330 -0.4377
 2278TIP3    H128469   0.925   1.815   7.395  0.5957  0.5091  3.1431
 2278TIP3    H228470   0.950   1.962   7.366  0.0797  0.0560  0.0419
 2279TIP3   OH228471   0.659   2.401   6.825 -0.3733 -0.1357 -0.1308
 2279TIP3    H128472   0.593   2.433   6.887 -0.9448 -1.9746  0.2697
 2279TIP3    H228473   0.608   2.359   6.756  0.3416 -1.5870  0.1827
 2280TIP3   OH228474   0.124   3.879   0.981 -0.0047  0.5278 -0.7091
 2280TIP3    H128475   0.120   3.798   0.929  1.4403 -0.0428  0.0049
 2280TIP3    H228476   0.176   3.855   1.058 -0.9451  1.7194  0.3345
 2281TIP3   OH228477   5.569   3.012   1.347 -0.1428 -0.3096 -0.5974
 2281TIP3    H128478   5.604   2.926   1.370 -0.3654 -0.0304  0.9358
 2281TIP3    H228479   5.573   3.062   1.429  2.9345  2.2344 -2.0870
 2282TIP3   OH228480   3.840   1.750   0.647 -0.7084  0.4199  0.7681
 2282TIP3    H128481   3.807   1.769   0.734  0.9657  1.1529  1.2820
 2282TIP3    H228482   3.915   1.810   0.636  0.4068 -1.1022 -0.3225
 2283TIP3   OH228483   1.991   5.736   7.351 -0.0457 -0.0641  0.3349
 2283TIP3    H128484   2.036   5.704   7.273 -2.6037  1.9920 -2.2261
 2283TIP3    H228485   1.934   5.664   7.377 -1.1938  0.1008 -1.5082
 2284TIP3   OH228486   0.422   4.614   1.008 -0.4290 -0.4005 -0.1004
 2284TIP3    H128487   0.354   4.567   0.960 -0.3862 -2.1816  1.4855
 2284TIP3    H228488   0.376   4.657   1.080 -0.2618  0.8151 -0.7037
 2285TIP3   OH228489   3.781   0.164   1.497 -0.1018 -0.1167  0.0255
 2285TIP3    H128490   3.780   0.215   1.578  1.1182 -0.4389  0.2721
 2285TIP3    H228491   3.693   0.127   1.491 -0.1735 -0.2117  1.2904
 2286TIP3   OH228492   1.258   6.438   1.978  0.1891 -0.1137  0.1077
 2286TIP3    H128493   1.173   6.440   2.021  0.2536 -1.3056  0.3404
 2286TIP3    H228494   1.314   6.390   2.039  1.2299  1.2594  0.2824
 2287TIP3   OH228495   5.304   0.567   6.671  0.1450  0.3246  0.0031
 2287TIP3    H128496   5.299   0.600   6.581 -0.2225  0.7736  0.1857
 2287TIP3    H228497   5.398   0.565   6.690  0.1896  0.9339 -0.1338
 2288TIP3   OH228498   6.081   2.308   2.001 -0.4836  0.5437  0.5543
 2288TIP3    H128499   6.059   2.231   2.053 -2.1881  0.1731 -0.6071
 2288TIP3    H228500   6.023   2.302   1.925 -0.6353  2.9586  0.4193
 2289TIP3   OH228501   5.617   1.963   0.402 -0.1512 -0.2881 -0.1678
 2289TIP3    H128502   5.599   1.939   0.311  1.8930 -2.0282 -0.1851
 2289TIP3    H228503   5.626   2.058   0.400  1.4804 -0.4178 -2.1374
 2290TIP3   OH228504   2.492   3.583   0.506  0.3588  0.0522 -0.4947
 2290TIP3    H128505   2.409   3.619   0.536  0.9154  1.0105 -0.0707
 2290TIP3    H228506   2.473   3.546   0.419 -0.2366  1.3632 -0.9368
 2291TIP3   OH228507   3.583   4.998   0.069  0.3460  0.5289  0.4656
 2291TIP3    H128508   3.601   4.984   0.162  1.1890  0.8910  0.3693
 2291TIP3    H228509   3.506   5.056   0.068  0.3556  0.5563  0.9342
 2292TIP3   OH228510   5.690   0.898   1.483  0.6784  0.3020  0.0614
 2292TIP3    H128511   5.737   0.901   1.399  0.8986 -0.4352  0.1481
 2292TIP3    H228512   5.597   0.896   1.458  0.7310  0.4323 -0.1523
 2293TIP3   OH228513   3.223   4.667   8.234 -0.3692  0.1520  0.2265
 2293TIP3    H128514   3.226   4.759   8.258  1.7059  0.5855 -1.4207
 2293TIP3    H228515   3.131   4.650   8.214 -0.7278  1.9556  0.2005
 2294TIP3   OH228516   5.959   1.558   1.179  0.9325 -0.2056 -0.5781
 2294TIP3    H128517   6.008   1.640   1.182  1.2537 -0.3745 -1.0852
 2294TIP3    H228518   5.887   1.571   1.241  0.7667  0.5942 -0.9194
 2295TIP3   OH228519   5.230   6.390   7.103  0.1214 -0.4312  0.0156
 2295TIP3    H128520   5.185   6.451   7.045  0.6411 -0.6162 -0.6018
 2295TIP3    H228521   5.295   6.348   7.047 -1.5248 -3.0415 -0.1287
 2296TIP3   OH228522   2.436   0.499   7.151  0.5023  0.6563  0.1847
 2296TIP3    H128523   2.468   0.472   7.065  1.5304  0.1647  0.6969
 2296TIP3    H228524   2.438   0.595   7.149 -0.6172  0.6672 -0.7389
 2297TIP3   OH228525   1.516   0.927   7.440 -0.0776  0.0057  0.1844
 2297TIP3    H128526   1.515   0.991   7.369 -0.9962  1.0032  1.0636
 2297TIP3    H228527   1.510   0.979   7.520 -2.8376 -1.2036  0.8760
 2298TIP3   OH228528   5.504   6.324   1.513  0.4693  0.0172  0.6288
 2298TIP3    H128529   5.565   6.303   1.442  0.9759  0.9024  0.7844
 2298TIP3    H228530   5.479   6.415   1.496  0.3410  0.1259  1.4019
 2299TIP3   OH228531   3.105   1.180   1.179 -0.0973  0.7546 -0.6530
 2299TIP3    H128532   3.015   1.190   1.150 -0.3519 -1.3213 -0.7255
 2299TIP3    H228533   3.109   1.225   1.264 -1.5021 -0.0379 -0.1416
 2300TIP3   OH228534   4.294   0.578   7.929 -0.0186  0.0273  0.7071
 2300TIP3    H128535   4.359   0.512   7.951 -0.4409 -0.4777  0.4620
 2300TIP3    H228536   4.269   0.558   7.839 -1.8188 -0.9085  1.3783
 2301TIP3   OH228537   0.466   6.762   0.813  0.2591  0.0070  0.1711
 2301TIP3    H128538   0.447   6.849   0.848  0.6232  0.5321 -0.8749
 2301TIP3    H228539   0.400   6.705   0.852 -0.3190  0.8548  0.4592
 2302TIP3   OH228540   3.803   0.556   8.274 -0.6696 -0.0178 -0.2113
 2302TIP3    H128541   3.802   0.535   8.180  0.2363 -0.7765 -0.0657
 2302TIP3    H228542   3.752   0.486   8.314 -1.1107  0.3425 -0.1360
 2303TIP3   OH228543   4.909   4.135   1.026  0.1061  0.0079 -0.1267
 2303TIP3    H128544   4.977   4.153   1.091 -1.7447  0.3546  1.8561
 2303TIP3    H228545   4.924   4.044   1.000  1.2064  0.0153  0.4214
 2304TIP3   OH228546   1.078   0.490   7.067 -0.2659  0.6452  0.2694
 2304TIP3    H128547   1.021   0.556   7.106  0.6424  0.8404  1.3262
 2304TIP3    H228548   1.133   0.461   7.139  1.5500  1.0823 -0.8860
 2305TIP3   OH228549   0.333   6.135   1.394 -0.1831  0.1723 -0.4119
 2305TIP3    H128550   0.415   6.175   1.366 -0.2312  0.2457 -0.4500
 2305TIP3    H228551   0.265   6.194   1.361 -0.2937 -0.4049 -1.2646
 2306TIP3   OH228552   2.777   0.104   8.470  0.4904 -0.1179 -0.3032
 2306TIP3    H128553   2.784   0.111   8.375 -2.3535 -0.1485 -0.5975
 2306TIP3    H228554   2.712   0.170   8.494 -1.1738 -2.1850  1.1933
 2307TIP3   OH228555   5.222   4.342   2.817 -0.0033 -0.6684 -0.0465
 2307TIP3    H128556   5.303   4.295   2.836  0.8005  0.9456  0.7400
 2307TIP3    H228557   5.215   4.408   2.886 -2.5956 -1.4369  0.5565
 2308TIP3   OH228558   6.719   2.415   7.489  0.5217  0.1051  0.1410
 2308TIP3    H128559   6.654   2.366   7.439  0.3076  0.5634 -0.0304
 2308TIP3    H228560   6.801   2.404   7.440  0.4071  0.1796 -0.0663
 2309TIP3   OH228561   5.181   2.681   7.413 -0.5806  0.1963 -0.2494
 2309TIP3    H128562   5.217   2.767   7.433 -0.8939 -0.1381  2.0080
 2309TIP3    H228563   5.098   2.678   7.461 -1.3753 -0.7901 -1.5966
 2310TIP3   OH228564   2.622   5.173   8.673  0.3628 -0.2352  0.1316
 2310TIP3    H128565   2.531   5.199   8.656  0.4920 -0.2316 -0.6193
 2310TIP3    H228566   2.633   5.092   8.623  0.9933  0.1900 -0.4430
 2311TIP3   OH228567   2.411   0.601   0.723  0.6222  0.1850  0.0173
 2311TIP3    H128568   2.327   0.590   0.769  0.2345  1.1101 -0.4299
 2311TIP3    H228569   2.427   0.516   0.683 -1.6283  0.7443 -2.3445
 2312TIP3   OH228570   6.284   1.251   6.492  0.6255  0.7919  0.1848
 2312TIP3    H128571   6.232   1.327   6.518 -0.9763  0.1055 -0.8464
 2312TIP3    H228572   6.347   1.239   6.563 -1.3817  0.9940  2.1001
 2313TIP3   OH228573   3.581   3.180   0.107 -0.5063  0.2001 -0.1686
 2313TIP3    H128574   3.540   3.216   0.029  0.3637 -0.2696 -0.8610
 2313TIP3    H228575   3.544   3.091   0.115 -0.0874 -0.0003 -0.4422
 2314TIP3   OH228576   6.500   4.785   2.547 -0.3756  0.2523  0.3799
 2314TIP3    H128577   6.467   4.817   2.630 -1.2990  0.1757  0.0505
 2314TIP3    H228578   6.595   4.799   2.551 -0.5350  1.1507  1.0389
 2315TIP3   OH228579   3.778   0.511   7.964  0.1902  0.0969  0.3928
 2315TIP3    H128580   3.871   0.515   7.986 -0.2006 -1.9098  2.9507
 2315TIP3    H228581   3.762   0.419   7.942 -1.2141  0.3805  0.1012
 2316TIP3   OH228582   4.248   1.696   6.833  0.1177 -0.1546  0.2375
 2316TIP3    H128583   4.243   1.791   6.818  0.0650 -0.1834  0.0716
 2316TIP3    H228584   4.260   1.659   6.746  2.8903 -0.1102  0.4893
 2317TIP3   OH228585   5.326   3.838   1.595  0.1079 -0.5611 -0.0046
 2317TIP3    H128586   5.381   3.759   1.601 -0.2865 -0.9349 -1.0823
 2317TIP3    H228587   5.255   3.822   1.658 -0.1454 -1.2211 -0.4438
 2318TIP3   OH228588   6.729   4.587   2.429  0.3850  0.2447 -0.1919
 2318TIP3    H128589   6.651   4.610   2.378  1.3997  0.7928 -1.5500
 2318TIP3    H228590   6.757   4.669   2.468  1.2126  0.4064 -1.0773
 2319TIP3   OH228591   2.483   1.816   1.046 -0.0007 -0.3364  0.3543
 2319TIP3    H128592   2.392   1.823   1.018 -0.0728  2.8324  0.9328
 2319TIP3    H228593   2.530   1.877   0.989  2.1580 -3.0001 -0.9676
 2320TIP3   OH228594   6.218   4.721   8.684  0.1672  0.0089 -0.5387
 2320TIP3    H128595   6.312   4.707   8.676  0.3291 -0.5367  1.7521
 2320TIP3    H228596   6.179   4.657   8.625  1.2091 -1.0167 -0.1532
 2321TIP3   OH228597   6.328   2.272   0.930 -0.5138 -0.2204  0.1223
 2321TIP3    H128598   6.306   2.364   0.913 -1.4981 -0.2056  1.2992
 2321TIP3    H228599   6.341   2.234   0.843  0.1394  1.0707 -0.3740
 2322TIP3   OH228600   1.770   6.532   8.487 -1.2472  0.2895  0.7170
 2322TIP3    H128601   1.768   6.595   8.559 -1.6392  0.5061  0.5177
 2322TIP3    H228602   1.740   6.581   8.410 -1.6038 -0.1500  0.5666
 2323TIP3   OH228603   0.537   2.171   8.896  0.3766  0.2987 -0.5661
 2323TIP3    H128604   0.523   2.133   8.983  0.3985  1.4275 -0.0463
 2323TIP3    H228605   0.632   2.183   8.891  0.6527 -1.8496 -1.6899
 2324TIP3   OH228606   4.352   0.249   1.569  0.4989  0.4345  0.7362
 2324TIP3    H128607   4.351   0.263   1.475  0.1415 -0.9707  0.5012
 2324TIP3    H228608   4.344   0.154   1.579  0.5318  0.5604  2.1791
 2325TIP3   OH228609   1.158   0.964   7.965  0.1107  0.2302  0.5766
 2325TIP3    H128610   1.068   0.991   7.950  0.1601  1.6315  2.3862
 2325TIP3    H228611   1.206   1.046   7.977  1.5437 -0.5081  0.0938
 2326TIP3   OH228612   0.728   2.440   1.952 -0.1691 -0.5282  0.2958
 2326TIP3    H128613   0.808   2.491   1.963 -1.1529  0.9851  0.7354
 2326TIP3    H228614   0.684   2.445   2.036 -0.3863 -2.0002  0.2982
 2327TIP3   OH228615   5.847   3.449   0.157  0.0358 -0.0701  0.4521
 2327TIP3    H128616   5.907   3.375   0.156  1.6816  1.0525  3.2301
 2327TIP3    H228617   5.881   3.509   0.090  1.0666 -0.1698  0.8682
 2328TIP3   OH228618   6.517   1.765   8.882  0.5314  0.4098  0.5519
 2328TIP3    H128619   6.610   1.782   8.895  0.7040 -0.8801  1.1229
 2328TIP3    H228620   6.479   1.771   8.970  0.4059 -0.8954  0.6022
 2329TIP3   OH228621   5.728   1.500   1.038  1.1029  0.1913  0.4112
 2329TIP3    H128622   5.748   1.438   0.968  1.2563 -1.2689  1.6928
 2329TIP3    H228623   5.814   1.530   1.068  1.0660  0.2903  0.4177
 2330TIP3   OH228624   5.436   1.915   0.593 -0.6793  0.0770  0.1663
 2330TIP3    H128625   5.509   1.859   0.620 -0.8099 -1.0682 -1.6284
 2330TIP3    H228626   5.463   1.949   0.507 -2.5202 -0.9960 -0.8937
 2331TIP3   OH228627   6.698   6.414   8.628 -0.3658  0.3907 -0.2905
 2331TIP3    H128628   6.720   6.371   8.546  0.7891 -1.3625  0.8542
 2331TIP3    H228629   6.783   6.433   8.669 -0.8953 -0.1832  1.1612
 2332TIP3   OH228630   4.618   0.939   0.929  0.0534 -0.2643  0.4905
 2332TIP3    H128631   4.536   0.982   0.906 -0.8659 -1.5465  1.1861
 2332TIP3    H228632   4.606   0.848   0.900  2.0659 -0.0466 -1.3011
 2333TIP3   OH228633   4.463   4.565   7.717 -0.5901 -0.3922  0.3249
 2333TIP3    H128634   4.509   4.483   7.734 -0.2074 -0.7154 -1.9703
 2333TIP3    H228635   4.457   4.570   7.621 -1.3631  1.8399  0.4313
 2334TIP3   OH228636   3.963   2.086   7.698  0.5245  0.0224 -0.5409
 2334TIP3    H128637   3.893   2.026   7.672  1.7398 -1.9177  0.3743
 2334TIP3    H228638   3.937   2.117   7.784  1.2378 -1.5882  0.3087
 2335TIP3   OH228639   2.856   3.572   1.146 -0.0985  0.2330  0.1320
 2335TIP3    H128640   2.860   3.489   1.194 -0.2101 -0.5883 -1.2169
 2335TIP3    H228641   2.925   3.564   1.080 -0.4806  0.9963 -0.3615
 2336TIP3   OH228642   0.244   6.255   8.478  0.3377 -0.0064 -0.1421
 2336TIP3    H128643   0.314   6.308   8.518  0.4736  0.4441 -0.9603
 2336TIP3    H228644   0.282   6.168   8.467  1.1029  0.4689 -1.4333
 2337TIP3   OH228645   5.997   6.224   7.573  0.2358  0.1858 -0.2775
 2337TIP3    H128646   5.967   6.303   7.528 -1.0127 -0.8331 -1.2948
 2337TIP3    H228647   6.060   6.184   7.513  0.3807  0.0716 -0.0522
 2338TIP3   OH228648   3.599   2.071   8.594  0.1447  0.7084  0.3293
 2338TIP3    H128649   3.652   2.017   8.653  0.8254  0.7827 -0.1909
 2338TIP3    H228650   3.599   2.023   8.511 -0.6110  0.7149  0.3201
 2339TIP3   OH228651   6.266   6.787   0.513 -0.4587 -0.5469  0.4932
 2339TIP3    H128652   6.212   6.864   0.531 -1.9433 -1.6240  0.8577
 2339TIP3    H228653   6.259   6.733   0.592  0.5792 -1.0426  0.2643
 2340TIP3   OH228654   1.962   4.200   8.082  0.5142 -0.4285  0.2263
 2340TIP3    H128655   1.911   4.181   8.003  2.3552 -0.0778 -1.1115
 2340TIP3    H228656   2.010   4.279   8.060  1.1723 -0.4106  1.6695
 2341TIP3   OH228657   5.079   6.574   7.524 -0.3228  0.4100  0.2080
 2341TIP3    H128658   5.126   6.517   7.464  1.3118  0.3499  1.4732
 2341TIP3    H228659   4.990   6.537   7.527  0.5261 -1.7504  0.5415
 2342TIP3   OH228660   2.982   2.174   7.424 -0.0259  0.1437  0.1611
 2342TIP3    H128661   3.063   2.212   7.458 -1.1100  0.5496  2.4981
 2342TIP3    H228662   2.981   2.085   7.459 -0.4544  0.0441 -0.0993
 2343TIP3   OH228663   5.433   1.009   8.900  0.1243 -0.5332 -0.1448
 2343TIP3    H128664   5.457   0.918   8.918  1.7826 -0.0017  0.5795
 2343TIP3    H228665   5.465   1.025   8.811  0.4642 -0.4766 -0.0162
 2344TIP3   OH228666   5.554   5.295   2.106  0.6267 -0.2781  0.2917
 2344TIP3    H128667   5.607   5.224   2.141  0.5785 -0.2708  0.3812
 2344TIP3    H228668   5.476   5.252   2.071  1.4634 -0.4852 -1.4350
 2345TIP3   OH228669   5.037   0.700   0.729  0.1470 -0.1542 -0.4652
 2345TIP3    H128670   5.008   0.759   0.798  0.8888  0.5681 -0.7612
 2345TIP3    H228671   4.967   0.634   0.723  0.4106 -0.6584  1.4715
 2346TIP3   OH228672   2.700   2.663   7.599 -0.0495 -0.8448  0.1873
 2346TIP3    H128673   2.616   2.701   7.622  0.5481  0.4148  0.3434
 2346TIP3    H228674   2.756   2.679   7.675  0.8175 -0.1100 -0.5721
 2347TIP3   OH228675   3.382   5.816   7.239 -0.1887 -0.4426 -0.3197
 2347TIP3    H128676   3.344   5.903   7.252  0.5860 -0.2619  0.8312
 2347TIP3    H228677   3.419   5.819   7.151 -0.2074  0.3750 -0.3080
 2348TIP3   OH228678   2.741   0.291   1.234 -0.8483  0.7522  0.0805
 2348TIP3    H128679   2.782   0.218   1.280 -2.6025 -0.9683 -0.9115
 2348TIP3    H228680   2.807   0.360   1.235  0.4733 -0.4284  2.0479
 2349TIP3   OH228681   2.697   2.177   8.229 -0.0831  0.0240  0.5484
 2349TIP3    H128682   2.692   2.133   8.314  0.8138  0.1962  0.6945
 2349TIP3    H228683   2.733   2.263   8.249  0.5953 -0.1082 -0.0682
 2350TIP3   OH228684   1.656   5.013   7.160 -0.2471  0.0394 -0.3465
 2350TIP3    H128685   1.628   5.006   7.251  0.8311  0.6242  0.0558
 2350TIP3    H228686   1.706   5.095   7.156  0.2258 -0.2729 -1.3235
 2351TIP3   OH228687   5.865   1.912   8.398 -0.6195 -0.0365  0.4765
 2351TIP3    H128688   5.877   1.853   8.473 -0.6709  1.1024  1.4138
 2351TIP3    H228689   5.792   1.875   8.349 -0.2221 -1.1145  0.6650
 2352TIP3   OH228690   6.633   4.947   7.483  0.2114  0.2498  0.6229
 2352TIP3    H128691   6.598   4.958   7.571  0.2847 -0.0908  0.6964
 2352TIP3    H228692   6.658   5.035   7.456  0.7151  0.2735  1.1612
 2353TIP3   OH228693   4.556   0.552   0.692  0.2556  0.4473  0.0549
 2353TIP3    H128694   4.540   0.621   0.627  1.7970 -0.4322 -1.3104
 2353TIP3    H228695   4.640   0.574   0.731 -0.6201  0.9308  1.7916
 2354TIP3   OH228696   3.104   3.189   0.102  0.2160  0.1690 -0.0714
 2354TIP3    H128697   3.156   3.217   0.178 -0.0770  1.2558 -0.2442
 2354TIP3    H228698   3.035   3.134   0.139 -0.5133  1.4871  0.6043
 2355TIP3   OH228699   5.127   0.819   8.072 -0.0841  0.6441  0.0488
 2355TIP3    H128700   5.150   0.732   8.103  0.0388  0.5650 -0.2574
 2355TIP3    H228701   5.195   0.840   8.007  0.0155  1.0588  0.2834
 2356TIP3   OH228702   6.146   1.207   0.617  0.5160 -0.2067  0.1578
 2356TIP3    H128703   6.073   1.148   0.595  0.9367 -0.2974 -1.0645
 2356TIP3    H228704   6.171   1.181   0.706 -2.0455  0.9916  1.3209
 2357TIP3   OH228705   4.664   6.359   6.804 -0.1618 -0.2678 -0.0992
 2357TIP3    H128706   4.617   6.321   6.730  0.9874  0.1502 -1.0726
 2357TIP3    H228707   4.742   6.304   6.814  0.4646  0.5760 -0.1984
 2358TIP3   OH228708   5.877   1.107   8.780  0.1655  0.2701  0.2557
 2358TIP3    H128709   5.895   1.187   8.730  0.0298  0.3704  0.3653
 2358TIP3    H228710   5.813   1.059   8.728  1.2034 -0.3871 -0.4394
 2359TIP3   OH228711   2.299   6.342   1.662 -0.1746 -0.8002 -0.1793
 2359TIP3    H128712   2.246   6.367   1.586  0.4693 -0.4663 -0.5364
 2359TIP3    H228713   2.295   6.418   1.720 -1.2739 -1.3418  0.4772
 2360TIP3   OH228714   1.891   5.864   8.216 -0.0891  0.4087  0.0292
 2360TIP3    H128715   1.883   5.818   8.299 -0.7871  0.8148  0.1969
 2360TIP3    H228716   1.808   5.847   8.171 -0.7302  2.1509  0.4497
 2361TIP3   OH228717   0.348   2.954   1.659 -0.4833  0.3619 -0.4142
 2361TIP3    H128718   0.275   2.892   1.656 -0.1313 -0.0389 -1.4144
 2361TIP3    H228719   0.426   2.898   1.658 -0.1490  0.7705  1.0786
 2362TIP3   OH228720   6.639   3.661   1.133 -0.3091 -0.3413 -0.0019
 2362TIP3    H128721   6.565   3.646   1.193 -1.1899 -1.8100 -1.3730
 2362TIP3    H228722   6.615   3.741   1.086  0.0148  0.3744  0.9974
 2363TIP3   OH228723   2.874   5.870   8.250  0.1463  0.6195 -0.2418
 2363TIP3    H128724   2.962   5.851   8.217 -0.5612 -1.4806 -1.1425
 2363TIP3    H228725   2.873   5.964   8.265  2.0238  0.9598 -1.8275
 2364TIP3   OH228726   3.156   0.268   1.209 -0.5217 -0.3387  0.1536
 2364TIP3    H128727   3.092   0.310   1.152 -0.6615  0.1882  0.6908
 2364TIP3    H228728   3.133   0.175   1.207 -0.2211 -0.4028 -1.0292
 2365TIP3   OH228729   2.600   3.224   7.593 -0.0250  0.4702  0.4812
 2365TIP3    H128730   2.674   3.274   7.559  0.4993  0.5724  1.7322
 2365TIP3    H228731   2.596   3.247   7.686 -0.3197 -1.1397  0.8960
 2366TIP3   OH228732   3.802   4.470   7.981  0.0356  0.4165 -0.3404
 2366TIP3    H128733   3.848   4.543   7.940 -0.3988  0.4348 -0.8018
 2366TIP3    H228734   3.811   4.486   8.075  0.5233  0.6947 -0.4307
 2367TIP3   OH228735   1.032   5.276   1.096  0.3669  0.3905 -0.5735
 2367TIP3    H128736   1.088   5.209   1.058  1.5792  0.2262  1.3622
 2367TIP3    H228737   1.090   5.326   1.154 -1.3336  0.5970  1.0543
 2368TIP3   OH228738   6.516   5.715   8.039 -0.0656  0.0493  0.0555
 2368TIP3    H128739   6.469   5.799   8.039  0.3231  0.2928 -1.1822
 2368TIP3    H228740   6.529   5.694   8.131  0.6785  1.8418  0.3966
 2369TIP3   OH228741   6.706   1.150   8.239 -0.4140  0.4831  0.0609
 2369TIP3    H128742   6.712   1.219   8.173  0.9241 -0.4360 -0.8362
 2369TIP3    H228743   6.735   1.192   8.320  0.3157  1.0139 -0.4562
 2370TIP3   OH228744   6.251   1.460   0.900  0.1681 -0.2234 -0.6578
 2370TIP3    H128745   6.220   1.370   0.900  0.7540 -0.4278 -1.5619
 2370TIP3    H228746   6.171   1.513   0.899 -0.1801 -0.7132  0.0567
 2371TIP3   OH228747   3.045   1.900   7.252  0.2306  0.0773 -0.2652
 2371TIP3    H128748   3.101   1.877   7.178  0.0603  0.0107 -0.3722
 2371TIP3    H228749   3.080   1.849   7.325 -0.5549 -1.0397 -0.6513
 2372TIP3   OH228750   1.919   6.171   0.541  0.0397  0.1446  0.2696
 2372TIP3    H128751   1.986   6.105   0.522  0.5577  0.1334  2.0058
 2372TIP3    H228752   1.909   6.219   0.458  1.7533 -0.2408 -0.2065
 2373TIP3   OH228753   3.816   2.938   7.687  0.2891  0.2766 -0.1393
 2373TIP3    H128754   3.897   2.990   7.686  1.2810 -1.1996 -1.9876
 2373TIP3    H228755   3.761   2.978   7.620  0.3585 -0.0067 -0.3668
 2374TIP3   OH228756   1.852   6.190   7.647 -0.1692  0.2171  0.4992
 2374TIP3    H128757   1.836   6.181   7.742 -0.1942  0.3574  0.5086
 2374TIP3    H228758   1.882   6.104   7.620 -1.0876 -0.1016  0.4594
 2375TIP3   OH228759   1.443   0.879   0.848  0.3397  0.3919  0.2705
 2375TIP3    H128760   1.455   0.965   0.888  0.9115  0.3127  0.2821
 2375TIP3    H228761   1.351   0.876   0.823  0.0164  0.5136  1.4198
 2376TIP3   OH228762   2.876   3.325   1.281 -0.6456  0.0679 -1.0070
 2376TIP3    H128763   2.784   3.301   1.294 -0.5208 -0.6493 -1.3810
 2376TIP3    H228764   2.918   3.305   1.365 -0.8314  0.4235 -0.8261
 2377TIP3   OH228765   6.454   5.924   6.374 -0.4769  0.3962 -0.1594
 2377TIP3    H128766   6.547   5.942   6.386 -0.6400 -0.1065  2.2941
 2377TIP3    H228767   6.447   5.828   6.376 -1.0885  0.4401 -0.0363
 2378TIP3   OH228768   6.237   3.750   8.871  0.1840 -0.1953 -0.2802
 2378TIP3    H128769   6.195   3.835   8.872 -0.8371 -0.6879  0.2932
 2378TIP3    H228770   6.318   3.762   8.921 -0.7039  0.0838  1.1337
 2379TIP3   OH228771   5.435   0.655   8.489 -0.2267  0.0849 -0.2775
 2379TIP3    H128772   5.407   0.564   8.476 -0.3773 -0.0472  0.8116
 2379TIP3    H228773   5.478   0.654   8.575 -1.9772  1.4024  0.6775
 2380TIP3   OH228774   2.771   1.393   6.384 -0.1626  0.5329 -0.2911
 2380TIP3    H128775   2.837   1.368   6.319 -0.8626  2.4872 -1.8523
 2380TIP3    H228776   2.750   1.484   6.363 -1.4007  0.8156  1.8779
 2381TIP3   OH228777   2.775   2.144   7.772 -0.2606  0.0120 -0.2570
 2381TIP3    H128778   2.817   2.142   7.857 -0.2981  0.2689 -0.2300
 2381TIP3    H228779   2.727   2.227   7.771 -1.6587 -0.7531  0.1366
 2382TIP3   OH228780   2.838   5.492   0.661  0.6418  0.3893 -0.2481
 2382TIP3    H128781   2.880   5.557   0.718 -0.2181 -1.2268  2.4029
 2382TIP3    H228782   2.784   5.544   0.602  0.6163  2.1684  1.2364
 2383TIP3   OH228783   5.687   6.337   1.707 -0.1003  0.4693 -0.1766
 2383TIP3    H128784   5.630   6.324   1.631 -0.9601  1.8897  0.1869
 2383TIP3    H228785   5.628   6.362   1.777  0.6620 -0.9876  1.0492
 2384TIP3   OH228786   4.407   3.167   0.382 -0.3041  0.2525 -0.2789
 2384TIP3    H128787   4.466   3.165   0.306 -1.8474  0.3837 -1.5302
 2384TIP3    H228788   4.430   3.248   0.428 -0.6215  1.1967 -1.7159
 2385TIP3   OH228789   0.794   2.558   7.242  0.2194 -0.6190  0.4278
 2385TIP3    H128790   0.701   2.573   7.258  0.0417  1.2274 -1.6873
 2385TIP3    H228791   0.807   2.586   7.151  2.7518 -1.2676  0.5137
 2386TIP3   OH228792   1.264   0.066   7.574 -1.0314 -0.2342 -0.0013
 2386TIP3    H128793   1.348   0.062   7.527 -1.3646  0.3519 -0.6768
 2386TIP3    H228794   1.289   0.064   7.666 -0.3766 -1.7061 -0.1770
 2387TIP3   OH228795   0.504   6.294   1.228 -0.0237 -0.3766  0.0502
 2387TIP3    H128796   0.483   6.220   1.171 -1.6541  1.4141 -1.8362
 2387TIP3    H228797   0.587   6.270   1.268  0.3095 -2.5305 -1.7154
 2388TIP3   OH228798   0.401   0.172   8.260 -0.3473  0.6263 -0.6153
 2388TIP3    H128799   0.446   0.190   8.177  0.0819 -0.0180 -0.5259
 2388TIP3    H228800   0.395   0.077   8.264  1.1173  0.5702  0.8687
 2389TIP3   OH228801   6.591   1.880   7.265  0.6432 -0.3040 -0.3748
 2389TIP3    H128802   6.533   1.905   7.337 -1.0422  0.3796 -1.9176
 2389TIP3    H228803   6.620   1.792   7.287 -0.5558 -0.4519  0.7058
 2390TIP3   OH228804   2.442   0.369   0.546  0.0002  0.4224  0.1787
 2390TIP3    H128805   2.361   0.362   0.495 -0.7337 -0.5405  1.4099
 2390TIP3    H228806   2.468   0.278   0.561  1.2562  0.7281 -0.1061
 2391TIP3   OH228807   4.258   2.601   8.768 -0.4303  0.2707  0.6490
 2391TIP3    H128808   4.195   2.627   8.836 -1.6339 -2.3870  0.6657
 2391TIP3    H228809   4.204   2.591   8.689  0.6998  1.8106 -0.3763
 2392TIP3   OH228810   0.275   3.711   1.468  0.3550  0.3997  0.3846
 2392TIP3    H128811   0.305   3.625   1.438 -1.0481  0.4590 -1.3841
 2392TIP3    H228812   0.264   3.701   1.562 -0.2394 -1.5318  0.1591
 2393TIP3   OH228813   1.351   1.829   0.531 -0.4031 -0.0873 -0.8216
 2393TIP3    H128814   1.358   1.780   0.449 -1.5567  1.6491 -2.0216
 2393TIP3    H228815   1.272   1.794   0.573 -0.8931  0.3022 -1.3935
 2394TIP3   OH228816   2.350   5.915   0.737 -0.0501 -0.1836  0.3835
 2394TIP3    H128817   2.361   6.010   0.745 -0.7525 -0.0755  0.1196
 2394TIP3    H228818   2.275   5.895   0.792 -2.8266  0.0911 -2.9742
 2395TIP3   OH228819   1.301   0.153   7.867  0.2464  0.1278  0.7801
 2395TIP3    H128820   1.262   0.081   7.917 -1.8020  1.8326  1.7845
 2395TIP3    H228821   1.228   0.212   7.848  1.3513  0.7120 -2.3173
 2396TIP3   OH228822   1.958   2.214   8.887 -0.3687  0.3316  0.0139
 2396TIP3    H128823   2.047   2.229   8.919 -1.0273  1.2206  1.5779
 2396TIP3    H228824   1.953   2.265   8.807 -0.2268  2.5248  1.3073
 2397TIP3   OH228825   2.921   5.291   1.306 -0.2407 -0.0024  0.1329
 2397TIP3    H128826   2.976   5.227   1.260  1.6948  1.0307  0.8993
 2397TIP3    H228827   2.876   5.240   1.373  0.5970 -0.7239  0.1665
 2398TIP3   OH228828   3.993   3.086   8.177 -0.5857 -0.5722 -0.7084
 2398TIP3    H128829   4.006   3.032   8.099  1.2889  1.1452 -1.6784
 2398TIP3    H228830   4.079   3.090   8.218 -1.2546 -0.3303  0.7166
 2399TIP3   OH228831   3.675   2.050   7.795 -0.1134  0.3289  0.2089
 2399TIP3    H128832   3.726   1.981   7.838 -0.3935  0.1471  0.2527
 2399TIP3    H228833   3.610   2.076   7.860  0.0309  0.6784  0.2118
 2400TIP3   OH228834   3.912   4.718   7.282  0.5362 -0.0348 -0.6181
 2400TIP3    H128835   3.858   4.795   7.300  0.6252 -0.3508  1.2425
 2400TIP3    H228836   3.886   4.690   7.195 -1.3698  0.6003 -0.3066
 2401TIP3   OH228837   1.536   1.894   8.224  0.4293  0.0163 -0.2627
 2401TIP3    H128838   1.532   1.932   8.137  0.2093  0.3997 -0.0891
 2401TIP3    H228839   1.586   1.957   8.276 -0.8573  0.6231  0.2896
 2402TIP3   OH228840   5.379   1.416   7.720  0.3422  0.6250  0.4328
 2402TIP3    H128841   5.455   1.395   7.666  1.0262  1.8015  0.9140
 2402TIP3    H228842   5.306   1.373   7.676  1.3019 -0.7086  0.0799
 2403TIP3   OH228843   4.274   3.335   7.029  0.7400 -0.0723 -0.3825
 2403TIP3    H128844   4.215   3.364   6.959  0.4470  0.8170  0.2259
 2403TIP3    H228845   4.233   3.364   7.110  1.1240 -1.0145  0.1748
 2404TIP3   OH228846   2.706   6.753   0.248  0.3146 -0.0585  0.4805
 2404TIP3    H128847   2.695   6.660   0.270  1.5101 -0.3513 -0.0925
 2404TIP3    H228848   2.702   6.756   0.153  2.7488  0.0975  0.3324
 2405TIP3   OH228849   6.616   2.843   7.798  0.3372 -0.4332  0.4081
 2405TIP3    H128850   6.698   2.891   7.789  0.6220 -0.7754  1.0580
 2405TIP3    H228851   6.548   2.910   7.796  0.6213 -0.1681 -0.3294
 2406TIP3   OH228852   2.087   5.085   8.029  0.0359  0.5261  0.0269
 2406TIP3    H128853   2.094   5.111   7.937 -1.0037 -0.0982 -0.2449
 2406TIP3    H228854   2.138   5.004   8.035 -1.1190 -0.2619 -0.3709
 2407TIP3   OH228855   5.829   2.987   8.644  0.4467  0.4786 -0.3013
 2407TIP3    H128856   5.922   3.006   8.654  1.0937 -1.8064 -1.3071
 2407TIP3    H228857   5.798   2.967   8.733  1.0679  0.6683 -0.0415
 2408TIP3   OH228858   0.856   2.277   6.978 -0.2725  0.0087 -0.3708
 2408TIP3    H128859   0.811   2.345   6.928 -0.6909  0.0834  0.0952
 2408TIP3    H228860   0.943   2.312   6.994 -0.3056  0.1986 -0.6055
 2409TIP3   OH228861   6.756   0.973   1.391  0.2466 -0.2060  0.0547
 2409TIP3    H128862   6.840   1.015   1.372  0.8431 -1.4342 -0.1146
 2409TIP3    H228863   6.718   0.957   1.305 -1.6062  3.0207  0.1129
 2410TIP3   OH228864   2.228   3.299   0.915 -0.2138 -0.6108  0.2481
 2410TIP3    H128865   2.282   3.238   0.866 -0.6150 -0.8149  0.0527
 2410TIP3    H228866   2.255   3.385   0.884 -0.7674 -0.7491 -0.6712
 2411TIP3   OH228867   1.675   5.003   8.425 -0.4254 -0.5553  0.0352
 2411TIP3    H128868   1.687   4.911   8.450  1.2541  0.0238  1.6370
 2411TIP3    H228869   1.746   5.020   8.363  0.3080  0.0501  1.0115
 2412TIP3   OH228870   3.902   4.711   7.822  0.1322  0.3256 -0.1012
 2412TIP3    H128871   3.992   4.742   7.822  0.1561  0.2544 -0.4489
 2412TIP3    H228872   3.881   4.696   7.730 -0.0755 -0.1185  0.0134
 2413TIP3   OH228873   3.194   4.657   0.097  0.0640 -0.0684  0.3425
 2413TIP3    H128874   3.249   4.733   0.115  0.7324 -0.6833  0.9580
 2413TIP3    H228875   3.128   4.689   0.035 -0.7864  1.4793  1.9626
 2414TIP3   OH228876   1.566   2.584   8.683 -0.4122  0.2715  0.2166
 2414TIP3    H128877   1.616   2.653   8.640 -0.6002  0.2414 -0.0531
 2414TIP3    H228878   1.563   2.610   8.775 -1.1596  1.0401 -0.0126
 2415TIP3   OH228879   3.771   4.480   0.189  0.8023 -0.0128 -0.2867
 2415TIP3    H128880   3.719   4.499   0.267  0.3715 -0.8874 -0.3452
 2415TIP3    H228881   3.858   4.513   0.209  0.1236  2.0200 -0.3988
 2416TIP3   OH228882   5.144   5.122   0.433  0.7395 -0.1711  0.0138
 2416TIP3    H128883   5.078   5.098   0.368  0.3691  1.4021 -0.2284
 2416TIP3    H228884   5.101   5.106   0.517  0.1574  0.5384 -0.1424
 2417TIP3   OH228885   5.940   0.468   1.033  1.0254  0.5198 -0.8008
 2417TIP3    H128886   5.963   0.508   1.116 -0.5871 -0.0102 -0.0609
 2417TIP3    H228887   6.004   0.503   0.971  2.7149  0.3782  0.7638
 2418TIP3   OH228888   4.091   1.450   2.361  0.1110 -0.1795 -0.0959
 2418TIP3    H128889   4.026   1.380   2.366 -1.9127  1.6148  0.6900
 2418TIP3    H228890   4.175   1.408   2.378 -0.9182 -2.5022 -0.4672
 2419TIP3   OH228891   0.272   5.757   0.731  0.1332 -0.3843 -0.2908
 2419TIP3    H128892   0.210   5.759   0.659 -0.2948 -0.1713  0.0764
 2419TIP3    H228893   0.332   5.830   0.713 -0.7929  0.5592  0.2657
 2420TIP3   OH228894   5.733   1.780   0.786  0.1059  0.7259  0.6124
 2420TIP3    H128895   5.755   1.847   0.850  0.5634  0.0839  1.1440
 2420TIP3    H228896   5.670   1.724   0.831  0.3524  0.3279  0.4663
 2421TIP3   OH228897   2.492   6.407   6.303  0.4588  0.2850 -0.0846
 2421TIP3    H128898   2.412   6.362   6.275  0.0039  0.6496  0.6135
 2421TIP3    H228899   2.521   6.359   6.380  1.7973 -0.8113 -1.2174
 2422TIP3   OH228900   4.334   6.770   1.611 -0.3606  0.2879  0.0886
 2422TIP3    H128901   4.416   6.766   1.661 -0.3013 -0.5346 -0.0623
 2422TIP3    H228902   4.321   6.680   1.580 -1.2123  0.4605 -0.0638
 2423TIP3   OH228903   0.074   2.811   7.358  0.0765  0.1219  0.1005
 2423TIP3    H128904   0.169   2.807   7.351  0.1550  0.3488  1.0037
 2423TIP3    H228905   0.043   2.773   7.275  0.9439  0.8529 -0.5810
 2424TIP3   OH228906   1.713   5.792   7.159  0.2394  0.0608 -0.1391
 2424TIP3    H128907   1.696   5.698   7.173 -3.9390  0.6307 -0.1119
 2424TIP3    H228908   1.699   5.831   7.245 -4.1193  1.1934 -1.1114
 2425TIP3   OH228909   1.739   3.424   2.016  0.0148 -1.0508 -0.3993
 2425TIP3    H128910   1.685   3.491   1.975 -0.3339 -2.1592 -1.8488
 2425TIP3    H228911   1.798   3.472   2.074 -1.3175  0.3307 -0.1382
 2426TIP3   OH228912   1.204   4.413   1.671 -0.4982 -0.1723 -0.2374
 2426TIP3    H128913   1.275   4.386   1.728 -0.8281  1.1728  0.8845
 2426TIP3    H228914   1.201   4.509   1.680 -2.4387 -0.1781 -0.2006
 2427TIP3   OH228915   1.522   6.182   7.011  0.2241 -0.5551 -0.8754
 2427TIP3    H128916   1.527   6.192   6.916  3.0375  0.6715 -0.6941
 2427TIP3    H228917   1.482   6.264   7.042 -1.4269 -1.2750 -0.9816
 2428TIP3   OH228918   5.785   4.931   1.606 -0.2515 -0.1546 -0.3290
 2428TIP3    H128919   5.846   4.926   1.680 -0.1348  3.0799 -0.0716
 2428TIP3    H228920   5.702   4.959   1.645 -0.2733  1.2732 -1.3380
 2429TIP3   OH228921   2.155   5.440   8.230 -0.1849 -0.2438 -0.2084
 2429TIP3    H128922   2.203   5.522   8.237  0.1327 -0.3952 -0.5393
 2429TIP3    H228923   2.193   5.396   8.153 -0.4355 -0.6397 -0.1123
 2430TIP3   OH228924   4.189   3.506   1.517  0.2552 -0.2207 -0.3876
 2430TIP3    H128925   4.247   3.499   1.441  0.9951  0.4520  0.1058
 2430TIP3    H228926   4.198   3.596   1.547 -1.0292 -0.1094 -0.2701
 2431TIP3   OH228927   5.079   6.552   8.464  0.1184 -0.1397  0.0293
 2431TIP3    H128928   5.149   6.502   8.507  0.3760 -1.0402 -1.3662
 2431TIP3    H228929   5.000   6.500   8.478 -0.0998  0.3887  0.7828
 2432TIP3   OH228930   3.378   5.186   6.765  0.1841  0.5752  0.1634
 2432TIP3    H128931   3.292   5.161   6.732 -0.0922 -0.0661  1.3000
 2432TIP3    H228932   3.402   5.263   6.714 -0.9374  0.5968 -0.3656
 2433TIP3   OH228933   0.575   4.663   2.475 -0.0145  0.0827  0.0485
 2433TIP3    H128934   0.555   4.735   2.416  2.3650  0.4006 -0.4865
 2433TIP3    H228935   0.514   4.593   2.451 -1.8736  1.6385  0.0879
 2434TIP3   OH228936   6.507   2.221   8.367 -0.2305 -0.1982  0.4666
 2434TIP3    H128937   6.519   2.128   8.348 -0.8276 -0.1954  0.0622
 2434TIP3    H228938   6.497   2.262   8.281 -0.1987  0.2058  0.6548
 2435TIP3   OH228939   5.029   1.152   0.714  0.4212  0.4735 -0.1078
 2435TIP3    H128940   5.098   1.184   0.772  0.9537 -0.2913 -0.2956
 2435TIP3    H228941   5.069   1.077   0.670 -1.2238 -1.4599  1.4654
 2436TIP3   OH228942   4.131   6.379   0.534 -0.0300  0.0472 -0.3474
 2436TIP3    H128943   4.086   6.461   0.550  0.0093 -0.2794  1.7119
 2436TIP3    H228944   4.127   6.367   0.439 -0.3035  2.2439 -0.6491
 2437TIP3   OH228945   3.815   3.261   7.982 -0.2050 -0.5152 -0.6030
 2437TIP3    H128946   3.892   3.295   7.936 -0.5772  2.3305  0.6128
 2437TIP3    H228947   3.759   3.225   7.914  1.2950 -0.7296 -1.7630
 2438TIP3   OH228948   2.073   6.360   7.695  0.0537  0.1972 -0.1803
 2438TIP3    H128949   2.105   6.308   7.769  0.6565 -1.7312 -1.7116
 2438TIP3    H228950   2.012   6.303   7.650 -0.3016  1.3318 -1.1894
 2439TIP3   OH228951   2.060   1.952   8.398 -0.1380 -0.1994 -0.0136
 2439TIP3    H128952   2.082   1.915   8.484  0.5469  0.4414  0.0926
 2439TIP3    H228953   1.977   1.910   8.375 -0.7738  0.2662  1.3499
 2440TIP3   OH228954   5.420   2.963   6.898  0.1664 -0.2170  1.0929
 2440TIP3    H128955   5.483   3.034   6.885 -1.3634  1.0151 -0.1152
 2440TIP3    H228956   5.343   3.007   6.936 -1.2811 -0.9170 -0.8317
 2441TIP3   OH228957   3.029   0.452   8.527 -0.8817  0.3262 -0.8147
 2441TIP3    H128958   3.109   0.505   8.522 -0.4379 -0.3596 -1.1345
 2441TIP3    H228959   2.967   0.497   8.469 -0.6383  0.6991 -0.7912
 2442TIP3   OH228960   3.295   3.647   7.157 -0.0734  0.0154 -0.0742
 2442TIP3    H128961   3.212   3.601   7.172  0.4882 -0.9909  0.0120
 2442TIP3    H228962   3.279   3.735   7.191 -0.6858 -0.5477  1.1817
 2443TIP3   OH228963   6.125   5.460   7.870 -0.0493  0.2640 -0.2072
 2443TIP3    H128964   6.169   5.487   7.951  2.4924  1.0648 -1.7318
 2443TIP3    H228965   6.152   5.526   7.805 -2.6368  0.1135 -1.5742
 2444TIP3   OH228966   1.486   6.138   1.513 -0.1987  0.4506 -0.3546
 2444TIP3    H128967   1.411   6.080   1.503  0.8540 -0.9957 -0.2119
 2444TIP3    H228968   1.532   6.104   1.590  0.2757  1.6853 -0.0826
 2445TIP3   OH228969   6.701   6.613   8.358 -0.3014 -0.1122  0.1745
 2445TIP3    H128970   6.624   6.562   8.334 -0.0124 -0.2217 -0.5506
 2445TIP3    H228971   6.721   6.666   8.280 -0.5300  1.0380  0.8765
 2446TIP3   OH228972   5.031   5.760   1.923  0.7399 -0.4945 -0.0060
 2446TIP3    H128973   5.015   5.710   2.003 -1.4193  0.6144  0.3371
 2446TIP3    H228974   4.970   5.834   1.929  0.5638 -0.3532 -2.6527
 2447TIP3   OH228975   3.012   1.797   1.586  0.1112 -0.6001  0.7370
 2447TIP3    H128976   3.005   1.882   1.630 -2.0286 -0.2723 -0.1232
 2447TIP3    H228977   3.066   1.744   1.645  2.5528  1.6581  0.7378
 2448TIP3   OH228978   2.902   1.532   1.171  0.0819 -0.5956 -0.2285
 2448TIP3    H128979   2.860   1.539   1.085  1.5578  0.6389 -0.9051
 2448TIP3    H228980   2.895   1.620   1.208 -0.9918 -1.2390  1.1742
 2449TIP3   OH228981   6.354   1.252   1.299  0.1578 -0.6404  1.1331
 2449TIP3    H128982   6.265   1.283   1.283  0.3534 -0.6520 -0.0206
 2449TIP3    H228983   6.366   1.179   1.238  1.4415  0.2635  0.2379
 2450TIP3   OH228984   4.119   1.133   7.253  0.0117  0.0335  0.0972
 2450TIP3    H128985   4.213   1.133   7.271 -0.1117 -1.0880  0.7765
 2450TIP3    H228986   4.094   1.225   7.261  1.1449  0.4335 -0.6677
 2451TIP3   OH228987   5.231   2.075   0.024  0.0779 -0.2335 -0.2413
 2451TIP3    H128988   5.190   2.158   0.049  2.0515  0.8817 -0.4398
 2451TIP3    H228989   5.248   2.031   0.108  0.6880  0.4365 -0.0042
 2452TIP3   OH228990   5.487   5.029   1.172 -0.1374  0.2243 -0.4397
 2452TIP3    H128991   5.558   5.082   1.136 -1.0525  1.4652 -0.4903
 2452TIP3    H228992   5.473   4.960   1.107  0.7517  0.1844 -0.6045
 2453TIP3   OH228993   1.574   3.142   0.700 -0.0050 -0.3448  0.1610
 2453TIP3    H128994   1.653   3.149   0.646 -0.4301  2.9011 -0.2173
 2453TIP3    H228995   1.502   3.168   0.643 -1.0636 -0.9009  1.1713
 2454TIP3   OH228996   4.694   6.673   7.550  0.5434 -0.2195  0.4710
 2454TIP3    H128997   4.746   6.608   7.599 -0.0731 -0.7031  0.4994
 2454TIP3    H228998   4.671   6.628   7.469 -2.4146 -1.2187  1.7085
 2455TIP3   OH228999   6.169   2.070   6.766 -0.4101  0.4679 -0.5120
 2455TIP3    H129000   6.182   2.155   6.807 -1.7902 -0.7346  2.8011
 2455TIP3    H229001   6.077   2.069   6.742 -0.5457 -0.2475 -0.0039
 2456TIP3   OH229002   3.659   0.989   7.691  0.7819 -0.2547 -0.0491
 2456TIP3    H129003   3.600   1.064   7.687  0.8223  0.2271  4.0373
 2456TIP3    H229004   3.602   0.913   7.701  0.7888 -0.2303  0.1833
 2457TIP3   OH229005   1.563   5.626   0.132  0.0951  0.0567 -0.2595
 2457TIP3    H129006   1.644   5.575   0.132  0.8188  1.1741 -1.4400
 2457TIP3    H229007   1.554   5.656   0.223  0.1644 -1.3212  0.2370
 2458TIP3   OH229008   4.100   0.349   8.814 -0.6230  0.0135  0.2455
 2458TIP3    H129009   4.139   0.436   8.814  1.4128 -0.7285  3.2575
 2458TIP3    H229010   4.065   0.338   8.903 -0.0228 -2.5343  0.2461
 2459TIP3   OH229011   2.707   0.032   7.195 -0.1364  0.1966 -0.3519
 2459TIP3    H129012   2.696  -0.054   7.156  0.4566 -1.2011  2.3120
 2459TIP3    H229013   2.643   0.034   7.267  1.7546  0.7823  1.4223
 2460TIP3   OH229014   1.496   3.774   7.365  0.9466 -0.7361  0.4629
 2460TIP3    H129015   1.505   3.840   7.434  1.0476 -0.7747  0.4874
 2460TIP3    H229016   1.586   3.757   7.337  1.0115 -1.6283  1.1751
 2461TIP3   OH229017   6.227   2.047   1.065  0.3792 -0.3564  0.2605
 2461TIP3    H129018   6.259   2.120   1.013 -1.8563  0.1032 -0.5639
 2461TIP3    H229019   6.259   2.065   1.154  1.6285  0.4692 -0.3269
 2462TIP3   OH229020   1.811   6.266   8.354  0.1255 -0.6625 -0.5075
 2462TIP3    H129021   1.728   6.223   8.335  0.6216 -1.0036 -2.0848
 2462TIP3    H229022   1.788   6.345   8.402 -1.1061 -0.7684 -0.9050
 2463TIP3   OH229023   2.620   6.165   2.290 -0.3664 -0.3448 -0.2874
 2463TIP3    H129024   2.710   6.197   2.294 -0.8245  0.8957  0.6710
 2463TIP3    H229025   2.573   6.217   2.355 -2.2907  0.7574 -2.3910
 2464TIP3   OH229026   4.185   2.069   1.538 -0.6811  0.3722  0.2227
 2464TIP3    H129027   4.113   2.022   1.496 -0.1223 -0.6656  0.3758
 2464TIP3    H229028   4.154   2.088   1.626  0.2144 -2.7025  1.3386
 2465TIP3   OH229029   4.822   4.893   1.849  0.0876 -0.4718  0.0981
 2465TIP3    H129030   4.887   4.962   1.844  0.6890 -0.9794  0.6951
 2465TIP3    H229031   4.764   4.918   1.921 -0.1401 -0.2198 -0.1724
 2466TIP3   OH229032   5.325   0.385   8.445 -0.1583  0.1968  0.4923
 2466TIP3    H129033   5.231   0.392   8.459 -0.8775 -1.5176 -2.6258
 2466TIP3    H229034   5.350   0.306   8.494 -0.8698 -0.7582 -0.6436
 2467TIP3   OH229035   5.680   3.266   0.272 -0.8223 -0.0286 -0.0585
 2467TIP3    H129036   5.664   3.215   0.193  1.8904 -0.9989 -0.0766
 2467TIP3    H229037   5.732   3.341   0.242  1.2047 -0.9841  0.8589
 2468TIP3   OH229038   5.636   2.647   7.922  0.0138 -0.2967  0.0667
 2468TIP3    H129039   5.607   2.654   7.831 -0.9347 -0.3049  0.3511
 2468TIP3    H229040   5.614   2.732   7.961  0.8000 -0.1418  0.1882
 2469TIP3   OH229041   5.174   1.292   2.575 -0.3108 -0.7349  0.2868
 2469TIP3    H129042   5.091   1.266   2.615 -0.2128  0.5480  1.4139
 2469TIP3    H229043   5.238   1.228   2.607 -0.6442 -1.0140  0.4015
 2470TIP3   OH229044   0.477   6.755   8.741  0.0838  0.2374  0.6167
 2470TIP3    H129045   0.464   6.837   8.693 -1.4049  0.2567  0.9858
 2470TIP3    H229046   0.471   6.779   8.833  2.7770  0.1754  0.8840
 2471TIP3   OH229047   4.219   4.755   0.032 -0.2461  0.1315 -0.0325
 2471TIP3    H129048   4.298   4.755   0.086  0.5001  1.8947 -1.0489
 2471TIP3    H229049   4.200   4.847   0.016 -1.2086 -0.2999 -1.6611
 2472TIP3   OH229050   6.518   3.707   2.394  0.2514  0.3408  0.2270
 2472TIP3    H129051   6.487   3.762   2.321  1.2761 -0.4442 -0.8461
 2472TIP3    H229052   6.613   3.715   2.391  0.2908  1.6750  2.6368
 2473TIP3   OH229053   1.777   0.403   7.447 -0.6551  0.6627 -0.0328
 2473TIP3    H129054   1.731   0.345   7.509  0.8200 -1.4321 -0.7840
 2473TIP3    H229055   1.832   0.458   7.503 -0.8278  0.1747  0.6450
 2474TIP3   OH229056   5.385   1.943   1.472  0.1516  0.0644 -0.4119
 2474TIP3    H129057   5.455   1.995   1.433 -0.0078  1.0997  0.6494
 2474TIP3    H229058   5.369   1.982   1.557 -1.2086 -0.6212 -0.3142
 2475TIP3   OH229059   1.078   4.573   1.330 -0.3780 -0.3556 -0.2356
 2475TIP3    H129060   1.099   4.532   1.246 -0.9937 -0.2935 -0.4276
 2475TIP3    H229061   0.988   4.603   1.320 -0.8093 -1.2078  0.7695
 2476TIP3   OH229062   5.827   0.782   0.913 -0.0454  0.6514 -0.4495
 2476TIP3    H129063   5.830   0.862   0.859 -2.7497  0.9767 -0.2254
 2476TIP3    H229064   5.917   0.748   0.909  1.0394  3.3182 -1.1109
 2477TIP3   OH229065   2.391   1.099   1.055 -0.5783 -0.6265  0.1274
 2477TIP3    H129066   2.479   1.091   1.019 -0.7208 -0.0222 -0.3724
 2477TIP3    H229067   2.398   1.170   1.119 -1.1647  0.9622 -1.4831
 2478TIP3   OH229068   2.202   4.262   8.391  0.8935  0.1543 -0.3156
 2478TIP3    H129069   2.201   4.169   8.367  1.3029  0.7926 -3.2144
 2478TIP3    H229070   2.193   4.308   8.308  0.5706  2.7406  1.0499
 2479TIP3   OH229071   0.832   2.549   8.216 -0.0632 -0.0654 -0.3024
 2479TIP3    H129072   0.817   2.592   8.301 -0.2112 -1.7847  0.5687
 2479TIP3    H229073   0.891   2.609   8.170  0.5500  0.6017  1.2647
 2480TIP3   OH229074   4.261   3.096   1.648  0.3065  0.0319 -0.5720
 2480TIP3    H129075   4.318   3.054   1.713  0.3142 -0.6927 -1.0405
 2480TIP3    H229076   4.190   3.033   1.635  0.8749 -0.3363 -2.0757
 2481TIP3   OH229077   1.472   4.009   8.394  0.6084  0.3347 -0.1434
 2481TIP3    H129078   1.379   4.028   8.398  0.5430  0.0020 -0.0705
 2481TIP3    H229079   1.515   4.093   8.412  0.3331  0.1869  1.3224
 2482TIP3   OH229080   4.093   6.723   0.769 -0.5627 -0.1068  0.3088
 2482TIP3    H129081   4.043   6.692   0.694 -0.8774  0.3143  0.3383
 2482TIP3    H229082   4.168   6.663   0.776  0.4785  0.9085 -1.4588
 2483TIP3   OH229083   4.308   1.832   7.813  0.1176  0.5455 -0.1246
 2483TIP3    H129084   4.314   1.896   7.742 -0.5568 -0.2398 -0.9105
 2483TIP3    H229085   4.246   1.766   7.781  1.2134 -0.8103  0.4170
 2484TIP3   OH229086   4.030   2.610   0.894 -0.0640  0.2634 -0.0337
 2484TIP3    H129087   4.026   2.669   0.818  1.4094  1.3847  0.7197
 2484TIP3    H229088   3.976   2.653   0.960 -1.0127 -0.5121 -0.2767
 2485TIP3   OH229089   2.228   4.176   0.023  0.5906  0.0871 -0.1139
 2485TIP3    H129090   2.288   4.124   0.077  0.5258  1.3821  1.2647
 2485TIP3    H229091   2.284   4.217  -0.043  1.0381  0.2996  0.3911
 2486TIP3   OH229092   1.124   4.055   8.070  0.7210 -0.1964  0.3150
 2486TIP3    H129093   1.167   4.133   8.036 -2.4185  1.1730 -0.9192
 2486TIP3    H229094   1.118   3.996   7.994 -0.3203  0.0375  0.1935
 2487TIP3   OH229095   3.739   5.680   8.439  0.0529 -0.5139 -0.0442
 2487TIP3    H129096   3.653   5.720   8.422  1.8924  3.1632 -1.6918
 2487TIP3    H229097   3.757   5.701   8.530  0.0825  0.6676 -0.3047
 2488TIP3   OH229098   2.523   0.637   1.451  0.4829  0.1906  0.1754
 2488TIP3    H129099   2.475   0.693   1.389  1.2073  0.3797 -0.2181
 2488TIP3    H229100   2.525   0.551   1.410  0.5533  0.2006  0.1588
 2489TIP3   OH229101   4.881   3.783   7.425 -0.0164  0.0716  0.1833
 2489TIP3    H129102   4.789   3.766   7.406  0.0998  0.6391 -0.9199
 2489TIP3    H229103   4.928   3.717   7.375  0.1730 -0.6643  1.2883
 2490TIP3   OH229104   4.619   4.124   1.612 -0.1391  0.0418 -0.1597
 2490TIP3    H129105   4.658   4.063   1.675  1.4356 -0.8639 -1.8843
 2490TIP3    H229106   4.560   4.069   1.560  0.2940  0.2506 -0.8905
 2491TIP3   OH229107   2.950   3.948   1.643  0.1099  0.6072 -0.3683
 2491TIP3    H129108   2.961   3.995   1.725  0.6768 -0.2954  0.0936
 2491TIP3    H229109   3.008   3.992   1.581  0.2957  0.7795 -0.0699
 2492TIP3   OH229110   0.318   0.845   8.036  0.4162  0.4270 -0.3392
 2492TIP3    H129111   0.244   0.876   8.088 -0.1514  0.4639 -1.1406
 2492TIP3    H229112   0.366   0.787   8.094 -1.1181 -0.8604 -0.2717
 2493TIP3   OH229113   5.479   4.986   0.084 -0.4622 -0.2852 -0.0343
 2493TIP3    H129114   5.534   5.050   0.128 -1.7053 -0.4634  1.9200
 2493TIP3    H229115   5.539   4.916   0.057  0.5496  0.5563 -0.0160
 2494TIP3   OH229116   2.362   2.072   7.496  0.2805  0.5230  0.2359
 2494TIP3    H129117   2.417   2.045   7.569  1.4190 -1.1226 -1.1424
 2494TIP3    H229118   2.399   2.155   7.466  1.3770 -0.0303  0.0044
 2495TIP3   OH229119   5.174   0.578   8.211  0.3357 -0.1602 -0.8796
 2495TIP3    H129120   5.124   0.497   8.201  0.5518 -0.3107 -0.7627
 2495TIP3    H229121   5.263   0.549   8.233 -0.0146  0.1196  1.1698
 2496TIP3   OH229122   0.554   3.632   1.375  0.0369 -0.2165 -0.4761
 2496TIP3    H129123   0.481   3.571   1.384 -0.0111  0.0712  1.3703
 2496TIP3    H229124   0.589   3.641   1.463  1.4433  0.7288 -1.0964
 2497TIP3   OH229125   3.982   3.420   8.672 -0.3162 -0.8171 -0.2334
 2497TIP3    H129126   4.076   3.411   8.690 -0.4747  0.6156  1.7017
 2497TIP3    H229127   3.956   3.335   8.635  1.2048 -2.3119  1.8665
 2498TIP3   OH229128   2.644   1.929   8.007 -0.5619 -0.3048 -0.1961
 2498TIP3    H129129   2.697   1.952   8.084 -1.6142 -0.1863  0.5208
 2498TIP3    H229130   2.591   2.007   7.990  0.8647  0.3054 -2.1356
 2499TIP3   OH229131   4.893   3.901   7.043  0.0174  0.5548 -0.7677
 2499TIP3    H129132   4.955   3.861   6.982  0.6280  0.1512  0.1034
 2499TIP3    H229133   4.933   3.890   7.129 -1.3685  0.0745 -0.1518
 2500TIP3   OH229134   1.554   6.518   7.197 -0.1473 -0.2528  0.2254
 2500TIP3    H129135   1.629   6.522   7.138 -0.5585 -0.9895 -0.3690
 2500TIP3    H229136   1.483   6.558   7.147 -0.1962  0.2669  0.7107
 2501TIP3   OH229137   1.381   3.854   8.061 -0.2186  0.1543  0.4123
 2501TIP3    H129138   1.401   3.947   8.068  0.7290 -0.0183  0.1348
 2501TIP3    H229139   1.319   3.848   7.989 -0.2961  0.5731  0.4437
 2502TIP3   OH229140   4.085   0.088   1.512  0.3480  0.0472  0.0956
 2502TIP3    H129141   4.120   0.010   1.554  3.4424  0.9552 -0.5069
 2502TIP3    H229142   4.115   0.160   1.567 -0.4316  0.9438 -0.6243
 2503TIP3   OH229143   0.288   3.784   7.978 -0.0974  0.4646 -0.0086
 2503TIP3    H129144   0.250   3.837   7.908  1.9925  0.0158 -1.5986
 2503TIP3    H229145   0.372   3.825   7.996 -0.3749  0.2497  1.9167
 2504TIP3   OH229146   5.097   4.391   8.893  0.4895  0.0046 -0.0403
 2504TIP3    H129147   5.114   4.460   8.830 -0.2286 -0.2089 -0.4916
 2504TIP3    H229148   5.009   4.410   8.927  1.0212  0.3499  1.2211
 2505TIP3   OH229149   2.616   2.772   0.304 -0.2334 -0.1131  0.5452
 2505TIP3    H129150   2.582   2.861   0.308  1.7243  0.6775  0.5080
 2505TIP3    H229151   2.623   2.753   0.210 -0.5301 -0.2595  0.5524
 2506TIP3   OH229152   2.586   2.705   7.019  0.0259 -0.6558  0.5837
 2506TIP3    H129153   2.594   2.758   7.098  0.1388 -0.9869  0.8002
 2506TIP3    H229154   2.492   2.694   7.006  0.0072 -1.8803  1.5603
 2507TIP3   OH229155   4.510   0.439   8.013 -0.6903  0.2754  0.2367
 2507TIP3    H129156   4.549   0.477   8.091  2.2868  1.0855 -1.4626
 2507TIP3    H229157   4.576   0.452   7.945 -3.1174 -0.3436 -2.4446
 2508TIP3   OH229158   0.687   5.179   8.529  0.2601 -0.3095  0.0040
 2508TIP3    H129159   0.629   5.187   8.454 -0.1627 -2.2001  0.0710
 2508TIP3    H229160   0.628   5.170   8.604  0.6261 -1.1489  0.2077
 2509TIP3   OH229161   0.530   0.943   8.466  0.2456 -0.0352 -0.4309
 2509TIP3    H129162   0.572   1.020   8.504  0.5272 -0.2470 -0.3102
 2509TIP3    H229163   0.534   0.959   8.371  0.8891 -0.1974 -0.4380
 2510TIP3   OH229164   3.287   2.744   1.469  0.0448 -0.0479  0.6339
 2510TIP3    H129165   3.301   2.807   1.399 -0.1609  1.6860  2.0940
 2510TIP3    H229166   3.198   2.712   1.456 -0.2106  0.7285  0.4617
 2511TIP3   OH229167   3.777   1.744   7.216 -0.3426 -0.6753 -0.3661
 2511TIP3    H129168   3.717   1.818   7.204 -0.0065  0.5109  3.7187
 2511TIP3    H229169   3.864   1.784   7.224  0.2559 -1.8315 -0.7732
 2512TIP3   OH229170   6.289   2.956   8.534 -0.1008  0.0080 -0.2788
 2512TIP3    H129171   6.261   3.002   8.455  1.3491  0.0993 -0.7572
 2512TIP3    H229172   6.320   2.871   8.502 -0.8178 -0.5216  0.3712
 2513TIP3   OH229173   2.106   0.906   2.266 -0.0081 -0.0300  0.5527
 2513TIP3    H129174   2.170   0.841   2.238 -0.7828 -0.5345 -0.0568
 2513TIP3    H229175   2.156   0.988   2.268  0.3760 -0.1804 -1.1710
 2514TIP3   OH229176   4.489   5.807   8.756  0.2717  0.2038 -0.6073
 2514TIP3    H129177   4.449   5.780   8.673 -0.2682  0.6717 -0.5081
 2514TIP3    H229178   4.505   5.901   8.745  1.8442 -0.0699 -0.8389
 2515TIP3   OH229179   4.681   6.342   7.437  0.4165 -0.0046  0.4360
 2515TIP3    H129180   4.591   6.315   7.459  0.6883 -0.1041  1.4857
 2515TIP3    H229181   4.670   6.423   7.387 -0.2446  0.4899  1.3437
 2516TIP3   OH229182   2.167   0.196   1.060 -0.3298  0.2533  0.1872
 2516TIP3    H129183   2.212   0.254   1.122  1.6335 -0.7095 -0.2758
 2516TIP3    H229184   2.214   0.207   0.978 -0.2514 -1.5735 -0.0553
 2517TIP3   OH229185   0.776   6.354   7.445  0.0169 -0.2952 -0.3513
 2517TIP3    H129186   0.776   6.272   7.494 -0.6471 -0.7164 -1.0181
 2517TIP3    H229187   0.713   6.409   7.491  0.2069 -0.2876 -0.1002
 2518TIP3   OH229188   4.079   2.410   0.680  0.2042  0.6026  0.3755
 2518TIP3    H129189   4.035   2.423   0.763  1.7235  1.3614  1.1068
 2518TIP3    H229190   4.164   2.453   0.691  0.3230  0.9900 -1.6656
 2519TIP3   OH229191   2.173   3.335   8.820  0.0342  0.0756  0.6068
 2519TIP3    H129192   2.147   3.399   8.754 -1.8019 -2.9021 -1.8180
 2519TIP3    H229193   2.268   3.327   8.811  0.0457  1.1116 -0.3022
 2520TIP3   OH229194   3.549   6.007   1.352  0.7158 -0.0398  0.1608
 2520TIP3    H129195   3.559   5.971   1.264 -1.6256  3.6186 -1.8326
 2520TIP3    H229196   3.591   6.092   1.349 -1.1750  1.0526  1.8992
 2521TIP3   OH229197   0.041   3.822   0.623  0.5401 -0.4921  0.1517
 2521TIP3    H129198  -0.034   3.798   0.569  1.7214 -3.0354 -0.5291
 2521TIP3    H229199   0.018   3.792   0.711  0.4100 -0.4808  0.1213
 2522TIP3   OH229200   1.860   2.674   2.007 -0.1976 -0.2540  0.2700
 2522TIP3    H129201   1.921   2.652   2.078 -0.3082 -2.1883 -0.1952
 2522TIP3    H229202   1.911   2.661   1.927 -0.7660 -0.3431 -0.0801
 2523TIP3   OH229203   1.656   5.205   2.006 -0.1653 -0.0078  0.1154
 2523TIP3    H129204   1.736   5.200   2.058  0.8373  1.7156 -1.1308
 2523TIP3    H229205   1.654   5.296   1.976 -1.2160 -0.6738 -2.0076
 2524TIP3   OH229206   4.068   4.066   0.020  0.1804  0.5485  0.4138
 2524TIP3    H129207   4.011   4.143   0.015  0.4745  1.0205  3.0367
 2524TIP3    H229208   4.156   4.101   0.034  0.7601 -0.2501 -0.9352
 2525TIP3   OH229209   4.456   2.611   0.041  0.1316  0.5896 -0.3409
 2525TIP3    H129210   4.394   2.568   0.100  0.9122  0.0176  0.0837
 2525TIP3    H229211   4.403   2.636  -0.035 -0.5219 -0.3491 -0.2182
 2526TIP3   OH229212   3.125   3.602   2.624  0.6541 -0.1868 -0.3162
 2526TIP3    H129213   3.113   3.513   2.593  2.6344 -0.6187 -0.0043
 2526TIP3    H229214   3.109   3.657   2.548 -3.8289 -0.4599  0.2026
 2527TIP3   OH229215   6.380   2.722   1.801 -0.0535  0.2471 -0.1123
 2527TIP3    H129216   6.470   2.710   1.771  0.3783  1.2518  0.7416
 2527TIP3    H229217   6.380   2.806   1.846 -2.0023  1.6109 -2.3670
 2528TIP3   OH229218   5.832   5.251   6.477 -0.6784 -0.2677  0.3409
 2528TIP3    H129219   5.840   5.301   6.559 -0.4225 -0.1861  0.2637
 2528TIP3    H229220   5.871   5.167   6.497 -2.3274 -0.9497  0.9070
 2529TIP3   OH229221   4.527   5.400   8.468 -0.1351 -0.4032  0.3704
 2529TIP3    H129222   4.577   5.429   8.544 -0.6242  3.0930 -0.4615
 2529TIP3    H229223   4.592   5.358   8.412  0.8011 -0.5171  1.4979
 2530TIP3   OH229224   0.168   3.121   0.245  0.0638  0.4040 -0.2824
 2530TIP3    H129225   0.230   3.083   0.307 -0.6068 -1.0789 -0.4854
 2530TIP3    H229226   0.124   3.191   0.294 -0.6176 -0.8819  1.0254
 2531TIP3   OH229227   6.349   3.619   0.402 -0.5831  0.8767  0.7184
 2531TIP3    H129228   6.343   3.592   0.494  1.5759  0.4193  0.7760
 2531TIP3    H229229   6.266   3.666   0.386 -1.3069  0.3988  2.6812
 2532TIP3   OH229230   3.387   0.756   8.459  0.0875  0.0142 -0.1118
 2532TIP3    H129231   3.449   0.799   8.518 -1.3824  3.5670 -0.8809
 2532TIP3    H229232   3.438   0.741   8.379  0.7429  0.0851  0.2825
 2533TIP3   OH229233   2.113   6.610   7.849  0.1421  0.3678 -0.0377
 2533TIP3    H129234   2.171   6.611   7.772  1.3830  0.5216  0.8749
 2533TIP3    H229235   2.053   6.537   7.832  1.5301 -0.7610 -0.3708
 2534TIP3   OH229236   2.710   2.394   7.691 -0.3218 -0.0866 -0.1787
 2534TIP3    H129237   2.713   2.347   7.608  1.1686 -0.4873  0.0818
 2534TIP3    H229238   2.714   2.487   7.667 -0.5982 -0.1745 -0.5763
 2535TIP3   OH229239   2.873   4.594   6.772 -0.2077 -0.2362  0.1579
 2535TIP3    H129240   2.816   4.617   6.699  1.0425  0.3874 -0.6558
 2535TIP3    H229241   2.839   4.511   6.805  0.9047 -2.1124 -3.0390
 2536TIP3   OH229242   4.419   2.643   1.346 -0.4204  0.3946  0.8859
 2536TIP3    H129243   4.374   2.709   1.400  1.6900  1.6026  1.3015
 2536TIP3    H229244   4.497   2.620   1.397  1.1356  0.8472 -1.1520
 2537TIP3   OH229245   5.168   2.617   1.309 -0.3980 -0.1793  0.3969
 2537TIP3    H129246   5.158   2.668   1.228 -1.5097 -0.9305  0.0334
 2537TIP3    H229247   5.192   2.682   1.375  0.4770  0.4574 -0.5114
 2538TIP3   OH229248   0.532   5.826   7.656  0.1148 -0.1666  0.3296
 2538TIP3    H129249   0.543   5.734   7.632  1.8317  0.2591 -0.7095
 2538TIP3    H229250   0.584   5.836   7.736 -0.4780 -0.1963  0.7246
 2539TIP3   OH229251   6.179   2.350   6.773  0.0054  0.5626  0.3862
 2539TIP3    H129252   6.164   2.401   6.852  1.0375  0.4846  0.6463
 2539TIP3    H229253   6.251   2.395   6.728 -0.0549  0.1702 -0.1137
 2540TIP3   OH229254   1.579   2.764   0.467 -0.2533  0.0148  0.2195
 2540TIP3    H129255   1.644   2.791   0.534 -0.4079 -1.4693  0.9983
 2540TIP3    H229256   1.527   2.843   0.452 -0.2355  0.3866  1.9006
 2541TIP3   OH229257   5.660   0.285   7.048  0.3596  0.0215 -0.2538
 2541TIP3    H129258   5.679   0.205   6.998  0.6233  0.1254 -0.3186
 2541TIP3    H229259   5.565   0.286   7.055  0.2856  0.2494 -1.1530
 2542TIP3   OH229260   2.571   3.763   1.511  0.3152 -0.0616 -0.3758
 2542TIP3    H129261   2.630   3.814   1.456 -0.7635 -0.2466 -1.7631
 2542TIP3    H229262   2.571   3.676   1.471 -1.0164 -0.0158 -0.5240
 2543TIP3   OH229263   4.274   5.727   1.084 -0.6950  0.5984 -0.3659
 2543TIP3    H129264   4.367   5.705   1.095 -0.8719 -0.9842 -1.6137
 2543TIP3    H229265   4.231   5.689   1.160 -0.4498  0.3876 -0.3292
 2544TIP3   OH229266   2.951   2.970   0.260  0.2893  0.3623  0.2101
 2544TIP3    H129267   2.914   2.927   0.183 -1.0679  1.9051 -0.0718
 2544TIP3    H229268   3.033   2.924   0.277 -0.5483 -1.5738 -0.6909
 2545TIP3   OH229269   4.125   1.051   0.625 -0.1939 -0.1754 -0.4663
 2545TIP3    H129270   4.162   1.105   0.554  0.9308  0.2275  0.3892
 2545TIP3    H229271   4.123   0.963   0.589  5.6682 -1.1845  0.6144
 2546TIP3   OH229272   3.077   1.232   6.954  0.1671 -0.0367  0.6222
 2546TIP3    H129273   3.158   1.201   6.915  0.3721 -0.8853  1.6776
 2546TIP3    H229274   3.046   1.159   7.008 -1.3580  0.2240  0.1612
 2547TIP3   OH229275   2.030   5.986   7.497 -0.4458 -0.4664 -0.2734
 2547TIP3    H129276   2.110   6.026   7.465 -0.2356 -0.4028  0.3080
 2547TIP3    H229277   2.011   5.916   7.435  1.1231 -1.7403  0.5884
 2548TIP3   OH229278   6.734   1.001   0.213 -0.6743  0.2752 -0.4740
 2548TIP3    H129279   6.744   1.062   0.286 -3.5214 -0.6173  0.7987
 2548TIP3    H229280   6.802   1.027   0.151 -0.3114  3.2454  0.9802
 2549TIP3   OH229281   5.698   5.853   1.675  0.3652  0.4889 -0.1233
 2549TIP3    H129282   5.610   5.870   1.641  0.3232  1.1415  0.2712
 2549TIP3    H229283   5.709   5.759   1.670  0.4431  0.5726 -2.1126
 2550TIP3   OH229284   5.894   3.957   0.962 -0.4235  0.6327  0.4956
 2550TIP3    H129285   5.983   3.926   0.976 -0.4864 -0.0097 -0.4582
 2550TIP3    H229286   5.890   3.978   0.869 -1.4501  0.0341  0.3880
 2551TIP3   OH229287   2.007   6.383   6.782  0.5739 -0.1826 -0.1626
 2551TIP3    H129288   2.027   6.361   6.691 -1.2823 -2.4930 -0.1158
 2551TIP3    H229289   1.974   6.472   6.778  0.8010 -0.1355 -1.7152
 2552TIP3   OH229290   6.143   1.977   7.250 -0.2429 -0.1936 -0.5035
 2552TIP3    H129291   6.170   1.941   7.166 -1.9610 -0.8893 -0.7886
 2552TIP3    H229292   6.187   1.921   7.315 -0.0876 -0.5681 -0.9293
 2553TIP3   OH229293   1.467   4.295   1.028  0.2894  0.2298 -0.6178
 2553TIP3    H129294   1.541   4.330   1.076 -0.1023  2.1212 -1.2772
 2553TIP3    H229295   1.470   4.201   1.043  2.3108  0.3563  0.0462
 2554TIP3   OH229296   6.017   2.613   1.766  0.6188 -0.2676 -0.3828
 2554TIP3    H129297   6.059   2.572   1.841  0.4434  1.1100  0.5039
 2554TIP3    H229298   6.043   2.560   1.691 -0.2094 -2.4352  0.7814
 2555TIP3   OH229299   2.870   4.899   8.107 -0.0036 -0.3415 -0.1611
 2555TIP3    H129300   2.868   4.981   8.157  1.8823  1.0737 -2.2416
 2555TIP3    H229301   2.891   4.925   8.018 -0.3300 -3.0407 -1.1260
 2556TIP3   OH229302   6.454   6.235   1.995  0.2858 -0.1602  0.0469
 2556TIP3    H129303   6.469   6.178   2.070 -0.9676 -0.6809 -0.0764
 2556TIP3    H229304   6.486   6.321   2.023  2.1100 -0.8720  0.2603
 2557TIP3   OH229305   6.241   5.256   1.159  0.0627 -0.5640  0.3065
 2557TIP3    H129306   6.281   5.297   1.236 -0.8423  0.1208  0.4185
 2557TIP3    H229307   6.184   5.323   1.122 -0.5133 -1.3154 -0.2091
 2558TIP3   OH229308   6.088   0.259   1.401 -0.1649 -0.2729  0.4349
 2558TIP3    H129309   6.122   0.172   1.422 -0.8269 -0.3343  1.3412
 2558TIP3    H229310   6.011   0.243   1.347 -0.7437 -0.3079  1.2429
 2559TIP3   OH229311   3.308   2.448   2.135  0.2242 -0.2826  0.3932
 2559TIP3    H129312   3.298   2.369   2.189 -0.9967 -0.8927 -0.6625
 2559TIP3    H229313   3.368   2.503   2.184  0.8155 -1.7139  1.3449
 2560TIP3   OH229314   3.328   2.635   8.013  0.6972  0.1282 -0.2336
 2560TIP3    H129315   3.240   2.637   8.051  1.2670 -0.8723  1.2524
 2560TIP3    H229316   3.358   2.726   8.018  0.6109  0.0943  1.4658
 2561TIP3   OH229317   5.722   2.033   2.724 -0.1550 -0.3982 -0.3754
 2561TIP3    H129318   5.794   1.988   2.679 -0.2726 -1.7991  0.7751
 2561TIP3    H229319   5.763   2.071   2.801 -0.4222 -0.1287 -0.3665
 2562TIP3   OH229320   5.466   5.835   7.854 -0.0031  0.1161 -0.0511
 2562TIP3    H129321   5.417   5.900   7.804  0.4120  0.4154 -0.0761
 2562TIP3    H229322   5.541   5.884   7.890 -0.0757 -0.1863  0.5204
 2563TIP3   OH229323   0.419   5.848   1.359  0.0987  0.4659  0.1458
 2563TIP3    H129324   0.362   5.840   1.282  0.1587  0.0991  0.1342
 2563TIP3    H229325   0.418   5.941   1.380  0.2272  0.5987 -0.4133
 2564TIP3   OH229326   4.951   2.716   0.228 -0.1087 -0.1717 -0.2132
 2564TIP3    H129327   4.957   2.803   0.267 -0.4110  0.0890 -0.7410
 2564TIP3    H229328   4.975   2.656   0.299  1.5470  0.4087 -0.2304
 2565TIP3   OH229329   1.126   4.976   8.778  0.3842 -1.0187 -0.1489
 2565TIP3    H129330   1.099   4.977   8.686 -0.4624  0.4946  0.0970
 2565TIP3    H229331   1.215   4.941   8.776  1.5610  1.7816 -1.8977
 2566TIP3   OH229332   0.461   2.749   8.179  0.1209  0.0120  0.1111
 2566TIP3    H129333   0.513   2.829   8.165  1.4298 -1.0752 -1.6427
 2566TIP3    H229334   0.496   2.711   8.259  0.1544  0.6778  0.4189
 2567TIP3   OH229335   4.764   2.823   8.650 -0.1007 -0.6768 -1.0630
 2567TIP3    H129336   4.758   2.851   8.742  1.4177  1.2931 -1.4777
 2567TIP3    H229337   4.682   2.777   8.633 -1.5336  1.0804  0.5894
 2568TIP3   OH229338   5.168   3.119   7.314 -0.1997 -0.2665 -0.2554
 2568TIP3    H129339   5.134   3.106   7.225 -0.3011 -1.8343 -0.0098
 2568TIP3    H229340   5.185   3.031   7.346  0.8372  0.3339  0.9094
 2569TIP3   OH229341   5.073   2.414   0.995  0.2454 -0.0130  0.2149
 2569TIP3    H129342   5.154   2.393   0.947 -0.7570 -2.4512 -0.5614
 2569TIP3    H229343   5.094   2.395   1.086  0.6437 -0.3663  0.0543
 2570TIP3   OH229344   4.504   1.202   0.848 -0.3499  0.2604  0.2213
 2570TIP3    H129345   4.457   1.227   0.768  1.0847 -1.0985 -1.0911
 2570TIP3    H229346   4.578   1.150   0.818  1.3262  1.2708  2.3149
 2571TIP3   OH229347   5.022   6.538   6.633 -0.0848 -0.0705 -0.0271
 2571TIP3    H129348   5.079   6.581   6.570 -0.0244 -0.1723 -0.0413
 2571TIP3    H229349   4.945   6.513   6.583  0.5711 -1.4495 -0.3947
 2572TIP3   OH229350   3.803   5.209   0.248  0.0933  0.0343  0.1980
 2572TIP3    H129351   3.740   5.141   0.272 -0.5327  0.4545 -0.2215
 2572TIP3    H229352   3.854   5.224   0.327  0.3515 -1.0397  0.2484
 2573TIP3   OH229353   0.237   4.685   1.642 -0.5285  0.0941 -0.1701
 2573TIP3    H129354   0.306   4.674   1.576 -0.9746 -0.1090 -0.6021
 2573TIP3    H229355   0.274   4.748   1.704  0.8155 -1.4321  0.6520
 2574TIP3   OH229356   3.503   6.455   2.312 -0.7220  0.3493  0.2875
 2574TIP3    H129357   3.548   6.529   2.271  0.1553 -0.4710 -0.3079
 2574TIP3    H229358   3.420   6.490   2.342 -0.9636  1.2506 -1.3040
 2575TIP3   OH229359   6.769   1.397   7.038  0.7437  0.1542  0.4539
 2575TIP3    H129360   6.747   1.332   6.970 -0.5393 -0.0603  1.0560
 2575TIP3    H229361   6.858   1.424   7.016  1.4851 -2.0946  0.3910
 2576TIP3   OH229362   1.425   0.260   8.490 -0.5489  0.5906  0.1174
 2576TIP3    H129363   1.400   0.189   8.430  0.5205  0.2598  0.0500
 2576TIP3    H229364   1.497   0.305   8.446  1.2667 -0.5590  1.7361
 2577TIP3   OH229365   6.030   5.015   2.496 -0.4873  0.2829  0.5031
 2577TIP3    H129366   5.983   4.995   2.416 -0.0172  0.2275  0.2401
 2577TIP3    H229367   6.093   4.944   2.506 -1.1237 -0.1858  1.3883
 2578TIP3   OH229368   4.483   6.482   6.560 -0.0201 -0.0734 -0.1078
 2578TIP3    H129369   4.571   6.497   6.526  0.9671 -2.2481  1.3169
 2578TIP3    H229370   4.468   6.555   6.620  0.6626  0.4781 -0.5881
 2579TIP3   OH229371   4.303   2.173   8.557 -0.3886 -0.2073 -0.5449
 2579TIP3    H129372   4.218   2.207   8.527 -0.1553 -0.3500 -1.3925
 2579TIP3    H229373   4.367   2.215   8.499  0.2362  0.7742  0.8017
 2580TIP3   OH229374   4.835   0.932   0.013 -0.5292  0.3937  0.1930
 2580TIP3    H129375   4.743   0.910   0.029 -0.6906  1.0128  0.1500
 2580TIP3    H229376   4.884   0.880   0.077 -0.8744 -0.2597 -0.0636
 2581TIP3   OH229377   6.712   2.840   8.494  0.2259 -0.4009  0.6159
 2581TIP3    H129378   6.793   2.795   8.471 -0.4090 -1.6490  0.7174
 2581TIP3    H229379   6.653   2.770   8.525 -1.4448  0.2195 -0.9889
 2582TIP3   OH229380   0.861   4.090   7.364 -0.2510  0.6748 -0.2629
 2582TIP3    H129381   0.804   4.024   7.326 -0.2535  0.7965 -0.4750
 2582TIP3    H229382   0.821   4.111   7.449 -0.1360  0.2581 -0.1052
 2583TIP3   OH229383   1.552   0.379   0.045  0.2360  0.5948 -0.6024
 2583TIP3    H129384   1.626   0.390   0.105 -0.7477  0.0551  0.7316
 2583TIP3    H229385   1.557   0.455  -0.013  1.6004  0.7704 -0.2999
 2584TIP3   OH229386   0.301   3.584   1.714  0.3183  0.0609 -0.3967
 2584TIP3    H129387   0.354   3.582   1.794  0.7887 -3.1966 -0.6660
 2584TIP3    H229388   0.331   3.509   1.663 -0.1775  1.8308 -3.5709
 2585TIP3   OH229389   3.653   5.082   7.512  0.3428  0.3208  0.2045
 2585TIP3    H129390   3.570   5.040   7.487 -0.7396  1.0130  2.4319
 2585TIP3    H229391   3.640   5.174   7.490  0.5175  0.4278  0.5520
 2586TIP3   OH229392   6.460   4.316   7.653 -0.7576  0.2625  0.1571
 2586TIP3    H129393   6.402   4.381   7.614 -1.7813 -1.2700 -1.0361
 2586TIP3    H229394   6.402   4.243   7.676  0.3273 -0.2125  1.5174
 2587TIP3   OH229395   5.100   0.219   2.590  0.2684 -0.0754 -0.0894
 2587TIP3    H129396   5.065   0.303   2.619 -1.8692 -0.6974 -0.6717
 2587TIP3    H229397   5.061   0.205   2.504  1.0505 -1.3910 -0.2592
 2588TIP3   OH229398   5.631   2.863   7.401  0.8962 -0.1683 -0.3735
 2588TIP3    H129399   5.720   2.829   7.402  1.0759  0.1365 -2.1106
 2588TIP3    H229400   5.578   2.791   7.367  0.3361 -0.5958  1.3425
 2589TIP3   OH229401   6.732   6.001   0.109 -0.1871 -0.1088 -0.1846
 2589TIP3    H129402   6.709   6.084   0.150  0.5455 -0.2095  0.4612
 2589TIP3    H229403   6.714   6.014   0.016 -0.7714  0.5217  0.0069
 2590TIP3   OH229404   0.589   5.705   0.588  0.8812  0.1957  0.2276
 2590TIP3    H129405   0.552   5.721   0.502 -0.3974 -0.0224  0.7078
 2590TIP3    H229406   0.522   5.652   0.633  1.0587  1.1651  1.6952
 2591TIP3   OH229407   0.133   2.470   7.736 -0.1246  0.4654 -0.0610
 2591TIP3    H129408   0.112   2.560   7.712 -4.0100  0.2215  1.5821
 2591TIP3    H229409   0.085   2.456   7.818 -0.8257 -3.4919 -0.9581
 2592TIP3   OH229410   2.447   0.348   7.703  0.1424 -0.1578  0.2112
 2592TIP3    H129411   2.433   0.349   7.608  0.3722 -1.9442  0.1087
 2592TIP3    H229412   2.381   0.408   7.738  0.7384  1.3489 -1.1336
 2593TIP3   OH229413   6.258   1.679   7.684 -0.2004 -0.2380 -0.0534
 2593TIP3    H129414   6.236   1.589   7.663  1.7717 -0.6902 -0.4249
 2593TIP3    H229415   6.182   1.713   7.730 -0.6322 -2.3683  0.8883
 2594TIP3   OH229416   0.258   1.036   8.419  0.0779 -0.3322  0.2556
 2594TIP3    H129417   0.344   1.078   8.420 -0.4987  0.9230 -0.6695
 2594TIP3    H229418   0.227   1.042   8.509 -0.0438  1.3996  0.1222
 2595TIP3   OH229419   4.775   1.383   8.403  0.1324  0.4329  0.0063
 2595TIP3    H129420   4.754   1.347   8.489 -0.3449 -1.3499 -0.8190
 2595TIP3    H229421   4.860   1.344   8.381 -0.2995 -0.0577 -0.8236
 2596TIP3   OH229422   3.120   2.053   1.228 -0.2865 -0.3177 -0.3784
 2596TIP3    H129423   3.138   2.146   1.212 -1.0001 -0.2937 -1.1268
 2596TIP3    H229424   3.170   2.032   1.307  1.2200  0.2810 -1.1354
 2597TIP3   OH229425   0.783   1.695   0.158  0.1482  0.0312  0.3036
 2597TIP3    H129426   0.725   1.766   0.186 -1.3984 -1.0888  0.0887
 2597TIP3    H229427   0.723   1.625   0.131  1.6247 -1.2904  0.3472
 2598TIP3   OH229428   1.348   0.829   7.803 -0.9162  0.2416  0.0133
 2598TIP3    H129429   1.309   0.877   7.876 -0.1550  0.2457  0.4351
 2598TIP3    H229430   1.405   0.893   7.759 -0.6148 -0.0185  0.0152
 2599TIP3   OH229431   0.621   0.516   8.025 -0.3784 -0.4346 -0.0218
 2599TIP3    H129432   0.679   0.556   7.961 -0.3966 -1.4181 -0.6767
 2599TIP3    H229433   0.550   0.479   7.973 -2.4151  1.9909  0.8475
 2600TIP3   OH229434   3.224   2.303   1.226  0.2279  0.2941  0.1874
 2600TIP3    H129435   3.180   2.323   1.308 -0.2390 -0.8316  0.2266
 2600TIP3    H229436   3.265   2.386   1.199  1.1718  0.4605  2.0149
 2601TIP3   OH229437   1.187   5.006   7.069 -0.2003  0.0768  0.1057
 2601TIP3    H129438   1.277   5.032   7.053  0.0096 -0.8630 -0.2508
 2601TIP3    H229439   1.180   4.917   7.035 -1.0942 -0.0963  0.7027
 2602TIP3   OH229440   4.689   5.402   0.363  0.0438  0.1520  0.0087
 2602TIP3    H129441   4.620   5.390   0.429 -0.5164 -0.7215 -0.7131
 2602TIP3    H229442   4.757   5.340   0.388 -0.1059 -0.0776 -0.1511
 2603TIP3   OH229443   6.755   2.703   8.010 -0.5322 -0.8292 -0.2212
 2603TIP3    H129444   6.738   2.726   7.919  0.6748  0.3604 -0.1779
 2603TIP3    H229445   6.690   2.754   8.059  1.3306  1.7564 -0.2136
 2604TIP3   OH229446   6.471   0.793   0.325  0.1055  0.9177  0.4936
 2604TIP3    H129447   6.558   0.828   0.344  0.5777 -1.3221  3.1091
 2604TIP3    H229448   6.412   0.847   0.379  0.0549  1.4000 -0.0343
 2605TIP3   OH229449   2.268   5.243   2.435 -0.1145 -0.2360 -0.2960
 2605TIP3    H129450   2.336   5.197   2.485  0.5554  0.8873 -0.1195
 2605TIP3    H229451   2.307   5.256   2.349  0.3734  1.3668  0.1254
 2606TIP3   OH229452   6.586   5.173   1.788 -0.1975  0.5108  0.3280
 2606TIP3    H129453   6.567   5.194   1.879 -0.0321 -0.4875  0.5965
 2606TIP3    H229454   6.680   5.187   1.779  0.0578 -0.8564  0.7217
 2607TIP3   OH229455   1.328   6.162   1.162  0.1443 -0.4695 -0.6268
 2607TIP3    H129456   1.269   6.105   1.112  0.4895 -0.4930 -1.0125
 2607TIP3    H229457   1.301   6.251   1.139 -0.7113 -0.4536  0.3441
 2608TIP3   OH229458   2.543   5.343   1.498  0.1646 -0.3431 -0.0509
 2608TIP3    H129459   2.505   5.358   1.584  1.5939  1.4277  0.3564
 2608TIP3    H229460   2.489   5.395   1.438 -0.1976 -0.7317 -0.0654
 2609TIP3   OH229461   2.128   4.272   7.194  0.2652  0.0648  0.4298
 2609TIP3    H129462   2.097   4.183   7.175  3.0830 -1.0898  0.7061
 2609TIP3    H229463   2.136   4.274   7.289 -0.4118  0.8862  0.4813
 2610TIP3   OH229464   2.570   3.543   1.087  0.2779  0.3212 -0.0080
 2610TIP3    H129465   2.638   3.609   1.102 -1.4853  2.5958 -1.2347
 2610TIP3    H229466   2.488   3.589   1.106 -1.0385 -1.5987 -0.7682
 2611TIP3   OH229467   3.977   5.506   8.526  0.0475 -0.7202 -0.3917
 2611TIP3    H129468   3.964   5.489   8.619 -1.8169 -2.5084 -0.9279
 2611TIP3    H229469   3.893   5.541   8.496  1.0557  1.1774 -1.1757
 2612TIP3   OH229470   2.856   6.360   2.192 -0.7552  0.2348 -0.2223
 2612TIP3    H129471   2.781   6.400   2.147 -0.6218 -0.1496 -0.7998
 2612TIP3    H229472   2.933   6.396   2.148 -0.5619  1.5082  1.1286
 2613TIP3   OH229473   4.648   4.010   0.055  0.0715 -0.0410 -0.1149
 2613TIP3    H129474   4.654   3.924   0.015 -3.0314 -1.1063  1.4226
 2613TIP3    H229475   4.689   4.069  -0.008 -0.3293 -2.2478 -2.5914
 2614TIP3   OH229476   1.377   1.961   7.962 -0.3718  0.4168  0.0849
 2614TIP3    H129477   1.313   2.032   7.955  0.1328  1.0079  1.2428
 2614TIP3    H229478   1.461   2.006   7.971 -0.1489 -0.2886  1.8369
 2615TIP3   OH229479   0.820   1.081   0.404  0.1353 -0.3093 -0.4177
 2615TIP3    H129480   0.735   1.037   0.412 -0.6971  1.3728  0.6409
 2615TIP3    H229481   0.821   1.114   0.314 -0.7510  0.4031 -0.1867
 2616TIP3   OH229482   4.301   1.225   2.054 -0.3035  0.0360 -0.2563
 2616TIP3    H129483   4.222   1.219   2.001 -0.2205  1.2658 -0.5501
 2616TIP3    H229484   4.278   1.181   2.136 -1.6211  1.1889  0.0217
 2617TIP3   OH229485   0.145   4.879   0.040 -0.4123  0.5080  0.2822
 2617TIP3    H129486   0.088   4.944   0.083 -1.3908 -1.5385  2.2799
 2617TIP3    H229487   0.232   4.920   0.041 -0.7755  1.4000  2.4825
 2618TIP3   OH229488   3.449   5.495   7.860 -0.2206  0.0798 -0.6216
 2618TIP3    H129489   3.434   5.401   7.856  0.2798 -0.0556  0.3743
 2618TIP3    H229490   3.465   5.521   7.769 -1.5420 -0.5757 -1.0718
 2619TIP3   OH229491   3.957   1.198   8.167  0.3217 -0.2960 -0.4646
 2619TIP3    H129492   4.018   1.263   8.132 -0.1422  1.5791  1.9312
 2619TIP3    H229493   4.009   1.145   8.226 -0.4573  2.4653  3.0305
 2620TIP3   OH229494   4.663   2.435   0.459  0.0613 -0.3733 -0.0256
 2620TIP3    H129495   4.726   2.370   0.489  0.5159 -0.1450 -0.4800
 2620TIP3    H229496   4.667   2.430   0.363  1.2361  1.4051 -0.1084
 2621TIP3   OH229497   2.602   5.247   7.198 -0.1091  0.1316  0.2813
 2621TIP3    H129498   2.607   5.303   7.121 -0.3746 -0.6118 -0.2842
 2621TIP3    H229499   2.580   5.160   7.164  2.4191 -0.8469  0.9085
 2622TIP3   OH229500   2.698   2.567   1.495 -0.3890 -0.1005  0.3455
 2622TIP3    H129501   2.747   2.527   1.423 -1.2801 -0.1813 -0.2250
 2622TIP3    H229502   2.616   2.596   1.456 -0.1017  1.5842  0.9166
 2623TIP3   OH229503   4.452   0.269   2.103 -0.4539 -0.0221 -0.2690
 2623TIP3    H129504   4.439   0.320   2.023  0.7704  1.1156  0.2101
 2623TIP3    H229505   4.369   0.225   2.118 -1.7449  2.2500 -0.4389
 2624TIP3   OH229506   2.178   1.762   7.753  0.0570 -0.3548  0.0097
 2624TIP3    H129507   2.151   1.842   7.798 -1.5668 -1.0419  0.3182
 2624TIP3    H229508   2.130   1.692   7.797  2.6150 -1.7519  0.7907
 2625TIP3   OH229509   3.376   3.840   8.708  0.3192 -0.1421 -0.3021
 2625TIP3    H129510   3.324   3.846   8.627  1.3128  0.4909 -0.9183
 2625TIP3    H229511   3.464   3.865   8.681  1.0279 -1.4948  0.6524
 2626TIP3   OH229512   2.546   5.044   7.000 -0.4109 -0.2326 -0.1323
 2626TIP3    H129513   2.536   4.956   6.964 -0.6508 -0.0319 -0.5513
 2626TIP3    H229514   2.507   5.102   6.935  1.2961  0.3511 -0.6782
 2627TIP3   OH229515   4.379   3.071   1.290 -0.4832  0.1565 -0.1333
 2627TIP3    H129516   4.291   3.104   1.276 -0.8028 -0.1050  1.1306
 2627TIP3    H229517   4.369   3.000   1.354  0.6183  0.0197 -0.0827
 2628TIP3   OH229518   3.557   6.376   7.592 -0.2007  0.2124 -0.3539
 2628TIP3    H129519   3.593   6.420   7.515  0.6602 -0.1700 -0.1691
 2628TIP3    H229520   3.582   6.432   7.665  1.7480 -1.0417 -0.0013
 2629TIP3   OH229521   6.253   1.214   1.742  0.3240  0.2825 -0.2429
 2629TIP3    H129522   6.343   1.209   1.775  0.2136 -1.7274 -0.1462
 2629TIP3    H229523   6.207   1.141   1.784 -0.7700 -0.0844 -1.9701
 2630TIP3   OH229524   2.668   4.080   0.068  0.5361 -0.0648 -0.4210
 2630TIP3    H129525   2.697   4.018   0.001 -0.4349  0.4405 -1.3277
 2630TIP3    H229526   2.619   4.147   0.020 -0.0737  0.3790  0.7756
 2631TIP3   OH229527   5.556   5.109   8.779  0.3103  0.0606  0.1540
 2631TIP3    H129528   5.494   5.065   8.837 -0.8109  0.9226 -0.3399
 2631TIP3    H229529   5.599   5.038   8.732  0.6140 -0.6069  1.4019
 2632TIP3   OH229530   1.931   5.674   1.034  0.3319 -0.0900 -0.6464
 2632TIP3    H129531   1.942   5.765   1.008  0.0745 -0.0174 -0.4977
 2632TIP3    H229532   1.972   5.668   1.120 -1.4603  0.3732  0.2859
 2633TIP3   OH229533   0.686   6.389   2.001 -0.3094  0.3860  0.6187
 2633TIP3    H129534   0.724   6.313   2.046 -1.3077 -0.0658  0.7354
 2633TIP3    H229535   0.668   6.452   2.071  0.9275  0.9185  0.4673
 2634TIP3   OH229536   1.608   1.814   0.600  1.0695 -0.2470 -0.2545
 2634TIP3    H129537   1.515   1.833   0.589  1.2727  0.1697 -1.4588
 2634TIP3    H229538   1.628   1.753   0.529  1.6103 -0.7044  0.2894
 2635TIP3   OH229539   3.908   2.970   8.427  0.3586 -0.6616  0.2453
 2635TIP3    H129540   3.924   3.024   8.350 -0.2211 -0.4056  0.2947
 2635TIP3    H229541   3.914   2.880   8.396  1.0682 -0.5681  0.1054
 2636TIP3   OH229542   5.196   6.351   7.400  0.8531  0.2273  0.0900
 2636TIP3    H129543   5.183   6.257   7.413 -1.6155  0.7708  2.3963
 2636TIP3    H229544   5.165   6.367   7.311  2.4373 -1.2478 -0.7907
 2637TIP3   OH229545   5.069   0.518   6.811 -0.0636 -0.5246 -0.7194
 2637TIP3    H129546   5.149   0.528   6.761  0.6896  0.7253  0.6713
 2637TIP3    H229547   5.003   0.568   6.762  0.4658  0.0520 -0.8422
 2638TIP3   OH229548   1.883   3.587   7.033 -0.3196 -0.1701 -0.5079
 2638TIP3    H129549   1.881   3.557   6.942 -0.6217 -0.2181 -0.4876
 2638TIP3    H229550   1.881   3.682   7.028 -1.4921 -0.1751 -0.5389
 2639TIP3   OH229551   2.557   3.460   8.386 -0.6950  0.2651 -0.3442
 2639TIP3    H129552   2.485   3.522   8.377 -0.8748 -0.0517 -1.1720
 2639TIP3    H229553   2.589   3.473   8.475 -0.3329  1.9794 -0.6798
 2640TIP3   OH229554   1.882   0.283   8.682 -0.5414 -0.7297  0.3211
 2640TIP3    H129555   1.793   0.305   8.708 -0.8303 -0.3341 -0.9219
 2640TIP3    H229556   1.936   0.355   8.715 -0.6166 -1.1308  1.3554
 2641TIP3   OH229557   5.275   0.080   2.119  0.1342  0.7073 -0.7117
 2641TIP3    H129558   5.311   0.143   2.181 -1.2841  0.8947 -0.0489
 2641TIP3    H229559   5.255   0.132   2.041  1.4505  0.5639 -1.1622
 2642TIP3   OH229560   6.589   3.555   8.673 -0.0117  0.2853  0.1909
 2642TIP3    H129561   6.579   3.538   8.766  2.4343 -0.7908  0.3268
 2642TIP3    H229562   6.583   3.650   8.666 -0.1059  0.3934  1.4362
 2643TIP3   OH229563   5.573   1.276   7.593  0.2649 -0.5886  0.0199
 2643TIP3    H129564   5.665   1.259   7.611  0.8496  1.6615 -0.5055
 2643TIP3    H229565   5.526   1.205   7.637  2.2420 -1.9757  0.0130
 2644TIP3   OH229566   4.736   1.133   0.691 -0.3441 -0.4355  0.2122
 2644TIP3    H129567   4.698   1.045   0.686  0.1724 -0.6189 -0.8608
 2644TIP3    H229568   4.831   1.119   0.682 -0.3116  0.2690 -0.7486
 2645TIP3   OH229569   0.574   0.975   0.458 -0.7019  0.3367 -0.0259
 2645TIP3    H129570   0.542   0.911   0.395  0.5864  0.7127 -1.1149
 2645TIP3    H229571   0.558   1.060   0.417 -0.4787  0.6135  0.4509
 2646TIP3   OH229572   5.304   5.412   0.906  0.4763 -0.3289  0.2510
 2646TIP3    H129573   5.288   5.346   0.973  0.0566 -0.2615  0.2241
 2646TIP3    H229574   5.289   5.367   0.823 -1.0157  0.0892  0.2618
 2647TIP3   OH229575   4.389   1.522   8.673 -0.5225 -0.0351  0.3296
 2647TIP3    H129576   4.297   1.501   8.686 -0.2633 -0.4793  1.6282
 2647TIP3    H229577   4.404   1.602   8.724  0.0251 -0.5527  1.0107
 2648TIP3   OH229578   3.261   0.254   2.438 -0.2760 -0.4771  0.0527
 2648TIP3    H129579   3.246   0.339   2.398 -1.4348 -0.2309  0.9584
 2648TIP3    H229580   3.179   0.206   2.424 -0.2208 -0.8499  0.9519
 2649TIP3   OH229581   3.842   4.034   6.858  0.1378  0.0762 -0.2347
 2649TIP3    H129582   3.865   4.031   6.766 -0.4711  1.9483 -0.4813
 2649TIP3    H229583   3.801   3.949   6.876  1.6081 -0.8938 -1.2771
 2650TIP3   OH229584   2.970   4.196   7.431 -0.2378 -0.7643 -0.2456
 2650TIP3    H129585   2.933   4.274   7.472  0.0101 -0.6654 -0.2078
 2650TIP3    H229586   3.055   4.184   7.473  0.3830 -0.1847 -1.2856
 2651TIP3   OH229587   4.513   4.044   0.274  0.0486 -0.0967  0.4537
 2651TIP3    H129588   4.567   4.084   0.341  2.1560 -0.8108 -0.7327
 2651TIP3    H229589   4.559   4.061   0.192 -1.6242 -0.6081 -0.6550
 2652TIP3   OH229590   0.937   3.249   2.425 -0.0263  0.3781 -0.3303
 2652TIP3    H129591   0.896   3.246   2.339  1.0415 -2.2609 -0.8575
 2652TIP3    H229592   1.024   3.286   2.409 -0.0665  0.4984 -0.2700
 2653TIP3   OH229593   1.396   5.953   7.672 -0.7870  0.2117  0.4810
 2653TIP3    H129594   1.436   6.027   7.717  0.3789  0.3137 -0.6617
 2653TIP3    H229595   1.423   5.877   7.723 -0.2581  0.4031  0.4929
 2654TIP3   OH229596   2.604   6.587   1.879 -0.1775 -0.2540 -0.0118
 2654TIP3    H129597   2.594   6.517   1.944  0.7896 -1.0655 -0.7146
 2654TIP3    H229598   2.651   6.656   1.927  0.6409 -0.8949  0.1393
 2655TIP3   OH229599   6.528   5.269   2.032  0.2271  0.1894 -0.5497
 2655TIP3    H129600   6.542   5.349   2.082  0.6567 -0.0379 -0.2906
 2655TIP3    H229601   6.434   5.263   2.020  0.0678 -0.0952  0.8052
 2656TIP3   OH229602   0.812   1.117   6.349 -0.1422  0.0361  0.6504
 2656TIP3    H129603   0.724   1.146   6.324 -0.2558 -0.9505 -0.1594
 2656TIP3    H229604   0.809   1.022   6.342  1.2647  0.0321 -0.3409
 2657TIP3   OH229605   1.454   1.438   2.918 -0.2896  0.3366 -0.4162
 2657TIP3    H129606   1.432   1.509   2.978 -0.1701 -0.6716  0.8719
 2657TIP3    H229607   1.545   1.456   2.893  0.5333 -0.4952  1.6749
 2658TIP3   OH229608   4.403   3.449   0.389  0.1741 -0.3604  0.1369
 2658TIP3    H129609   4.373   3.463   0.299  1.4447  0.8838 -0.1092
 2658TIP3    H229610   4.436   3.534   0.417 -0.5424 -0.6317  1.9369
 2659TIP3   OH229611   2.607   1.249   1.524 -0.0609 -0.3508 -0.3373
 2659TIP3    H129612   2.513   1.247   1.502 -0.4707 -3.1200  1.1416
 2659TIP3    H229613   2.641   1.168   1.486  1.8116  0.6769 -0.9424
 2660TIP3   OH229614   6.184   6.157   8.809 -0.3604  0.0512  0.0383
 2660TIP3    H129615   6.158   6.233   8.861 -0.2694 -1.3801  2.2978
 2660TIP3    H229616   6.243   6.192   8.743 -1.0854  2.0681  0.3952
 2661TIP3   OH229617   6.157   2.584   2.444  0.5225 -0.0498  0.4412
 2661TIP3    H129618   6.189   2.551   2.527  1.8603 -0.0474 -0.0534
 2661TIP3    H229619   6.221   2.650   2.417 -0.7142  1.0876  0.1485
 2662TIP3   OH229620   1.438   2.980   0.433 -0.3542  0.9338 -0.4324
 2662TIP3    H129621   1.422   3.074   0.442 -3.8749  0.4142  0.2590
 2662TIP3    H229622   1.399   2.957   0.349  0.1279  0.0050 -0.4169
 2663TIP3   OH229623   4.958   2.465   8.151 -0.7086 -0.4432 -0.0077
 2663TIP3    H129624   4.979   2.532   8.216  0.0857 -0.6291 -0.0650
 2663TIP3    H229625   4.982   2.505   8.067  0.6563 -1.1326  0.0366
 2664TIP3   OH229626   2.738   5.485   8.001 -0.0774  0.0613 -0.5851
 2664TIP3    H129627   2.651   5.466   7.966 -0.1602 -0.5968 -0.0504
 2664TIP3    H229628   2.721   5.525   8.087  0.1272  1.3021 -1.1075
 2665TIP3   OH229629   2.975   2.853   8.727 -0.1656  0.0931 -0.0564
 2665TIP3    H129630   3.011   2.939   8.746  0.6714  0.4113 -2.6303
 2665TIP3    H229631   2.884   2.869   8.704 -0.4171  0.0702  0.8962
 2666TIP3   OH229632   5.485   2.059   7.708 -0.1626  0.0922 -0.2096
 2666TIP3    H129633   5.554   2.009   7.666  1.4666  1.5373  0.6359
 2666TIP3    H229634   5.518   2.078   7.796 -0.4015  3.1067 -0.6542
 2667TIP3   OH229635   5.175   1.219   7.320 -0.0803 -0.3426  0.1812
 2667TIP3    H129636   5.269   1.200   7.319  0.3420  1.5511  0.2888
 2667TIP3    H229637   5.148   1.206   7.411  0.7781  1.9704  0.8463
 2668TIP3   OH229638   5.060   4.332   7.112 -0.0830 -0.2332  0.2187
 2668TIP3    H129639   5.066   4.411   7.058 -1.4819 -0.8626 -0.9139
 2668TIP3    H229640   5.129   4.274   7.079  1.1678  0.5918  1.2693
 2669TIP3   OH229641   1.170   2.144   1.250  0.0537  0.6213 -0.7629
 2669TIP3    H129642   1.081   2.180   1.244  0.3228  1.3685 -0.4119
 2669TIP3    H229643   1.157   2.052   1.273 -0.6262  0.8393 -0.2194
 2670TIP3   OH229644   3.401   6.233   8.507 -0.4321 -0.4180  0.2987
 2670TIP3    H129645   3.371   6.311   8.554  0.2290 -0.6511  1.1416
 2670TIP3    H229646   3.494   6.250   8.492 -0.4988 -0.6329 -0.3605
 2671TIP3   OH229647   2.377   2.772   8.295  0.1493 -0.1750  0.3798
 2671TIP3    H129648   2.337   2.686   8.307 -1.3006  0.4900  0.6426
 2671TIP3    H229649   2.308   2.824   8.254  0.6253  1.1503  1.2081
 2672TIP3   OH229650   4.298   3.318   0.145  0.0605 -0.2642  0.5108
 2672TIP3    H129651   4.345   3.237   0.164 -1.4625 -1.4905 -0.6538
 2672TIP3    H229652   4.210   3.289   0.119 -0.8250  1.8269  0.9703
 2673TIP3   OH229653   0.166   2.183   6.975  0.1677 -0.4638  0.3352
 2673TIP3    H129654   0.159   2.130   7.055 -0.4965 -0.1929  0.4661
 2673TIP3    H229655   0.144   2.272   7.004  0.7770 -0.2103  0.0165
 2674TIP3   OH229656   3.497   1.632   8.584 -0.1968 -0.3717 -0.6990
 2674TIP3    H129657   3.506   1.622   8.489  0.4109 -0.1802 -0.6685
 2674TIP3    H229658   3.437   1.706   8.594  1.7232  1.3320 -0.9778
 2675TIP3   OH229659   4.529   2.787   1.127  0.0894 -0.1361 -0.0589
 2675TIP3    H129660   4.558   2.871   1.162  0.1237 -0.1813  0.0199
 2675TIP3    H229661   4.481   2.746   1.198 -1.7987  0.7453 -0.7670
 2676TIP3   OH229662   3.719   3.309   8.472 -0.2112  0.1591 -0.5196
 2676TIP3    H129663   3.806   3.336   8.440 -0.7276  2.1566 -0.4037
 2676TIP3    H229664   3.736   3.273   8.559  0.5197  0.4342 -0.5365
 2677TIP3   OH229665   3.542   2.064   6.452 -0.1310 -0.1972  0.3275
 2677TIP3    H129666   3.623   2.055   6.401 -0.2446 -2.3514  0.4422
 2677TIP3    H229667   3.561   2.134   6.514 -0.1449  2.9087 -2.8540
 2678TIP3   OH229668   3.186   5.599   1.188 -0.1105 -0.7615  0.2452
 2678TIP3    H129669   3.167   5.520   1.138  1.1808 -0.7766 -0.2584
 2678TIP3    H229670   3.181   5.572   1.280 -1.1584 -1.0535  0.1108
 2679TIP3   OH229671   5.721   4.471   1.555  0.1401 -0.3772  0.3301
 2679TIP3    H129672   5.755   4.389   1.590 -0.1348 -0.8753 -0.5125
 2679TIP3    H229673   5.776   4.539   1.593  1.3362 -1.0669 -0.0960
 2680TIP3   OH229674   6.764   1.413   8.159 -0.3127  0.1076  0.3809
 2680TIP3    H129675   6.804   1.412   8.073 -2.0477  0.7693 -0.4900
 2680TIP3    H229676   6.825   1.463   8.213  1.1316 -0.9062 -0.2548
 2681TIP3   OH229677   3.313   4.428   0.203  0.1084 -0.3704 -0.4615
 2681TIP3    H129678   3.271   4.510   0.179  0.7387 -0.0373 -0.4462
 2681TIP3    H229679   3.393   4.426   0.152  0.2218 -0.8577 -0.2745
 2682TIP3   OH229680   2.772   0.324   1.832  0.5414  0.1698  1.0191
 2682TIP3    H129681   2.719   0.312   1.912  0.7735  0.2884  1.1912
 2682TIP3    H229682   2.785   0.235   1.799  0.2150  0.1400  0.9622
 2683TIP3   OH229683   3.351   4.038   8.209 -1.4634  0.1355  0.0537
 2683TIP3    H129684   3.399   3.970   8.258 -1.4667  1.2359  1.6863
 2683TIP3    H229685   3.259   4.016   8.222 -1.4481 -0.4468 -0.7858
 2684TIP3   OH229686   1.781   2.566   8.200 -0.0123 -0.2666 -0.3568
 2684TIP3    H129687   1.832   2.507   8.255 -0.6252 -0.4735 -0.0029
 2684TIP3    H229688   1.690   2.536   8.209 -0.8491  2.5076  2.2292
 2685TIP3   OH229689   6.442   1.548   8.679 -0.1442 -0.2525 -0.3705
 2685TIP3    H129690   6.450   1.611   8.751 -0.6111  0.4949 -0.9587
 2685TIP3    H229691   6.358   1.504   8.694 -0.2381 -0.1016 -0.4560
 2686TIP3   OH229692   4.108   0.343   1.805  0.1478  0.5210 -0.0078
 2686TIP3    H129693   4.156   0.261   1.814  0.5571  0.8299  0.6597
 2686TIP3    H229694   4.150   0.403   1.867 -1.0546  0.8185  0.5335
 2687TIP3   OH229695   3.600   2.138   0.578  0.3250  0.1375 -0.4479
 2687TIP3    H129696   3.528   2.201   0.588 -2.0500 -2.5281  0.8175
 2687TIP3    H229697   3.676   2.183   0.616 -1.3638  2.0332  0.9599
 2688TIP3   OH229698   4.995   1.460   6.403 -0.0267  0.3179  0.0023
 2688TIP3    H129699   4.902   1.451   6.427  0.4540  0.4291  2.1494
 2688TIP3    H229700   5.029   1.371   6.406 -0.4338 -0.0211 -2.8163
 2689TIP3   OH229701   1.750   2.729   2.910  0.0265 -0.0543 -0.4081
 2689TIP3    H129702   1.745   2.647   2.960  0.5759  0.3901  0.4112
 2689TIP3    H229703   1.827   2.773   2.946 -0.4232  0.9415 -0.6558
 2690TIP3   OH229704   0.567   2.055   0.708 -0.2304  0.0020  0.2515
 2690TIP3    H129705   0.647   2.089   0.746  1.7964  0.4400 -3.8383
 2690TIP3    H229706   0.574   1.960   0.716  1.2202 -0.0140 -0.7880
 2691TIP3   OH229707   3.374   0.132   7.200  0.2761  0.0454  0.5886
 2691TIP3    H129708   3.400   0.213   7.243  1.7629 -0.7130  1.2009
 2691TIP3    H229709   3.422   0.132   7.117 -0.8725  0.4713 -0.0888
 2692TIP3   OH229710   1.498   3.140   7.512  0.4291 -0.2396 -0.5881
 2692TIP3    H129711   1.411   3.110   7.487  0.0158  0.2299  0.2643
 2692TIP3    H229712   1.483   3.203   7.582  1.5641 -1.8397  1.2117
 2693TIP3   OH229713   5.926   5.433   7.289 -0.2778  0.1745 -0.2371
 2693TIP3    H129714   5.869   5.394   7.356  0.1042  0.0704  0.0285
 2693TIP3    H229715   6.015   5.422   7.323 -0.2112  2.4842  0.4839
 2694TIP3   OH229716   1.565   3.655   1.311  0.6009 -0.1459 -0.8888
 2694TIP3    H129717   1.618   3.724   1.350  0.0427  0.3201 -0.9405
 2694TIP3    H229718   1.628   3.588   1.284  1.4001  1.3492 -2.9594
 2695TIP3   OH229719   6.466   5.701   7.757  0.0148 -0.1609 -0.2638
 2695TIP3    H129720   6.498   5.697   7.847 -2.1535 -0.8434  0.5555
 2695TIP3    H229721   6.515   5.773   7.717  1.5269 -0.2939  1.2412
 2696TIP3   OH229722   5.192   4.971   8.321  0.3582 -0.0546  0.0363
 2696TIP3    H129723   5.205   4.976   8.226 -0.5622 -0.2871 -0.1093
 2696TIP3    H229724   5.252   5.037   8.356  0.0457  0.6732 -0.7670
 2697TIP3   OH229725   1.402   3.050   8.327 -0.1397 -0.0985 -0.5223
 2697TIP3    H129726   1.324   3.101   8.351 -1.0584 -0.9856 -1.5090
 2697TIP3    H229727   1.368   2.980   8.271  1.3910 -0.4442 -1.0552
 2698TIP3   OH229728   2.153   3.995   8.397  0.3307 -0.3671  0.2286
 2698TIP3    H129729   2.094   3.991   8.472 -0.4885  1.4253 -0.2550
 2698TIP3    H229730   2.099   3.968   8.322 -0.2192  2.0193 -0.3407
 2699TIP3   OH229731   6.313   3.157   6.842  0.6380  0.4641 -0.0600
 2699TIP3    H129732   6.240   3.096   6.835 -1.1852  2.4600  0.6093
 2699TIP3    H229733   6.385   3.105   6.878 -0.2096 -1.7094 -1.3408
 2700TIP3   OH229734   4.101   5.585   0.017 -0.1417 -0.1579 -0.0835
 2700TIP3    H129735   4.134   5.669  -0.014  0.5286 -0.6066 -0.6070
 2700TIP3    H229736   4.046   5.553  -0.055 -1.0724  0.1988  0.4455
 2701TIP3   OH229737   3.515   3.885   0.893 -0.1091  0.0732  0.4554
 2701TIP3    H129738   3.426   3.911   0.917 -0.1293  0.2220  0.2199
 2701TIP3    H229739   3.548   3.840   0.971 -1.5379 -2.9292 -0.4877
 2702TIP3   OH229740   0.189   2.385   8.623 -0.6542  0.2334 -0.2320
 2702TIP3    H129741   0.193   2.375   8.528 -2.1373  2.2191 -0.5631
 2702TIP3    H229742   0.219   2.474   8.639  0.7739 -0.4636  1.3240
 2703TIP3   OH229743   6.482   4.679   8.011  0.1758 -0.4302 -0.6573
 2703TIP3    H129744   6.454   4.677   7.919  0.2850  0.7535 -0.7398
 2703TIP3    H229745   6.502   4.588   8.032  2.1980 -0.5054 -2.4671
 2704TIP3   OH229746   6.517   1.180   1.791 -0.0314 -0.2647  0.5418
 2704TIP3    H129747   6.554   1.154   1.876  0.9648 -0.4454  0.0597
 2704TIP3    H229748   6.550   1.115   1.729  0.0392  0.4268 -0.1604
 2705TIP3   OH229749   2.499   6.535   7.478 -0.0905  0.0009 -0.6458
 2705TIP3    H129750   2.583   6.489   7.479 -0.1231 -0.0547 -0.3101
 2705TIP3    H229751   2.434   6.465   7.469 -0.0650  0.1068 -1.8380
 2706TIP3   OH229752   2.237   2.739   7.751 -0.0978 -0.3670  0.4068
 2706TIP3    H129753   2.205   2.650   7.763 -0.5969 -0.1221  0.9738
 2706TIP3    H229754   2.173   2.793   7.797 -0.5474  0.4032 -1.0354
 2707TIP3   OH229755   0.531   5.433   6.297 -0.1635  0.2612  0.1296
 2707TIP3    H129756   0.627   5.432   6.290 -0.1889  2.0922 -1.4915
 2707TIP3    H229757   0.512   5.508   6.353 -0.6617 -1.7535  2.8568
 2708TIP3   OH229758   5.853   2.301   1.550 -0.2662 -0.0044  0.3455
 2708TIP3    H129759   5.777   2.345   1.588 -0.1307 -0.8776  1.6791
 2708TIP3    H229760   5.857   2.334   1.460 -0.8205  1.8463  0.9516
 2709TIP3   OH229761   5.734   2.054   0.040 -0.2092 -0.3760  0.2044
 2709TIP3    H129762   5.682   2.124   0.001  0.2769 -0.2233 -0.1863
 2709TIP3    H229763   5.792   2.025  -0.030 -0.0725 -0.8416  0.5026
 2710TIP3   OH229764   5.874   2.925   7.835  0.1465 -0.3370  0.0011
 2710TIP3    H129765   5.967   2.928   7.812  0.0383  0.7407 -0.3726
 2710TIP3    H229766   5.858   2.834   7.859  1.0331 -0.7933 -1.0400
 2711TIP3   OH229767   2.727   3.709   8.049 -0.3366 -0.3279  0.0468
 2711TIP3    H129768   2.663   3.638   8.042 -0.3768 -0.5780  2.1730
 2711TIP3    H229769   2.696   3.776   7.988 -1.1752 -1.5034 -0.8490
 2712TIP3   OH229770   6.233   1.113   2.056  0.0740  0.1362 -0.5375
 2712TIP3    H129771   6.282   1.108   2.138 -0.8673 -0.7383 -0.0033
 2712TIP3    H229772   6.167   1.044   2.063 -0.3455  0.3770 -1.8224
 2713TIP3   OH229773   0.754   4.545   2.143 -0.1963  0.3183 -0.1568
 2713TIP3    H129774   0.806   4.520   2.219  0.9203  2.2598 -0.2093
 2713TIP3    H229775   0.810   4.525   2.068  0.3394  1.9532 -0.2379
 2714TIP3   OH229776   2.091   4.411   8.586 -0.2364 -0.4088  0.4705
 2714TIP3    H129777   2.147   4.476   8.628  0.1814 -0.4727  0.0140
 2714TIP3    H229778   2.150   4.359   8.532 -0.4831 -1.4936  1.2063
 2715TIP3   OH229779   4.797   6.006   6.976 -0.6021 -0.4858 -0.3736
 2715TIP3    H129780   4.807   6.101   6.983  0.9095 -0.6241 -0.2354
 2715TIP3    H229781   4.848   5.983   6.899  0.0089 -1.2960  0.2535
 2716TIP3   OH229782   4.672   2.734   7.948  0.5334  0.8147  0.1569
 2716TIP3    H129783   4.700   2.795   7.880  1.3126 -0.6489 -0.9148
 2716TIP3    H229784   4.713   2.767   8.028  1.4205  1.3651 -0.5033
 2717TIP3   OH229785   6.598   6.437   0.535 -0.0019  0.1662  0.3126
 2717TIP3    H129786   6.516   6.397   0.506  0.2832 -1.2103  1.2946
 2717TIP3    H229787   6.613   6.509   0.474 -1.4086 -0.2054 -0.5084
 2718TIP3   OH229788   4.047   3.105   7.695  0.4000  0.6930 -0.2384
 2718TIP3    H129789   4.123   3.106   7.637  0.7176  0.3426  0.1632
 2718TIP3    H229790   4.037   3.196   7.724  2.7056  0.2761  2.2959
 2719TIP3   OH229791   4.729   0.999   7.587 -0.4178 -0.0896 -0.3166
 2719TIP3    H129792   4.647   0.951   7.573 -1.5994  1.5834  0.5225
 2719TIP3    H229793   4.714   1.084   7.546  0.6109  0.5242  0.5399
 2720TIP3   OH229794   5.849   0.594   7.482  0.2501  0.3971  0.8680
 2720TIP3    H129795   5.813   0.560   7.400 -0.1469 -1.3666  1.7226
 2720TIP3    H229796   5.777   0.645   7.520 -0.4771 -0.8877  1.2902
 2721TIP3   OH229797   1.505   2.495   8.110  0.4452 -0.2358  0.1211
 2721TIP3    H129798   1.485   2.503   8.016  2.6571 -0.1291 -0.3966
 2721TIP3    H229799   1.443   2.429   8.141  0.2885 -1.0019 -1.6544
 2722TIP3   OH229800   5.051   4.832   0.322 -0.1444  0.0997  0.0496
 2722TIP3    H129801   4.986   4.899   0.302  0.7615  1.5007  1.5292
 2722TIP3    H229802   5.082   4.855   0.410  1.8038 -0.9648 -0.3125
 2723TIP3   OH229803   4.079   1.942   7.992  0.1399 -0.6596 -0.3859
 2723TIP3    H129804   4.089   1.908   8.081 -0.8571 -1.3967 -0.5477
 2723TIP3    H229805   4.118   2.030   7.996  1.7289 -1.3617  0.3121
 2724TIP3   OH229806   5.695   5.861   7.270  0.4968 -0.0263 -0.0952
 2724TIP3    H129807   5.758   5.794   7.295 -1.6945 -1.5238  1.8654
 2724TIP3    H229808   5.639   5.871   7.347 -1.5796  1.2736 -1.6627
 2725TIP3   OH229809   1.575   0.223   7.519  0.3694  0.5774  0.4543
 2725TIP3    H129810   1.547   0.148   7.467 -0.9061  1.5762 -0.3497
 2725TIP3    H229811   1.617   0.184   7.597  2.3753 -0.9556 -1.2728
 2726TIP3   OH229812   5.681   4.072   7.656  0.1179 -0.0444  0.5393
 2726TIP3    H129813   5.650   3.982   7.648 -0.7633  0.3495 -0.9750
 2726TIP3    H229814   5.758   4.076   7.600 -1.9695  0.9755 -2.5453
 2727TIP3   OH229815   5.516   6.183   7.507  0.1226 -0.0751  0.2169
 2727TIP3    H129816   5.599   6.146   7.538  0.5169 -1.2065 -2.0013
 2727TIP3    H229817   5.449   6.144   7.563  0.9261 -0.6567  0.7921
 2728TIP3   OH229818   2.327   6.657   8.847  0.6772  0.6441 -0.6204
 2728TIP3    H129819   2.319   6.613   8.932 -0.9161  2.1484  0.0767
 2728TIP3    H229820   2.344   6.586   8.785 -1.1029 -0.9085  0.5311
 2729TIP3   OH229821   4.367   2.747   0.398  0.0195  0.2695  0.8238
 2729TIP3    H129822   4.434   2.689   0.361 -0.8123  0.2177 -0.7111
 2729TIP3    H229823   4.378   2.740   0.492  0.6582 -1.5574  0.6501
 2730TIP3   OH229824   2.912   5.267   8.008 -0.5513  0.4181 -0.0934
 2730TIP3    H129825   2.997   5.303   8.032 -0.5898 -0.0887  0.8492
 2730TIP3    H229826   2.850   5.339   8.025 -0.3338  0.7463 -0.6663
 2731TIP3   OH229827   3.195   3.030   8.320 -0.5585 -0.0627 -0.1521
 2731TIP3    H129828   3.124   3.019   8.256 -0.6373  0.9014 -0.2391
 2731TIP3    H229829   3.195   2.947   8.368 -0.5383 -0.7888 -1.3405
 2732TIP3   OH229830   4.501   5.295   8.194  0.0119  0.1815  0.3387
 2732TIP3    H129831   4.415   5.297   8.152  0.1357 -0.7376  0.0062
 2732TIP3    H229832   4.499   5.216   8.248  0.2213  0.8066  1.2833
 2733TIP3   OH229833   0.575   6.684   8.487 -0.1798  0.3168  1.1957
 2733TIP3    H129834   0.644   6.628   8.523 -0.4155  0.9367  2.7158
 2733TIP3    H229835   0.539   6.728   8.564 -0.1748  2.3576  0.0974
 2734TIP3   OH229836   1.124   0.281   0.793 -0.1956 -0.1017  0.7127
 2734TIP3    H129837   1.200   0.258   0.847 -0.0846 -2.1171 -0.2204
 2734TIP3    H229838   1.052   0.291   0.855  0.6190  1.0404  1.5327
 2735TIP3   OH229839   5.728   2.567   8.348 -0.5007 -0.2608  0.6560
 2735TIP3    H129840   5.726   2.522   8.264  2.0215  0.6049  0.0178
 2735TIP3    H229841   5.638   2.595   8.363 -1.1654 -1.1322 -1.3736
 2736TIP3   OH229842   5.033   4.155   0.779 -0.1252  0.0834  0.7524
 2736TIP3    H129843   5.044   4.222   0.711 -3.1882 -0.7173 -0.6919
 2736TIP3    H229844   4.975   4.195   0.843 -0.3624 -0.4777  0.8945
 2737TIP3   OH229845   1.649   4.191   1.854  0.2152 -0.4201  0.2072
 2737TIP3    H129846   1.652   4.199   1.758  2.7337  0.1241  0.2595
 2737TIP3    H229847   1.704   4.114   1.873 -0.9283 -1.0164  1.1965
 2738TIP3   OH229848   4.983   2.338   2.243 -0.3636 -0.1439 -0.4191
 2738TIP3    H129849   4.903   2.371   2.203  0.0645 -1.5560 -2.6640
 2738TIP3    H229850   4.965   2.245   2.259 -0.6175  0.3932  3.1668
 2739TIP3   OH229851   4.946   2.705   7.552 -0.3392 -0.1453  0.0713
 2739TIP3    H129852   4.928   2.618   7.587 -0.9521  0.2726  0.8321
 2739TIP3    H229853   4.891   2.764   7.604  0.8443  0.8200  0.3007
 2740TIP3   OH229854   3.173   6.017   7.508  0.6098 -0.2543 -0.4903
 2740TIP3    H129855   3.140   5.932   7.535  1.1079  0.0134  1.1075
 2740TIP3    H229856   3.251   6.031   7.563  0.4341  1.2949 -0.5736
 2741TIP3   OH229857   1.996   5.935   0.960  0.6838 -0.9148  0.5526
 2741TIP3    H129858   2.033   6.011   1.005  0.5423 -0.6785  0.2738
 2741TIP3    H229859   1.915   5.967   0.920  0.5939 -1.2251  0.4802
 2742TIP3   OH229860   5.565   4.439   7.863  0.1254 -0.3724  0.5161
 2742TIP3    H129861   5.495   4.459   7.925  2.3739 -2.0937  3.9774
 2742TIP3    H229862   5.620   4.518   7.863  0.5691 -0.6541  1.5333
 2743TIP3   OH229863   2.033   5.312   1.059 -0.4762 -0.1208  0.1517
 2743TIP3    H129864   2.111   5.309   1.113 -0.0588  0.4723 -0.4014
 2743TIP3    H229865   1.961   5.290   1.119 -0.2173  1.9833  1.3405
 2744TIP3   OH229866   5.453   4.694   6.720  0.2168  0.1794  0.5964
 2744TIP3    H129867   5.424   4.759   6.656 -0.9645 -1.1256 -0.2818
 2744TIP3    H229868   5.545   4.680   6.700 -0.0093  0.1640 -0.5248
 2745TIP3   OH229869   6.421   5.728   1.467  0.0394 -0.3608 -0.1542
 2745TIP3    H129870   6.408   5.646   1.515 -0.1183  0.3241  1.0015
 2745TIP3    H229871   6.405   5.797   1.531  1.1897  0.5866 -0.8402
 2746TIP3   OH229872   2.121   0.828   7.479 -0.5793 -0.4875  0.0393
 2746TIP3    H129873   2.117   0.889   7.406  1.3401 -0.4870 -0.1176
 2746TIP3    H229874   2.069   0.870   7.548 -0.2080  0.7961 -0.4327
 2747TIP3   OH229875   4.975   2.875   7.251 -0.5039  0.2120  0.5577
 2747TIP3    H129876   4.880   2.877   7.268 -0.8824  2.1049 -1.2632
 2747TIP3    H229877   4.995   2.783   7.235 -2.2640 -0.1127  0.0129
 2748TIP3   OH229878   0.702   3.329   1.174  0.1892  0.1787  0.1194
 2748TIP3    H129879   0.768   3.275   1.131 -0.8276 -1.2396  0.2395
 2748TIP3    H229880   0.661   3.269   1.237  0.0545  1.5451  1.3680
 2749TIP3   OH229881   5.250   3.195   0.985  0.2580  0.1444  0.5324
 2749TIP3    H129882   5.216   3.263   0.927 -2.8623 -2.3518 -0.8444
 2749TIP3    H229883   5.330   3.164   0.941 -0.4328  0.2916 -0.8900
 2750TIP3   OH229884   2.725   0.901   8.776  0.1452 -0.1103 -0.6439
 2750TIP3    H129885   2.745   0.810   8.754  0.6375 -0.0378 -0.4925
 2750TIP3    H229886   2.793   0.952   8.732 -0.1531  0.1915 -0.7648
 2751TIP3   OH229887   6.323   6.167   8.569  0.3373  0.2351  0.0983
 2751TIP3    H129888   6.310   6.203   8.481  1.1915 -1.9459 -0.9852
 2751TIP3    H229889   6.289   6.078   8.564 -1.9368  0.8348  2.7711
 2752TIP3   OH229890   5.856   5.315   1.277  0.3531 -0.6544  0.0140
 2752TIP3    H129891   5.866   5.227   1.313  3.3130  0.1281  1.4893
 2752TIP3    H229892   5.790   5.356   1.332  1.3995 -0.9651  1.5593
 2753TIP3   OH229893   2.491   5.132   7.936 -0.3533  0.8458  0.1219
 2753TIP3    H129894   2.503   5.164   7.846 -1.9165  0.5592 -0.2203
 2753TIP3    H229895   2.523   5.042   7.933 -0.4055  0.8352 -0.1458
 2754TIP3   OH229896   1.773   1.644   8.624  0.7265  0.3828 -0.6954
 2754TIP3    H129897   1.833   1.571   8.608 -1.7122 -1.7185 -0.9581
 2754TIP3    H229898   1.795   1.673   8.712 -0.0116 -2.6996  0.6754
 2755TIP3   OH229899   2.508   3.533   7.362 -0.1352 -0.2473 -0.1252
 2755TIP3    H129900   2.440   3.598   7.381 -1.5017 -1.3529 -1.0356
 2755TIP3    H229901   2.517   3.482   7.443  0.2830  0.4637  0.2887
 2756TIP3   OH229902   0.108   0.048   6.808  0.4397 -0.2529 -0.4031
 2756TIP3    H129903   0.137   0.128   6.764  2.5017 -1.4032 -1.2803
 2756TIP3    H229904   0.020   0.033   6.774  1.0656  0.1897 -2.3637
 2757TIP3   OH229905   2.742   5.676   7.694 -0.0047 -0.3862 -0.5092
 2757TIP3    H129906   2.661   5.627   7.710  0.0649 -0.8146 -1.4041
 2757TIP3    H229907   2.799   5.654   7.768 -0.3646 -0.8292 -0.3618
 2758TIP3   OH229908   3.218   4.410   7.458 -0.1136  0.3550  0.0301
 2758TIP3    H129909   3.258   4.369   7.535  1.4066 -4.5348 -2.9221
 2758TIP3    H229910   3.292   4.433   7.402 -1.1501 -0.3975 -1.7486
 2759TIP3   OH229911   0.291   4.890   1.827  0.9391 -0.0265  0.4555
 2759TIP3    H129912   0.308   4.983   1.814 -0.0431  0.1890  0.6633
 2759TIP3    H229913   0.196   4.883   1.833  1.0202 -0.9905  0.8461
 2760TIP3   OH229914   1.825   0.837   0.386  0.2844  0.3151  0.7635
 2760TIP3    H129915   1.864   0.910   0.339 -1.2294  1.7795  1.6384
 2760TIP3    H229916   1.826   0.865   0.478 -0.4378 -0.7125  1.1034
 2761TIP3   OH229917   5.016   3.057   0.926  0.7740  0.8193 -0.2389
 2761TIP3    H129918   4.961   3.085   0.999  0.9373 -0.5779  0.4462
 2761TIP3    H229919   5.104   3.088   0.948  1.3508 -1.7798  1.4881
 2762TIP3   OH229920   1.490   3.287   0.112  0.4028  0.2399 -0.0869
 2762TIP3    H129921   1.543   3.290   0.032  1.6062 -2.2938  0.5248
 2762TIP3    H229922   1.553   3.297   0.183 -0.3422  0.0674  0.6146
 2763TIP3   OH229923   1.313   4.970   1.167  0.0144 -0.2264  0.3075
 2763TIP3    H129924   1.270   5.033   1.111  1.7876  0.7318 -0.0669
 2763TIP3    H229925   1.242   4.923   1.210 -1.3615  0.6996 -0.8668
 2764TIP3   OH229926   2.790   5.719   1.542 -0.2273 -0.5489  0.6518
 2764TIP3    H129927   2.756   5.782   1.478  1.7500 -1.0768 -1.0484
 2764TIP3    H229928   2.810   5.641   1.490 -1.2581 -2.1007  2.4686
 2765TIP3   OH229929   6.398   6.232   0.410 -0.3260 -0.5796 -0.2519
 2765TIP3    H129930   6.448   6.180   0.474  0.8245 -1.7948 -2.0346
 2765TIP3    H229931   6.321   6.179   0.392 -0.5246 -0.3587 -0.0430
 2766TIP3   OH229932   6.767   3.503   1.625 -0.5582 -0.3535 -0.2928
 2766TIP3    H129933   6.851   3.470   1.592  0.5602  1.9403  0.0861
 2766TIP3    H229934   6.761   3.592   1.591 -2.8713 -0.4467 -0.2819
 2767TIP3   OH229935   4.425   1.708   8.886  0.2493 -0.4089 -0.1232
 2767TIP3    H129936   4.506   1.743   8.923  0.5327  1.2515 -2.1434
 2767TIP3    H229937   4.355   1.750   8.936  0.6412  0.2764 -0.1351
 2768TIP3   OH229938   4.003   2.643   7.890 -0.1708  0.0800  0.8254
 2768TIP3    H129939   3.914   2.675   7.900  0.2855  2.1434 -1.0168
 2768TIP3    H229940   3.995   2.567   7.833 -0.7746 -0.0757  1.1044
 2769TIP3   OH229941   1.778   5.822   0.644  0.2356  0.3545 -0.2382
 2769TIP3    H129942   1.872   5.803   0.641  0.1039 -0.3094 -2.6272
 2769TIP3    H229943   1.773   5.918   0.643  0.9420  0.4147 -1.8205
 2770TIP3   OH229944   4.743   0.778   7.249 -0.4786 -0.0316  0.8236
 2770TIP3    H129945   4.836   0.791   7.231 -0.3202 -0.1562  1.5409
 2770TIP3    H229946   4.720   0.697   7.204 -0.2531  0.0319  0.5964
 2771TIP3   OH229947   5.192   1.476   8.624  0.3304 -0.6677 -0.8234
 2771TIP3    H129948   5.131   1.516   8.686  1.9117  1.8699 -0.7442
 2771TIP3    H229949   5.210   1.389   8.659 -1.7157 -0.7488  0.1517
 2772TIP3   OH229950   5.859   2.740   7.331  0.4170 -0.6485 -0.8432
 2772TIP3    H129951   5.899   2.655   7.314  3.0638  0.3423 -0.0823
 2772TIP3    H229952   5.866   2.787   7.248  0.4015 -0.6360 -0.8379
 2773TIP3   OH229953   5.971   0.265   7.451 -0.8346 -0.1112 -0.3356
 2773TIP3    H129954   5.881   0.258   7.419 -0.8823  0.1138 -0.2547
 2773TIP3    H229955   6.012   0.329   7.392 -1.1709  0.9762  0.5856
 2774TIP3   OH229956   4.544   0.128   7.956  0.0092  0.1744  0.0432
 2774TIP3    H129957   4.581   0.214   7.976  0.2152  0.5407 -1.7424
 2774TIP3    H229958   4.584   0.104   7.872  0.3080 -1.8775  0.6988
 2775TIP3   OH229959   1.965   0.797   1.242 -0.0795 -0.6647  0.4300
 2775TIP3    H129960   1.991   0.858   1.311  0.5898 -1.5901  1.0152
 2775TIP3    H229961   1.954   0.852   1.164 -2.7299  0.7407  1.6500
 2776TIP3   OH229962   4.589   1.996   6.143  0.3314  0.5583 -0.5449
 2776TIP3    H129963   4.661   1.934   6.153  0.0921  0.6331  3.2778
 2776TIP3    H229964   4.631   2.077   6.114  1.5383  0.1080 -0.1313
 2777TIP3   OH229965   3.518   1.222   7.352  0.4442  0.7025 -0.1029
 2777TIP3    H129966   3.500   1.272   7.273  1.2287  0.6386 -0.3273
 2777TIP3    H229967   3.567   1.283   7.408  0.6997  0.4445 -0.0460
 2778TIP3   OH229968   4.582   3.949   1.075  0.1751  0.0516 -0.6082
 2778TIP3    H129969   4.673   3.937   1.104  0.0412 -0.7087 -0.4873
 2778TIP3    H229970   4.574   3.893   0.998 -0.4952 -0.7216  0.0113
 2779TIP3   OH229971   2.170   6.792   8.667  0.0747  0.4248 -0.2547
 2779TIP3    H129972   2.232   6.744   8.722 -0.3650  0.2952  0.1413
 2779TIP3    H229973   2.223   6.830   8.598  0.3672 -1.1051 -0.9117
 2780TIP3   OH229974   0.233   3.860   1.247 -0.0279  0.0275 -0.1940
 2780TIP3    H129975   0.219   3.809   1.326 -2.3483 -0.4950 -0.8400
 2780TIP3    H229976   0.237   3.951   1.276  0.3237 -0.2451  0.6159
 2781TIP3   OH229977   1.321   1.832   0.120 -0.2603  0.4826 -0.1856
 2781TIP3    H129978   1.229   1.855   0.111 -0.3851 -0.2508 -0.8873
 2781TIP3    H229979   1.321   1.752   0.174 -0.3408 -1.5984 -3.0608
 2782TIP3   OH229980   5.137   2.020   6.792 -0.7065 -0.3112  0.2961
 2782TIP3    H129981   5.148   2.093   6.731 -1.0704 -2.1159 -2.0872
 2782TIP3    H229982   5.176   2.051   6.874  1.5234  1.6144 -1.3492
 2783TIP3   OH229983   0.083   2.040   8.871 -0.2502 -0.2020  0.3433
 2783TIP3    H129984   0.059   1.956   8.831  1.7680 -0.4432 -0.5126
 2783TIP3    H229985   0.174   2.053   8.844 -0.6320  2.4646  0.1192
 2784TIP3   OH229986   6.593   5.220   8.804 -0.7642  0.0958  0.2479
 2784TIP3    H129987   6.561   5.243   8.891  0.8106  1.9221  0.4229
 2784TIP3    H229988   6.548   5.139   8.782 -1.7597 -0.0133  2.4408
 2785TIP3   OH229989   5.184   0.325   8.059 -0.7312 -0.4461  0.3083
 2785TIP3    H129990   5.132   0.249   8.034 -1.8414  0.4632 -0.2920
 2785TIP3    H229991   5.204   0.368   7.975 -0.5418  0.1738  0.6642
 2786TIP3   OH229992   5.791   6.486   0.225 -0.6577  0.1865 -1.0545
 2786TIP3    H129993   5.850   6.491   0.300  0.4337 -2.5718 -1.6115
 2786TIP3    H229994   5.781   6.577   0.196  2.0023  0.9355  0.0809
 2787TIP3   OH229995   0.798   6.094   7.533  0.2687  0.3509 -0.5552
 2787TIP3    H129996   0.867   6.032   7.555  0.5618  1.8468  3.4245
 2787TIP3    H229997   0.724   6.039   7.508  1.6429 -1.3884 -1.0681
 2788TIP3   OH229998   0.364   1.927   7.109 -0.6035  0.0326  0.2346
 2788TIP3    H129999   0.456   1.912   7.128 -0.9967 -0.9853  1.4650
 2788TIP3    H230000   0.335   1.989   7.176 -0.5562  1.2861 -0.8685
 2789TIP3   OH230001   3.291   6.337   0.038  0.0442  0.5818  0.1151
 2789TIP3    H130002   3.271   6.298   0.123  1.1013  1.0349  0.5900
 2789TIP3    H230003   3.370   6.292   0.009  0.2868  1.1587 -0.1327
 2790TIP3   OH230004   3.398   3.240   7.939 -0.0251 -0.0670  0.1247
 2790TIP3    H130005   3.393   3.247   8.034  0.8098 -2.2841  0.3966
 2790TIP3    H230006   3.344   3.312   7.906  0.2664  1.1987  2.2404
 2791TIP3   OH230007   6.700   0.920   7.068 -0.0552 -0.3525 -0.0778
 2791TIP3    H130008   6.674   0.994   7.123 -0.6475 -0.2867 -0.4342
 2791TIP3    H230009   6.707   0.958   6.980 -0.5321 -0.7538 -0.2906
 2792TIP3   OH230010   5.902   5.631   0.110  0.5339  0.2388 -0.3763
 2792TIP3    H130011   5.831   5.568   0.103  0.9343 -0.2515 -0.0721
 2792TIP3    H230012   5.903   5.654   0.203  0.0234  1.1287 -0.5770
 2793TIP3   OH230013   2.947   0.489   1.246 -0.0047 -0.6505 -0.0269
 2793TIP3    H130014   2.916   0.579   1.239  1.0858 -0.3380 -1.2511
 2793TIP3    H230015   2.935   0.466   1.338 -1.0471  0.4509  0.1359
 2794TIP3   OH230016   5.656   0.312   1.152 -0.0604  0.0757  0.0186
 2794TIP3    H130017   5.614   0.235   1.189 -0.0756  1.0237  2.1555
 2794TIP3    H230018   5.596   0.384   1.173  0.3776  0.7947 -1.1334
 2795TIP3   OH230019   6.037   6.639   8.771  0.8374  0.0370  0.2550
 2795TIP3    H130020   6.127   6.662   8.797  0.4554  1.5360  0.3642
 2795TIP3    H230021   6.023   6.687   8.690  1.4411 -3.2758 -2.0137
 2796TIP3   OH230022   0.802   2.270   8.800 -0.4012  0.3112 -0.2189
 2796TIP3    H130023   0.773   2.203   8.738 -0.2949  1.3634 -1.4718
 2796TIP3    H230024   0.895   2.281   8.781 -0.7769  2.0676 -1.3588
 2797TIP3   OH230025   2.234   0.258   1.520  0.1540 -0.1847  0.0917
 2797TIP3    H130026   2.308   0.310   1.552  2.3290 -2.4192 -0.9405
 2797TIP3    H230027   2.256   0.240   1.428 -2.4014  0.2122 -0.6611
 2798TIP3   OH230028   5.047   4.443   1.517  0.0168  0.0325  0.5587
 2798TIP3    H130029   5.048   4.485   1.431  0.9906 -0.6924  0.1943
 2798TIP3    H230030   4.961   4.401   1.522 -0.1130  0.2240  0.0105
 2799TIP3   OH230031   6.504   2.207   0.343 -0.5113 -0.3356  0.1269
 2799TIP3    H130032   6.463   2.289   0.315 -0.7568 -0.6818 -0.5608
 2799TIP3    H230033   6.432   2.144   0.345 -0.2631 -0.6168  0.3115
 2800TIP3   OH230034   0.669   5.342   2.234  0.1767  0.1517 -0.5311
 2800TIP3    H130035   0.681   5.264   2.287  0.3218 -0.2991 -1.2187
 2800TIP3    H230036   0.575   5.361   2.240 -0.0139 -0.5836 -1.0563
 2801TIP3   OH230037   1.022   2.678   8.849  0.0919  0.0153  0.1387
 2801TIP3    H130038   0.961   2.691   8.776 -1.8801  1.2868  1.8763
 2801TIP3    H230039   1.103   2.721   8.821 -0.0177 -0.9918 -1.9100
 2802TIP3   OH230040   4.816   4.828   8.309 -0.2940 -0.1858 -0.5144
 2802TIP3    H130041   4.866   4.822   8.390 -1.4531 -1.2722  0.1524
 2802TIP3    H230042   4.881   4.848   8.242  0.5916  1.4725  0.7543
 2803TIP3   OH230043   0.478   4.161   1.625  0.0656 -0.0606 -0.2066
 2803TIP3    H130044   0.502   4.109   1.702 -0.8266 -0.0151  0.1046
 2803TIP3    H230045   0.461   4.096   1.557 -0.4905 -0.1616  0.0236
 2804TIP3   OH230046   2.979   6.141   8.845  0.6221  0.4874  0.3502
 2804TIP3    H130047   3.043   6.180   8.905 -0.4045 -0.5281  2.1519
 2804TIP3    H230048   2.970   6.051   8.874 -1.3730  0.5040 -0.0812
 2805TIP3   OH230049   3.623   1.245   0.409  0.3557  0.3266  0.6910
 2805TIP3    H130050   3.602   1.338   0.399  0.5691  0.3618  0.5706
 2805TIP3    H230051   3.557   1.200   0.356 -0.5151  0.3369  1.7285
 2806TIP3   OH230052   3.387   2.208   8.753 -0.2700  0.3820 -0.0169
 2806TIP3    H130053   3.309   2.199   8.698  0.2774  0.9753 -0.8996
 2806TIP3    H230054   3.455   2.160   8.706  0.0949  0.5340  0.3561
 2807TIP3   OH230055   2.890   3.861   8.515  0.5359  0.6861 -0.7997
 2807TIP3    H130056   2.875   3.792   8.579 -0.5259  0.4972 -1.2350
 2807TIP3    H230057   2.953   3.919   8.557 -0.5087  0.8398  0.6504
 2808TIP3   OH230058   2.478   2.572   7.381  0.4381  0.0652 -0.8088
 2808TIP3    H130059   2.486   2.632   7.454 -2.1832 -0.0759 -0.3102
 2808TIP3    H230060   2.421   2.616   7.319 -1.5732 -1.8297 -0.4228
 2809TIP3   OH230061   2.158   0.586   1.232  0.3267 -0.0045  0.2863
 2809TIP3    H130062   2.242   0.619   1.265  1.6348 -0.5044 -2.2800
 2809TIP3    H230063   2.100   0.662   1.235  1.5598  0.9861 -0.0204
 2810TIP3   OH230064   4.113   2.407   1.450 -0.5114  0.5104 -0.1046
 2810TIP3    H130065   4.089   2.322   1.486  0.5007  0.2621  0.0155
 2810TIP3    H230066   4.046   2.467   1.482 -0.4509  0.0191  0.9836
 2811TIP3   OH230067   3.682   2.185   1.877 -0.1714  0.6455  0.6110
 2811TIP3    H130068   3.746   2.115   1.886 -0.5282 -0.7538 -4.3141
 2811TIP3    H230069   3.627   2.177   1.955  1.9189 -2.1938  1.9990
 2812TIP3   OH230070   0.348   5.207   6.408  0.6152  0.0311  0.2186
 2812TIP3    H130071   0.397   5.267   6.351  2.1608  1.2584  2.6591
 2812TIP3    H230072   0.408   5.134   6.422 -0.1064 -0.6938 -0.3880
 2813TIP3   OH230073   4.595   0.438   8.774  0.0827 -0.3307  0.4401
 2813TIP3    H130074   4.555   0.499   8.711  1.8733 -0.0904 -0.5363
 2813TIP3    H230075   4.610   0.358   8.723  2.3053  0.1363  0.2438
 2814TIP3   OH230076   1.465   0.022   0.633 -0.4793  0.3113 -0.6832
 2814TIP3    H130077   1.454  -0.059   0.684 -1.1947  1.6099  1.3642
 2814TIP3    H230078   1.387   0.074   0.653  0.0668  1.6132 -1.7747
 2815TIP3   OH230079   5.556   0.460   8.281  0.1538 -0.3799  0.2369
 2815TIP3    H130080   5.493   0.407   8.329 -1.4482  2.1541  1.1251
 2815TIP3    H230081   5.609   0.502   8.349  1.1872 -0.5896 -0.4184
 2816TIP3   OH230082   4.626   3.789   6.972 -0.2501  0.5890 -0.3213
 2816TIP3    H130083   4.628   3.812   6.879 -0.8747  2.8240  0.1708
 2816TIP3    H230084   4.708   3.824   7.007 -0.4443  0.5833  0.1465
 2817TIP3   OH230085   4.059   5.690   1.637  0.0960  0.0540  0.4278
 2817TIP3    H130086   4.087   5.610   1.680 -0.0439  0.0731  0.5523
 2817TIP3    H230087   4.139   5.744   1.632  0.4423 -0.5142 -0.6058
 2818TIP3   OH230088   0.665   3.784   0.588 -0.3172  0.2882  0.2005
 2818TIP3    H130089   0.693   3.763   0.677 -1.1740  2.3459  1.0176
 2818TIP3    H230090   0.595   3.722   0.570  0.3786 -0.6572  0.6385
 2819TIP3   OH230091   6.376   2.632   0.542  0.8943 -0.4368  0.5583
 2819TIP3    H130092   6.376   2.714   0.590 -0.3653 -0.4621  0.6466
 2819TIP3    H230093   6.381   2.564   0.609 -2.6783 -0.5342  0.9204
 2820TIP3   OH230094   0.037   5.960   6.504  0.3683  0.0648  0.6400
 2820TIP3    H130095  -0.017   6.023   6.551  0.7491  0.3522  0.6930
 2820TIP3    H230096  -0.017   5.881   6.498  0.4545 -0.0987  1.8863
 2821TIP3   OH230097   1.381   6.569   0.750 -0.1867  0.2070  0.5121
 2821TIP3    H130098   1.300   6.596   0.792 -0.3908  0.5581 -0.0958
 2821TIP3    H230099   1.398   6.481   0.783 -0.6150  0.2785  0.9241
 2822TIP3   OH230100   1.296   1.162   0.021  0.4627 -0.3092 -0.0114
 2822TIP3    H130101   1.364   1.199  -0.036 -0.4028  1.9767  0.3228
 2822TIP3    H230102   1.249   1.239   0.055 -2.6932 -1.7906 -0.6919
 2823TIP3   OH230103   4.314   1.754   0.449 -0.4421 -0.3090  0.6247
 2823TIP3    H130104   4.398   1.719   0.418 -0.7272  0.1180 -0.6791
 2823TIP3    H230105   4.326   1.763   0.543  0.2295 -2.2794  0.7761
 2824TIP3   OH230106   2.982   2.536   0.706  0.2155  0.6230 -0.0052
 2824TIP3    H130107   2.912   2.575   0.653  1.1399  0.3756 -1.4525
 2824TIP3    H230108   2.945   2.533   0.794 -0.6683  2.8375 -0.2131
 2825TIP3   OH230109   4.595   3.145   7.947 -0.5299 -0.1050  0.5524
 2825TIP3    H130110   4.624   3.139   8.038 -0.3828 -0.6275  0.4734
 2825TIP3    H230111   4.518   3.087   7.943 -0.2782 -0.4200  0.2422
 2826TIP3   OH230112   5.422   3.452   2.269  0.1971  0.2242 -0.2413
 2826TIP3    H130113   5.511   3.479   2.248  0.5359 -0.5641  0.1597
 2826TIP3    H230114   5.367   3.524   2.236  1.0852  1.6189  1.2035
 2827TIP3   OH230115   2.555   0.968   1.688  0.0486  0.0541  0.0462
 2827TIP3    H130116   2.498   0.960   1.611 -0.8004 -0.5154  0.7121
 2827TIP3    H230117   2.605   0.886   1.688 -0.1596 -0.0733  0.2609
 2828TIP3   OH230118   4.391   4.602   0.332 -0.7289 -0.0264  0.9207
 2828TIP3    H130119   4.431   4.678   0.290  0.6277 -1.7482 -1.1120
 2828TIP3    H230120   4.462   4.562   0.383 -1.1455 -0.5366  1.1126
 2829TIP3   OH230121   1.184   3.360   6.842  0.1330  0.2771 -0.0125
 2829TIP3    H130122   1.228   3.283   6.877  1.9010  0.1798 -2.2395
 2829TIP3    H230123   1.251   3.406   6.793 -1.6308  1.5693 -1.3464
 2830TIP3   OH230124   2.082   2.647   1.794  0.1984 -0.1498 -0.3316
 2830TIP3    H130125   2.075   2.739   1.767  0.5104 -0.1412 -0.3806
 2830TIP3    H230126   2.138   2.649   1.872 -1.3992 -0.0644  0.8873
 2831TIP3   OH230127   4.015   6.118   8.625  0.4681  0.1553  0.4303
 2831TIP3    H130128   4.077   6.179   8.664  1.3889 -0.2608 -0.3464
 2831TIP3    H230129   4.051   6.098   8.538 -0.9965  0.2731 -0.2400
 2832TIP3   OH230130   5.942   0.412   1.615  0.6473 -0.2554 -0.5350
 2832TIP3    H130131   5.944   0.420   1.519  1.0373 -0.7646 -0.5766
 2832TIP3    H230132   5.886   0.336   1.631  0.9138 -0.4197 -0.3772
 2833TIP3   OH230133   1.579   5.185   7.829 -0.1743  0.6188 -0.2263
 2833TIP3    H130134   1.621   5.158   7.911 -0.0006  0.6513 -0.3034
 2833TIP3    H230135   1.595   5.279   7.825  1.5017  0.3459 -1.2337
 2834TIP3   OH230136   2.449   2.690   7.933 -0.1796 -0.3288 -0.4404
 2834TIP3    H130137   2.371   2.681   7.878 -0.8555 -0.3890  0.4992
 2834TIP3    H230138   2.476   2.781   7.923  0.1428 -0.5128 -1.4152
 2835TIP3   OH230139   6.722   3.867   7.547 -0.5471  1.0383 -0.4292
 2835TIP3    H130140   6.633   3.833   7.545  0.0417 -0.5989 -0.7432
 2835TIP3    H230141   6.764   3.827   7.470  0.8651  0.5269  0.5632
 2836TIP3   OH230142   3.816   1.175   0.946 -0.0324 -0.6303 -0.8108
 2836TIP3    H130143   3.736   1.128   0.920 -1.0900  0.4887  0.2902
 2836TIP3    H230144   3.816   1.170   1.041  0.1327  1.0526 -0.6883
 2837TIP3   OH230145   0.370   1.761   0.547 -0.2952 -0.3586  0.0654
 2837TIP3    H130146   0.337   1.831   0.603 -1.4928 -1.1711  0.4422
 2837TIP3    H230147   0.296   1.700   0.539  0.7320 -1.6431 -0.1358
 2838TIP3   OH230148   4.556   5.033   8.250  0.3638 -0.2346  0.3922
 2838TIP3    H130149   4.499   4.962   8.280  1.2108 -1.0091  0.2199
 2838TIP3    H230150   4.604   4.995   8.176  0.5940  0.6245  0.0899
 2839TIP3   OH230151   2.155   1.613   8.785  0.6140 -0.2739  0.4941
 2839TIP3    H130152   2.102   1.559   8.728  0.3338  0.7843 -0.2851
 2839TIP3    H230153   2.198   1.551   8.844  0.4533 -1.3473 -0.4761
 2840TIP3   OH230154   0.205   1.067   1.025 -0.3863  0.0138  0.6407
 2840TIP3    H130155   0.221   1.082   0.932 -0.1330  0.8768  0.8140
 2840TIP3    H230156   0.222   0.974   1.038 -2.3527 -0.5670 -0.5632
 2841TIP3   OH230157   4.056   2.722   8.926 -0.0803  0.1995  0.0440
 2841TIP3    H130158   3.966   2.701   8.952  0.0280  1.2199  1.3543
 2841TIP3    H230159   4.053   2.815   8.905  1.0296  0.7372  1.9807
 2842TIP3   OH230160   6.378   0.800   8.472  0.5609  0.3554  0.0095
 2842TIP3    H130161   6.431   0.847   8.408 -0.4236  1.9469  0.3070
 2842TIP3    H230162   6.289   0.833   8.459 -0.0217 -0.8059  0.8317
 2843TIP3   OH230163   1.191   6.667   0.933 -0.6528  0.2189 -0.5856
 2843TIP3    H130164   1.116   6.718   0.964 -0.0969 -1.4687  4.4084
 2843TIP3    H230165   1.268   6.718   0.961 -0.0385 -0.9544 -0.0817
 2844TIP3   OH230166   3.786   6.003   8.417 -0.5904  0.3965 -0.1501
 2844TIP3    H130167   3.775   5.941   8.344  0.0055  0.2039 -0.0839
 2844TIP3    H230168   3.817   6.083   8.376 -0.9388  0.5145 -0.1860
 2845TIP3   OH230169   5.204   4.984   0.071 -0.7915 -0.2485 -0.0334
 2845TIP3    H130170   5.169   4.902   0.107  0.8117 -0.8071  0.3350
 2845TIP3    H230171   5.299   4.975   0.081 -0.5725  1.4702 -0.4152
 2846TIP3   OH230172   1.407   6.133   8.062 -0.7974 -0.8059 -0.0744
 2846TIP3    H130173   1.414   6.213   8.011  0.2633 -0.3411  0.7550
 2846TIP3    H230174   1.313   6.111   8.061 -1.0584  0.2893 -0.5368
 2847TIP3   OH230175   2.494   3.804   7.142 -0.0081  0.4200 -0.3926
 2847TIP3    H130176   2.410   3.778   7.179 -0.3587  2.9314  0.7757
 2847TIP3    H230177   2.488   3.781   7.050 -1.6922 -0.1086 -0.1839
 2848TIP3   OH230178   4.570   3.559   7.896  0.8393  0.0949  0.0867
 2848TIP3    H130179   4.480   3.579   7.920  0.3604  0.0014 -1.4964
 2848TIP3    H230180   4.565   3.534   7.803  2.4610 -0.1072  0.0235
 2849TIP3   OH230181   3.992   2.148   7.019 -0.4763 -0.3987  0.7863
 2849TIP3    H130182   4.016   2.231   7.060 -2.1087 -0.0508  1.1324
 2849TIP3    H230183   3.919   2.170   6.961  0.0772 -1.3438 -0.3045
 2850TIP3   OH230184   5.683   5.120   0.198 -0.0425 -0.0163  0.4053
 2850TIP3    H130185   5.709   5.029   0.212 -3.0120 -1.1530 -0.7273
 2850TIP3    H230186   5.758   5.159   0.153  0.5579 -2.4839 -0.9172
 2851TIP3   OH230187   0.499   2.617   7.146 -0.0672 -0.5223 -0.5755
 2851TIP3    H130188   0.469   2.533   7.111 -0.6939 -0.6515  0.2371
 2851TIP3    H230189   0.560   2.650   7.081  0.2241 -1.6350 -0.8847
 2852TIP3   OH230190   5.191   1.073   0.299 -0.1643 -0.8140  0.0821
 2852TIP3    H130191   5.194   1.162   0.335  0.0593 -0.8850  0.2352
 2852TIP3    H230192   5.132   1.080   0.223  0.5960 -0.3337 -0.4769
 2853TIP3   OH230193   5.985   3.164   8.254 -0.3020 -0.4017 -0.1829
 2853TIP3    H130194   5.989   3.068   8.247  1.7960 -0.3598 -0.3580
 2853TIP3    H230195   5.952   3.192   8.169  2.2403 -0.9022 -1.4448
 2854TIP3   OH230196   3.291   2.814   6.728  0.2701 -0.2419 -0.3992
 2854TIP3    H130197   3.234   2.785   6.656  0.6747  0.4413 -1.0086
 2854TIP3    H230198   3.370   2.846   6.684  0.9578 -0.7866  0.4144
 2855TIP3   OH230199   2.925   1.245   6.211  0.2352 -0.3692 -0.0336
 2855TIP3    H130200   2.995   1.204   6.262 -0.1494  0.1707  0.9495
 2855TIP3    H230201   2.854   1.181   6.213 -0.3421  0.2826  1.4488
 2856TIP3   OH230202   6.069   5.075   2.093 -0.3025 -0.0578  0.4183
 2856TIP3    H130203   6.033   5.020   2.023 -0.2055 -1.6486  1.5789
 2856TIP3    H230204   6.007   5.066   2.164  0.0720  0.8209  0.8667
 2857TIP3   OH230205   5.474   3.807   1.116 -0.3452 -0.0581 -0.6384
 2857TIP3    H130206   5.446   3.766   1.034 -2.8273 -1.8667  0.9646
 2857TIP3    H230207   5.564   3.778   1.128 -0.8972 -2.2449 -1.3256
 2858TIP3   OH230208   6.417   4.963   2.300 -0.3165 -0.2334 -0.3432
 2858TIP3    H130209   6.440   4.893   2.361 -0.3985 -0.3390 -0.4322
 2858TIP3    H230210   6.467   5.039   2.330 -0.7380 -0.1523  0.1453
 2859TIP3   OH230211   5.566   0.802   8.033  0.3372  0.3335 -0.0305
 2859TIP3    H130212   5.490   0.769   7.985 -2.5489  1.4165  3.3453
 2859TIP3    H230213   5.568   0.896   8.013  1.5762  0.1433 -0.9494
 2860TIP3   OH230214   1.872   3.025   1.106 -0.1509  0.3091  0.9935
 2860TIP3    H130215   1.849   2.952   1.048  0.7774 -2.5119  3.9138
 2860TIP3    H230216   1.802   3.089   1.092 -1.0243 -1.0692 -1.7119
 2861TIP3   OH230217   0.836   0.959   7.910 -0.4005  0.4800  0.1261
 2861TIP3    H130218   0.842   0.901   7.834  0.6336  0.4686  0.1991
 2861TIP3    H230219   0.795   0.905   7.977 -1.5071  0.5537 -0.4738
 2862TIP3   OH230220   5.703   3.448   8.058  0.2369  0.1984  0.3668
 2862TIP3    H130221   5.673   3.499   7.984  0.5500 -0.6179 -0.3444
 2862TIP3    H230222   5.623   3.422   8.104 -0.0335 -0.1612 -0.2868
 2863TIP3   OH230223   1.860   1.897   7.908 -0.0329  0.0950 -0.2410
 2863TIP3    H130224   1.910   1.883   7.828 -0.3134 -0.1534 -0.3766
 2863TIP3    H230225   1.851   1.809   7.946 -1.6777 -0.1260 -1.0200
 2864TIP3   OH230226   1.340   2.428   2.388  0.3487 -0.1227 -0.1197
 2864TIP3    H130227   1.390   2.348   2.402 -0.3208 -0.4190  0.6014
 2864TIP3    H230228   1.248   2.401   2.390  0.0299  0.9151  2.0765
 2865TIP3   OH230229   2.767   5.813   6.427 -0.0994  0.1389 -0.3859
 2865TIP3    H130230   2.712   5.758   6.370 -1.6744  0.6627  0.5669
 2865TIP3    H230231   2.739   5.902   6.408 -1.7244  0.2583  2.1886
 2866TIP3   OH230232   4.008   0.927   0.158  0.0077  0.0171 -0.1037
 2866TIP3    H130233   3.954   0.991   0.204  1.4491  1.2514 -0.0575
 2866TIP3    H230234   3.978   0.842   0.192 -1.1573  0.7119  0.6927
 2867TIP3   OH230235   5.463   1.166   6.985 -0.1629  0.0941 -0.2015
 2867TIP3    H130236   5.512   1.087   7.010 -1.9781 -1.4003 -1.0978
 2867TIP3    H230237   5.458   1.163   6.890 -1.1137  0.7359 -0.1935
 2868TIP3   OH230238   0.288   6.240   6.697  0.1946  1.0600  0.1558
 2868TIP3    H130239   0.212   6.279   6.741  0.9260  0.1131  2.4418
 2868TIP3    H230240   0.252   6.194   6.621 -1.4970  0.8555  1.0349
 2869TIP3   OH230241   3.619   3.224   7.783  0.5762  0.0528  0.5695
 2869TIP3    H130242   3.627   3.167   7.706 -0.5127  0.5212  0.0769
 2869TIP3    H230243   3.531   3.206   7.817 -0.4719  2.5087 -0.5391
 2870TIP3   OH230244   3.529   0.607   1.383 -0.6363  0.2183 -0.0408
 2870TIP3    H130245   3.589   0.534   1.365  1.8273  2.3236 -0.9006
 2870TIP3    H230246   3.459   0.597   1.319 -1.3736 -2.3668  1.0438
 2871TIP3   OH230247   5.537   0.516   7.361 -0.5552  1.1504 -0.5588
 2871TIP3    H130248   5.530   0.497   7.455 -0.9992 -0.9625 -0.9773
 2871TIP3    H230249   5.458   0.477   7.323 -0.8668  2.8233 -1.7157
 2872TIP3   OH230250   3.883   2.527   1.513 -0.5056 -0.1651 -0.2607
 2872TIP3    H130251   3.793   2.534   1.547 -0.9051 -1.5554 -0.9241
 2872TIP3    H230252   3.936   2.575   1.576 -1.7176  0.7278  0.1241
 2873TIP3   OH230253   0.453   6.679   8.171  0.0402  0.0362  0.4856
 2873TIP3    H130254   0.430   6.692   8.080 -0.7034 -0.3852  0.6064
 2873TIP3    H230255   0.549   6.672   8.171  0.1955  1.8729 -0.0067
 2874TIP3   OH230256   2.358   5.711   8.872 -0.2171 -0.2972 -0.3935
 2874TIP3    H130257   2.389   5.622   8.888 -0.0566 -0.3862 -1.1811
 2874TIP3    H230258   2.287   5.724   8.936  0.0915 -0.8056  0.0563
 2875TIP3   OH230259   5.795   2.863   8.926 -0.4667 -0.0881 -0.5894
 2875TIP3    H130260   5.836   2.814   8.998  1.5863  0.5506 -1.2308
 2875TIP3    H230261   5.776   2.797   8.860 -0.2742 -0.3853 -0.3501
 2876TIP3   OH230262   4.353   2.931   7.019 -0.0204  0.5683 -0.0995
 2876TIP3    H130263   4.258   2.937   7.022  0.0330  1.1569  1.2107
 2876TIP3    H230264   4.375   2.932   6.926 -1.3099 -0.0051 -0.4185
 2877TIP3   OH230265   5.972   6.163   1.221  0.0996  0.0558  0.1667
 2877TIP3    H130266   6.017   6.134   1.300  0.8805 -0.4487 -0.4446
 2877TIP3    H230267   5.977   6.087   1.162  0.6914  0.8555 -0.8433
 2878TIP3   OH230268   6.660   2.235   7.695 -0.2565  0.2256 -0.0772
 2878TIP3    H130269   6.707   2.152   7.689  0.9632  0.8232  0.8872
 2878TIP3    H230270   6.697   2.289   7.626 -1.4547 -0.1917 -1.0856
 2879TIP3   OH230271   5.980   0.753   0.345 -0.3061  0.2015 -0.4956
 2879TIP3    H130272   5.889   0.727   0.358 -0.5722  0.7133 -1.2883
 2879TIP3    H230273   6.030   0.698   0.406 -1.1608  0.0637  0.0827
 2880TIP3   OH230274   0.961   0.669   8.238  0.2561 -0.2466 -0.1317
 2880TIP3    H130275   0.882   0.625   8.271  0.4713  0.9095  2.1565
 2880TIP3    H230276   0.928   0.748   8.195  0.1186 -0.2138  0.0316
 2881TIP3   OH230277   2.811   4.953   0.637 -0.4212 -0.3157 -0.3390
 2881TIP3    H130278   2.843   4.991   0.718 -0.4320  0.0738 -0.5166
 2881TIP3    H230279   2.742   5.012   0.607  0.5052  0.3093 -1.3388
 2882TIP3   OH230280   6.033   3.100   1.654 -0.8622 -0.7573  0.1300
 2882TIP3    H130281   6.105   3.038   1.643 -0.2524  0.3051 -3.1314
 2882TIP3    H230282   5.954   3.049   1.633 -0.4137 -0.6988 -1.9846
 2883TIP3   OH230283   1.048   1.811   0.082 -0.3268 -0.1762 -0.3742
 2883TIP3    H130284   1.062   1.867   0.159  2.7230 -1.5670  0.2174
 2883TIP3    H230285   0.968   1.764   0.102  0.6017 -0.8335  2.2590
 2884TIP3   OH230286   6.454   4.419   1.381 -0.0062  0.0948  0.8197
 2884TIP3    H130287   6.537   4.435   1.425 -0.7529  1.6760  1.7191
 2884TIP3    H230288   6.422   4.506   1.357 -3.0448 -0.0698  3.6149
 2885TIP3   OH230289   2.589   6.538   0.362 -0.3636 -0.2317 -0.1244
 2885TIP3    H130290   2.649   6.510   0.431 -0.8181 -0.1389  0.3137
 2885TIP3    H230291   2.502   6.528   0.401 -0.5575  1.8245  0.0569
 2886TIP3   OH230292   5.703   6.510   0.626 -0.5917 -0.0713  0.5347
 2886TIP3    H130293   5.697   6.444   0.557 -0.1511 -0.9146  1.2698
 2886TIP3    H230294   5.779   6.563   0.603 -0.9140  0.1490 -0.0336
 2887TIP3   OH230295   0.359   3.455   1.416  0.0998 -0.6181  0.0689
 2887TIP3    H130296   0.278   3.407   1.398  0.5389 -1.6870  0.8507
 2887TIP3    H230297   0.428   3.388   1.414  0.9129  0.1998 -0.1317
 2888TIP3   OH230298   4.220   5.870   6.785 -0.6169 -0.2719 -0.0417
 2888TIP3    H130299   4.253   5.816   6.713 -0.0515  0.0740 -0.0482
 2888TIP3    H230300   4.228   5.960   6.753  0.0475 -0.0932  0.6171
 2889TIP3   OH230301   2.111   3.816   7.917  0.3593  0.3090 -0.2940
 2889TIP3    H130302   2.047   3.803   7.847 -0.3831 -0.4086  0.4994
 2889TIP3    H230303   2.123   3.729   7.955  3.2396  0.0148 -1.6017
 2890TIP3   OH230304   0.017   3.322   0.373  0.1082 -0.1304  0.2271
 2890TIP3    H130305  -0.005   3.414   0.388 -1.4322 -0.4700  0.2434
 2890TIP3    H230306  -0.008   3.278   0.455  1.8101 -0.4343  0.6162
 2891TIP3   OH230307   5.318   5.649   2.267 -0.5838  0.7423  0.1447
 2891TIP3    H130308   5.353   5.612   2.186  2.1445  1.3496  0.9394
 2891TIP3    H230309   5.281   5.574   2.313 -2.6693  0.4598 -1.8047
 2892TIP3   OH230310   3.707   2.733   7.254  0.5036  0.7677 -0.5341
 2892TIP3    H130311   3.652   2.812   7.250 -0.8554 -0.1993 -1.9249
 2892TIP3    H230312   3.703   2.697   7.166 -0.7424 -2.0614  0.5759
 2893TIP3   OH230313   5.427   5.750   1.098 -0.3539 -0.0349 -0.1518
 2893TIP3    H130314   5.426   5.827   1.042  0.5642 -0.1782 -0.3769
 2893TIP3    H230315   5.407   5.677   1.039  1.5889 -0.3124 -0.5278
 2894TIP3   OH230316   6.705   6.191   6.602 -0.5477  0.3672  0.1737
 2894TIP3    H130317   6.708   6.286   6.594 -1.1732  0.3869  0.1248
 2894TIP3    H230318   6.617   6.167   6.572  0.0176 -0.3424 -0.9593
 2895TIP3   OH230319   6.010   4.299   7.611 -0.4192 -0.3942 -0.6306
 2895TIP3    H130320   5.958   4.322   7.688 -0.9892 -0.1781 -1.0790
 2895TIP3    H230321   6.088   4.355   7.618 -0.1457 -0.8599  0.1441
 2896TIP3   OH230322   1.840   3.998   1.876 -0.2282 -0.3333 -0.4341
 2896TIP3    H130323   1.833   3.924   1.936 -1.7692  1.6484  2.0449
 2896TIP3    H230324   1.934   4.017   1.872 -0.1069  0.1895  2.4913
 2897TIP3   OH230325   2.760   4.922   8.562  0.2741 -0.7280  0.7702
 2897TIP3    H130326   2.795   4.848   8.511  2.0964 -1.0881  2.3994
 2897TIP3    H230327   2.706   4.971   8.500  2.7557 -0.8483 -1.6737
 2898TIP3   OH230328   2.874   1.762   0.793 -0.4663  0.2655  0.1046
 2898TIP3    H130329   2.806   1.731   0.733  0.1523 -0.4035 -0.2708
 2898TIP3    H230330   2.842   1.846   0.824 -1.0724  0.3550 -0.7230
 2899TIP3   OH230331   4.374   6.112   1.447  0.6489 -0.9534  0.1213
 2899TIP3    H130332   4.317   6.103   1.370  1.6802 -0.6062 -0.7094
 2899TIP3    H230333   4.374   6.206   1.465  0.1154 -1.0760  0.7868
 2900TIP3   OH230334   1.189   0.562   2.071 -0.0549  0.0224 -0.2730
 2900TIP3    H130335   1.234   0.646   2.080  0.2433 -0.2683  1.3211
 2900TIP3    H230336   1.256   0.503   2.035  0.1552  0.1376 -0.0744
 2901TIP3   OH230337   3.236   5.159   0.561 -0.3314 -0.2131 -0.3792
 2901TIP3    H130338   3.172   5.145   0.632 -0.9319  2.5197 -0.2367
 2901TIP3    H230339   3.320   5.168   0.606 -0.6735  1.2491  0.0416
 2902TIP3   OH230340   6.641   5.194   8.090  0.1190 -0.0797  0.1949
 2902TIP3    H130341   6.615   5.237   8.171  0.1848 -0.1517  0.2555
 2902TIP3    H230342   6.576   5.221   8.026 -1.1159 -1.6068  0.7427
 2903TIP3   OH230343   4.925   6.421   7.199 -0.2685  0.0381  0.2525
 2903TIP3    H130344   4.998   6.423   7.137 -0.1996 -0.3275  0.3223
 2903TIP3    H230345   4.929   6.334   7.239  0.4088  0.6653  1.6210
 2904TIP3   OH230346   1.585   4.304   8.522  0.5367  0.5716 -0.0260
 2904TIP3    H130347   1.593   4.292   8.427 -0.2564 -0.8285  0.0502
 2904TIP3    H230348   1.673   4.292   8.556  0.5785 -0.4790 -0.4639
 2905TIP3   OH230349   4.796   4.514   8.260  0.5009  0.3889  0.0935
 2905TIP3    H130350   4.755   4.570   8.194  1.2981  0.6836 -0.1698
 2905TIP3    H230351   4.888   4.541   8.260  1.0441 -1.2923 -0.4596
 2906TIP3   OH230352   0.589   6.186   1.794  0.4839 -0.2797  0.2338
 2906TIP3    H130353   0.600   6.252   1.862 -0.1900  0.2046 -0.1029
 2906TIP3    H230354   0.494   6.184   1.779  0.5461 -0.9892 -0.0936
 2907TIP3   OH230355   4.834   0.957   0.407  0.6930  0.1466  0.1671
 2907TIP3    H130356   4.828   1.053   0.416 -0.5775  0.2745 -1.6772
 2907TIP3    H230357   4.929   0.940   0.406  0.9449  1.3763  0.5153
 2908TIP3   OH230358   3.213   2.926   7.824  0.8422 -0.0387 -0.0741
 2908TIP3    H130359   3.163   2.846   7.804  1.5919 -0.2350 -1.2543
 2908TIP3    H230360   3.150   2.997   7.815  0.7847 -0.2659 -1.7283
 2909TIP3   OH230361   6.525   3.829   0.770 -0.2171 -0.6107 -0.7536
 2909TIP3    H130362   6.544   3.886   0.845  0.0122  0.8810 -1.9050
 2909TIP3    H230363   6.505   3.744   0.809  1.8614 -0.4250  0.9070
 2910TIP3   OH230364   4.987   2.820   2.504 -0.1578 -0.9720  0.7758
 2910TIP3    H130365   5.077   2.791   2.518 -0.0296 -1.9159 -1.5613
 2910TIP3    H230366   4.936   2.739   2.502 -0.5907 -0.6917 -0.7859
 2911TIP3   OH230367   1.134   4.370   8.043  0.0634  0.7464 -0.1688
 2911TIP3    H130368   1.109   4.375   7.950  3.5659 -1.6175 -1.4272
 2911TIP3    H230369   1.187   4.448   8.058 -1.7179  1.9111  0.3749
 2912TIP3   OH230370   6.773   1.483   8.791 -0.3159  0.2223 -0.4215
 2912TIP3    H130371   6.704   1.418   8.808 -0.3868  0.6444  1.0255
 2912TIP3    H230372   6.849   1.450   8.840 -0.5164  1.4723  0.7956
 2913TIP3   OH230373   5.460   4.485   2.085 -0.4219 -0.0276  0.0175
 2913TIP3    H130374   5.410   4.560   2.117 -0.7290 -0.3049  0.2054
 2913TIP3    H230375   5.426   4.411   2.136  0.9412 -0.0517  0.9157
 2914TIP3   OH230376   5.077   4.563   1.273  0.1675 -0.6971  0.5773
 2914TIP3    H130377   5.060   4.657   1.273 -1.1036 -0.8946 -0.3380
 2914TIP3    H230378   5.123   4.547   1.191 -0.3149 -0.9745  0.3557
 2915TIP3   OH230379   4.459   5.444   0.631 -0.6419  0.1886 -0.4325
 2915TIP3    H130380   4.379   5.453   0.579 -1.5316 -2.2646  0.3888
 2915TIP3    H230381   4.437   5.381   0.699  1.9210 -0.3757 -0.0087
 2916TIP3   OH230382   0.249   3.537   7.423 -0.5243 -0.2080 -0.0107
 2916TIP3    H130383   0.251   3.572   7.333  0.5218 -0.5518 -0.1430
 2916TIP3    H230384   0.245   3.614   7.479  1.5311  0.1771 -0.3085
 2917TIP3   OH230385   5.200   5.006   7.992  0.1961 -0.1476 -0.4713
 2917TIP3    H130386   5.203   5.099   8.011 -2.5643 -0.0151 -0.1999
 2917TIP3    H230387   5.204   5.001   7.896 -1.5453  0.4701 -0.6226
 2918TIP3   OH230388   6.141   3.986   0.431 -0.0638 -0.5056  0.0554
 2918TIP3    H130389   6.074   4.053   0.416 -1.1539 -0.9313  2.4814
 2918TIP3    H230390   6.098   3.903   0.411  1.5563 -0.6229 -3.8480
 2919TIP3   OH230391   0.741   4.757   0.475  0.0739  0.0415  0.2575
 2919TIP3    H130392   0.765   4.850   0.469 -0.7336  0.3673  1.6895
 2919TIP3    H230393   0.775   4.719   0.394 -0.9540  1.8808 -1.1192
 2920TIP3   OH230394   4.471   3.353   0.674  0.1799  0.5447 -0.1824
 2920TIP3    H130395   4.552   3.333   0.627  0.0224  0.4089 -0.3990
 2920TIP3    H230396   4.425   3.416   0.619  1.0988  2.2854  0.9369
 2921TIP3   OH230397   3.345   1.021   7.409 -0.2312  0.0505  0.2784
 2921TIP3    H130398   3.374   0.938   7.371 -0.6416 -0.0497  0.1806
 2921TIP3    H230399   3.414   1.083   7.386 -0.0583 -0.1990  0.1135
 2922TIP3   OH230400   4.763   5.440   1.738 -0.0647  0.4857  0.2911
 2922TIP3    H130401   4.852   5.432   1.705  0.1617  0.0544  0.9830
 2922TIP3    H230402   4.733   5.350   1.750 -0.6977  0.6212 -0.1863
 2923TIP3   OH230403   3.533   5.837   8.647  0.1134  0.1439 -0.1050
 2923TIP3    H130404   3.566   5.874   8.566  1.4509  0.2421  0.4695
 2923TIP3    H230405   3.609   5.831   8.705 -0.8892  0.4967  1.3127
 2924TIP3   OH230406   2.646   1.236   0.065 -0.1790 -0.2025 -0.0952
 2924TIP3    H130407   2.596   1.175   0.120  3.2843 -1.9674  1.4356
 2924TIP3    H230408   2.620   1.323   0.096  0.4776 -1.1072  3.4316
 2925TIP3   OH230409   6.352   5.487   0.528  0.2251 -0.2067  0.3860
 2925TIP3    H130410   6.415   5.480   0.456 -1.0935 -0.8092 -0.7752
 2925TIP3    H230411   6.375   5.417   0.588  1.3884  0.3442  0.6215
 2926TIP3   OH230412   6.486   5.594   1.213 -0.5480  0.1029  0.1137
 2926TIP3    H130413   6.498   5.650   1.289  2.0285 -0.9743  0.5989
 2926TIP3    H230414   6.535   5.514   1.234 -1.8643 -1.2587 -1.6452
 2927TIP3   OH230415   4.386   3.485   6.558  0.3138 -0.0611  0.1126
 2927TIP3    H130416   4.434   3.567   6.549 -1.4166  1.1191  1.0847
 2927TIP3    H230417   4.294   3.510   6.547 -0.1887 -2.0568 -0.6516
 2928TIP3   OH230418   6.062   5.442   1.066 -0.4712  0.0662 -0.7505
 2928TIP3    H130419   6.025   5.526   1.039 -3.1870 -0.5629  0.6035
 2928TIP3    H230420   5.989   5.397   1.110  1.5358 -2.0223  0.6828
 2929TIP3   OH230421   2.257   3.247   1.635  0.3107 -0.1388  0.5522
 2929TIP3    H130422   2.182   3.207   1.679  0.2361  1.3870  1.9234
 2929TIP3    H230423   2.266   3.333   1.676  2.0570  0.2178 -0.4520
 2930TIP3   OH230424   1.638   2.109   8.347  0.0378  0.2380  0.1581
 2930TIP3    H130425   1.578   2.182   8.334  0.4759  0.4364 -0.8625
 2930TIP3    H230426   1.725   2.148   8.348  0.3812 -0.3494 -1.7031
 2931TIP3   OH230427   3.382   3.166   8.842  0.1247  0.3203  0.1453
 2931TIP3    H130428   3.291   3.148   8.819  0.2294  1.6823 -1.5370
 2931TIP3    H230429   3.433   3.112   8.782  0.4477 -0.4037  1.0495
 2932TIP3   OH230430   6.748   6.216   8.447 -0.1728 -0.2173  0.3539
 2932TIP3    H130431   6.843   6.214   8.442 -0.1168  2.1447 -0.9769
 2932TIP3    H230432   6.726   6.149   8.511  2.5237  0.6159  2.3353
 2933TIP3   OH230433   3.741   0.380   8.871 -0.1184 -0.3815 -0.1437
 2933TIP3    H130434   3.821   0.402   8.823 -0.6681 -1.0497 -1.4370
 2933TIP3    H230435   3.671   0.401   8.809 -1.2222  3.1987  2.0270
 2934TIP3   OH230436   3.388   1.515   8.918 -0.7725 -1.0169 -0.2412
 2934TIP3    H130437   3.459   1.547   8.973 -3.0182  1.5499  1.3746
 2934TIP3    H230438   3.330   1.468   8.978 -2.2285  0.0427 -0.7715
 2935TIP3   OH230439   3.124   4.202   0.401 -0.1996  0.2812  0.3099
 2935TIP3    H130440   3.037   4.167   0.423 -0.1064  0.7460  1.5491
 2935TIP3    H230441   3.184   4.156   0.460  0.2527  0.6998  0.1842
 2936TIP3   OH230442   3.448   5.803   8.365  0.2551 -0.0449  0.2233
 2936TIP3    H130443   3.389   5.735   8.396 -0.5233  0.2804 -0.4821
 2936TIP3    H230444   3.482   5.770   8.282  0.8154 -0.0882  0.4657
 2937TIP3   OH230445   0.372   5.914   8.006 -0.3662  0.7108  0.2177
 2937TIP3    H130446   0.461   5.879   8.004 -0.1439  1.0764  2.0325
 2937TIP3    H230447   0.374   5.987   7.944 -0.5414 -1.6027 -2.7798
 2938TIP3   OH230448   2.141   4.728   1.313  0.5256 -0.0177  0.0121
 2938TIP3    H130449   2.066   4.756   1.260  1.6252 -0.3506 -1.7750
 2938TIP3    H230450   2.104   4.716   1.401 -1.6292 -0.6168 -0.9001
 2939TIP3   OH230451   4.178   3.537   1.926 -0.2786 -0.2786  0.2833
 2939TIP3    H130452   4.157   3.624   1.892  0.4071 -0.2117  0.0268
 2939TIP3    H230453   4.218   3.491   1.853 -1.2611 -1.0521  0.2117
 2940TIP3   OH230454   0.689   2.278   1.742  0.0246  0.5907  0.0021
 2940TIP3    H130455   0.706   2.353   1.798  0.2856  1.2173 -0.8876
 2940TIP3    H230456   0.770   2.265   1.693 -0.7949  1.2904 -1.6240
 2941TIP3   OH230457   2.393   4.894   0.935 -0.1520  0.4865 -0.0037
 2941TIP3    H130458   2.446   4.855   0.866 -0.0712 -0.2102  0.4478
 2941TIP3    H230459   2.441   4.974   0.959  0.1370  0.4130 -0.3274
 2942TIP3   OH230460   1.583   6.387   8.657  0.1913  0.3589  0.0518
 2942TIP3    H130461   1.608   6.457   8.597  0.5641  2.0264  2.0568
 2942TIP3    H230462   1.582   6.428   8.744 -1.1046 -1.7460  1.1234
 2943TIP3   OH230463   4.807   1.664   0.717 -0.2635  0.4904  0.5254
 2943TIP3    H130464   4.899   1.646   0.739 -0.0255 -2.4977 -2.1367
 2943TIP3    H230465   4.757   1.604   0.772 -0.3099 -0.4536 -0.5148
 2944TIP3   OH230466   2.398   0.118   7.426  0.9051  0.1784  0.7229
 2944TIP3    H130467   2.371   0.063   7.353  0.0267 -0.1781  1.2962
 2944TIP3    H230468   2.361   0.204   7.407  0.5168  0.0379  0.8303
 2945TIP3   OH230469   4.850   6.645   1.387  0.2306  0.2379 -0.1939
 2945TIP3    H130470   4.922   6.703   1.412 -0.4918  0.3945  1.7050
 2945TIP3    H230471   4.788   6.703   1.341  0.8168  0.3184 -0.9096
 2946TIP3   OH230472   5.728   1.684   6.396  0.2435  0.6388  0.2439
 2946TIP3    H130473   5.808   1.634   6.380 -0.8695 -0.5643 -1.9444
 2946TIP3    H230474   5.759   1.770   6.424  2.3121  0.3203 -0.8758
 2947TIP3   OH230475   1.780   4.817   7.922  0.6062  0.1287 -0.0541
 2947TIP3    H130476   1.808   4.900   7.885  2.2175  0.5716  1.9372
 2947TIP3    H230477   1.855   4.787   7.974 -1.0404 -0.9602  1.8917
 2948TIP3   OH230478   1.416   2.686   6.925  0.0391  0.2567 -0.4336
 2948TIP3    H130479   1.385   2.775   6.938 -0.2635  0.0169  0.6465
 2948TIP3    H230480   1.459   2.687   6.840 -2.2107  0.7940 -1.6200
 2949TIP3   OH230481   4.814   5.447   7.697 -0.3697  0.2963 -0.2375
 2949TIP3    H130482   4.767   5.519   7.740  1.2406 -0.2016  2.6357
 2949TIP3    H230483   4.888   5.489   7.654 -0.0147  0.4978  0.5499
 2950TIP3   OH230484   5.218   4.165   7.436 -0.2342 -0.1336  0.4325
 2950TIP3    H130485   5.308   4.183   7.464  0.0736  0.8500 -1.0422
 2950TIP3    H230486   5.226   4.093   7.374 -0.2094  0.9437 -0.8792
 2951TIP3   OH230487   1.868   6.505   7.188  0.4767 -0.1917  0.5749
 2951TIP3    H130488   1.945   6.539   7.232  0.6898 -1.6666  1.4200
 2951TIP3    H230489   1.847   6.570   7.121  1.9454  0.6276  0.8785
 2952TIP3   OH230490   0.289   1.373   6.627  0.1541  0.5256 -0.0346
 2952TIP3    H130491   0.307   1.323   6.547 -1.5156 -0.4835  0.1787
 2952TIP3    H230492   0.250   1.454   6.596 -1.1568 -0.1619 -0.2678
 2953TIP3   OH230493   1.181   0.963   0.814 -0.1786 -0.3030  0.0496
 2953TIP3    H130494   1.151   0.873   0.799 -1.5339  0.2913 -1.0402
 2953TIP3    H230495   1.107   1.017   0.787  0.5441  1.1454  0.8841
 2954TIP3   OH230496   3.212   5.921   1.986 -0.0668  0.6106 -0.4091
 2954TIP3    H130497   3.190   5.969   2.066  2.3302  2.3339 -0.6963
 2954TIP3    H230498   3.211   5.987   1.917  0.3240 -0.3635 -1.3742
 2955TIP3   OH230499   4.052   5.949   7.293  0.0132  0.1555  0.0686
 2955TIP3    H130500   4.133   5.952   7.343 -0.5090 -1.7009  1.1581
 2955TIP3    H230501   4.077   5.913   7.208  0.4317  0.1832  0.1804
 2956TIP3   OH230502   2.349   4.233   7.670 -0.5759 -0.0351  0.1606
 2956TIP3    H130503   2.344   4.138   7.670  1.0121 -0.1414 -0.1179
 2956TIP3    H230504   2.365   4.256   7.762 -0.9867 -0.0236  0.2324
 2957TIP3   OH230505   1.948   3.145   7.830  0.2360  0.6180 -0.3300
 2957TIP3    H130506   2.022   3.142   7.769  0.3687 -2.3433 -0.1597
 2957TIP3    H230507   1.879   3.190   7.782  1.3390  1.2013 -1.4288
 2958TIP3   OH230508   1.604   1.907   1.301  0.1280  0.4292  0.3045
 2958TIP3    H130509   1.649   1.991   1.288  0.4643  0.2798  0.4710
 2958TIP3    H230510   1.650   1.846   1.244  0.7486  0.0716  1.1574
 2959TIP3   OH230511   3.241   2.436   7.828 -0.2370  0.3567  0.0818
 2959TIP3    H130512   3.323   2.410   7.785 -0.0268  0.4317  0.4321
 2959TIP3    H230513   3.264   2.515   7.878 -0.6780  0.7621 -0.3368
 2960TIP3   OH230514   5.111   4.052   2.420 -0.2644 -0.0087 -0.1299
 2960TIP3    H130515   5.204   4.070   2.406 -0.4743  1.8048  0.5391
 2960TIP3    H230516   5.079   4.022   2.335  0.9486 -0.7847 -0.3287
 2961TIP3   OH230517   4.688   0.421   1.146 -0.7263 -0.3099 -0.0473
 2961TIP3    H130518   4.664   0.512   1.164  0.2938  0.3303 -1.7541
 2961TIP3    H230519   4.714   0.387   1.232  0.1775  1.4155  0.4233
 2962TIP3   OH230520   3.764   6.175   8.698  0.9464  0.1450 -0.9065
 2962TIP3    H130521   3.848   6.132   8.684 -1.1941 -5.7602  1.2028
 2962TIP3    H230522   3.707   6.141   8.630 -0.9613 -0.4990  0.8925
 2963TIP3   OH230523   1.720   2.843   0.679 -0.1095  0.1813 -0.6959
 2963TIP3    H130524   1.662   2.841   0.755 -0.7267  1.2665 -1.1259
 2963TIP3    H230525   1.763   2.757   0.681  0.6475  0.5397  1.4488
 2964TIP3   OH230526   5.777   4.633   7.895 -0.2835 -0.2965  0.0109
 2964TIP3    H130527   5.754   4.706   7.952  1.2722  0.5087 -0.3310
 2964TIP3    H230528   5.740   4.657   7.810 -0.1897 -0.1251  0.0165
 2965TIP3   OH230529   5.943   1.415   8.095 -0.6890 -0.0718 -0.1337
 2965TIP3    H130530   5.894   1.414   8.177  0.6431  0.5276  0.6843
 2965TIP3    H230531   5.893   1.357   8.038 -1.3899 -0.8783  1.2414
 2966TIP3   OH230532   6.709   1.125   1.092 -0.2536  0.0816 -0.7334
 2966TIP3    H130533   6.776   1.075   1.045 -1.2101 -1.6263 -0.3451
 2966TIP3    H230534   6.676   1.188   1.028  2.2852  1.5995 -0.6905
 2967TIP3   OH230535   2.794   4.874   6.834 -0.1071 -0.0692  0.0140
 2967TIP3    H130536   2.810   4.780   6.828 -0.2785 -0.1216  0.3741
 2967TIP3    H230537   2.699   4.883   6.832 -0.0878  0.1145 -0.2332
 2968TIP3   OH230538   6.014   0.750   0.075  0.0613  0.1854 -0.1067
 2968TIP3    H130539   6.004   0.736   0.170 -1.7964 -1.7701 -0.4961
 2968TIP3    H230540   6.099   0.711   0.054  0.5870  0.8205  0.7541
 2969TIP3   OH230541   3.245   3.731   1.639 -0.1601 -0.4144 -0.2983
 2969TIP3    H130542   3.285   3.795   1.580 -0.2554  1.0223  1.1212
 2969TIP3    H230543   3.319   3.682   1.675  0.1357  0.3961  0.2436
 2970TIP3   OH230544   6.394   6.200   1.491  0.2057  0.0817  0.3167
 2970TIP3    H130545   6.455   6.268   1.521  0.5804  0.3866 -1.0943
 2970TIP3    H230546   6.346   6.175   1.571 -1.1030  3.1460  0.6449
 2971TIP3   OH230547   0.307   2.470   2.034 -0.2886  0.5729  0.1940
 2971TIP3    H130548   0.256   2.545   2.064  1.2199  2.1944 -1.0600
 2971TIP3    H230549   0.307   2.477   1.938  0.9166 -0.2820  0.1018
 2972TIP3   OH230550   5.159   3.298   1.639  0.3292 -0.5854 -0.5060
 2972TIP3    H130551   5.176   3.236   1.710 -1.5738  0.2716  0.7702
 2972TIP3    H230552   5.246   3.329   1.613  1.1703 -2.1644  0.2702
 2973TIP3   OH230553   4.050   1.931   0.011  0.0236  0.5185  0.2306
 2973TIP3    H130554   4.135   1.967   0.036  1.1827 -1.4957 -0.5545
 2973TIP3    H230555   4.006   2.003  -0.034  1.0735  1.7752  1.1376
 2974TIP3   OH230556   3.057   1.495   8.127  0.6666  0.2705  0.0755
 2974TIP3    H130557   3.064   1.523   8.035  0.2398 -1.2973 -0.4739
 2974TIP3    H230558   3.148   1.487   8.156  0.8460 -0.2834 -0.5861
 2975TIP3   OH230559   1.089   5.633   0.414 -0.5081 -0.3047  0.2936
 2975TIP3    H130560   1.009   5.681   0.436 -0.2638 -0.2058  0.9675
 2975TIP3    H230561   1.072   5.600   0.325 -0.4120  1.5966 -0.4933
 2976TIP3   OH230562   0.437   2.618   0.137 -0.2315  0.2676  0.2548
 2976TIP3    H130563   0.347   2.601   0.109 -0.5849  0.8006  1.0527
 2976TIP3    H230564   0.471   2.533   0.163 -0.3545 -0.0073 -0.4560
 2977TIP3   OH230565   4.195   3.406   7.284  0.3665 -0.3233 -0.2598
 2977TIP3    H130566   4.235   3.351   7.351  0.8034 -0.6967 -0.8192
 2977TIP3    H230567   4.130   3.458   7.331  1.1183 -0.1070  0.5677
 2978TIP3   OH230568   2.816   2.323   7.162  0.0799  0.0107  0.6266
 2978TIP3    H130569   2.863   2.404   7.140 -1.1594  0.6580  0.3040
 2978TIP3    H230570   2.724   2.346   7.156 -0.2970 -1.3494  0.8707
 2979TIP3   OH230571   5.939   1.146   1.362 -0.4936  0.0388 -0.6307
 2979TIP3    H130572   6.029   1.155   1.395 -0.6270  1.3975 -0.5954
 2979TIP3    H230573   5.948   1.093   1.283  0.4672  0.8564 -1.0964
 2980TIP3   OH230574   2.314   4.356   1.940  0.1539  0.0550  0.1222
 2980TIP3    H130575   2.256   4.315   2.004 -0.1733 -1.2160 -0.9463
 2980TIP3    H230576   2.397   4.369   1.987  0.8907 -3.5201  0.0847
 2981TIP3   OH230577   1.042   1.577   2.162  0.3488  0.2322 -0.9009
 2981TIP3    H130578   0.977   1.645   2.180 -1.0385 -1.3049  0.2028
 2981TIP3    H230579   0.997   1.515   2.104  2.0396  0.8695 -3.0188
 2982TIP3   OH230580   6.795   0.219   1.717  0.5310 -0.2159 -0.6814
 2982TIP3    H130581   6.750   0.270   1.785  1.0502  0.8831 -1.1501
 2982TIP3    H230582   6.824   0.140   1.763 -1.1605 -0.5989 -0.1789
 2983TIP3   OH230583   1.769   3.751   7.341  0.5715 -0.2223  1.0134
 2983TIP3    H130584   1.820   3.807   7.281  0.4667 -2.3554 -1.2513
 2983TIP3    H230585   1.835   3.700   7.388  0.6149  0.5020  1.7585
 2984TIP3   OH230586   0.704   6.401   0.993  0.1291  0.0939  1.0274
 2984TIP3    H130587   0.712   6.317   1.039 -1.0008 -1.7681 -1.8140
 2984TIP3    H230588   0.782   6.406   0.939  0.0457  0.7302  0.9639
 2985TIP3   OH230589   6.192   1.398   7.740  0.1509  0.4436  0.3563
 2985TIP3    H130590   6.287   1.385   7.739  0.3647  1.7765  1.0365
 2985TIP3    H230591   6.176   1.452   7.817 -1.2105 -0.0408  0.4384
 2986TIP3   OH230592   5.933   3.281   7.948 -0.1055  0.6338 -0.3891
 2986TIP3    H130593   5.852   3.293   7.997 -1.3566 -1.3008 -1.8594
 2986TIP3    H230594   5.906   3.246   7.863  2.1939  1.0822 -1.3982
 2987TIP3   OH230595   6.236   4.883   1.681  0.3112 -0.5793  0.4736
 2987TIP3    H130596   6.290   4.960   1.663  1.5920 -1.5967 -0.2171
 2987TIP3    H230597   6.157   4.918   1.721 -0.1646  1.3182 -1.9196
 2988TIP3   OH230598   1.366   6.340   1.720  0.3367 -0.8547  0.2432
 2988TIP3    H130599   1.322   6.380   1.796 -3.8832  0.8890 -2.7233
 2988TIP3    H230600   1.368   6.247   1.741 -2.5258 -0.7144  1.8245
 2989TIP3   OH230601   2.098   3.130   1.252  0.1873  0.6050  0.4004
 2989TIP3    H130602   2.058   3.195   1.311 -0.3448 -1.7722  2.8416
 2989TIP3    H230603   2.024   3.082   1.215  0.6047 -0.3557  0.7770
 2990TIP3   OH230604   3.645   4.530   6.287 -0.1643 -0.3617  0.2114
 2990TIP3    H130605   3.661   4.451   6.338  1.5541 -0.6582 -0.6908
 2990TIP3    H230606   3.607   4.499   6.205  0.0531 -0.2168  0.0519
 2991TIP3   OH230607   0.648   3.538   8.493 -0.8731 -0.0292  0.1276
 2991TIP3    H130608   0.561   3.569   8.470 -2.3530 -1.4976  3.1260
 2991TIP3    H230609   0.673   3.590   8.569  0.0541 -0.8355  0.4025
 2992TIP3   OH230610   1.562   4.087   0.783 -0.1383  0.1238 -0.0267
 2992TIP3    H130611   1.587   4.108   0.873  0.5180 -0.8328  0.0415
 2992TIP3    H230612   1.473   4.052   0.790 -0.7095  1.5138  0.0231
 2993TIP3   OH230613   3.464   1.367   1.044  0.0272 -0.3959  0.2867
 2993TIP3    H130614   3.409   1.443   1.058 -0.8753 -1.2180  1.4106
 2993TIP3    H230615   3.473   1.360   0.949  1.5397  2.0527  0.1569
 2994TIP3   OH230616   4.125   1.639   7.718  0.3833 -0.8504  0.1292
 2994TIP3    H130617   4.064   1.581   7.764 -0.2356  0.0500  0.4865
 2994TIP3    H230618   4.086   1.650   7.631 -0.1751 -0.0210  0.4599
 2995TIP3   OH230619   4.884   6.456   0.547 -0.2677 -0.0720  0.3554
 2995TIP3    H130620   4.973   6.475   0.516 -0.7608  0.7843 -0.6274
 2995TIP3    H230621   4.896   6.403   0.625  1.0986 -0.3826 -0.0428
 2996TIP3   OH230622   1.479   5.740   7.845  0.4918  0.0622 -0.1596
 2996TIP3    H130623   1.505   5.697   7.764 -2.7410  1.3396 -2.0906
 2996TIP3    H230624   1.385   5.723   7.851  0.2314  1.8980  2.1496
 2997TIP3   OH230625   2.430   3.653   1.747  0.4512 -0.0141 -0.0768
 2997TIP3    H130626   2.415   3.701   1.829  2.5080 -1.9886  1.5743
 2997TIP3    H230627   2.483   3.713   1.694  2.6817 -0.1433  1.8082
 2998TIP3   OH230628   2.666   2.221   0.626  0.9739  0.1028  0.1920
 2998TIP3    H130629   2.594   2.278   0.600  1.6655  1.3417  0.9148
 2998TIP3    H230630   2.740   2.249   0.572  1.0155 -0.9528 -0.3285
 2999TIP3   OH230631   5.380   1.845   8.640  0.2601  0.2476  0.1201
 2999TIP3    H130632   5.368   1.751   8.626 -0.2419  0.4903 -1.3546
 2999TIP3    H230633   5.291   1.878   8.656  0.1557  0.6868 -1.1623
 3000TIP3   OH230634   3.733   2.940   0.041 -0.1411  0.3735 -0.2183
 3000TIP3    H130635   3.791   2.961   0.114  1.7031  0.6142 -1.7081
 3000TIP3    H230636   3.691   2.858   0.068  0.1617  0.6820  1.2846
 3001TIP3   OH230637   0.836   1.866   1.604 -0.5668 -0.5159 -0.0204
 3001TIP3    H130638   0.891   1.817   1.665 -1.2292 -0.6021  0.5255
 3001TIP3    H230639   0.785   1.799   1.558  0.7201 -0.5248 -1.4806
 3002TIP3   OH230640   5.696   1.829   1.367 -0.2850  0.0968 -0.0419
 3002TIP3    H130641   5.707   1.868   1.453 -0.3960  0.9069 -0.3817
 3002TIP3    H230642   5.701   1.735   1.382  1.4346  0.2559  0.6016
 3003TIP3   OH230643   2.614   2.657   0.056  0.1947  0.4195  0.4621
 3003TIP3    H130644   2.641   2.578   0.009 -0.3902 -0.6269  1.8003
 3003TIP3    H230645   2.519   2.658   0.050  0.1469  0.5580  1.1673
 3004TIP3   OH230646   6.079   3.754   0.932  0.2517 -0.3665  0.4083
 3004TIP3    H130647   6.011   3.689   0.912  0.2653  0.1106 -1.4235
 3004TIP3    H230648   6.107   3.786   0.846  1.8669  0.4147  1.1799
 3005TIP3   OH230649   6.442   4.314   7.355  1.0499  0.7779  0.3617
 3005TIP3    H130650   6.377   4.250   7.327 -1.6731  3.2854  0.3854
 3005TIP3    H230651   6.476   4.351   7.273 -0.3603  1.9891  0.2816
 3006TIP3   OH230652   2.605   0.959   0.962 -0.5517 -0.2456 -0.7108
 3006TIP3    H130653   2.687   0.949   1.011 -1.1452  0.7962  0.5609
 3006TIP3    H230654   2.599   0.879   0.909  1.2368 -0.3802 -0.7951
 3007TIP3   OH230655   1.719   2.894   1.969  0.9182  0.1812 -0.2404
 3007TIP3    H130656   1.745   2.968   2.023  0.7632  1.2045 -1.5325
 3007TIP3    H230657   1.775   2.822   1.999  1.4397  0.9399  0.6665
 3008TIP3   OH230658   1.819   5.645   2.188 -0.8595 -1.2995  0.3360
 3008TIP3    H130659   1.823   5.726   2.240  0.2343 -0.8292 -0.4302
 3008TIP3    H230660   1.879   5.585   2.232 -2.2330 -2.0089  1.3426
 3009TIP3   OH230661   0.032   0.573   7.524 -0.1912  0.6951  0.1262
 3009TIP3    H130662  -0.055   0.552   7.489  0.0250  0.6320 -0.3739
 3009TIP3    H230663   0.057   0.654   7.481 -0.3662  1.1796  0.9170
 3010TIP3   OH230664   2.631   6.784   7.451  0.2128  0.4368  0.2900
 3010TIP3    H130665   2.556   6.843   7.458  0.4630  1.1932 -2.3106
 3010TIP3    H230666   2.592   6.696   7.449 -0.4201  0.6964  0.9509
 3011TIP3   OH230667   6.112   0.980   7.227 -0.2741 -0.4274 -0.4277
 3011TIP3    H130668   6.158   0.896   7.230  0.0421 -0.2658 -0.7243
 3011TIP3    H230669   6.037   0.968   7.285  1.1810 -0.0561  1.6386
 3012TIP3   OH230670   2.497   6.714   2.138  0.0398  0.2434  0.1436
 3012TIP3    H130671   2.585   6.750   2.131 -0.0509  0.4001 -0.1768
 3012TIP3    H230672   2.499   6.664   2.220  1.4604 -2.5869 -1.4416
 3013TIP3   OH230673   6.024   2.638   0.559 -0.0667  0.6472 -0.2465
 3013TIP3    H130674   6.032   2.620   0.465 -0.7651  0.8052 -0.3393
 3013TIP3    H230675   6.097   2.591   0.599 -0.1543  0.0349 -0.7969
 3014TIP3   OH230676   6.005   4.253   0.045  0.5517 -0.4463 -0.0873
 3014TIP3    H130677   6.076   4.298   0.092 -2.1016  1.4415  2.4666
 3014TIP3    H230678   5.972   4.319  -0.016  0.7967 -1.2674 -1.1449
 3015TIP3   OH230679   2.515   2.570   0.505 -0.1433  0.0195 -0.0188
 3015TIP3    H130680   2.490   2.484   0.473 -0.3062 -1.1908  3.0228
 3015TIP3    H230681   2.535   2.620   0.426  3.5334 -3.8451 -1.9431
 3016TIP3   OH230682   3.834   1.866   7.871 -0.9204 -0.0270 -0.0515
 3016TIP3    H130683   3.923   1.894   7.891 -0.3960 -0.4380 -1.6397
 3016TIP3    H230684   3.812   1.803   7.940  0.8455 -1.5225 -0.7775
 3017TIP3   OH230685   1.836   3.728   0.093  0.1001  0.0490  0.1224
 3017TIP3    H130686   1.765   3.753   0.034 -0.9701 -0.5885  1.1004
 3017TIP3    H230687   1.802   3.652   0.140  1.5706 -0.4663  0.3803
 3018TIP3   OH230688   2.518   4.537   7.357 -0.4652  0.4876  0.3959
 3018TIP3    H130689   2.555   4.457   7.393  1.1107  0.9507 -0.1363
 3018TIP3    H230690   2.469   4.576   7.430 -0.7931 -0.6587  0.8100
 3019TIP3   OH230691   5.286   5.501   8.441 -0.4052 -0.8764 -0.0061
 3019TIP3    H130692   5.211   5.490   8.499 -0.9093  0.1607 -0.4490
 3019TIP3    H230693   5.351   5.439   8.475 -0.7559 -0.4367  1.5566
 3020TIP3   OH230694   2.128   2.485   7.712 -0.2060  0.0954  0.1424
 3020TIP3    H130695   2.199   2.421   7.718  0.8874  1.2528 -0.2223
 3020TIP3    H230696   2.081   2.462   7.632  0.8286  0.4012 -0.5587
 3021TIP3   OH230697   6.048   0.168   0.887  0.3414 -0.3460  0.0988
 3021TIP3    H130698   6.026   0.075   0.885 -1.6982  0.1086 -1.6709
 3021TIP3    H230699   6.124   0.175   0.828  0.4336 -0.8552  0.1462
 3022TIP3   OH230700   0.993   5.721   1.001  0.1465  0.0314 -1.2329
 3022TIP3    H130701   1.035   5.677   1.074  0.7391  0.1303 -1.5058
 3022TIP3    H230702   1.059   5.720   0.931  0.4635  2.0197 -1.0103
 3023TIP3   OH230703   3.198   5.705   8.525 -0.5599  0.3186 -0.0797
 3023TIP3    H130704   3.237   5.783   8.564 -1.2548 -0.4732  2.3948
 3023TIP3    H230705   3.105   5.728   8.515 -0.6294  0.0577 -0.0284
 3024TIP3   OH230706   5.025   3.709   1.526 -0.2073 -0.2532  0.1834
 3024TIP3    H130707   5.106   3.700   1.476 -0.2552 -0.3664  0.1249
 3024TIP3    H230708   5.050   3.758   1.604 -0.2315  0.3471 -0.1834
 3025TIP3   OH230709   4.202   5.693   1.882 -0.1270  0.1324  0.2430
 3025TIP3    H130710   4.107   5.693   1.895 -0.2535 -0.0301 -0.6443
 3025TIP3    H230711   4.226   5.786   1.883  0.0817  0.1482  2.8932
 3026TIP3   OH230712   2.013   3.355   8.028 -0.2009  0.3237  0.1816
 3026TIP3    H130713   1.933   3.402   8.005  0.9212  0.8306 -3.2735
 3026TIP3    H230714   2.000   3.267   7.993 -0.2613 -0.4850  2.0887
 3027TIP3   OH230715   3.086   3.958   8.282  0.1578 -0.1612 -0.4258
 3027TIP3    H130716   3.025   4.029   8.262 -1.0689 -0.2386  2.5190
 3027TIP3    H230717   3.037   3.878   8.266 -0.7261 -0.2236  2.1386
 3028TIP3   OH230718   6.373   2.709   2.891 -0.6192 -0.6357  0.3363
 3028TIP3    H130719   6.331   2.759   2.820  1.0427  1.0485  0.4553
 3028TIP3    H230720   6.314   2.636   2.907 -1.8152 -0.2035 -1.7364
 3029TIP3   OH230721   2.536   1.461   2.568 -0.2037 -0.0163  0.0965
 3029TIP3    H130722   2.563   1.541   2.523  0.1536 -0.1514  0.0709
 3029TIP3    H230723   2.617   1.413   2.583  0.2698  1.6606  4.1497
 3030TIP3   OH230724   3.599   4.259   8.800 -0.1884 -0.3903 -0.6695
 3030TIP3    H130725   3.551   4.323   8.852  1.0193  0.1780 -0.2287
 3030TIP3    H230726   3.536   4.188   8.786 -1.2714  0.5016 -0.4459
 3031TIP3   OH230727   4.599   5.341   1.445  0.0314  0.6734 -0.1633
 3031TIP3    H130728   4.603   5.366   1.353 -0.1465  1.8035  0.1159
 3031TIP3    H230729   4.539   5.267   1.447 -1.0019  1.4507 -0.8209
 3032TIP3   OH230730   3.227   3.780   8.478  0.8864 -0.6222  0.5218
 3032TIP3    H130731   3.170   3.850   8.444  1.8000  0.5446  1.3114
 3032TIP3    H230732   3.177   3.743   8.551  0.5944 -0.4569  0.4090
 3033TIP3   OH230733   0.623   1.916   7.317 -0.3816  0.0745  0.2313
 3033TIP3    H130734   0.716   1.922   7.340 -0.1376  0.2848 -0.7798
 3033TIP3    H230735   0.587   2.001   7.341 -0.3884 -0.1112  0.9073
 3034TIP3   OH230736   1.695   1.638   2.605  0.1842 -0.5743  0.7683
 3034TIP3    H130737   1.674   1.562   2.660 -0.5660 -2.0496 -1.4250
 3034TIP3    H230738   1.759   1.604   2.541 -0.0561  0.6738 -0.1691
 3035TIP3   OH230739   1.555   5.709   0.457  0.7174  0.3061 -0.0556
 3035TIP3    H130740   1.611   5.785   0.471  0.2183  0.4630  1.1909
 3035TIP3    H230741   1.585   5.644   0.521  1.2051 -0.6101 -1.1698
 3036TIP3   OH230742   0.088   5.745   0.535  0.0522 -0.3956  0.0963
 3036TIP3    H130743  -0.000   5.781   0.544 -0.2329 -1.4857  2.0230
 3036TIP3    H230744   0.128   5.797   0.465 -0.7607  2.7779  1.8319
 3037TIP3   OH230745   4.133   4.131   0.962  0.0610  0.4009  0.0588
 3037TIP3    H130746   4.118   4.046   0.921  1.4096  0.7313 -1.1952
 3037TIP3    H230747   4.185   4.111   1.040  0.2625  0.0517 -0.1591
 3038TIP3   OH230748   3.160   3.307   8.390  0.3985  0.2827  0.1804
 3038TIP3    H130749   3.149   3.212   8.386 -0.7073  0.3014  1.8189
 3038TIP3    H230750   3.206   3.322   8.472  1.1383  1.1486 -0.3721
 3039TIP3   OH230751   1.510   1.689   1.534  0.3826  0.8969 -0.0320
 3039TIP3    H130752   1.582   1.721   1.480  0.6570 -1.6972 -1.3712
 3039TIP3    H230753   1.444   1.660   1.470 -2.1496  3.5402  1.1249
 3040TIP3   OH230754   0.589   1.210   1.625 -0.4783  0.2412 -0.9327
 3040TIP3    H130755   0.511   1.206   1.680  0.1951 -0.4302  0.0021
 3040TIP3    H230756   0.590   1.127   1.578  0.7374 -0.6530  0.5894
 3041TIP3   OH230757   5.820   4.267   2.356 -0.7872  0.2641  0.2178
 3041TIP3    H130758   5.914   4.252   2.361 -0.7538 -0.1866 -1.1634
 3041TIP3    H230759   5.783   4.208   2.422 -0.1469 -0.0987  0.2665
 3042TIP3   OH230760   4.681   3.140   8.221  0.4099  0.2701  0.1322
 3042TIP3    H130761   4.733   3.173   8.294  0.1319  0.7149  0.1310
 3042TIP3    H230762   4.648   3.056   8.252  2.5468 -0.8886 -0.5067
 3043TIP3   OH230763   0.492   5.613   8.737 -0.1140  0.5126 -0.1621
 3043TIP3    H130764   0.414   5.618   8.792 -0.1530  3.1649 -0.3160
 3043TIP3    H230765   0.458   5.613   8.647  0.0242  0.2122 -0.2132
 3044TIP3   OH230766   4.291   6.246   8.433  0.2599  0.5879 -0.0634
 3044TIP3    H130767   4.312   6.340   8.432  2.0466  0.2229 -0.9316
 3044TIP3    H230768   4.343   6.210   8.504  0.8292  0.0225 -0.7461
 3045TIP3   OH230769   1.265   3.438   0.175  0.2281  0.3942 -0.5007
 3045TIP3    H130770   1.300   3.525   0.156  1.2710 -0.2298 -1.6039
 3045TIP3    H230771   1.329   3.377   0.138 -1.1419 -0.8380 -0.9643
 3046TIP3   OH230772   3.839   0.304   1.735  0.6417  0.7816  0.5817
 3046TIP3    H130773   3.769   0.332   1.794  0.1396 -2.4252  1.6782
 3046TIP3    H230774   3.918   0.304   1.789  1.3956  3.3224 -0.3670
 3047TIP3   OH230775   5.347   2.858   0.840 -0.3381  0.1449  0.0099
 3047TIP3    H130776   5.386   2.860   0.928 -1.8606  0.0780  0.7165
 3047TIP3    H230777   5.376   2.940   0.800 -0.1518  0.4963  0.8268
 3048TIP3   OH230778   5.857   0.342   6.355  0.2857  0.3884  0.0203
 3048TIP3    H130779   5.797   0.416   6.348  0.0039  0.2438  0.8566
 3048TIP3    H230780   5.824   0.278   6.292 -0.0237  0.5879 -0.0196
 3049TIP3   OH230781   5.322   3.472   0.609 -0.2318 -0.2676  0.1150
 3049TIP3    H130782   5.414   3.478   0.583 -0.4305  1.8358 -0.3112
 3049TIP3    H230783   5.284   3.555   0.579 -1.7183 -0.0534  2.3858
 3050TIP3   OH230784   6.437   0.243   8.269  0.5165 -0.2112 -1.0175
 3050TIP3    H130785   6.508   0.180   8.260  1.3450  0.5834 -0.2154
 3050TIP3    H230786   6.480   0.329   8.272 -0.3142  0.1945  1.0876
 3051TIP3   OH230787   3.965   1.464   2.039 -0.6240  0.9604 -0.4468
 3051TIP3    H130788   3.889   1.482   2.096 -0.5681  1.6786 -0.5906
 3051TIP3    H230789   3.977   1.369   2.045 -0.4834  1.0392  0.9251
 3052TIP3   OH230790   2.833   0.950   1.607 -0.2889  0.0915  0.4096
 3052TIP3    H130791   2.817   0.977   1.697 -1.7047 -0.9792  0.5122
 3052TIP3    H230792   2.862   0.859   1.614  0.0086  0.1354 -0.1865
 3053TIP3   OH230793   3.017   3.635   1.521 -0.0281 -0.0393 -0.0908
 3053TIP3    H130794   3.111   3.645   1.530  0.1213 -0.4385 -1.0888
 3053TIP3    H230795   2.991   3.708   1.464 -0.3775  0.2633  0.4473
 3054TIP3   OH230796   4.455   0.536   7.421  0.8593 -0.1111  0.0450
 3054TIP3    H130797   4.493   0.463   7.373  0.7490  0.7289 -1.3540
 3054TIP3    H230798   4.362   0.537   7.395  1.1050  1.2347 -0.9157
 3055TIP3   OH230799   5.334   3.755   7.853 -0.1730 -0.3538 -0.5146
 3055TIP3    H130800   5.378   3.754   7.938 -2.1097  1.3862  0.5812
 3055TIP3    H230801   5.292   3.669   7.847  0.1811 -0.5833  0.1506
 3056TIP3   OH230802   4.254   3.357   1.717 -0.4939 -0.2566  0.6532
 3056TIP3    H130803   4.239   3.414   1.642 -1.1619  1.5005  2.0434
 3056TIP3    H230804   4.241   3.268   1.683 -2.1277  0.5541 -0.9905
 3057TIP3   OH230805   0.128   4.225   2.211 -0.0180 -0.0135  0.0905
 3057TIP3    H130806   0.217   4.195   2.196 -0.7864 -1.2846 -2.4155
 3057TIP3    H230807   0.076   4.145   2.221 -1.2163  0.6229 -0.7356
 3058TIP3   OH230808   5.765   1.081   0.398  0.3270 -0.4753 -0.4341
 3058TIP3    H130809   5.702   1.011   0.413 -1.4838  1.3433  1.2236
 3058TIP3    H230810   5.738   1.120   0.314  1.3709 -1.7273 -1.3842
 3059TIP3   OH230811   4.266   0.459   1.085 -0.1279  0.0502  0.2128
 3059TIP3    H130812   4.279   0.448   0.991  1.4567 -1.0207  0.5223
 3059TIP3    H230813   4.172   0.476   1.094 -0.9368 -2.9094 -1.3193
 3060TIP3   OH230814   5.235   4.189   6.996  0.6541 -0.0792 -0.2284
 3060TIP3    H130815   5.194   4.158   6.916  1.8748 -3.0674  0.1776
 3060TIP3    H230816   5.326   4.162   6.989  1.1738  1.0135  1.5023
 3061TIP3   OH230817   1.904   5.154   0.871 -0.3647 -0.2445  0.3759
 3061TIP3    H130818   1.967   5.204   0.923  0.4908 -3.3792  2.6458
 3061TIP3    H230819   1.834   5.133   0.932 -1.5704 -0.3586 -0.9961
 3062TIP3   OH230820   3.180   1.978   0.644 -0.4341  0.4157  0.2092
 3062TIP3    H130821   3.209   2.053   0.696  1.9119 -1.7378  2.2445
 3062TIP3    H230822   3.226   1.987   0.561  0.1800  1.0067  0.6014
 3063TIP3   OH230823   1.855   0.581   0.406  0.0085  0.3731  0.1730
 3063TIP3    H130824   1.811   0.666   0.395 -0.3439  0.1345 -0.3379
 3063TIP3    H230825   1.946   0.603   0.423 -0.3054  0.8862  1.2737
 3064TIP3   OH230826   5.019   0.975   7.452 -0.6954 -0.0455  0.2455
 3064TIP3    H130827   5.023   1.061   7.410 -0.5604 -0.0353  0.2770
 3064TIP3    H230828   4.947   0.982   7.514  0.3761  0.6084  1.4718
 3065TIP3   OH230829   3.573   4.470   1.350 -0.0445 -0.1531 -0.3111
 3065TIP3    H130830   3.581   4.396   1.410 -0.2688  0.0755  0.0076
 3065TIP3    H230831   3.505   4.525   1.389 -1.0437 -0.5709 -1.3732
 3066TIP3   OH230832   5.600   4.225   8.481  0.0278 -0.2176  0.0968
 3066TIP3    H130833   5.544   4.150   8.501  2.3190 -1.9533  0.3930
 3066TIP3    H230834   5.584   4.287   8.552 -1.0934 -0.8716  0.4477
 3067TIP3   OH230835   5.914   6.597   7.148 -0.1081 -0.1145  0.6925
 3067TIP3    H130836   5.852   6.526   7.131 -1.9519  1.7054 -0.5437
 3067TIP3    H230837   5.992   6.573   7.097 -0.6131 -1.3539  0.4726
 3068TIP3   OH230838   1.431   6.530   7.705  0.2463  0.2520  0.7553
 3068TIP3    H130839   1.438   6.443   7.665  0.9771  0.6684 -0.0511
 3068TIP3    H230840   1.502   6.581   7.665  1.0231  0.6938  2.6087
 3069TIP3   OH230841   4.630   4.172   2.159  0.3176 -0.5487  0.4848
 3069TIP3    H130842   4.537   4.165   2.181  0.0466 -0.8714 -0.7132
 3069TIP3    H230843   4.663   4.240   2.218 -1.4951  2.2209 -1.4393
 3070TIP3   OH230844   2.008   5.066   1.401 -0.1689 -0.3825  0.1049
 3070TIP3    H130845   1.914   5.083   1.405 -0.0143  0.6965 -0.4532
 3070TIP3    H230846   2.023   4.997   1.465 -0.8819  1.5072  2.4485
 3071TIP3   OH230847   6.790   2.435   2.026 -0.8260 -0.0129  0.4649
 3071TIP3    H130848   6.792   2.405   2.117  0.8200 -0.3129  0.3705
 3071TIP3    H230849   6.878   2.470   2.011 -0.5262 -1.4473 -1.4809
 3072TIP3   OH230850   5.107   5.541   8.641 -0.3612  0.4306  0.2337
 3072TIP3    H130851   5.053   5.598   8.696  1.7522  2.3217  0.5132
 3072TIP3    H230852   5.098   5.454   8.679 -2.0492  0.9266  1.0881
 3073TIP3   OH230853   2.185   3.577   7.104  0.7310 -0.1603 -0.0142
 3073TIP3    H130854   2.144   3.621   7.179  1.4299 -0.6044  0.6419
 3073TIP3    H230855   2.126   3.595   7.031  0.4348  0.9365  0.4729
 3074TIP3   OH230856   5.926   0.730   8.167 -0.0129  0.1009 -0.3920
 3074TIP3    H130857   5.916   0.648   8.119  1.1288  0.1512 -0.7550
 3074TIP3    H230858   6.014   0.726   8.204 -0.9493 -0.0620  1.9966
 3075TIP3   OH230859   0.687   6.654   0.692  0.1357  0.6306  0.0046
 3075TIP3    H130860   0.632   6.703   0.752  1.7886  2.3030  0.2265
 3075TIP3    H230861   0.774   6.694   0.700  1.0693 -0.9766 -1.3741
 3076TIP3   OH230862   6.744   6.757   0.080  0.6506  0.7505 -0.0151
 3076TIP3    H130863   6.664   6.705   0.069 -0.3150  2.3838 -0.9930
 3076TIP3    H230864   6.805   6.721   0.016  0.7683 -0.5384  0.7701
 3077TIP3   OH230865   5.368   2.988   0.391 -0.3704 -0.2557 -0.6769
 3077TIP3    H130866   5.349   3.054   0.324  1.3903  0.4298 -0.5541
 3077TIP3    H230867   5.455   3.011   0.423  0.2351 -2.5592 -0.5077
 3078TIP3   OH230868   6.087   2.248   7.184  0.0782  0.0509  0.4872
 3078TIP3    H130869   6.014   2.215   7.131 -0.0132  0.4861  0.3434
 3078TIP3    H230870   6.144   2.171   7.195 -0.3550 -0.2699  0.5304
 3079TIP3   OH230871   6.343   1.392   7.386 -0.4222  0.4009  0.1700
 3079TIP3    H130872   6.269   1.332   7.376 -0.7524  0.6864  0.8745
 3079TIP3    H230873   6.380   1.399   7.298 -0.7346 -0.3795 -0.0304
 3080TIP3   OH230874   2.361   4.943   1.884 -0.0626 -0.3606  0.3977
 3080TIP3    H130875   2.369   5.038   1.892  2.3109 -0.5106  0.4414
 3080TIP3    H230876   2.366   4.911   1.974  4.8545 -0.7486  0.2499
 3081TIP3   OH230877   6.544   1.599   8.066 -0.0819 -0.6170 -0.5374
 3081TIP3    H130878   6.610   1.531   8.078  0.7385 -0.3360 -2.9207
 3081TIP3    H230879   6.478   1.581   8.133  1.8066 -1.6104  1.1607
 3082TIP3   OH230880   4.547   6.301   0.324 -0.0005  0.4338 -0.3711
 3082TIP3    H130881   4.548   6.397   0.317 -2.4500  0.4512 -1.6600
 3082TIP3    H230882   4.623   6.272   0.275  1.1759  1.7248  0.6250
 3083TIP3   OH230883   4.204   0.506   8.515  0.3539  0.3644  0.4154
 3083TIP3    H130884   4.181   0.437   8.577 -2.7312  0.6296 -0.2822
 3083TIP3    H230885   4.297   0.491   8.497  0.4002 -2.0906  2.1056
 3084TIP3   OH230886   6.566   6.245   0.191  1.1472  0.0495  0.4290
 3084TIP3    H130887   6.531   6.283   0.110  1.4939  0.7046  0.5792
 3084TIP3    H230888   6.494   6.252   0.254  1.1230  0.2243  0.3832
 3085TIP3   OH230889   2.067   3.638   8.268 -0.4396  0.5892  0.3136
 3085TIP3    H130890   2.007   3.666   8.337 -0.0151  1.2174  0.4465
 3085TIP3    H230891   2.016   3.642   8.188 -1.1891 -0.9816  0.6927
 3086TIP3   OH230892   1.454   5.172   1.339  0.4977 -0.1874  0.0236
 3086TIP3    H130893   1.448   5.098   1.279  0.6139 -0.3653  0.2275
 3086TIP3    H230894   1.403   5.144   1.415 -0.8545  0.6066 -0.5574
 3087TIP3   OH230895   1.629   3.486   7.557 -0.1380 -0.0461  0.2212
 3087TIP3    H130896   1.673   3.472   7.472  1.8831  1.0581  1.0029
 3087TIP3    H230897   1.602   3.578   7.554  0.7160  0.2557  1.0506
 3088TIP3   OH230898   5.565   0.783   7.373  0.0471 -0.1122  0.0417
 3088TIP3    H130899   5.591   0.748   7.459  0.4946  1.3504  0.5339
 3088TIP3    H230900   5.534   0.707   7.324 -0.6941 -0.9185  1.6775
 3089TIP3   OH230901   6.745   1.360   1.297 -0.1073 -0.1295 -0.4424
 3089TIP3    H130902   6.742   1.286   1.237 -0.0354  0.5287 -1.2743
 3089TIP3    H230903   6.839   1.378   1.307 -0.1127 -0.3037 -0.0308
 3090TIP3   OH230904   4.979   3.019   0.150  0.0547 -0.0351 -0.2990
 3090TIP3    H130905   4.967   2.992   0.241 -1.1686  0.6320 -0.2432
 3090TIP3    H230906   5.057   3.075   0.152 -1.3134  1.9668  0.8225
 3091TIP3   OH230907   0.793   5.610   8.141 -0.1547 -0.1501  0.1991
 3091TIP3    H130908   0.795   5.563   8.058  1.6029  0.0093  0.1210
 3091TIP3    H230909   0.801   5.541   8.207 -0.1973 -0.1683  0.1860
 3092TIP3   OH230910   0.050   2.422   8.005  0.2547  0.1442  0.4344
 3092TIP3    H130911  -0.007   2.495   7.983 -0.0786 -0.2429  0.0004
 3092TIP3    H230912   0.121   2.461   8.055  0.0028  0.7416  0.3271
 3093TIP3   OH230913   5.811   1.065   0.120  0.4039 -0.6672  0.0470
 3093TIP3    H130914   5.837   1.057   0.028 -0.5783  1.0635 -0.4296
 3093TIP3    H230915   5.874   1.012   0.167  0.6927 -1.9243 -1.6621
 3094TIP3   OH230916   3.858   3.973   6.600 -0.0169  0.3301  0.3791
 3094TIP3    H130917   3.908   3.963   6.519 -0.5312 -1.1295  0.2084
 3094TIP3    H230918   3.772   4.004   6.570 -1.1893 -2.9518 -0.0253
 3095TIP3   OH230919   1.271   2.587   8.521  0.2733  0.2812  0.3313
 3095TIP3    H130920   1.323   2.613   8.445 -0.6093  2.0937  0.3012
 3095TIP3    H230921   1.202   2.652   8.527  0.7806  0.7123  3.1629
 3096TIP3   OH230922   6.214   4.772   2.587  0.3380 -0.0080 -0.1770
 3096TIP3    H130923   6.303   4.788   2.555  0.0501  0.1822 -0.9241
 3096TIP3    H230924   6.219   4.687   2.631  0.8369 -0.1193 -0.4340
 3097TIP3   OH230925   5.963   5.627   2.690 -0.0207 -0.1273  0.4129
 3097TIP3    H130926   5.902   5.563   2.655 -0.4215  0.0932  0.6898
 3097TIP3    H230927   5.975   5.601   2.782 -1.8220  1.3447  1.1550
 3098TIP3   OH230928   2.444   2.358   8.395 -0.1818 -0.0567  0.0050
 3098TIP3    H130929   2.367   2.304   8.377 -0.0593  0.1576 -1.2421
 3098TIP3    H230930   2.459   2.406   8.314  0.8004  0.4905  0.4962
 3099TIP3   OH230931   0.197   0.553   7.758  0.4025  0.2726  0.0270
 3099TIP3    H130932   0.253   0.631   7.751 -0.7836  1.0562 -1.1183
 3099TIP3    H230933   0.135   0.562   7.686 -2.4014  0.3902  2.3084
 3100TIP3   OH230934   5.732   4.101   7.018 -0.0115  0.3707 -0.5085
 3100TIP3    H130935   5.682   4.053   6.953  0.1572 -1.2161  0.4776
 3100TIP3    H230936   5.695   4.073   7.102  2.0760 -0.3817  0.2192
 3101TIP3   OH230937   6.309   2.218   0.666  0.2340 -0.3698 -0.3214
 3101TIP3    H130938   6.245   2.152   0.637  0.2533 -1.3150  1.5931
 3101TIP3    H230939   6.394   2.175   0.656  0.4161  0.0957 -0.8464
 3102TIP3   OH230940   4.035   4.062   8.041 -0.6134 -0.5159 -0.0624
 3102TIP3    H130941   4.118   4.055   7.994 -0.0012  1.7740  0.5429
 3102TIP3    H230942   3.969   4.068   7.972 -0.1155 -0.8242 -0.5759
 3103TIP3   OH230943   0.283   0.295   6.909 -0.3490  0.0530  0.1764
 3103TIP3    H130944   0.366   0.340   6.923 -1.2262  1.2992  1.9572
 3103TIP3    H230945   0.264   0.307   6.816  0.6249  1.3066  0.1082
 3104TIP3   OH230946   4.682   3.318   2.722 -0.7576 -0.0645  0.0767
 3104TIP3    H130947   4.658   3.259   2.651  0.0412 -0.4598  0.1256
 3104TIP3    H230948   4.686   3.261   2.799 -0.8907  0.2231  0.2949
 3105TIP3   OH230949   0.472   0.638   8.199  0.1925  0.3147 -0.2596
 3105TIP3    H130950   0.429   0.572   8.254 -0.7368  0.2389 -1.0470
 3105TIP3    H230951   0.513   0.587   8.129 -0.5481  0.5456 -0.8818
 3106TIP3   OH230952   2.065   1.325   8.397  0.1947  0.0450 -0.1101
 3106TIP3    H130953   1.988   1.271   8.417  0.8860 -0.4648  1.2618
 3106TIP3    H230954   2.118   1.271   8.338  1.3410 -1.2564  1.9897
 3107TIP3   OH230955   2.384   5.173   0.509 -0.0005  0.1702  0.1352
 3107TIP3    H130956   2.356   5.110   0.576 -1.0837 -0.0134 -0.4553
 3107TIP3    H230957   2.346   5.139   0.427 -1.9425  2.3381  0.0154
 3108TIP3   OH230958   3.725   2.635   6.764 -0.0586  0.2116 -0.1500
 3108TIP3    H130959   3.670   2.680   6.828 -0.9754 -0.3126 -0.5630
 3108TIP3    H230960   3.710   2.682   6.682 -1.3866 -1.0891 -0.6971
 3109TIP3   OH230961   5.259   4.617   0.371  0.3124  0.1826  0.2240
 3109TIP3    H130962   5.321   4.678   0.410  0.7428 -0.5990  0.7985
 3109TIP3    H230963   5.176   4.664   0.371  0.9134  1.2772 -0.6387
 3110TIP3   OH230964   6.264   6.010   1.310 -0.4989 -0.3593  0.1045
 3110TIP3    H130965   6.310   5.958   1.376 -0.1536  0.2742  0.3725
 3110TIP3    H230966   6.321   6.085   1.295 -1.3478  0.3425  0.3019
 3111TIP3   OH230967   2.562   5.911   8.580  0.2842  0.1223 -0.3039
 3111TIP3    H130968   2.593   5.983   8.525  0.8021  0.9531  1.0549
 3111TIP3    H230969   2.595   5.930   8.667  0.3029 -1.6958  0.1266
 3112TIP3   OH230970   3.795   1.876   2.125  0.3206 -0.6055  0.4324
 3112TIP3    H130971   3.703   1.892   2.147 -0.0005  0.5363 -1.6033
 3112TIP3    H230972   3.813   1.789   2.163 -1.5856 -0.8606  0.8596
 3113TIP3   OH230973   2.700   0.935   2.116 -0.0339 -0.1406 -0.1714
 3113TIP3    H130974   2.625   0.994   2.125 -0.2649 -0.7249  2.5788
 3113TIP3    H230975   2.769   0.977   2.167  0.7611 -0.7911 -0.6998
 3114TIP3   OH230976   1.275   6.048   6.815  0.0777  0.1702  0.3151
 3114TIP3    H130977   1.311   6.114   6.756 -0.6322 -0.8328 -1.2948
 3114TIP3    H230978   1.183   6.042   6.793 -0.1029 -0.5963  1.1843
 3115TIP3   OH230979   0.845   2.171   7.488 -0.0920 -0.3052  0.1562
 3115TIP3    H130980   0.822   2.180   7.396 -0.4328 -2.2302  0.0084
 3115TIP3    H230981   0.941   2.180   7.490 -0.2151  1.3937 -0.1165
 3116TIP3   OH230982   1.343   2.598   0.748  0.0539  0.2021  0.4963
 3116TIP3    H130983   1.351   2.692   0.763  0.5695  0.1416  0.6114
 3116TIP3    H230984   1.251   2.586   0.724  0.3201  0.9419 -0.9948
 3117TIP3   OH230985   5.508   3.325   1.160  0.9418  0.1477  0.2183
 3117TIP3    H130986   5.551   3.359   1.239 -0.8574 -0.5963  1.6210
 3117TIP3    H230987   5.431   3.381   1.149  0.5193 -0.5104 -0.2547
 3118TIP3   OH230988   2.032   2.851   0.725 -0.1114 -0.0046  0.2440
 3118TIP3    H130989   1.947   2.865   0.768  0.0673  0.6362  0.3987
 3118TIP3    H230990   2.044   2.756   0.727 -0.6974 -0.0804  0.4730
 3119TIP3   OH230991   6.025   0.119   1.736 -0.8144 -0.1598  0.1573
 3119TIP3    H130992   6.007   0.099   1.644 -0.7925  0.2910  0.0526
 3119TIP3    H230993   5.940   0.114   1.779 -0.8816 -0.0043  0.0425
 3120TIP3   OH230994   2.774   6.409   7.975 -0.1284  0.1013 -0.3504
 3120TIP3    H130995   2.680   6.389   7.969 -0.0214 -0.7074  0.4528
 3120TIP3    H230996   2.779   6.481   8.037 -0.2196  0.1458 -0.3945
 3121TIP3   OH230997   1.866   4.849   0.598 -0.8236  0.8434 -0.2217
 3121TIP3    H130998   1.927   4.922   0.605 -1.3415  1.5009 -2.0344
 3121TIP3    H230999   1.781   4.885   0.622 -0.6853  0.1557  1.4114
 3122TIP3   OH231000   1.532   3.617   7.868 -0.3360  0.0865 -0.9100
 3122TIP3    H131001   1.496   3.529   7.876 -0.9395  0.4617  0.6739
 3122TIP3    H231002   1.479   3.671   7.925  2.0660  0.8616  0.7569
 3123TIP3   OH231003   6.017   3.795   6.639 -0.1844  0.1763 -0.0144
 3123TIP3    H131004   6.030   3.772   6.547 -0.1835  0.1923 -0.0183
 3123TIP3    H231005   5.987   3.714   6.680 -0.4027  0.2262 -0.0748
 3124TIP3   OH231006   0.070   1.789   7.353  0.2590  0.0667  0.2722
 3124TIP3    H131007   0.042   1.831   7.271 -2.1988 -1.2180  0.3604
 3124TIP3    H231008   0.077   1.862   7.415  0.4687  0.8563 -0.6432
 3125TIP3   OH231009   4.908   6.760   2.078  0.1300  0.0519 -0.5775
 3125TIP3    H131010   4.896   6.668   2.056  1.1281 -0.3572  0.4622
 3125TIP3    H231011   4.819   6.794   2.090 -0.2473 -0.7650 -1.0027
 3126TIP3   OH231012   2.639   4.969   7.365 -0.0218  0.0127 -0.1830
 3126TIP3    H131013   2.630   4.890   7.312  0.8306  1.0687 -1.9687
 3126TIP3    H231014   2.552   5.007   7.366 -0.1411 -0.2509 -0.4403
 3127TIP3   OH231015   4.264   1.932   7.463  0.2676 -0.6174 -0.0738
 3127TIP3    H131016   4.223   1.996   7.404 -2.8533 -2.7842 -0.5402
 3127TIP3    H231017   4.285   1.981   7.542  1.7581  1.7364 -1.8248
 3128TIP3   OH231018   5.389   3.432   0.104 -0.0112  0.6849  0.3216
 3128TIP3    H131019   5.370   3.481   0.024 -1.1489 -1.4202 -0.7981
 3128TIP3    H231020   5.305   3.429   0.150 -0.4615 -1.6233 -0.5207
 3129TIP3   OH231021   5.049   4.282   8.271  0.4230  0.5166  0.3721
 3129TIP3    H131022   4.957   4.304   8.256 -0.1760 -0.7082  1.9572
 3129TIP3    H231023   5.048   4.189   8.295  2.2995 -0.0027 -1.2819
 3130TIP3   OH231024   0.999   6.158   1.513  0.6317 -0.7214  0.4617
 3130TIP3    H131025   0.942   6.132   1.585  1.7060 -0.8115  1.3007
 3130TIP3    H231026   0.995   6.253   1.511 -1.3816 -0.7589 -1.0371
 3131TIP3   OH231027   3.950   6.334   1.249  0.0171  0.5562 -0.5505
 3131TIP3    H131028   3.966   6.333   1.155 -0.2729  0.7225 -0.6051
 3131TIP3    H231029   4.034   6.359   1.288  0.2549  0.0555 -0.7358
 3132TIP3   OH231030   5.930   2.364   0.761  0.1413 -0.4928 -0.0947
 3132TIP3    H131031   5.931   2.365   0.856  1.1717  0.7955 -0.0971
 3132TIP3    H231032   6.016   2.396   0.735 -0.9139  1.4470 -1.4456
 3133TIP3   OH231033   0.846   4.606   6.761  0.5634  0.1560 -0.2497
 3133TIP3    H131034   0.919   4.549   6.786 -1.1500 -0.9904  2.6797
 3133TIP3    H231035   0.794   4.553   6.701  0.9711  0.1124 -0.5663
 3134TIP3   OH231036   3.076   5.125   1.141 -0.1074  0.0731  0.5982
 3134TIP3    H131037   3.106   5.052   1.195 -1.4436 -1.1024 -0.1863
 3134TIP3    H231038   3.025   5.084   1.071  0.8295  1.5956 -1.0724
 3135TIP3   OH231039   6.291   6.508   1.769 -0.2578  0.5881 -0.3907
 3135TIP3    H131040   6.368   6.555   1.735 -0.2213 -0.2436 -1.5205
 3135TIP3    H231041   6.256   6.565   1.837  1.0131  1.2616 -0.2739
 3136TIP3   OH231042   2.186   6.501   1.395  0.7205 -0.4813  0.1597
 3136TIP3    H131043   2.185   6.476   1.303  0.8689 -2.3243  0.6296
 3136TIP3    H231044   2.262   6.559   1.403  1.0572 -0.7842 -0.7550
 3137TIP3   OH231045   6.148   0.630   6.914  0.9521 -0.3376  0.0987
 3137TIP3    H131046   6.160   0.629   6.819 -0.3742  1.5491 -0.1558
 3137TIP3    H231047   6.054   0.616   6.926  0.7654  1.3687  0.9734
 3138TIP3   OH231048   2.865   2.692   6.797  0.0136 -0.6199 -0.3427
 3138TIP3    H131049   2.932   2.660   6.737  2.7023  2.6670  0.6238
 3138TIP3    H231050   2.807   2.745   6.743  0.9830  0.3206 -0.4867
 3139TIP3   OH231051   4.547   1.326   2.109  0.1211 -0.6618  0.3305
 3139TIP3    H131052   4.456   1.299   2.102  0.3385 -1.1105 -1.2998
 3139TIP3    H231053   4.584   1.268   2.176 -1.0922  0.4824  2.0411
 3140TIP3   OH231054   5.062   4.572   8.047  0.6497 -0.1796 -0.2336
 3140TIP3    H131055   5.051   4.513   7.972 -1.0359  0.4986 -0.5631
 3140TIP3    H231056   5.005   4.646   8.027  3.1465  1.9100 -0.1330
 3141TIP3   OH231057   5.744   3.783   1.124  0.0972 -0.3211  0.4722
 3141TIP3    H131058   5.802   3.842   1.075 -0.6899 -0.1619 -0.3078
 3141TIP3    H231059   5.803   3.722   1.168  0.9526  1.3051  1.6653
 3142TIP3   OH231060   6.105   1.542   8.643  0.3939 -0.3356  0.3772
 3142TIP3    H131061   6.154   1.609   8.692  2.0280 -0.6138 -0.7810
 3142TIP3    H231062   6.156   1.462   8.656  0.0383 -0.7253 -0.5822
 3143TIP3   OH231063   5.445   4.173   0.233 -0.5293  0.0174 -0.0105
 3143TIP3    H131064   5.506   4.187   0.305  1.3741  0.9411 -1.7244
 3143TIP3    H231065   5.409   4.260   0.214 -0.1754 -0.0214 -0.8826
 3144TIP3   OH231066   5.374   4.725   8.454 -0.3850  0.9861 -0.6003
 3144TIP3    H131067   5.466   4.710   8.479 -1.0960 -1.6954  0.7585
 3144TIP3    H231068   5.372   4.817   8.427  2.2758  1.7583  1.3274
 3145TIP3   OH231069   5.620   2.722   1.988  0.6402 -0.1042  0.1559
 3145TIP3    H131070   5.526   2.703   1.988 -0.2291  3.4684 -0.9877
 3145TIP3    H231071   5.645   2.713   2.080 -0.3878 -2.6309  0.2679
 3146TIP3   OH231072   1.426   4.484   1.319 -0.3928 -0.4440 -0.2569
 3146TIP3    H131073   1.501   4.493   1.378 -0.5541 -0.7598  0.0031
 3146TIP3    H231074   1.432   4.394   1.286 -0.7046 -0.5042 -0.1596
 3147TIP3   OH231075   0.411   5.608   1.481 -0.0027  0.1517 -0.3669
 3147TIP3    H131076   0.468   5.649   1.546 -1.4572  0.2479  0.9185
 3147TIP3    H231077   0.393   5.677   1.418  1.6645 -0.0251 -1.0814
 3148TIP3   OH231078   4.682   2.595   8.367 -0.1463  0.4903  0.2125
 3148TIP3    H131079   4.751   2.655   8.338  1.0528 -1.3916 -1.0836
 3148TIP3    H231080   4.719   2.552   8.444 -1.1375  1.5803  1.3421
 3149TIP3   OH231081   3.810   0.199   8.215 -0.0271  0.0001  0.8041
 3149TIP3    H131082   3.854   0.216   8.132 -0.2005 -1.6781  0.3276
 3149TIP3    H231083   3.867   0.238   8.281  1.2506 -0.5369  0.0542
 3150TIP3   OH231084   4.084   0.530   1.598 -0.4450  1.1169  0.4755
 3150TIP3    H131085   4.078   0.456   1.657  0.7542  1.9514  1.7032
 3150TIP3    H231086   4.174   0.526   1.564 -0.6826  1.4451 -0.2117
 3151TIP3   OH231087   3.677   0.300   7.761  0.1979  0.3616  0.5361
 3151TIP3    H131088   3.700   0.263   7.675  1.1732  1.2537  0.3772
 3151TIP3    H231089   3.679   0.226   7.821 -2.1376 -0.5927 -0.4549
 3152TIP3   OH231090   2.118   2.320   8.634 -0.5507 -0.3653  0.6732
 3152TIP3    H131091   2.176   2.313   8.557 -0.6036  0.7892  0.5118
 3152TIP3    H231092   2.176   2.349   8.704 -0.6254 -0.8185  0.9266
 3153TIP3   OH231093   2.382   1.134   7.357  0.3446 -0.2160 -0.0616
 3153TIP3    H131094   2.388   1.110   7.449 -0.8293  1.9454  0.6463
 3153TIP3    H231095   2.296   1.103   7.330 -1.4018  3.1549  0.9953
 3154TIP3   OH231096   2.252   1.263   0.798 -0.5865 -0.3325 -0.4874
 3154TIP3    H131097   2.304   1.198   0.750 -2.9088 -1.0836 -2.1625
 3154TIP3    H231098   2.193   1.211   0.853  0.5743  0.5087  1.7041
 3155TIP3   OH231099   0.973   1.089   1.922 -0.8321 -0.5103  0.4477
 3155TIP3    H131100   1.003   1.058   1.837 -0.8442 -0.1393  0.3073
 3155TIP3    H231101   0.892   1.040   1.938 -1.3484  0.1041 -0.1930
 3156TIP3   OH231102   6.065   0.448   0.696 -0.4359  0.3964  0.7195
 3156TIP3    H131103   5.983   0.417   0.733 -1.4836  3.1534  1.0059
 3156TIP3    H231104   6.111   0.488   0.769  1.3160 -1.2678  0.5930
 3157TIP3   OH231105   0.056   2.470   0.710  0.1011  0.0990 -0.0788
 3157TIP3    H131106   0.102   2.544   0.750 -1.0123  0.7619  0.0104
 3157TIP3    H231107   0.085   2.471   0.619  1.0047 -0.1000  0.1949
 3158TIP3   OH231108   1.861   2.937   6.393 -1.1836  0.4018  0.0939
 3158TIP3    H131109   1.811   2.865   6.354 -2.0617  0.7359  0.5799
 3158TIP3    H231110   1.798   2.984   6.447 -0.2575  0.6039  1.0467
 3159TIP3   OH231111   6.463   3.873   0.094 -0.9684 -0.5189 -0.4219
 3159TIP3    H131112   6.472   3.933   0.020 -2.0055 -0.2379 -0.3332
 3159TIP3    H231113   6.548   3.828   0.099 -0.0848  1.0880 -0.3583
 3160TIP3   OH231114   0.966   0.149   6.690  0.1156 -0.0711 -0.3782
 3160TIP3    H131115   0.974   0.167   6.596  0.3876  2.0857  0.0057
 3160TIP3    H231116   0.904   0.215   6.722 -1.3261 -1.8608  0.7044
 3161TIP3   OH231117   5.845   0.362   0.151  0.0746  0.8477  0.3438
 3161TIP3    H131118   5.839   0.270   0.175 -0.4678  0.5887 -0.7542
 3161TIP3    H231119   5.931   0.389   0.183 -0.2803  0.3250  1.8364
 3162TIP3   OH231120   1.548   1.641   2.195 -0.0057 -0.5241  0.1781
 3162TIP3    H131121   1.637   1.627   2.164 -0.6689 -1.3074 -1.5092
 3162TIP3    H231122   1.516   1.553   2.218 -0.0164 -0.1285  1.8432
 3163TIP3   OH231123   3.235   2.450   0.875 -0.5656  0.1292  0.3532
 3163TIP3    H131124   3.162   2.392   0.898 -2.3405  2.6186  1.4458
 3163TIP3    H231125   3.273   2.410   0.797 -1.5752 -2.5312  1.1079
 3164TIP3   OH231126   3.020   4.240   1.604 -0.1684  0.2267  0.2303
 3164TIP3    H131127   2.990   4.326   1.631  0.5119  0.2964  0.7886
 3164TIP3    H231128   3.073   4.209   1.677  1.4074  0.2763 -0.8403
 3165TIP3   OH231129   4.163   4.474   0.417  0.1496  0.0800 -0.4612
 3165TIP3    H131130   4.104   4.513   0.352  1.6719  1.4021 -1.1162
 3165TIP3    H231131   4.244   4.524   0.408  0.7864 -0.4972  1.6643
 3166TIP3   OH231132   3.179   5.473   7.641 -0.5982  0.3632 -0.8487
 3166TIP3    H131133   3.222   5.535   7.582 -2.0359  1.7993 -0.4640
 3166TIP3    H231134   3.088   5.471   7.612 -0.3024 -2.9785 -1.9653
 3167TIP3   OH231135   3.368   1.119   6.796  0.0644  0.0433 -0.1797
 3167TIP3    H131136   3.334   1.067   6.724 -0.0812  0.2976 -0.2970
 3167TIP3    H231137   3.459   1.138   6.771  0.3341 -0.7150  0.1774
 3168TIP3   OH231138   3.122   1.225   1.607 -0.0797 -0.1676  0.0452
 3168TIP3    H131139   3.081   1.292   1.551 -1.2514 -0.3630  0.6476
 3168TIP3    H231140   3.175   1.173   1.546 -0.2277  0.4708 -0.6540
 3169TIP3   OH231141   2.884   3.011   1.704  0.2348 -0.0257  0.3411
 3169TIP3    H131142   2.851   3.014   1.794 -0.2316 -2.0158  0.2847
 3169TIP3    H231143   2.963   2.957   1.709  0.5710  0.4009 -0.3364
 3170TIP3   OH231144   6.327   3.369   8.088  0.3996  0.1073 -0.3158
 3170TIP3    H131145   6.409   3.418   8.098 -0.3689  1.2742  0.3922
 3170TIP3    H231146   6.319   3.320   8.170  0.1382  0.3761 -0.1820
 3171TIP3   OH231147   3.014   3.024   8.119  0.0182 -0.2713  0.4757
 3171TIP3    H131148   3.009   3.120   8.126 -0.9426 -0.2825  0.0617
 3171TIP3    H231149   2.925   2.997   8.096  0.4521 -1.1974 -0.1817
 3172TIP3   OH231150   1.907   4.006   7.331 -0.5367 -0.3972  0.7704
 3172TIP3    H131151   1.842   4.064   7.291  1.1565  1.4315  0.4736
 3172TIP3    H231152   1.882   4.003   7.423 -1.0085  0.3648  0.6825
 3173TIP3   OH231153   1.020   2.705   8.020 -0.6521 -0.0390 -0.0155
 3173TIP3    H131154   1.025   2.799   8.004 -0.6426 -0.1886 -0.9432
 3173TIP3    H231155   1.016   2.666   7.933  1.2841 -1.0156  0.2959
 3174TIP3   OH231156   5.113   0.307   7.506 -0.2435 -0.0739  0.0078
 3174TIP3    H131157   5.141   0.227   7.461 -0.3011  0.1825 -0.4867
 3174TIP3    H231158   5.117   0.375   7.439  2.5173  0.9262  1.0377
 3175TIP3   OH231159   5.374   6.582   0.738 -0.0653 -0.3176  0.1228
 3175TIP3    H131160   5.394   6.572   0.645  0.3409  0.0004  0.1735
 3175TIP3    H231161   5.331   6.501   0.763 -0.8678 -0.1009 -0.5275
 3176TIP3   OH231162   2.056   6.182   8.431 -0.2983 -0.0049 -0.0454
 3176TIP3    H131163   2.075   6.261   8.481 -0.0555 -0.6440  0.8907
 3176TIP3    H231164   1.962   6.186   8.414 -0.3210  0.3873  0.1749
 3177TIP3   OH231165   5.025   1.294   1.193  0.0584 -0.5235  0.6429
 3177TIP3    H131166   5.055   1.377   1.156  1.3828 -0.4571  1.7717
 3177TIP3    H231167   5.017   1.311   1.287 -2.0426 -1.0201  0.5978
 3178TIP3   OH231168   2.763   3.072   8.886 -0.0105  0.2083  0.2271
 3178TIP3    H131169   2.685   3.120   8.912  0.8661  0.6319  2.3369
 3178TIP3    H231170   2.822   3.138   8.851  0.2661  0.2989  0.8421
 3179TIP3   OH231171   3.342   3.508   1.989  0.1361  0.0433  0.5809
 3179TIP3    H131172   3.348   3.502   1.894 -2.5453  1.0246  0.2562
 3179TIP3    H231173   3.401   3.440   2.021 -1.3778 -2.6561 -1.8762
 3180TIP3   OH231174   2.651   4.246   7.688  0.2643  0.3134  0.0570
 3180TIP3    H131175   2.562   4.238   7.722 -1.2735  3.6363 -2.5033
 3180TIP3    H231176   2.697   4.299   7.753 -0.5029  0.9005  0.1333
 3181TIP3   OH231177   5.408   4.136   2.408  0.0402 -0.2156  0.2090
 3181TIP3    H131178   5.435   4.045   2.395 -0.1618 -0.4944  1.5523
 3181TIP3    H231179   5.452   4.163   2.489  2.8372  2.0239 -1.8108
 3182TIP3   OH231180   0.757   4.035   2.772  0.0376 -0.2357  0.1103
 3182TIP3    H131181   0.818   3.962   2.783  0.5046  0.2906  1.2123
 3182TIP3    H231182   0.813   4.108   2.744  0.5096  1.0205  3.7930
 3183TIP3   OH231183   0.414   1.751   6.610  0.0729 -0.8409  0.4817
 3183TIP3    H131184   0.449   1.773   6.524  0.4794 -2.5455  0.1711
 3183TIP3    H231185   0.489   1.757   6.669  0.2473 -1.6392  0.3457
 3184TIP3   OH231186   0.521   5.924   6.480 -0.1526 -0.1790  0.9867
 3184TIP3    H131187   0.532   5.939   6.574 -2.3647  0.1647  1.2322
 3184TIP3    H231188   0.434   5.958   6.460  0.5711  0.4964 -1.3689
 3185TIP3   OH231189   6.092   0.592   1.708 -0.3317  0.2211 -0.5142
 3185TIP3    H131190   6.036   0.521   1.678 -0.5691  1.0073 -2.0188
 3185TIP3    H231191   6.032   0.654   1.749 -0.3883  0.4368 -0.9193
 3186TIP3   OH231192   0.798   2.046   0.305  0.2349  0.2381 -0.0200
 3186TIP3    H131193   0.864   2.076   0.243  0.2227  0.1914 -0.0559
 3186TIP3    H231194   0.835   1.967   0.344  0.1506  0.1475 -0.1244
 3187TIP3   OH231195   2.108   6.368   6.506  0.0045  0.0462 -0.2930
 3187TIP3    H131196   2.161   6.343   6.429 -0.0479  0.4550 -0.4615
 3187TIP3    H231197   2.076   6.455   6.486  1.3152  0.8465  0.8784
 3188TIP3   OH231198   0.733   4.231   6.549 -0.0272 -0.1399 -0.6054
 3188TIP3    H131199   0.712   4.151   6.596 -1.2129 -0.8182 -2.1856
 3188TIP3    H231200   0.826   4.222   6.526 -0.0872 -0.9478 -0.5467
 3189TIP3   OH231201   5.331   2.359   6.072 -0.1772 -0.3634  0.7764
 3189TIP3    H131202   5.345   2.316   6.157 -0.0859  1.5215  1.7761
 3189TIP3    H231203   5.280   2.438   6.094  1.3080  1.0670 -0.6774
 3190TIP3   OH231204   1.609   1.019   2.449  0.0813  0.1319 -0.0016
 3190TIP3    H131205   1.537   1.080   2.435 -0.4729 -0.7816 -1.3139
 3190TIP3    H231206   1.636   0.993   2.361  2.8405  1.3676  0.3771
 3191TIP3   OH231207   6.162   0.600   0.496  0.1611  0.3439 -0.1730
 3191TIP3    H131208   6.112   0.557   0.566 -1.0366  2.3936  0.3203
 3191TIP3    H231209   6.250   0.611   0.532  0.1495 -0.5159  0.1580
 3192TIP3   OH231210   1.936   4.438   0.454 -0.4213  0.0697 -0.1321
 3192TIP3    H131211   1.865   4.501   0.445 -0.3895  0.2261  0.5912
 3192TIP3    H231212   1.921   4.397   0.540 -0.5739 -1.0789 -0.6844
 3193TIP3   OH231213   1.443   6.398   7.959  0.3840  0.2489  0.0820
 3193TIP3    H131214   1.451   6.433   7.870  2.0306 -0.5392 -0.1265
 3193TIP3    H231215   1.507   6.447   8.010  2.0284 -1.6609 -0.0075
 3194TIP3   OH231216   3.460   2.110   1.427 -0.1191  0.2541 -0.6811
 3194TIP3    H131217   3.373   2.076   1.448  0.8175 -2.2448 -0.4805
 3194TIP3    H231218   3.457   2.128   1.334 -0.4853 -1.1880 -0.9822
 3195TIP3   OH231219   6.578   2.202   1.834 -0.6079 -0.4629 -0.1263
 3195TIP3    H131220   6.593   2.167   1.746  0.4376 -1.0600  0.2695
 3195TIP3    H231221   6.637   2.153   1.890 -2.5293 -1.3589  1.2344
 3196TIP3   OH231222   6.080   0.303   8.313 -0.1281 -0.3458  0.2270
 3196TIP3    H131223   6.096   0.210   8.297  0.4915 -0.0184 -1.1252
 3196TIP3    H231224   6.148   0.328   8.376 -0.7771 -0.9636  1.2085
 3197TIP3   OH231225   5.906   4.483   0.574 -0.0926 -0.4606 -0.0111
 3197TIP3    H131226   5.956   4.404   0.556 -0.0125 -0.6481  0.9979
 3197TIP3    H231227   5.868   4.469   0.660 -1.3379 -0.0377 -0.4695
 3198TIP3   OH231228   0.903   4.872   8.922  0.1182  0.0469  0.0574
 3198TIP3    H131229   0.990   4.906   8.902  1.8658 -3.8326  0.1934
 3198TIP3    H231230   0.857   4.871   8.838  0.8368  0.4709 -0.3442
 3199TIP3   OH231231   6.739   0.486   8.703 -0.7256  0.1300 -0.1737
 3199TIP3    H131232   6.670   0.477   8.637 -0.3199 -1.1123 -0.4537
 3199TIP3    H231233   6.746   0.399   8.742 -0.6396  0.7179  1.2128
 3200TIP3   OH231234   1.260   1.322   0.969 -0.2752  0.0823  0.2307
 3200TIP3    H131235   1.279   1.315   0.876 -0.0347  2.8382 -0.0264
 3200TIP3    H231236   1.251   1.416   0.984  2.2690  0.0072  3.4474
 3201TIP3   OH231237   3.241   0.768   1.578 -0.7292 -0.2604 -0.5449
 3201TIP3    H131238   3.301   0.842   1.588 -0.3760 -0.5245 -0.6648
 3201TIP3    H231239   3.180   0.775   1.651  1.2733 -1.6959  1.3786
 3202TIP3   OH231240   6.711   5.766   8.329 -0.6019 -0.0731  0.2973
 3202TIP3    H131241   6.707   5.854   8.292 -0.2608 -0.3924 -0.5309
 3202TIP3    H231242   6.639   5.719   8.288  0.0060 -0.5366 -0.2782
 3203TIP3   OH231243   3.933   0.462   1.366  0.3307 -0.4911 -0.6129
 3203TIP3    H131244   3.975   0.476   1.451 -0.2531 -0.5155 -0.3224
 3203TIP3    H231245   3.938   0.547   1.323 -1.1525  0.0701  0.2422
 3204TIP3   OH231246   3.739   1.650   7.663  0.5561  0.3545 -0.2176
 3204TIP3    H131247   3.802   1.652   7.592 -0.9373 -0.2340 -1.6356
 3204TIP3    H231248   3.746   1.735   7.705  1.4018  0.7447 -1.1310
 3205TIP3   OH231249   6.663   5.288   1.527 -0.5100  0.2830  0.1166
 3205TIP3    H131250   6.623   5.327   1.605  0.5816 -2.1957  2.0722
 3205TIP3    H231251   6.747   5.332   1.519 -0.6465  0.5866  0.3489
 3206TIP3   OH231252   5.964   5.890   7.923  0.3376  0.4993 -0.1317
 3206TIP3    H131253   5.905   5.819   7.896 -0.4987  0.1708  2.3277
 3206TIP3    H231254   6.048   5.847   7.938  0.4612  0.4647 -0.8841
 3207TIP3   OH231255   6.284   1.955   8.562 -0.1553  0.4772  0.5042
 3207TIP3    H131256   6.373   1.967   8.595  0.4815 -0.8866 -0.5883
 3207TIP3    H231257   6.251   2.044   8.549  1.4483  1.0291 -0.0662
 3208TIP3   OH231258   3.529   5.209   0.611  0.1788 -0.0967 -0.3192
 3208TIP3    H131259   3.593   5.278   0.627 -0.0194  0.2013 -0.8031
 3208TIP3    H231260   3.547   5.178   0.522  1.8884 -2.3914  0.7191
 3209TIP3   OH231261   3.208   2.735   0.749 -0.0629  0.4130  0.1858
 3209TIP3    H131262   3.222   2.646   0.782  0.2697  0.8997  1.4011
 3209TIP3    H231263   3.296   2.768   0.730 -0.2040  0.3962 -0.5449
 3210TIP3   OH231264   5.369   5.013   7.147  0.0461  0.2406 -0.0221
 3210TIP3    H131265   5.371   5.108   7.140  1.0515  0.1329 -2.9012
 3210TIP3    H231266   5.329   4.984   7.065  1.9410 -1.8160 -0.3451
 3211TIP3   OH231267   0.541   2.088   1.309  0.0718 -0.3895  0.2075
 3211TIP3    H131268   0.623   2.051   1.275 -0.6715 -0.5832 -1.4914
 3211TIP3    H231269   0.548   2.079   1.404  2.6625  0.9473  0.2442
 3212TIP3   OH231270   6.215   3.329   7.083 -0.4934 -0.4446  0.0667
 3212TIP3    H131271   6.241   3.260   7.021  0.5685 -2.1071  2.2116
 3212TIP3    H231272   6.275   3.401   7.065 -1.1668 -0.2723 -1.7569
 3213TIP3   OH231273   1.410   0.092   2.177  0.2421 -0.2706  0.4754
 3213TIP3    H131274   1.453   0.074   2.261 -0.3236 -0.0730  0.8082
 3213TIP3    H231275   1.438   0.180   2.154  2.2625 -1.1642 -0.6948
 3214TIP3   OH231276   3.578   3.657   0.185  0.4925 -0.6010 -0.0749
 3214TIP3    H131277   3.647   3.591   0.184  0.3452 -0.7586  0.1174
 3214TIP3    H231278   3.602   3.718   0.116  2.2876  0.8194  1.6815
 3215TIP3   OH231279   5.847   2.635   7.069  0.9116 -0.7022  0.5639
 3215TIP3    H131280   5.919   2.590   7.025 -0.8678 -1.3598 -1.8924
 3215TIP3    H231281   5.852   2.725   7.036 -0.2082 -1.1086 -0.8166
 3216TIP3   OH231282   6.754   2.780   0.821 -0.1463  0.6714  0.0111
 3216TIP3    H131283   6.849   2.769   0.812 -0.0102  1.9875 -0.3867
 3216TIP3    H231284   6.725   2.811   0.735 -0.8701  0.7560  0.2785
 3217TIP3   OH231285   1.385   0.016   8.411  0.1790  0.4775 -0.1019
 3217TIP3    H131286   1.429  -0.068   8.397  0.4667  0.6286 -0.1242
 3217TIP3    H231287   1.297  -0.007   8.441  0.4211  0.1738  0.3706
 3218TIP3   OH231288   3.067   3.732   0.473  0.5302 -0.2104 -0.4258
 3218TIP3    H131289   3.149   3.761   0.513  1.0404  0.1102 -1.6535
 3218TIP3    H231290   3.088   3.723   0.380  0.1059 -3.4944 -0.3069
 3219TIP3   OH231291   2.481   0.585   0.343 -0.7177 -1.0510 -0.2889
 3219TIP3    H131292   2.500   0.511   0.401 -0.5544  0.2545  1.3811
 3219TIP3    H231293   2.435   0.648   0.398 -0.9249  0.0819 -1.6891
 3220TIP3   OH231294   6.542   5.081   2.495 -0.0014  0.2362 -0.0596
 3220TIP3    H131295   6.543   5.175   2.511 -1.5084  0.0354  1.4879
 3220TIP3    H231296   6.634   5.056   2.495  0.3868  1.5682  0.4331
 3221TIP3   OH231297   2.868   5.573   0.042 -0.9143  0.0406  0.4792
 3221TIP3    H131298   2.845   5.539  -0.044  0.6001 -0.0777  0.1120
 3221TIP3    H231299   2.911   5.500   0.086  1.1283  1.0137  0.1870
 3222TIP3   OH231300   0.398   5.778   6.912 -0.6289 -0.1691 -0.2223
 3222TIP3    H131301   0.420   5.830   6.834 -0.1238  0.9772  0.6642
 3222TIP3    H231302   0.473   5.720   6.924 -0.5521 -0.1052 -0.3861
 3223TIP3   OH231303   1.139   3.238   8.640  0.3032 -1.1078 -0.5201
 3223TIP3    H131304   1.058   3.286   8.657 -0.5669 -2.3470 -1.0063
 3223TIP3    H231305   1.142   3.170   8.707  1.9862  0.0950  0.7234
 3224TIP3   OH231306   6.437   3.315   6.550  0.3574  0.0148 -0.2445
 3224TIP3    H131307   6.511   3.258   6.567  0.9788  0.1999 -2.1531
 3224TIP3    H231308   6.476   3.401   6.531 -0.4161  0.4155 -0.0924
 3225TIP3   OH231309   2.416   1.957   8.416  0.1966  0.0014 -0.5637
 3225TIP3    H131310   2.511   1.945   8.419  0.2573  0.6682  0.8711
 3225TIP3    H231311   2.385   1.883   8.364  1.4534 -0.5963 -0.5133
 3226TIP3   OH231312   1.704   0.448   8.070  0.4705 -0.2047 -0.4467
 3226TIP3    H131313   1.622   0.452   8.021  0.0577  0.6316  0.2761
 3226TIP3    H231314   1.759   0.515   8.028 -0.3525  1.4663  0.9897
 3227TIP3   OH231315   4.130   3.874   0.868  0.6854  0.3545 -0.5269
 3227TIP3    H131316   4.148   3.812   0.798 -0.0386 -0.2090 -0.2294
 3227TIP3    H231317   4.119   3.820   0.946  1.6420  0.9840  0.0585
 3228TIP3   OH231318   0.534   1.558   1.836  0.5084 -0.1350 -0.3268
 3228TIP3    H131319   0.614   1.507   1.834 -0.5757 -1.9227  0.0748
 3228TIP3    H231320   0.492   1.533   1.918 -0.9575 -0.0335 -1.0186
 3229TIP3   OH231321   3.328   2.006   8.363 -0.9070  0.3615 -0.8518
 3229TIP3    H131322   3.414   1.964   8.373 -0.4205  1.1545 -1.6570
 3229TIP3    H231323   3.267   1.941   8.398 -0.0043 -0.2876 -0.4217
 3230TIP3   OH231324   6.198   5.888   6.588 -0.2154  0.2336  0.4292
 3230TIP3    H131325   6.134   5.957   6.601  1.6512  1.9431  0.8953
 3230TIP3    H231326   6.217   5.891   6.494 -1.2801 -0.7676  0.1502
 3231TIP3   OH231327   4.027   4.282   7.303  0.3664  0.5487  0.3345
 3231TIP3    H131328   4.101   4.245   7.350  3.0662  3.6494 -1.0865
 3231TIP3    H231329   4.010   4.220   7.232  0.3128 -1.0812  1.7013
 3232TIP3   OH231330   4.325   4.909   1.338  0.1277 -0.2747 -0.1860
 3232TIP3    H131331   4.394   4.882   1.278  0.7853  0.1854  0.3514
 3232TIP3    H231332   4.357   4.990   1.378 -0.3926 -0.4469  0.6198
 3233TIP3   OH231333   0.711   3.299   7.529  0.1368 -0.5168  0.1723
 3233TIP3    H131334   0.778   3.234   7.507  0.9542  1.1022 -2.5969
 3233TIP3    H231335   0.760   3.380   7.543 -1.0480  0.0631  1.1501
 3234TIP3   OH231336   2.999   5.034   0.108  0.2491 -0.1454  0.0960
 3234TIP3    H131337   2.975   5.081   0.029 -0.9541 -0.9790 -0.0697
 3234TIP3    H231338   3.031   4.949   0.077  1.8624  0.3085  0.4156
 3235TIP3   OH231339   1.353   2.039   2.273  0.5941  0.0411 -0.3745
 3235TIP3    H131340   1.398   2.066   2.352 -0.4081  1.2782 -0.1948
 3235TIP3    H231341   1.270   2.088   2.274  1.1520  1.2181 -2.8813
 3236TIP3   OH231342   0.886   3.096   7.472  0.3345  0.4183 -0.2618
 3236TIP3    H131343   0.927   3.135   7.395 -1.1885  1.1921 -0.7250
 3236TIP3    H231344   0.864   3.007   7.445 -0.9731  0.9530 -1.0658
 3237TIP3   OH231345   5.251   0.597   0.600  0.0473 -0.3687 -0.0619
 3237TIP3    H131346   5.183   0.644   0.648  1.0517  1.7633 -0.6083
 3237TIP3    H231347   5.204   0.555   0.528 -0.7870  0.5255 -0.0630
 3238TIP3   OH231348   5.534   0.404   7.613 -0.0367  0.0821  0.1018
 3238TIP3    H131349   5.472   0.370   7.677  1.6071  0.3276  1.9265
 3238TIP3    H231350   5.604   0.339   7.611 -0.1518 -0.0190 -1.6381
 3239TIP3   OH231351   3.410   3.987   0.195  0.0230  0.5815  0.1267
 3239TIP3    H131352   3.443   3.897   0.188  1.6807  1.1901 -0.1988
 3239TIP3    H231353   3.411   4.006   0.289  2.7504  1.3039  0.0335
 3240TIP3   OH231354   1.875   3.115   8.555  0.7202 -0.2884  0.8719
 3240TIP3    H131355   1.939   3.081   8.492  1.5555  1.8728  0.4690
 3240TIP3    H231356   1.791   3.080   8.524  1.4259 -1.3810  0.0983
 3241TIP3   OH231357   4.243   0.126   1.818  0.4679 -0.0139 -0.1745
 3241TIP3    H131358   4.163   0.093   1.857 -0.8843  1.5233 -1.5153
 3241TIP3    H231359   4.298   0.048   1.806 -1.6250 -1.4386 -1.0829
 3242TIP3   OH231360   3.877   4.289   0.605 -0.4985 -0.0081  0.2999
 3242TIP3    H131361   3.830   4.251   0.679  0.9916  0.1022  1.3311
 3242TIP3    H231362   3.829   4.257   0.528 -0.3374 -2.5870  1.1723
 3243TIP3   OH231363   0.988   0.339   8.129 -0.1294 -0.5314  0.2214
 3243TIP3    H131364   0.971   0.246   8.145  0.3476 -0.5258  0.7953
 3243TIP3    H231365   0.958   0.354   8.039  1.9918 -1.7974 -0.7623
 3244TIP3   OH231366   4.617   2.800   1.927 -0.2489  0.6052  0.5516
 3244TIP3    H131367   4.692   2.859   1.920 -0.5901  0.9685 -0.1231
 3244TIP3    H231368   4.655   2.715   1.952  0.2728  1.0323  1.2255
 3245TIP3   OH231369   1.733   5.162   1.414 -0.5012 -0.1266 -0.7571
 3245TIP3    H131370   1.740   5.185   1.507  1.8381  1.5417 -1.2635
 3245TIP3    H231371   1.655   5.106   1.409  0.2962 -1.7549  2.4812
 3246TIP3   OH231372   0.064   2.978   2.071 -0.4785  0.2056  0.1526
 3246TIP3    H131373  -0.023   3.016   2.081 -0.5169  0.3445 -0.6714
 3246TIP3    H231374   0.088   2.950   2.160 -1.3973  0.0778  0.3745
 3247TIP3   OH231375   4.658   1.441   1.047 -0.1929  0.4911  0.8311
 3247TIP3    H131376   4.662   1.367   1.108 -0.5314 -1.0022 -0.8655
 3247TIP3    H231377   4.727   1.423   0.983 -1.8430  0.3324 -0.9776
 3248TIP3   OH231378   2.242   3.941   2.286 -0.0881 -0.4764 -0.2126
 3248TIP3    H131379   2.316   3.888   2.317 -0.3014 -0.7149 -0.1093
 3248TIP3    H231380   2.166   3.884   2.295 -0.5318  0.2792  1.0977
 3249TIP3   OH231381   6.692   1.338   0.911  0.0305 -0.0991 -0.0741
 3249TIP3    H131382   6.715   1.349   0.819 -0.8572  2.6180 -0.0611
 3249TIP3    H231383   6.776   1.330   0.956  0.5613  0.5739 -0.9192
 3250TIP3   OH231384   4.200   3.347   7.607 -0.1227  0.4513  0.0546
 3250TIP3    H131385   4.157   3.416   7.657  1.5456  0.3034  1.8338
 3250TIP3    H231386   4.282   3.331   7.655  0.9342 -0.6761 -1.9931
 3251TIP3   OH231387   1.510   4.773   2.726 -0.4704 -0.3165  0.4580
 3251TIP3    H131388   1.527   4.787   2.633 -0.5139 -1.1272  0.3214
 3251TIP3    H231389   1.434   4.828   2.746 -0.2168  0.1632  0.1117
 3252TIP3   OH231390   6.530   5.778   8.617 -0.4418 -0.1855 -0.1332
 3252TIP3    H131391   6.553   5.856   8.568 -1.3563 -0.7138 -1.4538
 3252TIP3    H231392   6.612   5.728   8.623  0.0712  0.6949  0.4403
 3253TIP3   OH231393   2.260   4.363   8.110 -0.1312 -0.3844 -0.1726
 3253TIP3    H131394   2.203   4.403   8.044 -0.8913 -0.4472  0.4335
 3253TIP3    H231395   2.299   4.287   8.066 -0.2294 -0.1316 -0.7031
 3254TIP3   OH231396   1.463   3.084   0.954 -0.5378  0.1955  0.0325
 3254TIP3    H131397   1.467   2.990   0.940 -0.5765  0.3446 -1.1684
 3254TIP3    H231398   1.463   3.121   0.865 -3.6693  1.2109  0.3261
 3255TIP3   OH231399   4.458   1.768   1.782 -0.0630  0.0811 -0.3070
 3255TIP3    H131400   4.439   1.681   1.817  0.1847  0.5532  1.0638
 3255TIP3    H231401   4.534   1.798   1.832 -0.1251  1.0843 -0.7810
 3256TIP3   OH231402   2.337   0.540   7.967  0.0446 -0.2550 -0.2386
 3256TIP3    H131403   2.421   0.585   7.961  0.8092 -1.5191  0.4846
 3256TIP3    H231404   2.296   0.554   7.882  0.4614  1.3307 -0.2176
 3257TIP3   OH231405   6.259   1.979   8.140  0.8443 -0.0719 -0.9868
 3257TIP3    H131406   6.351   1.992   8.161  0.9184  0.9417 -1.8122
 3257TIP3    H231407   6.249   2.016   8.052 -0.9440  2.6999  0.2327
 3258TIP3   OH231408   5.271   2.856   0.097 -0.1901  0.3610  0.4150
 3258TIP3    H131409   5.257   2.937   0.145  2.3572  1.1493  0.0158
 3258TIP3    H231410   5.365   2.857   0.076 -0.3549 -2.0376 -0.7847
 3259TIP3   OH231411   2.977   0.622   2.496 -0.1199  0.8620  0.1327
 3259TIP3    H131412   3.014   0.611   2.584  0.5413  0.7881 -0.1526
 3259TIP3    H231413   2.891   0.662   2.512  0.3428  1.6357  0.7672
 3260TIP3   OH231414   0.346   2.756   7.329 -0.0073 -0.4135  0.0266
 3260TIP3    H131415   0.398   2.710   7.263  0.6364 -0.3545  0.4874
 3260TIP3    H231416   0.381   2.725   7.412 -1.0518 -0.7626  0.3557
 3261TIP3   OH231417   1.028   0.781   8.868  0.4213 -0.4181  0.9377
 3261TIP3    H131418   0.988   0.773   8.782  0.7805  1.1748  0.5856
 3261TIP3    H231419   0.970   0.733   8.926 -2.5069  2.3239  0.5766
 3262TIP3   OH231420   0.985   6.726   0.741 -0.0807 -0.0302 -0.3084
 3262TIP3    H131421   1.019   6.812   0.716 -1.0727  0.3114 -0.5204
 3262TIP3    H231422   1.001   6.671   0.665  0.2215  0.0621 -0.3122
 3263TIP3   OH231423   3.085   3.720   8.710  0.3207 -0.2049 -0.1896
 3263TIP3    H131424   3.032   3.641   8.719 -0.3088  0.3777  1.5886
 3263TIP3    H231425   3.069   3.769   8.791  1.7682  1.0937 -0.6467
 3264TIP3   OH231426   2.714   1.269   1.229  0.0437  0.4205 -0.2688
 3264TIP3    H131427   2.730   1.361   1.250 -0.3594  0.7977 -1.4838
 3264TIP3    H231428   2.730   1.222   1.311 -1.5974  1.7816  0.8963
 3265TIP3   OH231429   4.175   3.805   1.512 -0.4011 -0.1340  0.0891
 3265TIP3    H131430   4.174   3.848   1.426  0.2181 -2.2485 -1.0737
 3265TIP3    H231431   4.093   3.757   1.515 -0.0665 -0.7077  0.3045
 3266TIP3   OH231432   2.488   1.219   8.425 -0.4699 -0.0804  0.2826
 3266TIP3    H131433   2.528   1.239   8.340 -2.6334 -0.6282 -0.9425
 3266TIP3    H231434   2.542   1.265   8.489  1.6907 -0.2841 -1.2993
 3267TIP3   OH231435   6.314   0.960   0.466 -0.2232  0.2609 -0.1871
 3267TIP3    H131436   6.347   0.922   0.547 -1.9111 -0.7993  0.0681
 3267TIP3    H231437   6.316   1.055   0.481  0.7799  0.1318  0.5492
 3268TIP3   OH231438   5.313   0.030   8.382 -0.2400  0.2173 -0.1529
 3268TIP3    H131439   5.272  -0.017   8.309  1.3799 -0.3897 -0.7322
 3268TIP3    H231440   5.240   0.061   8.435 -1.4215 -2.3304 -0.1402
 3269TIP3   OH231441   6.136   5.190   1.488  0.0901  0.0276 -0.1513
 3269TIP3    H131442   6.140   5.266   1.430 -3.3927 -0.2700 -1.0011
 3269TIP3    H231443   6.093   5.122   1.436 -0.7810 -1.1063  1.9217
 3270TIP3   OH231444   4.256   4.321   7.459  0.5198  0.2235 -0.6305
 3270TIP3    H131445   4.279   4.412   7.479 -3.3901  1.0188  1.1058
 3270TIP3    H231446   4.249   4.278   7.545 -0.6437 -0.8679 -1.2274
 3271TIP3   OH231447   5.181   5.432   2.361 -0.5638  0.0240 -0.2978
 3271TIP3    H131448   5.102   5.389   2.330  1.1526 -3.4330 -0.2846
 3271TIP3    H231449   5.223   5.368   2.418  2.9854  1.0988 -1.4500
 3272TIP3   OH231450   0.037   0.413   8.175 -0.5147  0.6384  0.4727
 3272TIP3    H131451   0.015   0.484   8.235 -0.4669 -0.7758  2.2455
 3272TIP3    H231452   0.130   0.395   8.191 -1.0851 -1.3917  1.8551
 3273TIP3   OH231453   1.221   3.879   1.824  0.4200 -0.2321  0.0424
 3273TIP3    H131454   1.304   3.848   1.785  0.5163  0.6765 -0.4980
 3273TIP3    H231455   1.178   3.926   1.753 -1.1123 -1.6617 -0.0381
 3274TIP3   OH231456   2.303   4.862   8.000 -0.7652 -0.9615  0.0376
 3274TIP3    H131457   2.296   4.781   8.049 -2.9218 -1.1040 -0.4025
 3274TIP3    H231458   2.396   4.873   7.984 -0.3740 -2.9576  0.7411
 3275TIP3   OH231459   6.646   2.955   7.474 -0.3833 -0.0673  0.3812
 3275TIP3    H131460   6.737   2.938   7.446  0.2080 -0.3269  2.3332
 3275TIP3    H231461   6.648   3.043   7.512 -1.5228  0.9298 -1.6899
 3276TIP3   OH231462   0.689   3.129   1.766 -0.2047  1.1877 -0.1711
 3276TIP3    H131463   0.758   3.086   1.716  0.0265  1.4302 -0.0638
 3276TIP3    H231464   0.735   3.173   1.838 -0.7047 -0.6353  1.3275
 3277TIP3   OH231465   0.231   2.082   7.282  0.3781  0.5413 -0.3421
 3277TIP3    H131466   0.319   2.118   7.291  1.2393 -1.3833 -0.6090
 3277TIP3    H231467   0.189   2.099   7.367  1.9490 -0.8485  0.7771
 3278TIP3   OH231468   5.483   5.705   0.155  0.0071  0.2086  0.5138
 3278TIP3    H131469   5.480   5.789   0.202  1.4963  1.0615 -0.7811
 3278TIP3    H231470   5.462   5.728   0.064  1.0410 -0.6933  0.0230
 3279TIP3   OH231471   0.278   0.457   8.604  0.1815  0.3860 -0.2682
 3279TIP3    H131472   0.225   0.505   8.667  1.0813 -0.3965  1.1552
 3279TIP3    H231473   0.303   0.377   8.650  0.4155 -0.4827 -1.8368
 3280TIP3   OH231474   4.211   5.529   0.259  0.1014 -0.4153  0.2452
 3280TIP3    H131475   4.154   5.571   0.323  2.2244  0.2152  1.7843
 3280TIP3    H231476   4.167   5.544   0.175  0.5914  4.8217  0.6444
 3281TIP3   OH231477   4.636   3.024   1.232 -0.2238 -0.7484 -0.2743
 3281TIP3    H131478   4.553   3.064   1.259 -0.5495 -2.1042  0.8563
 3281TIP3    H231479   4.665   3.078   1.158 -1.0972  0.9525  0.5576
 3282TIP3   OH231480   3.248   5.112   0.867 -0.2401 -0.1221  0.1878
 3282TIP3    H131481   3.159   5.076   0.866  0.1248 -1.1720 -2.5955
 3282TIP3    H231482   3.298   5.051   0.921 -0.6082 -1.2906 -0.7425
 3283TIP3   OH231483   6.627   4.289   7.873 -0.5950  0.1995 -0.1143
 3283TIP3    H131484   6.669   4.211   7.837  0.0712  1.1683 -1.5232
 3283TIP3    H231485   6.568   4.320   7.804  0.3371  1.8295 -0.2328
 3284TIP3   OH231486   1.974   2.134   2.049 -0.9772  0.2333 -0.3714
 3284TIP3    H131487   2.023   2.202   2.003 -1.9475  2.2607  1.3533
 3284TIP3    H231488   1.941   2.077   1.980 -0.8148  2.0138 -2.0139
 3285TIP3   OH231489   3.151   0.134   8.514 -0.0819 -0.1785  0.0398
 3285TIP3    H131490   3.107   0.052   8.537 -1.7151  0.2150 -1.5306
 3285TIP3    H231491   3.086   0.202   8.531  1.2636  0.8432  1.3501
 3286TIP3   OH231492   3.184   3.598   6.849  0.4892 -0.2695 -0.1643
 3286TIP3    H131493   3.278   3.611   6.831  0.1753  0.9773 -0.9990
 3286TIP3    H231494   3.143   3.591   6.763 -0.0089 -2.6012  0.1821
 3287TIP3   OH231495   6.327   5.662   2.298 -0.4278  0.0771 -0.5230
 3287TIP3    H131496   6.241   5.675   2.258 -0.7814 -0.5819  0.0166
 3287TIP3    H231497   6.321   5.577   2.341  0.1776  0.4527  0.3271
 3288TIP3   OH231498   1.323   2.388   8.713 -0.8448  0.0202  0.2228
 3288TIP3    H131499   1.318   2.461   8.651 -1.3597  0.4966  0.8081
 3288TIP3    H231500   1.415   2.385   8.738 -0.4904 -0.6111 -1.0587
 3289TIP3   OH231501   3.544   3.590   7.075  0.2547 -0.1366  0.6206
 3289TIP3    H131502   3.465   3.616   7.122 -0.6238 -1.9285  0.2197
 3289TIP3    H231503   3.529   3.620   6.985  0.9768  1.3512  0.9646
 3290TIP3   OH231504   6.243   5.145   8.207  0.1809  0.4251 -0.4334
 3290TIP3    H131505   6.212   5.109   8.290  0.0491  2.3992  0.4220
 3290TIP3    H231506   6.336   5.120   8.204  0.2873  0.6593  0.5045
 3291TIP3   OH231507   0.421   5.360   1.922 -0.3158 -0.4871  0.0391
 3291TIP3    H131508   0.408   5.379   2.015  2.0896  0.5958  0.2065
 3291TIP3    H231509   0.451   5.442   1.884  1.1804 -1.5335 -1.1737
 3292TIP3   OH231510   4.520   3.519   7.646  1.3890 -0.6308 -0.2281
 3292TIP3    H131511   4.476   3.434   7.652 -0.4527  0.1347 -1.6452
 3292TIP3    H231512   4.608   3.498   7.614  1.3597 -2.0776  0.5578
 3293TIP3   OH231513   6.658   5.268   7.807 -0.1248  0.0325 -0.5857
 3293TIP3    H131514   6.711   5.296   7.882  1.0647 -1.2415 -0.9286
 3293TIP3    H231515   6.568   5.293   7.831  0.3995  0.7484  0.7178
 3294TIP3   OH231516   0.456   3.539   1.953  0.8473  0.2697  0.1739
 3294TIP3    H131517   0.551   3.532   1.941  1.1411 -1.8827  2.6869
 3294TIP3    H231518   0.445   3.612   2.013  1.0261 -0.0094  0.5541
 3295TIP3   OH231519   5.537   3.790   0.113 -0.1736  0.4174 -0.1952
 3295TIP3    H131520   5.622   3.770   0.074 -0.8456 -0.8599 -1.0861
 3295TIP3    H231521   5.479   3.807   0.039 -0.8585  0.5581  0.3581
 3296TIP3   OH231522   2.299   2.019   7.851  0.0640 -0.1492 -0.1672
 3296TIP3    H131523   2.334   2.071   7.924  1.6233 -1.0400 -0.2436
 3296TIP3    H231524   2.373   2.007   7.792  0.2293 -3.6967  0.5570
 3297TIP3   OH231525   5.374   1.279   1.494  0.0844 -0.8513  0.6122
 3297TIP3    H131526   5.412   1.366   1.508 -1.8031  0.0941  0.1366
 3297TIP3    H231527   5.432   1.221   1.542  1.8146  0.5597  0.3547
 3298TIP3   OH231528   6.427   1.572   0.739 -0.4913  0.3355  0.0974
 3298TIP3    H131529   6.383   1.528   0.811  0.8710 -2.5917 -0.7073
 3298TIP3    H231530   6.357   1.616   0.691 -2.0491 -1.2868  0.7763
 3299TIP3   OH231531   1.154   5.806   8.759  0.3071  0.6823  0.6320
 3299TIP3    H131532   1.175   5.713   8.750 -1.0168  0.5263 -1.4558
 3299TIP3    H231533   1.232   5.851   8.728  0.5529  0.2618  0.6215
 3300TIP3   OH231534   6.512   6.772   1.385 -0.0998 -0.0346 -0.8844
 3300TIP3    H131535   6.482   6.794   1.296 -1.2752 -2.3186 -1.1416
 3300TIP3    H231536   6.580   6.706   1.371 -0.4498 -0.5749 -0.0995
 3301TIP3   OH231537   0.237   3.267   1.985 -0.1662 -0.2273  0.2119
 3301TIP3    H131538   0.320   3.275   1.938  0.0431 -0.6366  0.5045
 3301TIP3    H231539   0.240   3.336   2.051  0.8863 -1.5215  1.6121
 3302TIP3   OH231540   2.932   3.111   7.000 -0.0620  0.2854 -0.2802
 3302TIP3    H131541   3.025   3.125   6.987  0.6002 -1.0894  2.3226
 3302TIP3    H231542   2.894   3.200   7.000  1.2894  0.8835 -0.9612
 3303TIP3   OH231543   4.672   6.306   0.922 -0.6383  0.1935  0.2289
 3303TIP3    H131544   4.746   6.362   0.898  0.2894 -0.3425  1.7465
 3303TIP3    H231545   4.596   6.363   0.916 -0.1470  0.7390 -1.4251
 3304TIP3   OH231546   5.447   4.794   0.518 -0.0795 -0.4564 -0.4251
 3304TIP3    H131547   5.434   4.838   0.602 -1.7052 -1.9170  0.1235
 3304TIP3    H231548   5.436   4.864   0.453 -0.5857  0.3382  0.4877
 3305TIP3   OH231549   1.945   2.309   0.656 -0.1980  0.4651  0.5234
 3305TIP3    H131550   1.869   2.264   0.620  1.0680 -2.0101  0.7865
 3305TIP3    H231551   1.928   2.313   0.751 -0.3218  0.6183  0.4965
 3306TIP3   OH231552   6.663   2.593   6.686  0.3953 -0.3522  0.2624
 3306TIP3    H131553   6.706   2.538   6.620 -0.2096 -1.1061  0.4820
 3306TIP3    H231554   6.709   2.571   6.768 -2.1142 -3.2782  1.0579
 3307TIP3   OH231555   2.677   2.874   7.885  0.7504 -0.1902 -0.3036
 3307TIP3    H131556   2.638   2.895   7.800 -0.7571  1.0401  0.6617
 3307TIP3    H231557   2.752   2.818   7.863  1.1068  1.0294 -2.5357
 3308TIP3   OH231558   6.609   6.022   0.839  0.1088  0.3763  0.2776
 3308TIP3    H131559   6.618   5.934   0.877 -1.3600 -0.4225 -1.0994
 3308TIP3    H231560   6.699   6.053   0.831  0.6303 -0.7598  1.3033
 3309TIP3   OH231561   3.980   4.934   0.319  0.0103 -0.2008 -0.0868
 3309TIP3    H131562   3.891   4.902   0.307 -0.4744  0.3559  1.7279
 3309TIP3    H231563   4.015   4.883   0.392  1.2951 -0.5989 -0.9397
 3310TIP3   OH231564   1.894   6.374   8.094  0.4208  0.2072  0.4460
 3310TIP3    H131565   1.967   6.337   8.043 -2.3300 -1.8609 -2.3622
 3310TIP3    H231566   1.894   6.324   8.176  2.6646  0.9241  0.9412
 3311TIP3   OH231567   3.011   3.863   2.150 -0.0456  0.5715  0.0174
 3311TIP3    H131568   3.018   3.886   2.058  1.2635  0.1990  0.0015
 3311TIP3    H231569   2.918   3.868   2.169 -0.6954 -1.9179 -1.9866
 3312TIP3   OH231570   2.006   4.217   1.360  0.0317 -0.0521 -0.0748
 3312TIP3    H131571   1.955   4.162   1.301 -0.5519  1.1053 -0.6938
 3312TIP3    H231572   2.070   4.158   1.399 -0.6782 -1.1889 -0.5765
 3313TIP3   OH231573   5.350   1.760   0.284  0.5695  0.3142 -0.2171
 3313TIP3    H131574   5.433   1.800   0.257  0.6122  0.5525  0.2585
 3313TIP3    H231575   5.288   1.832   0.284  0.4164  0.1813 -0.3401
 3314TIP3   OH231576   2.296   0.389   8.494 -0.5318 -0.7062  0.1852
 3314TIP3    H131577   2.260   0.456   8.436  0.6562  0.1991  0.4500
 3314TIP3    H231578   2.289   0.308   8.445 -0.7177 -0.1599 -0.7095
 3315TIP3   OH231579   1.728   0.168   7.773  0.2285 -0.0086  0.0056
 3315TIP3    H131580   1.673   0.131   7.842 -1.0872  1.2131 -0.3210
 3315TIP3    H231581   1.817   0.162   7.807 -0.2260 -0.9572  1.0826
 3316TIP3   OH231582   6.287   2.051   0.350  0.7442 -0.0563  0.4686
 3316TIP3    H131583   6.227   2.032   0.278  1.3041 -0.0538 -0.0033
 3316TIP3    H231584   6.241   2.020   0.428 -0.5928  1.4413  0.3331
 3317TIP3   OH231585   1.647   3.572   0.232 -0.1264  0.1660  0.0138
 3317TIP3    H131586   1.619   3.528   0.312  0.8788 -0.9554 -0.2259
 3317TIP3    H231587   1.586   3.540   0.165 -2.2587  2.6302  0.6253
 3318TIP3   OH231588   0.635   0.863   0.719 -0.3114 -0.3186 -1.0476
 3318TIP3    H131589   0.574   0.876   0.647  0.3033  0.9005 -1.3701
 3318TIP3    H231590   0.609   0.779   0.757 -1.5755 -0.2811 -1.7630
 3319TIP3   OH231591   1.944   5.220   6.773 -0.1805  0.0513 -0.1043
 3319TIP3    H131592   1.921   5.313   6.778  0.4324  0.2504 -0.7261
 3319TIP3    H231593   1.860   5.175   6.767 -0.4652  0.7499 -2.2511
 3320TIP3   OH231594   6.267   1.488   1.734 -0.7228 -0.0665  0.0488
 3320TIP3    H131595   6.256   1.394   1.743 -2.7116  0.2550  1.4432
 3320TIP3    H231596   6.178   1.524   1.733 -0.0132  1.9928  2.1271
 3321TIP3   OH231597   3.186   2.227   8.570  0.1372  0.3388  0.1829
 3321TIP3    H131598   3.180   2.302   8.511  0.2425 -0.4088 -0.8096
 3321TIP3    H231599   3.136   2.158   8.526 -0.7420  0.0953  1.5249
 3322TIP3   OH231600   6.445   3.630   0.925 -0.2217 -0.2186 -0.4693
 3322TIP3    H131601   6.406   3.646   1.012 -2.4639 -0.9035 -1.2683
 3322TIP3    H231602   6.482   3.542   0.931 -0.0079 -0.1022 -0.0801
 3323TIP3   OH231603   4.347   2.104   1.256 -0.3515  0.1397 -0.2631
 3323TIP3    H131604   4.385   2.043   1.191 -2.3066 -0.1528 -1.2125
 3323TIP3    H231605   4.256   2.113   1.229 -0.8336  1.2482  1.5863
 3324TIP3   OH231606   3.186   6.204   6.648 -0.5550 -0.2663 -0.3241
 3324TIP3    H131607   3.256   6.153   6.690  1.1192 -0.0660 -2.6578
 3324TIP3    H231608   3.135   6.239   6.721  0.9077 -1.6064  1.4562
 3325TIP3   OH231609   1.724   2.541   7.421  0.2122 -0.2223 -0.7539
 3325TIP3    H131610   1.675   2.572   7.344 -0.0866 -0.1973 -0.5557
 3325TIP3    H231611   1.672   2.570   7.496  0.1480 -0.8295 -0.5557
 3326TIP3   OH231612   3.606   1.866   0.795  0.1139  0.2128 -0.0856
 3326TIP3    H131613   3.587   1.833   0.882  0.4710  0.1813 -0.0185
 3326TIP3    H231614   3.655   1.947   0.810  0.3871  0.0814 -0.2570
 3327TIP3   OH231615   0.789   1.916   1.283 -0.3954 -0.1665 -0.0576
 3327TIP3    H131616   0.867   1.918   1.227  0.0525  2.9420  0.4841
 3327TIP3    H231617   0.813   1.861   1.357  0.3918 -1.1502 -1.0032
 3328TIP3   OH231618   3.463   5.158   7.810 -0.0711 -0.4417  0.0166
 3328TIP3    H131619   3.521   5.089   7.776 -0.2074 -0.8317  0.5527
 3328TIP3    H231620   3.409   5.183   7.735  3.1407  2.5261 -1.5948
 3329TIP3   OH231621   1.499   2.168   2.040  0.1455  0.1763  0.6862
 3329TIP3    H131622   1.429   2.220   2.078 -1.3066 -0.1000 -1.4419
 3329TIP3    H231623   1.542   2.226   1.977  1.1916  0.0286  1.2384
 3330TIP3   OH231624   3.618   0.449   1.838 -0.1441 -0.2547 -0.2852
 3330TIP3    H131625   3.665   0.516   1.888 -0.3039 -0.5446  0.2559
 3330TIP3    H231626   3.589   0.495   1.759  3.9460 -0.8184 -2.4187
 3331TIP3   OH231627   0.194   5.123   7.976  0.4525 -0.8342  0.3391
 3331TIP3    H131628   0.147   5.069   8.039  0.9561 -0.0520  1.4234
 3331TIP3    H231629   0.152   5.104   7.892 -1.5790 -0.4510  1.1922
 3332TIP3   OH231630   3.415   1.881   0.196  0.7367  0.3445  0.4089
 3332TIP3    H131631   3.376   1.960   0.159  2.6611  0.4375 -1.6433
 3332TIP3    H231632   3.469   1.912   0.269  1.5498  0.9756 -0.4398
 3333TIP3   OH231633   2.138   3.024   7.406  0.5402 -0.2309  1.0710
 3333TIP3    H131634   2.130   3.117   7.389 -1.3201 -0.4735  0.4256
 3333TIP3    H231635   2.218   3.016   7.458  0.1501  1.8314  2.0769
 3334TIP3   OH231636   6.249   6.015   0.718  0.6460 -0.2438 -0.3243
 3334TIP3    H131637   6.291   5.953   0.658 -3.0744 -1.6295 -1.7881
 3334TIP3    H231638   6.218   5.961   0.790  0.5391  0.5660  0.2455
 3335TIP3   OH231639   4.680   5.956   7.253 -1.0843 -0.5096  0.4105
 3335TIP3    H131640   4.763   5.914   7.233  0.1443  0.4210  3.0966
 3335TIP3    H231641   4.678   6.033   7.196 -0.6475 -1.0964 -0.4259
 3336TIP3   OH231642   1.169   2.445   0.987 -0.3638 -0.3066 -0.8371
 3336TIP3    H131643   1.132   2.510   0.927 -0.9852 -0.5918 -0.7740
 3336TIP3    H231644   1.105   2.374   0.987 -0.9199  0.1494  0.9862
 3337TIP3   OH231645   5.356   6.569   7.636  0.3392 -0.6074  0.0112
 3337TIP3    H131646   5.327   6.501   7.696  0.5290 -0.2764  0.4840
 3337TIP3    H231647   5.286   6.577   7.572  0.2611 -1.1604  0.0245
 3338TIP3   OH231648   6.257   5.619   6.569 -0.2884  0.0747 -0.2658
 3338TIP3    H131649   6.231   5.709   6.588  0.6939  0.6222 -1.3903
 3338TIP3    H231650   6.352   5.619   6.579 -0.1010 -0.4348 -1.7590
 3339TIP3   OH231651   6.696   4.532   0.327  0.1605 -0.4800  0.0039
 3339TIP3    H131652   6.609   4.497   0.306  0.4703 -1.4177  0.2072
 3339TIP3    H231653   6.752   4.498   0.258  0.1444  1.2467 -0.9081
 3340TIP3   OH231654   5.955   5.510   7.601 -0.2693  0.2045 -0.3162
 3340TIP3    H131655   5.926   5.524   7.691  0.2245  0.9465 -0.2622
 3340TIP3    H231656   5.985   5.419   7.599  0.3360  0.3811  0.4413
 3341TIP3   OH231657   1.243   0.712   1.482 -0.4136  0.4581  0.3688
 3341TIP3    H131658   1.271   0.781   1.422  0.0335  0.0343  0.0759
 3341TIP3    H231659   1.180   0.754   1.540  0.9086  1.4881  1.1159
 3342TIP3   OH231660   1.157   4.280   1.430  0.4009 -0.4873 -0.3307
 3342TIP3    H131661   1.074   4.316   1.399 -0.8197 -1.9171  1.0909
 3342TIP3    H231662   1.191   4.347   1.490 -0.4663 -0.4954  0.1910
 3343TIP3   OH231663   0.977   4.842   1.020 -0.7218 -0.9161  0.2087
 3343TIP3    H131664   1.039   4.769   1.020  2.0924  1.3436  0.2115
 3343TIP3    H231665   0.991   4.886   1.103 -1.0345  0.6956 -0.5533
 3344TIP3   OH231666   4.811   4.592   0.920 -0.3453 -0.0467  0.2413
 3344TIP3    H131667   4.784   4.594   1.012 -2.3934  2.9683 -0.2682
 3344TIP3    H231668   4.777   4.508   0.888 -1.3020 -0.3124  1.8035
 3345TIP3   OH231669   1.606   6.726   2.049 -0.2668 -0.2122  0.2360
 3345TIP3    H131670   1.533   6.782   2.076  0.4589 -0.0430  1.9881
 3345TIP3    H231671   1.566   6.658   1.994 -1.8677 -0.5427  1.7406
 3346TIP3   OH231672   3.511   6.070   8.072  0.2235 -0.1390 -0.3622
 3346TIP3    H131673   3.526   6.018   7.993 -0.9612 -0.6370 -0.2753
 3346TIP3    H231674   3.521   6.161   8.044 -2.1883 -0.1902 -1.5866
 3347TIP3   OH231675   0.613   4.742   6.926 -0.5226 -0.4857 -0.1135
 3347TIP3    H131676   0.566   4.826   6.929  0.6582  0.1958  0.2870
 3347TIP3    H231677   0.676   4.752   6.855  0.0554 -0.7789  0.3394
 3348TIP3   OH231678   5.628   2.722   6.626 -0.1393  0.0403 -0.3061
 3348TIP3    H131679   5.710   2.752   6.586  0.2563  0.2232  0.6179
 3348TIP3    H231680   5.565   2.792   6.606 -0.1806 -0.2872 -1.3550
 3349TIP3   OH231681   0.765   2.717   1.812  0.8341  0.4719  0.7996
 3349TIP3    H131682   0.821   2.790   1.786  0.9471  0.9639  2.3348
 3349TIP3    H231683   0.814   2.673   1.881  0.7549 -1.0688 -0.0839
 3350TIP3   OH231684   4.000   6.240   1.546  0.5062 -0.3372  0.5518
 3350TIP3    H131685   3.976   6.161   1.497 -0.9027  0.3864 -0.0042
 3350TIP3    H231686   3.922   6.295   1.541  1.6067  1.2989  0.4991
 3351TIP3   OH231687   4.506   1.476   7.422 -0.0917  0.3509 -0.2501
 3351TIP3    H131688   4.525   1.513   7.509  0.9813  0.6457 -0.5950
 3351TIP3    H231689   4.471   1.389   7.441  0.8025  0.1313  0.4669
 3352TIP3   OH231690   2.122   6.329   0.185 -0.3039 -0.4478 -0.2710
 3352TIP3    H131691   2.029   6.316   0.199 -0.9799  1.1753 -2.5398
 3352TIP3    H231692   2.161   6.326   0.272 -2.9299  1.8508  1.1481
 3353TIP3   OH231693   4.379   1.394   8.247 -0.0301 -0.2699 -0.2544
 3353TIP3    H131694   4.326   1.349   8.181 -2.1314  0.3514  0.9145
 3353TIP3    H231695   4.454   1.336   8.261 -0.7195 -1.5345 -1.5181
 3354TIP3   OH231696   6.226   6.272   6.405  0.5416  0.1420 -0.2263
 3354TIP3    H131697   6.236   6.290   6.311 -0.2517 -0.3003 -0.3998
 3354TIP3    H231698   6.154   6.210   6.410  1.0691 -0.4236  0.6247
 3355TIP3   OH231699   3.621   2.766   1.439 -0.2384  0.1766  0.5776
 3355TIP3    H131700   3.599   2.695   1.499  0.6933 -0.0090  0.7157
 3355TIP3    H231701   3.575   2.842   1.474 -0.3527 -0.1118  1.0641
 3356TIP3   OH231702   2.934   4.983   0.938 -0.2567  0.5932  0.2636
 3356TIP3    H131703   2.879   5.060   0.947 -1.5539 -0.3934  1.2185
 3356TIP3    H231704   2.874   4.909   0.948  1.0289 -0.5520 -0.0571
 3357TIP3   OH231705   3.812   6.491   7.955 -0.3303 -0.7971 -0.1819
 3357TIP3    H131706   3.881   6.506   7.890 -0.6374  1.7235 -0.0185
 3357TIP3    H231707   3.859   6.466   8.034  0.4587  0.9537 -0.0543
 3358TIP3   OH231708   6.117   1.663   7.313 -0.3684  0.6951 -0.4593
 3358TIP3    H131709   6.073   1.604   7.374  1.1253  0.0978  0.0845
 3358TIP3    H231710   6.197   1.690   7.358 -0.3768  2.1074 -1.2317
 3359TIP3   OH231711   3.839   3.852   8.094 -0.2994 -0.2407  0.2513
 3359TIP3    H131712   3.918   3.899   8.123  0.2055 -1.4978  0.9823
 3359TIP3    H231713   3.769   3.888   8.148 -0.6118  2.1118 -1.5571
 3360TIP3   OH231714   1.572   6.390   1.541  0.0231  0.1989 -0.0800
 3360TIP3    H131715   1.536   6.302   1.537  0.6518 -0.0830  0.2483
 3360TIP3    H231716   1.527   6.431   1.615 -1.1017  0.5505 -0.9372
 3361TIP3   OH231717   3.240   1.936   1.448 -0.1208 -0.2273 -0.2008
 3361TIP3    H131718   3.297   1.862   1.470 -0.8014 -0.7950 -0.2969
 3361TIP3    H231719   3.154   1.909   1.478 -0.0507  1.3486  1.5578
 3362TIP3   OH231720   0.533   2.703   1.656  0.4349  0.0118 -0.2693
 3362TIP3    H131721   0.590   2.702   1.579 -0.1406 -1.8748 -0.7221
 3362TIP3    H231722   0.592   2.692   1.730  0.9458  1.3133 -0.4686
 3363TIP3   OH231723   2.151   5.576   7.196  0.0438 -1.1919 -0.4584
 3363TIP3    H131724   2.237   5.553   7.231  0.1226 -0.6445 -0.2824
 3363TIP3    H231725   2.149   5.538   7.108  0.6059 -0.8873 -0.6020
 3364TIP3   OH231726   5.817   6.148   8.310 -0.1727  0.2978  0.5307
 3364TIP3    H131727   5.781   6.065   8.339 -1.1749  1.1947  1.9633
 3364TIP3    H231728   5.851   6.130   8.222  0.6806 -1.8884  1.2363
 3365TIP3   OH231729   3.522   2.725   6.565  0.0719  0.3291  0.2492
 3365TIP3    H131730   3.583   2.693   6.498 -0.1291 -1.3438  0.8058
 3365TIP3    H231731   3.508   2.817   6.544 -0.4666 -0.2936 -2.3624
 3366TIP3   OH231732   5.804   3.677   7.694  0.7188  0.1919 -0.2760
 3366TIP3    H131733   5.825   3.643   7.607  3.0181 -2.1141  1.0544
 3366TIP3    H231734   5.876   3.737   7.715  0.0906  0.8662  0.0173
 3367TIP3   OH231735   4.199   1.237   8.407  0.7760 -0.1855 -0.0714
 3367TIP3    H131736   4.178   1.328   8.427  1.1855 -0.2558  0.7514
 3367TIP3    H231737   4.290   1.239   8.377 -0.0616  0.0179 -2.8382
 3368TIP3   OH231738   3.666   1.376   7.573  0.0441 -0.3444  0.0479
 3368TIP3    H131739   3.670   1.462   7.616 -1.4772 -0.0128 -0.4107
 3368TIP3    H231740   3.676   1.395   7.480  1.0879 -0.8288  0.0474
 3369TIP3   OH231741   0.835   5.696   0.322 -0.2832 -0.4293  0.3305
 3369TIP3    H131742   0.757   5.722   0.272 -0.5453 -1.8859 -0.0773
 3369TIP3    H231743   0.849   5.604   0.298 -0.4084 -1.2024  2.9248
 3370TIP3   OH231744   4.469   4.830   1.863 -0.2600 -0.0591 -0.3794
 3370TIP3    H131745   4.532   4.845   1.933 -1.2285 -0.3422  0.5906
 3370TIP3    H231746   4.427   4.748   1.886 -1.5410  0.5206 -0.5464
 3371TIP3   OH231747   2.738   0.663   1.133 -0.0485 -0.9110 -0.7059
 3371TIP3    H131748   2.673   0.645   1.065 -0.3731 -2.8745  0.0360
 3371TIP3    H231749   2.731   0.757   1.149 -1.6359 -0.8178 -1.7282
 3372TIP3   OH231750   1.720   4.816   0.937 -0.2443 -0.0745  0.6214
 3372TIP3    H131751   1.697   4.856   0.854 -0.6955 -1.1666  0.2021
 3372TIP3    H231752   1.703   4.722   0.925 -0.5558 -0.2282  2.0170
 3373TIP3   OH231753   2.423   1.063   0.731 -0.6986 -0.0808  0.3128
 3373TIP3    H131754   2.484   1.056   0.657 -0.8885 -1.5879  0.2548
 3373TIP3    H231755   2.479   1.084   0.806 -0.5016  1.4744 -0.2326
 3374TIP3   OH231756   3.239   6.100   7.930 -0.3814  0.1781 -0.1313
 3374TIP3    H131757   3.220   6.194   7.931  1.2445  0.5494 -0.8592
 3374TIP3    H231758   3.333   6.095   7.947 -0.2583 -1.2522 -1.0962
 3375TIP3   OH231759   4.363   3.601   0.972  0.1951  0.1338  0.0439
 3375TIP3    H131760   4.423   3.578   1.043  1.6721  1.6787 -0.6365
 3375TIP3    H231761   4.411   3.664   0.918 -0.8774 -0.9331 -2.3340
 3376TIP3   OH231762   0.545   4.790   7.847 -0.9542 -0.2194 -0.2014
 3376TIP3    H131763   0.630   4.818   7.880 -0.8595  1.9423 -2.0323
 3376TIP3    H231764   0.487   4.864   7.867 -2.6238 -1.8692  1.5462
 3377TIP3   OH231765   6.493   3.511   0.008  0.2535  0.3515 -0.7082
 3377TIP3    H131766   6.539   3.589   0.040  2.0365  0.4349 -3.2064
 3377TIP3    H231767   6.534   3.438   0.055  1.9142  0.5697 -1.7427
 3378TIP3   OH231768   3.620   0.414   8.363  0.3103  0.4571 -1.0299
 3378TIP3    H131769   3.533   0.439   8.333  0.9157  1.9258 -1.6597
 3378TIP3    H231770   3.625   0.320   8.347 -2.2420 -0.3200  1.8329
 3379TIP3   OH231771   5.930   2.708   8.000 -0.0601 -0.4229  0.0594
 3379TIP3    H131772   5.946   2.655   8.078 -0.1838 -1.3177 -0.5101
 3379TIP3    H231773   5.900   2.645   7.934  1.2606  0.1142 -1.1052
 3380TIP3   OH231774   5.834   4.502   2.485 -0.0380 -0.4722  0.0413
 3380TIP3    H131775   5.832   4.429   2.423 -2.3047 -1.2387  0.9324
 3380TIP3    H231776   5.888   4.470   2.558 -0.6595 -1.1020  0.2339
 3381TIP3   OH231777   5.202   2.294   8.057  0.2508  0.0078 -0.8908
 3381TIP3    H131778   5.173   2.254   7.975 -1.3546 -0.6150 -0.0607
 3381TIP3    H231779   5.125   2.340   8.090  0.6706 -0.2816  0.5710
 3382TIP3   OH231780   4.092   3.300   2.086 -0.3792  0.1815 -0.3881
 3382TIP3    H131781   4.126   3.379   2.043 -0.3912 -0.0568 -0.8351
 3382TIP3    H231782   4.076   3.328   2.177 -0.3465  0.6820 -0.5322
 3383TIP3   OH231783   0.743   1.662   1.458 -0.5627 -0.2232  0.0737
 3383TIP3    H131784   0.705   1.633   1.375 -1.1286 -0.5930  0.4556
 3383TIP3    H231785   0.758   1.582   1.507 -1.7990  0.0841  0.9980
 3384TIP3   OH231786   5.357   4.355   8.615 -1.1612  0.2460 -0.5244
 3384TIP3    H131787   5.289   4.420   8.634 -1.1084 -0.3013  1.8540
 3384TIP3    H231788   5.310   4.272   8.607 -0.9486  0.1407 -0.7049
 3385TIP3   OH231789   6.275   0.246   1.679  0.0371 -0.0481  0.3802
 3385TIP3    H131790   6.180   0.255   1.666  0.1224  2.0062  0.9120
 3385TIP3    H231791   6.295   0.158   1.646 -1.8600 -0.1066 -0.7754
 3386TIP3   OH231792   5.399   4.925   6.577  0.3889 -0.0603 -0.1803
 3386TIP3    H131793   5.451   4.950   6.500  1.8657 -0.8039  0.5361
 3386TIP3    H231794   5.448   4.961   6.651  0.2741 -1.3830  0.5686
 3387TIP3   OH231795   1.398   0.746   1.148  0.0403  0.1627 -0.4895
 3387TIP3    H131796   1.344   0.823   1.129 -0.9685  0.2560  2.2839
 3387TIP3    H231797   1.429   0.760   1.237 -1.3640 -3.2604  0.6875
 3388TIP3   OH231798   5.805   3.437   2.018  0.2757 -1.0621  0.1182
 3388TIP3    H131799   5.810   3.382   1.940 -1.4665  0.1057 -0.8681
 3388TIP3    H231800   5.867   3.508   2.002 -0.3393 -0.6310 -0.3785
 3389TIP3   OH231801   2.656   0.370   0.245 -0.1627  0.0145 -0.3702
 3389TIP3    H131802   2.633   0.296   0.301  0.1713 -0.9060 -1.4051
 3389TIP3    H231803   2.728   0.337   0.191 -1.6214  0.2555 -2.5655
 3390TIP3   OH231804   1.419   1.918   1.794 -0.2028  0.3581  0.2571
 3390TIP3    H131805   1.430   1.895   1.702 -3.0293 -0.2914 -0.0234
 3390TIP3    H231806   1.499   1.965   1.818  0.5114  0.7242 -2.5774
 3391TIP3   OH231807   5.010   0.947   6.874 -0.1341 -0.2170 -0.0469
 3391TIP3    H131808   5.002   1.037   6.904  0.9531 -0.5548  1.4248
 3391TIP3    H231809   4.927   0.906   6.897 -0.0262  0.0216  0.8010
 3392TIP3   OH231810   4.306   6.514   8.829  0.1245  0.4507 -0.7064
 3392TIP3    H131811   4.251   6.593   8.827  1.2586  1.2547 -1.3384
 3392TIP3    H231812   4.387   6.543   8.872 -0.5366 -1.1355  1.7975
 3393TIP3   OH231813   0.390   3.406   0.347  0.3726 -0.1925  0.6644
 3393TIP3    H131814   0.334   3.367   0.414 -0.5298  0.3659  0.2621
 3393TIP3    H231815   0.356   3.370   0.265  0.6552  0.0993  0.4197
 3394TIP3   OH231816   2.028   1.781   0.064  0.2063 -0.4271  0.0818
 3394TIP3    H131817   1.948   1.785   0.012  0.7785  1.4701 -0.7454
 3394TIP3    H231818   2.090   1.733   0.009  0.1256 -0.4480  0.0101
 3395TIP3   OH231819   5.095   4.037   7.691 -0.4713 -0.4245 -0.1190
 3395TIP3    H131820   5.141   4.098   7.749 -0.3754  0.6865 -1.2975
 3395TIP3    H231821   5.057   4.093   7.623  1.0680 -1.7770 -2.2443
 3396TIP3   OH231822   6.243   3.309   1.304 -0.2679  0.0369  0.8668
 3396TIP3    H131823   6.214   3.330   1.393  2.5752  1.7193  1.5272
 3396TIP3    H231824   6.216   3.385   1.252  1.8435  1.1725  1.2994
 3397TIP3   OH231825   1.922   2.485   7.915 -0.1185  0.6488 -0.0924
 3397TIP3    H131826   2.009   2.481   7.876 -0.0388  1.6827 -0.0707
 3397TIP3    H231827   1.884   2.565   7.878 -0.1925  1.4474  1.6399
 3398TIP3   OH231828   0.594   2.011   1.591  0.1525  0.0953 -0.1934
 3398TIP3    H131829   0.680   1.973   1.608 -0.1220 -1.1475 -1.3557
 3398TIP3    H231830   0.592   2.092   1.642  0.8342 -1.3737  2.3524
 3399TIP3   OH231831   5.288   2.825   1.425  0.8438  0.2215 -0.2373
 3399TIP3    H131832   5.285   2.921   1.425  1.1796  0.2673  1.2280
 3399TIP3    H231833   5.364   2.804   1.479 -0.0151 -0.8595  0.6023
 3400TIP3   OH231834   0.974   3.518   1.144 -0.2515 -0.1144 -0.2855
 3400TIP3    H131835   1.034   3.449   1.169 -0.4852  0.3211  1.6466
 3400TIP3    H231836   0.904   3.515   1.210  0.5163  2.8929  0.8713
 3401TIP3   OH231837   4.442   2.548   8.240  0.1380 -0.4088 -0.3454
 3401TIP3    H131838   4.532   2.581   8.249  0.1050 -0.5177  0.4607
 3401TIP3    H231839   4.429   2.541   8.145  1.3428 -1.3660 -0.4802
 3402TIP3   OH231840   2.622   5.128   1.981  0.0859  0.1987 -0.3470
 3402TIP3    H131841   2.701   5.121   1.927 -0.1620 -2.6866 -0.4721
 3402TIP3    H231842   2.558   5.172   1.925  0.6623 -0.2643 -1.3841
 3403TIP3   OH231843   1.109   3.820   8.905  0.3218 -0.1533  0.3961
 3403TIP3    H131844   1.079   3.729   8.910 -0.0177 -0.0026  1.4547
 3403TIP3    H231845   1.201   3.816   8.931  0.9657 -0.4693 -1.7679
 3404TIP3   OH231846   4.393   5.900   0.364  0.3917 -0.1608 -0.0471
 3404TIP3    H131847   4.457   5.972   0.367  1.7020 -1.2641 -0.4840
 3404TIP3    H231848   4.322   5.930   0.421  0.5805  1.7590 -0.7380
 3405TIP3   OH231849   3.260   5.142   7.201  0.0328  0.0148 -0.2616
 3405TIP3    H131850   3.349   5.116   7.226 -0.4419 -1.1065  0.3019
 3405TIP3    H231851   3.228   5.071   7.146 -1.3362 -0.7560  1.4292
 3406TIP3   OH231852   3.076   3.738   2.391  0.0280 -0.0140 -0.1876
 3406TIP3    H131853   3.129   3.684   2.333  0.8440 -0.7670  1.2094
 3406TIP3    H231854   3.032   3.801   2.333  0.4179 -1.0544 -1.6463
 3407TIP3   OH231855   1.403   3.792   0.507 -0.0612 -0.3198  1.1501
 3407TIP3    H131856   1.345   3.821   0.437  1.5590 -1.5886 -0.8576
 3407TIP3    H231857   1.480   3.849   0.498  0.3505 -0.8048  1.5794
 3408TIP3   OH231858   4.031   2.224   8.876  0.4399 -0.1766 -0.3715
 3408TIP3    H131859   4.120   2.258   8.869  0.1773  0.3515 -1.4615
 3408TIP3    H231860   3.994   2.267   8.953  0.5765  0.9299 -0.9138
 3409TIP3   OH231861   4.312   5.190   8.481 -0.2500 -0.3752 -0.1496
 3409TIP3    H131862   4.388   5.246   8.494  0.5394 -1.4263 -0.1356
 3409TIP3    H231863   4.275   5.219   8.397  0.1410  0.1598 -0.1405
 3410TIP3   OH231864   0.188   1.841   6.905  0.4648  0.4955  0.0381
 3410TIP3    H131865   0.214   1.879   6.989 -1.0331  0.9143  0.3589
 3410TIP3    H231866   0.255   1.869   6.843  1.9875 -0.4005  1.1985
 3411TIP3   OH231867   5.862   2.265   1.827 -0.1369 -0.0888 -0.8202
 3411TIP3    H131868   5.858   2.169   1.831 -0.9155 -0.0376  0.9749
 3411TIP3    H231869   5.887   2.285   1.737  0.9875 -1.9952 -0.9808
 3412TIP3   OH231870   3.820   3.947   0.927  0.1523  0.0003 -0.1356
 3412TIP3    H131871   3.789   3.861   0.901  2.2513 -0.7677 -0.2544
 3412TIP3    H231872   3.799   4.004   0.853 -0.5453 -0.5608 -0.3787
 3413TIP3   OH231873   6.590   5.680   2.717 -0.1684 -0.0981 -0.2881
 3413TIP3    H131874   6.586   5.761   2.667  2.1432 -0.8480 -1.8858
 3413TIP3    H231875   6.513   5.630   2.689 -1.3400  1.2878  0.3437
 3414TIP3   OH231876   1.059   6.104   8.266 -0.7192  0.0357 -0.3001
 3414TIP3    H131877   1.082   6.015   8.293 -0.5018  0.5648  1.3709
 3414TIP3    H231878   1.048   6.098   8.171  0.2212 -1.5659 -0.3456
 3415TIP3   OH231879   0.836   1.293   0.944  0.0937 -0.3509 -0.1136
 3415TIP3    H131880   0.906   1.282   1.007  1.3988  0.1220 -1.4290
 3415TIP3    H231881   0.803   1.204   0.930  1.3634 -0.7877 -0.4887
 3416TIP3   OH231882   2.275   5.200   0.778  0.1507  0.1377  0.0231
 3416TIP3    H131883   2.344   5.262   0.755  0.7914 -0.2249  0.8779
 3416TIP3    H231884   2.277   5.198   0.874 -1.3173  0.4112  0.0717
 3417TIP3   OH231885   4.124   0.065   0.379  0.4266  0.1397 -0.0201
 3417TIP3    H131886   4.165   0.151   0.390  0.8817  0.2697 -2.2991
 3417TIP3    H231887   4.031   0.080   0.401  0.6839  0.9606  0.5696
 3418TIP3   OH231888   3.805   0.639   0.772 -0.1023 -0.2900 -0.3758
 3418TIP3    H131889   3.818   0.544   0.771  0.9184 -0.1794  0.4364
 3418TIP3    H231890   3.711   0.650   0.787 -0.1517 -1.1837  0.0608
 3419TIP3   OH231891   4.561   2.785   7.486 -0.4145  0.1183  0.4151
 3419TIP3    H131892   4.471   2.775   7.454 -0.5029 -1.6217  1.1227
 3419TIP3    H231893   4.556   2.762   7.579  0.5679  1.1601  0.7514
 3420TIP3   OH231894   2.881   1.930   0.112 -0.4788  0.1910  0.4682
 3420TIP3    H131895   2.885   1.893   0.201 -1.1857 -1.4944 -0.1471
 3420TIP3    H231896   2.868   1.853   0.056  1.2231  1.0792 -1.2304
 3421TIP3   OH231897   5.264   4.898   1.362 -0.1391 -0.5711  0.8271
 3421TIP3    H131898   5.346   4.854   1.340 -0.0879 -0.2862  0.4403
 3421TIP3    H231899   5.276   4.988   1.331 -1.1743 -0.9055 -0.6672
 3422TIP3   OH231900   4.139   3.068   0.395 -0.2604  0.1775  0.4151
 3422TIP3    H131901   4.232   3.062   0.373  0.0263  3.4859  0.2034
 3422TIP3    H231902   4.125   3.160   0.416 -3.0572 -0.6113  2.7156
 3423TIP3   OH231903   4.128   4.397   8.378 -0.2100  0.2096  0.4937
 3423TIP3    H131904   4.098   4.343   8.451 -1.4587 -1.2845 -1.0338
 3423TIP3    H231905   4.158   4.333   8.312  2.1451  1.5240  0.1536
 3424TIP3   OH231906   4.272   5.284   1.662  0.4898 -0.8512 -0.2177
 3424TIP3    H131907   4.233   5.355   1.714 -1.9612 -2.3226  0.0568
 3424TIP3    H231908   4.358   5.270   1.704 -0.3406 -0.2570  1.8325
 3425TIP3   OH231909   4.283   1.840   8.380 -0.2501 -0.2488 -0.5639
 3425TIP3    H131910   4.344   1.824   8.451  1.0748 -0.9113 -1.7903
 3425TIP3    H231911   4.281   1.936   8.372  1.2369 -0.2141 -0.9529
 3426TIP3   OH231912   2.376   0.210   0.862  0.2284  0.4989  0.6129
 3426TIP3    H131913   2.417   0.133   0.822 -0.8474  0.4110 -0.3445
 3426TIP3    H231914   2.449   0.258   0.902  1.0261 -0.5463  0.4459
 3427TIP3   OH231915   0.792   0.032   8.664  0.0993  0.1388 -0.3840
 3427TIP3    H131916   0.708  -0.008   8.687 -0.5479  2.0638  0.7702
 3427TIP3    H231917   0.804   0.102   8.728  1.4957  1.3732 -1.9053
 3428TIP3   OH231918   2.525   0.439   1.272  0.1772 -0.4840 -0.4846
 3428TIP3    H131919   2.602   0.383   1.263  0.7756  0.5600 -2.7938
 3428TIP3    H231920   2.493   0.449   1.182 -2.2439 -0.2913  0.3326
 3429TIP3   OH231921   6.056   3.862   8.488 -0.6447  0.2921 -0.6026
 3429TIP3    H131922   6.039   3.833   8.398  0.7462 -2.2548 -0.1499
 3429TIP3    H231923   6.125   3.929   8.478  0.5599 -1.0111 -1.3922
 3430TIP3   OH231924   6.374   0.444   0.901 -0.1924  0.0830 -0.2928
 3430TIP3    H131925   6.393   0.505   0.829  0.8596  0.1842  0.0649
 3430TIP3    H231926   6.305   0.489   0.951  0.1386  0.7065 -0.3795
 3431TIP3   OH231927   2.885   2.936   7.485 -0.6346 -0.2726  0.6107
 3431TIP3    H131928   2.884   2.970   7.395  0.5827  0.8759  0.9932
 3431TIP3    H231929   2.967   2.886   7.490  0.4317  1.4808  1.6672
 3432TIP3   OH231930   1.531   2.999   2.656 -0.1571  0.0457 -0.7219
 3432TIP3    H131931   1.512   2.906   2.641 -0.9946  0.0853 -0.0055
 3432TIP3    H231932   1.447   3.043   2.640 -0.2436  0.4591  0.7272
 3433TIP3   OH231933   1.536   0.938   2.007  0.3842 -0.1214 -0.5628
 3433TIP3    H131934   1.563   1.012   2.061  1.2732  0.3505 -1.6296
 3433TIP3    H231935   1.588   0.865   2.038 -1.0192 -0.5156  0.9928
 3434TIP3   OH231936   0.779   6.118   0.326  0.2622 -0.0394 -0.6901
 3434TIP3    H131937   0.697   6.136   0.371 -0.1485 -0.9163 -1.0531
 3434TIP3    H231938   0.754   6.062   0.252  1.2509 -0.8136 -0.4686
 3435TIP3   OH231939   1.280   6.487   8.870 -0.6507  0.1778 -0.2953
 3435TIP3    H131940   1.308   6.458   8.957 -2.2634  0.0077  0.2078
 3435TIP3    H231941   1.310   6.577   8.863 -0.7476  0.2816  0.5632
 3436TIP3   OH231942   5.326   1.088   2.664 -0.0678 -0.0186 -0.1593
 3436TIP3    H131943   5.410   1.057   2.698  0.5781  0.0511 -1.6180
 3436TIP3    H231944   5.300   1.023   2.600 -0.8076  0.3043 -0.1968
 3437TIP3   OH231945   2.250   6.060   8.020 -0.0988 -0.0408  0.2655
 3437TIP3    H131946   2.262   6.032   8.110  0.4286  2.6926  1.1382
 3437TIP3    H231947   2.338   6.061   7.982 -0.0691  0.6473  0.3399
 3438TIP3   OH231948   0.894   5.726   1.923  0.4088  0.3478 -0.5044
 3438TIP3    H131949   0.914   5.817   1.943  0.2310  0.0655  1.1301
 3438TIP3    H231950   0.839   5.697   1.996  0.8977 -1.2044 -0.7139
 3439TIP3   OH231951   4.675   0.176   6.416 -0.1977  0.5698 -0.6266
 3439TIP3    H131952   4.683   0.127   6.334 -2.8083  1.3179 -1.4095
 3439TIP3    H231953   4.626   0.118   6.474 -1.8804  1.5452 -1.0082
 3440TIP3   OH231954   5.940   6.214   0.159  0.1847  1.0526 -0.1411
 3440TIP3    H131955   5.873   6.231   0.092 -1.8089  0.5066  1.5868
 3440TIP3    H231956   5.963   6.122   0.147  0.1168  1.0553 -0.2991
 3441TIP3   OH231957   3.539   2.483   1.855 -0.6530  0.7170 -0.6515
 3441TIP3    H131958   3.469   2.541   1.827 -1.1885  0.0473 -0.7218
 3441TIP3    H231959   3.614   2.508   1.801 -0.7784  1.5493 -0.4612
 3442TIP3   OH231960   3.913   1.568   1.401  0.9807 -0.3326 -0.6579
 3442TIP3    H131961   3.939   1.500   1.463 -1.0360 -1.4786 -0.9773
 3442TIP3    H231962   3.881   1.640   1.456  1.1494 -0.4890 -0.3545
 3443TIP3   OH231963   2.951   4.641   8.119  0.4917 -0.9519  0.5817
 3443TIP3    H131964   3.004   4.647   8.040  0.8049 -1.1760  0.7680
 3443TIP3    H231965   2.900   4.722   8.122 -1.6309 -2.1057 -1.3257
 3444TIP3   OH231966   2.920   0.713   8.504 -0.1920 -0.2925 -0.7211
 3444TIP3    H131967   2.910   0.808   8.511 -1.2819 -0.3650 -1.0673
 3444TIP3    H231968   2.929   0.697   8.411 -1.8045 -0.6570 -0.8454
 3445TIP3   OH231969   3.397   0.223   8.039 -0.5974  0.8731 -0.2591
 3445TIP3    H131970   3.389   0.284   7.966 -2.4832 -0.5605 -1.3594
 3445TIP3    H231971   3.331   0.252   8.102 -0.4941  0.8333 -0.1338
 3446TIP3   OH231972   0.268   6.704   7.659 -0.0474  0.2005 -0.0740
 3446TIP3    H131973   0.321   6.780   7.679 -2.5154  1.7998  0.8070
 3446TIP3    H231974   0.247   6.665   7.744  1.1300 -1.4925 -0.5055
 3447TIP3   OH231975   2.507   6.281   6.539  0.3823  0.5006  0.5658
 3447TIP3    H131976   2.452   6.220   6.588  1.0858 -0.3300  0.3404
 3447TIP3    H231977   2.532   6.347   6.604 -1.4559  1.3354  0.5078
 3448TIP3   OH231978   2.001   1.354   7.963  0.2234  0.0343 -0.1554
 3448TIP3    H131979   2.011   1.300   7.885  1.9329 -0.6031  0.4660
 3448TIP3    H231980   2.089   1.387   7.982 -0.5567  2.1451  0.1444
 3449TIP3   OH231981   1.909   0.698   8.058  0.6365  0.4032  0.5653
 3449TIP3    H131982   1.922   0.789   8.085  0.0823  0.6038  0.1729
 3449TIP3    H231983   1.905   0.702   7.962 -0.9609  0.1898  0.5932
 3450TIP3   OH231984   1.411   0.607   0.481 -0.1504  0.6423 -0.2889
 3450TIP3    H131985   1.320   0.588   0.504 -0.0567  1.3907  0.7772
 3450TIP3    H231986   1.417   0.703   0.485  1.0191  0.5373  1.0521
 3451TIP3   OH231987   4.305   1.914   7.097  0.0102 -0.0764  0.1269
 3451TIP3    H131988   4.382   1.929   7.042  0.6789 -0.1831  1.0175
 3451TIP3    H231989   4.308   1.821   7.120 -1.1635 -0.4191 -0.9557
 3452TIP3   OH231990   3.576   2.976   7.210 -0.3426  0.0496  0.3320
 3452TIP3    H131991   3.638   3.050   7.214  0.4280 -0.6111  1.0595
 3452TIP3    H231992   3.498   3.012   7.168 -0.0680  1.3472  0.8800
 3453TIP3   OH231993   3.290   1.338   0.162 -0.1699  0.2716  0.0307
 3453TIP3    H131994   3.359   1.292   0.209 -0.6223 -0.9600 -0.4700
 3453TIP3    H231995   3.209   1.305   0.200 -0.5070  0.8198 -0.1966
 3454TIP3   OH231996   4.867   0.653   6.716 -0.4953 -0.6766  0.7997
 3454TIP3    H131997   4.866   0.705   6.796  0.3848 -0.7910  0.8989
 3454TIP3    H231998   4.781   0.666   6.678 -0.7950 -0.3142  1.5704
 3455TIP3   OH231999   3.040   6.285   6.849 -0.1350 -0.0426 -0.3717
 3455TIP3    H132000   2.947   6.290   6.827 -0.5096 -0.2745  1.0521
 3455TIP3    H232001   3.041   6.264   6.942  1.3521 -0.1793 -0.4001
 3456TIP3   OH232002   2.321   1.553   0.104  0.6137  0.5015 -0.2868
 3456TIP3    H132003   2.311   1.609   0.181 -0.9308  0.7417 -0.6348
 3456TIP3    H232004   2.414   1.531   0.102  1.2854  3.0544 -0.1342
 3457TIP3   OH232005   3.214   4.004   7.520 -0.3114 -0.2264  0.3346
 3457TIP3    H132006   3.221   3.915   7.555  1.3781 -0.1727  0.2284
 3457TIP3    H232007   3.226   4.060   7.596  0.0886 -0.0951  0.1744
 3458TIP3   OH232008   3.905   1.979   1.897  0.2146  0.8764 -0.0509
 3458TIP3    H132009   3.891   1.950   1.987  0.2606  0.6841 -0.1041
 3458TIP3    H232010   3.993   1.948   1.876  0.7555  2.1395  0.3083
 3459TIP3   OH232011   0.493   1.032   8.201 -0.4606 -0.0618 -0.1689
 3459TIP3    H132012   0.429   1.102   8.189  0.1712  0.6184  0.3805
 3459TIP3    H232013   0.494   0.986   8.117 -0.3764  1.0258 -0.7808
 3460TIP3   OH232014   2.261   4.578   0.704 -0.1654  0.3264  0.1109
 3460TIP3    H132015   2.169   4.595   0.722 -0.4215 -0.9800  0.1629
 3460TIP3    H232016   2.280   4.498   0.753  0.6064 -0.2400 -1.0676
 3461TIP3   OH232017   5.090   4.045   2.103  0.0623  0.4056 -0.4887
 3461TIP3    H132018   5.169   3.990   2.103 -0.4906 -0.4353  0.4550
 3461TIP3    H232019   5.021   3.987   2.069 -0.5588  0.4572  0.6375
 3462TIP3   OH232020   6.395   5.976   8.106 -0.4422 -0.4590  0.0601
 3462TIP3    H132021   6.308   5.970   8.146 -0.3435  0.3496  0.4295
 3462TIP3    H232022   6.444   6.033   8.165  0.6680 -1.7317  0.4074
 3463TIP3   OH232023   4.640   6.016   0.112 -0.0083 -0.2248 -0.0262
 3463TIP3    H132024   4.648   6.096   0.060  1.7383 -0.4167 -0.1008
 3463TIP3    H232025   4.708   6.023   0.178 -0.9965 -0.8577  1.0835
 3464TIP3   OH232026   4.898   0.229   0.779  0.6891  0.7775 -0.2269
 3464TIP3    H132027   4.950   0.157   0.743  1.2205  0.9706  0.1442
 3464TIP3    H232028   4.839   0.187   0.842  1.2298  0.7015  0.2387
 3465TIP3   OH232029   0.986   5.909   7.602 -0.1665  0.3054  1.1818
 3465TIP3    H132030   1.014   5.817   7.606 -1.1232  0.0448  3.4192
 3465TIP3    H232031   1.054   5.952   7.551  0.9011 -1.4491  1.0266
 3466TIP3   OH232032   5.307   6.313   0.736 -0.2783  0.5028 -0.1843
 3466TIP3    H132033   5.363   6.240   0.761  0.0153  0.7826 -0.0241
 3466TIP3    H232034   5.241   6.274   0.679 -0.8501 -0.1227  0.8611
 3467TIP3   OH232035   1.283   6.014   1.367  0.3861 -0.0407 -0.3615
 3467TIP3    H132036   1.212   5.952   1.350 -0.8785  1.2985 -0.2073
 3467TIP3    H232037   1.295   6.061   1.285 -0.1019  0.8871  0.0771
 3468TIP3   OH232038   0.920   5.140   7.804  0.1573  0.5364 -0.5008
 3468TIP3    H132039   0.853   5.188   7.756 -0.6289 -0.2324 -0.1966
 3468TIP3    H232040   0.939   5.063   7.749  1.4745  1.1956 -1.0325
 3469TIP3   OH232041   3.352   6.649   7.199  0.6323  0.2510  0.0171
 3469TIP3    H132042   3.345   6.744   7.193  1.5266  0.2872 -0.7753
 3469TIP3    H232043   3.411   6.625   7.127 -1.5688 -1.1729 -1.4123
 3470TIP3   OH232044   0.667   4.722   1.072 -0.0419 -0.3046 -0.1811
 3470TIP3    H132045   0.582   4.682   1.053 -0.2714  0.0546  0.0832
 3470TIP3    H232046   0.721   4.700   0.996 -1.0206  1.3322 -1.4312
 3471TIP3   OH232047   6.658   0.486   0.105 -0.4878 -0.5287  0.3076
 3471TIP3    H132048   6.713   0.408   0.101 -1.2513 -1.0891  0.4796
 3471TIP3    H232049   6.713   0.556   0.069  0.0902 -1.2098 -0.1684
 3472TIP3   OH232050   5.727   2.600   2.581 -0.2344  0.1603 -0.1143
 3472TIP3    H132051   5.743   2.633   2.669  0.5657  0.2139 -0.2737
 3472TIP3    H232052   5.640   2.634   2.558 -1.8074 -2.2419  1.7720
 3473TIP3   OH232053   4.345   3.802   8.481  0.1627  0.1675  0.4966
 3473TIP3    H132054   4.263   3.762   8.453 -0.1298  0.5901  0.7356
 3473TIP3    H232055   4.361   3.764   8.568 -0.7314  1.4212  1.2461
 3474TIP3   OH232056   0.786   3.442   8.034 -0.4343 -0.0407  0.1904
 3474TIP3    H132057   0.699   3.402   8.032  0.2340 -1.7884  2.0905
 3474TIP3    H232058   0.778   3.510   8.101 -0.2142 -0.6386  0.8431
 3475TIP3   OH232059   3.632   2.846   8.415 -0.2261 -0.0785  0.1185
 3475TIP3    H132060   3.703   2.907   8.428 -0.3745  0.1808 -0.2698
 3475TIP3    H232061   3.666   2.782   8.352 -0.3540  0.0856 -0.1217
 3476TIP3   OH232062   5.792   0.159   2.314  0.1544 -0.8867 -0.1433
 3476TIP3    H132063   5.816   0.102   2.387  0.9411 -1.3952 -0.7752
 3476TIP3    H232064   5.842   0.240   2.328  1.5574 -1.5646 -0.9150
 3477TIP3   OH232065   2.164   1.260   7.517  0.3645 -0.5873  0.0200
 3477TIP3    H132066   2.170   1.185   7.576 -0.2076  0.6401  1.7383
 3477TIP3    H232067   2.246   1.259   7.468  1.4002 -1.0170  1.6674
 3478TIP3   OH232068   3.333   0.382   1.019  0.0264 -0.6773 -0.3607
 3478TIP3    H132069   3.299   0.412   1.104 -1.0571  0.3310 -1.1155
 3478TIP3    H232070   3.255   0.373   0.964  0.4755 -3.3236 -0.7014
 3479TIP3   OH232071   5.637   0.807   1.111  0.2929  0.1379 -0.8854
 3479TIP3    H132072   5.699   0.812   1.038 -0.2491 -0.3493 -1.3877
 3479TIP3    H232073   5.592   0.891   1.109  1.1078  0.6080 -0.3459
 3480TIP3   OH232074   5.909   0.544   2.170 -0.0744  0.2704  0.0852
 3480TIP3    H132075   5.869   0.629   2.189  0.2906  1.0151 -2.1062
 3480TIP3    H232076   5.998   0.565   2.141 -0.2267 -0.7499 -1.2303
 3481TIP3   OH232077   3.975   6.060   0.462  0.2437 -0.4002  0.0588
 3481TIP3    H132078   4.039   6.011   0.515  1.5078  0.3391 -0.7279
 3481TIP3    H232079   4.012   6.058   0.374 -0.0347  1.3734 -0.1199
 3482TIP3   OH232080   4.762   2.662   0.575 -0.2256  0.6077  0.5429
 3482TIP3    H132081   4.722   2.581   0.544 -1.7777  1.0296  1.3511
 3482TIP3    H232082   4.794   2.641   0.663 -2.5214  1.3695  1.6369
 3483TIP3   OH232083   0.585   3.764   7.022 -0.2448 -0.1272  0.0828
 3483TIP3    H132084   0.514   3.826   7.002  0.2377  0.6859  0.8360
 3483TIP3    H232085   0.658   3.794   6.968 -0.0582 -0.1264  0.3355
 3484TIP3   OH232086   5.209   2.163   2.187  0.0664 -0.2611 -0.0502
 3484TIP3    H132087   5.114   2.152   2.197  0.3264 -2.5652  0.3858
 3484TIP3    H232088   5.239   2.192   2.273 -0.4278  2.4335 -0.7170
 3485TIP3   OH232089   6.417   2.948   1.152 -0.2586  0.1377 -0.0101
 3485TIP3    H132090   6.490   2.970   1.095 -0.2343 -1.2679 -0.5550
 3485TIP3    H232091   6.454   2.952   1.241  0.7144 -1.2997 -0.3157
 3486TIP3   OH232092   2.733   1.487   1.453 -0.1623  0.1973 -0.0470
 3486TIP3    H132093   2.821   1.485   1.490  0.5705  2.8838 -1.3940
 3486TIP3    H232094   2.681   1.432   1.512  1.8630  0.5715  2.2562
 3487TIP3   OH232095   0.797   2.427   0.110  0.2836 -0.8672 -0.1367
 3487TIP3    H132096   0.747   2.346   0.099 -0.6174 -0.4237  0.6606
 3487TIP3    H232097   0.738   2.487   0.155  0.5610  0.6074 -1.6420
 3488TIP3   OH232098   1.200   6.766   0.281  0.6468 -0.0338  0.2474
 3488TIP3    H132099   1.116   6.765   0.236  1.0866 -0.7692 -0.5974
 3488TIP3    H232100   1.195   6.841   0.341  0.2807  1.4126 -1.4984
 3489TIP3   OH232101   0.781   6.742   1.851  0.1461  0.2854 -0.0525
 3489TIP3    H132102   0.722   6.817   1.856 -1.1816 -0.7234 -0.1122
 3489TIP3    H232103   0.857   6.767   1.904  0.3854  2.2182 -1.1972
 3490TIP3   OH232104   1.827   4.957   0.165  0.1534  0.7794  0.0180
 3490TIP3    H132105   1.922   4.969   0.171  0.2029 -0.1861  1.4491
 3490TIP3    H232106   1.796   4.962   0.255 -0.8441 -1.2454 -0.1626
 3491TIP3   OH232107   0.788   2.604   0.712  0.3285 -0.3890 -0.0660
 3491TIP3    H132108   0.721   2.656   0.756  1.5948  0.5886  0.8065
 3491TIP3    H232109   0.801   2.647   0.628  0.9958  0.4362  0.4383
 3492TIP3   OH232110   3.488   1.372   8.659  1.0993  0.1921 -0.2226
 3492TIP3    H132111   3.510   1.323   8.739 -0.4599  0.6344  0.5177
 3492TIP3    H232112   3.510   1.463   8.680 -0.2276  0.4641  0.1135
 3493TIP3   OH232113   4.274   5.401   8.883  0.6661 -0.7557 -0.2160
 3493TIP3    H132114   4.226   5.351   8.816 -0.3863  0.3703 -0.3331
 3493TIP3    H232115   4.207   5.457   8.922  1.3241 -1.1905  1.5998
 3494TIP3   OH232116   1.619   5.765   0.895  0.1940  0.1588 -0.0286
 3494TIP3    H132117   1.693   5.801   0.846 -0.5448  0.5874 -0.8492
 3494TIP3    H232118   1.545   5.820   0.871 -0.5293 -0.6528  0.2914
 3495TIP3   OH232119   2.362   6.354   6.811 -0.4351 -0.0675 -0.8620
 3495TIP3    H132120   2.448   6.382   6.778  0.0171 -0.2723  0.1012
 3495TIP3    H232121   2.343   6.274   6.762 -0.4910  0.4330 -1.6924
 3496TIP3   OH232122   3.545   3.049   1.055  0.2349 -0.0844  0.1093
 3496TIP3    H132123   3.462   3.047   1.104 -0.8548 -0.2758 -1.6766
 3496TIP3    H232124   3.603   3.104   1.108 -1.2630  0.6553  1.0368
 3497TIP3   OH232125   2.547   6.532   8.149  0.2537  0.3582 -0.2126
 3497TIP3    H132126   2.461   6.559   8.117 -0.0487 -0.1810  0.1229
 3497TIP3    H232127   2.542   6.436   8.152  1.8751  0.0765 -3.0438
 3498TIP3   OH232128   1.773   4.688   1.225 -0.0204 -0.3682  0.2192
 3498TIP3    H132129   1.779   4.778   1.257 -0.9900  0.8277 -2.6705
 3498TIP3    H232130   1.834   4.684   1.152  0.6737 -2.4000  0.8238
 3499TIP3   OH232131   3.894   2.319   1.068 -0.0167 -0.4115 -0.5200
 3499TIP3    H132132   3.830   2.309   1.138 -0.9864 -3.0504 -1.6300
 3499TIP3    H232133   3.847   2.368   1.000 -0.2767 -0.7825 -0.6169
 3500TIP3   OH232134   4.235   5.170   8.000 -0.1659 -0.6341  0.3310
 3500TIP3    H132135   4.189   5.107   8.055 -1.5709 -0.7142 -0.8967
 3500TIP3    H232136   4.167   5.230   7.969  0.8669  0.4558  0.0683
 3501TIP3   OH232137   0.266   5.394   7.327  0.1463 -0.1997  0.1877
 3501TIP3    H132138   0.254   5.319   7.269  0.6898  1.1887 -1.8431
 3501TIP3    H232139   0.280   5.468   7.268  0.5465  1.3583  2.1169
 3502TIP3   OH232140   3.299   4.881   0.173 -0.7193  0.0701  0.3991
 3502TIP3    H132141   3.318   4.972   0.149 -3.1181  0.6470  0.4593
 3502TIP3    H232142   3.308   4.879   0.268  0.0645  0.0360  0.3304
 3503TIP3   OH232143   0.102   1.182   7.924  0.1082 -0.6778 -0.1643
 3503TIP3    H132144   0.167   1.181   7.994  0.2237 -0.8382 -0.2747
 3503TIP3    H232145   0.059   1.097   7.931 -1.2314  0.0412  0.9848
 3504TIP3   OH232146   0.224   1.982   1.514 -0.2017 -0.1849 -0.0239
 3504TIP3    H132147   0.237   2.020   1.601 -1.2573  1.8232 -0.6833
 3504TIP3    H232148   0.299   1.924   1.502  1.4977  1.6396  1.1301
 3505TIP3   OH232149   6.602   1.626   1.422 -0.4129  0.1059  0.2812
 3505TIP3    H132150   6.631   1.717   1.417  0.6986 -0.1779  1.1660
 3505TIP3    H232151   6.652   1.589   1.495  1.3359 -1.9700 -1.7983
 3506TIP3   OH232152   4.070   5.844   0.930 -0.1721 -0.1600  0.0086
 3506TIP3    H132153   4.122   5.921   0.906 -0.5310  0.4051  0.9995
 3506TIP3    H232154   4.124   5.797   0.993 -0.1164 -0.5208 -0.3063
 3507TIP3   OH232155   5.295   4.260   2.184  0.8802  0.1324  0.1747
 3507TIP3    H132156   5.241   4.183   2.166  0.4801  0.4837 -0.1679
 3507TIP3    H232157   5.352   4.234   2.256 -0.1545 -0.0580  0.9428
 3508TIP3   OH232158   4.562   6.698   1.108  0.1512  0.3904  0.2038
 3508TIP3    H132159   4.532   6.608   1.095  1.1920  0.0585 -0.0019
 3508TIP3    H232160   4.501   6.750   1.056 -0.2502 -0.2254  0.0351
 3509TIP3   OH232161   3.718   1.237   1.573  0.2528 -0.3261  0.2767
 3509TIP3    H132162   3.782   1.244   1.643  0.4701 -1.0333  0.1569
 3509TIP3    H232163   3.645   1.189   1.612  0.0444 -0.0465  0.2380
 3510TIP3   OH232164   1.982   2.064   8.112 -0.0474  0.2065  0.2025
 3510TIP3    H132165   1.923   2.018   8.053 -2.2133  0.6693  1.8687
 3510TIP3    H232166   2.045   1.997   8.140  0.0257 -0.4048 -1.3190
 3511TIP3   OH232167   4.207   1.558   8.407 -0.2706  0.0644  0.0214
 3511TIP3    H132168   4.270   1.524   8.343  0.2690  1.0434 -0.0004
 3511TIP3    H232169   4.205   1.652   8.389 -2.4068 -0.0398 -0.5392
 3512TIP3   OH232170   3.951   0.753   2.004 -0.1703  0.0097  0.4189
 3512TIP3    H132171   4.044   0.757   2.030 -0.2288  1.4067  0.5220
 3512TIP3    H232172   3.938   0.832   1.951 -0.5663 -1.7483 -2.2768
 3513TIP3   OH232173   5.695   5.318   0.393 -0.3084  0.3949  0.1626
 3513TIP3    H132174   5.683   5.397   0.341  2.5566  0.4028 -0.6629
 3513TIP3    H232175   5.689   5.247   0.330 -0.1179  0.1543  0.4163
 3514TIP3   OH232176   5.872   3.367   1.351  0.1684  0.3246  0.3925
 3514TIP3    H132177   5.846   3.309   1.279  0.0565  0.8287  0.0212
 3514TIP3    H232178   5.954   3.331   1.383  1.8998  1.8321 -2.0224
 3515TIP3   OH232179   4.782   4.830   6.547 -0.4510 -0.3584 -0.6610
 3515TIP3    H132180   4.747   4.912   6.512  0.4590  0.1904 -0.3233
 3515TIP3    H232181   4.816   4.784   6.471  0.6175  0.3821 -0.6581
 3516TIP3   OH232182   5.379   4.912   0.752 -0.3340 -0.2035  0.8616
 3516TIP3    H132183   5.418   4.999   0.743 -0.3224  0.0315  2.9069
 3516TIP3    H232184   5.401   4.884   0.840 -2.5700 -1.1690  1.1848
 3517TIP3   OH232185   4.343   0.976   0.414 -0.2670 -0.3419 -0.2259
 3517TIP3    H132186   4.283   0.933   0.353  0.3190 -0.0512 -1.0221
 3517TIP3    H232187   4.390   1.040   0.361  0.1425  0.0334  0.5666
 3518TIP3   OH232188   2.126   6.685   2.168  0.0459 -0.2636 -0.0224
 3518TIP3    H132189   2.128   6.742   2.092  1.6591 -1.0052 -0.5754
 3518TIP3    H232190   2.034   6.684   2.195 -0.0050  2.8676  0.2595
 3519TIP3   OH232191   2.847   4.386   0.439 -0.2463 -0.1035 -0.5602
 3519TIP3    H132192   2.907   4.458   0.458  1.8555 -1.7249 -0.7027
 3519TIP3    H232193   2.848   4.378   0.344 -1.9619  0.8232 -0.6994
 3520TIP3   OH232194   1.391   4.389   8.284 -0.4485  0.0355  0.9311
 3520TIP3    H132195   1.321   4.324   8.276  0.4229 -0.9074  0.7569
 3520TIP3    H232196   1.405   4.396   8.379  0.7160 -1.4557  0.9035
 3521TIP3   OH232197   3.687   2.365   8.678 -0.1672 -0.2670 -0.3279
 3521TIP3    H132198   3.604   2.319   8.668 -1.5847  1.8363  1.0712
 3521TIP3    H232199   3.728   2.324   8.754  0.6623 -2.0410 -1.6654
 3522TIP3   OH232200   0.190   2.988   8.470 -0.1531 -0.2964  0.6310
 3522TIP3    H132201   0.153   2.938   8.543 -1.3139 -0.1287  0.1680
 3522TIP3    H232202   0.155   3.076   8.482 -0.2049 -0.2270 -0.0327
 3523TIP3   OH232203   5.018   5.982   6.787  0.4219 -0.1242  0.3433
 3523TIP3    H132204   5.006   5.968   6.693  1.6654 -0.1916  0.1761
 3523TIP3    H232205   5.089   6.046   6.793 -0.2079  0.5205  1.2356
 3524TIP3   OH232206   5.218   4.633   1.613  0.0834 -0.1978 -0.4489
 3524TIP3    H132207   5.275   4.659   1.541  0.4901 -0.5474 -0.2535
 3524TIP3    H232208   5.172   4.556   1.581  0.8689 -0.8465 -0.0396
 3525TIP3   OH232209   1.835   4.277   8.638 -0.0586 -0.1345  0.0579
 3525TIP3    H132210   1.853   4.242   8.725 -0.8704  0.4683  0.4829
 3525TIP3    H232211   1.916   4.320   8.612 -0.2233  0.8556  1.0995
 3526TIP3   OH232212   0.948   1.614   7.110 -0.9862  0.4061  0.4685
 3526TIP3    H132213   1.000   1.586   7.035 -0.9194 -1.4550  1.1514
 3526TIP3    H232214   0.881   1.672   7.073 -0.6017  0.0045 -0.9187
 3527TIP3   OH232215   3.079   6.143   0.523  0.0718  0.4523 -0.2269
 3527TIP3    H132216   3.056   6.051   0.527 -0.9361  0.7261  0.7162
 3527TIP3    H232217   3.002   6.185   0.484  0.3629  0.9499 -0.2744
 3528TIP3   OH232218   5.640   2.291   0.915 -0.0050 -0.2445  0.5565
 3528TIP3    H132219   5.695   2.328   0.845  1.4813 -1.1984  1.1693
 3528TIP3    H232220   5.589   2.365   0.947  1.1207  0.7486  0.1335
 3529TIP3   OH232221   0.300   2.142   8.118 -0.2653 -0.5006  0.4259
 3529TIP3    H132222   0.272   2.122   8.028  0.1978  0.3804  0.0710
 3529TIP3    H232223   0.219   2.168   8.162 -0.2292  0.9843 -0.3025
 3530TIP3   OH232224   0.493   6.466   7.678  0.2929  0.1384 -0.0741
 3530TIP3    H132225   0.462   6.507   7.597  0.8750  0.9497  0.0929
 3530TIP3    H232226   0.414   6.451   7.730  0.0746  1.4488  0.0201
 3531TIP3   OH232227   2.384   5.614   6.604 -0.5348 -0.3398 -0.5716
 3531TIP3    H132228   2.402   5.566   6.685  1.9351 -0.5194 -1.1326
 3531TIP3    H232229   2.386   5.706   6.630  0.2478 -0.3956 -0.4177
 3532TIP3   OH232230   5.895   6.784   8.331  0.5136 -0.0377 -0.3910
 3532TIP3    H132231   5.980   6.789   8.287  0.4823  0.9966 -0.3596
 3532TIP3    H232232   5.860   6.698   8.308  0.9692  0.0678 -1.4996
 3533TIP3   OH232233   2.557   1.989   0.825  0.1285  0.1570 -0.2382
 3533TIP3    H132234   2.630   2.028   0.777  0.4492  2.5142  1.9387
 3533TIP3    H232235   2.502   2.063   0.851 -0.2583 -0.9681  2.5861
 3534TIP3   OH232236   3.957   5.319   7.590  0.8816  0.4425  0.3469
 3534TIP3    H132237   4.041   5.303   7.632  0.4797 -0.2701  0.9244
 3534TIP3    H232238   3.893   5.298   7.659  0.2309  0.3867 -0.2692
 3535TIP3   OH232239   1.574   4.713   0.416  0.2223 -0.0527 -0.5157
 3535TIP3    H132240   1.508   4.648   0.437  1.6162 -1.3457 -0.0068
 3535TIP3    H232241   1.561   4.730   0.322  0.3391 -1.6648 -0.8523
 3536TIP3   OH232242   3.448   5.068   1.357  0.2365 -0.0027  0.0535
 3536TIP3    H132243   3.462   5.084   1.264  0.8893 -1.6169 -0.1464
 3536TIP3    H232244   3.495   4.987   1.375 -1.3792 -0.6897  1.4066
 3537TIP3   OH232245   3.557   0.874   8.243 -0.5881 -0.7924  0.3125
 3537TIP3    H132246   3.482   0.920   8.206 -0.3056 -0.3226  0.3118
 3537TIP3    H232247   3.591   0.821   8.171 -0.1207  0.0160 -0.0752
 3538TIP3   OH232248   3.947   5.969   8.915 -0.1735 -0.8028 -0.1114
 3538TIP3    H132249   3.975   5.897   8.971 -1.2681 -2.0744 -1.1298
 3538TIP3    H232250   4.024   5.989   8.862  0.4498 -0.5054  0.8724
 3539TIP3   OH232251   4.899   4.245   1.949  0.0861 -0.0280 -0.0693
 3539TIP3    H132252   4.904   4.185   2.024  0.2651  0.8404  0.6313
 3539TIP3    H232253   4.932   4.194   1.875  1.1819 -0.4884  0.7086
 3540TIP3   OH232254   5.151   6.018   0.977 -0.0365 -0.0004  0.0708
 3540TIP3    H132255   5.178   6.041   1.065  0.9118 -0.3029 -0.1325
 3540TIP3    H232256   5.090   6.087   0.952  0.5233  0.6765  0.5554
 3541TIP3   OH232257   1.605   4.027   0.396  0.5026  0.3894 -0.1038
 3541TIP3    H132258   1.518   4.068   0.398  0.6692  0.7563 -0.2391
 3541TIP3    H232259   1.662   4.091   0.438  0.5172 -0.3267  1.0136
 3542TIP3   OH232260   2.912   2.082   6.973  0.2537 -0.1271  0.8910
 3542TIP3    H132261   2.984   2.099   6.912  0.9253 -0.7802  1.4754
 3542TIP3    H232262   2.851   2.028   6.924  1.7295 -2.3528  1.3464
 3543TIP3   OH232263   5.658   6.338   1.017 -0.6092 -0.4716 -0.0185
 3543TIP3    H132264   5.716   6.270   0.983 -0.2928  1.0147 -2.6960
 3543TIP3    H232265   5.578   6.291   1.041 -0.3655 -1.8115 -1.6667
 3544TIP3   OH232266   2.805   6.212   7.633 -0.3545  0.3202 -0.1342
 3544TIP3    H132267   2.879   6.184   7.686 -0.5482  1.2290  0.6587
 3544TIP3    H232268   2.745   6.138   7.633 -1.0431  0.7814  2.2408
 3545TIP3   OH232269   3.902   2.724   8.240 -0.1808 -0.0053 -0.6313
 3545TIP3    H132270   3.918   2.756   8.151  1.4242  1.0940  0.0091
 3545TIP3    H232271   3.951   2.642   8.245 -0.4319 -0.1687 -0.8108
 3546TIP3   OH232272   0.696   4.995   1.159  0.1502  0.8818  0.2080
 3546TIP3    H132273   0.605   5.014   1.137 -0.2269 -0.8855  0.0782
 3546TIP3    H232274   0.708   4.904   1.133  0.9048 -0.0807  3.4086
 3547TIP3   OH232275   0.277   4.192   7.099 -0.3687 -0.1416  0.0704
 3547TIP3    H132276   0.210   4.241   7.147  0.7490  1.0250  0.4904
 3547TIP3    H232277   0.249   4.101   7.105 -1.5147  0.2449  0.8920
 3548TIP3   OH232278   3.147   2.549   7.372  0.6713  0.2382  0.0581
 3548TIP3    H132279   3.184   2.572   7.287  0.2166 -1.2441 -0.5617
 3548TIP3    H232280   3.202   2.477   7.403  0.9184  0.8526  1.0921
 3549TIP3   OH232281   0.875   6.232   7.232  0.4367  0.0007 -0.4012
 3549TIP3    H132282   0.849   6.298   7.168 -0.5794 -0.3064 -0.3172
 3549TIP3    H232283   0.839   6.262   7.315  3.6330  1.5677  0.5717
 3550TIP3   OH232284   5.967   6.459   7.387  0.0064  0.3152  0.1981
 3550TIP3    H132285   5.955   6.534   7.329 -0.8387 -0.2361 -0.3705
 3550TIP3    H232286   6.022   6.399   7.337  0.5272  0.4797  0.5759
 3551TIP3   OH232287   1.761   1.488   8.384 -0.0537 -0.4048  0.3786
 3551TIP3    H132288   1.839   1.521   8.338 -0.5576 -0.0048 -0.2146
 3551TIP3    H232289   1.688   1.515   8.328 -0.5359 -2.1115  0.1112
 3552TIP3   OH232290   1.626   4.183   8.829  0.1069 -0.2195  0.2749
 3552TIP3    H132291   1.615   4.263   8.777 -0.9156  0.6024  1.6542
 3552TIP3    H232292   1.720   4.178   8.846  0.5164 -0.7317 -1.9160
 3553TIP3   OH232293   0.402   4.790   8.703  0.2199  0.2594 -0.4887
 3553TIP3    H132294   0.386   4.875   8.663 -1.2197  0.4954  0.5097
 3553TIP3    H232295   0.467   4.748   8.646  1.3848  2.2183 -0.7034
 3554TIP3   OH232296   4.126   3.689   1.072  0.0496 -0.1199 -0.1923
 3554TIP3    H132297   4.072   3.614   1.098  0.5617 -0.5462 -0.3421
 3554TIP3    H232298   4.205   3.650   1.035  0.6548  0.4959  0.4231
 3555TIP3   OH232299   5.858   4.235   8.066 -0.0731  0.1183 -0.8631
 3555TIP3    H132300   5.804   4.263   8.139 -0.3579 -0.1312 -0.9757
 3555TIP3    H232301   5.818   4.275   7.989  1.7881  2.6430 -0.6291
 3556TIP3   OH232302   3.498   5.545   1.355 -0.0296  0.8873 -0.0753
 3556TIP3    H132303   3.524   5.480   1.421  0.0036 -1.3278 -2.1497
 3556TIP3    H232304   3.411   5.574   1.384 -0.5053 -0.8776  0.3649
 3557TIP3   OH232305   5.607   4.361   1.343 -0.1224  0.5549 -0.4212
 3557TIP3    H132306   5.653   4.277   1.350 -0.2808  0.5193  0.2396
 3557TIP3    H232307   5.633   4.409   1.421 -2.2360  0.0185  0.6881
 3558TIP3   OH232308   1.603   6.429   0.463 -0.1069  0.5840  0.2204
 3558TIP3    H132309   1.560   6.346   0.486  0.4551  0.4605  0.8622
 3558TIP3    H232310   1.531   6.492   0.455 -0.4617  0.2427  0.6680
 3559TIP3   OH232311   1.328   3.770   1.119  0.3177  0.1175  0.0964
 3559TIP3    H132312   1.423   3.762   1.131  0.4232 -1.4341 -1.5014
 3559TIP3    H232313   1.291   3.699   1.172  0.1187  0.1078 -0.0535
 3560TIP3   OH232314   1.268   3.492   1.749  0.4739  0.5170 -0.2736
 3560TIP3    H132315   1.297   3.539   1.827  0.1145 -1.2127  0.9802
 3560TIP3    H232316   1.200   3.547   1.711 -0.6376  0.6208  1.6984
 3561TIP3   OH232317   5.630   6.023   8.698  0.0728 -0.0315 -0.1964
 3561TIP3    H132318   5.722   6.021   8.669 -0.1314 -3.7305 -1.0705
 3561TIP3    H232319   5.580   6.026   8.616 -0.5593 -0.5339  0.1714
 3562TIP3   OH232320   1.949   4.546   1.021  0.1753  0.5964  0.2041
 3562TIP3    H132321   2.026   4.489   1.008 -0.1770  0.0484  0.4825
 3562TIP3    H232322   1.962   4.617   0.958  1.5937  1.2395  1.1745
 3563TIP3   OH232323   6.571   2.178   2.143  0.4300 -0.4773  0.5479
 3563TIP3    H132324   6.629   2.176   2.067 -0.2005 -0.0780  0.0420
 3563TIP3    H232325   6.626   2.150   2.216  1.8704  1.8882  0.4985
 3564TIP3   OH232326   3.306   6.434   8.716 -0.1601 -0.2348  0.4926
 3564TIP3    H132327   3.293   6.408   8.808 -1.6003 -0.0775  0.3640
 3564TIP3    H232328   3.220   6.421   8.676  0.3052  0.2625 -0.6971
 3565TIP3   OH232329   1.127   1.463   0.773  0.2689 -0.0632  0.1760
 3565TIP3    H132330   1.161   1.536   0.721  0.6093 -1.1083 -1.1066
 3565TIP3    H232331   1.032   1.476   0.773  0.1962 -0.4082 -1.3040
 3566TIP3   OH232332   3.763   1.046   0.117 -0.9068  0.5408 -0.2851
 3566TIP3    H132333   3.788   1.127   0.073  1.4674  0.6390  1.1033
 3566TIP3    H232334   3.747   1.072   0.208 -4.8961  0.2006 -0.6815
 3567TIP3   OH232335   3.660   2.344   7.363  0.1657 -0.2006 -0.0873
 3567TIP3    H132336   3.743   2.304   7.388 -0.0008 -0.4454  0.0845
 3567TIP3    H232337   3.657   2.426   7.413 -0.6024 -1.1385  1.4913
 3568TIP3   OH232338   5.697   2.093   8.685  0.5476 -0.2938  0.0808
 3568TIP3    H132339   5.687   2.008   8.641 -0.7162  0.9399 -2.1939
 3568TIP3    H232340   5.710   2.155   8.614  0.7563  1.5309  1.6448
 3569TIP3   OH232341   4.576   6.407   0.657  0.2296  0.4576  0.2159
 3569TIP3    H132342   4.495   6.358   0.672  0.4483  0.1355  0.3699
 3569TIP3    H232343   4.639   6.340   0.629 -0.2160  1.0453 -2.4423
 3570TIP3   OH232344   2.857   5.638   1.042 -0.0247  0.2512  0.3544
 3570TIP3    H132345   2.945   5.662   1.013  0.2520  0.5506  1.3959
 3570TIP3    H232346   2.804   5.715   1.021  0.4991  1.1263  2.0373
 3571TIP3   OH232347   5.677   6.559   8.582 -0.3158  0.5791 -0.2800
 3571TIP3    H132348   5.615   6.630   8.567  1.5582  2.1773 -0.8319
 3571TIP3    H232349   5.755   6.602   8.616  0.7226 -1.2894 -0.1711
 3572TIP3   OH232350   6.126   4.491   1.005  0.2820  0.0880 -0.1490
 3572TIP3    H132351   6.215   4.511   0.977  0.3178 -0.1673 -0.2198
 3572TIP3    H232352   6.076   4.570   0.984  0.1295 -0.3819 -1.7067
 3573TIP3   OH232353   0.581   2.173   7.066  0.1323  1.0299 -0.4731
 3573TIP3    H132354   0.573   2.085   7.030 -0.1876  0.4334  0.9719
 3573TIP3    H232355   0.662   2.208   7.029 -0.3328  0.5807 -1.9545
 3574TIP3   OH232356   5.017   0.943   1.302 -0.0238 -0.1472 -0.4855
 3574TIP3    H132357   5.093   1.000   1.308  1.6645 -2.2114 -1.1578
 3574TIP3    H232358   4.955   0.991   1.247  0.4495  1.8658  0.6398
 3575TIP3   OH232359   3.305   2.106   0.073  0.1796 -0.4577  0.4153
 3575TIP3    H132360   3.327   2.127  -0.018  0.3115 -1.6271  0.1607
 3575TIP3    H232361   3.219   2.145   0.086  1.6909  3.0810  1.0277
 3576TIP3   OH232362   0.487   6.144   7.444  0.1949  0.1048 -0.2533
 3576TIP3    H132363   0.423   6.078   7.419 -1.6445  1.9599 -0.7306
 3576TIP3    H232364   0.439   6.202   7.504  1.6471  1.1594 -0.0570
 3577TIP3   OH232365   1.057   3.170   7.690 -0.3941  0.2012  0.4469
 3577TIP3    H132366   0.992   3.162   7.621 -0.8573 -1.5026  1.0228
 3577TIP3    H232367   1.018   3.229   7.754 -0.3232  1.1009 -0.3218
 3578TIP3   OH232368   3.518   4.463   8.084 -0.5228 -0.0295  0.1251
 3578TIP3    H132369   3.520   4.543   8.031 -0.3227 -0.5139 -0.6307
 3578TIP3    H232370   3.439   4.417   8.055  1.1014 -1.7377 -2.0319
 3579TIP3   OH232371   6.654   2.975   0.990 -0.0736 -0.5678 -0.2145
 3579TIP3    H132372   6.662   2.920   0.912 -0.3080 -0.0585 -0.6047
 3579TIP3    H232373   6.727   3.036   0.985 -0.0977 -0.5227 -0.0423
 3580TIP3   OH232374   2.279   2.999   8.510  0.7707 -0.0142 -0.5001
 3580TIP3    H132375   2.204   3.002   8.450  0.4360 -1.7943 -0.2252
 3580TIP3    H232376   2.240   3.001   8.597  0.8454 -2.4260 -0.3223
 3581TIP3   OH232377   0.055   1.221   2.435 -0.1949  0.2069 -0.1579
 3581TIP3    H132378   0.112   1.281   2.387  0.3260 -1.6076 -1.9331
 3581TIP3    H232379   0.080   1.233   2.527  1.4732  1.0838 -0.6839
 3582TIP3   OH232380   0.696   1.548   1.236  0.3414 -0.6036 -0.4571
 3582TIP3    H132381   0.698   1.461   1.276  2.7543 -0.5254 -0.2315
 3582TIP3    H232382   0.709   1.532   1.143  0.0742 -0.5144 -0.5102
 3583TIP3   OH232383   0.421   5.716   0.331  0.2035  0.2106  0.5144
 3583TIP3    H132384   0.358   5.786   0.317  0.4768  0.5660  1.0518
 3583TIP3    H232385   0.397   5.649   0.266 -0.7897  0.2903  0.7883
 3584TIP3   OH232386   3.276   5.459   7.168  1.2270 -0.2427 -0.3721
 3584TIP3    H132387   3.326   5.406   7.230  1.2827 -1.3523 -1.3417
 3584TIP3    H232388   3.204   5.496   7.221  1.7496 -0.4844  0.5274
 3585TIP3   OH232389   6.478   3.221   1.879  0.5290  0.5413 -0.0999
 3585TIP3    H132390   6.569   3.205   1.904  0.0279 -1.7956  0.5282
 3585TIP3    H232391   6.430   3.224   1.962 -0.1466  0.2955 -0.4684
 3586TIP3   OH232392   2.640   6.041   0.647  0.8274 -0.4122  0.5848
 3586TIP3    H132393   2.610   6.120   0.602 -0.1366 -0.0943  1.7382
 3586TIP3    H232394   2.651   6.068   0.739  3.5538 -0.8075  0.4813
 3587TIP3   OH232395   6.139   3.507   6.575  1.3028  0.1721  0.2065
 3587TIP3    H132396   6.065   3.528   6.632  2.8225  3.7589  1.1255
 3587TIP3    H232397   6.116   3.546   6.491  1.3554 -0.4503 -0.1046
 3588TIP3   OH232398   5.043   3.811   0.277 -0.7216  0.2916  0.6624
 3588TIP3    H132399   5.038   3.763   0.195  3.1917 -2.4293  1.6941
 3588TIP3    H232400   5.090   3.892   0.255 -0.4088 -0.0496  0.0474
 3589TIP3   OH232401   6.518   4.272   8.358 -0.0820  0.2021 -0.1604
 3589TIP3    H132402   6.531   4.319   8.275 -0.8869 -0.3492 -0.6102
 3589TIP3    H232403   6.439   4.310   8.395  0.3147  0.4955  0.4027
 3590TIP3   OH232404   6.299   3.403   0.229 -0.0884 -0.2138 -0.4519
 3590TIP3    H132405   6.242   3.446   0.164 -0.0280 -0.7133 -0.8401
 3590TIP3    H232406   6.323   3.473   0.289  0.7042  0.5023 -1.5616
 3591TIP3   OH232407   5.632   5.356   8.872  0.1474  0.3962 -0.5461
 3591TIP3    H132408   5.645   5.398   8.787  2.9333  0.1721 -0.3147
 3591TIP3    H232409   5.600   5.268   8.852  2.4497 -0.2796 -1.5324
 3592TIP3   OH232410   4.637   0.624   6.986 -0.3328  0.6280  0.4689
 3592TIP3    H132411   4.613   0.536   6.954  0.2742  0.0209  1.6185
 3592TIP3    H232412   4.557   0.675   6.976  0.1646  0.9637 -3.4403
 3593TIP3   OH232413   0.356   4.556   0.367  0.2642 -0.0721  0.4676
 3593TIP3    H132414   0.300   4.621   0.325  1.3404  2.0234  2.0624
 3593TIP3    H232415   0.306   4.526   0.443 -0.5537 -1.7913 -0.6884
 3594TIP3   OH232416   3.441   6.055   0.266  0.3616 -0.2132  0.1975
 3594TIP3    H132417   3.466   5.972   0.307  0.3008 -0.0605  0.5499
 3594TIP3    H232418   3.384   6.030   0.193  0.0836 -0.4665  0.4970
 3595TIP3   OH232419   0.928   1.448   8.559 -0.5994  0.2817  0.4486
 3595TIP3    H132420   0.865   1.453   8.487  1.5699  0.6808 -1.5466
 3595TIP3    H232421   0.985   1.375   8.537  1.4703  1.7736  0.5370
 3596TIP3   OH232422   3.754   3.761   2.174  0.4137  0.1498 -0.9200
 3596TIP3    H132423   3.828   3.804   2.131  0.5014  1.3263  0.3520
 3596TIP3    H232424   3.740   3.810   2.255 -0.2961 -1.4550 -0.0021
 3597TIP3   OH232425   5.731   4.973   7.770  0.4421 -0.2803  0.5078
 3597TIP3    H132426   5.665   5.042   7.782 -0.8286 -1.5020  0.7871
 3597TIP3    H232427   5.753   4.945   7.859  0.2899 -0.8478  0.3657
 3598TIP3   OH232428   0.455   1.246   8.520 -0.2336 -0.0843 -0.0403
 3598TIP3    H132429   0.370   1.289   8.528  1.3661  3.6097 -0.3992
 3598TIP3    H232430   0.500   1.295   8.451  2.0764 -2.1145 -0.1105
 3599TIP3   OH232431   0.420   2.061   7.634 -0.3793  0.2835  0.6754
 3599TIP3    H132432   0.413   2.118   7.557 -1.4267 -0.1385  0.4416
 3599TIP3    H232433   0.343   2.083   7.686 -0.1580 -0.0899  1.1592
 3600TIP3   OH232434   6.049   4.552   7.973 -0.0268 -0.6183  0.0323
 3600TIP3    H132435   6.080   4.575   7.885  0.7066  1.2172  0.7220
 3600TIP3    H232436   5.953   4.555   7.966  0.0038 -1.3043 -0.8813
 3601TIP3   OH232437   2.696   0.742   6.375 -0.2024  0.3485 -0.4843
 3601TIP3    H132438   2.646   0.799   6.316 -0.4973  0.3758 -0.2098
 3601TIP3    H232439   2.638   0.667   6.389  0.7575 -0.7414 -2.0158
 3602TIP3   OH232440   2.070   1.983   0.229 -0.1209 -0.4442  0.0475
 3602TIP3    H132441   2.031   1.922   0.167 -1.0614 -0.8077  0.9751
 3602TIP3    H232442   2.161   1.954   0.237 -0.2438 -0.9774 -0.4230
 3603TIP3   OH232443   5.240   3.699   0.465 -0.2758 -0.0780 -0.0439
 3603TIP3    H132444   5.316   3.748   0.436  0.0690 -0.6374 -0.0874
 3603TIP3    H232445   5.170   3.725   0.405 -0.6968  2.0207  1.2139
 3604TIP3   OH232446   2.949   4.223   8.308  0.6508 -0.4131  0.7821
 3604TIP3    H132447   3.026   4.264   8.348 -1.2852  2.5240  1.8689
 3604TIP3    H232448   2.912   4.291   8.252 -1.3692 -1.5823  0.5905
 3605TIP3   OH232449   1.131   3.775   7.937 -0.1562  0.3493 -0.7482
 3605TIP3    H132450   1.193   3.787   7.865 -0.0125 -1.0354 -0.8733
 3605TIP3    H232451   1.091   3.690   7.920  1.6571 -1.2200  2.0998
 3606TIP3   OH232452   4.165   4.567   6.659 -0.0203  0.3418  0.1070
 3606TIP3    H132453   4.146   4.637   6.596  0.4858 -0.5210 -1.0387
 3606TIP3    H232454   4.186   4.613   6.740 -0.2575  1.4992 -0.4653
 3607TIP3   OH232455   2.441   1.780   1.561  0.0171  0.3534 -0.4663
 3607TIP3    H132456   2.443   1.706   1.501 -0.0354 -0.4307  0.4715
 3607TIP3    H232457   2.351   1.812   1.557 -0.8249 -1.5749  1.3789
 3608TIP3   OH232458   0.376   3.811   0.749  0.0946 -0.0433 -0.5183
 3608TIP3    H132459   0.340   3.833   0.834  1.0656 -0.1753 -0.0500
 3608TIP3    H232460   0.365   3.890   0.696  1.2250  0.7175  0.3415
 3609TIP3   OH232461   0.468   6.496   0.579 -0.0056  0.7293  0.2996
 3609TIP3    H132462   0.411   6.437   0.628 -1.3031  1.4361 -0.2964
 3609TIP3    H232463   0.513   6.547   0.646 -1.0781  1.0669  0.7927
 3610TIP3   OH232464   3.589   3.124   0.787 -0.0551 -0.0020  0.1509
 3610TIP3    H132465   3.518   3.099   0.846 -0.4820 -2.4250 -1.2510
 3610TIP3    H232466   3.668   3.087   0.826  0.1298  0.8006  0.5739
 3611TIP3   OH232467   4.526   4.949   7.502  0.5279 -0.1307 -0.1310
 3611TIP3    H132468   4.446   4.923   7.549 -0.6103  0.9875 -1.3408
 3611TIP3    H232469   4.588   4.878   7.518 -0.7601 -1.1057  0.7339
 3612TIP3   OH232470   0.369   0.616   1.081 -0.5493  0.6523 -0.4238
 3612TIP3    H132471   0.356   0.711   1.072  0.9348  0.9549  0.3612
 3612TIP3    H232472   0.317   0.592   1.157  1.6318  1.4959  1.4682
 3613TIP3   OH232473   6.302   0.519   1.874 -0.0503  0.2126  0.8241
 3613TIP3    H132474   6.237   0.571   1.827  2.1151  1.6037 -0.8479
 3613TIP3    H232475   6.329   0.452   1.811  1.2341  0.6697  0.8380
 3614TIP3   OH232476   1.360   0.306   0.613  0.4171  0.2452 -0.0249
 3614TIP3    H132477   1.440   0.344   0.649  1.1075 -0.5319 -0.6937
 3614TIP3    H232478   1.302   0.296   0.688  0.2069  2.5591  0.1979
 3615TIP3   OH232479   3.553   2.420   6.733 -0.3495  0.5381  0.1877
 3615TIP3    H132480   3.588   2.361   6.667  0.4557  0.3933  0.7232
 3615TIP3    H232481   3.627   2.478   6.754 -0.4212  0.2428  1.3272
 3616TIP3   OH232482   2.090   0.527   8.337 -0.5719 -0.1070  0.4866
 3616TIP3    H132483   2.001   0.520   8.373 -0.3038 -2.7080  0.9088
 3616TIP3    H232484   2.078   0.520   8.242 -0.8046 -1.2412  0.5847
 3617TIP3   OH232485   0.256   3.615   0.574 -0.3232 -0.3626 -0.6803
 3617TIP3    H132486   0.288   3.689   0.627 -2.3569  0.2682 -0.2626
 3617TIP3    H232487   0.314   3.542   0.599  1.0217  0.7885 -0.2710
 3618TIP3   OH232488   4.228   5.386   0.517  0.3064 -0.3319 -0.2607
 3618TIP3    H132489   4.135   5.362   0.514 -0.2381  1.5876  0.1227
 3618TIP3    H232490   4.237   5.458   0.455  1.9843 -1.6966 -1.7270
 3619TIP3   OH232491   5.615   4.271   7.293 -0.3784  0.0702 -0.0642
 3619TIP3    H132492   5.566   4.334   7.241  1.5923  1.2684 -0.5971
 3619TIP3    H232493   5.680   4.324   7.340  0.1127 -1.3641  0.9504
 3620TIP3   OH232494   3.146   5.834   8.162  0.0241 -1.0030 -0.1140
 3620TIP3    H132495   3.207   5.903   8.186 -2.0375  1.2867 -0.9879
 3620TIP3    H232496   3.194   5.779   8.100  1.2166  0.6682 -0.7281
 3621TIP3   OH232497   4.858   2.020   7.715  0.1431 -0.0761  0.3819
 3621TIP3    H132498   4.938   2.015   7.662  0.2349  1.0019  0.3956
 3621TIP3    H232499   4.787   2.023   7.651  0.2116  0.5039  0.3267
 3622TIP3   OH232500   6.516   0.645   1.185  0.3152 -0.7603  0.5161
 3622TIP3    H132501   6.596   0.615   1.228 -0.1342  0.5361  2.3809
 3622TIP3    H232502   6.545   0.722   1.134  0.5126 -1.2029 -0.0525
 3623TIP3   OH232503   6.181   4.323   1.511 -0.2338 -0.1901  0.5117
 3623TIP3    H132504   6.265   4.328   1.465 -0.0462 -1.2204  0.6974
 3623TIP3    H232505   6.199   4.359   1.598 -0.2534  0.5379  0.2203
 3624TIP3   OH232506   4.549   5.851   6.922 -0.7560  0.1156 -0.0186
 3624TIP3    H132507   4.608   5.813   6.857  0.8010  0.5348  1.0901
 3624TIP3    H232508   4.597   5.925   6.957 -1.7500  0.1642  1.3031
 3625TIP3   OH232509   5.162   3.951   0.926 -0.0742  0.0335 -0.2095
 3625TIP3    H132510   5.133   4.016   0.862 -2.1067  0.5061  1.0897
 3625TIP3    H232511   5.187   3.875   0.874 -4.0999 -0.5981 -1.5928
 3626TIP3   OH232512   3.610   5.869   1.115 -0.6867 -0.4903  0.5150
 3626TIP3    H132513   3.682   5.851   1.055 -0.6537 -1.2043  0.7592
 3626TIP3    H232514   3.552   5.794   1.107 -0.7084 -0.5778  1.3313
 3627TIP3   OH232515   1.513   1.236   8.190  0.4055  0.0835  0.5015
 3627TIP3    H132516   1.456   1.313   8.195 -0.3107 -0.4040  0.0388
 3627TIP3    H232517   1.596   1.270   8.157  0.2394  0.7323  0.7343
 3628TIP3   OH232518   5.809   4.216   1.111  0.0142 -0.3470 -0.7421
 3628TIP3    H132519   5.735   4.167   1.076 -0.1661 -1.5788  1.1762
 3628TIP3    H232520   5.879   4.151   1.120  0.3802  0.1470  0.1317
 3629TIP3   OH232521   0.449   4.013   6.967  0.1888  0.3568  0.3424
 3629TIP3    H132522   0.430   4.106   6.969  0.9125  0.7733 -3.7162
 3629TIP3    H232523   0.372   3.973   6.927  0.2937 -0.6332  1.0937
 3630TIP3   OH232524   3.575   3.545   8.581  0.3767 -0.4887  0.4561
 3630TIP3    H132525   3.622   3.507   8.507  0.1494  1.7554 -0.9710
 3630TIP3    H232526   3.486   3.559   8.547 -0.0558 -0.5145  1.5583
 3631TIP3   OH232527   6.019   1.987   0.876  0.4299 -0.3583  0.3663
 3631TIP3    H132528   6.080   1.977   0.949  1.5510 -1.2384 -0.6626
 3631TIP3    H232529   5.938   2.018   0.917  1.1860 -0.3303  1.9084
 3632TIP3   OH232530   4.991   0.761   0.164 -0.3415  0.3159  0.7107
 3632TIP3    H132531   5.069   0.789   0.116  0.5577  1.3690  2.6914
 3632TIP3    H232532   4.979   0.669   0.139  0.1110  0.7845 -1.4299
 3633TIP3   OH232533   0.202   0.665   1.284 -0.1752  0.0034  0.1528
 3633TIP3    H132534   0.118   0.627   1.312 -0.9646  1.4265 -0.1430
 3633TIP3    H232535   0.238   0.705   1.363  0.2800 -0.6646  0.2945
 3634TIP3   OH232536   3.104   0.176   6.597 -0.0707 -0.1794 -0.5355
 3634TIP3    H132537   3.060   0.243   6.545 -0.0986 -1.0863 -1.7094
 3634TIP3    H232538   3.055   0.174   6.680 -3.9934 -2.8035 -2.5746
 3635TIP3   OH232539   5.970   5.849   1.263  0.0849 -0.8026  0.1055
 3635TIP3    H132540   5.936   5.895   1.340  0.0382  0.3564 -0.5832
 3635TIP3    H232541   5.891   5.824   1.213  0.1062  1.7334 -1.4035
 3636TIP3   OH232542   1.151   0.954   8.353  0.3366 -0.3307  0.3585
 3636TIP3    H132543   1.146   0.883   8.417  1.2811 -1.2461 -0.5389
 3636TIP3    H232544   1.195   1.026   8.399  0.5240 -0.7859  0.8927
 3637TIP3   OH232545   4.334   4.139   0.077  0.3213  0.6250 -0.0086
 3637TIP3    H132546   4.334   4.231   0.050  2.1820  0.5573 -0.3946
 3637TIP3    H232547   4.372   4.092   0.003 -1.8472 -0.6857 -0.3607
 3638TIP3   OH232548   2.092   4.780   7.294  0.0207  0.0779 -0.1506
 3638TIP3    H132549   2.130   4.747   7.376  0.1798  0.4327 -0.0808
 3638TIP3    H232550   2.154   4.755   7.226  0.2158  0.3628 -0.0788
 3639TIP3   OH232551   5.190   3.225   8.506  0.1247  0.2356 -0.1744
 3639TIP3    H132552   5.264   3.255   8.559 -0.3535 -2.6187  2.4049
 3639TIP3    H232553   5.227   3.162   8.445  0.2322  1.1496 -1.0624
 3640TIP3   OH232554   3.158   1.953   8.799 -0.2728 -0.1576 -0.5644
 3640TIP3    H132555   3.199   1.870   8.773 -0.6473 -0.4689 -0.1763
 3640TIP3    H232556   3.195   1.972   8.885  0.7651  0.7370 -1.1904
 3641TIP3   OH232557   3.322   6.022   8.264 -0.3422  0.3716 -0.3980
 3641TIP3    H132558   3.370   5.959   8.318 -0.7981  0.8306  0.5687
 3641TIP3    H232559   3.387   6.056   8.203 -0.0105 -0.7759 -0.7222
 3642TIP3   OH232560   4.406   2.176   6.572  0.1546  0.4948 -0.1195
 3642TIP3    H132561   4.426   2.169   6.479  1.8960 -1.2687  0.3260
 3642TIP3    H232562   4.370   2.091   6.596  0.3099  0.7062  0.9273
 3643TIP3   OH232563   1.894   5.322   8.233 -0.5263 -0.0901  0.3030
 3643TIP3    H132564   1.853   5.328   8.319 -1.1432 -0.8581  0.0764
 3643TIP3    H232565   1.986   5.342   8.248 -0.8645  1.0921  0.9188
 3644TIP3   OH232566   1.388   5.495   1.478 -0.0720  0.1554  0.0897
 3644TIP3    H132567   1.335   5.415   1.469  0.1925 -0.1489  1.0451
 3644TIP3    H232568   1.477   5.467   1.458  0.1329  0.0275  1.1023
 3645TIP3   OH232569   1.611   5.590   1.763 -0.1310 -0.5382  0.6187
 3645TIP3    H132570   1.673   5.567   1.693  0.5793  0.8676  0.7367
 3645TIP3    H232571   1.658   5.570   1.844  0.6771  1.5145  0.7362
 3646TIP3   OH232572   1.238   5.334   8.359  0.4798  0.4402 -0.0495
 3646TIP3    H132573   1.178   5.266   8.330  0.5450 -0.1364  1.1198
 3646TIP3    H232574   1.190   5.416   8.343  0.3571  0.1407 -1.3576
 3647TIP3   OH232575   3.115   4.918   8.301  0.2274 -0.0941  0.2360
 3647TIP3    H132576   3.053   4.931   8.229 -0.2120 -1.9850  0.2165
 3647TIP3    H232577   3.110   4.998   8.352 -0.2531  0.8558 -1.2354
 3648TIP3   OH232578   2.397   1.683   8.097 -0.0349  0.2532  0.1398
 3648TIP3    H132579   2.429   1.769   8.070  1.7313 -0.3044  0.3417
 3648TIP3    H232580   2.476   1.632   8.114 -1.0501 -1.2803  0.4703
 3649TIP3   OH232581   5.595   2.084   7.065  0.3043  0.2478 -0.1656
 3649TIP3    H132582   5.594   2.028   7.144 -0.3259 -0.3339 -0.5758
 3649TIP3    H232583   5.505   2.112   7.055  0.5726  1.1511 -0.1167
 3650TIP3   OH232584   2.084   1.474   0.211  0.8627 -0.0660  0.1956
 3650TIP3    H132585   2.113   1.537   0.276 -0.0920  0.4819  0.0981
 3650TIP3    H232586   2.151   1.476   0.143  1.5617 -0.2135  0.8723
 3651TIP3   OH232587   6.044   4.694   2.392  0.1204  0.3111 -0.0006
 3651TIP3    H132588   5.991   4.643   2.454  1.0598 -0.5002  0.1639
 3651TIP3    H232589   6.120   4.721   2.443  1.0947 -0.6926 -0.8682
 3652TIP3   OH232590   4.576   4.371   7.902 -0.4345 -0.0034 -0.1940
 3652TIP3    H132591   4.605   4.449   7.948  0.9561 -0.9044  0.5544
 3652TIP3    H232592   4.605   4.298   7.957 -1.0460 -1.0651 -1.2114
 3653TIP3   OH232593   4.510   3.268   7.197  0.5370 -0.3312 -0.5538
 3653TIP3    H132594   4.598   3.299   7.176 -0.5155  5.3032  1.4728
 3653TIP3    H232595   4.452   3.323   7.145 -1.8185 -1.3388  0.8189
 3654TIP3   OH232596   6.655   3.310   0.128  0.5014  0.3579 -0.3226
 3654TIP3    H132597   6.706   3.240   0.086  0.7986 -0.5239  1.3991
 3654TIP3    H232598   6.627   3.272   0.211 -2.0167  1.2241 -0.6935
 3655TIP3   OH232599   1.874   0.148   1.312 -0.2395 -0.0651  0.3323
 3655TIP3    H132600   1.950   0.162   1.368 -1.4462  1.1993  1.7098
 3655TIP3    H232601   1.875   0.221   1.251  0.2471 -0.6509 -0.3809
 3656TIP3   OH232602   2.399   4.296   1.140  0.3025 -0.4386  0.0617
 3656TIP3    H132603   2.407   4.385   1.106 -1.6213 -0.6534 -1.1451
 3656TIP3    H232604   2.320   4.297   1.194 -0.5242 -1.6598 -1.0386
 3657TIP3   OH232605   5.159   5.012   6.461 -0.1078 -0.5538  0.5280
 3657TIP3    H132606   5.163   5.044   6.371 -0.3033 -2.4189 -0.1782
 3657TIP3    H232607   5.249   4.989   6.483 -0.1011 -0.3442  0.7296
 3658TIP3   OH232608   6.210   6.234   1.745  0.2954  0.2443 -0.9746
 3658TIP3    H132609   6.252   6.320   1.733  0.6260  0.4230  1.1324
 3658TIP3    H232610   6.126   6.254   1.786  1.3286 -0.4835  1.7046
 3659TIP3   OH232611   1.092   4.443   7.786 -0.0369 -0.7707  0.1335
 3659TIP3    H132612   1.142   4.517   7.751 -1.5995  1.5503  2.4781
 3659TIP3    H232613   1.009   4.446   7.738  0.0620 -1.2779 -0.0673
 3660TIP3   OH232614   4.341   6.012   0.101  0.2352  0.2430 -0.5440
 3660TIP3    H132615   4.425   5.992   0.141  0.0951 -1.9851 -1.2632
 3660TIP3    H232616   4.349   6.103   0.072  1.5438  0.8064  1.4146
 3661TIP3   OH232617   5.511   0.861   6.919  0.2314  0.1256  0.1157
 3661TIP3    H132618   5.503   0.886   6.827 -1.3116  0.7353  0.3833
 3661TIP3    H232619   5.430   0.813   6.937  0.1073  0.7725  1.3672
 3662TIP3   OH232620   5.841   3.144   2.579 -0.2478 -0.8534  0.1527
 3662TIP3    H132621   5.906   3.079   2.604  1.4043 -0.7517 -3.1970
 3662TIP3    H232622   5.888   3.227   2.579 -2.3598  0.6219  4.5342
 3663TIP3   OH232623   4.450   1.906   1.100  0.3541  0.1617 -0.1175
 3663TIP3    H132624   4.387   1.834   1.104  1.0623 -0.5050 -0.8196
 3663TIP3    H232625   4.512   1.881   1.031  0.1784  1.7848 -0.9165
 3664TIP3   OH232626   6.130   1.827   1.935 -0.7775  0.4094 -0.9082
 3664TIP3    H132627   6.053   1.853   1.984  0.0418  1.1832  0.0135
 3664TIP3    H232628   6.181   1.908   1.926  1.5742 -0.6330  1.5428
 3665TIP3   OH232629   4.344   0.521   1.571  0.0368 -0.4226  0.2289
 3665TIP3    H132630   4.337   0.427   1.583  2.7619 -1.1241 -2.4304
 3665TIP3    H232631   4.418   0.547   1.626  0.3287 -0.1756 -0.2687
 3666TIP3   OH232632   5.351   3.599   6.654 -0.0346 -0.3785 -0.2207
 3666TIP3    H132633   5.275   3.558   6.695  0.4020 -0.4468  0.5269
 3666TIP3    H232634   5.354   3.562   6.566 -1.8426  0.8509 -0.8558
 3667TIP3   OH232635   2.154   1.827   6.504  0.0484 -0.0978  0.4132
 3667TIP3    H132636   2.219   1.793   6.566  0.0287 -1.0079 -0.0627
 3667TIP3    H232637   2.077   1.771   6.517 -0.0180 -0.1776 -0.3038
 3668TIP3   OH232638   1.484   3.349   7.228 -0.4892  0.2674 -0.2964
 3668TIP3    H132639   1.531   3.417   7.179  0.7485 -0.5222 -0.2535
 3668TIP3    H232640   1.479   3.275   7.168 -0.1254 -0.2513  0.2995
 3669TIP3   OH232641   4.352   0.291   1.291 -0.8325  0.1920 -0.7437
 3669TIP3    H132642   4.318   0.349   1.223  0.7583  0.1164 -1.6533
 3669TIP3    H232643   4.391   0.218   1.243 -1.9069 -1.1582  0.3551
 3670TIP3   OH232644   1.564   6.323   1.205 -0.4274  0.0324  0.1589
 3670TIP3    H132645   1.532   6.306   1.293 -0.8461  0.4268  0.0867
 3670TIP3    H232646   1.543   6.415   1.189  0.3635  0.1896 -0.0525
 3671TIP3   OH232647   1.870   4.611   7.298  0.1331 -0.0665  0.1890
 3671TIP3    H132648   1.895   4.537   7.354 -0.3435  0.5479  1.2435
 3671TIP3    H232649   1.941   4.674   7.307  0.7604 -0.5529 -1.0681
 3672TIP3   OH232650   3.301   3.601   0.284 -0.0770 -0.3116 -0.1294
 3672TIP3    H132651   3.395   3.600   0.271 -0.3014  0.3145 -2.0139
 3672TIP3    H232652   3.269   3.675   0.232 -1.9254 -2.4290 -2.2707
 3673TIP3   OH232653   2.619   1.536   0.131 -0.2095 -0.4345 -0.6765
 3673TIP3    H132654   2.673   1.570   0.202 -1.7615  0.9288 -0.0770
 3673TIP3    H232655   2.632   1.596   0.059 -0.2351 -0.6246 -0.8405
 3674TIP3   OH232656   3.675   2.428   2.112  0.6005  0.1214  0.0708
 3674TIP3    H132657   3.642   2.339   2.103  0.7134 -0.0006  0.8011
 3674TIP3    H232658   3.663   2.467   2.026 -0.1335 -0.3693 -0.0578
 3675TIP3   OH232659   5.414   2.226   1.115  0.0503 -0.5718 -0.1206
 3675TIP3    H132660   5.468   2.302   1.092 -1.7173  0.8368  0.1449
 3675TIP3    H232661   5.428   2.165   1.043  1.6448 -0.0786 -0.2686
 3676TIP3   OH232662   1.750   5.300   7.083 -0.1974  0.1045 -0.0739
 3676TIP3    H132663   1.801   5.311   7.003 -0.8188 -1.0345 -0.6599
 3676TIP3    H232664   1.722   5.389   7.106  0.9978  0.5850 -0.4289
 3677TIP3   OH232665   0.851   5.520   1.391 -0.1877 -0.1033  0.1383
 3677TIP3    H132666   0.792   5.591   1.415 -0.5658 -0.4548  0.2447
 3677TIP3    H232667   0.848   5.459   1.465  1.8013  0.8024  1.0389
 3678TIP3   OH232668   4.688   1.354   8.034 -0.0128 -0.0593  0.4660
 3678TIP3    H132669   4.663   1.341   8.125 -1.6616 -0.8728 -0.0628
 3678TIP3    H232670   4.669   1.270   7.991  1.9857 -0.1410 -0.3866
 3679TIP3   OH232671   4.688   0.029   7.043  0.1378 -0.4003 -0.0562
 3679TIP3    H132672   4.708  -0.037   6.978 -0.4332 -0.6897  0.0594
 3679TIP3    H232673   4.593   0.024   7.055  0.3306 -0.9313  1.4028
 3680TIP3   OH232674   2.856   6.209   0.360  0.5320 -0.0226  0.3910
 3680TIP3    H132675   2.782   6.158   0.328 -0.8700 -0.8357  4.3796
 3680TIP3    H232676   2.818   6.268   0.425  3.0805  1.3053  0.7921
 3681TIP3   OH232677   1.390   1.525   1.268  0.3059  0.7485  0.1369
 3681TIP3    H132678   1.333   1.492   1.337  0.8121 -2.4402 -0.8081
 3681TIP3    H232679   1.330   1.564   1.204 -0.6322 -0.5557  0.1852
 3682TIP3   OH232680   6.048   2.640   0.277  0.0114 -0.5894  0.1349
 3682TIP3    H132681   6.068   2.547   0.285  0.8959 -0.8645 -3.6776
 3682TIP3    H232682   6.090   2.667   0.196 -0.7151  3.0459  0.8103
 3683TIP3   OH232683   2.516   2.169   8.017  0.4450 -0.2535  0.7802
 3683TIP3    H132684   2.570   2.190   8.094 -1.5285 -1.0111  2.4551
 3683TIP3    H232685   2.496   2.255   7.979 -0.3581  0.3354  2.4306
 3684TIP3   OH232686   0.667   2.205   2.139  0.3130  0.4247 -0.3607
 3684TIP3    H132687   0.620   2.286   2.156  2.4106  1.8226 -0.8501
 3684TIP3    H232688   0.737   2.203   2.204 -1.3903 -2.5897  1.6380
 3685TIP3   OH232689   6.005   0.529   7.940  0.3922 -0.0949 -0.7691
 3685TIP3    H132690   6.003   0.467   7.867  3.0452  0.5171 -1.4741
 3685TIP3    H232691   6.024   0.613   7.899 -0.0313  0.6154  0.4559
 3686TIP3   OH232692   4.537   1.988   6.910 -0.6122 -0.1737  0.3769
 3686TIP3    H132693   4.503   2.076   6.926 -1.7469 -0.6389  0.6705
 3686TIP3    H232694   4.502   1.963   6.825  0.5873  0.0553 -0.1950
 3687TIP3   OH232695   0.845   5.430   0.147 -0.0155  0.1017 -0.7232
 3687TIP3    H132696   0.797   5.423   0.064 -0.4392 -0.5853 -0.4326
 3687TIP3    H232697   0.802   5.367   0.205 -0.7114  1.6386  0.5086
 3688TIP3   OH232698   1.456   4.136   1.589  0.3607  0.5958  0.0451
 3688TIP3    H132699   1.505   4.218   1.592  1.1132  0.3585 -2.7883
 3688TIP3    H232700   1.406   4.140   1.508  0.4262 -1.7129 -0.2016
 3689TIP3   OH232701   3.786   0.545   8.554  0.0492  0.2253 -0.0191
 3689TIP3    H132702   3.773   0.615   8.490  1.0776 -0.5322 -1.0787
 3689TIP3    H232703   3.731   0.474   8.524 -0.1883  0.1894  0.4816
 3690TIP3   OH232704   2.077   5.314   1.573 -0.2993  0.7089 -0.2311
 3690TIP3    H132705   2.076   5.219   1.560  0.2157  0.5055  1.0185
 3690TIP3    H232706   2.146   5.328   1.638 -0.3975  1.9354 -0.3750
 3691TIP3   OH232707   3.390   6.319   8.225  0.6849 -0.3194 -0.1090
 3691TIP3    H132708   3.483   6.313   8.244  1.2567  0.9325 -2.2307
 3691TIP3    H232709   3.372   6.413   8.220 -1.1923 -0.4421  2.2492
 3692TIP3   OH232710   4.951   5.046   8.538  0.0674  0.1214 -0.2593
 3692TIP3    H132711   4.934   4.970   8.594 -1.2089  1.0544  0.6810
 3692TIP3    H232712   5.046   5.049   8.529  0.1319 -1.7601 -0.5918
 3693TIP3   OH232713   4.949   5.832   0.604 -0.0414  0.2133  0.3175
 3693TIP3    H132714   4.946   5.908   0.546  0.5805 -0.7890 -1.0553
 3693TIP3    H232715   4.858   5.804   0.612  0.1153 -1.3823 -2.5679
 3694TIP3   OH232716   4.815   4.948   0.920 -0.3896 -0.3613  0.5598
 3694TIP3    H132717   4.779   4.920   1.005  0.0195 -0.9628  0.5382
 3694TIP3    H232718   4.769   4.894   0.856 -0.8672  0.2584  0.3780
 3695TIP3   OH232719   3.672   3.779   6.737  0.1401  0.0452 -0.2389
 3695TIP3    H132720   3.685   3.712   6.804 -2.5048 -1.2707 -0.9123
 3695TIP3    H232721   3.749   3.771   6.680  0.0333 -2.2759 -0.1598
 3696TIP3   OH232722   0.104   3.624   0.873  0.0247  0.1288 -0.1124
 3696TIP3    H132723   0.042   3.560   0.907  1.8267 -1.0470  1.1213
 3696TIP3    H232724   0.175   3.572   0.836  0.9586  1.4293 -0.2211
 3697TIP3   OH232725   2.323   6.476   8.360  0.6881  0.2254 -0.3885
 3697TIP3    H132726   2.232   6.483   8.389  0.3893  1.3854 -1.5186
 3697TIP3    H232727   2.334   6.384   8.336 -0.4313  0.2427 -1.0146
 3698TIP3   OH232728   3.886   6.252   8.325 -0.0532  0.3808  0.0001
 3698TIP3    H132729   3.968   6.207   8.346  0.3754  1.5871  0.9834
 3698TIP3    H232730   3.913   6.335   8.286 -0.8325  0.2945 -0.7675
 3699TIP3   OH232731   6.273   5.560   8.431 -0.0167  0.0983 -0.0473
 3699TIP3    H132732   6.280   5.525   8.520 -1.9847 -0.0610  0.0700
 3699TIP3    H232733   6.218   5.498   8.385  1.1913  0.0371 -1.4966
 3700TIP3   OH232734   0.269   2.019   6.447 -0.0211  0.0612  0.1860
 3700TIP3    H132735   0.358   2.010   6.415  0.7143  2.4156  1.4013
 3700TIP3    H232736   0.253   1.938   6.497  1.3763 -0.4222 -0.1079
 3701TIP3   OH232737   2.384   4.796   0.330  0.3160 -0.1883 -0.0880
 3701TIP3    H132738   2.305   4.847   0.314 -1.3238 -2.4058  0.4230
 3701TIP3    H232739   2.354   4.705   0.332  2.7513 -1.0592  0.9808
 3702TIP3   OH232740   3.727   5.082   0.839  0.4467  0.1297 -0.0602
 3702TIP3    H132741   3.725   5.169   0.799 -0.0524 -0.6517 -1.8382
 3702TIP3    H232742   3.814   5.047   0.817  0.6258  0.1573  0.5995
 3703TIP3   OH232743   4.182   6.295   2.488 -0.5427  0.6385 -1.1738
 3703TIP3    H132744   4.120   6.349   2.439 -2.1277 -0.9636 -1.0550
 3703TIP3    H232745   4.136   6.212   2.500  1.1837 -0.1960  0.0049
 3704TIP3   OH232746   4.487   0.712   0.987  0.1839 -0.4416  0.2596
 3704TIP3    H132747   4.487   0.733   1.081 -1.8446  0.7725  0.0571
 3704TIP3    H232748   4.463   0.619   0.984  1.7408 -0.8938  0.9614
 3705TIP3   OH232749   4.417   4.728   6.839  0.6446  0.1187 -0.9827
 3705TIP3    H132750   4.356   4.666   6.880  0.5347  1.3660  0.8807
 3705TIP3    H232751   4.490   4.673   6.811  0.3077 -0.9584  0.1145
 3706TIP3   OH232752   5.450   2.317   7.865  0.4736  0.5344  0.1381
 3706TIP3    H132753   5.530   2.286   7.823  0.4154 -0.1680  0.5223
 3706TIP3    H232754   5.407   2.237   7.897 -0.3317  0.9044  0.0276
 3707TIP3   OH232755   6.481   3.218   0.331  0.0592 -0.1539 -0.1163
 3707TIP3    H132756   6.454   3.216   0.423 -0.6423 -0.2197 -0.3185
 3707TIP3    H232757   6.419   3.278   0.290  1.2440  1.0216 -0.2785
 3708TIP3   OH232758   5.069   3.060   2.604 -0.2502 -0.5808 -0.0151
 3708TIP3    H132759   5.026   2.981   2.570 -1.5860 -0.1014  0.5202
 3708TIP3    H232760   5.117   3.030   2.681  0.7828 -1.2002 -0.8573
 3709TIP3   OH232761   2.824   4.485   2.172  0.0334 -0.0908  0.5147
 3709TIP3    H132762   2.800   4.454   2.259  0.0600 -1.1102  0.1656
 3709TIP3    H232763   2.911   4.448   2.156  0.2112  0.4375  0.2181
 3710TIP3   OH232764   5.344   0.641   7.174 -0.2314  0.5622 -0.3115
 3710TIP3    H132765   5.333   0.662   7.081 -0.4133  0.2862 -0.3530
 3710TIP3    H232766   5.331   0.725   7.219 -1.3970  0.4680 -0.4422
 3711TIP3   OH232767   4.224   5.115   0.596  0.1866  0.0879  0.9527
 3711TIP3    H132768   4.244   5.202   0.564 -0.3286 -0.4369 -0.8879
 3711TIP3    H232769   4.310   5.074   0.609  0.4854  1.1703  2.9345
 3712TIP3   OH232770   4.471   2.230   1.035 -0.4531  0.4063 -0.1365
 3712TIP3    H132771   4.452   2.323   1.027 -0.1326  0.5202  0.3735
 3712TIP3    H232772   4.426   2.203   1.115  0.1455  0.3121  0.1759
 3713TIP3   OH232773   6.061   5.641   7.155 -0.1894  0.1327  0.4589
 3713TIP3    H132774   6.082   5.669   7.244 -0.2974 -0.9859  0.8433
 3713TIP3    H232775   5.994   5.573   7.166  0.7267 -0.9330 -0.3948
 3714TIP3   OH232776   2.492   2.881   2.757 -0.0823  0.6938 -0.7301
 3714TIP3    H132777   2.407   2.899   2.716  0.7870  1.1086 -2.4586
 3714TIP3    H232778   2.495   2.785   2.764 -0.9249  0.7021 -0.0793
 3715TIP3   OH232779   6.259   5.460   8.110 -0.0531  0.8307  0.0609
 3715TIP3    H132780   6.347   5.469   8.147  0.0603  1.4839 -0.3522
 3715TIP3    H232781   6.205   5.429   8.183  0.2691  1.6380  0.6521
 3716TIP3   OH232782   2.095   5.026   0.126 -0.0991 -0.3912  0.4832
 3716TIP3    H132783   2.054   5.097   0.078 -0.3574 -0.4703  0.5829
 3716TIP3    H232784   2.143   5.069   0.197  0.6962 -0.2405 -0.1328
 3717TIP3   OH232785   6.740   4.680   8.382  0.3784 -0.2324  0.5118
 3717TIP3    H132786   6.759   4.590   8.409  0.6498 -0.8406 -1.5167
 3717TIP3    H232787   6.764   4.733   8.457  0.5852 -1.8303  1.6195
 3718TIP3   OH232788   4.195   6.795   0.125 -0.1119 -0.3332 -0.1814
 3718TIP3    H132789   4.126   6.809   0.061 -0.0258  1.0033 -0.0024
 3718TIP3    H232790   4.169   6.848   0.200  1.7244  1.2418 -0.5916
 3719TIP3   OH232791   5.709   3.702   8.856  0.3521 -0.3588  0.8427
 3719TIP3    H132792   5.790   3.701   8.804  0.8262 -0.0991  1.5583
 3719TIP3    H232793   5.654   3.635   8.816  1.0075 -0.6869  0.4740
 3720TIP3   OH232794   1.971   5.292   8.647 -0.0894  0.1081  0.5576
 3720TIP3    H132795   2.012   5.373   8.618  1.4306 -0.4096  1.1701
 3720TIP3    H232796   1.907   5.271   8.579  1.9591 -0.0372 -1.4349
 3721TIP3   OH232797   0.153   0.722   7.322  0.1361  0.1885  0.0415
 3721TIP3    H132798   0.240   0.761   7.311 -0.0303  0.3343 -0.8462
 3721TIP3    H232799   0.092   0.793   7.305 -0.2059  0.6932  2.8868
 3722TIP3   OH232800   2.686   0.725   6.850  0.1027 -0.4377  0.3370
 3722TIP3    H132801   2.630   0.650   6.869 -2.8795  1.9539  1.7923
 3722TIP3    H232802   2.696   0.725   6.755 -0.1039 -2.4361  0.2865
 3723TIP3   OH232803   3.725   4.190   0.418 -0.2154  0.1202 -0.2222
 3723TIP3    H132804   3.637   4.219   0.393 -0.7062 -1.7508 -0.8110
 3723TIP3    H232805   3.721   4.094   0.413  2.0528  0.0094 -0.9161
 3724TIP3   OH232806   1.457   5.889   7.124 -0.2289 -0.3006 -0.2156
 3724TIP3    H132807   1.466   5.912   7.216 -1.8445 -2.1342  0.4894
 3724TIP3    H232808   1.535   5.838   7.104 -0.4743 -1.0148  0.5725
 3725TIP3   OH232809   1.162   6.709   1.853  0.0443 -0.0096  0.0570
 3725TIP3    H132810   1.167   6.614   1.856 -1.8665 -0.1125  1.4482
 3725TIP3    H232811   1.144   6.736   1.943  2.3063  1.8436  0.0516
 3726TIP3   OH232812   6.468   1.098   7.590 -0.8522  0.3439  0.9427
 3726TIP3    H132813   6.436   1.088   7.500 -2.8393  0.3187  1.6120
 3726TIP3    H232814   6.476   1.192   7.602 -3.4078  0.5625  1.5957
 3727TIP3   OH232815   4.657   4.766   8.519 -0.1700 -0.3340 -0.0681
 3727TIP3    H132816   4.584   4.827   8.508  0.5112  0.4988 -0.0913
 3727TIP3    H232817   4.721   4.793   8.453 -0.2677 -1.7297 -0.7866
 3728TIP3   OH232818   0.628   1.634   0.968  0.5550 -0.2220  0.5325
 3728TIP3    H132819   0.536   1.610   0.960  1.0400 -2.1222  0.3418
 3728TIP3    H232820   0.626   1.729   0.984 -1.3205  0.3936 -2.4941
 3729TIP3   OH232821   3.216   4.113   0.668  0.3292  0.0150 -0.3528
 3729TIP3    H132822   3.239   4.200   0.699  1.8640 -0.5567  0.2122
 3729TIP3    H232823   3.121   4.116   0.657  0.2734  1.5586  0.2477
 3730TIP3   OH232824   1.612   1.965   8.688  0.3620  0.0909  0.1269
 3730TIP3    H132825   1.606   1.972   8.783  0.1524 -2.3010  0.3448
 3730TIP3    H232826   1.698   2.002   8.667  1.1261 -0.8090  1.4650
 3731TIP3   OH232827   2.331   5.170   0.231 -0.0386  0.0775  0.1903
 3731TIP3    H132828   2.299   5.245   0.180  0.6770  0.9535  0.9916
 3731TIP3    H232829   2.388   5.123   0.170  0.1256  0.6288 -0.0929
 3732TIP3   OH232830   3.115   2.350   0.333  0.1657 -0.1093  0.3909
 3732TIP3    H132831   3.054   2.321   0.265  0.1812  3.5763 -1.4666
 3732TIP3    H232832   3.200   2.349   0.289  0.7045 -0.6226  1.4212
 3733TIP3   OH232833   5.114   5.561   1.037 -0.2248  0.0674 -0.2483
 3733TIP3    H132834   5.099   5.631   0.974 -0.1159  0.9425  0.6729
 3733TIP3    H232835   5.183   5.507   0.996  1.5289  1.9134  0.0910
 3734TIP3   OH232836   5.930   6.561   1.025  0.2300 -0.0035 -0.2504
 3734TIP3    H132837   5.838   6.544   1.046 -0.8336  3.8686 -1.1131
 3734TIP3    H232838   5.960   6.479   0.985 -2.0418 -2.2356  2.2496
 3735TIP3   OH232839   6.581   5.136   1.284 -0.4432  0.2952  0.2026
 3735TIP3    H132840   6.554   5.044   1.282  0.4112  0.0313  0.5692
 3735TIP3    H232841   6.569   5.163   1.375 -2.0556  0.9859 -0.1700
 3736TIP3   OH232842   6.417   2.116   7.420  0.6463 -0.2319  0.2820
 3736TIP3    H132843   6.480   2.180   7.387  1.2423 -0.5307  0.8027
 3736TIP3    H232844   6.398   2.145   7.509 -0.9584  0.5806 -0.2904
 3737TIP3   OH232845   1.725   2.356   0.908 -0.0990  0.5595  0.6288
 3737TIP3    H132846   1.660   2.346   0.978  0.1176  2.4682  1.1873
 3737TIP3    H232847   1.675   2.383   0.832 -0.1022  0.8898  0.7436
 3738TIP3   OH232848   5.003   6.283   0.151 -0.0603 -0.2887 -0.0808
 3738TIP3    H132849   5.023   6.192   0.129  2.0392 -0.2478  1.4049
 3738TIP3    H232850   4.912   6.294   0.125 -0.3155 -2.7585 -0.4792
 3739TIP3   OH232851   3.000   5.867   0.102 -0.2048  0.0626  0.1811
 3739TIP3    H132852   2.977   5.849   0.011 -0.4105  0.5385  0.1391
 3739TIP3    H232853   2.996   5.781   0.145  1.2251 -0.4055 -0.5417
 3740TIP3   OH232854   6.717   2.053   6.785  0.0576  0.0091  0.0126
 3740TIP3    H132855   6.769   2.122   6.827 -1.4466  1.4466 -0.3886
 3740TIP3    H232856   6.696   1.992   6.856  0.0294  0.8338  0.7206
 3741TIP3   OH232857   4.761   2.799   1.363 -0.3006  0.0269  0.1125
 3741TIP3    H132858   4.718   2.870   1.316 -1.4115 -0.7671 -0.1202
 3741TIP3    H232859   4.696   2.770   1.428 -0.5771 -1.8819 -0.9277
 3742TIP3   OH232860   4.345   4.314   7.185  0.4089 -0.3407 -0.1859
 3742TIP3    H132861   4.313   4.224   7.189  2.5344 -1.1162  2.6631
 3742TIP3    H232862   4.299   4.360   7.255  1.7814 -0.1913  0.6700
 3743TIP3   OH232863   4.105   6.732   1.972 -0.6866  0.4486 -0.5267
 3743TIP3    H132864   4.019   6.697   1.996 -0.0286 -0.1632  1.1667
 3743TIP3    H232865   4.157   6.654   1.952 -0.6717  0.8511 -2.1556
 3744TIP3   OH232866   2.181   0.827   7.032 -0.1935 -0.1206 -0.0777
 3744TIP3    H132867   2.122   0.781   6.973 -1.3161 -0.0077  0.9290
 3744TIP3    H232868   2.188   0.915   6.996 -1.0541  0.0147  0.0691
 3745TIP3   OH232869   5.471   0.662   1.629 -0.7120 -0.2871  0.4943
 3745TIP3    H132870   5.554   0.708   1.622 -0.8746 -0.0990 -0.4152
 3745TIP3    H232871   5.495   0.571   1.645 -0.2449 -0.5343 -1.3200
 3746TIP3   OH232872   5.279   3.675   8.519  0.6761  0.5799 -0.0475
 3746TIP3    H132873   5.208   3.700   8.460  0.4441 -0.4925 -0.2533
 3746TIP3    H232874   5.236   3.620   8.585  1.1131  0.9077  0.5160
 3747TIP3   OH232875   3.193   3.902   7.251 -0.1522 -0.2360  0.3874
 3747TIP3    H132876   3.148   3.976   7.211 -0.2256 -0.1219  0.6757
 3747TIP3    H232877   3.222   3.935   7.336  2.9914  0.6091 -0.8934
 3748TIP3   OH232878   3.646   4.504   0.739  0.4404  0.2029  0.0214
 3748TIP3    H132879   3.720   4.551   0.778 -1.1376  2.0560  0.9513
 3748TIP3    H232880   3.571   4.529   0.793 -1.4469  0.9972 -2.7429
 3749TIP3   OH232881   0.698   4.583   7.693  0.2562 -0.4561 -0.1657
 3749TIP3    H132882   0.714   4.547   7.781  0.6172  2.1847  0.9553
 3749TIP3    H232883   0.621   4.638   7.704  0.3501 -0.0265 -1.5077
 3750TIP3   OH232884   6.692   5.003   0.067  1.1548 -0.1379 -0.5089
 3750TIP3    H132885   6.655   5.080   0.111 -0.1459 -0.1327 -1.5745
 3750TIP3    H232886   6.682   4.932   0.131  1.6700  0.3987  0.1869
 3751TIP3   OH232887   3.833   5.003   1.605 -0.2946  0.1063 -0.5232
 3751TIP3    H132888   3.916   5.042   1.632 -0.4717 -0.5145  1.0687
 3751TIP3    H232889   3.784   4.993   1.687 -1.5896 -0.3427 -1.3187
 3752TIP3   OH232890   2.920   1.971   7.601 -0.3004 -0.0065 -0.3002
 3752TIP3    H132891   2.874   2.038   7.653  1.0954  0.2958  0.6357
 3752TIP3    H232892   2.909   1.891   7.651  0.6501  0.1886  0.2479
 3753TIP3   OH232893   0.122   3.186   8.685 -0.2217 -0.6476 -0.3457
 3753TIP3    H132894   0.082   3.271   8.665 -1.7764 -1.4287 -0.6477
 3753TIP3    H232895   0.050   3.132   8.716  1.1585 -1.1420  2.2929
 3754TIP3   OH232896   5.120   1.857   1.008 -0.1837 -0.3794  0.2731
 3754TIP3    H132897   5.144   1.865   1.100 -3.0022  1.4623  0.9716
 3754TIP3    H232898   5.092   1.945   0.983  0.2045 -0.9019 -2.2991
 3755TIP3   OH232899   0.015   0.713   0.049 -0.0375  0.4806 -0.0492
 3755TIP3    H132900   0.019   0.771  -0.027  1.8534  1.9259  1.0658
 3755TIP3    H232901  -0.026   0.766   0.117  1.0896  0.2990  0.7885
 3756TIP3   OH232902   4.660   1.949   8.237 -0.1241  0.2001 -0.5033
 3756TIP3    H132903   4.586   1.915   8.186 -0.8405 -0.8448  1.1508
 3756TIP3    H232904   4.676   2.036   8.200 -1.4854  0.0247 -1.6133
 3757TIP3   OH232905   4.247   4.004   7.491  0.0944 -0.3685  0.3318
 3757TIP3    H132906   4.323   4.051   7.456  1.6913  0.0997  3.9625
 3757TIP3    H232907   4.217   4.058   7.564 -1.7016 -2.1696  1.0334
 3758TIP3   OH232908   3.436   2.341   7.650 -0.6264 -0.2937  0.5486
 3758TIP3    H132909   3.510   2.282   7.660 -0.8505 -1.3158 -2.8647
 3758TIP3    H232910   3.468   2.411   7.592 -1.4677  0.9734  1.5360
 3759TIP3   OH232911   2.361   0.984   8.236  0.0323 -0.3480  0.1508
 3759TIP3    H132912   2.310   0.903   8.237 -0.5479 -0.0370 -1.3756
 3759TIP3    H232913   2.296   1.052   8.216  0.5982  0.4288  0.8971
 3760TIP3   OH232914   0.753   0.582   7.770 -0.2651 -0.5291  0.0672
 3760TIP3    H132915   0.823   0.644   7.752 -0.8318  0.0020 -0.3468
 3760TIP3    H232916   0.693   0.591   7.696 -0.8173 -0.9061  0.4589
 3761TIP3   OH232917   1.170   6.540   7.831  0.1395 -0.2932 -0.3134
 3761TIP3    H132918   1.126   6.608   7.779 -0.8293 -1.5116 -1.1439
 3761TIP3    H232919   1.263   6.551   7.810 -0.1639 -0.2773 -1.7535
 3762TIP3   OH232920   1.856   0.252   0.311 -0.2342  0.2004  0.0534
 3762TIP3    H132921   1.899   0.314   0.253 -0.3297 -1.1159 -1.5168
 3762TIP3    H232922   1.916   0.177   0.315 -1.0384 -0.4615  0.1686
 3763TIP3   OH232923   0.683   3.393   8.860  0.0100 -0.1614  0.2693
 3763TIP3    H132924   0.683   3.345   8.943 -0.1989  0.5760  0.7074
 3763TIP3    H232925   0.610   3.357   8.811 -0.0124 -0.4362  0.5044
 3764TIP3   OH232926   0.118   6.244   1.263 -0.7653 -0.1935 -0.7349
 3764TIP3    H132927   0.048   6.305   1.289  0.8398  1.6225 -0.4655
 3764TIP3    H232928   0.123   6.253   1.167 -0.5261  0.0932 -0.6947
 3765TIP3   OH232929   0.352   0.976   0.154 -0.2774 -0.5406  0.3019
 3765TIP3    H132930   0.412   0.911   0.192  0.0854 -0.8825 -0.8134
 3765TIP3    H232931   0.409   1.037   0.108 -0.7711 -0.9423 -0.8841
 3766TIP3   OH232932   4.683   6.021   0.619 -0.2727 -0.5110  0.6439
 3766TIP3    H132933   4.757   6.069   0.581 -0.6454  0.2453  0.8601
 3766TIP3    H232934   4.609   6.044   0.563 -0.5576 -0.4239  1.0540
 3767TIP3   OH232935   1.929   4.015   0.167 -0.1660  0.2459  0.3164
 3767TIP3    H132936   1.942   4.065   0.248  0.5216 -0.8385  0.8952
 3767TIP3    H232937   1.905   3.927   0.197 -3.0219  0.5678 -0.6659
 3768TIP3   OH232938   2.953   0.641   0.615  0.5304 -0.3962 -0.4493
 3768TIP3    H132939   2.871   0.604   0.648  0.7062  0.1220  0.5776
 3768TIP3    H232940   2.926   0.714   0.560  0.3089 -0.0944  0.0591
 3769TIP3   OH232941   0.405   0.105   7.081  0.0467  0.0264 -0.1751
 3769TIP3    H132942   0.359   0.181   7.045  0.5135 -0.0078 -0.8630
 3769TIP3    H232943   0.497   0.130   7.083 -0.0019  0.1885  1.4559
 3770TIP3   OH232944   5.280   0.146   0.612  0.4532 -0.2482 -0.6292
 3770TIP3    H132945   5.311   0.128   0.524  1.3904  0.9476 -0.5700
 3770TIP3    H232946   5.331   0.088   0.668  0.2697 -0.5949 -0.8216
 3771TIP3   OH232947   3.459   3.394   7.305 -0.1518 -0.2681  0.2812
 3771TIP3    H132948   3.380   3.372   7.354 -0.0833 -2.8015 -0.5547
 3771TIP3    H232949   3.431   3.461   7.242 -0.8699  1.0388  1.9258
 3772TIP3   OH232950   6.663   1.746   0.606  0.1930 -0.1218 -0.0199
 3772TIP3    H132951   6.627   1.725   0.520  1.9721 -2.0555 -0.3486
 3772TIP3    H232952   6.611   1.693   0.667  0.8382 -1.0305 -0.2407
 3773TIP3   OH232953   3.884   4.662   7.564 -0.1256  0.1523 -0.1373
 3773TIP3    H132954   3.793   4.633   7.564 -0.6062  1.5756 -0.2331
 3773TIP3    H232955   3.898   4.700   7.477  0.3251  0.6035  0.1228
 3774TIP3   OH232956   5.576   3.301   7.638  0.2141  0.5369 -0.8124
 3774TIP3    H132957   5.660   3.348   7.642  0.4975  0.5545 -3.9624
 3774TIP3    H232958   5.510   3.370   7.640  0.2917  0.5826  0.8494
 3775TIP3   OH232959   0.428   3.132   1.456  0.5504 -0.2898 -0.2663
 3775TIP3    H132960   0.392   3.095   1.537  0.0153  0.3117 -0.2257
 3775TIP3    H232961   0.493   3.195   1.485  0.3257 -0.0405 -0.3032
 3776TIP3   OH232962   1.823   0.271   1.802 -0.6365 -0.3315  0.0032
 3776TIP3    H132963   1.728   0.268   1.794 -0.6537 -1.5860  0.5570
 3776TIP3    H232964   1.839   0.326   1.879 -1.0009 -1.9417  1.2596
 3777TIP3   OH232965   6.044   4.910   8.790  0.2078  0.8030 -0.2434
 3777TIP3    H132966   6.130   4.892   8.753  0.6479 -1.5348  1.6606
 3777TIP3    H232967   5.984   4.905   8.715  1.2496 -2.0086 -1.0136
 3778TIP3   OH232968   5.016   3.999   8.273 -0.1248  0.3245 -0.3218
 3778TIP3    H132969   4.934   4.050   8.269 -0.4790 -0.2071  0.0202
 3778TIP3    H232970   4.987   3.908   8.282  0.5066  0.3000  1.9328
 3779TIP3   OH232971   2.843   4.657   7.124  0.2821  0.4091  0.9793
 3779TIP3    H132972   2.902   4.602   7.176  1.1058 -0.0523 -0.3821
 3779TIP3    H232973   2.900   4.723   7.085 -0.2085  0.3783  0.1900
 3780TIP3   OH232974   5.795   4.875   6.844  0.1681 -0.0594 -0.4840
 3780TIP3    H132975   5.709   4.915   6.840  0.7178  1.1376 -0.9728
 3780TIP3    H232976   5.812   4.843   6.756  0.5184  0.3729 -0.5779
 3781TIP3   OH232977   1.240   0.020   6.513 -0.0212 -0.0657  0.4242
 3781TIP3    H132978   1.247   0.089   6.580 -0.4598 -1.4957  1.9990
 3781TIP3    H232979   1.312  -0.039   6.532 -0.2222 -0.5565 -0.3133
 3782TIP3   OH232980   5.042   2.418   7.367 -0.2780 -0.6896 -0.2998
 3782TIP3    H132981   5.002   2.458   7.290 -0.8263  1.4922  1.0227
 3782TIP3    H232982   5.101   2.486   7.401 -0.4448 -1.3877  1.4804
 3783TIP3   OH232983   5.797   3.285   1.792  0.1994  0.1271  0.2805
 3783TIP3    H132984   5.819   3.367   1.747 -2.2228  0.1982 -0.9391
 3783TIP3    H232985   5.823   3.216   1.731 -1.6622  0.1824 -0.6599
 3784TIP3   OH232986   0.057   4.512   1.741 -0.2528 -0.2509 -0.1155
 3784TIP3    H132987   0.046   4.506   1.836 -1.3168  1.8340 -0.0491
 3784TIP3    H232988   0.123   4.580   1.729  0.1434 -0.7626 -0.8841
 3785TIP3   OH232989   4.798   6.239   6.588  0.0620 -0.4929  0.1136
 3785TIP3    H132990   4.771   6.274   6.503  0.8325  0.0395  0.0759
 3785TIP3    H232991   4.834   6.152   6.568  2.2563  0.4728 -0.4521
 3786TIP3   OH232992   4.951   4.062   1.722  0.4163 -0.0172  0.2997
 3786TIP3    H132993   5.042   4.053   1.750  0.2155 -0.6648  0.7549
 3786TIP3    H232994   4.951   4.030   1.632  0.5295 -0.5776  0.4934
 3787TIP3   OH232995   2.742   2.281   7.447  0.5136 -0.1104  0.5628
 3787TIP3    H132996   2.827   2.237   7.452  0.8693  0.4191 -0.5676
 3787TIP3    H232997   2.738   2.316   7.358 -0.2417  1.1793  1.0809
 3788TIP3   OH232998   4.039   0.970   8.798  0.1125  0.8393 -0.0168
 3788TIP3    H132999   4.057   0.979   8.891  0.8717 -0.1434 -0.0525
 3788TIP3    H233000   3.987   0.890   8.791 -3.2449  2.8300 -0.0723
 3789TIP3   OH233001   1.203   3.837   8.304  0.1747 -0.8666 -0.3418
 3789TIP3    H133002   1.229   3.746   8.312  0.4183 -1.0120 -2.3876
 3789TIP3    H233003   1.219   3.860   8.213 -1.2150  0.8123 -0.2392
 3790TIP3   OH233004   0.160   4.445   7.587  0.5144  0.1254  0.8165
 3790TIP3    H133005   0.253   4.445   7.610  0.5683 -0.8921  0.6633
 3790TIP3    H233006   0.135   4.352   7.591 -0.0144  0.1593 -1.0986
 3791TIP3   OH233007   4.007   1.334   0.730  0.5678 -0.1747  0.6226
 3791TIP3    H133008   4.032   1.331   0.637 -2.1576  2.2367 -0.3444
 3791TIP3    H233009   4.055   1.409   0.766 -1.4799  1.5521 -0.0420
 3792TIP3   OH233010   5.056   2.707   8.908  0.2067  0.0684 -0.3625
 3792TIP3    H133011   4.991   2.710   8.978 -0.5106  0.2605 -1.0199
 3792TIP3    H233012   5.117   2.778   8.928 -0.4946  0.6944 -0.4028
 3793TIP3   OH233013   4.504   0.359   6.880  0.2484  0.1125  0.2942
 3793TIP3    H133014   4.548   0.274   6.880 -1.3070 -0.7306 -0.0224
 3793TIP3    H233015   4.415   0.340   6.907  0.0531  1.7814  0.9690
 3794TIP3   OH233016   6.506   0.308   8.844  0.1448 -0.3931  0.0096
 3794TIP3    H133017   6.497   0.228   8.896 -0.4218 -0.3612 -0.0303
 3794TIP3    H233018   6.534   0.374   8.907 -2.1266  0.0460  0.6716
 3795TIP3   OH233019   4.425   4.637   2.625  0.0680 -0.4093 -0.5994
 3795TIP3    H133020   4.404   4.557   2.674  0.4225 -0.7778 -1.0337
 3795TIP3    H233021   4.472   4.605   2.547 -1.3020  0.0890 -1.6573
 3796TIP3   OH233022   0.033   3.589   0.420  0.5107  0.3247 -0.0171
 3796TIP3    H133023  -0.023   3.642   0.476  0.9798 -0.2196  0.9889
 3796TIP3    H233024   0.122   3.606   0.453  0.6990 -0.7900  0.0747
 3797TIP3   OH233025   4.852   0.463   7.342 -0.1801  0.1413  0.0748
 3797TIP3    H133026   4.854   0.368   7.333  0.2162  0.0685  0.8343
 3797TIP3    H233027   4.873   0.496   7.255  0.9109 -0.4839  0.0797
 3798TIP3   OH233028   1.791   1.643   7.104  0.2345  0.1710 -0.1882
 3798TIP3    H133029   1.718   1.581   7.106  1.3175 -1.1774 -0.6871
 3798TIP3    H233030   1.760   1.718   7.155 -1.4252 -0.4230 -0.2524
 3799TIP3   OH233031   6.640   6.707   0.691 -0.0930 -0.5100  0.1980
 3799TIP3    H133032   6.648   6.737   0.600 -0.0718  0.0354  0.3740
 3799TIP3    H233033   6.643   6.788   0.742  0.9343 -0.8778  0.7520
 3800TIP3   OH233034   1.532   3.516   0.490  0.6928 -0.4532 -0.7677
 3800TIP3    H133035   1.619   3.494   0.523  0.4648  0.2902  0.3904
 3800TIP3    H233036   1.517   3.606   0.519 -1.2325 -1.2038  0.8181
 3801TIP3   OH233037   4.777   1.221   0.334 -0.2763  0.6650  0.1176
 3801TIP3    H133038   4.863   1.250   0.304  0.3707  0.3593  1.5749
 3801TIP3    H233039   4.761   1.274   0.413 -0.3024 -0.9690  1.2538
 3802TIP3   OH233040   0.157   5.645   1.591 -0.3713 -0.8911  0.1614
 3802TIP3    H133041   0.240   5.656   1.545  0.0701 -1.2617  0.8487
 3802TIP3    H233042   0.090   5.670   1.527  0.2597 -0.7486 -0.4513
 3803TIP3   OH233043   1.897   0.614   0.840  0.4046  0.2932 -0.2076
 3803TIP3    H133044   1.879   0.572   0.924 -0.9970  0.6565 -0.2948
 3803TIP3    H233045   1.873   0.548   0.775 -1.7955  1.1186 -0.3445
 3804TIP3   OH233046   0.794   0.962   2.244 -0.3715  0.0943  0.0163
 3804TIP3    H133047   0.869   0.908   2.268 -0.1665  0.2414 -0.2876
 3804TIP3    H233048   0.787   0.953   2.149 -0.5110  0.3733 -0.0007
 3805TIP3   OH233049   4.132   0.093   0.998  0.3535 -0.0617  0.3795
 3805TIP3    H133050   4.150   0.032   1.069 -0.1742 -0.0456  0.5314
 3805TIP3    H233051   4.114   0.038   0.922 -1.8308 -0.1718  0.9131
 3806TIP3   OH233052   5.013   1.154   0.115 -0.8730  0.4397  0.0857
 3806TIP3    H133053   4.973   1.067   0.104  1.6518 -0.8900  0.5536
 3806TIP3    H233054   4.992   1.201   0.034  0.4656 -1.8332 -1.7061
 3807TIP3   OH233055   1.348   2.313   1.333  0.3498 -0.0037  0.0312
 3807TIP3    H133056   1.394   2.255   1.393 -2.3731 -1.2414  1.0390
 3807TIP3    H233057   1.272   2.263   1.304 -2.1642  2.9587  0.9695
 3808TIP3   OH233058   0.279   6.463   7.874 -0.1068 -0.2014  0.2989
 3808TIP3    H133059   0.312   6.442   7.961 -3.1085  0.1006  1.6290
 3808TIP3    H233060   0.191   6.498   7.889 -0.6343  0.1407 -2.8490
 3809TIP3   OH233061   3.279   3.661   8.085  0.1206  0.1447 -0.5038
 3809TIP3    H133062   3.188   3.679   8.062 -0.8434 -2.8238  0.6049
 3809TIP3    H233063   3.295   3.572   8.056  2.8080  0.6665 -0.9095
 3810TIP3   OH233064   5.998   3.871   7.779 -0.0300 -0.3676 -0.0545
 3810TIP3    H133065   5.995   3.925   7.858 -1.7621 -0.6712  0.1216
 3810TIP3    H233066   5.990   3.934   7.707 -1.7390 -0.3252  0.1419
 3811TIP3   OH233067   1.765   2.739   2.656 -0.3238 -0.0150  0.1090
 3811TIP3    H133068   1.747   2.745   2.750  0.2556 -0.4540  0.2577
 3811TIP3    H233069   1.706   2.671   2.624  1.0308 -1.4806  0.5998
 3812TIP3   OH233070   4.781   0.073   0.488 -0.0949 -0.2962 -0.1923
 3812TIP3    H133071   4.777   0.167   0.503  0.0022 -0.3604  0.2619
 3812TIP3    H233072   4.855   0.044   0.541 -1.5122 -0.9698  1.4944
 3813TIP3   OH233073   0.249   2.215   2.104 -0.1480  0.6321 -1.0905
 3813TIP3    H133074   0.303   2.280   2.060  0.9270 -0.0967 -0.8985
 3813TIP3    H233075   0.195   2.265   2.165  0.6909  1.3480 -0.9159
 3814TIP3   OH233076   1.121   5.574   7.343  0.4497 -0.2199  0.1445
 3814TIP3    H133077   1.165   5.630   7.279  0.5545 -1.0262 -0.5153
 3814TIP3    H233078   1.029   5.577   7.317  0.5715 -1.0087 -0.4297
 3815TIP3   OH233079   0.182   2.069   0.663 -0.1001  0.6529 -0.0072
 3815TIP3    H133080   0.228   2.119   0.595 -1.9825  3.9669  0.8988
 3815TIP3    H233081   0.224   2.096   0.745  0.0067 -0.7532  0.4324
 3816TIP3   OH233082   5.533   1.455   8.078  0.2357 -0.1226 -0.4976
 3816TIP3    H133083   5.541   1.436   8.171  1.7683  0.6395 -0.4528
 3816TIP3    H233084   5.473   1.388   8.045  0.5452 -1.0834  0.8270
 3817TIP3   OH233085   0.005   6.358   0.687 -0.1373  0.2498 -0.3789
 3817TIP3    H133086   0.029   6.438   0.732 -0.2126 -0.5173  1.0814
 3817TIP3    H233087  -0.072   6.380   0.635 -1.9715  0.4569  2.2601
 3818TIP3   OH233088   3.519   0.382   7.313 -0.2066  0.6087  0.7071
 3818TIP3    H133089   3.426   0.399   7.326 -0.9884 -1.3860 -1.4788
 3818TIP3    H233090   3.547   0.447   7.249 -0.9357 -0.5817 -0.9071
 3819TIP3   OH233091   0.551   2.690   0.877 -0.5866 -0.2801 -0.1366
 3819TIP3    H133092   0.578   2.726   0.962  1.2872 -1.7206 -0.0522
 3819TIP3    H233093   0.508   2.762   0.833  0.5596  1.2405  1.1087
 3820TIP3   OH233094   4.299   0.242   7.950 -0.6419 -0.2563 -0.6164
 3820TIP3    H133095   4.390   0.242   7.921 -0.5627 -0.1235 -0.3776
 3820TIP3    H233096   4.304   0.270   8.042 -1.1345  2.1700 -1.2671
 3821TIP3   OH233097   3.399   4.230   0.900  0.1865  0.2188  0.6127
 3821TIP3    H133098   3.343   4.288   0.847 -0.6640  0.6889  1.9805
 3821TIP3    H233099   3.429   4.285   0.972  0.4011 -0.7163  1.2449
 3822TIP3   OH233100   4.064   4.682   1.965  0.4351 -0.3753  0.1086
 3822TIP3    H133101   3.988   4.715   1.918  1.1875  0.4572 -0.5621
 3822TIP3    H233102   4.108   4.761   1.998  2.3635 -0.6069 -1.6708
 3823TIP3   OH233103   6.243   6.589   8.440 -0.5691 -0.5916 -0.0126
 3823TIP3    H133104   6.286   6.668   8.473 -0.7970 -1.5098  2.7265
 3823TIP3    H233105   6.294   6.517   8.478 -0.9799 -1.7947 -1.6198
 3824TIP3   OH233106   5.798   4.904   0.308 -0.5546  0.0917 -0.1113
 3824TIP3    H133107   5.850   4.955   0.370 -1.2568  0.8126 -0.0877
 3824TIP3    H233108   5.739   4.852   0.363 -0.9914  0.5301 -0.1486
 3825TIP3   OH233109   3.938   3.484   7.380  0.2518 -0.1108  0.3602
 3825TIP3    H133110   3.887   3.543   7.436  1.4360  2.3373 -0.9604
 3825TIP3    H233111   3.917   3.396   7.411 -0.9764  1.0275  3.0071
 3826TIP3   OH233112   2.115   4.078   1.017 -0.2149  0.0438 -0.7363
 3826TIP3    H133113   2.208   4.053   1.015  0.3477  1.9711 -0.7012
 3826TIP3    H233114   2.080   4.033   1.093  0.7794 -0.4194 -0.5283
 3827TIP3   OH233115   0.152   4.543   0.572 -0.0358  0.2473  0.1825
 3827TIP3    H133116   0.068   4.577   0.601 -0.3714 -0.7627  0.4475
 3827TIP3    H233117   0.193   4.615   0.524 -0.4144  1.2389  1.3096
 3828TIP3   OH233118   4.946   5.225   1.387  0.2373  0.7300  0.3347
 3828TIP3    H133119   4.854   5.244   1.403 -0.5441 -2.7580  0.7844
 3828TIP3    H233120   4.980   5.194   1.471  1.0027 -0.6846 -0.4469
 3829TIP3   OH233121   4.246   5.987   6.461 -0.5381  0.5218  0.5791
 3829TIP3    H133122   4.247   6.056   6.395  2.2869  0.9572  0.9566
 3829TIP3    H233123   4.187   6.020   6.529 -0.3397  1.9236  0.1110
 3830TIP3   OH233124   0.935   4.713   7.367 -0.1813  0.0306 -0.1509
 3830TIP3    H133125   0.864   4.735   7.307 -0.0223  1.9968  0.3121
 3830TIP3    H233126   1.014   4.719   7.314  0.0008  2.1754  0.2402
 3831TIP3   OH233127   4.945   3.956   0.604 -0.0398 -0.1219  0.7651
 3831TIP3    H133128   4.961   4.035   0.657 -1.2330  1.6718 -1.3893
 3831TIP3    H233129   5.015   3.958   0.538  1.5575 -2.4440  2.2538
 3832TIP3   OH233130   5.738   1.731   7.370  0.1996  0.1378  0.0664
 3832TIP3    H133131   5.656   1.689   7.344 -0.1844  0.6709  0.3814
 3832TIP3    H233132   5.796   1.659   7.393 -0.3989 -0.2285  0.4601
 3833TIP3   OH233133   1.093   3.062   8.856 -0.1982 -0.0052  0.1993
 3833TIP3    H133134   1.044   3.108   8.924  0.0278 -1.0185  1.0837
 3833TIP3    H233135   1.179   3.046   8.895 -1.1534 -3.7596  1.1771
 3834TIP3   OH233136   1.888   1.363   0.021 -0.2045  0.2606 -0.0258
 3834TIP3    H133137   1.814   1.423   0.013  0.4818  1.0437 -0.6768
 3834TIP3    H233138   1.950   1.408   0.077 -0.4119 -0.6110  0.9291
 3835TIP3   OH233139   4.427   6.260   7.296  0.7499  0.6015 -0.3684
 3835TIP3    H133140   4.497   6.237   7.235  0.1543  0.6786 -1.0997
 3835TIP3    H233141   4.379   6.330   7.252 -0.1713  0.1171 -0.1724
 3836TIP3   OH233142   0.278   0.234   8.806  0.3200 -0.2602  0.3543
 3836TIP3    H133143   0.184   0.216   8.802  0.4683 -1.6206  2.0334
 3836TIP3    H233144   0.318   0.167   8.751  0.4219 -0.9134  1.2094
 3837TIP3   OH233145   3.171   5.422   0.815 -0.1193 -0.0806  1.1461
 3837TIP3    H133146   3.135   5.334   0.809 -0.8901  0.2932 -0.0474
 3837TIP3    H233147   3.166   5.443   0.908 -5.2267  0.7695  1.0067
 3838TIP3   OH233148   3.548   6.245   0.066  0.4019 -0.5722 -0.2893
 3838TIP3    H133149   3.535   6.228   0.160 -1.1444  1.6816  0.0087
 3838TIP3    H233150   3.641   6.264   0.057  0.5616 -0.7852  0.8026
 3839TIP3   OH233151   1.100   2.348   7.010 -0.0021 -0.3068 -0.1853
 3839TIP3    H133152   1.094   2.440   7.035 -1.1393  0.3122 -2.4637
 3839TIP3    H233153   1.194   2.328   7.015  0.5830  1.6660 -1.7083
 3840TIP3   OH233154   6.427   5.610   7.267 -0.4150 -0.1798  0.1639
 3840TIP3    H133155   6.475   5.678   7.315  2.7272 -1.4768 -0.8256
 3840TIP3    H233156   6.338   5.613   7.303 -0.7505  4.9149 -0.4292
 3841TIP3   OH233157   6.215   1.760   8.771  0.4661 -0.1682 -0.0026
 3841TIP3    H133158   6.288   1.773   8.831 -0.3109 -1.3569  1.2545
 3841TIP3    H233159   6.239   1.809   8.693  1.4602  1.5423  1.3058
 3842TIP3   OH233160   6.026   1.780   7.879 -0.4729  0.0544  0.4292
 3842TIP3    H133161   5.953   1.780   7.942 -2.1050 -1.7105 -1.2970
 3842TIP3    H233162   6.076   1.702   7.901 -1.0524 -0.5727 -0.4069
 3843TIP3   OH233163   5.326   5.939   0.238 -0.5964 -0.0179 -0.8326
 3843TIP3    H133164   5.402   5.995   0.232 -2.3051  2.4326 -1.1235
 3843TIP3    H233165   5.278   5.954   0.156 -1.1796 -1.8432 -0.8680
 3844TIP3   OH233166   2.222   5.739   7.508  0.0173 -0.4480  0.0922
 3844TIP3    H133167   2.146   5.715   7.455  0.8222  0.9412 -1.7947
 3844TIP3    H233168   2.184   5.780   7.587 -1.2011 -0.6925 -0.3436
 3845TIP3   OH233169   6.708   4.746   7.786 -0.3094 -0.0008  0.0907
 3845TIP3    H133170   6.626   4.708   7.755 -1.2427  1.6316  0.4839
 3845TIP3    H233171   6.685   4.835   7.813  1.2206 -0.1240  1.9631
 3846TIP3   OH233172   0.610   3.183   0.496  0.2346  0.1562 -0.4079
 3846TIP3    H133173   0.623   3.228   0.580 -2.4194 -0.8917  0.6826
 3846TIP3    H233174   0.585   3.253   0.435  0.5981  0.7265  0.0924
 3847TIP3   OH233175   3.152   2.943   1.814  0.5091  0.2555  0.3131
 3847TIP3    H133176   3.140   2.861   1.862  0.1140 -0.3986 -0.8713
 3847TIP3    H233177   3.235   2.978   1.847  0.2765 -0.1927  1.4193
 3848TIP3   OH233178   6.044   3.238   6.736 -0.2852  0.3501 -0.4773
 3848TIP3    H133179   5.966   3.278   6.773  0.6407  1.3067  0.5096
 3848TIP3    H233180   6.025   3.144   6.735 -1.1441  0.5034  0.4620
 3849TIP3   OH233181   0.111   4.480   0.143 -0.1511  0.4020  0.3075
 3849TIP3    H133182   0.197   4.492   0.103 -0.6810  0.6367 -0.7828
 3849TIP3    H233183   0.095   4.386   0.138 -0.2970  0.4507 -0.2267
 3850TIP3   OH233184   6.062   3.251   0.048 -0.3233  0.3076 -0.0077
 3850TIP3    H133185   6.115   3.303  -0.012 -1.0952  2.7717  1.3288
 3850TIP3    H233186   5.984   3.228  -0.003 -0.2612  1.0317 -0.4445
 3851TIP3   OH233187   3.846   2.135   7.261 -0.0589 -0.0628  0.0274
 3851TIP3    H133188   3.877   2.169   7.345 -2.6079  1.9727  0.2800
 3851TIP3    H233189   3.903   2.176   7.196  0.9588 -0.4306  0.6694
 3852TIP3   OH233190   4.866   3.418   0.107  0.3460 -0.6252 -0.2589
 3852TIP3    H133191   4.807   3.369   0.164  1.1433  0.1160  1.2641
 3852TIP3    H233192   4.813   3.440   0.030 -0.9365 -1.1479  0.4519
 3853TIP3   OH233193   0.020   5.404   8.755 -0.8647 -0.0891 -0.0987
 3853TIP3    H133194   0.073   5.341   8.706 -2.0275 -0.2123 -1.2787
 3853TIP3    H233195  -0.054   5.352   8.787 -0.4689  0.1461  1.2341
 3854TIP3   OH233196   4.548   3.800   0.847 -0.0961 -0.0820  0.3195
 3854TIP3    H133197   4.534   3.818   0.754  2.3153  0.2272 -0.0398
 3854TIP3    H233198   4.600   3.720   0.848 -0.2573 -0.1857  1.4132
 3855TIP3   OH233199   5.202   0.928   0.639  0.0396 -0.5218 -0.1316
 3855TIP3    H133200   5.268   0.859   0.634 -0.1141 -0.7072  0.3109
 3855TIP3    H233201   5.122   0.888   0.606 -0.0882 -0.6131  0.2739
 3856TIP3   OH233202   3.597   3.477   1.857 -0.6759 -0.2101 -0.3825
 3856TIP3    H133203   3.580   3.392   1.897 -0.4740  0.0086  0.1751
 3856TIP3    H233204   3.550   3.475   1.774  1.3182 -1.8394 -1.5796
 3857TIP3   OH233205   1.920   0.603   1.596 -0.2014 -0.4286  0.4826
 3857TIP3    H133206   1.906   0.612   1.691  0.0038 -2.1229  0.7019
 3857TIP3    H233207   1.945   0.512   1.584  0.0948 -0.1576 -1.1874
 3858TIP3   OH233208   4.420   4.542   8.342  0.1397 -1.0823 -0.1006
 3858TIP3    H133209   4.465   4.467   8.305 -1.3028 -2.4645  0.8259
 3858TIP3    H233210   4.357   4.505   8.404 -0.1151  0.9321  0.9429
 3859TIP3   OH233211   5.569   4.561   2.371 -0.1227  0.2554  0.3104
 3859TIP3    H133212   5.661   4.563   2.397  0.0277 -2.0232  0.1814
 3859TIP3    H233213   5.570   4.561   2.276 -0.3331  1.2187  0.2949
 3860TIP3   OH233214   5.961   4.181   7.268 -0.6781  0.4271  0.6489
 3860TIP3    H133215   5.926   4.191   7.179  1.2489 -1.3658 -0.4011
 3860TIP3    H233216   6.032   4.245   7.273  1.6306 -1.8509 -0.5481
 3861TIP3   OH233217   4.252   3.332   1.082  0.0430  0.3390 -0.0009
 3861TIP3    H133218   4.257   3.403   1.145 -0.3773  0.1913  0.2012
 3861TIP3    H233219   4.210   3.260   1.129 -1.8174  0.7586 -0.9295
 3862TIP3   OH233220   2.728   1.380   8.540 -0.1980 -0.1490  0.1119
 3862TIP3    H133221   2.793   1.421   8.483  0.0087  0.1876  0.5856
 3862TIP3    H233222   2.764   1.294   8.561 -0.6277 -0.5917 -0.8784
 3863TIP3   OH233223   5.905   3.526   1.656 -0.4642  0.5932 -0.2873
 3863TIP3    H133224   5.971   3.595   1.665 -2.2005  2.1374  1.6063
 3863TIP3    H233225   5.821   3.572   1.658 -1.6675 -1.4593 -0.5460
 3864TIP3   OH233226   6.309   4.094   7.790  0.4869 -0.0105 -0.3420
 3864TIP3    H133227   6.312   4.012   7.839 -1.2371 -0.7718 -1.4305
 3864TIP3    H233228   6.220   4.126   7.802  1.0756  1.6305 -0.0986
 3865TIP3   OH233229   6.536   3.168   7.100  0.7736 -0.5462 -0.2169
 3865TIP3    H133230   6.517   3.087   7.149  1.3136 -1.2465 -1.1452
 3865TIP3    H233231   6.526   3.238   7.165  0.8834 -1.4084  0.7498
 3866TIP3   OH233232   2.640   2.831   8.438  0.5126 -0.3442  0.2702
 3866TIP3    H133233   2.546   2.847   8.438  0.1860 -2.0126 -0.6097
 3866TIP3    H233234   2.672   2.871   8.519 -0.7599  1.1637  0.0678
 3867TIP3   OH233235   3.074   0.016   1.239 -0.1955 -0.0363  0.2342
 3867TIP3    H133236   3.059  -0.014   1.149  1.5294  2.2573 -0.9135
 3867TIP3    H233237   3.156  -0.027   1.265  1.2010  1.9132 -0.6769
 3868TIP3   OH233238   2.827   3.545   8.676  0.1620 -0.0961 -0.2513
 3868TIP3    H133239   2.866   3.531   8.589  0.4835 -1.3204  0.0707
 3868TIP3    H233240   2.736   3.567   8.658  0.4785  0.6768 -0.9388
 3869TIP3   OH233241   2.808   6.205   2.643  0.9210  0.1002 -0.7437
 3869TIP3    H133242   2.721   6.217   2.606  1.2191  1.0331 -1.1657
 3869TIP3    H233243   2.846   6.133   2.593  0.6558  0.1637 -1.0386
 3870TIP3   OH233244   2.744   4.194   0.655  0.1282 -0.5031  0.2215
 3870TIP3    H133245   2.821   4.197   0.712  0.1673 -1.2073  0.2111
 3870TIP3    H233246   2.780   4.208   0.567 -0.0034  1.1932  0.4126
 3871TIP3   OH233247   2.377   5.881   1.850  0.0178 -0.0629 -0.1265
 3871TIP3    H133248   2.281   5.879   1.848 -0.0080 -2.6117  0.3192
 3871TIP3    H233249   2.400   5.945   1.782 -1.9650  1.9236  0.9351
 3872TIP3   OH233250   0.290   4.815   6.817 -0.2558 -0.0814  0.3225
 3872TIP3    H133251   0.364   4.877   6.817 -0.9742  0.8143  1.0603
 3872TIP3    H233252   0.324   4.738   6.862  0.4875 -0.0031 -0.0874
 3873TIP3   OH233253   2.340   0.257   1.266  0.2055 -0.1608  0.2360
 3873TIP3    H133254   2.403   0.185   1.257 -0.1544 -0.3143 -1.5831
 3873TIP3    H233255   2.393   0.335   1.281  0.8827 -0.2904 -1.2613
 3874TIP3   OH233256   0.870   1.869   0.523  0.2014 -0.0996 -0.1082
 3874TIP3    H133257   0.790   1.838   0.565  0.7848 -0.4914  0.7500
 3874TIP3    H233258   0.888   1.953   0.564 -0.4128  0.5694 -1.1685
 3875TIP3   OH233259   5.163   1.764   6.971 -0.2987  0.0243 -0.2107
 3875TIP3    H133260   5.136   1.852   6.942 -0.8790 -0.4878 -1.2916
 3875TIP3    H233261   5.161   1.711   6.891 -2.3489 -1.5638  0.8142
 3876TIP3   OH233262   1.339   2.275   8.195 -0.4208  0.1045  0.0393
 3876TIP3    H133263   1.293   2.266   8.112 -0.0192 -0.5520 -0.1188
 3876TIP3    H233264   1.272   2.302   8.257 -0.6607  0.9158 -0.5581
 3877TIP3   OH233265   4.267   3.655   7.680 -0.2336  0.3341 -0.7357
 3877TIP3    H133266   4.232   3.688   7.597 -0.5124 -0.7625 -1.0658
 3877TIP3    H233267   4.355   3.625   7.658  0.4169  1.7511 -0.2146
 3878TIP3   OH233268   6.764   0.636   7.981  0.3942  0.0999 -0.5091
 3878TIP3    H133269   6.732   0.590   8.059 -2.2778  0.7415 -1.1418
 3878TIP3    H233270   6.837   0.582   7.950 -1.2948 -2.6481 -0.0440
 3879TIP3   OH233271   5.106   0.235   1.599 -0.3396  0.2038  0.0288
 3879TIP3    H133272   5.074   0.298   1.534  0.9229 -1.7937 -2.7581
 3879TIP3    H233273   5.189   0.272   1.629 -0.4516  0.7047 -0.2574
 3880TIP3   OH233274   2.875   2.784   1.200  0.1650  0.1064 -0.5839
 3880TIP3    H133275   2.944   2.730   1.163  0.9928 -1.0648  2.3798
 3880TIP3    H233276   2.902   2.874   1.183  2.2936 -0.3344  0.1828
 3881TIP3   OH233277   0.677   3.753   0.861  0.3212 -0.2055  0.1353
 3881TIP3    H133278   0.594   3.764   0.907  0.3163 -0.5591  0.2141
 3881TIP3    H233279   0.743   3.756   0.931  0.2844 -1.1727  0.2246
 3882TIP3   OH233280   5.979   2.536   2.109 -0.7917  0.0036  0.1746
 3882TIP3    H133281   6.005   2.453   2.067 -1.8172 -0.0618 -0.3628
 3882TIP3    H233282   6.061   2.584   2.118 -0.0599 -1.3379  1.1283
 3883TIP3   OH233283   4.664   1.358   8.663  0.2211  0.0922 -0.1609
 3883TIP3    H133284   4.672   1.305   8.742  1.2533 -0.3766 -0.5615
 3883TIP3    H233285   4.596   1.422   8.683  0.0466 -0.4125  0.8821
 3884TIP3   OH233286   1.697   5.862   8.037  0.2730  0.3515 -0.0808
 3884TIP3    H133287   1.607   5.885   8.017  0.4050  1.6002  0.6511
 3884TIP3    H233288   1.717   5.789   7.978 -0.5623  1.3856 -1.7140
 3885TIP3   OH233289   4.163   4.672   8.487  0.7606  0.1900  0.0207
 3885TIP3    H133290   4.198   4.637   8.569  0.1763 -0.9041 -0.1763
 3885TIP3    H233291   4.172   4.599   8.425  0.9339  0.9073 -0.8179
 3886TIP3   OH233292   5.813   1.601   0.553 -0.2819  0.5511  0.6983
 3886TIP3    H133293   5.731   1.559   0.529 -0.1400 -0.8233  2.4532
 3886TIP3    H233294   5.786   1.679   0.601 -0.5521  0.4781  0.6678
 3887TIP3   OH233295   2.561   3.921   7.874  0.1471  0.3700  0.2408
 3887TIP3    H133296   2.480   3.951   7.832 -0.3244 -0.7983  0.2644
 3887TIP3    H233297   2.613   3.885   7.802 -0.7811 -1.8938  0.6093
 3888TIP3   OH233298   3.043   0.748   1.376 -0.4508 -0.1457 -0.2232
 3888TIP3    H133299   2.971   0.733   1.437  0.3607  0.9741  1.0709
 3888TIP3    H233300   3.117   0.771   1.431  0.8128 -0.8801 -1.5495
 3889TIP3   OH233301   1.378   0.415   7.482 -0.5093 -0.6746 -0.8944
 3889TIP3    H133302   1.436   0.352   7.526  1.2314  1.7031  0.4176
 3889TIP3    H233303   1.353   0.476   7.551 -0.8740  0.9737 -2.4381
 3890TIP3   OH233304   1.245   1.585   8.916  0.2485 -0.2695 -0.5331
 3890TIP3    H133305   1.196   1.513   8.955 -1.4612  0.8345 -0.5164
 3890TIP3    H233306   1.209   1.664   8.958  0.1837  0.7622 -2.4269
 3891TIP3   OH233307   1.007   0.073   8.257 -0.5880  0.1530  0.6594
 3891TIP3    H133308   1.047   0.104   8.339  1.0548  0.0263 -0.0543
 3891TIP3    H233309   1.024  -0.021   8.257 -0.5047  0.1685  0.1337
 3892TIP3   OH233310   0.774   4.964   7.991 -0.2474 -0.3432  0.6284
 3892TIP3    H133311   0.859   4.989   7.956 -0.5299 -0.8325 -0.4367
 3892TIP3    H233312   0.710   5.007   7.935 -0.7136 -2.1386 -0.2794
 3893TIP3   OH233313   5.619   0.218   6.304 -0.2913 -0.1649  0.2370
 3893TIP3    H133314   5.639   0.150   6.368  0.0980 -0.8821 -0.6278
 3893TIP3    H233315   5.551   0.271   6.345 -0.1140 -0.6679  1.1954
 3894TIP3   OH233316   6.395   1.113   2.268  0.5720 -0.3786 -0.2154
 3894TIP3    H133317   6.440   1.184   2.315  0.2069 -0.2561 -0.0514
 3894TIP3    H233318   6.434   1.033   2.303 -0.9135 -0.3595  1.5734
 3895TIP3   OH233319   4.014   5.071   7.136 -0.4790 -0.4996  0.0781
 3895TIP3    H133320   3.981   5.092   7.223  0.3172  0.2673  0.2132
 3895TIP3    H233321   3.937   5.041   7.087 -1.0673 -0.2278  0.8287
 3896TIP3   OH233322   3.568   0.568   7.076 -0.4751  0.0214  0.1227
 3896TIP3    H133323   3.590   0.656   7.105  1.2259 -0.3689  0.0861
 3896TIP3    H233324   3.640   0.543   7.019 -0.8385 -1.4712  0.2864
 3897TIP3   OH233325   4.640   0.701   1.527  0.2944  0.0457  0.6283
 3897TIP3    H133326   4.722   0.747   1.547  0.9620 -1.2035  0.8915
 3897TIP3    H233327   4.636   0.631   1.592 -0.5868 -0.3903  0.1126
 3898TIP3   OH233328   2.547   2.532   0.965  0.5594 -0.2994  0.0570
 3898TIP3    H133329   2.464   2.563   1.001  1.8048  0.3853  2.5337
 3898TIP3    H233330   2.588   2.610   0.928  0.0999 -0.6568 -1.2660
 3899TIP3   OH233331   0.422   5.053   7.598 -0.1595  0.0784  0.0295
 3899TIP3    H133332   0.367   5.119   7.556 -2.0947 -1.1352  0.5385
 3899TIP3    H233333   0.406   4.972   7.549  0.9023 -0.4056  0.4324
 3900TIP3   OH233334   6.261   3.389   8.848  0.1159 -0.0495 -0.5077
 3900TIP3    H133335   6.347   3.421   8.875  0.9067 -0.9547 -1.8554
 3900TIP3    H233336   6.231   3.454   8.784  1.0403 -1.0871 -2.0767
 3901TIP3   OH233337   5.401   1.739   1.765 -0.9305  0.4329  0.3751
 3901TIP3    H133338   5.443   1.823   1.779 -1.2104  0.5278  0.6564
 3901TIP3    H233339   5.402   1.697   1.851 -0.5962  0.0557  0.1926
 3902TIP3   OH233340   0.598   5.707   8.296  0.9490 -0.3850 -0.6711
 3902TIP3    H133341   0.618   5.800   8.283  0.1989  0.1049  1.3160
 3902TIP3    H233342   0.683   5.663   8.292  1.4599  0.5551 -0.4643
 3903TIP3   OH233343   6.150   2.545   6.990 -0.1487  0.1089  0.0446
 3903TIP3    H133344   6.139   2.640   6.985  0.3754  0.1535 -0.3513
 3903TIP3    H233345   6.134   2.525   7.082 -0.2521  0.5847  0.1361
 3904TIP3   OH233346   6.254   0.899   7.553 -0.0753  0.0725  0.4994
 3904TIP3    H133347   6.307   0.897   7.633 -0.1722 -3.9678  0.6554
 3904TIP3    H233348   6.318   0.892   7.482 -0.1342  0.9899  0.3488
 3905TIP3   OH233349   4.232   1.453   1.404  0.4783 -0.3962  0.7088
 3905TIP3    H133350   4.152   1.419   1.443  0.0625  0.3059  0.4880
 3905TIP3    H233351   4.254   1.530   1.457 -0.1454  0.6230 -0.4656
 3906TIP3   OH233352   6.305   2.287   0.098  0.5816  0.4141  0.3955
 3906TIP3    H133353   6.347   2.230   0.033 -0.0515 -1.8079  1.8255
 3906TIP3    H233354   6.339   2.374   0.079  0.9997 -0.2473 -2.4248
 3907TIP3   OH233355   2.174   2.362   1.934  0.0439 -0.8450 -0.7247
 3907TIP3    H133356   2.189   2.447   1.893 -2.1796  0.0335  0.1476
 3907TIP3    H233357   2.254   2.345   1.984  0.4419  0.8354 -0.7479
 3908TIP3   OH233358   0.194   5.282   8.547  0.7010 -0.1112 -0.6712
 3908TIP3    H133359   0.281   5.312   8.520  1.1385  1.2635  1.9446
 3908TIP3    H233360   0.210   5.195   8.584  1.0181  0.1890 -0.0821
 3909TIP3   OH233361   3.581   5.769   1.574 -0.0318  0.2754  0.3951
 3909TIP3    H133362   3.520   5.831   1.615 -0.7839 -0.0676 -0.1615
 3909TIP3    H233363   3.600   5.808   1.489 -0.1848 -0.0537  0.2079
 3910TIP3   OH233364   1.397   6.629   1.575  0.2961 -0.1661  0.3042
 3910TIP3    H133365   1.318   6.681   1.567  0.1756 -0.2228  1.0545
 3910TIP3    H233366   1.412   6.595   1.486  0.8982  1.8552 -0.4173
 3911TIP3   OH233367   5.456   1.723   8.112 -0.0489 -0.0767  0.3210
 3911TIP3    H133368   5.361   1.715   8.115  0.0846 -2.4031  3.4948
 3911TIP3    H233369   5.486   1.637   8.082  1.0863  0.6212 -0.6272
 3912TIP3   OH233370   5.469   1.182   6.702 -0.2765 -0.2063  0.0377
 3912TIP3    H133371   5.548   1.235   6.714  0.3439 -1.0252 -0.3422
 3912TIP3    H233372   5.498   1.107   6.650 -0.5844 -2.1595  2.4667
 3913TIP3   OH233373   6.314   2.276   1.229  0.6534  0.0608  0.7176
 3913TIP3    H133374   6.396   2.320   1.206  0.4562 -0.0326 -0.2024
 3913TIP3    H233375   6.258   2.290   1.153 -0.2606  0.2956  1.4233
 3914TIP3   OH233376   0.237   2.306   6.524  0.2807  0.1717  0.0361
 3914TIP3    H133377   0.198   2.219   6.516  1.4887 -0.6836  2.4478
 3914TIP3    H233378   0.163   2.366   6.518 -0.5227 -0.9134 -2.1749
 3915TIP3   OH233379   1.237   5.948   0.046  0.4771 -0.6470  0.4555
 3915TIP3    H133380   1.332   5.936   0.045  1.0582  2.7617 -0.2572
 3915TIP3    H233381   1.202   5.876  -0.006  2.5788 -2.2627  1.1476
 3916TIP3   OH233382   2.433   0.323   8.101 -0.1705  0.6261  0.8060
 3916TIP3    H133383   2.362   0.261   8.119 -1.3739  1.6180 -0.3061
 3916TIP3    H233384   2.390   0.397   8.057  1.7466  0.6965 -1.1053
 3917TIP3   OH233385   3.586   3.401   7.555  0.5972  0.1344 -0.0163
 3917TIP3    H133386   3.627   3.315   7.568 -0.7275 -0.8531 -1.8797
 3917TIP3    H233387   3.580   3.410   7.460 -0.5406  1.6729  0.1739
 3918TIP3   OH233388   4.452   1.845   8.638 -0.4210  0.4569 -0.5775
 3918TIP3    H133389   4.527   1.787   8.654  0.1922  1.2806 -0.4311
 3918TIP3    H233390   4.407   1.850   8.722 -0.6157  0.0120 -0.6494
 3919TIP3   OH233391   1.009   3.075   1.503 -0.2784 -0.3353  0.2396
 3919TIP3    H133392   1.075   3.143   1.515  0.0936 -0.6028 -0.2549
 3919TIP3    H233393   1.028   3.038   1.416 -1.1505 -0.3306  0.0408
 3920TIP3   OH233394   1.076   5.311   7.177 -0.0194  0.5873 -0.2361
 3920TIP3    H133395   1.135   5.387   7.177  1.5536 -0.5311 -1.9757
 3920TIP3    H233396   1.126   5.242   7.220 -0.8768  0.1493  0.0774
 3921TIP3   OH233397   4.044   1.659   0.118 -0.1983  0.4339  0.2587
 3921TIP3    H133398   4.059   1.746   0.081 -1.6095  0.8800  0.6916
 3921TIP3    H233399   3.952   1.640   0.100 -0.6821  0.2366  2.6060
 3922TIP3   OH233400   4.991   1.428   0.313  0.0461  0.9329 -0.3743
 3922TIP3    H133401   5.072   1.384   0.340 -1.4616  0.1253  3.4346
 3922TIP3    H233402   5.013   1.521   0.315  1.0366  0.7096  0.0404
 3923TIP3   OH233403   1.104   4.100   7.226 -0.4541 -0.2672 -0.5571
 3923TIP3    H133404   1.034   4.111   7.291 -2.7356 -0.1946 -2.8612
 3923TIP3    H233405   1.067   4.042   7.160  1.4982  0.1508 -2.1207
 3924TIP3   OH233406   4.800   4.196   8.251  0.1964 -0.0863  0.4516
 3924TIP3    H133407   4.764   4.261   8.312  1.4450 -0.5183  1.7213
 3924TIP3    H233408   4.727   4.175   8.193 -1.6398 -0.9116  2.8711
 3925TIP3   OH233409   0.667   5.240   1.861 -0.2659 -0.4784  0.2048
 3925TIP3    H133410   0.581   5.276   1.886 -0.1408 -0.9366  1.3441
 3925TIP3    H233411   0.730   5.290   1.913  0.0130 -1.3805  0.7482
 3926TIP3   OH233412   5.103   4.974   0.978 -0.0160  0.1248 -0.2931
 3926TIP3    H133413   5.152   4.995   0.899  0.9520 -2.3538 -0.4500
 3926TIP3    H233414   5.014   4.955   0.947  0.6542 -2.0440 -1.0399
 3927TIP3   OH233415   4.455   5.636   0.267  0.0956 -0.4893 -0.2289
 3927TIP3    H133416   4.433   5.727   0.289 -0.7016 -0.5222 -0.8643
 3927TIP3    H233417   4.372   5.590   0.270  0.7863 -1.8200  2.7809
 3928TIP3   OH233418   6.537   1.337   0.639  0.2631  0.0338 -0.1549
 3928TIP3    H133419   6.535   1.430   0.662  1.2978  0.5408 -1.9515
 3928TIP3    H233420   6.468   1.326   0.574  1.0681 -0.1265 -1.0012
 3929TIP3   OH233421   2.477   4.268   7.907  0.3715 -0.1830  0.0983
 3929TIP3    H133422   2.535   4.328   7.954  1.1913 -0.9043  0.0438
 3929TIP3    H233423   2.472   4.191   7.963 -1.3096  0.2066  0.5446
 3930TIP3   OH233424   2.318   3.094   0.769  0.1965  0.1192  0.6723
 3930TIP3    H133425   2.361   3.059   0.691  0.2185  0.1638  0.6642
 3930TIP3    H233426   2.237   3.043   0.776 -0.9979  1.7040 -0.7599
 3931TIP3   OH233427   5.903   5.160   0.063  0.0720 -0.1606  0.1327
 3931TIP3    H133428   5.927   5.084   0.010 -0.5982  0.9400 -1.8717
 3931TIP3    H233429   5.893   5.231  -0.001 -1.4637  1.0864  1.6633
 3932TIP3   OH233430   1.742   4.910   1.598  0.3417 -0.1402  0.9931
 3932TIP3    H133431   1.754   4.944   1.687  0.1855  2.0848  0.2353
 3932TIP3    H233432   1.647   4.908   1.587  0.3593  1.3969  0.2917
 3933TIP3   OH233433   2.673   4.583   8.544 -0.1068  0.1332 -0.7161
 3933TIP3    H133434   2.602   4.556   8.485  0.9411  0.0776 -1.9932
 3933TIP3    H233435   2.699   4.503   8.589 -1.8497  0.4199  0.9371
 3934TIP3   OH233436   3.107   4.496   1.736 -0.1988 -0.5291  0.3746
 3934TIP3    H133437   3.118   4.542   1.819  1.3874  0.0950 -0.1456
 3934TIP3    H233438   3.123   4.563   1.669  0.9049 -1.5244 -0.4081
 3935TIP3   OH233439   3.519   2.502   2.322  0.1875 -0.2434  0.0231
 3935TIP3    H133440   3.547   2.588   2.352  0.4279  0.0399 -0.9554
 3935TIP3    H233441   3.590   2.473   2.264 -0.5005 -0.5139 -0.7013
 3936TIP3   OH233442   6.624   5.458   2.252  0.1070 -0.5799  0.0978
 3936TIP3    H133443   6.656   5.536   2.299  1.4085 -0.9128 -0.1935
 3936TIP3    H233444   6.581   5.405   2.319  2.7578 -1.4969  1.1978
 3937TIP3   OH233445   2.025   1.216   8.748 -0.2145  0.0196  0.4955
 3937TIP3    H133446   1.967   1.218   8.672  0.1785  0.2574  0.1997
 3937TIP3    H233447   1.972   1.251   8.819 -0.9416 -1.2092  0.5857
 3938TIP3   OH233448   1.164   3.828   1.463 -0.1475 -0.9283  0.1439
 3938TIP3    H133449   1.125   3.887   1.528 -0.4030  0.0562 -0.8784
 3938TIP3    H233450   1.254   3.860   1.453 -0.5336 -0.1508 -1.0305
 3939TIP3   OH233451   0.444   6.379   0.909 -0.0473 -0.1967 -0.0790
 3939TIP3    H133452   0.516   6.409   0.965 -0.8088  0.5973  0.4852
 3939TIP3    H233453   0.388   6.456   0.898 -1.1015 -0.9429 -0.0545
 3940TIP3   OH233454   1.055   4.047   2.483 -0.3004 -0.2026  0.6777
 3940TIP3    H133455   0.969   4.090   2.482 -0.9403 -1.4382  0.3099
 3940TIP3    H233456   1.082   4.045   2.391 -0.2475 -0.5023  0.6974
 3941TIP3   OH233457   0.774   5.790   8.841  0.2577 -0.0569 -0.1048
 3941TIP3    H133458   0.816   5.705   8.829  0.1955  0.0875 -1.4484
 3941TIP3    H233459   0.717   5.778   8.917 -0.8975 -1.6797 -1.1548
 3942TIP3   OH233460   2.562   3.297   0.410  0.0210 -0.1071  0.0467
 3942TIP3    H133461   2.487   3.245   0.440  0.3322 -0.2637  0.5756
 3942TIP3    H233462   2.639   3.246   0.439  0.3628  1.4263  2.0183
 3943TIP3   OH233463   6.462   3.962   7.242 -0.1135  0.2031 -0.3673
 3943TIP3    H133464   6.389   3.969   7.303  0.7290  1.0056  0.5948
 3943TIP3    H233465   6.484   3.869   7.241 -1.0807 -0.0296 -0.6075
 3944TIP3   OH233466   2.463   0.592   8.265  0.0767  0.4123  0.2031
 3944TIP3    H133467   2.528   0.656   8.238 -1.0296  0.6832 -2.0632
 3944TIP3    H233468   2.507   0.508   8.258  0.5261  0.6744 -0.1480
 3945TIP3   OH233469   3.375   4.263   7.112 -0.4017  0.5223  0.5010
 3945TIP3    H133470   3.451   4.222   7.071 -0.7098  1.3537 -0.9755
 3945TIP3    H233471   3.410   4.306   7.190  0.9447  2.0719 -0.8788
 3946TIP3   OH233472   5.424   3.397   1.595 -0.3057  0.0572  0.2522
 3946TIP3    H133473   5.492   3.407   1.528 -1.4878  0.0532 -1.0020
 3946TIP3    H233474   5.439   3.468   1.657 -0.2014  1.0993 -0.9467
 3947TIP3   OH233475   4.181   1.984   0.343  0.3453 -0.1100 -0.3761
 3947TIP3    H133476   4.224   1.902   0.367  0.8068  0.2714  0.1363
 3947TIP3    H233477   4.188   1.989   0.248  0.6708 -0.4720 -0.3688
 3948TIP3   OH233478   2.377   6.415   7.078 -0.5285  0.1411  0.2160
 3948TIP3    H133479   2.387   6.410   6.983  0.1331  0.2545  0.2733
 3948TIP3    H233480   2.369   6.323   7.106  1.5179 -0.0801  0.2572
 3949TIP3   OH233481   3.546   2.790   0.902  0.8362  0.2477  0.2357
 3949TIP3    H133482   3.516   2.755   0.986  0.5845  2.2571  1.0362
 3949TIP3    H233483   3.547   2.885   0.915  1.7208  0.5466 -1.7398
 3950TIP3   OH233484   2.023   0.125   7.817  0.1270 -0.1976  0.2906
 3950TIP3    H133485   2.087   0.069   7.860 -0.1181 -0.6846  0.0321
 3950TIP3    H233486   2.075   0.184   7.763  0.3475 -0.8081 -0.1739
 3951TIP3   OH233487   5.986   5.950   0.110  0.7328 -0.2694 -0.1752
 3951TIP3    H133488   5.979   5.861   0.143  2.1357 -1.0644 -1.8173
 3951TIP3    H233489   6.000   5.940   0.016 -1.0075  1.7809 -0.7505
 3952TIP3   OH233490   0.160   0.587   8.793 -0.0380 -0.2355 -0.2600
 3952TIP3    H133491   0.146   0.636   8.874 -0.4044 -0.3727 -0.2428
 3952TIP3    H233492   0.073   0.560   8.764  0.1594 -0.8816 -0.2697
 3953TIP3   OH233493   0.697   1.215   7.573  0.0562 -0.9207 -0.2597
 3953TIP3    H133494   0.637   1.255   7.510 -0.6770 -2.6193 -0.6976
 3953TIP3    H233495   0.680   1.262   7.655 -0.7127 -0.3074 -0.7567
 3954TIP3   OH233496   4.408   2.945   1.834  0.6988 -0.0047  0.2247
 3954TIP3    H133497   4.363   2.861   1.823  1.9445 -0.8312  1.1666
 3954TIP3    H233498   4.484   2.924   1.888  1.5979  1.5500 -0.3803
 3955TIP3   OH233499   0.900   6.043   1.155 -0.7400  0.9622  0.0895
 3955TIP3    H133500   0.869   6.032   1.065  1.2354  2.0979 -0.7883
 3955TIP3    H233501   0.944   5.960   1.175 -0.7288  0.8961 -0.2045
 3956TIP3   OH233502   0.621   2.614   8.371  0.3413 -0.4740 -0.4162
 3956TIP3    H133503   0.675   2.654   8.439 -1.7315  0.1682  0.9652
 3956TIP3    H233504   0.588   2.534   8.412 -0.2515 -0.5248 -0.9864
 3957TIP3   OH233505   4.133   3.591   6.497 -0.2081  0.0730 -0.4389
 3957TIP3    H133506   4.048   3.553   6.521 -0.9168  2.8630  2.0441
 3957TIP3    H233507   4.118   3.632   6.412 -1.3354  0.3916 -0.1022
 3958TIP3   OH233508   5.721   0.319   6.695  0.3632  0.1121  0.3513
 3958TIP3    H133509   5.692   0.228   6.688  0.1736  0.1620  0.4898
 3958TIP3    H233510   5.694   0.346   6.783 -1.8459  1.1049 -0.5592
 3959TIP3   OH233511   1.558   2.438   0.710  0.1606  0.0066  0.6110
 3959TIP3    H133512   1.549   2.369   0.644 -0.0906 -0.0439  0.6958
 3959TIP3    H233513   1.475   2.486   0.706  0.8712  1.1850 -0.4261
 3960TIP3   OH233514   4.529   5.075   0.315 -0.1155 -0.3949 -0.0275
 3960TIP3    H133515   4.604   5.128   0.342 -1.5434  0.2906  2.9444
 3960TIP3    H233516   4.475   5.135   0.263 -0.4565  0.3617  1.1451
 3961TIP3   OH233517   1.918   2.612   7.001 -0.1641  0.2125  0.2889
 3961TIP3    H133518   1.892   2.527   6.964  0.5157 -0.1518  0.6145
 3961TIP3    H233519   1.976   2.650   6.935 -1.0152  0.7495 -0.1673
 3962TIP3   OH233520   6.428   4.123   1.463 -0.2236 -0.5260 -0.2377
 3962TIP3    H133521   6.360   4.056   1.468 -0.4683 -0.2351  0.5434
 3962TIP3    H233522   6.445   4.147   1.554 -0.8396  1.1538 -0.5192
 3963TIP3   OH233523   4.557   5.433   0.017 -0.3846  0.0669 -0.5466
 3963TIP3    H133524   4.467   5.417  -0.012 -0.5429 -1.4484  0.6668
 3963TIP3    H233525   4.609   5.369  -0.031 -0.5130 -1.7383  1.6124
 3964TIP3   OH233526   0.504   5.581   0.834 -0.2674  0.7460  0.2405
 3964TIP3    H133527   0.585   5.628   0.819 -0.0286  0.2008 -0.1910
 3964TIP3    H233528   0.444   5.648   0.869 -0.3214  1.6648 -1.5107
 3965TIP3   OH233529   2.654   3.916   6.687  0.2755 -0.6181 -0.0858
 3965TIP3    H133530   2.677   3.998   6.730  0.2191 -0.5621 -0.1623
 3965TIP3    H233531   2.703   3.849   6.734  0.7546 -0.4760 -0.3776
 3966TIP3   OH233532   3.766   3.559   8.305 -0.2033 -0.2434  0.2000
 3966TIP3    H133533   3.768   3.635   8.363  0.0911 -0.0884 -0.0134
 3966TIP3    H233534   3.849   3.514   8.322 -0.0421 -0.1041 -0.2300
 3967TIP3   OH233535   0.240   1.445   6.935  0.0745  0.4518  0.0322
 3967TIP3    H133536   0.282   1.498   7.003  0.7650  0.5157 -0.4358
 3967TIP3    H233537   0.231   1.504   6.860 -0.5567  0.3421  0.0146
 3968TIP3   OH233538   6.734   4.795   6.870  0.2222 -0.1299 -0.6470
 3968TIP3    H133539   6.647   4.831   6.889  0.2951 -0.1141 -0.3356
 3968TIP3    H233540   6.724   4.701   6.881  0.6785 -0.0108  1.2486
 3969TIP3   OH233541   1.717   4.543   0.679  0.1819  0.0494 -0.5394
 3969TIP3    H133542   1.637   4.532   0.732  0.9955 -2.1032  0.3395
 3969TIP3    H233543   1.693   4.608   0.613 -1.7301  0.8022  0.8001
 3970TIP3   OH233544   1.779   6.570   0.130 -0.8402  0.1730  0.1231
 3970TIP3    H133545   1.764   6.555   0.224 -3.4020 -2.2606 -0.5800
 3970TIP3    H233546   1.871   6.596   0.126  0.2051 -2.3563  3.0889
 3971TIP3   OH233547   5.326   6.064   1.208 -0.2647  0.1149 -0.1790
 3971TIP3    H133548   5.361   6.069   1.297  2.0482 -0.1220 -1.0272
 3971TIP3    H233549   5.354   5.979   1.175 -2.0814 -0.2878 -0.7778
 3972TIP3   OH233550   6.772   2.145   1.314  0.0403  0.4866 -0.1711
 3972TIP3    H133551   6.756   2.171   1.223 -0.2637  0.5875 -0.0895
 3972TIP3    H233552   6.817   2.061   1.307 -0.6830  0.1083 -0.4023
 3973TIP3   OH233553   6.491   1.126   0.154 -0.3932  0.5388  0.0031
 3973TIP3    H133554   6.460   1.178   0.228  0.9098  0.5720  0.5573
 3973TIP3    H233555   6.548   1.060   0.193 -0.2991  0.0651 -0.9059
 3974TIP3   OH233556   5.594   1.754   1.071 -0.3521 -0.3875 -0.6354
 3974TIP3    H133557   5.631   1.667   1.058 -0.6949 -0.3998 -1.6617
 3974TIP3    H233558   5.650   1.795   1.137  1.6222 -0.3565 -2.2188
 3975TIP3   OH233559   0.565   5.316   7.674 -0.4164 -0.0059 -0.3378
 3975TIP3    H133560   0.480   5.283   7.647 -0.8477 -0.3458  1.2928
 3975TIP3    H233561   0.629   5.259   7.631 -1.0952 -1.5047  0.5718
 3976TIP3   OH233562   3.087   0.205   7.361 -0.5280  0.3001  0.1175
 3976TIP3    H133563   3.010   0.164   7.400 -1.6072  0.4292 -1.7858
 3976TIP3    H233564   3.136   0.133   7.322  0.5216  0.1809  1.5435
 3977TIP3   OH233565   1.049   1.330   1.734 -0.1455 -0.3296 -0.4094
 3977TIP3    H133566   1.075   1.304   1.646 -1.6973  0.1304 -1.0343
 3977TIP3    H233567   0.982   1.265   1.759 -1.7472  1.1242 -0.7273
 3978TIP3   OH233568   0.983   1.626   1.793  0.0690  0.3944 -0.0299
 3978TIP3    H133569   0.892   1.647   1.813  0.3476  0.5821  1.1285
 3978TIP3    H233570   0.985   1.531   1.783 -0.3108  0.4222 -0.3856
 3979TIP3   OH233571   1.324   0.729   7.380  0.2720  0.5961 -0.4801
 3979TIP3    H133572   1.399   0.783   7.403 -0.7072  1.3493  1.0310
 3979TIP3    H233573   1.360   0.663   7.319  2.1326  0.9446  0.1863
 3980TIP3   OH233574   3.603   4.166   7.022 -0.4169  0.4676 -0.6569
 3980TIP3    H133575   3.624   4.105   7.093  1.5755  2.7576  0.9436
 3980TIP3    H233576   3.586   4.111   6.946  0.2357 -2.0533  0.9067
 3981TIP3   OH233577   0.228   1.366   7.564  0.2620 -0.3086 -0.4054
 3981TIP3    H133578   0.248   1.455   7.536 -3.1190  0.6885 -0.1071
 3981TIP3    H233579   0.275   1.355   7.647  1.3693  0.8896 -0.8554
 3982TIP3   OH233580   0.966   5.153   8.527  0.5471  0.5220 -0.1072
 3982TIP3    H133581   0.980   5.135   8.434  1.2551  3.2343 -0.6263
 3982TIP3    H233582   0.876   5.186   8.532  0.4799  0.2954  0.1870
 3983TIP3   OH233583   3.853   0.477   7.582  0.9688  0.6129 -0.6818
 3983TIP3    H133584   3.779   0.449   7.636  1.6173 -0.7140 -0.4468
 3983TIP3    H233585   3.920   0.410   7.597  1.0111 -0.0732 -3.4712
 3984TIP3   OH233586   5.126   3.859   1.190  0.5311  0.3802 -0.0576
 3984TIP3    H133587   5.167   3.889   1.109 -1.2775 -3.1943 -2.5605
 3984TIP3    H233588   5.170   3.776   1.210 -1.3010 -0.4890  0.6276
 3985TIP3   OH233589   1.290   4.043   6.988 -0.2056 -0.4432  0.2325
 3985TIP3    H133590   1.229   3.988   7.038 -0.1713 -2.0897 -1.4310
 3985TIP3    H233591   1.365   3.986   6.972  0.4503  0.5639 -0.3494
 3986TIP3   OH233592   4.653   3.977   8.073 -0.3292  0.2324 -0.5144
 3986TIP3    H133593   4.722   3.984   8.006 -0.2388  0.8309 -0.3666
 3986TIP3    H233594   4.573   3.959   8.024 -0.0884 -0.3464 -0.6988
 3987TIP3   OH233595   3.409   1.525   8.130  0.1183 -0.0098  0.2838
 3987TIP3    H133596   3.448   1.516   8.043  1.1825 -0.4643  0.8013
 3987TIP3    H233597   3.379   1.437   8.153 -1.0638  0.2858 -0.0102
 3988TIP3   OH233598   5.412   5.202   0.737  0.4404  0.0881  0.5183
 3988TIP3    H133599   5.496   5.248   0.744  1.1020 -0.8829 -0.6610
 3988TIP3    H233600   5.379   5.226   0.650 -1.7993  2.4981  1.8997
 3989TIP3   OH233601   3.099   4.806   7.909 -0.1808 -0.5736 -0.6358
 3989TIP3    H133602   3.148   4.884   7.934  0.0660 -0.8317 -0.2961
 3989TIP3    H233603   3.146   4.770   7.834  0.4348 -1.0744 -0.0307
 3990TIP3   OH233604   6.047   4.247   0.879  0.4996  0.5495 -0.3737
 3990TIP3    H133605   6.115   4.214   0.820  0.4122 -1.3155  0.5046
 3990TIP3    H233606   6.092   4.313   0.932  1.5551 -0.3998 -0.0431
 3991TIP3   OH233607   3.495   5.099   8.578  0.5154 -0.1851  0.3900
 3991TIP3    H133608   3.552   5.055   8.516  1.9529  1.5759  0.3568
 3991TIP3    H233609   3.492   5.040   8.654 -0.0987 -1.6904 -0.7697
 3992TIP3   OH233610   2.228   5.716   8.405  0.5201 -0.1442 -0.2679
 3992TIP3    H133611   2.264   5.764   8.480 -1.6849 -0.6092  1.1926
 3992TIP3    H233612   2.189   5.783   8.350  1.7500  0.1586 -0.7926
 3993TIP3   OH233613   0.895   6.288   0.032  0.2795  0.5529 -0.5812
 3993TIP3    H133614   0.851   6.212  -0.007  0.9483 -2.0425  3.2065
 3993TIP3    H233615   0.983   6.258   0.052 -0.3161  1.0293  3.8564
 3994TIP3   OH233616   2.154   1.816   7.483 -0.3131 -0.3664 -0.3645
 3994TIP3    H133617   2.217   1.886   7.465  1.2408 -1.4360  0.6430
 3994TIP3    H233618   2.176   1.786   7.571 -2.1702 -0.8824 -0.0299
 3995TIP3   OH233619   0.286   4.179   8.532 -0.0394 -0.0110 -0.2377
 3995TIP3    H133620   0.346   4.120   8.577 -1.2013 -1.1624 -0.1695
 3995TIP3    H233621   0.208   4.180   8.587 -0.3960  0.8493 -0.7461
 3996TIP3   OH233622   2.471   3.277   8.764  0.4727  0.3183 -0.2698
 3996TIP3    H133623   2.558   3.275   8.803  0.1876  0.7102  0.3893
 3996TIP3    H233624   2.434   3.191   8.784  1.2772 -0.4795 -1.9185
 3997TIP3   OH233625   4.916   5.836   7.265 -0.0753 -0.3540 -0.2384
 3997TIP3    H133626   4.994   5.850   7.210  0.2720  1.0296  0.5504
 3997TIP3    H233627   4.938   5.760   7.319  0.9409  0.2888  0.2951
 3998TIP3   OH233628   4.327   4.070   1.157  0.0794  0.1250  0.6764
 3998TIP3    H133629   4.385   4.005   1.117  0.3406  0.4387  0.5391
 3998TIP3    H233630   4.373   4.096   1.237  0.0459  0.2466  0.6566
 3999TIP3   OH233631   0.083   5.861   1.173 -0.4787 -0.1097  0.5118
 3999TIP3    H133632   0.090   5.950   1.140  0.5594 -0.5807 -0.6175
 3999TIP3    H233633   0.171   5.824   1.164 -1.0408 -1.4707  0.2442
 4000TIP3   OH233634   5.283   2.477   8.706 -0.5070  0.1405  0.0717
 4000TIP3    H133635   5.194   2.503   8.681 -0.2792 -0.4807 -1.4984
 4000TIP3    H233636   5.298   2.396   8.658  0.6359 -0.1757  0.9336
 4001TIP3   OH233637   5.148   5.403   0.351 -0.3368 -0.4067  0.2008
 4001TIP3    H133638   5.223   5.408   0.292 -0.1561  2.0847  0.5302
 4001TIP3    H233639   5.112   5.315   0.338  0.7983 -0.5756 -2.2302
 4002TIP3   OH233640   2.418   3.699   8.063  0.0925  0.0580  0.1110
 4002TIP3    H133641   2.409   3.790   8.035  1.9307  0.2812  0.1353
 4002TIP3    H233642   2.357   3.650   8.008  2.0463  0.7783 -2.9163
 4003TIP3   OH233643   3.398   2.039   6.920  0.1623 -0.6777  0.1099
 4003TIP3    H133644   3.369   2.106   6.859 -0.4492 -0.7956  0.2646
 4003TIP3    H233645   3.487   2.065   6.945  1.2764 -1.7501 -2.4180
 4004TIP3   OH233646   4.837   6.437   7.634  0.4104 -0.2256 -0.6495
 4004TIP3    H133647   4.788   6.391   7.566  0.6184  0.0143 -0.9718
 4004TIP3    H233648   4.875   6.368   7.688  1.6401 -0.4874 -1.7785
 4005TIP3   OH233649   2.278   2.938   1.655  0.5138  0.0750  1.0872
 4005TIP3    H133650   2.315   2.852   1.675  2.2422  0.4756 -0.2066
 4005TIP3    H233651   2.351   2.989   1.619 -0.3114  2.3130  2.3802
 4006TIP3   OH233652   0.392   4.136   8.781  0.1647 -0.6066 -0.2112
 4006TIP3    H133653   0.353   4.220   8.807 -1.0865 -0.9663 -0.8712
 4006TIP3    H233654   0.357   4.073   8.843 -1.1442 -1.1061 -1.4141
 4007TIP3   OH233655   2.788   6.566   0.829 -0.4590 -0.8053 -0.4556
 4007TIP3    H133656   2.787   6.645   0.775  1.1438  1.2135  2.2045
 4007TIP3    H233657   2.880   6.539   0.831 -0.4939 -0.8879  1.1133
 4008TIP3   OH233658   5.365   4.592   1.146 -0.0913  0.2598 -0.3487
 4008TIP3    H133659   5.405   4.519   1.099  0.7106  0.7016 -0.3525
 4008TIP3    H233660   5.380   4.572   1.238 -0.4847  0.0764 -0.3202
 4009TIP3   OH233661   2.497   5.729   1.231 -0.3109 -0.1261  0.3191
 4009TIP3    H133662   2.502   5.683   1.147 -1.6452 -0.3020  0.3219
 4009TIP3    H233663   2.585   5.764   1.243 -0.2100  0.3302 -1.3876
 4010TIP3   OH233664   6.346   4.065   0.255  0.2310  0.3645  0.3790
 4010TIP3    H133665   6.378   3.986   0.212  0.9001  0.5775  0.4773
 4010TIP3    H233666   6.287   4.032   0.323  0.5374 -0.0600  0.4507
 4011TIP3   OH233667   4.787   5.117   6.761  0.6039  0.1331  0.3010
 4011TIP3    H133668   4.736   5.073   6.829 -0.1184 -0.8460 -0.8284
 4011TIP3    H233669   4.730   5.188   6.731  0.8414  0.4437  0.5851
 4012TIP3   OH233670   4.453   5.084   7.262  0.1776 -0.4541 -0.2415
 4012TIP3    H133671   4.412   5.010   7.307 -0.2135 -0.5197 -0.7019
 4012TIP3    H233672   4.405   5.092   7.180 -0.4324  0.9211  0.2200
 4013TIP3   OH233673   5.863   6.354   8.492  0.1902 -0.3324  0.3238
 4013TIP3    H133674   5.821   6.290   8.434 -0.8081 -1.1605  1.8798
 4013TIP3    H233675   5.790   6.407   8.526  1.0928  2.8867 -2.1920
 4014TIP3   OH233676   4.989   0.292   1.088  0.3589  0.0331 -0.5714
 4014TIP3    H133677   4.929   0.267   1.017  2.1711 -2.0864 -1.4772
 4014TIP3    H233678   5.047   0.357   1.047  0.0822  0.4001 -0.3808
 4015TIP3   OH233679   4.546   5.225   7.926  0.5611  0.5061  0.4686
 4015TIP3    H133680   4.608   5.250   7.995  2.2661  1.0230 -1.1797
 4015TIP3    H233681   4.472   5.186   7.973  2.4870 -0.9358  2.4846
 4016TIP3   OH233682   0.131   2.720   8.379 -0.1493 -0.1465 -0.1848
 4016TIP3    H133683   0.167   2.808   8.369 -0.0227 -0.0859  0.6951
 4016TIP3    H233684   0.207   2.664   8.394 -0.3639 -0.0408  1.5330
 4017TIP3   OH233685   4.330   3.169   2.018 -0.1248 -0.2939 -0.1243
 4017TIP3    H133686   4.243   3.197   2.046 -0.5768 -0.9735 -0.8182
 4017TIP3    H233687   4.315   3.121   1.937  1.1650  1.8709 -1.7673
 4018TIP3   OH233688   0.118   6.638   0.728  0.2172  0.1959 -0.6345
 4018TIP3    H133689   0.149   6.677   0.646  0.7880  2.0105  0.3972
 4018TIP3    H233690   0.023   6.651   0.725  0.1880 -0.0808 -1.1553
 4019TIP3   OH233691   3.341   6.621   8.280 -0.3868 -0.1805 -0.2387
 4019TIP3    H133692   3.307   6.676   8.210 -1.5758  1.1359  1.2745
 4019TIP3    H233693   3.379   6.683   8.342  0.6978 -1.3026  0.2578
 4020TIP3   OH233694   6.470   1.114   0.844  0.2370 -0.3939  0.0551
 4020TIP3    H133695   6.509   1.200   0.827  0.5030 -0.3747  0.7238
 4020TIP3    H233696   6.377   1.132   0.857  0.1501 -0.3205 -0.6441
 4021TIP3   OH233697   1.204   4.000   1.188 -0.1552 -0.2180 -0.0943
 4021TIP3    H133698   1.154   3.965   1.262 -0.4281  0.3717  0.0057
 4021TIP3    H233699   1.236   3.923   1.142 -0.5298 -0.5960  0.2691
 4022TIP3   OH233700   0.845   3.997   0.174 -0.0085 -0.1819 -0.7274
 4022TIP3    H133701   0.806   3.981   0.260 -1.3576  1.4347 -0.9948
 4022TIP3    H233702   0.938   4.008   0.192 -0.2595  0.0532  0.5285
 4023TIP3   OH233703   1.150   1.921   8.219  0.0589 -0.0607  0.4969
 4023TIP3    H133704   1.146   2.012   8.248  0.7787 -0.7690  3.1184
 4023TIP3    H233705   1.168   1.926   8.125 -2.3678  2.4620  0.0609
 4024TIP3   OH233706   2.601   2.801   6.763 -0.3313 -0.6496  0.4082
 4024TIP3    H133707   2.620   2.878   6.817  0.1423 -0.0657 -0.5640
 4024TIP3    H233708   2.590   2.729   6.826  1.6435 -0.2917  1.2356
 4025TIP3   OH233709   5.534   1.011   0.805  0.6354 -0.6571 -0.3642
 4025TIP3    H133710   5.504   0.971   0.886  0.7613  1.3322  0.7422
 4025TIP3    H233711   5.521   0.944   0.738 -1.9219 -1.4677  0.8442
 4026TIP3   OH233712   4.624   6.773   8.242 -0.0794 -0.0251 -0.2368
 4026TIP3    H133713   4.532   6.758   8.222 -0.5383  0.8112  1.1189
 4026TIP3    H233714   4.640   6.721   8.321 -0.5567  3.0158  2.0170
 4027TIP3   OH233715   4.767   1.554   0.385 -0.1146  0.2501 -0.1417
 4027TIP3    H133716   4.850   1.508   0.372 -1.0522 -1.2276 -1.2734
 4027TIP3    H233717   4.759   1.563   0.480  1.3283  0.4469 -0.0079
 4028TIP3   OH233718   1.838   5.512   0.791 -0.2126  0.4628  0.3380
 4028TIP3    H133719   1.860   5.444   0.854  2.3961  0.8751 -0.0129
 4028TIP3    H233720   1.853   5.594   0.838 -0.3366  0.7762 -0.1628
 4029TIP3   OH233721   5.816   4.374   8.736 -0.7839  0.1110 -0.0170
 4029TIP3    H133722   5.733   4.418   8.722 -1.0801 -0.3925  0.1226
 4029TIP3    H233723   5.793   4.281   8.742 -0.0840 -0.1605 -1.1227
 4030TIP3   OH233724   6.361   0.027   8.553  0.7626 -0.7715 -0.7117
 4030TIP3    H133725   6.340   0.117   8.528 -1.3244 -1.0375 -0.1679
 4030TIP3    H233726   6.429   0.036   8.620  0.9424  0.3718 -1.0302
 4031TIP3   OH233727   4.279   0.829   7.824 -0.1962 -0.2661  0.1107
 4031TIP3    H133728   4.362   0.802   7.785 -0.2085 -2.8120  1.6568
 4031TIP3    H233729   4.268   0.772   7.900 -3.5551 -0.2706 -0.2440
 4032TIP3   OH233730   3.247   0.418   7.452  0.4344  0.2517  0.3822
 4032TIP3    H133731   3.195   0.340   7.433  0.3496  0.6225 -1.0835
 4032TIP3    H233732   3.194   0.467   7.514  0.1050 -0.4698  0.6778
 4033TIP3   OH233733   0.657   4.414   0.986  0.0262  0.1980 -0.0420
 4033TIP3    H133734   0.600   4.477   0.943 -0.6346 -0.6370 -0.4160
 4033TIP3    H233735   0.743   4.457   0.990 -0.7729  1.7710  1.1792
 4034TIP3   OH233736   5.828   3.760   7.214  0.5195 -0.3946  0.2819
 4034TIP3    H133737   5.740   3.731   7.239  0.5052  0.2879  1.0632
 4034TIP3    H233738   5.821   3.855   7.211  1.3237 -0.3217  0.6909
 4035TIP3   OH233739   1.762   3.814   1.437 -0.1297  0.1288  0.5568
 4035TIP3    H133740   1.730   3.808   1.527 -0.6021  0.4632  0.4141
 4035TIP3    H233741   1.855   3.792   1.443  0.2019  1.6200  1.3534
 4036TIP3   OH233742   1.453   1.954   0.820 -0.5224 -0.0828 -0.2944
 4036TIP3    H133743   1.398   2.015   0.870  0.2277  1.4624 -1.2885
 4036TIP3    H233744   1.483   2.005   0.745  0.1068 -1.7153 -1.1830
 4037TIP3   OH233745   6.088   0.339   6.951  0.0744 -0.3626  0.5901
 4037TIP3    H133746   6.152   0.287   7.000  0.7060  1.1123  1.4119
 4037TIP3    H233747   6.124   0.428   6.954 -2.3030  0.6475  1.6212
 4038TIP3   OH233748   0.093   2.373   2.277  0.3228 -0.1901 -0.2586
 4038TIP3    H133749   0.062   2.442   2.337 -0.5975  0.2054 -1.1763
 4038TIP3    H233750   0.052   2.293   2.309  0.4054 -0.1041  0.0675
 4039TIP3   OH233751   6.041   0.068   2.195  0.5172  0.4943 -0.3054
 4039TIP3    H133752   6.014  -0.015   2.156  1.9690  0.1770 -0.6995
 4039TIP3    H233753   5.959   0.117   2.204 -0.4688 -1.1981  0.5439
 4040TIP3   OH233754   0.146   5.629   8.320  0.1818 -0.1998 -0.5952
 4040TIP3    H133755   0.064   5.676   8.304 -0.4355 -1.2267 -0.5072
 4040TIP3    H233756   0.185   5.618   8.234 -0.6146 -1.2074 -0.8357
 4041TIP3   OH233757   6.260   3.639   7.958 -0.2292  0.4122 -0.0287
 4041TIP3    H133758   6.289   3.551   7.983 -2.3413 -0.7424 -1.3457
 4041TIP3    H233759   6.183   3.624   7.904 -1.5818  3.1697  0.9770
 4042TIP3   OH233760   2.004   2.015   1.179  0.1175  0.2998  0.5102
 4042TIP3    H133761   1.994   2.107   1.155  1.8622  0.1017 -1.2375
 4042TIP3    H233762   1.992   1.967   1.097 -1.3359 -1.1418  1.4769
 4043TIP3   OH233763   6.651   5.514   0.884 -0.8297  0.2367  0.3654
 4043TIP3    H133764   6.741   5.502   0.853 -1.1473 -0.0225 -0.4958
 4043TIP3    H233765   6.627   5.430   0.923 -1.1367 -0.1448 -0.6054
 4044TIP3   OH233766   2.011   5.259   0.008 -0.5376  0.8526 -0.5216
 4044TIP3    H133767   1.931   5.254   0.062  0.1830 -0.5367  0.4648
 4044TIP3    H233768   1.979   5.281  -0.079 -1.8526  1.9610  0.1963
 4045TIP3   OH233769   0.913   4.184   8.396 -0.1650  0.1865  0.4622
 4045TIP3    H133770   0.826   4.224   8.408 -0.0599  0.0882  1.6894
 4045TIP3    H233771   0.969   4.232   8.457 -0.0920 -1.9843  2.2297
 4046TIP3   OH233772   1.608   4.956   1.143  0.0597  0.1176 -0.7391
 4046TIP3    H133773   1.637   4.890   1.079 -0.9467 -1.7334  0.6066
 4046TIP3    H233774   1.512   4.947   1.144  0.0680 -0.2993  1.3540
 4047TIP3   OH233775   1.415   1.440   7.329 -0.3517  0.6518 -0.0536
 4047TIP3    H133776   1.425   1.395   7.245 -2.3269 -0.1411  0.0722
 4047TIP3    H233777   1.482   1.401   7.385 -1.3143 -1.4670 -0.2597
 4048TIP3   OH233778   3.586   1.833   6.923 -0.1946 -0.2508 -0.7557
 4048TIP3    H133779   3.520   1.895   6.891 -1.2605 -0.5304  0.7844
 4048TIP3    H233780   3.559   1.814   7.014  1.4925 -1.0850 -0.3955
 4049TIP3   OH233781   0.060   6.069   1.760 -0.4693  0.1282  0.1739
 4049TIP3    H133782  -0.013   6.129   1.776 -2.2815 -2.0338  0.5996
 4049TIP3    H233783   0.049   6.042   1.669 -0.1342 -0.1030  0.2008
 4050TIP3   OH233784   2.958   2.280   2.008  0.4796  0.4792  0.5126
 4050TIP3    H133785   2.953   2.364   2.054  1.1278  1.0374 -0.4114
 4050TIP3    H233786   2.899   2.289   1.934 -0.2020 -0.2509  0.9450
 4051TIP3   OH233787   3.653   5.161   8.281 -0.1121  0.4674 -0.1687
 4051TIP3    H133788   3.705   5.192   8.356  2.1427 -0.1464 -1.3969
 4051TIP3    H233789   3.612   5.240   8.246 -1.4861  0.7331  1.8285
 4052TIP3   OH233790   5.277   0.639   6.395  0.3688  0.7095 -0.1481
 4052TIP3    H133791   5.183   0.653   6.404 -0.1586 -2.0376 -0.5331
 4052TIP3    H233792   5.308   0.714   6.344 -1.4868  1.9149  0.3937
 4053TIP3   OH233793   0.257   5.495   0.493 -0.0496 -0.0808  0.7445
 4053TIP3    H133794   0.325   5.555   0.462 -0.2490 -1.2080 -2.1744
 4053TIP3    H233795   0.175   5.538   0.472 -0.1884 -0.8462 -0.3955
 4054TIP3   OH233796   4.648   0.711   7.483  0.0809 -0.0303  0.2104
 4054TIP3    H133797   4.578   0.658   7.444 -1.1293  1.3789  0.3994
 4054TIP3    H233798   4.687   0.757   7.408  0.4572 -0.3961  0.1765
 4055TIP3   OH233799   0.436   4.961   1.343  0.1860 -0.5838 -0.3328
 4055TIP3    H133800   0.420   5.024   1.273  2.4156  0.4736  0.0158
 4055TIP3    H233801   0.364   4.975   1.405 -0.3504  0.3319 -1.1438
 4056TIP3   OH233802   4.386   2.943   8.087  0.0084  0.0592 -0.6745
 4056TIP3    H133803   4.452   2.896   8.138 -1.4861 -2.5188 -0.9240
 4056TIP3    H233804   4.365   3.020   8.139  0.6960 -0.9033  1.1155
 4057TIP3   OH233805   2.670   5.738   0.127 -0.2344 -0.3751 -0.1765
 4057TIP3    H133806   2.593   5.683   0.140 -0.6872 -0.4201 -2.6249
 4057TIP3    H233807   2.741   5.676   0.111 -0.2348 -0.3059 -0.4595
 4058TIP3   OH233808   2.964   3.116   8.536 -0.4813 -0.0718  0.2229
 4058TIP3    H133809   2.884   3.153   8.497  0.0814  0.3336 -0.5780
 4058TIP3    H233810   2.994   3.052   8.472  0.8362  1.0832 -0.3790
 4059TIP3   OH233811   4.618   0.057   1.949 -0.0500 -0.3148  0.3585
 4059TIP3    H133812   4.684   0.113   1.907 -0.3094  0.0923  0.4945
 4059TIP3    H233813   4.567   0.116   2.004 -0.8622 -0.5367 -0.1406
 4060TIP3   OH233814   6.567   4.478   2.000  0.1441 -0.4049  0.3954
 4060TIP3    H133815   6.654   4.456   1.966  0.5704  2.2848 -0.5218
 4060TIP3    H233816   6.585   4.543   2.068 -1.0742 -1.3959  1.7179
 4061TIP3   OH233817   6.296   0.303   8.494  0.2144  0.6201  0.0313
 4061TIP3    H133818   6.373   0.348   8.530  1.1929 -0.9928  0.0399
 4061TIP3    H233819   6.325   0.272   8.408  0.3774 -1.9804  0.9563
 4062TIP3   OH233820   5.227   0.479   8.831 -0.0126 -0.0305  0.3995
 4062TIP3    H133821   5.216   0.547   8.764  0.9590  0.7827  1.0326
 4062TIP3    H233822   5.228   0.527   8.914  1.5626 -0.7005  0.8054
 4063TIP3   OH233823   2.517   0.510   6.818  0.0239 -0.1521  0.0812
 4063TIP3    H133824   2.590   0.447   6.819  1.4631  1.4334  0.6608
 4063TIP3    H233825   2.448   0.466   6.769  2.1391 -0.8967 -2.4447
 4064TIP3   OH233826   5.455   3.876   0.400  0.1311  0.2138 -0.7257
 4064TIP3    H133827   5.410   3.961   0.395  1.4881  0.9454 -1.0471
 4064TIP3    H233828   5.510   3.874   0.321  2.5099  0.4667  0.8269
 4065TIP3   OH233829   6.473   3.311   8.555  0.1729  0.0799  0.1023
 4065TIP3    H133830   6.555   3.280   8.517  0.3369 -0.4774  0.8867
 4065TIP3    H233831   6.497   3.391   8.601  0.5627 -0.7393  1.3987
 4066TIP3   OH233832   2.798   3.894   8.260 -0.7132  0.2666  0.2118
 4066TIP3    H133833   2.762   3.818   8.215  0.6001 -0.2145 -0.0616
 4066TIP3    H233834   2.832   3.860   8.343 -0.1495  0.5600  0.1018
 4067TIP3   OH233835   5.623   2.429   1.627 -0.4294  0.6349  0.5525
 4067TIP3    H133836   5.580   2.459   1.706 -1.4059 -0.3139  0.4090
 4067TIP3    H233837   5.560   2.446   1.557 -1.1519 -1.8537  0.4964
 4068TIP3   OH233838   2.830   6.100   8.396  0.2703  0.9853 -0.0760
 4068TIP3    H133839   2.926   6.098   8.392  0.3469 -0.3792  1.3654
 4068TIP3    H233840   2.810   6.105   8.489 -1.0468 -0.1842 -0.2604
 4069TIP3   OH233841   1.063   4.925   8.068  0.3339 -0.2847  0.4114
 4069TIP3    H133842   1.055   4.830   8.062  1.3991 -0.3601 -0.1032
 4069TIP3    H233843   1.111   4.950   7.989  0.5842  0.6133  0.8322
 4070TIP3   OH233844   5.583   4.759   8.757 -0.4133 -0.2464  0.8445
 4070TIP3    H133845   5.564   4.666   8.750 -1.3400 -0.1031  1.3754
 4070TIP3    H233846   5.670   4.762   8.798  0.4328 -0.8790 -0.7759
 4071TIP3   OH233847   4.089   4.655   1.167 -0.6846  0.0910  0.4456
 4071TIP3    H133848   4.019   4.590   1.155 -0.0623 -0.3619 -0.8604
 4071TIP3    H233849   4.053   4.717   1.230 -2.1646 -0.2787  0.0026
 4072TIP3   OH233850   0.080   6.152   7.792 -0.2092  0.3683  0.0749
 4072TIP3    H133851   0.007   6.091   7.801  0.4390 -0.5093 -0.4705
 4072TIP3    H233852   0.155   6.097   7.767  0.8787  1.1089  1.5789
 4073TIP3   OH233853   3.461   3.977   6.379 -0.4381  0.1593 -0.3370
 4073TIP3    H133854   3.449   4.057   6.328 -0.3700  0.7159  0.4932
 4073TIP3    H233855   3.528   4.000   6.444 -0.7407 -0.4302  0.1960
 4074TIP3   OH233856   2.359   1.330   1.488  0.1061  0.3063 -0.6652
 4074TIP3    H133857   2.371   1.324   1.393 -1.0005 -2.7169 -0.7332
 4074TIP3    H233858   2.266   1.352   1.498  0.2065  0.5536 -0.2845
 4075TIP3   OH233859   1.363   1.500   8.243  0.3254  0.1877  1.0989
 4075TIP3    H133860   1.335   1.584   8.280 -1.4733  0.1819 -0.1246
 4075TIP3    H233861   1.405   1.523   8.160  0.9091 -0.0549  1.3203
 4076TIP3   OH233862   3.542   2.592   7.505 -0.4340  0.0072  0.1273
 4076TIP3    H133863   3.545   2.664   7.442  0.7094 -0.6592 -0.6153
 4076TIP3    H233864   3.632   2.584   7.536 -0.4355 -1.4736 -0.2202
 4077TIP3   OH233865   2.362   3.952   0.149  0.4833  0.3691  0.3132
 4077TIP3    H133866   2.343   4.001   0.229 -3.0689  0.2281 -0.2687
 4077TIP3    H233867   2.345   3.860   0.172 -2.1876  0.4686 -0.8625
 4078TIP3   OH233868   6.404   4.993   0.351 -0.8957 -0.1455 -0.1392
 4078TIP3    H133869   6.338   4.963   0.414 -1.5119  0.5201 -0.4611
 4078TIP3    H233870   6.441   5.071   0.390  0.6348 -1.2065  0.6418
 4079TIP3   OH233871   4.698   5.669   0.566 -0.1620  0.5224 -0.0637
 4079TIP3    H133872   4.614   5.655   0.523 -0.5434  1.5413  0.3300
 4079TIP3    H233873   4.703   5.598   0.631 -0.4713  0.1520 -0.4373
 4080TIP3   OH233874   4.380   1.516   7.879  0.3428  0.2880 -0.2325
 4080TIP3    H133875   4.468   1.535   7.912 -0.1285  0.8398  0.7713
 4080TIP3    H233876   4.332   1.598   7.891  0.0246  0.3865 -1.9783
 4081TIP3   OH233877   3.802   4.310   8.377  0.0011 -0.4821  0.0287
 4081TIP3    H133878   3.758   4.287   8.296 -0.2922  0.1187  0.0137
 4081TIP3    H233879   3.738   4.362   8.425 -0.2396 -1.7275  1.1342
 4082TIP3   OH233880   6.120   0.668   8.532 -0.4645  0.2302 -0.9789
 4082TIP3    H133881   6.165   0.601   8.583 -0.9132  0.4049 -0.3410
 4082TIP3    H233882   6.086   0.729   8.597 -1.0664  0.4443 -1.4830
 4083TIP3   OH233883   3.181   4.726   1.884  0.4159  0.1210 -0.2815
 4083TIP3    H133884   3.153   4.809   1.921  0.7715  0.7710 -1.4419
 4083TIP3    H233885   3.272   4.741   1.858  1.0205 -1.1296  0.9780
 4084TIP3   OH233886   6.517   6.310   8.831  0.2089 -0.4510  0.0422
 4084TIP3    H133887   6.581   6.340   8.767 -0.7233  1.4619 -0.0520
 4084TIP3    H233888   6.532   6.216   8.837  0.9618 -0.5432 -2.2655
 4085TIP3   OH233889   3.126   3.899   1.869 -0.3438 -0.0689 -0.0921
 4085TIP3    H133890   3.165   3.984   1.851  0.4119 -0.4034 -0.0624
 4085TIP3    H233891   3.132   3.851   1.786 -1.0045 -0.0100 -0.1829
 4086TIP3   OH233892   5.033   6.542   6.922  0.0335  1.0435 -0.2108
 4086TIP3    H133893   4.938   6.544   6.926 -0.2004 -1.7353 -2.0092
 4086TIP3    H233894   5.054   6.507   6.836  2.6010 -0.5190  0.9045
 4087TIP3   OH233895   2.884   0.314   8.710 -0.4473 -0.3439 -0.2747
 4087TIP3    H133896   2.946   0.370   8.663 -0.9235 -0.9320 -1.6229
 4087TIP3    H233897   2.804   0.317   8.658 -0.5045 -2.2390 -0.3532
 4088TIP3   OH233898   4.041   3.965   6.397  0.3898  0.0897  0.1623
 4088TIP3    H133899   4.085   3.911   6.332  0.1101 -0.7210  0.6385
 4088TIP3    H233900   4.106   4.030   6.423  0.9673 -0.4618  0.1083
 4089TIP3   OH233901   3.933   3.465   7.094 -0.6661 -0.0951 -0.3998
 4089TIP3    H133902   3.947   3.457   7.188 -1.4952 -0.1785 -0.2751
 4089TIP3    H233903   3.847   3.426   7.079 -1.0616  0.9499 -1.0193
 4090TIP3   OH233904   2.349   0.632   8.762  0.5890  0.5258  1.1454
 4090TIP3    H133905   2.427   0.626   8.707  0.0347 -1.1892  0.4756
 4090TIP3    H233906   2.287   0.683   8.710 -0.0796 -1.4336 -0.0955
 4091TIP3   OH233907   6.683   3.015   2.426 -0.5085 -0.1770 -0.1751
 4091TIP3    H133908   6.652   3.041   2.339  1.6466  0.6891 -0.7568
 4091TIP3    H233909   6.621   3.056   2.487 -2.7288 -1.7428 -1.2527
 4092TIP3   OH233910   2.024   6.695   0.044 -0.0386 -0.1340  0.0582
 4092TIP3    H133911   2.101   6.673   0.098  1.8797 -1.1040 -2.8398
 4092TIP3    H233912   2.057   6.758  -0.019 -1.5017 -0.9398 -1.5783
 4093TIP3   OH233913   4.694   2.445   7.846 -0.6749  0.0428  0.6924
 4093TIP3    H133914   4.754   2.374   7.867  1.1572  1.4610  0.5805
 4093TIP3    H233915   4.731   2.521   7.891 -2.0666  1.1141  0.0994
 4094TIP3   OH233916   4.378   0.214   8.229  0.0496  0.1042 -0.2673
 4094TIP3    H133917   4.346   0.166   8.305 -0.7661  0.3664 -0.4295
 4094TIP3    H233918   4.443   0.156   8.190  0.9803  0.2483  0.9943
 4095TIP3   OH233919   1.448   2.596   1.026 -0.5103  0.2630 -0.3214
 4095TIP3    H133920   1.373   2.540   1.006  0.4252 -1.2662  0.1974
 4095TIP3    H233921   1.482   2.622   0.940  0.1225 -1.5596 -0.6834
 4096TIP3   OH233922   1.046   3.504   7.252 -0.1099  0.5128 -0.3120
 4096TIP3    H133923   1.117   3.485   7.313  0.5439  1.7691 -0.6414
 4096TIP3    H233924   1.072   3.585   7.209 -1.2993  0.4911 -1.1402
 4097TIP3   OH233925   4.865   5.322   0.099  0.4408 -0.1489  0.2287
 4097TIP3    H133926   4.955   5.324   0.064  0.3078  0.5503 -0.0808
 4097TIP3    H233927   4.869   5.257   0.170  1.0893 -0.4366 -0.0605
 4098TIP3   OH233928   0.632   1.114   1.996 -0.3134  0.4311 -0.1945
 4098TIP3    H133929   0.582   1.038   1.965  0.5614 -0.1296 -0.2574
 4098TIP3    H233930   0.616   1.115   2.091 -1.5753  1.1074 -0.3886
 4099TIP3   OH233931   0.069   3.740   1.816  0.5286 -0.3858 -0.7533
 4099TIP3    H133932   0.119   3.665   1.786  0.4565 -0.3038 -1.0855
 4099TIP3    H233933  -0.021   3.708   1.822  0.7331 -0.7386  0.5660
 4100TIP3   OH233934   0.326   1.121   0.787  0.1053 -0.1985 -0.2402
 4100TIP3    H133935   0.315   1.108   0.692  0.5797 -1.8676 -0.0916
 4100TIP3    H233936   0.407   1.171   0.795 -0.1703  0.3398 -0.7336
 4101TIP3   OH233937   2.973   5.810   8.772 -0.1531  0.9676  0.2230
 4101TIP3    H133938   2.901   5.749   8.790 -0.0238  0.6663 -0.2856
 4101TIP3    H233939   2.973   5.820   8.677  0.4880  0.9578  0.2204
 4102TIP3   OH233940   1.909   4.481   8.352 -0.1877 -0.1411 -0.2173
 4102TIP3    H133941   1.965   4.474   8.429  0.6172  0.8853 -0.6835
 4102TIP3    H233942   1.955   4.432   8.284 -0.4368 -0.2788 -0.2880
 4103TIP3   OH233943   1.592   6.483   8.898  0.0576 -0.0503  0.1418
 4103TIP3    H133944   1.537   6.445   8.968  0.4456  0.1136  0.5397
 4103TIP3    H233945   1.671   6.512   8.943  0.7508 -0.8570 -0.5249
 4104TIP3   OH233946   2.201   4.672   8.250 -0.2532 -0.5683  0.2752
 4104TIP3    H133947   2.212   4.584   8.214 -0.1203 -0.4688  0.0696
 4104TIP3    H233948   2.290   4.700   8.274 -0.0005  0.2774 -1.4794
 4105TIP3   OH233949   2.920   4.483   1.315 -0.2907  0.0094 -0.3758
 4105TIP3    H133950   2.963   4.403   1.285  0.1406  0.2972 -0.5443
 4105TIP3    H233951   2.930   4.482   1.410  1.0792  0.6018 -0.4809
 4106TIP3   OH233952   0.159   0.207   1.494  0.4513 -0.0110  0.3487
 4106TIP3    H133953   0.230   0.142   1.500  1.7480  1.3344  0.2422
 4106TIP3    H233954   0.108   0.194   1.575  0.3854 -1.4570  0.1066
 4107TIP3   OH233955   1.110   0.707   0.828  0.2866 -0.2645 -0.1190
 4107TIP3    H133956   1.022   0.673   0.811  0.3822 -0.9556  0.7118
 4107TIP3    H233957   1.150   0.642   0.886  1.7252 -0.4995 -1.3111
 4108TIP3   OH233958   3.586   3.865   7.541 -0.2167  0.7781  0.4549
 4108TIP3    H133959   3.564   3.837   7.630  0.3923  0.4116  0.4955
 4108TIP3    H233960   3.661   3.811   7.517  0.5027  1.8437  0.2433
 4109TIP3   OH233961   3.360   3.464   1.693  0.6394 -0.7929  0.1528
 4109TIP3    H133962   3.375   3.501   1.606  1.2112  0.0941  0.6111
 4109TIP3    H233963   3.273   3.424   1.688  0.9711 -1.3942 -1.0310
 4110TIP3   OH233964   0.066   3.538   1.202 -0.5906  0.0211  0.1882
 4110TIP3    H133965  -0.013   3.576   1.164  0.8625  0.8131 -2.2460
 4110TIP3    H233966   0.109   3.611   1.247  1.0586  0.8883 -2.5637
 4111TIP3   OH233967   5.576   5.183   7.851 -0.1871  0.7964 -0.1026
 4111TIP3    H133968   5.577   5.164   7.945  0.5184  0.7405 -0.1149
 4111TIP3    H233969   5.484   5.194   7.830 -0.3582  0.7394  0.5849
 4112TIP3   OH233970   5.169   6.206   8.753 -0.2951  0.1700 -0.1712
 4112TIP3    H133971   5.080   6.234   8.732 -0.3768  1.1360  1.2874
 4112TIP3    H233972   5.158   6.141   8.822  0.1495  1.8563  1.5785
 4113TIP3   OH233973   3.479   1.878   7.336 -0.0072  0.4190 -0.1799
 4113TIP3    H133974   3.460   1.953   7.391  0.4768  0.0579  0.4948
 4113TIP3    H233975   3.531   1.914   7.263  0.1289  0.7496  0.0801
 4114TIP3   OH233976   4.875   4.390   8.713 -0.1500 -0.5434 -0.3078
 4114TIP3    H133977   4.817   4.408   8.639 -0.7089  0.7622  0.4167
 4114TIP3    H233978   4.846   4.306   8.747 -1.5284  0.0275 -0.0459
 4115TIP3   OH233979   5.650   2.647   8.801 -0.6382 -0.1859 -0.0307
 4115TIP3    H133980   5.624   2.602   8.721 -3.0735  1.2413 -0.1506
 4115TIP3    H233981   5.586   2.618   8.867 -0.1937  0.5170  0.7401
 4116TIP3   OH233982   2.033   2.658   2.249  0.0618 -0.2991 -0.1049
 4116TIP3    H133983   2.107   2.597   2.246  0.4440  0.0371  1.4181
 4116TIP3    H233984   2.056   2.719   2.319 -0.9693  0.7379 -0.6419
 4117TIP3   OH233985   5.656   6.347   6.710  0.2268  0.2660 -0.4473
 4117TIP3    H133986   5.700   6.297   6.641 -1.7274 -2.0913 -0.1260
 4117TIP3    H233987   5.563   6.330   6.696 -0.3277  1.3174  1.5911
 4118TIP3   OH233988   4.215   2.335   7.588  0.6482 -0.2032  0.0320
 4118TIP3    H133989   4.248   2.248   7.611 -0.1252 -0.6080 -0.3479
 4118TIP3    H233990   4.282   2.395   7.619  1.1305 -0.9300  0.4238
 4119TIP3   OH233991   5.806   0.260   7.837 -0.0202  0.0767  0.1169
 4119TIP3    H133992   5.855   0.322   7.783 -1.5532  0.2701 -1.1285
 4119TIP3    H233993   5.766   0.200   7.775 -0.8943 -0.4206  1.1181
 4120TIP3   OH233994   1.163   4.724   2.679  0.5875  0.1612  0.2890
 4120TIP3    H133995   1.181   4.815   2.657 -0.7795 -0.0388 -1.9839
 4120TIP3    H233996   1.079   4.726   2.723  1.1229  0.0924  1.3335
 4121TIP3   OH233997   6.048   3.593   7.781  0.0138  0.5444  0.0414
 4121TIP3    H133998   6.013   3.680   7.799 -0.8907 -0.3458  3.4757
 4121TIP3    H233999   5.972   3.542   7.753  0.2083  0.4806 -0.3726
 4122TIP3   OH234000   6.747   3.367   1.887 -0.0472  0.3034 -0.4941
 4122TIP3    H134001   6.824   3.312   1.902 -0.7516 -0.4559  0.4334
 4122TIP3    H234002   6.760   3.402   1.799  0.7895 -0.7452 -0.8159
 4123TIP3   OH234003   0.535   4.445   1.269 -0.0415 -0.3141 -0.2627
 4123TIP3    H134004   0.606   4.393   1.306 -1.0406 -1.2817  0.3624
 4123TIP3    H234005   0.563   4.465   1.180  1.3830  0.0523  0.2472
 4124TIP3   OH234006   2.858   2.246   8.540  0.4888 -0.0874 -0.0050
 4124TIP3    H134007   2.909   2.200   8.607 -0.3833 -0.5035  0.3900
 4124TIP3    H234008   2.863   2.338   8.565 -2.2742 -0.4619  2.4321
 4125TIP3   OH234009   5.184   0.114   6.881  0.0889  0.3982 -0.7335
 4125TIP3    H134010   5.247   0.042   6.892 -1.8007 -1.3730 -0.9351
 4125TIP3    H234011   5.219   0.185   6.936  2.5012 -0.3005 -1.2429
 4126TIP3   OH234012   2.229   6.266   2.032 -0.2606  0.1216 -0.0066
 4126TIP3    H134013   2.263   6.356   2.037  1.5695 -0.5135 -0.2890
 4126TIP3    H234014   2.257   6.225   2.114 -1.3262 -0.1384  0.2466
 4127TIP3   OH234015   3.577   1.311   6.835 -0.4730 -0.4935 -0.1356
 4127TIP3    H134016   3.559   1.328   6.743  0.5200  0.1734 -0.2274
 4127TIP3    H234017   3.606   1.395   6.870 -2.1147 -0.3988  1.1357
 4128TIP3   OH234018   0.351   0.800   7.766  0.4259  0.3996  0.2950
 4128TIP3    H134019   0.354   0.788   7.860  2.4495  0.9798  0.3626
 4128TIP3    H234020   0.357   0.895   7.754  0.8998  0.2940 -0.3957
 4129TIP3   OH234021   0.027   2.556   2.465  0.2309  0.0947 -0.4766
 4129TIP3    H134022  -0.023   2.600   2.534  2.8397  0.0325  1.6144
 4129TIP3    H234023   0.083   2.625   2.428  0.8726 -0.4557 -0.5560
 4130TIP3   OH234024   0.090   3.932   8.779  0.2925 -0.0202  0.1213
 4130TIP3    H134025   0.040   3.886   8.711  1.3695 -1.8963  0.5247
 4130TIP3    H234026   0.028   3.997   8.814 -0.5296  0.5187 -2.1069
 4131TIP3   OH234027   1.622   4.332   1.604  0.3923  0.6098 -0.4244
 4131TIP3    H134028   1.635   4.425   1.619 -0.5858  0.9490 -1.5339
 4131TIP3    H234029   1.655   4.317   1.515 -0.9023  0.2364 -0.8588
 4132TIP3   OH234030   6.110   2.045   0.608 -0.6189 -0.1883  0.0944
 4132TIP3    H134031   6.028   2.003   0.582 -0.3649 -0.4947 -0.2252
 4132TIP3    H234032   6.098   2.066   0.700 -1.0954 -0.1392  0.0244
 4133TIP3   OH234033   3.108   2.637   0.287  0.5084  0.3430  0.1622
 4133TIP3    H134034   3.114   2.542   0.301  1.1150  0.4157  0.4370
 4133TIP3    H234035   3.027   2.649   0.238 -0.1035 -0.2244  1.0040
 4134TIP3   OH234036   4.948   6.432   0.850  0.2735  0.4159 -0.5820
 4134TIP3    H134037   4.871   6.486   0.832 -0.7410 -1.0457 -0.8329
 4134TIP3    H234038   5.009   6.490   0.896 -0.9531  1.6219 -0.4398
 4135TIP3   OH234039   0.366   1.661   7.823  0.1133 -0.2480 -0.2219
 4135TIP3    H134040   0.275   1.688   7.807  0.1892  0.0201 -0.1855
 4135TIP3    H234041   0.416   1.698   7.751  0.3841  0.5850  0.3862
 4136TIP3   OH234042   1.444   3.872   1.567  0.1538 -0.5501 -0.3073
 4136TIP3    H134043   1.518   3.823   1.605  0.3311 -1.9737 -2.3438
 4136TIP3    H234044   1.466   3.964   1.583  1.5760 -1.0040  0.5473
 4137TIP3   OH234045   6.634   0.375   2.417  0.1688 -0.2914 -0.0462
 4137TIP3    H134046   6.549   0.411   2.393 -0.2742 -0.7797  0.7790
 4137TIP3    H234047   6.657   0.419   2.499  0.0022 -1.2504  0.5326
 4138TIP3   OH234048   1.289   0.475   1.625  0.3033 -0.4065  0.0992
 4138TIP3    H134049   1.297   0.570   1.614 -1.1326 -0.3303 -0.5054
 4138TIP3    H234050   1.296   0.462   1.720 -2.1083  0.6282  0.4793
 4139TIP3   OH234051   5.490   3.040   7.613 -0.1918  0.8013 -0.3853
 4139TIP3    H134052   5.506   3.132   7.637  0.4717  0.7028 -0.4348
 4139TIP3    H234053   5.573   3.010   7.578 -0.1029 -0.1231  0.5761
 4140TIP3   OH234054   0.140   5.289   6.652 -0.1285 -0.2765  0.4151
 4140TIP3    H134055   0.116   5.225   6.720  3.0186  0.5988  2.5612
 4140TIP3    H234056   0.203   5.242   6.596 -0.3345 -0.0362 -0.0216
 4141TIP3   OH234057   5.889   2.926   1.389  0.3045  0.3507 -0.2054
 4141TIP3    H134058   5.838   2.863   1.441 -0.5096  0.6675 -0.5966
 4141TIP3    H234059   5.855   3.012   1.415  0.0587  0.5268 -1.0601
 4142TIP3   OH234060   6.026   0.952   2.069  0.0818 -0.1984 -0.0931
 4142TIP3    H134061   6.035   0.857   2.072  1.1859 -0.0928  0.5311
 4142TIP3    H234062   5.937   0.969   2.100 -0.1930 -1.0281 -0.4031
 4143TIP3   OH234063   1.814   2.505   1.284 -0.6746  0.1938  0.1950
 4143TIP3    H134064   1.770   2.581   1.246  0.4684  1.0453  0.5135
 4143TIP3    H234065   1.755   2.475   1.352 -1.1919  0.7329 -0.0045
 4144TIP3   OH234066   1.573   3.789   8.278 -1.1386 -0.0051 -0.2422
 4144TIP3    H134067   1.542   3.856   8.339  1.7553  2.1758 -0.9086
 4144TIP3    H234068   1.511   3.792   8.205 -2.0990  0.6302  0.5845
 4145TIP3   OH234069   4.997   1.913   7.460  0.8994  0.6992 -0.0619
 4145TIP3    H134070   5.079   1.953   7.430  1.0554 -1.1361 -2.4023
 4145TIP3    H234071   4.929   1.975   7.433  1.3301  0.7315 -1.1566
 4146TIP3   OH234072   1.104   1.756   2.531  0.0350  0.6180 -0.0960
 4146TIP3    H134073   1.015   1.767   2.563  0.4997  1.4828  0.9651
 4146TIP3    H234074   1.148   1.705   2.600  0.4605  0.5039 -0.4444
 4147TIP3   OH234075   5.290   2.890   7.725  0.3309 -0.1674  0.0381
 4147TIP3    H134076   5.213   2.946   7.729 -1.1750 -1.9664 -1.7094
 4147TIP3    H234077   5.360   2.948   7.694 -0.5444  1.2496  0.5955
 4148TIP3   OH234078   3.491   4.372   6.096 -0.4716 -0.6302  0.2252
 4148TIP3    H134079   3.542   4.347   6.019 -0.2902 -1.1801  0.5226
 4148TIP3    H234080   3.508   4.303   6.160  0.6962  0.6554  1.3678
 4149TIP3   OH234081   2.330   1.134   8.734  0.2062 -0.6844 -0.8864
 4149TIP3    H134082   2.239   1.165   8.734 -0.1536 -1.6135  0.9883
 4149TIP3    H234083   2.381   1.211   8.708 -1.1393 -0.4043 -2.9335
 4150TIP3   OH234084   4.993   2.064   8.392 -0.4913 -0.2944  0.2092
 4150TIP3    H134085   5.086   2.050   8.377 -0.7896 -1.0819 -1.0623
 4150TIP3    H234086   4.989   2.125   8.466  1.0458  0.6873 -0.4591
 4151TIP3   OH234087   3.578   1.805   1.056 -0.1452  0.7200  0.1838
 4151TIP3    H134088   3.579   1.881   1.114  0.1736 -0.0713  1.2561
 4151TIP3    H234089   3.520   1.743   1.100 -0.0830  0.1957 -0.4691
 4152TIP3   OH234090   6.664   4.510   7.516 -0.6681 -0.0868  0.3149
 4152TIP3    H134091   6.724   4.467   7.576  1.1683  0.0598 -1.3075
 4152TIP3    H234092   6.646   4.444   7.448 -1.3002  0.3130  0.0764
 4153TIP3   OH234093   0.049   3.910   2.043 -0.1523 -0.3686 -0.0971
 4153TIP3    H134094  -0.042   3.939   2.056  0.5979  1.6290  1.0911
 4153TIP3    H234095   0.041   3.836   1.983 -2.9320 -2.9903  3.0690
 4154TIP3   OH234096   3.122   2.205   0.906  0.2604  0.2809  0.0468
 4154TIP3    H134097   3.180   2.130   0.914 -0.6913 -0.5447 -0.5648
 4154TIP3    H234098   3.072   2.205   0.988 -1.6916 -1.4870 -1.0344
 4155TIP3   OH234099   1.298   6.432   1.055  0.1749  0.5108 -0.6117
 4155TIP3    H134100   1.322   6.465   1.141 -1.4976  0.7321 -0.1876
 4155TIP3    H234101   1.225   6.487   1.027 -0.4575 -0.6578 -1.3786
 4156TIP3   OH234102   4.914   6.151   7.666 -0.5081  0.3786  0.6900
 4156TIP3    H134103   4.829   6.116   7.641 -0.4515  1.1436 -0.6872
 4156TIP3    H234104   4.976   6.081   7.645 -0.7565 -0.0822  1.4539
 4157TIP3   OH234105   2.248   2.372   1.039 -0.3228  0.0472 -0.2038
 4157TIP3    H134106   2.203   2.449   1.074  0.0893 -0.4366  1.5267
 4157TIP3    H234107   2.185   2.300   1.051  0.2221 -0.3183  0.6252
 4158TIP3   OH234108   4.226   0.918   1.802  0.1854 -0.3736 -0.2638
 4158TIP3    H134109   4.216   0.839   1.854 -0.4171 -0.8505 -1.0833
 4158TIP3    H234110   4.191   0.988   1.858 -0.2787 -0.8449  0.0442
 4159TIP3   OH234111   1.262   3.408   7.406  0.6555 -0.0834 -0.3609
 4159TIP3    H134112   1.342   3.399   7.354  1.6888 -0.5814  1.2441
 4159TIP3    H234113   1.268   3.338   7.472 -0.7459  0.3356  0.2519
 4160TIP3   OH234114   5.675   5.318   1.651 -0.3994  0.1543 -0.2267
 4160TIP3    H134115   5.719   5.249   1.700  1.4650  1.2838 -0.1840
 4160TIP3    H234116   5.582   5.295   1.652  0.2004 -2.5595 -0.6014
 4161TIP3   OH234117   3.151   5.127   6.619  0.5470 -0.2017 -0.6419
 4161TIP3    H134118   3.071   5.178   6.605  1.1268  1.4812  1.5754
 4161TIP3    H234119   3.166   5.083   6.536 -2.0133  0.3778 -1.5062
 4162TIP3   OH234120   1.441   5.091   7.001  0.2258  0.6622  0.3972
 4162TIP3    H134121   1.495   5.068   7.077 -0.4329 -2.5403  0.0449
 4162TIP3    H234122   1.501   5.085   6.927  0.0100 -0.3024  0.2832
 4163TIP3   OH234123   1.061   0.372   1.817  0.0867 -0.4268  0.2982
 4163TIP3    H134124   1.145   0.373   1.863 -0.3801 -1.3851  1.2330
 4163TIP3    H234125   0.997   0.398   1.884 -0.4289 -0.2522 -0.2535
 4164TIP3   OH234126   1.004   3.217   6.665  0.3313 -0.4418 -0.2806
 4164TIP3    H134127   0.952   3.291   6.633 -1.1054 -0.8554  0.9547
 4164TIP3    H234128   1.047   3.250   6.744  1.0532 -0.4452 -0.6639
 4165TIP3   OH234129   1.747   2.168   0.528  0.1308  0.5071 -0.5906
 4165TIP3    H134130   1.743   2.199   0.437 -0.5992 -0.4439 -0.8978
 4165TIP3    H234131   1.790   2.082   0.522 -1.6986 -0.4650 -0.3134
 4166TIP3   OH234132   4.333   1.961   0.099 -0.0654  0.0968 -0.6886
 4166TIP3    H134133   4.334   2.010   0.017 -0.9657  1.7214  0.2136
 4166TIP3    H234134   4.398   2.004   0.153 -0.6844  0.1524  0.0310
 4167TIP3   OH234135   3.234   6.438   0.999  0.2274 -0.2926  0.1052
 4167TIP3    H134136   3.233   6.346   1.027  0.7744 -0.1143  0.7218
 4167TIP3    H234137   3.325   6.454   0.972  0.0715 -0.0039 -0.2670
 4168TIP3   OH234138   4.857   2.242   7.889 -0.2514  0.1220 -0.6320
 4168TIP3    H134139   4.858   2.156   7.847 -0.0731  0.4905 -1.3983
 4168TIP3    H234140   4.948   2.272   7.884 -0.1664  0.0341  0.3135
 4169TIP3   OH234141   1.659   2.804   8.472 -0.2603  0.0961 -0.2397
 4169TIP3    H134142   1.648   2.896   8.498  0.0624 -0.0643  0.5135
 4169TIP3    H234143   1.571   2.772   8.455 -0.4341  0.3685  0.1407
 4170TIP3   OH234144   1.529   1.607   8.053  0.1089 -0.1262 -0.4066
 4170TIP3    H134145   1.594   1.663   8.096 -2.0879  1.1400  1.4641
 4170TIP3    H234146   1.460   1.667   8.025 -0.7652 -1.5456 -1.4375
 4171TIP3   OH234147   0.471   5.664   7.217 -0.1185 -0.1672  0.2171
 4171TIP3    H134148   0.517   5.741   7.251  0.0696 -0.5845  0.9231
 4171TIP3    H234149   0.537   5.595   7.217 -0.9178 -1.0143  2.1042
 4172TIP3   OH234150   3.852   5.203   7.796  0.7684  0.6103 -0.4238
 4172TIP3    H134151   3.758   5.211   7.816  0.4357  0.2536 -1.7225
 4172TIP3    H234152   3.893   5.185   7.880 -0.0008  3.2167  0.6066
 4173TIP3   OH234153   5.014   3.696   0.643  0.1779 -0.5441  0.5957
 4173TIP3    H134154   5.095   3.702   0.692 -0.2501 -0.1406  1.2578
 4173TIP3    H234155   4.977   3.784   0.645 -0.6968 -0.9131  1.0265
 4174TIP3   OH234156   5.458   2.183   8.791  0.1615  0.0440 -0.5193
 4174TIP3    H134157   5.512   2.118   8.746  0.8183  1.4066 -1.7849
 4174TIP3    H234158   5.378   2.135   8.815  1.0090 -1.4546 -0.5494
 4175TIP3   OH234159   4.115   3.200   1.267  0.1738 -0.3714 -0.3333
 4175TIP3    H134160   4.058   3.245   1.329  0.7770 -0.0049 -0.0377
 4175TIP3    H234161   4.055   3.147   1.215 -0.0487 -3.8921  3.0949
 4176TIP3   OH234162   0.020   4.916   1.397 -0.3009 -0.1445 -0.2746
 4176TIP3    H134163   0.002   4.979   1.327  0.0470  1.6279  1.1706
 4176TIP3    H234164   0.041   4.835   1.351 -1.0544  0.6883 -2.1966
 4177TIP3   OH234165   0.313   3.027   7.839 -0.2750  0.0865 -0.0305
 4177TIP3    H134166   0.251   3.080   7.888 -1.1746  0.0008 -1.0464
 4177TIP3    H234167   0.399   3.055   7.871 -0.8089 -1.1533  2.8151
 4178TIP3   OH234168   6.403   2.489   6.687  0.7143 -0.0357  0.9854
 4178TIP3    H134169   6.371   2.578   6.671  0.5024 -0.5797 -2.4946
 4178TIP3    H234170   6.498   2.496   6.677  0.5751 -0.3915 -1.2146
 4179TIP3   OH234171   0.763   6.482   1.745 -0.5047  0.1467  0.6532
 4179TIP3    H134172   0.752   6.429   1.824  2.6249 -1.0905  0.4188
 4179TIP3    H234173   0.788   6.569   1.778 -1.1795  0.2121  1.0110
 4180TIP3   OH234174   3.357   2.873   8.477  0.0446  0.0690  0.6533
 4180TIP3    H134175   3.330   2.844   8.565  0.6482  0.9834  1.1571
 4180TIP3    H234176   3.452   2.857   8.475  0.2163  1.0470  0.5783
 4181TIP3   OH234177   0.020   6.462   7.316 -0.3540 -0.4422  0.3933
 4181TIP3    H134178   0.004   6.443   7.409  0.7993 -3.7493  0.0648
 4181TIP3    H234179  -0.041   6.405   7.269 -0.5031  0.7473 -0.9228
 4182TIP3   OH234180   5.982   5.323   8.588  0.6604  0.0458 -0.0232
 4182TIP3    H134181   5.895   5.335   8.551  0.2203 -1.2728  0.5358
 4182TIP3    H234182   6.041   5.332   8.513 -0.1241 -1.2443 -0.8335
 4183TIP3   OH234183   3.555   0.876   6.666  0.4464 -0.0820  0.0594
 4183TIP3    H134184   3.464   0.848   6.677  1.1335 -3.2385 -1.2912
 4183TIP3    H234185   3.550   0.954   6.612 -1.4758  0.4166  0.8721
 4184TIP3   OH234186   5.860   4.478   6.445 -0.7358  0.6382  0.5359
 4184TIP3    H134187   5.837   4.424   6.520  0.4028  1.2200  1.3362
 4184TIP3    H234188   5.945   4.443   6.416 -0.6848  1.0641  0.1567
 4185TIP3   OH234189   2.126   4.607   0.311  0.2269  0.3640 -0.0109
 4185TIP3    H134190   2.085   4.538   0.363 -0.7481  0.1024 -1.0901
 4185TIP3    H234191   2.083   4.687   0.338 -1.3706  0.0402 -1.4386
 4186TIP3   OH234192   3.931   0.111   0.012 -0.0029 -0.4828  0.2968
 4186TIP3    H134193   3.908   0.203  -0.003  1.2311 -0.1390  0.4328
 4186TIP3    H234194   3.869   0.082   0.079 -0.0820  0.3989  0.6138
 4187TIP3   OH234195   3.203   5.450   8.451  0.2061  0.4174 -0.1562
 4187TIP3    H134196   3.241   5.529   8.489 -0.7115  1.2422 -0.8728
 4187TIP3    H234197   3.110   5.472   8.439 -0.0408 -0.7242 -0.4876
 4188TIP3   OH234198   0.243   1.839   8.391  0.1607 -0.7430  0.6009
 4188TIP3    H134199   0.169   1.899   8.380 -0.1954 -0.9281  1.7821
 4188TIP3    H234200   0.307   1.868   8.327 -0.3694  0.3394  0.5280
 4189TIP3   OH234201   1.760   5.489   0.283  0.1394  0.7686  0.2680
 4189TIP3    H134202   1.785   5.397   0.273 -2.0699 -0.2454  2.7618
 4189TIP3    H234203   1.818   5.521   0.352 -0.0710  0.7895  0.4357
 4190TIP3   OH234204   6.528   1.532   2.277 -0.3018 -0.5307 -0.3100
 4190TIP3    H134205   6.620   1.538   2.303 -0.1433 -2.5151 -0.2843
 4190TIP3    H234206   6.480   1.567   2.351  0.3387 -2.1663  0.9437
 4191TIP3   OH234207   2.664   2.326   0.184 -0.5489 -0.1462 -0.3536
 4191TIP3    H134208   2.720   2.387   0.136 -0.5606 -0.9287 -1.3924
 4191TIP3    H234209   2.578   2.369   0.186 -1.1909 -1.0674 -3.1437
 4192TIP3   OH234210   0.320   5.122   1.159 -0.0965  0.4207  0.7918
 4192TIP3    H134211   0.364   5.206   1.145  0.9519  0.0593  1.7619
 4192TIP3    H234212   0.235   5.145   1.195 -0.4286  1.1082 -0.3905
 4193TIP3   OH234213   3.185   3.362   7.478 -0.0031  0.1203  0.0215
 4193TIP3    H134214   3.118   3.363   7.546  0.5499  1.7015  0.5889
 4193TIP3    H234215   3.155   3.295   7.415 -1.2054 -0.4073  1.1168
 4194TIP3   OH234216   0.179   5.719   7.348 -0.2606  0.0381  0.2543
 4194TIP3    H134217   0.161   5.769   7.429 -0.6812 -0.5068  0.5047
 4194TIP3    H234218   0.242   5.653   7.374 -1.8295 -1.3938  0.6366
 4195TIP3   OH234219   4.971   2.929   1.214  0.1894  0.7758  0.5158
 4195TIP3    H134220   4.894   2.875   1.230  1.4463 -0.7263  1.9851
 4195TIP3    H234221   4.977   2.985   1.292  2.9215 -2.2469  2.7792
 4196TIP3   OH234222   6.333   5.294   0.709  0.1168  0.9512  0.1252
 4196TIP3    H134223   6.336   5.354   0.784 -0.2264  1.9410 -0.6325
 4196TIP3    H234224   6.378   5.215   0.740  1.9889  2.1614  0.6232
 4197TIP3   OH234225   0.440   3.093   8.470  0.2993  0.1797 -0.2681
 4197TIP3    H134226   0.353   3.055   8.465 -0.4597  1.7687  0.1223
 4197TIP3    H234227   0.495   3.024   8.507 -0.9671 -0.5931  0.2186
 4198TIP3   OH234228   6.329   1.283   0.439  0.1506 -0.0520 -0.3644
 4198TIP3    H134229   6.242   1.273   0.479  0.6390 -0.5886  0.5913
 4198TIP3    H234230   6.322   1.364   0.388 -1.1872 -0.5673 -1.0618
 4199TIP3   OH234231   4.414   0.605   1.306 -0.0875  0.2197 -0.1325
 4199TIP3    H134232   4.402   0.582   1.398 -0.5731  0.2054 -0.2000
 4199TIP3    H234233   4.341   0.563   1.261  1.1449 -1.3300 -0.7818
 4200TIP3   OH234234   3.751   1.512   2.206 -0.2959 -0.6373 -0.1090
 4200TIP3    H134235   3.667   1.538   2.169  0.5963  1.4707 -0.8296
 4200TIP3    H234236   3.766   1.574   2.278  0.2090 -1.6192  0.6625
 4201TIP3   OH234237   1.685   0.638   7.308  1.0015  0.2371  0.3645
 4201TIP3    H134238   1.679   0.552   7.350 -0.0205 -0.1082 -0.4342
 4201TIP3    H234239   1.658   0.700   7.375 -0.4851 -0.2870  0.2857
 4202TIP3   OH234240   1.981   0.401   2.001  0.2388  0.7218 -0.0126
 4202TIP3    H134241   2.058   0.347   2.020  0.7350  1.9728  1.7520
 4202TIP3    H234242   2.009   0.459   1.931 -0.3752 -1.3692 -2.1056
 4203TIP3   OH234243   5.163   0.899   0.002 -0.2309 -0.1677 -0.3633
 4203TIP3    H134244   5.229   0.968   0.001 -0.3881 -0.0168 -0.4517
 4203TIP3    H234245   5.191   0.838  -0.065  0.1377 -0.4073  0.0080
 4204TIP3   OH234246   3.110   3.296   1.778  0.1272 -0.3205  0.0969
 4204TIP3    H134247   3.144   3.209   1.755  0.1436 -0.2974  0.0336
 4204TIP3    H234248   3.067   3.283   1.862 -2.0515 -0.9275 -1.0499
 4205TIP3   OH234249   3.510   0.925   1.262  0.6070 -0.0155  0.2625
 4205TIP3    H134250   3.472   0.849   1.218  2.0731 -0.1701 -0.8058
 4205TIP3    H234251   3.591   0.892   1.300  1.0503  0.9130  0.1522
 4206TIP3   OH234252   5.296   4.349   1.573  0.1363  0.1414  0.3193
 4206TIP3    H134253   5.210   4.392   1.569  0.1458  0.0466 -2.1891
 4206TIP3    H234254   5.354   4.416   1.610 -0.7174  0.6742  0.7433
 4207TIP3   OH234255   2.978   5.227   0.728 -0.3648  0.0339 -0.6821
 4207TIP3    H134256   2.935   5.295   0.676 -3.2083 -0.6380  0.5741
 4207TIP3    H234257   2.915   5.206   0.797  2.1680 -0.8912  1.5661
 4208TIP3   OH234258   5.958   4.570   8.227  0.0705  0.1832  0.0681
 4208TIP3    H134259   5.994   4.544   8.142 -0.0610 -2.0675  0.6431
 4208TIP3    H234260   5.880   4.516   8.237 -1.5958  2.5087  0.3767
 4209TIP3   OH234261   3.463   6.049   0.977  0.7373  0.0212  0.0693
 4209TIP3    H134262   3.522   6.121   0.957 -0.5812  0.8418 -1.0844
 4209TIP3    H234263   3.518   5.971   0.973  1.7784  0.7699 -0.8630
 4210TIP3   OH234264   4.573   1.667   6.617 -0.0896  0.1367  0.5689
 4210TIP3    H134265   4.522   1.596   6.655  0.8697 -0.2467  1.1739
 4210TIP3    H234266   4.660   1.659   6.657  0.4605  0.7610 -0.4440
 4211TIP3   OH234267   4.084   5.082   1.716  0.5468 -0.0280 -0.4653
 4211TIP3    H134268   4.148   5.150   1.697 -0.2931  0.9544  0.0648
 4211TIP3    H234269   4.090   5.070   1.811 -0.0113  0.0503 -0.4156
 4212TIP3   OH234270   3.793   4.013   8.705  0.4990 -0.1055 -0.2394
 4212TIP3    H134271   3.727   4.056   8.652 -0.2291 -0.7580  0.1215
 4212TIP3    H234272   3.854   3.975   8.641  0.8762  1.0121 -0.5634
 4213TIP3   OH234273   1.318   4.977   2.660 -0.0597  0.1284  0.0027
 4213TIP3    H134274   1.380   5.043   2.632  0.8192 -0.0894  1.3587
 4213TIP3    H234275   1.238   5.025   2.679 -0.2084  0.4609 -1.3493
 4214TIP3   OH234276   4.503   6.640   0.275  0.3299 -0.0345 -0.2474
 4214TIP3    H134277   4.498   6.731   0.244  0.6352  0.1179  0.1544
 4214TIP3    H234278   4.596   6.621   0.279  0.3186  0.1317  1.1226
 4215TIP3   OH234279   6.686   2.075   0.592  0.1518 -0.1044 -0.3882
 4215TIP3    H134280   6.769   2.031   0.611  0.4347  0.8380  0.7018
 4215TIP3    H234281   6.691   2.097   0.499  1.7193  1.1125 -0.0466
 4216TIP3   OH234282   4.954   4.283   0.535  0.2048 -0.1554 -0.3239
 4216TIP3    H134283   5.005   4.363   0.523  0.4225 -0.4085 -1.1807
 4216TIP3    H234284   4.922   4.262   0.447 -0.3513 -0.6830 -0.0068
 4217TIP3   OH234285   3.289   6.144   1.268  0.6006  0.3349 -0.5897
 4217TIP3    H134286   3.233   6.066   1.267 -1.5594  1.8011 -0.9107
 4217TIP3    H234287   3.372   6.113   1.305 -0.3936 -1.9559 -0.0793
 4218TIP3   OH234288   5.541   2.451   6.943 -0.1427  0.1359 -0.7521
 4218TIP3    H134289   5.613   2.428   7.002 -0.4409 -0.1655 -0.4992
 4218TIP3    H234290   5.545   2.546   6.934  2.0741 -0.0672 -3.0250
 4219TIP3   OH234291   4.506   0.725   0.459  0.0594  0.2079 -0.3109
 4219TIP3    H134292   4.557   0.703   0.381 -1.4999 -2.1331 -0.8070
 4219TIP3    H234293   4.416   0.734   0.426 -0.5066 -0.0851  1.0870
 4220TIP3   OH234294   4.212   6.542   7.445 -0.1248  0.2290 -0.2531
 4220TIP3    H134295   4.124   6.573   7.465  0.0087  1.5644 -1.5726
 4220TIP3    H234296   4.217   6.455   7.485 -3.0025 -1.1343 -2.5126
 4221TIP3   OH234297   4.934   0.656   7.631  0.2606  0.0562  0.2287
 4221TIP3    H134298   4.875   0.701   7.571 -0.2654  0.1546  0.8026
 4221TIP3    H234299   4.945   0.718   7.704  2.4880  0.7893 -0.6461
 4222TIP3   OH234300   5.061   2.718   8.261 -0.0797  0.1864  0.0709
 4222TIP3    H134301   5.073   2.762   8.177 -1.4336 -1.4220 -1.0336
 4222TIP3    H234302   5.004   2.777   8.311  0.0802  0.7868 -0.4504
 4223TIP3   OH234303   6.619   1.941   1.122 -0.0578  0.3608  0.1319
 4223TIP3    H134304   6.687   1.873   1.124  0.4592  0.6953 -2.6073
 4223TIP3    H234305   6.668   2.022   1.109 -0.7655  1.1710  2.1419
 4224TIP3   OH234306   2.804   6.628   1.607  0.0460  0.0234  0.4301
 4224TIP3    H134307   2.893   6.618   1.573 -0.3198 -0.4813 -0.4216
 4224TIP3    H234308   2.768   6.540   1.606 -0.4304  0.2090  0.8681
 4225TIP3   OH234309   2.964   5.907   0.404  0.4418  0.0331  0.3391
 4225TIP3    H134310   3.022   5.849   0.355  0.3989  0.0109  0.3159
 4225TIP3    H234311   2.902   5.941   0.339  0.2629 -0.1475  0.4154
 4226TIP3   OH234312   5.415   5.977   0.588 -0.3920  0.1872  0.0978
 4226TIP3    H134313   5.334   5.970   0.538  0.1998 -0.2320 -0.8154
 4226TIP3    H234314   5.456   5.891   0.581 -0.2912  0.1222  1.3069
 4227TIP3   OH234315   6.727   5.626   2.467  0.4069  0.0204  0.0059
 4227TIP3    H134316   6.686   5.668   2.543 -0.6280 -0.6301 -0.1585
 4227TIP3    H234317   6.810   5.671   2.456 -0.3021  1.4820  0.3182
 4228TIP3   OH234318   0.750   1.143   8.444  0.4621  0.3553  0.7319
 4228TIP3    H134319   0.783   1.068   8.493  0.1000 -1.8700 -2.1040
 4228TIP3    H234320   0.827   1.180   8.401  0.2862 -0.2036 -0.0871
 4229TIP3   OH234321   3.611   0.989   0.888 -0.6061  0.0557 -0.7740
 4229TIP3    H134322   3.519   0.993   0.864 -0.6032 -1.3655 -1.0863
 4229TIP3    H234323   3.626   0.898   0.911  0.8968  0.1087 -1.4356
 4230TIP3   OH234324   4.091   4.993   8.164  0.2296  0.2603  0.3841
 4230TIP3    H134325   4.096   4.985   8.259  0.0282 -0.5416  0.3411
 4230TIP3    H234326   3.999   5.014   8.146  0.1121 -0.2742  0.3361
 4231TIP3   OH234327   6.294   0.224   7.994 -0.4688  0.0441 -0.0105
 4231TIP3    H134328   6.335   0.253   8.075  1.7008 -0.8892 -0.6960
 4231TIP3    H234329   6.281   0.304   7.943 -0.1254  0.4443  0.5272
 4232TIP3   OH234330   4.490   1.167   7.481  0.0828 -0.1506 -0.3148
 4232TIP3    H134331   4.404   1.172   7.523  0.2250  0.8201 -0.1258
 4232TIP3    H234332   4.471   1.154   7.389 -0.2683 -0.1390 -0.2463
 4233TIP3   OH234333   5.618   6.591   0.909 -0.4753  0.2704 -0.3058
 4233TIP3    H134334   5.620   6.564   0.817  1.1816 -1.6972  0.2455
 4233TIP3    H234335   5.616   6.510   0.958 -2.3104  1.2910  1.4665
 4234TIP3   OH234336   0.235   1.671   2.593  0.0199  0.0780 -0.2318
 4234TIP3    H134337   0.295   1.746   2.587 -0.2198  0.3908  0.9735
 4234TIP3    H234338   0.187   1.673   2.510  1.4370  0.0031 -1.0906
 4235TIP3   OH234339   5.744   1.456   8.394  0.0401  0.4534  0.0627
 4235TIP3    H134340   5.753   1.425   8.484  0.5496  0.2145 -0.0690
 4235TIP3    H234341   5.822   1.511   8.380  0.2414  0.0531 -0.4084
 4236TIP3   OH234342   0.112   1.993   7.546 -0.2018 -0.3957  0.3680
 4236TIP3    H134343   0.107   2.087   7.560 -0.8926 -0.3349 -0.2212
 4236TIP3    H234344   0.092   1.955   7.631 -0.3407 -0.0144  0.5056
 4237TIP3   OH234345   0.158   1.547   2.019 -0.1421  0.1092 -0.0865
 4237TIP3    H134346   0.068   1.514   2.013  0.0317 -0.4068  0.0967
 4237TIP3    H234347   0.199   1.517   1.938 -0.7481  2.2978 -1.2942
 4238TIP3   OH234348   1.809   0.628   1.096  0.8685  0.1321  0.1207
 4238TIP3    H134349   1.869   0.671   1.157  0.1022  1.0022  0.2902
 4238TIP3    H234350   1.782   0.698   1.036  0.7173 -0.4516 -0.5013
 4239TIP3   OH234351   5.376   2.635   2.071  0.0857 -0.0665  0.3835
 4239TIP3    H134352   5.328   2.603   2.147 -2.2901  0.2074 -0.9018
 4239TIP3    H234353   5.320   2.703   2.034  1.6226  0.4755 -1.0903
 4240TIP3   OH234354   1.522   6.599   1.182 -0.0186  0.3473 -0.3284
 4240TIP3    H134355   1.457   6.651   1.134  1.2946  1.9671 -0.4380
 4240TIP3    H234356   1.604   6.645   1.168  0.7409 -0.2562  1.8528
 4241TIP3   OH234357   2.322   2.948   1.311  0.4961 -0.3859  0.2722
 4241TIP3    H134358   2.241   2.997   1.321  0.3235 -0.6620  0.2413
 4241TIP3    H234359   2.377   2.977   1.384 -0.0942 -1.0878  1.0185
 4242TIP3   OH234360   2.388   2.703   1.721 -0.1695 -0.9136 -0.1738
 4242TIP3    H134361   2.366   2.656   1.801  1.7865  0.8231  1.4903
 4242TIP3    H234362   2.484   2.696   1.715  0.0293  1.4839 -0.6974
 4243TIP3   OH234363   4.237   5.813   8.889  0.8886 -0.0160 -0.3154
 4243TIP3    H134364   4.318   5.785   8.845  0.4065 -2.3757  0.1571
 4243TIP3    H234365   4.258   5.900   8.923  2.7083  0.0771 -1.4805
 4244TIP3   OH234366   3.933   4.867   6.203 -0.3802  0.2333  0.9923
 4244TIP3    H134367   3.877   4.840   6.275 -0.7156 -0.4015  0.5024
 4244TIP3    H234368   3.980   4.944   6.236 -0.5010 -0.0759  1.8896
 4245TIP3   OH234369   3.937   1.511   6.665 -0.0329 -0.1907  0.0250
 4245TIP3    H134370   4.009   1.472   6.614  0.8062 -0.6180  1.4845
 4245TIP3    H234371   3.858   1.479   6.622  0.6493 -0.8867 -0.7609
 4246TIP3   OH234372   4.073   1.951   2.188  0.6308  0.4919  0.0720
 4246TIP3    H134373   4.054   2.037   2.151  1.5639  0.3502 -0.7808
 4246TIP3    H234374   3.987   1.908   2.194  0.2151  1.3058  0.0720
 4247TIP3   OH234375   3.818   1.669   8.316  0.3756 -0.2919  0.4807
 4247TIP3    H134376   3.764   1.592   8.335 -0.2215  0.1258  0.5022
 4247TIP3    H234377   3.897   1.634   8.277 -0.0269 -0.9010  0.1984
 4248TIP3   OH234378   0.093   2.434   1.117  0.5258 -0.0138 -0.4973
 4248TIP3    H134379   0.040   2.513   1.112  0.2134  0.0757  2.5501
 4248TIP3    H234380   0.036   2.365   1.081 -0.7566  0.4992  0.4704
 4249TIP3   OH234381   0.927   6.425   1.516 -0.8230  0.1362 -0.4140
 4249TIP3    H134382   0.921   6.514   1.483 -3.2893  0.1257 -0.1777
 4249TIP3    H234383   0.888   6.429   1.603  0.3588 -0.9331  0.2017
 4250TIP3   OH234384   2.167   0.240   7.587 -0.1075  0.2593 -0.1590
 4250TIP3    H134385   2.164   0.170   7.521 -1.5238  0.0152  0.1411
 4250TIP3    H234386   2.218   0.309   7.546 -0.1715 -0.2606 -1.1393
 4251TIP3   OH234387   0.191   4.967   7.425 -0.0862  0.1598  0.1713
 4251TIP3    H134388   0.224   4.926   7.344  1.2039 -1.0959  1.2747
 4251TIP3    H234389   0.155   4.894   7.475 -1.2267  0.9925  0.5787
 4252TIP3   OH234390   5.549   4.287   0.743 -0.2407 -0.1449  0.1321
 4252TIP3    H134391   5.638   4.316   0.762 -0.6478  0.2889  1.5033
 4252TIP3    H234392   5.547   4.195   0.769 -0.3172 -0.0274  0.5469
 4253TIP3   OH234393   1.963   5.375   1.876 -0.1478  0.6693 -0.2904
 4253TIP3    H134394   1.922   5.404   1.795 -1.5563 -2.3030 -0.8087
 4253TIP3    H234395   2.057   5.371   1.855 -0.4490  0.2871 -1.7072
 4254TIP3   OH234396   0.443   2.930   0.773  0.6009 -0.1179 -0.6585
 4254TIP3    H134397   0.399   3.002   0.728 -0.0306 -0.3697 -0.4512
 4254TIP3    H234398   0.481   2.970   0.851  0.5007  0.0486 -0.6945
 4255TIP3   OH234399   2.624   6.401   0.106  0.0334  0.4542 -0.9125
 4255TIP3    H134400   2.615   6.450   0.187 -1.7939  0.7528 -1.2544
 4255TIP3    H234401   2.564   6.327   0.115  0.8836 -0.3232 -1.4271
 4256TIP3   OH234402   6.491   0.923   0.662 -0.1389  0.0184 -0.3733
 4256TIP3    H134403   6.478   0.978   0.739 -0.5621 -1.5473  0.7277
 4256TIP3    H234404   6.579   0.943   0.633  0.4551 -0.1426  1.2107
 4257TIP3   OH234405   2.184   6.708   8.370  0.7708 -0.6992  0.2218
 4257TIP3    H134406   2.095   6.679   8.350  0.1684  1.1680 -0.0073
 4257TIP3    H234407   2.238   6.631   8.351 -0.3278 -0.7527 -3.5639
 4258TIP3   OH234408   3.308   5.812   7.693  0.1075  0.0085 -0.4491
 4258TIP3    H134409   3.213   5.812   7.688  0.1134  2.3422 -3.5449
 4258TIP3    H234410   3.336   5.759   7.618  1.2753 -0.9868  0.6606
 4259TIP3   OH234411   5.362   2.063   1.731 -0.1524 -0.0884 -0.7871
 4259TIP3    H134412   5.308   2.072   1.810 -0.2978  0.8083 -0.9766
 4259TIP3    H234413   5.354   2.148   1.687  3.6707  1.2231  0.6002
 4260TIP3   OH234414   0.703   2.903   0.195  0.0421 -0.0730  0.5524
 4260TIP3    H134415   0.736   2.950   0.272 -1.4057  0.8940  0.6139
 4260TIP3    H234416   0.613   2.881   0.217 -0.7414  1.1381 -1.2502
 4261TIP3   OH234417   4.699   2.397   0.176 -0.0325  0.0296 -0.0775
 4261TIP3    H134418   4.716   2.468   0.115 -0.3547  1.3596  1.3248
 4261TIP3    H234419   4.618   2.357   0.145 -0.8715  1.4892  0.1472
 4262TIP3   OH234420   4.311   5.276   0.188  0.2110  0.0899 -0.8002
 4262TIP3    H134421   4.329   5.309   0.101  0.2068 -0.4437 -1.0071
 4262TIP3    H234422   4.270   5.349   0.234 -0.8760  0.0010 -1.6129
 4263TIP3   OH234423   4.805   4.422   7.507  0.2563 -0.6154 -0.3898
 4263TIP3    H134424   4.886   4.377   7.532  0.0401 -1.2856 -0.8687
 4263TIP3    H234425   4.736   4.369   7.546  0.0309 -0.2033 -0.2255
 4264TIP3   OH234426   2.511   5.716   7.461 -0.2968  0.0832 -0.2535
 4264TIP3    H134427   2.519   5.711   7.556 -1.8134 -1.3015 -0.1390
 4264TIP3    H234428   2.418   5.731   7.446 -0.2012 -0.4518 -1.5147
 4265TIP3   OH234429   3.580   1.443   7.924  0.0577 -0.0972 -0.2186
 4265TIP3    H134430   3.645   1.377   7.901 -1.5916 -1.9531  0.2019
 4265TIP3    H234431   3.632   1.519   7.951  2.0221 -1.4065 -0.0952
 4266TIP3   OH234432   5.181   3.557   7.296 -0.0390 -0.1820 -0.2172
 4266TIP3    H134433   5.086   3.557   7.283  0.0521 -0.5901 -0.9575
 4266TIP3    H234434   5.212   3.628   7.239  0.0657  0.2148  0.3281
 4267TIP3   OH234435   5.269   5.256   7.046  0.1769  0.0692  0.0675
 4267TIP3    H134436   5.327   5.316   6.998  1.0640 -1.0511 -0.3119
 4267TIP3    H234437   5.212   5.220   6.978 -0.7152  0.8554  0.3787
 4268TIP3   OH234438   6.674   6.022   7.223 -0.3855 -0.1180 -0.0353
 4268TIP3    H134439   6.726   5.963   7.168 -1.1076 -0.6896 -0.1195
 4268TIP3    H234440   6.687   6.108   7.184 -0.2745 -0.4028 -0.6415
 4269TIP3   OH234441   0.778   4.021   0.446  0.3360 -0.7456  0.7460
 4269TIP3    H134442   0.764   4.110   0.478 -0.2090 -0.3919 -0.4390
 4269TIP3    H234443   0.712   3.969   0.493 -2.2073  0.1877 -1.5226
 4270TIP3   OH234444   5.449   3.824   7.387 -0.4166  0.2286 -0.1936
 4270TIP3    H134445   5.356   3.824   7.409 -0.3258 -0.4273  0.2118
 4270TIP3    H234446   5.494   3.825   7.471 -0.0620 -0.8310 -0.3527
 4271TIP3   OH234447   0.967   4.821   8.461 -0.0280 -0.3796 -0.1735
 4271TIP3    H134448   1.052   4.856   8.437 -0.6004  1.1839 -0.0255
 4271TIP3    H234449   0.909   4.846   8.389 -0.6579 -0.1892  0.3852
 4272TIP3   OH234450   1.741   2.107   1.510  0.3867  0.0073 -0.2181
 4272TIP3    H134451   1.712   2.145   1.427 -0.7371  1.1406  0.6434
 4272TIP3    H234452   1.834   2.088   1.497  0.8571  2.4031 -0.9953
 4273TIP3   OH234453   3.669   4.070   1.115 -0.6808  0.2028  0.1207
 4273TIP3    H134454   3.630   3.993   1.156 -0.7062  1.1561  1.9904
 4273TIP3    H234455   3.726   4.035   1.046 -1.7533 -1.3900 -0.0142
 4274TIP3   OH234456   2.070   3.698   8.896  0.3328  0.3427 -0.4154
 4274TIP3    H134457   2.093   3.783   8.858 -0.0579  0.6507  0.0312
 4274TIP3    H234458   2.017   3.719   8.973 -0.4775 -0.3295 -0.7732
 4275TIP3   OH234459   1.844   3.586   1.035 -0.0053  0.1684  0.6879
 4275TIP3    H134460   1.877   3.506   0.995  0.4362  0.8254 -0.3145
 4275TIP3    H234461   1.904   3.604   1.107 -0.4794 -0.7337  1.3168
 4276TIP3   OH234462   1.413   5.338   8.578 -0.1808 -0.6201  0.1966
 4276TIP3    H134463   1.437   5.430   8.569  0.5401 -0.6874  1.2255
 4276TIP3    H234464   1.356   5.321   8.504  0.7143  0.3118 -0.7458
 4277TIP3   OH234465   3.560   0.380   0.664 -0.6334 -0.2446 -0.0609
 4277TIP3    H134466   3.520   0.316   0.723  1.8235 -1.3066  0.6174
 4277TIP3    H234467   3.543   0.465   0.705  1.3755 -0.9580  2.5928
 4278TIP3   OH234468   4.060   6.532   8.470  0.1368  0.6302 -0.0162
 4278TIP3    H134469   4.074   6.602   8.534  0.3032  2.4815 -1.9558
 4278TIP3    H234470   4.148   6.509   8.441  0.0776 -0.3971  0.5893
 4279TIP3   OH234471   3.568   5.440   6.654  0.0246  0.3042  0.6814
 4279TIP3    H134472   3.518   5.518   6.678 -1.0553 -0.4871  1.0841
 4279TIP3    H234473   3.642   5.474   6.604 -0.0940  1.6357  1.3453
 4280TIP3   OH234474   4.304   5.718   7.000  0.6378  0.2648  0.1443
 4280TIP3    H134475   4.254   5.683   6.927  0.4841  0.5128  0.1306
 4280TIP3    H234476   4.372   5.772   6.959  1.3080 -0.5635  0.1349
 4281TIP3   OH234477   0.185   3.296   1.654 -0.2285 -0.3112  0.0098
 4281TIP3    H134478   0.277   3.288   1.680  0.3028 -1.0005 -1.9324
 4281TIP3    H234479   0.141   3.224   1.700  1.2088 -3.3484 -2.9822
 4282TIP3   OH234480   5.124   6.502   1.195 -0.1730 -0.0517  0.1204
 4282TIP3    H134481   5.105   6.559   1.270  1.4782 -0.0799  0.5848
 4282TIP3    H234482   5.190   6.549   1.145  0.5695 -1.1465  0.0393
 4283TIP3   OH234483   3.899   4.650   0.396 -0.0185  0.2134 -0.9227
 4283TIP3    H134484   3.828   4.591   0.420 -0.3699  1.0764  0.2347
 4283TIP3    H234485   3.943   4.671   0.478 -0.0798  1.7679 -1.2437
 4284TIP3   OH234486   0.936   4.522   1.704  0.3196  0.4207 -0.2474
 4284TIP3    H134487   1.016   4.472   1.690 -0.9081 -2.1589  1.1042
 4284TIP3    H234488   0.914   4.558   1.618  3.1605  1.7378 -0.5300
 4285TIP3   OH234489   3.136   0.366   0.841 -0.6220 -0.5125 -0.4006
 4285TIP3    H134490   3.141   0.434   0.773  0.4401  0.2325  0.3981
 4285TIP3    H234491   3.043   0.361   0.862 -0.8007  0.2172 -0.9531
 4286TIP3   OH234492   6.790   4.752   7.193  0.0822 -0.7303  0.3769
 4286TIP3    H134493   6.811   4.754   7.286  1.6585 -1.7329  0.0829
 4286TIP3    H234494   6.791   4.659   7.171  2.6720 -0.3928 -1.2343
 4287TIP3   OH234495   1.819   0.496   6.847 -0.0397 -0.0429  0.1068
 4287TIP3    H134496   1.799   0.551   6.923  0.6784 -0.1991  0.4167
 4287TIP3    H234497   1.745   0.510   6.787  0.4550  1.8259 -0.1354
 4288TIP3   OH234498   6.323   2.690   8.465  0.0981  0.1439  0.6205
 4288TIP3    H134499   6.372   2.635   8.403 -0.6137  0.1345  0.0471
 4288TIP3    H234500   6.243   2.640   8.481  0.2350  0.1949  1.4879
 4289TIP3   OH234501   1.660   5.242   1.692 -0.5156 -0.8148 -0.6111
 4289TIP3    H134502   1.680   5.209   1.780 -0.5261 -0.0808 -0.3304
 4289TIP3    H234503   1.584   5.298   1.704  1.3531  1.8637 -0.5180
 4290TIP3   OH234504   3.250   0.698   8.673  0.0921  0.2808  0.0218
 4290TIP3    H134505   3.317   0.703   8.606 -1.0668  0.5670 -1.1655
 4290TIP3    H234506   3.179   0.755   8.641 -1.2056 -0.9159  0.6408
 4291TIP3   OH234507   3.192   5.465   0.008  0.0713  0.2485 -0.5472
 4291TIP3    H134508   3.229   5.545  -0.030 -0.0079  0.5666  0.0403
 4291TIP3    H234509   3.115   5.495   0.056 -1.6369 -0.5170 -2.6318
 4292TIP3   OH234510   6.199   5.377   7.320 -0.4972  0.6927  0.1135
 4292TIP3    H134511   6.237   5.291   7.302 -0.0449  0.1340  3.2403
 4292TIP3    H234512   6.238   5.404   7.403 -1.3212  3.5498 -0.3030
 4293TIP3   OH234513   2.754   5.189   0.866  0.6601 -0.4054 -0.3520
 4293TIP3    H134514   2.699   5.189   0.788 -0.1981 -1.6968  0.2083
 4293TIP3    H234515   2.725   5.264   0.917  0.5073 -0.1623 -0.7953
 4294TIP3   OH234516   2.033   2.792   3.024 -0.1899 -0.5779 -0.0430
 4294TIP3    H134517   2.091   2.831   2.959 -2.2419  0.2435 -1.4724
 4294TIP3    H234518   2.055   2.699   3.024  1.4811 -0.2063 -0.1226
 4295TIP3   OH234519   3.186   0.120   1.892  0.5031  0.3540 -0.2019
 4295TIP3    H134520   3.230   0.200   1.863 -0.0722  0.7352 -0.0453
 4295TIP3    H234521   3.152   0.142   1.979 -0.0636  0.0969 -0.3547
 4296TIP3   OH234522   4.714   2.786   7.252 -0.6287 -0.3302 -0.0861
 4296TIP3    H134523   4.641   2.758   7.307 -2.2117  0.0402 -1.8898
 4296TIP3    H234524   4.679   2.858   7.199  1.1571  0.1176 -0.7640
 4297TIP3   OH234525   2.957   3.288   8.197 -0.4573 -0.6637 -0.0226
 4297TIP3    H134526   3.029   3.316   8.254 -0.9450  0.2198  0.1697
 4297TIP3    H234527   2.884   3.273   8.257 -0.5970 -1.0154 -0.2775
 4298TIP3   OH234528   3.691   2.457   8.001  0.8123  0.4234 -0.7533
 4298TIP3    H134529   3.639   2.395   8.053  0.5029  1.9995  0.9127
 4298TIP3    H234530   3.630   2.491   7.936  0.7097 -0.2475 -1.0184
 4299TIP3   OH234531   2.004   3.731   0.626  0.2117  0.0728  0.4399
 4299TIP3    H134532   2.009   3.819   0.664 -4.5942  0.7208  0.2539
 4299TIP3    H234533   2.008   3.744   0.532  1.9933 -0.3204  0.4211
 4300TIP3   OH234534   6.127   0.087   7.813 -0.8769 -0.3171 -0.0976
 4300TIP3    H134535   6.133   0.145   7.737  0.5182 -0.9689 -0.5304
 4300TIP3    H234536   6.159   0.141   7.886 -0.5884 -0.2034 -0.3025
 4301TIP3   OH234537   2.399   4.559   8.867  0.7011  0.4155  0.5452
 4301TIP3    H134538   2.470   4.503   8.898  0.6207  0.3843  0.6729
 4301TIP3    H234539   2.392   4.539   8.774  1.3147  0.9180  0.3908
 4302TIP3   OH234540   0.561   5.564   7.554 -0.0032 -0.4750  0.2802
 4302TIP3    H134541   0.579   5.534   7.465  0.0341 -0.2029  0.1951
 4302TIP3    H234542   0.561   5.484   7.607 -0.3769 -0.6750 -0.0206
 4303TIP3   OH234543   0.827   5.991   2.166  0.0609  0.0358 -0.0670
 4303TIP3    H134544   0.806   5.917   2.223  1.8489 -0.1769  0.3855
 4303TIP3    H234545   0.765   6.059   2.190 -2.2796 -1.5743 -1.1482
 4304TIP3   OH234546   3.232   2.201   1.679 -0.4181  0.1328  0.1044
 4304TIP3    H134547   3.275   2.117   1.662 -1.1042 -0.3039  0.4994
 4304TIP3    H234548   3.267   2.228   1.764  0.5233  0.7250 -0.4480
 4305TIP3   OH234549   5.204   1.094   1.720 -0.8126 -0.4584  0.7602
 4305TIP3    H134550   5.289   1.116   1.682 -1.0973  0.0360  0.3956
 4305TIP3    H234551   5.153   1.175   1.712 -1.2348 -0.6769  1.2069
 4306TIP3   OH234552   1.023   2.556   7.401 -0.6571 -0.1975 -0.0977
 4306TIP3    H134553   1.058   2.644   7.416 -0.3940 -0.3227  0.0464
 4306TIP3    H234554   0.956   2.567   7.334 -1.4121  0.2864  0.7173
 4307TIP3   OH234555   6.351   2.544   0.909  0.5767 -0.1643  0.5232
 4307TIP3    H134556   6.443   2.542   0.935  0.0800 -3.3819  2.6688
 4307TIP3    H234557   6.311   2.607   0.970  1.2847  1.2929 -0.4569
 4308TIP3   OH234558   0.081   2.727   2.703  0.3259  0.3013  0.4007
 4308TIP3    H134559   0.165   2.683   2.718 -0.1407 -1.4646 -1.5621
 4308TIP3    H234560   0.019   2.679   2.758  0.2435  0.1551  0.1816
 4309TIP3   OH234561   3.716   2.308   7.707  0.0534  0.1815 -0.0093
 4309TIP3    H134562   3.701   2.218   7.738  0.9804 -0.1765 -0.5378
 4309TIP3    H234563   3.800   2.333   7.746 -0.9699  1.4652  1.4795
 4310TIP3   OH234564   0.710   0.776   8.079 -0.1665 -0.3376  0.0609
 4310TIP3    H134565   0.645   0.705   8.078 -0.0868 -0.4183  0.7549
 4310TIP3    H234566   0.729   0.791   8.171 -0.0442  0.4683 -0.0852
 4311TIP3   OH234567   2.100   0.699   8.598 -0.2371  0.2428  0.0318
 4311TIP3    H134568   2.097   0.653   8.514 -0.5446 -0.5851  0.4827
 4311TIP3    H234569   2.054   0.781   8.583  0.6306  0.5755 -0.8855
 4312TIP3   OH234570   3.755   5.395   7.429  0.0091 -0.0882  0.0628
 4312TIP3    H134571   3.763   5.490   7.420 -1.9379  0.2731  1.4749
 4312TIP3    H234572   3.829   5.370   7.483  0.0936  0.7501  0.3473
 4313TIP3   OH234573   0.944   6.399   0.794  0.0124  0.1773 -0.1468
 4313TIP3    H134574   1.001   6.326   0.772 -0.3624 -0.4397  0.8874
 4313TIP3    H234575   1.004   6.472   0.810  0.3490  0.3862 -2.0833
 4314TIP3   OH234576   5.770   0.192   1.423  0.0863 -0.3008  0.3922
 4314TIP3    H134577   5.698   0.143   1.462 -0.5737  0.9624  0.8416
 4314TIP3    H234578   5.753   0.283   1.449  1.6818  0.0642  0.2407
 4315TIP3   OH234579   3.094   6.267   1.432  0.3465 -0.1562 -0.7462
 4315TIP3    H134580   3.040   6.253   1.355  1.5093 -1.8364 -1.3172
 4315TIP3    H234581   3.180   6.233   1.408  0.4394 -1.9712  1.6655
 4316TIP3   OH234582   6.616   1.701   1.997  0.0603  0.0808  0.2243
 4316TIP3    H134583   6.558   1.753   2.053 -2.6095 -0.8877 -1.4435
 4316TIP3    H234584   6.613   1.613   2.035 -1.2799 -0.4411 -1.0130
 4317TIP3   OH234585   5.947   6.269   1.820 -0.3894  0.0687  0.4363
 4317TIP3    H134586   5.864   6.275   1.775 -0.6699 -0.6221  0.8523
 4317TIP3    H234587   5.931   6.309   1.906  0.0488  1.0608  0.0821
 4318TIP3   OH234588   0.616   0.404   8.502  0.0700 -0.0590  0.2539
 4318TIP3    H134589   0.687   0.413   8.438  0.2416  0.1362  0.4696
 4318TIP3    H234590   0.564   0.485   8.492  0.5485  0.3352  0.9052
 4319TIP3   OH234591   3.061   4.918   8.631  0.5637 -0.4259 -0.4530
 4319TIP3    H134592   3.101   4.981   8.571  1.1809 -2.4340 -2.2396
 4319TIP3    H234593   3.018   4.855   8.575  0.6915 -2.0952  1.2348
 4320TIP3   OH234594   6.632   6.203   1.800  0.0294 -0.2252  0.1860
 4320TIP3    H134595   6.681   6.277   1.836  0.5381 -0.1379 -0.6578
 4320TIP3    H234596   6.554   6.196   1.856  0.2468  0.5992  0.6058
 4321TIP3   OH234597   5.615   6.084   2.265 -0.0676  0.0534  0.2773
 4321TIP3    H134598   5.593   6.136   2.342 -1.3204 -2.2308  1.5900
 4321TIP3    H234599   5.692   6.033   2.292 -1.8939 -2.5012  0.9987
 4322TIP3   OH234600   0.968   5.092   6.919 -0.0629 -0.2947 -0.1742
 4322TIP3    H134601   0.914   5.014   6.911  0.3635 -0.7424  1.0938
 4322TIP3    H234602   1.039   5.067   6.978  0.3461  0.9079 -0.1179
 4323TIP3   OH234603   1.332   5.145   1.583  0.4633  0.0510 -0.2620
 4323TIP3    H134604   1.377   5.216   1.630 -0.4417  1.4509 -1.4353
 4323TIP3    H234605   1.244   5.178   1.568 -0.9637 -2.5041  1.6881
 4324TIP3   OH234606   6.367   5.720   8.832 -0.1031  0.4112  0.0332
 4324TIP3    H134607   6.437   5.740   8.770  0.4031 -0.3377  0.3526
 4324TIP3    H234608   6.386   5.775   8.908 -0.3412  0.8296 -0.2076
 4325TIP3   OH234609   5.184   5.581   1.295  0.2997 -0.2542  1.0435
 4325TIP3    H134610   5.278   5.586   1.278  0.5459 -1.6560  1.8657
 4325TIP3    H234611   5.144   5.581   1.208  0.8689  2.5837  0.6827
 4326TIP3   OH234612   1.167   1.073   6.379 -0.1851 -0.7889 -0.0635
 4326TIP3    H134613   1.159   1.074   6.474  2.1962  0.2770  0.2158
 4326TIP3    H234614   1.111   1.144   6.349 -4.3364 -3.6717  0.0089
 4327TIP3   OH234615   2.835   0.180   8.157 -0.4648 -0.0465  0.0470
 4327TIP3    H134616   2.887   0.113   8.113  0.5792  0.3191  0.6687
 4327TIP3    H234617   2.802   0.236   8.087  2.1185  1.2065 -0.2916
 4328TIP3   OH234618   4.413   1.397   0.332 -0.2087  0.0838 -0.1747
 4328TIP3    H134619   4.334   1.406   0.279 -0.8836  1.9833  1.0476
 4328TIP3    H234620   4.383   1.357   0.414 -0.6706  3.7286  1.6226
 4329TIP3   OH234621   3.886   3.447   1.836 -0.4320  0.3364  0.5754
 4329TIP3    H134622   3.794   3.454   1.863 -0.1722  2.0457  1.1355
 4329TIP3    H234623   3.924   3.532   1.858  1.0729 -0.0180 -0.4912
 4330TIP3   OH234624   2.483   2.311   7.490  0.1371  0.1203  0.1637
 4330TIP3    H134625   2.479   2.398   7.450  1.2614  0.1144 -0.0068
 4330TIP3    H234626   2.576   2.287   7.484 -0.3335 -1.5859 -0.8716
 4331TIP3   OH234627   1.635   3.078   7.932 -0.1988  0.3378  0.7582
 4331TIP3    H134628   1.713   3.033   7.966 -0.4749  0.6639  1.8827
 4331TIP3    H234629   1.659   3.170   7.932 -0.5406  0.4265  0.9869
 4332TIP3   OH234630   5.824   0.605   8.412  0.2564  0.0244 -0.4189
 4332TIP3    H134631   5.887   0.676   8.403  1.6029 -1.1113 -0.2619
 4332TIP3    H234632   5.828   0.558   8.328  0.3030 -0.5877 -0.0844
 4333TIP3   OH234633   6.093   3.729   7.342  0.1497 -0.0453 -0.1215
 4333TIP3    H134634   5.998   3.728   7.332 -0.0299  2.2216  0.8899
 4333TIP3    H234635   6.126   3.700   7.257 -1.4487  2.0706 -1.5547
 4334TIP3   OH234636   3.688   2.555   8.316  0.1501  0.3980  0.0410
 4334TIP3    H134637   3.696   2.632   8.260 -0.3633 -0.6282 -1.5174
 4334TIP3    H234638   3.758   2.496   8.288 -0.4445 -0.3565  0.1010
 4335TIP3   OH234639   6.113   0.933   1.795  0.1011  0.2661  0.5053
 4335TIP3    H134640   6.053   0.970   1.730  3.1659  5.9942  0.2931
 4335TIP3    H234641   6.074   0.955   1.879 -0.8949 -1.6463  0.6015
 4336TIP3   OH234642   0.300   0.849   0.916  0.2912 -0.1361 -0.0338
 4336TIP3    H134643   0.345   0.917   0.866  2.1856 -1.6986 -0.5973
 4336TIP3    H234644   0.261   0.793   0.848 -0.1686 -0.3223  0.3800
 4337TIP3   OH234645   2.183   0.786   0.238  0.1526 -0.2872  0.6765
 4337TIP3    H134646   2.261   0.784   0.182 -0.4357 -0.6588 -0.1452
 4337TIP3    H234647   2.184   0.874   0.277 -0.2793  0.5786 -1.1580
 4338TIP3   OH234648   1.298   2.682   8.832 -0.2759  0.7636 -0.6843
 4338TIP3    H134649   1.299   2.617   8.762 -2.0562  0.0060 -0.0400
 4338TIP3    H234650   1.379   2.666   8.881  0.4535  0.5996 -1.9090
 4339TIP3   OH234651   1.068   4.539   2.490 -0.1799 -0.4831  0.7087
 4339TIP3    H134652   1.074   4.627   2.528  0.8300  0.8351 -2.2187
 4339TIP3    H234653   1.120   4.484   2.549  0.4567  1.2002  1.7945
 4340TIP3   OH234654   5.374   2.389   6.351 -0.2363  0.1730 -0.1340
 4340TIP3    H134655   5.461   2.404   6.386  0.2710 -1.4187 -0.6212
 4340TIP3    H234656   5.323   2.465   6.379  0.9581  0.4936  1.2823
 4341TIP3   OH234657   0.548   3.057   0.977  0.1485 -0.1566 -0.2543
 4341TIP3    H134658   0.536   3.126   1.042  1.0904 -0.0969 -0.1212
 4341TIP3    H234659   0.638   3.069   0.946  0.5770 -1.7770  0.2937
 4342TIP3   OH234660   3.146   0.879   0.359  0.3832 -0.1235  0.2453
 4342TIP3    H134661   3.083   0.938   0.318  1.4072  0.6948 -0.1883
 4342TIP3    H234662   3.096   0.834   0.428 -0.1896  2.0015  1.2804
 4343TIP3   OH234663   2.751   1.543   0.666 -0.2148 -0.2609  0.1945
 4343TIP3    H134664   2.685   1.475   0.679  1.0078 -1.4986  0.0629
 4343TIP3    H234665   2.756   1.554   0.571  2.6966 -3.2374 -0.1590
 4344TIP3   OH234666   2.609   3.404   8.104  0.2464  0.1183 -0.1579
 4344TIP3    H134667   2.627   3.452   8.185 -0.5822  0.9724 -0.4561
 4344TIP3    H234668   2.527   3.359   8.121  0.6137 -0.5541 -0.1619
 4345TIP3   OH234669   1.666   0.668   8.687 -0.2647 -0.5392  0.4733
 4345TIP3    H134670   1.678   0.762   8.696 -2.1227 -0.4276  2.3761
 4345TIP3    H234671   1.689   0.632   8.772  0.2561 -1.8248 -0.1780
 4346TIP3   OH234672   5.862   0.254   0.478 -0.0060 -0.0910  0.6026
 4346TIP3    H134673   5.841   0.162   0.497  1.0483 -0.4659  0.0395
 4346TIP3    H234674   5.881   0.255   0.385 -2.1696  1.1566  0.1108
 4347TIP3   OH234675   2.755   6.131   8.654 -0.0514  0.3678 -0.2929
 4347TIP3    H134676   2.684   6.180   8.697 -0.9947 -0.8387 -0.4082
 4347TIP3    H234677   2.813   6.105   8.726  0.3546  1.4569 -0.2101
 4348TIP3   OH234678   3.081   2.766   7.532 -0.3201  0.0530 -0.6494
 4348TIP3    H134679   3.104   2.683   7.492  0.9080 -0.0278  0.1802
 4348TIP3    H234680   3.055   2.744   7.621  1.7177  0.6767  0.1691
 4349TIP3   OH234681   0.349   2.388   1.013 -0.0370  0.5964  0.1512
 4349TIP3    H134682   0.409   2.384   1.088 -0.7502  1.4936  0.7915
 4349TIP3    H234683   0.264   2.410   1.051 -1.3018 -2.6793 -0.4773
 4350TIP3   OH234684   1.439   3.249   0.480  0.9405 -0.2324  0.1575
 4350TIP3    H134685   1.375   3.253   0.409 -0.2452 -0.4710  1.1751
 4350TIP3    H234686   1.454   3.341   0.503  1.4519 -0.1484 -0.5043
 4351TIP3   OH234687   4.937   6.587   8.071  0.7123 -0.1502  0.3347
 4351TIP3    H134688   4.923   6.681   8.076 -0.2475 -0.3241  1.4700
 4351TIP3    H234689   4.955   6.569   7.979 -0.7665  0.9244 -0.1883
 4352TIP3   OH234690   5.079   5.197   7.240  0.7157 -0.5045  0.2541
 4352TIP3    H134691   5.148   5.180   7.175  1.9615 -1.3601  1.7218
 4352TIP3    H234692   5.004   5.147   7.209  1.9334 -2.6025  0.4858
 4353TIP3   OH234693   1.774   1.746   1.634 -0.2212  0.3828 -0.2435
 4353TIP3    H134694   1.715   1.822   1.633  0.6584  1.1349 -2.3881
 4353TIP3    H234695   1.843   1.770   1.572  0.6575 -1.7487 -0.1512
 4354TIP3   OH234696   5.992   5.311   7.002  0.1420  0.5269  0.1686
 4354TIP3    H134697   6.042   5.333   7.080 -1.3353  3.1026  0.4908
 4354TIP3    H234698   5.910   5.272   7.035  0.6558 -1.0084 -0.2552
 4355TIP3   OH234699   6.273   3.381   0.877  0.5916  0.1814 -0.4196
 4355TIP3    H134700   6.258   3.293   0.843 -2.2373  0.3635  0.1310
 4355TIP3    H234701   6.342   3.369   0.943 -0.1214 -1.7529  0.0555
 4356TIP3   OH234702   0.898   2.929   8.709 -0.4126 -0.5999 -0.2654
 4356TIP3    H134703   0.834   2.984   8.754 -0.0393 -1.4860  1.4334
 4356TIP3    H234704   0.982   2.953   8.748  0.3826  0.5821 -2.4962
 4357TIP3   OH234705   3.262   0.545   1.253  0.2183  0.3250  0.2056
 4357TIP3    H134706   3.241   0.506   1.338  3.2804 -3.8763 -0.6189
 4357TIP3    H234707   3.177   0.554   1.209 -1.2525  0.7673  2.9224
 4358TIP3   OH234708   0.311   6.224   2.252 -0.2434 -0.9507  0.3845
 4358TIP3    H134709   0.261   6.156   2.298  1.1273 -1.9065  0.5049
 4358TIP3    H234710   0.394   6.228   2.299 -0.1778  0.6220  0.1830
 4359TIP3   OH234711   3.825   2.802   1.302 -0.0210  0.3711  0.0121
 4359TIP3    H134712   3.743   2.784   1.347 -0.4983  2.9813  0.3225
 4359TIP3    H234713   3.809   2.775   1.212 -0.5242 -0.9215  0.4630
 4360TIP3   OH234714   2.078   5.004   8.647  0.7158 -0.3903 -0.3460
 4360TIP3    H134715   2.026   4.923   8.645 -1.1698  0.7439 -0.1056
 4360TIP3    H234716   2.012   5.074   8.646  2.2953  1.1526 -0.7071
 4361TIP3   OH234717   1.979   6.034   1.478 -0.9089 -0.0592 -0.3210
 4361TIP3    H134718   1.983   6.001   1.389  1.4179 -1.2604  0.1509
 4361TIP3    H234719   1.948   5.960   1.530 -0.6049  0.0949  0.0887
 4362TIP3   OH234720   2.302   2.702   0.883  0.5843  0.3188 -0.1685
 4362TIP3    H134721   2.216   2.705   0.924  0.0685  0.8603 -1.2676
 4362TIP3    H234722   2.350   2.774   0.924  0.2710  0.4850 -0.0900
 4363TIP3   OH234723   6.131   1.317   1.172  0.7655 -0.3054  0.5011
 4363TIP3    H134724   6.138   1.245   1.109 -1.0166 -1.5178  1.6090
 4363TIP3    H234725   6.060   1.372   1.139  0.7323 -0.2007  0.7429
 4364TIP3   OH234726   4.020   0.562   1.022  0.3181 -0.1326 -0.0625
 4364TIP3    H134727   3.968   0.491   0.986  0.3710 -0.1539 -0.0970
 4364TIP3    H234728   4.043   0.616   0.946 -1.1187  0.8496  0.1590
 4365TIP3   OH234729   2.870   0.109   7.499  0.1013 -0.3391 -0.0026
 4365TIP3    H134730   2.824   0.166   7.560  1.4695 -1.4560  2.1717
 4365TIP3    H234731   2.801   0.051   7.465 -0.7943  0.7223 -0.0444
 4366TIP3   OH234732   1.489   5.825   2.595  0.4532  0.1278  0.7721
 4366TIP3    H134733   1.456   5.736   2.605  0.1971  0.0954 -0.2246
 4366TIP3    H234734   1.427   5.879   2.644 -1.1267  0.0628 -1.0181
 4367TIP3   OH234735   4.672   5.497   8.201 -0.0835 -0.0188  0.0455
 4367TIP3    H134736   4.753   5.467   8.241 -1.5234 -0.6200  2.7970
 4367TIP3    H234737   4.630   5.417   8.169 -0.8799 -0.1740  1.3608
 4368TIP3   OH234738   6.099   4.800   0.863  0.0506  0.2566  0.1237
 4368TIP3    H134739   6.094   4.728   0.800  0.6868 -0.2404  0.6281
 4368TIP3    H234740   6.008   4.827   0.876 -0.1980 -0.4999 -0.0227
 4369TIP3   OH234741   2.894   2.579   7.039 -0.8625  0.1980 -0.2149
 4369TIP3    H134742   2.871   2.627   7.119  1.5634  0.6717  0.2636
 4369TIP3    H234743   2.855   2.631   6.969 -0.4739  1.4673  0.4758
 4370TIP3   OH234744   4.723   0.820   8.519  0.1977  0.3929  0.7134
 4370TIP3    H134745   4.786   0.790   8.453 -0.8924 -1.2056  0.3542
 4370TIP3    H234746   4.774   0.880   8.575  1.4028  1.0192 -0.9561
 4371TIP3   OH234747   2.860   2.622   7.297  0.5036  0.1849 -0.8644
 4371TIP3    H134748   2.821   2.646   7.381 -0.3846 -0.2072 -1.1566
 4371TIP3    H234749   2.934   2.567   7.321 -0.2351 -0.6136 -0.3528
 4372TIP3   OH234750   5.843   5.916   2.346 -0.2501 -0.4236  0.1015
 4372TIP3    H134751   5.787   5.844   2.375 -1.0168 -1.1288 -2.8573
 4372TIP3    H234752   5.926   5.902   2.392 -0.9186 -2.2195  0.8268
 4373TIP3   OH234753   0.004   3.742   2.363  0.1834  0.0991  0.3169
 4373TIP3    H134754   0.076   3.801   2.340 -0.1433  0.6899  0.7804
 4373TIP3    H234755   0.020   3.664   2.310  0.3675  0.7791 -0.6698
 4374TIP3   OH234756   1.065   5.844   1.310 -0.2745  0.3326  0.2893
 4374TIP3    H134757   1.079   5.754   1.281  4.0233  0.2312  1.9234
 4374TIP3    H234758   1.021   5.836   1.395  0.6440 -0.3507  0.7219
 4375TIP3   OH234759   3.418   3.347   6.943  0.2201  0.3158  0.0496
 4375TIP3    H134760   3.460   3.269   6.906 -0.5747  0.3368 -0.9705
 4375TIP3    H234761   3.483   3.385   7.002  0.2565 -1.6644  1.3482
 4376TIP3   OH234762   2.487   2.517   8.177  0.2691 -0.1772  0.2009
 4376TIP3    H134763   2.432   2.592   8.154  0.5188 -0.0304  0.0807
 4376TIP3    H234764   2.576   2.544   8.153  0.5117 -0.0779  1.1851
 4377TIP3   OH234765   0.986   5.301   2.258  0.2761 -0.3797  0.7286
 4377TIP3    H134766   0.988   5.250   2.339  1.3521  1.5010  1.9608
 4377TIP3    H234767   0.908   5.356   2.266  0.7224  0.2529  0.7877
 4378TIP3   OH234768   4.176   0.892   8.289  0.4070  0.8007 -0.7362
 4378TIP3    H134769   4.202   0.892   8.381  1.3989 -2.8158 -0.8734
 4378TIP3    H234770   4.115   0.818   8.282  2.6015 -0.9094 -3.4478
 4379TIP3   OH234771   2.066   6.455   8.537 -0.3124 -0.3167 -0.1325
 4379TIP3    H134772   2.033   6.487   8.621  0.4751  1.6001 -0.4807
 4379TIP3    H234773   1.998   6.480   8.474 -0.7995 -1.5504 -0.1215
 4380TIP3   OH234774   3.070   0.015   7.822 -0.6446 -0.2097  0.0516
 4380TIP3    H134775   3.052  -0.044   7.749 -3.2939  0.2719  0.2045
 4380TIP3    H234776   3.081   0.101   7.781  0.3169 -0.3266  0.0507
 4381TIP3   OH234777   6.348   4.424   8.526 -0.1746  0.7556  0.2468
 4381TIP3    H134778   6.384   4.459   8.607 -0.4257  0.7997  0.3384
 4381TIP3    H234779   6.257   4.403   8.546  0.1829 -0.6838  0.4112
 4382TIP3   OH234780   1.826   0.598   8.456  0.8286  0.4426 -0.3415
 4382TIP3    H134781   1.766   0.637   8.392  0.4017 -1.5238 -1.2154
 4382TIP3    H234782   1.782   0.610   8.540  0.5176  1.4407 -0.6333
 4383TIP3   OH234783   0.912   1.753   8.180 -0.1573  0.5092  0.6000
 4383TIP3    H134784   0.981   1.793   8.232  1.2222  1.0137 -1.5046
 4383TIP3    H234785   0.839   1.816   8.184  0.3126  1.0404  1.0124
 4384TIP3   OH234786   4.731   1.977   8.822  0.0789 -0.5104 -0.0678
 4384TIP3    H134787   4.639   2.001   8.822  0.0687 -0.3441 -2.3262
 4384TIP3    H234788   4.732   1.883   8.805  0.3302 -0.5795  0.3079
 4385TIP3   OH234789   4.040   1.489   6.943 -0.0739 -0.0177 -0.0569
 4385TIP3    H134790   3.998   1.487   6.857  0.9469 -1.8631 -0.5645
 4385TIP3    H234791   4.132   1.502   6.924  0.5104 -2.6320  0.5122
 4386TIP3   OH234792   0.027   0.202   7.072 -0.0276  0.1852 -0.1555
 4386TIP3    H134793   0.119   0.214   7.051  0.6690 -1.9642  1.3693
 4386TIP3    H234794   0.001   0.124   7.022 -0.4931 -0.3359  0.8835
 4387TIP3   OH234795   1.738   5.536   1.174  0.1929 -0.8236  0.1018
 4387TIP3    H134796   1.758   5.515   1.083 -2.3345  0.0630 -0.7365
 4387TIP3    H234797   1.761   5.629   1.182  0.4166 -0.9019  0.3957
 4388TIP3   OH234798   6.480   4.863   0.610 -0.2493 -0.0339 -0.5102
 4388TIP3    H134799   6.506   4.955   0.610 -0.6598  0.1075  1.1267
 4388TIP3    H234800   6.385   4.865   0.624 -0.1806 -0.7178  0.0942
 4389TIP3   OH234801   6.658   0.400   0.991  0.6280 -0.1000 -0.5687
 4389TIP3    H134802   6.563   0.389   0.991  0.6745 -0.6018  0.5240
 4389TIP3    H234803   6.682   0.401   1.084  1.8985 -1.8491 -0.8354
 4390TIP3   OH234804   3.475   5.234   1.774 -0.2560 -0.0405 -0.0022
 4390TIP3    H134805   3.497   5.262   1.685 -2.9148  0.3471 -0.6505
 4390TIP3    H234806   3.508   5.304   1.830 -1.3268  1.3546 -1.0286
 4391TIP3   OH234807   3.982   4.234   0.302 -0.2199 -0.4820  0.0937
 4391TIP3    H134808   3.995   4.236   0.207 -1.5774  4.0086 -0.2278
 4391TIP3    H234809   3.887   4.227   0.314 -0.3253  1.6179  0.9165
 4392TIP3   OH234810   0.644   3.852   8.613  0.1887  0.0001  0.4029
 4392TIP3    H134811   0.649   3.815   8.701  1.8980  0.8449  0.6908
 4392TIP3    H234812   0.673   3.943   8.623 -1.7364  0.8026 -0.6760
 4393TIP3   OH234813   5.204   6.189   8.456  0.5591  0.0791 -0.2173
 4393TIP3    H134814   5.165   6.243   8.387 -0.8057  0.5468  0.8543
 4393TIP3    H234815   5.246   6.251   8.514  2.5484 -0.3913 -1.0850
 4394TIP3   OH234816   4.993   3.227   6.992  0.6645  0.3124 -0.3844
 4394TIP3    H134817   4.990   3.231   6.896  1.4308  0.9026 -0.3935
 4394TIP3    H234818   5.054   3.155   7.011  0.6061  0.2749 -0.3376
 4395TIP3   OH234819   4.595   2.826   1.587  0.0625  0.0817 -0.0378
 4395TIP3    H134820   4.633   2.859   1.669 -1.4499 -0.9913  1.1449
 4395TIP3    H234821   4.526   2.889   1.566 -0.9752 -0.7751  0.7093
 4396TIP3   OH234822   4.847   4.402   0.084  0.6167 -0.8181 -0.1578
 4396TIP3    H134823   4.804   4.404  -0.002  0.9546 -2.7974 -0.4267
 4396TIP3    H234824   4.821   4.484   0.126 -0.3427 -0.2522 -1.7716
 4397TIP3   OH234825   0.474   2.449   8.532 -0.7998 -0.1671  0.0768
 4397TIP3    H134826   0.388   2.491   8.537 -0.2098  0.8894  2.3522
 4397TIP3    H234827   0.487   2.410   8.618  1.1403 -0.0173 -0.1144
 4398TIP3   OH234828   5.693   4.106   1.397  0.2005  0.2274 -0.1333
 4398TIP3    H134829   5.606   4.074   1.423 -0.5164  0.7614 -1.7255
 4398TIP3    H234830   5.738   4.028   1.364  0.0249  0.0943 -0.0657
 4399TIP3   OH234831   4.756   3.230   8.729 -0.1660  0.4640 -0.0097
 4399TIP3    H134832   4.820   3.163   8.753  0.2552  0.8328 -0.0774
 4399TIP3    H234833   4.745   3.283   8.808 -2.1539 -0.9555  0.7454
 4400TIP3   OH234834   1.357   3.721   7.103  0.4211  0.0912 -0.3765
 4400TIP3    H134835   1.274   3.746   7.143  0.7456 -0.4933  0.7192
 4400TIP3    H234836   1.402   3.671   7.171  1.8368  0.7342 -0.7945
 4401TIP3   OH234837   4.835   3.228   1.094 -0.1882 -0.1047  0.3987
 4401TIP3    H134838   4.862   3.257   1.181 -0.2746 -0.3705  0.5148
 4401TIP3    H234839   4.792   3.305   1.056 -2.3676 -0.6776  1.5266
 4402TIP3   OH234840   6.329   0.637   7.708  0.3577  0.3387  0.1523
 4402TIP3    H134841   6.362   0.635   7.797 -1.0806 -0.6864  0.6983
 4402TIP3    H234842   6.407   0.633   7.653  1.1976 -1.4813  1.3916
 4403TIP3   OH234843   6.513   1.748   7.584  0.1699 -0.1715 -0.4516
 4403TIP3    H134844   6.452   1.717   7.651 -0.2021  0.6048 -0.4193
 4403TIP3    H234845   6.593   1.697   7.599 -0.4177 -1.1089 -0.4128
 4404TIP3   OH234846   5.825   5.669   7.840  0.1071  0.3400  0.0804
 4404TIP3    H134847   5.850   5.584   7.877  0.9721  0.7134  0.3885
 4404TIP3    H234848   5.729   5.672   7.850  0.1118 -0.4152  0.4541
 4405TIP3   OH234849   2.813   4.987   7.587 -0.0896 -0.4024 -0.7849
 4405TIP3    H134850   2.772   4.939   7.660 -0.2827  0.9832  0.0511
 4405TIP3    H234851   2.753   4.973   7.513 -1.5364  0.6875  0.1344
 4406TIP3   OH234852   3.986   3.117   8.874  0.3437  0.4551  0.4872
 4406TIP3    H134853   3.988   3.202   8.918  1.0763  0.1144  1.1271
 4406TIP3    H234854   3.945   3.058   8.937 -3.1083  0.9089 -1.0761
 4407TIP3   OH234855   3.085   1.136   7.470  0.0571  0.6675  0.1864
 4407TIP3    H134856   3.179   1.117   7.462  0.3494  1.8074  0.6726
 4407TIP3    H234857   3.078   1.229   7.450 -1.0764  0.4422 -0.5335
 4408TIP3   OH234858   5.430   5.446   7.553 -0.0528 -0.6422  0.3522
 4408TIP3    H134859   5.429   5.351   7.540 -0.8611 -0.5547 -0.3330
 4408TIP3    H234860   5.437   5.482   7.465  0.6398 -0.0639  0.6360
 4409TIP3   OH234861   5.034   2.631   8.630 -0.7095  0.2786  0.0518
 4409TIP3    H134862   5.040   2.643   8.724  0.9134  0.3758 -0.0483
 4409TIP3    H234863   4.949   2.671   8.607 -1.6545 -0.7413  1.5835
 4410TIP3   OH234864   0.164   3.956   8.376 -0.3210  0.0744 -0.1350
 4410TIP3    H134865   0.155   3.893   8.304  1.3289 -0.5203  0.1397
 4410TIP3    H234866   0.228   4.020   8.345 -2.5005  2.1460 -0.7069
 4411TIP3   OH234867   5.895   0.495   8.668  0.5101 -0.0250 -0.1425
 4411TIP3    H134868   5.851   0.509   8.584 -0.5776 -1.1201  0.2163
 4411TIP3    H234869   5.938   0.578   8.687 -0.0413  0.5465 -1.3159
 4412TIP3   OH234870   6.784   2.494   8.352  0.1854 -0.8456  0.4769
 4412TIP3    H134871   6.823   2.575   8.385  0.2705 -1.2624  1.4525
 4412TIP3    H234872   6.842   2.467   8.281  1.5337 -1.2728  1.6859
 4413TIP3   OH234873   1.453   3.431   8.349 -0.2263 -0.1678  0.4865
 4413TIP3    H134874   1.535   3.475   8.371 -1.2444  1.5201  1.1159
 4413TIP3    H234875   1.479   3.356   8.296  1.6420  0.8906 -0.1723
 4414TIP3   OH234876   1.894   0.941   1.037  0.1020 -0.0985 -0.0561
 4414TIP3    H134877   1.958   1.011   1.020  0.8186 -0.8040 -0.3132
 4414TIP3    H234878   1.825   0.957   0.972  0.3774  0.2292 -0.2798
 4415TIP3   OH234879   0.165   4.316   8.769  0.0039  0.0700 -0.3888
 4415TIP3    H134880   0.092   4.296   8.709 -0.2638  0.2786 -0.1399
 4415TIP3    H234881   0.136   4.283   8.854  1.0365 -1.6337 -0.6606
 4416TIP3   OH234882   4.381   5.345   0.901 -0.0517  0.4779 -0.1933
 4416TIP3    H134883   4.325   5.307   0.969 -0.2296 -2.0180 -1.6097
 4416TIP3    H234884   4.468   5.312   0.921  0.3759  1.7283  0.1410
 4417TIP3   OH234885   5.078   6.736   0.442 -0.0384  0.2953  0.2605
 4417TIP3    H134886   5.117   6.649   0.448  0.2805  0.4997  1.6412
 4417TIP3    H234887   5.095   6.764   0.352  0.2189 -0.8963 -0.0818
 4418TIP3   OH234888   2.040   0.039   0.336  0.0546  0.2761  0.4673
 4418TIP3    H134889   2.003   0.004   0.255  1.1592 -0.5093  0.2768
 4418TIP3    H234890   2.046  -0.036   0.394  0.3994  0.5887  0.8405
 4419TIP3   OH234891   2.632   1.842   1.291 -0.2372  0.1107  0.1882
 4419TIP3    H134892   2.628   1.754   1.328 -1.7310 -0.5826 -1.4992
 4419TIP3    H234893   2.575   1.839   1.214  0.8003  2.1545 -0.7515
 4420TIP3   OH234894   1.054   6.415   0.254 -0.1891  0.0798 -0.7081
 4420TIP3    H134895   0.999   6.464   0.193 -1.9625  0.0587  0.8054
 4420TIP3    H234896   1.103   6.355   0.198  0.3357  1.9478 -2.3670
 4421TIP3   OH234897   1.018   2.591   7.747 -0.7842 -0.3041  0.8249
 4421TIP3    H134898   0.962   2.539   7.689  0.8488 -0.4539 -0.7086
 4421TIP3    H234899   1.107   2.560   7.729  0.4932  3.8098 -1.1778
 4422TIP3   OH234900   0.767   0.441   8.257 -0.5188  0.0151 -0.4734
 4422TIP3    H134901   0.702   0.438   8.186 -1.0368  1.0534 -0.0622
 4422TIP3    H234902   0.848   0.411   8.217 -0.0861  3.1942 -2.3309
 4423TIP3   OH234903   4.647   1.839   0.904 -0.2848 -0.1997  0.0508
 4423TIP3    H134904   4.690   1.789   0.973  0.6778  0.3433 -0.1362
 4423TIP3    H234905   4.687   1.808   0.823 -0.0884  0.4440 -0.1094
 4424TIP3   OH234906   6.579   6.032   8.812  0.0497  0.3212  0.4402
 4424TIP3    H134907   6.656   6.030   8.756  0.7450  2.3773  1.2418
 4424TIP3    H234908   6.511   5.990   8.760  1.4278 -0.5589 -0.7103
 4425TIP3   OH234909   1.259   5.394   7.810  0.0057  0.1571  0.2550
 4425TIP3    H134910   1.223   5.444   7.737  0.0576  0.6703  0.5728
 4425TIP3    H234911   1.183   5.370   7.863 -0.0137 -0.0470  0.1332
 4426TIP3   OH234912   3.469   4.328   0.389  0.0497  0.1482 -0.1059
 4426TIP3    H134913   3.442   4.248   0.433 -0.8967  0.7928  0.5424
 4426TIP3    H234914   3.410   4.335   0.314  1.2383 -0.6156 -1.1488
 4427TIP3   OH234915   2.092   4.782   2.145 -0.1591 -0.7048  0.0659
 4427TIP3    H134916   2.139   4.715   2.096 -1.8512 -0.0694 -2.6721
 4427TIP3    H234917   2.002   4.777   2.112 -0.7980  1.5264  1.2554
 4428TIP3   OH234918   3.595   3.996   1.561  0.0131 -0.0055 -0.4466
 4428TIP3    H134919   3.655   3.950   1.502  1.0648  0.2396  0.4044
 4428TIP3    H234920   3.602   3.949   1.644  0.2303  0.9646  0.1040
 4429TIP3   OH234921   6.478   4.906   1.407 -0.1546 -0.5841  0.0999
 4429TIP3    H134922   6.529   4.847   1.462 -1.5176 -0.8000  1.1827
 4429TIP3    H234923   6.429   4.960   1.469  0.2651  0.9853 -0.8813
 4430TIP3   OH234924   3.571   5.711   8.127 -0.1143  0.2600 -0.2138
 4430TIP3    H134925   3.655   5.748   8.156 -0.1879 -1.2504  2.2497
 4430TIP3    H234926   3.578   5.707   8.032  2.1618  1.2027 -0.1506
 4431TIP3   OH234927   2.799   1.074   7.389 -0.5526  0.0959  0.1864
 4431TIP3    H134928   2.779   0.986   7.358  2.0728  0.4039 -2.8363
 4431TIP3    H234929   2.887   1.068   7.426  0.2126  1.6351 -1.2544
 4432TIP3   OH234930   6.060   4.680   0.181 -0.0600 -0.4301 -0.3769
 4432TIP3    H134931   6.085   4.739   0.252  0.3056 -0.4805 -0.4626
 4432TIP3    H234932   6.017   4.607   0.225 -0.6374 -0.0380 -0.2804
 4433TIP3   OH234933   3.861   6.003   1.455  0.0977  0.3484 -0.3005
 4433TIP3    H134934   3.770   6.030   1.472 -0.3485 -1.6737  0.8487
 4433TIP3    H234935   3.887   5.955   1.533  2.5687  1.7310 -0.1608
 4434TIP3   OH234936   1.602   3.071   8.516  0.0762  0.0584 -0.2914
 4434TIP3    H134937   1.565   3.114   8.593 -0.9183  0.1687 -0.8096
 4434TIP3    H234938   1.528   3.065   8.455  0.3459 -1.8190 -0.4750
 4435TIP3   OH234939   6.670   0.869   8.744 -0.0437  0.5103  0.1817
 4435TIP3    H134940   6.589   0.824   8.768  0.0804  0.1011 -0.1667
 4435TIP3    H234941   6.640   0.951   8.704 -0.2862  0.3815  0.0944
 4436TIP3   OH234942   5.399   1.255   0.722  0.1437  0.2326 -0.1707
 4436TIP3    H134943   5.372   1.201   0.648  0.5701  0.7785 -0.7303
 4436TIP3    H234944   5.462   1.201   0.770  0.7729  0.3243 -0.8756
 4437TIP3   OH234945   2.105   1.097   7.884 -0.3024  0.2453  0.5993
 4437TIP3    H134946   2.026   1.095   7.831  0.1670  0.9835 -0.1483
 4437TIP3    H234947   2.144   1.011   7.872 -0.6013  0.1405  0.3639
 4438TIP3   OH234948   4.236   6.413   7.185 -0.0041 -1.1913  0.3930
 4438TIP3    H134949   4.247   6.479   7.253  0.7041  1.4893 -2.1148
 4438TIP3    H234950   4.148   6.428   7.150  0.3844 -1.1286 -0.5985
 4439TIP3   OH234951   4.543   2.254   8.307 -0.2120 -0.1172  0.2500
 4439TIP3    H134952   4.492   2.274   8.228  0.3265 -0.3614 -0.1685
 4439TIP3    H234953   4.634   2.266   8.280  0.1542 -2.7731  0.0312
 4440TIP3   OH234954   4.575   0.909   0.037 -0.3530 -0.4130  0.3428
 4440TIP3    H134955   4.512   0.965  -0.010  0.0459  0.4582  0.8309
 4440TIP3    H234956   4.551   0.919   0.129 -0.4547 -1.2839  0.4159
 4441TIP3   OH234957   0.574   0.772   1.814  0.0382  0.3505 -0.3429
 4441TIP3    H134958   0.495   0.818   1.840  0.3072  0.5961  0.0497
 4441TIP3    H234959   0.563   0.684   1.850  0.2329  0.5750  0.2753
 4442TIP3   OH234960   4.235   6.337   6.915  0.0566  0.5098 -0.4616
 4442TIP3    H134961   4.199   6.357   7.001  1.5838 -0.0078  0.3375
 4442TIP3    H234962   4.253   6.422   6.876 -0.4879  0.7459 -0.2082
 4443TIP3   OH234963   5.911   2.720   2.430 -0.0633  1.0473  0.5894
 4443TIP3    H134964   5.850   2.671   2.485 -1.1892  0.4995 -1.0874
 4443TIP3    H234965   5.995   2.675   2.442 -0.5358  0.2620  1.0053
 4444TIP3   OH234966   1.543   3.604   0.891 -0.4231 -0.0791  0.3796
 4444TIP3    H134967   1.633   3.574   0.904 -1.6185 -3.0092  3.3824
 4444TIP3    H234968   1.540   3.691   0.931  1.4386  1.0304 -1.6790
 4445TIP3   OH234969   3.142   0.750   0.042 -0.7509  0.3298  0.1465
 4445TIP3    H134970   3.206   0.814   0.072 -0.6885  0.6798 -0.7119
 4445TIP3    H234971   3.125   0.773  -0.049  1.1344 -2.3703 -1.0269
 4446TIP3   OH234972   5.307   2.342   7.032  0.0256 -0.1914 -0.7446
 4446TIP3    H134973   5.398   2.373   7.026 -0.4084  1.3328  0.1635
 4446TIP3    H234974   5.255   2.414   6.997 -0.8814 -0.8448 -0.7693
 4447TIP3   OH234975   2.123   2.029   2.430  0.3661  0.8415  0.1789
 4447TIP3    H134976   2.078   2.106   2.465 -1.5889 -1.0060  1.9187
 4447TIP3    H234977   2.139   1.973   2.505  0.0814 -1.3016 -1.2808
 4448TIP3   OH234978   4.002   5.645   0.699  1.1317 -0.2955 -0.3713
 4448TIP3    H134979   4.062   5.631   0.772  0.1225  0.6862  0.7122
 4448TIP3    H234980   3.947   5.567   0.697  0.9230 -0.1683  0.1820
 4449TIP3   OH234981   4.615   3.088   0.753 -0.7403 -0.2517  0.1021
 4449TIP3    H134982   4.578   3.144   0.822  0.4234 -0.7268  1.1363
 4449TIP3    H234983   4.615   3.000   0.791 -0.6763 -0.6321 -0.7593
 4450TIP3   OH234984   6.165   6.374   2.643  0.1460  0.1595 -0.0889
 4450TIP3    H134985   6.260   6.381   2.644  0.2434 -0.9969  0.8855
 4450TIP3    H234986   6.147   6.282   2.663 -1.2000  0.7620  1.8002
 4451TIP3   OH234987   6.781   5.216   7.057  0.2256  0.2167  0.0127
 4451TIP3    H134988   6.862   5.244   7.099  0.0063  1.4119 -0.3115
 4451TIP3    H234989   6.745   5.150   7.115  1.0080  0.2812  0.5862
 4452TIP3   OH234990   4.285   4.196   1.984 -0.3092  0.1980 -0.4148
 4452TIP3    H134991   4.241   4.266   1.935  1.5261  0.9766 -1.0345
 4452TIP3    H234992   4.310   4.133   1.917 -0.2834 -0.1306 -0.0950
 4453TIP3   OH234993   3.333   1.622   1.085  0.3018  0.1881 -0.3797
 4453TIP3    H134994   3.247   1.648   1.052  1.0529  0.9068 -1.8722
 4453TIP3    H234995   3.331   1.644   1.178 -1.2858 -0.2421 -0.2918
 4454TIP3   OH234996   3.309   0.504   8.913  0.5257 -0.5891  0.1995
 4454TIP3    H134997   3.266   0.427   8.876  1.1502 -0.3142 -1.1777
 4454TIP3    H234998   3.276   0.577   8.859 -0.4612  0.2031  1.8007
 4455TIP3   OH234999   3.952   6.490   8.188 -0.7288 -0.1556 -0.2584
 4455TIP3    H135000   4.038   6.481   8.147 -0.8634 -1.5304 -0.2724
 4455TIP3    H235001   3.968   6.544   8.266  0.2030 -0.6803 -0.0734
 4456TIP3   OH235002   1.446   4.692   1.114 -0.2572 -0.1249 -0.2958
 4456TIP3    H135003   1.391   4.763   1.149  0.0540  0.3266 -0.7146
 4456TIP3    H235004   1.436   4.621   1.178 -1.7355 -0.2450 -0.6408
 4457TIP3   OH235005   2.688   1.322   2.012  0.3904  0.1690 -0.3161
 4457TIP3    H135006   2.634   1.292   2.086  0.5026  0.9200  0.0877
 4457TIP3    H235007   2.773   1.341   2.051  0.6288  0.0074 -0.7547
 4458TIP3   OH235008   0.183   0.321   1.237  0.4412  0.1078 -0.0311
 4458TIP3    H135009   0.271   0.313   1.199  0.9354  1.2976  0.8256
 4458TIP3    H235010   0.188   0.273   1.320 -0.2894 -1.4379 -0.8344
 4459TIP3   OH235011   5.525   6.346   8.351  0.6103 -0.4743 -0.7232
 4459TIP3    H135012   5.509   6.424   8.404 -1.4510  0.1970 -2.2037
 4459TIP3    H235013   5.616   6.356   8.322  1.8629 -0.9656  2.6852
 4460TIP3   OH235014   3.922   2.783   6.198  0.0763 -0.1891 -0.0578
 4460TIP3    H135015   3.982   2.829   6.256 -2.4061  0.7385  1.9897
 4460TIP3    H235016   3.956   2.694   6.194  2.1481  0.5487  0.1028
 4461TIP3   OH235017   2.096   1.844   8.637  0.0663 -0.8122 -0.1742
 4461TIP3    H135018   2.104   1.765   8.689 -2.5651 -0.5040  0.8503
 4461TIP3    H235019   2.167   1.901   8.668  0.0182 -1.5596  1.3798
 4462TIP3   OH235020   6.043   3.433   7.280  0.5658 -0.5239 -0.0330
 4462TIP3    H135021   6.112   3.433   7.346  0.6506 -1.1705 -0.1145
 4462TIP3    H235022   6.090   3.436   7.196  0.4394  1.4248 -0.0702
 4463TIP3   OH235023   0.197   3.519   7.855 -0.0589  0.0035 -0.0398
 4463TIP3    H135024   0.205   3.608   7.890  1.1595  0.0702 -0.4297
 4463TIP3    H235025   0.284   3.482   7.867 -0.2651 -0.7708 -0.8753
 4464TIP3   OH235026   5.316   3.335   6.882  0.1330 -0.1944 -0.0169
 4464TIP3    H135027   5.242   3.396   6.877 -0.3894 -0.6587  1.5377
 4464TIP3    H235028   5.325   3.301   6.792 -2.0706 -0.7219 -0.1057
 4465TIP3   OH235029   3.329   2.394   2.489  0.2271 -0.0900  0.2307
 4465TIP3    H135030   3.370   2.432   2.566  1.4605 -3.0756  1.2222
 4465TIP3    H235031   3.397   2.397   2.421  0.5634 -1.0205  0.5107
 4466TIP3   OH235032   0.183   2.484   0.456 -0.7461  1.0228 -0.6978
 4466TIP3    H135033   0.118   2.518   0.394 -0.1254 -0.0921 -2.0147
 4466TIP3    H235034   0.239   2.427   0.403 -0.4130 -0.2784  0.9879
 4467TIP3   OH235035   6.254   4.022   1.233 -0.5377  0.3662 -0.4428
 4467TIP3    H135036   6.174   4.050   1.278  0.0193  1.1410  0.1056
 4467TIP3    H235037   6.313   4.097   1.242  0.1914 -0.1312 -0.9875
 4468TIP3   OH235038   5.849   2.372   7.709 -0.5865 -0.5298  0.2228
 4468TIP3    H135039   5.866   2.334   7.623 -3.0319 -0.8179 -0.1893
 4468TIP3    H235040   5.784   2.440   7.694  1.0980  1.4925  1.4703
 4469TIP3   OH235041   3.879   4.586   8.301  0.5256 -0.0108 -0.0559
 4469TIP3    H135042   3.893   4.493   8.318  0.0312  0.1013  1.0226
 4469TIP3    H235043   3.965   4.626   8.313  0.6075 -0.2346  0.1102
 4470TIP3   OH235044   0.775   6.583   8.078 -0.4379 -0.4273  0.0656
 4470TIP3    H135045   0.775   6.637   8.157 -1.1892 -0.8522  0.3604
 4470TIP3    H235046   0.849   6.524   8.089 -0.0801  0.0178  0.0936
 4471TIP3   OH235047   3.619   2.230   0.861  0.2282  0.0331 -0.4677
 4471TIP3    H135048   3.548   2.240   0.798 -1.4546  0.5136  1.4067
 4471TIP3    H235049   3.671   2.311   0.853 -0.8977  0.8040 -0.1695
 4472TIP3   OH235050   5.636   3.075   0.482  0.2981 -0.1945  0.5509
 4472TIP3    H135051   5.698   3.022   0.432 -0.8910 -0.4111 -0.7578
 4472TIP3    H235052   5.638   3.161   0.440 -3.3739 -1.3021 -2.5217
 4473TIP3   OH235053   2.387   5.222   2.179  0.3771 -0.0645  0.2692
 4473TIP3    H135054   2.445   5.173   2.121  0.9445 -0.4700  1.1683
 4473TIP3    H235055   2.357   5.295   2.125  1.2497 -0.1800 -0.4040
 4474TIP3   OH235056   5.146   4.303   7.965  0.3715 -0.2710  0.6197
 4474TIP3    H135057   5.207   4.276   7.896  0.2721 -0.0867  0.4593
 4474TIP3    H235058   5.115   4.221   8.004  1.1770 -0.3605  1.0985
 4475TIP3   OH235059   5.245   1.330   0.345 -0.2538  0.2167 -0.0611
 4475TIP3    H135060   5.309   1.369   0.286  0.1174 -1.2354 -0.6478
 4475TIP3    H235061   5.273   1.358   0.432  0.7582  0.1933 -0.3649
 4476TIP3   OH235062   6.399   0.184   0.961 -0.1885 -0.9097 -0.1164
 4476TIP3    H135063   6.358   0.266   0.931 -0.2310 -0.1620  1.8589
 4476TIP3    H235064   6.464   0.164   0.894  1.9778  2.4216  0.7373
 4477TIP3   OH235065   3.210   5.514   1.449 -0.2183  0.3512 -0.1010
 4477TIP3    H135066   3.208   5.597   1.497  1.1777  0.4971 -0.2625
 4477TIP3    H235067   3.184   5.448   1.513  1.1922  0.5991  0.7572
 4478TIP3   OH235068   2.205   1.952   1.430  0.2438 -0.4207  0.0626
 4478TIP3    H135069   2.180   2.040   1.402 -1.3792 -0.3295  1.6221
 4478TIP3    H235070   2.162   1.940   1.514  1.4846 -2.2480  0.5110
 4479TIP3   OH235071   6.667   3.433   0.764 -0.1931  0.0425  0.1686
 4479TIP3    H135072   6.672   3.353   0.712  1.4296  0.5016 -0.4489
 4479TIP3    H235073   6.695   3.503   0.705 -0.5126  0.9094  1.0120
 4480TIP3   OH235074   2.404   6.396   7.836  0.2018  0.3553 -0.1385
 4480TIP3    H135075   2.380   6.469   7.780  1.4393  0.5325 -0.4651
 4480TIP3    H235076   2.393   6.429   7.925 -1.6150  0.1212 -0.2440
 4481TIP3   OH235077   4.617   2.107   8.025 -0.4310  0.0351  0.2579
 4481TIP3    H135078   4.600   2.110   7.931 -0.4923 -1.4733  0.1978
 4481TIP3    H235079   4.696   2.159   8.037 -0.1674 -0.1314 -0.6917
 4482TIP3   OH235080   0.740   3.598   6.773 -0.8290 -0.2940  0.0191
 4482TIP3    H135081   0.785   3.517   6.793 -0.6918 -0.5268 -1.1550
 4482TIP3    H235082   0.770   3.660   6.839  0.2698 -0.7759 -0.0128
 4483TIP3   OH235083   4.296   2.265   0.063  0.0657  0.1599  0.1977
 4483TIP3    H135084   4.349   2.243   0.140 -1.2125 -3.3495  0.2200
 4483TIP3    H235085   4.360   2.294  -0.002  1.5178  0.1152  1.5382
 4484TIP3   OH235086   0.136   0.873   8.642  0.2652 -0.6611  0.2245
 4484TIP3    H135087   0.152   0.809   8.573  1.8974  0.7331 -0.7598
 4484TIP3    H235088   0.042   0.864   8.662 -0.2560 -1.1205 -2.1620
 4485TIP3   OH235089   1.859   6.182   0.028  0.2687 -0.0517  0.1465
 4485TIP3    H135090   1.794   6.112   0.032 -1.2505  1.2741 -0.0834
 4485TIP3    H235091   1.837   6.238   0.103  1.3405  0.2813  0.2263
 4486TIP3   OH235092   1.484   0.613   7.995 -0.1255  0.2127 -0.1901
 4486TIP3    H135093   1.563   0.653   7.960  1.1322 -1.4730  0.6143
 4486TIP3    H235094   1.430   0.687   8.022  2.1292  1.4187  1.3060
 4487TIP3   OH235095   1.111   4.009   8.520  0.1007 -0.1347 -0.0105
 4487TIP3    H135096   1.143   3.978   8.435  0.7813  0.7243 -0.0869
 4487TIP3    H235097   1.188   4.048   8.562 -0.0574 -1.2017  1.3231
 4488TIP3   OH235098   6.232   3.951   7.396 -0.2954 -0.4078  0.3832
 4488TIP3    H135099   6.192   3.865   7.410 -2.4336  0.7882  2.2407
 4488TIP3    H235100   6.244   3.986   7.484 -1.8436  2.2072 -0.3389
 4489TIP3   OH235101   3.842   5.534   1.836  0.2497 -0.1006  0.3729
 4489TIP3    H135102   3.804   5.491   1.912 -1.1016  2.5587  1.3288
 4489TIP3    H235103   3.771   5.539   1.772  0.1243  1.3950  0.6087
 4490TIP3   OH235104   4.470   5.494   2.346  0.2499 -0.0999  0.1076
 4490TIP3    H135105   4.420   5.438   2.406  2.1187 -2.4525 -0.3953
 4490TIP3    H235106   4.507   5.562   2.403  1.7428 -2.0928  1.6508
 4491TIP3   OH235107   4.209   1.639   2.067  0.3355  0.1905  0.0376
 4491TIP3    H135108   4.134   1.580   2.077  0.6987 -0.1334  0.8958
 4491TIP3    H235109   4.214   1.687   2.150 -0.1299  1.6651 -0.7392
 4492TIP3   OH235110   4.089   5.444   1.803  0.0517  0.5218 -0.0855
 4492TIP3    H135111   4.099   5.409   1.892 -1.1577 -0.5283 -0.3243
 4492TIP3    H235112   4.016   5.506   1.810  0.1498  0.6588 -0.2833
 4493TIP3   OH235113   3.202   1.757   0.325  0.1375 -0.4236  0.9733
 4493TIP3    H135114   3.234   1.754   0.416  0.6176  0.5478  0.8458
 4493TIP3    H235115   3.267   1.810   0.279 -0.7514  0.1239  0.3225
 4494TIP3   OH235116   2.801   1.851   2.083 -0.5474 -0.0805 -0.5683
 4494TIP3    H135117   2.737   1.797   2.130  0.3062 -0.0946  0.6238
 4494TIP3    H235118   2.885   1.808   2.100 -0.0461  0.7668 -0.8723
 4495TIP3   OH235119   4.734   2.120   1.007 -0.2765 -0.6625  0.2662
 4495TIP3    H135120   4.647   2.144   1.038 -0.7166 -0.2199 -1.2002
 4495TIP3    H235121   4.721   2.038   0.960  0.3599 -1.2926  1.1487
 4496TIP3   OH235122   5.263   1.899   7.624  0.1709  0.0623  0.9346
 4496TIP3    H135123   5.339   1.841   7.618  2.0382  2.3704  0.5477
 4496TIP3    H235124   5.300   1.982   7.656 -2.2265  1.2525  0.7843
 4497TIP3   OH235125   2.559   4.437   0.140 -0.7027  0.2220  0.2024
 4497TIP3    H135126   2.537   4.486   0.219 -1.9602 -1.1552  0.7552
 4497TIP3    H235127   2.646   4.468   0.116 -1.3611  2.5822  0.6042
 4498TIP3   OH235128   4.958   5.873   1.442 -0.1112  0.0236 -0.7825
 4498TIP3    H135129   4.909   5.932   1.385  0.8665 -0.2599 -1.9605
 4498TIP3    H235130   4.978   5.798   1.386 -1.1583 -1.3629  0.6246
 4499TIP3   OH235131   4.719   1.171   8.903  0.2376  0.4572 -0.3927
 4499TIP3    H135132   4.752   1.089   8.938  0.9517  0.7026 -0.4797
 4499TIP3    H235133   4.630   1.178   8.938  0.9492  0.7313  1.4405
 4500TIP3   OH235134   6.102   5.359   0.215  0.6914 -0.4172 -0.3641
 4500TIP3    H135135   6.130   5.428   0.155  0.0553 -0.9281 -1.2726
 4500TIP3    H235136   6.015   5.334   0.185  1.1358 -2.0208 -0.4499
 4501TIP3   OH235137   3.076   6.487   0.792 -0.1487 -0.1486 -0.5025
 4501TIP3    H135138   3.126   6.467   0.871 -0.7324 -0.6238 -0.2554
 4501TIP3    H235139   3.141   6.525   0.732  0.3785 -0.1749  0.0451
 4502TIP3   OH235140   0.850   0.186   7.664 -0.4200  0.2264  0.3882
 4502TIP3    H135141   0.785   0.139   7.613 -1.1317  0.8083  0.7278
 4502TIP3    H235142   0.889   0.249   7.603  0.1769 -0.4505  0.0622
 4503TIP3   OH235143   3.628   3.396   8.116  0.1624 -0.2333  0.4201
 4503TIP3    H135144   3.688   3.325   8.095 -0.5147 -0.3633 -1.2733
 4503TIP3    H235145   3.679   3.456   8.169  0.9769 -1.6001  1.2335
 4504TIP3   OH235146   5.519   1.034   8.636  0.0518 -0.0435  0.5627
 4504TIP3    H135147   5.503   1.128   8.647 -2.6807 -0.6647  3.2339
 4504TIP3    H235148   5.450   1.004   8.576  1.0268 -0.3758 -0.4321
 4505TIP3   OH235149   0.269   5.052   2.199 -0.0642 -0.1142  0.1607
 4505TIP3    H135150   0.210   4.995   2.149  2.1550 -1.6149 -0.8891
 4505TIP3    H235151   0.266   5.018   2.288  0.2421 -1.0439 -0.1791
 4506TIP3   OH235152   1.596   1.791   0.092 -0.3298 -0.5376  0.0385
 4506TIP3    H135153   1.637   1.835   0.167 -0.1582 -0.7807  0.0869
 4506TIP3    H235154   1.505   1.820   0.095 -0.2574 -0.3153  0.1689
 4507TIP3   OH235155   3.922   4.354   7.551 -0.4549 -0.4586  0.9457
 4507TIP3    H135156   3.957   4.354   7.462 -2.9260  0.0900 -0.1014
 4507TIP3    H235157   3.985   4.407   7.601 -0.0384  0.9032 -0.9087
 4508TIP3   OH235158   6.139   1.789   6.730  0.0875 -0.0899 -0.1273
 4508TIP3    H135159   6.154   1.882   6.749 -0.5101 -0.1996  0.9853
 4508TIP3    H235160   6.140   1.783   6.635 -0.6583  1.2000 -0.2375
 4509TIP3   OH235161   5.374   5.247   1.875 -0.3517 -0.3346  0.3012
 4509TIP3    H135162   5.406   5.227   1.787 -2.2716 -0.1387 -0.4923
 4509TIP3    H235163   5.287   5.208   1.878  0.5219 -2.3913  2.9672
 4510TIP3   OH235164   4.440   4.033   8.745 -0.0527  0.0877  0.1447
 4510TIP3    H135165   4.384   3.963   8.711  0.2446  0.3476 -0.9172
 4510TIP3    H235166   4.529   4.002   8.731  0.0994 -0.2591  1.7007
 4511TIP3   OH235167   3.716   5.870   0.182 -0.1904 -0.7440 -0.2404
 4511TIP3    H135168   3.728   5.926   0.259  1.7691 -1.1105 -0.2231
 4511TIP3    H235169   3.663   5.922   0.122  1.0426  0.8990  0.0300
 4512TIP3   OH235170   4.053   0.881   7.592 -0.0905 -0.0101  0.1369
 4512TIP3    H135171   4.032   0.903   7.501  0.5759  1.0892  0.2336
 4512TIP3    H235172   4.148   0.873   7.593 -0.0187  0.8090  0.8939
 4513TIP3   OH235173   0.400   1.883   8.793 -0.5572  0.2057 -0.3762
 4513TIP3    H135174   0.365   1.971   8.778 -0.8798 -0.1937 -2.2628
 4513TIP3    H235175   0.493   1.897   8.812 -0.8775  1.0136  0.7551
 4514TIP3   OH235176   3.190   1.970   7.720  0.1176  0.1450  0.4651
 4514TIP3    H135177   3.224   1.881   7.708  0.9261  0.7974 -2.7468
 4514TIP3    H235178   3.106   1.969   7.674 -0.1963  0.8944  1.0082
 4515TIP3   OH235179   2.687   3.274   7.222 -0.5045  0.2219  0.7417
 4515TIP3    H135180   2.706   3.344   7.160 -0.7415 -0.5143 -0.1950
 4515TIP3    H235181   2.646   3.318   7.297 -2.3868  0.9033 -0.6167
 4516TIP3   OH235182   2.563   6.569   0.977  0.2725 -0.6763  0.0612
 4516TIP3    H135183   2.499   6.638   0.956 -1.0768 -2.3471 -1.7423
 4516TIP3    H235184   2.632   6.580   0.911 -0.0209 -1.1177 -0.3255
 4517TIP3   OH235185   1.064   1.990   7.949 -0.5508 -0.4012 -0.0056
 4517TIP3    H135186   0.969   1.977   7.947 -0.7842  1.1541 -0.1467
 4517TIP3    H235187   1.075   2.083   7.969  0.9534 -0.5878  0.1392
 4518TIP3   OH235188   2.533   5.897   2.105  0.0655 -0.3452  0.1850
 4518TIP3    H135189   2.479   5.851   2.041  2.4042 -1.4528 -1.1167
 4518TIP3    H235190   2.552   5.982   2.064 -1.8484  0.6942  1.3161
 4519TIP3   OH235191   4.797   2.974   8.865 -0.0343 -0.0794 -0.8130
 4519TIP3    H135192   4.726   2.946   8.924  0.9339  0.2414  0.5499
 4519TIP3    H235193   4.857   3.023   8.921  1.2641 -0.3234 -1.9342
 4520TIP3   OH235194   1.411   3.971   2.325  0.5752 -0.1169  0.6079
 4520TIP3    H135195   1.410   3.980   2.421  2.4246 -0.3579  0.6915
 4520TIP3    H235196   1.319   3.962   2.301  0.1393 -1.1905  2.4733
 4521TIP3   OH235197   5.766   5.296   7.464  0.2342  0.0576 -0.1657
 4521TIP3    H135198   5.810   5.216   7.434 -0.5013 -0.2458 -0.4562
 4521TIP3    H235199   5.678   5.267   7.489 -0.2902  0.8995 -0.9835
 4522TIP3   OH235200   2.019   0.958   1.928 -0.0939 -0.0549 -0.5321
 4522TIP3    H135201   2.017   1.010   2.008  1.4160  0.1304 -0.5822
 4522TIP3    H235202   1.984   1.016   1.861  3.2715  1.7128 -0.9703
 4523TIP3   OH235203   2.310   0.419   6.536 -0.0579 -0.0378  0.6071
 4523TIP3    H135204   2.347   0.363   6.604 -1.2365 -2.7094 -0.8090
 4523TIP3    H235205   2.215   0.408   6.544 -0.3568  1.9784  0.3895
 4524TIP3   OH235206   1.294   6.346   1.454  0.1739 -0.3658  0.4227
 4524TIP3    H135207   1.330   6.262   1.426  0.6631  0.5077 -1.8370
 4524TIP3    H235208   1.313   6.351   1.548  1.2626 -2.2061  0.3427
 4525TIP3   OH235209   1.423   3.350   7.680  0.0440  0.2382  0.3684
 4525TIP3    H135210   1.446   3.351   7.772  3.2518 -3.8871 -0.0881
 4525TIP3    H235211   1.486   3.409   7.638 -2.1873  3.0826  0.7506
 4526TIP3   OH235212   5.372   3.282   2.062 -0.1644  0.1417  0.2761
 4526TIP3    H135213   5.385   3.344   2.134 -0.6239 -1.1087  1.4809
 4526TIP3    H235214   5.460   3.252   2.040  0.1821  1.9196 -1.0249
 4527TIP3   OH235215   6.641   3.254   7.830 -0.2520  0.6033 -0.5992
 4527TIP3    H135216   6.583   3.233   7.903 -0.6657  3.9872  0.1842
 4527TIP3    H235217   6.726   3.219   7.856 -1.3302 -2.3853 -0.7293
 4528TIP3   OH235218   4.148   5.894   0.600  0.0236 -0.2459 -0.2463
 4528TIP3    H135219   4.242   5.890   0.621  0.4138 -0.3251 -1.8269
 4528TIP3    H235220   4.108   5.827   0.655  0.6448  0.7753  1.5355
 4529TIP3   OH235221   3.121   5.870   1.342 -0.2579 -0.1814  0.7230
 4529TIP3    H135222   3.154   5.799   1.286  0.2981 -0.2825  1.1651
 4529TIP3    H235223   3.043   5.903   1.297  0.4552  0.0639 -0.3576
 4530TIP3   OH235224   1.764   3.342   7.759 -0.4816  0.2575  0.0086
 4530TIP3    H135225   1.779   3.412   7.822 -0.2984 -0.4722  0.7845
 4530TIP3    H235226   1.718   3.385   7.686 -0.5074  1.1440  0.5339
 4531TIP3   OH235227   3.881   0.097   6.478 -0.3843 -0.7060  0.7820
 4531TIP3    H135228   3.969   0.071   6.506  0.3711 -0.6000 -1.3482
 4531TIP3    H235229   3.851   0.158   6.546  1.6656  0.1572  0.9839
 4532TIP3   OH235230   0.007   5.355   7.579  0.4277 -0.0030  0.7678
 4532TIP3    H135231  -0.060   5.353   7.648  0.5548 -3.4945  0.9224
 4532TIP3    H235232  -0.040   5.385   7.501 -0.6823  0.1280  1.4667
 4533TIP3   OH235233   2.397   4.366   0.821 -0.1351 -0.1497  0.4997
 4533TIP3    H135234   2.469   4.411   0.866  0.8776 -2.7414  1.6873
 4533TIP3    H235235   2.439   4.295   0.773 -1.8239 -1.1758  0.4592
 4534TIP3   OH235236   5.167   6.089   7.232 -0.2065 -0.0698 -0.0364
 4534TIP3    H135237   5.085   6.119   7.270 -0.0111 -0.0881  0.4132
 4534TIP3    H235238   5.143   6.013   7.178 -0.1781 -1.7039  2.1164
 4535TIP3   OH235239   4.998   1.661   6.181 -0.1171 -0.1621  0.2424
 4535TIP3    H135240   4.999   1.626   6.270 -0.1471  2.4759  1.3757
 4535TIP3    H235241   5.091   1.665   6.156 -0.0196  0.2689  0.6659
 4536TIP3   OH235242   3.071   4.518   6.605 -0.5243  0.1631 -0.3400
 4536TIP3    H135243   3.005   4.588   6.612  0.8607  1.5131 -0.1764
 4536TIP3    H235244   3.029   4.441   6.643 -2.2637  0.7792 -0.9236
 4537TIP3   OH235245   0.932   6.778   1.007  0.0407 -0.3850  0.0296
 4537TIP3    H135246   0.856   6.743   1.054  0.9914 -2.2884  0.2372
 4537TIP3    H235247   0.929   6.736   0.921 -0.9543  2.0855 -1.2662
 4538TIP3   OH235248   5.340   4.052   0.739  0.3189  0.0890  0.8097
 4538TIP3    H135249   5.347   4.114   0.811  2.9879 -0.6877  1.3406
 4538TIP3    H235250   5.430   4.023   0.724 -0.1890 -0.2180 -2.4636
 4539TIP3   OH235251   3.128   5.355   0.393  0.2399  0.2249 -0.1388
 4539TIP3    H135252   3.106   5.426   0.453  0.2971  0.4021 -0.3251
 4539TIP3    H235253   3.165   5.287   0.449 -2.0183 -0.6432  0.3763
 4540TIP3   OH235254   6.557   1.959   8.199 -0.0454  0.3696 -0.1282
 4540TIP3    H135255   6.611   1.898   8.248  0.8716  0.2425 -1.2633
 4540TIP3    H235256   6.589   1.954   8.109 -0.7310  1.6454 -0.4781
 4541TIP3   OH235257   0.357   0.164   0.949 -0.6110  0.7421  0.1515
 4541TIP3    H135258   0.384   0.170   1.040  1.2132  2.0763 -0.4110
 4541TIP3    H235259   0.261   0.171   0.951 -0.5486  1.5600  1.9014
 4542TIP3   OH235260   4.698   1.833   1.284  0.5075  0.1158  0.5688
 4542TIP3    H135261   4.623   1.774   1.273 -0.4096  1.2761  0.3310
 4542TIP3    H235262   4.659   1.915   1.316  1.6602  0.7918  0.3012
 4543TIP3   OH235263   5.045   5.428   0.691 -0.4734 -0.1241 -0.1776
 4543TIP3    H135264   5.081   5.504   0.645 -0.5778 -0.2712 -0.5050
 4543TIP3    H235265   4.961   5.459   0.725  1.0320  1.0639  2.8673
 4544TIP3   OH235266   2.630   0.725   0.847  0.1959  0.2566 -0.1609
 4544TIP3    H135267   2.574   0.699   0.774 -0.0225  2.5135 -0.8647
 4544TIP3    H235268   2.719   0.722   0.811  0.1356  0.8159 -0.3726
 4545TIP3   OH235269   6.777   6.109   7.510  0.1193  0.5587 -0.4221
 4545TIP3    H135270   6.819   6.088   7.426  1.4051 -1.6517  0.6644
 4545TIP3    H235271   6.776   6.205   7.513 -0.6449  0.7375 -3.2453
 4546TIP3   OH235272   3.964   2.967   0.188  0.0653 -0.8649  0.2112
 4546TIP3    H135273   4.005   2.883   0.206  1.7249 -0.5705 -1.7922
 4546TIP3    H235274   4.016   3.030   0.237  0.5001 -0.7541 -0.3770
 4547TIP3   OH235275   4.297   3.301   8.695 -0.9655  0.6171 -0.2607
 4547TIP3    H135276   4.324   3.329   8.607 -1.1070 -1.8411 -1.1724
 4547TIP3    H235277   4.227   3.237   8.679 -2.0380  1.2005  1.7420
 4548TIP3   OH235278   0.394   6.017   0.700  0.4155  0.1690 -0.9580
 4548TIP3    H135279   0.469   6.059   0.742 -0.5104  0.9027  0.0701
 4548TIP3    H235280   0.344   6.090   0.663 -0.3717 -0.1651 -0.5966
 4549TIP3   OH235281   4.852   6.711   1.045 -0.6404  0.0170 -0.2057
 4549TIP3    H135282   4.850   6.751   1.132  0.7431 -0.6744  0.1729
 4549TIP3    H235283   4.762   6.717   1.013 -0.8044  1.9149  0.5123
 4550TIP3   OH235284   2.675   6.316   8.295  0.0754 -0.3220  0.0775
 4550TIP3    H135285   2.629   6.323   8.379 -0.9829 -3.3829 -0.1391
 4550TIP3    H235286   2.739   6.247   8.307  0.0191 -0.7142 -1.5776
 4551TIP3   OH235287   4.824   0.490   0.791  0.1424 -0.3287  0.4345
 4551TIP3    H135288   4.826   0.494   0.887 -0.4840 -2.1777  0.5634
 4551TIP3    H235289   4.861   0.404   0.770  0.0618 -0.0382 -0.9836
 4552TIP3   OH235290   1.761   5.905   8.904  0.8917 -0.0013  0.6933
 4552TIP3    H135291   1.796   5.859   8.980 -0.3002 -1.2498  0.5224
 4552TIP3    H235292   1.837   5.916   8.846  1.3374 -1.2496  1.0049
 4553TIP3   OH235293   0.640   1.121   0.830  0.1047 -0.8890  0.5194
 4553TIP3    H135294   0.620   1.032   0.802  0.3299 -0.8777  0.3180
 4553TIP3    H235295   0.674   1.164   0.751  1.1432 -0.9751  0.9158
 4554TIP3   OH235296   1.543   5.508   2.369  0.1680  0.7749  0.4041
 4554TIP3    H135297   1.567   5.419   2.392  0.3271  0.1777 -1.7820
 4554TIP3    H235298   1.521   5.503   2.276  0.8714  3.1495  0.0391
 4555TIP3   OH235299   4.373   1.323   0.624 -0.2115 -0.2497  0.2626
 4555TIP3    H135300   4.332   1.374   0.694  0.4268 -2.5851  2.4759
 4555TIP3    H235301   4.300   1.285   0.576 -0.6493  0.7668  0.0907
 4556TIP3   OH235302   1.419   3.005   2.162 -0.1456  0.5605 -0.1793
 4556TIP3    H135303   1.513   3.003   2.180 -0.5342 -1.4678  2.2009
 4556TIP3    H235304   1.403   2.926   2.110 -0.4703  1.1985 -1.0616
 4557TIP3   OH235305   4.687   5.233   8.833 -0.4177  0.9301  0.4244
 4557TIP3    H135306   4.740   5.270   8.762 -1.1894 -0.2694 -0.8524
 4557TIP3    H235307   4.739   5.246   8.912  0.5632  2.1597 -0.3867
 4558TIP3   OH235308   3.310   3.317   0.746 -0.0200  0.1703  0.4176
 4558TIP3    H135309   3.232   3.363   0.776 -0.2949  0.3249 -0.4980
 4558TIP3    H235310   3.323   3.348   0.657 -0.6980 -2.0895 -0.5586
 4559TIP3   OH235311   2.475   3.102   1.527  0.6594 -0.4950 -0.5421
 4559TIP3    H135312   2.431   3.177   1.567  1.7365  1.2236 -2.4083
 4559TIP3    H235313   2.568   3.124   1.531  0.9601 -1.4872 -1.5753
 4560TIP3   OH235314   0.973   1.618   7.932  0.0646  0.3656  0.6949
 4560TIP3    H135315   0.981   1.676   8.007  1.1875  1.7789 -0.4559
 4560TIP3    H235316   0.913   1.663   7.873  0.1380 -0.1345  0.2262
 4561TIP3   OH235317   2.304   3.717   7.391 -0.2636  0.0364  0.7455
 4561TIP3    H135318   2.213   3.701   7.417 -0.0428  0.3585  1.7859
 4561TIP3    H235319   2.312   3.812   7.386 -0.6006 -0.0042 -1.7770
 4562TIP3   OH235320   6.276   3.599   1.796  0.4348 -0.0046 -0.0381
 4562TIP3    H135321   6.304   3.598   1.887 -1.8023 -0.0750  0.6921
 4562TIP3    H235322   6.332   3.534   1.753 -0.7190 -2.5329  2.0207
 4563TIP3   OH235323   1.556   4.263   7.746  0.7579  0.0235  0.3752
 4563TIP3    H135324   1.578   4.324   7.675  4.0000 -0.6717  0.6253
 4563TIP3    H235325   1.492   4.203   7.707 -0.2083  1.7194 -0.8031
 4564TIP3   OH235326   5.048   2.570   0.445  0.5123  0.1625  0.1774
 4564TIP3    H135327   5.127   2.605   0.487 -0.3733  0.3964  1.7342
 4564TIP3    H235328   4.976   2.602   0.499 -0.5230 -1.9409  0.1341
 4565TIP3   OH235329   2.242   4.754   2.371 -0.1748  0.2815  0.1525
 4565TIP3    H135330   2.186   4.743   2.447 -0.0103  0.7361  0.3447
 4565TIP3    H235331   2.184   4.741   2.296  0.0008 -1.8732  0.3272
 4566TIP3   OH235332   4.856   3.200   8.474 -0.2834  0.5095 -0.0207
 4566TIP3    H135333   4.947   3.218   8.496 -0.0980 -1.7851  1.4651
 4566TIP3    H235334   4.809   3.205   8.557 -1.1673 -0.1436 -0.4598
 4567TIP3   OH235335   3.379   5.374   0.258  0.4162  0.5416 -0.7913
 4567TIP3    H135336   3.292   5.363   0.294  1.2613  2.5048  2.1586
 4567TIP3    H235337   3.368   5.435   0.185 -0.7850 -0.2171 -1.2699
 4568TIP3   OH235338   3.491   3.325   6.513  0.2699 -0.2906  0.0409
 4568TIP3    H135339   3.432   3.360   6.447  0.4449 -0.9898 -0.4903
 4568TIP3    H235340   3.554   3.272   6.465  0.9311 -0.1032  0.6736
 4569TIP3   OH235341   5.711   6.224   0.673 -0.6142 -0.6557 -0.5179
 4569TIP3    H135342   5.692   6.318   0.677 -2.3307 -0.9309 -1.2307
 4569TIP3    H235343   5.641   6.183   0.724  1.3353 -1.4750  1.6871
 4570TIP3   OH235344   5.235   3.607   1.394  0.5398  0.0320  0.3461
 4570TIP3    H135345   5.324   3.633   1.368  0.0948  0.4952 -0.7483
 4570TIP3    H235346   5.225   3.518   1.362  0.4592  0.1299  0.1001
 4571TIP3   OH235347   4.179   4.591   6.954  0.1420 -0.1683  1.0424
 4571TIP3    H135348   4.110   4.526   6.944 -0.4643  0.5093  0.7777
 4571TIP3    H235349   4.191   4.599   7.048  1.3338 -1.8118  1.0661
 4572TIP3   OH235350   5.108   5.771   0.859  0.0094  1.0646  0.2829
 4572TIP3    H135351   5.017   5.780   0.830 -1.2561  0.5360  3.6293
 4572TIP3    H235352   5.124   5.850   0.911  2.1346  1.9794 -1.6000
 4573TIP3   OH235353   4.917   5.664   8.807 -0.0036 -0.3910 -0.3361
 4573TIP3    H135354   4.945   5.732   8.746  1.7657 -0.8135 -0.0646
 4573TIP3    H235355   4.835   5.697   8.845  0.2572  1.0721 -0.9974
 4574TIP3   OH235356   2.609   5.219   1.224  0.0531  0.0411 -0.6465
 4574TIP3    H135357   2.575   5.260   1.303 -0.8776  0.8459 -1.4435
 4574TIP3    H235358   2.675   5.281   1.192 -0.9078  0.6579 -1.5057
 4575TIP3   OH235359   2.863   6.430   8.896  0.7602 -0.0020 -0.0743
 4575TIP3    H135360   2.793   6.459   8.955  1.1426 -0.5030  0.6357
 4575TIP3    H235361   2.875   6.337   8.917  0.5748 -0.3242 -1.2791
 4576TIP3   OH235362   5.756   6.250   7.841  0.1680 -0.0433 -0.2624
 4576TIP3    H135363   5.768   6.197   7.763  3.2306 -0.2917  0.2536
 4576TIP3    H235364   5.786   6.338   7.816  2.7603 -0.4812  0.9319
 4577TIP3   OH235365   3.225   2.592   1.150 -0.1950 -0.9123 -0.0804
 4577TIP3    H135366   3.321   2.601   1.144 -0.3132  0.0239 -1.0071
 4577TIP3    H235367   3.201   2.546   1.070 -0.6191 -0.0070 -0.4938
 4578TIP3   OH235368   1.981   3.704   8.623  0.2445  0.0202  0.2334
 4578TIP3    H135369   1.987   3.707   8.719  0.8255 -0.9935  0.2385
 4578TIP3    H235370   1.904   3.757   8.603 -1.2028 -1.5229  1.4238
 4579TIP3   OH235371   3.807   2.522   7.554 -0.6851 -0.0002  0.3263
 4579TIP3    H135372   3.777   2.457   7.617  0.4043  0.6951  1.6100
 4579TIP3    H235373   3.883   2.562   7.595  0.2181  0.3218 -1.5379
 4580TIP3   OH235374   1.573   0.673   7.605  0.5094  0.2114  0.2222
 4580TIP3    H135375   1.482   0.642   7.606  0.9096 -1.3960 -2.2240
 4580TIP3    H235376   1.568   0.761   7.567 -0.0422  0.2508  0.3762
 4581TIP3   OH235377   1.936   2.481   8.453 -0.3034 -0.4072  0.1910
 4581TIP3    H135378   1.952   2.575   8.459  0.8570 -0.5561 -0.3944
 4581TIP3    H235379   1.979   2.444   8.530  1.0912 -0.6568 -0.6630
 4582TIP3   OH235380   6.613   0.582   6.400 -0.1376 -0.2331  0.4660
 4582TIP3    H135381   6.693   0.632   6.384  0.6238 -1.7433 -0.6161
 4582TIP3    H235382   6.584   0.611   6.487  0.8873  1.2317  0.3502
 4583TIP3   OH235383   2.165   3.503   8.536  0.5964  0.2949  0.3951
 4583TIP3    H135384   2.246   3.553   8.532  0.8379 -0.1435 -0.7475
 4583TIP3    H235385   2.100   3.565   8.570  1.1231  1.0569  0.0430
 4584TIP3   OH235386   4.994   1.597   8.758  0.0869  0.4572 -0.6288
 4584TIP3    H135387   4.962   1.513   8.791  2.3858 -0.0866  0.4117
 4584TIP3    H235388   4.973   1.659   8.828  0.8807  0.1867 -0.1391
 4585TIP3   OH235389   4.521   1.124   0.250  0.0466  0.3178 -0.2281
 4585TIP3    H135390   4.612   1.126   0.280 -0.1404 -2.0717  0.6663
 4585TIP3    H235391   4.481   1.203   0.288  0.8610 -0.4588  2.4589
 4586TIP3   OH235392   4.950   2.157   7.001 -0.2440  0.2353 -0.5623
 4586TIP3    H135393   5.039   2.145   7.034 -0.9524 -0.6768  1.1130
 4586TIP3    H235394   4.920   2.069   6.979 -1.1457  0.3795  0.0409
 4587TIP3   OH235395   6.502   0.695   7.411 -0.0320  0.3623 -0.6532
 4587TIP3    H135396   6.522   0.680   7.319 -0.4581 -0.4140 -0.6236
 4587TIP3    H235397   6.522   0.613   7.455 -0.5158  0.4884 -0.1683
 4588TIP3   OH235398   0.543   1.915   7.888  0.6743  0.3323 -0.0444
 4588TIP3    H135399   0.553   1.928   7.793  3.0828  1.0021  0.2229
 4588TIP3    H235400   0.562   2.001   7.926  0.1946 -0.0452  1.0800
 4589TIP3   OH235401   0.486   6.050   1.114  0.4032 -0.6316 -0.2205
 4589TIP3    H135402   0.575   6.044   1.080 -0.2524 -0.4403 -2.0505
 4589TIP3    H235403   0.447   5.964   1.097 -0.4048 -0.0637 -1.4154
 4590TIP3   OH235404   0.837   3.128   0.769  0.1133 -0.2145 -0.2300
 4590TIP3    H135405   0.818   3.038   0.795  0.9496 -0.2388  0.3486
 4590TIP3    H235406   0.881   3.166   0.845  0.2138  0.5386 -0.6519
 4591TIP3   OH235407   1.567   3.731   2.299 -0.8940 -0.2429  0.1275
 4591TIP3    H135408   1.509   3.668   2.256 -1.3863 -0.5579  1.2347
 4591TIP3    H235409   1.517   3.813   2.298 -0.2329  0.1760 -1.3591
 4592TIP3   OH235410   4.486   5.239   1.811  0.9926 -0.0545 -0.0632
 4592TIP3    H135411   4.573   5.207   1.833  2.1898  1.4516 -2.3238
 4592TIP3    H235412   4.490   5.334   1.826 -0.2777  0.0468 -0.1750
 4593TIP3   OH235413   4.646   4.037   1.918 -0.3913 -0.1782  0.1141
 4593TIP3    H135414   4.636   4.098   1.991 -0.3918  0.9003 -0.7764
 4593TIP3    H235415   4.597   3.959   1.946 -2.0284  0.9249  0.4965
 4594TIP3   OH235416   5.198   6.550   8.187 -0.4116 -0.1305  0.2533
 4594TIP3    H135417   5.117   6.532   8.140  0.5565 -0.8126 -1.2171
 4594TIP3    H235418   5.178   6.529   8.279 -1.7821 -0.6577 -0.1498
 4595TIP3   OH235419   1.107   3.768   7.209 -0.2759  0.1091  0.0617
 4595TIP3    H135420   1.112   3.812   7.294 -1.5045  1.4994 -0.5428
 4595TIP3    H235421   1.084   3.838   7.147 -0.8739 -1.1348 -1.1745
 4596TIP3   OH235422   5.053   1.675   0.431 -0.8123 -0.4709 -0.7378
 4596TIP3    H135423   5.053   1.670   0.526 -2.5571 -0.2209 -0.6928
 4596TIP3    H235424   5.029   1.765   0.411 -0.6722 -0.5768 -1.4156
 4597TIP3   OH235425   3.189   6.780   8.811  0.3831  0.1102  0.2531
 4597TIP3    H135426   3.210   6.699   8.858  1.6724  0.7379  0.8180
 4597TIP3    H235427   3.110   6.760   8.763  0.4380 -1.3581  0.7235
 4598TIP3   OH235428   4.789   5.911   1.676  0.3055  0.0211 -0.1006
 4598TIP3    H135429   4.782   5.919   1.771  1.3039 -0.8249  0.0703
 4598TIP3    H235430   4.844   5.984   1.650  0.3034  0.0623  0.0068
 4599TIP3   OH235431   1.275   5.355   1.995 -0.5177 -0.0004  0.4154
 4599TIP3    H135432   1.312   5.359   2.083 -1.0414 -0.6038  0.6670
 4599TIP3    H235433   1.226   5.437   1.985  1.2173  1.0438 -0.0923
 4600TIP3   OH235434   5.782   6.681   8.902  0.5218 -0.2586 -0.6908
 4600TIP3    H135435   5.874   6.684   8.875  1.5141 -0.4171  2.2625
 4600TIP3    H235436   5.739   6.751   8.853  2.8978  1.8107 -0.0109
 4601TIP3   OH235437   5.674   0.175   8.354  0.5479  0.3218 -0.4183
 4601TIP3    H135438   5.737   0.102   8.352 -0.0866 -0.2356 -0.4549
 4601TIP3    H235439   5.705   0.234   8.286 -0.3893 -1.1864 -2.2613
 4602TIP3   OH235440   1.989   1.614   7.876 -0.0682 -0.1552 -0.3705
 4602TIP3    H135441   1.969   1.557   7.950 -1.0487 -0.2648 -0.7095
 4602TIP3    H235442   1.921   1.595   7.811  0.6457  0.1007 -1.2172
 4603TIP3   OH235443   1.495   1.220   0.724  0.1250 -0.0774  0.5300
 4603TIP3    H135444   1.419   1.227   0.666  0.1883 -1.1642  0.2823
 4603TIP3    H235445   1.565   1.187   0.667  1.7159  3.7804  0.0060
 4604TIP3   OH235446   3.305   5.985   8.621  0.4816 -0.0988 -0.6565
 4604TIP3    H135447   3.374   5.921   8.642 -0.4527 -0.9368 -0.0263
 4604TIP3    H235448   3.352   6.059   8.584  1.6043 -1.2291 -1.6166
 4605TIP3   OH235449   5.514   5.040   6.805  0.0149 -0.1256  0.0588
 4605TIP3    H135450   5.436   5.030   6.860  0.7934  0.7658  1.3783
 4605TIP3    H235451   5.551   5.125   6.830  0.2528  0.4650 -2.0804
 4606TIP3   OH235452   4.296   6.286   6.500  0.1239 -0.1430  0.3524
 4606TIP3    H135453   4.346   6.227   6.444  1.1767 -0.2304  1.3415
 4606TIP3    H235454   4.357   6.356   6.523 -0.7382  0.6823  0.1934
 4607TIP3   OH235455   1.354   4.193   0.335  0.3195  0.7395  0.6442
 4607TIP3    H135456   1.269   4.194   0.378 -0.0134  0.3628  0.0126
 4607TIP3    H235457   1.341   4.242   0.254  0.6287  0.4571  0.4172
 4608TIP3   OH235458   3.624   1.871   0.444 -0.0492  0.4548 -0.2248
 4608TIP3    H135459   3.632   1.963   0.466  0.8813  0.6670 -1.3808
 4608TIP3    H235460   3.693   1.828   0.495 -0.5219  0.3775  0.3603
 4609TIP3   OH235461   0.104   0.327   0.639 -0.3789  0.2310  0.0552
 4609TIP3    H135462   0.117   0.385   0.564  2.1524 -1.3587 -0.8468
 4609TIP3    H235463   0.063   0.249   0.601  0.3884 -0.3541  0.4261
 4610TIP3   OH235464   3.969   6.237   7.540 -0.4762 -0.5092  0.3052
 4610TIP3    H135465   4.053   6.239   7.585 -0.1084  2.0134 -0.3222
 4610TIP3    H235466   3.990   6.209   7.451 -0.0538  1.1671 -0.1639
 4611TIP3   OH235467   1.096   5.522   0.083  0.3056  0.7245  0.5274
 4611TIP3    H135468   1.007   5.485   0.089  0.1587  1.3013  3.6214
 4611TIP3    H235469   1.085   5.604   0.035 -0.8893  0.8630  1.0036
 4612TIP3   OH235470   1.682   2.819   6.679  0.4717 -0.3062  0.2507
 4612TIP3    H135471   1.664   2.892   6.619  0.5042  1.2547  2.0205
 4612TIP3    H235472   1.766   2.841   6.719  0.4711 -1.3254  0.8408
 4613TIP3   OH235473   5.737   2.371   7.123 -0.5010  0.5037 -0.6750
 4613TIP3    H135474   5.747   2.465   7.137 -2.1848  0.4707  1.1985
 4613TIP3    H235475   5.806   2.349   7.061  1.4532  2.5333  0.6151
 4614TIP3   OH235476   0.138   4.180   1.928 -0.2607 -0.0177 -0.7185
 4614TIP3    H135477   0.219   4.205   1.972  0.2369 -0.0678 -1.5822
 4614TIP3    H235478   0.131   4.086   1.941  0.3538 -0.1794 -1.4860
 4615TIP3   OH235479   4.458   6.655   1.855  0.4381 -0.0031 -0.0983
 4615TIP3    H135480   4.408   6.606   1.920  0.0627 -1.8095 -1.6555
 4615TIP3    H235481   4.512   6.714   1.906 -1.1645 -0.0337  1.7714
 4616TIP3   OH235482   6.160   4.022   2.752 -0.2595 -0.2059 -0.0099
 4616TIP3    H135483   6.186   4.115   2.750  0.6411 -0.4114  1.0820
 4616TIP3    H235484   6.078   4.019   2.703 -0.4914  1.2336  0.2415
 4617TIP3   OH235485   5.758   6.080   7.618  0.1887  0.7043 -0.0700
 4617TIP3    H135486   5.838   6.124   7.588  0.1308  1.4731  0.8652
 4617TIP3    H235487   5.773   5.987   7.599  0.6262  1.0142 -1.3971
 4618TIP3   OH235488   0.733   6.771   8.284  0.2000 -0.5433  0.0883
 4618TIP3    H135489   0.661   6.747   8.342 -1.8510  2.1612 -1.1629
 4618TIP3    H235490   0.764   6.855   8.317  1.9695 -1.0537 -0.1771
 4619TIP3   OH235491   1.445   1.860   7.666 -0.2042  0.0012  0.0904
 4619TIP3    H135492   1.366   1.820   7.631  0.0294  1.0630 -1.8391
 4619TIP3    H235493   1.435   1.856   7.761 -1.9149 -1.1187 -0.0977
 4620TIP3   OH235494   3.133   3.309   2.271 -0.1403 -0.0240 -0.0048
 4620TIP3    H135495   3.224   3.282   2.278  0.6213  1.7958 -1.9481
 4620TIP3    H235496   3.101   3.310   2.361  1.8260 -0.4053  0.7355
 4621TIP3   OH235497   3.886   4.272   0.050 -0.0350  0.0858  0.0849
 4621TIP3    H135498   3.849   4.358   0.066 -1.5130 -0.5322  0.1347
 4621TIP3    H235499   3.837   4.237  -0.024  0.8398 -0.5454 -0.2232
 4622TIP3   OH235500   0.591   3.581   1.123 -0.3081  0.0933  0.6980
 4622TIP3    H135501   0.571   3.606   1.214  0.7377 -0.2331  1.0312
 4622TIP3    H235502   0.655   3.510   1.131  0.1121  0.3434 -0.3031
 4623TIP3   OH235503   2.656   0.018   1.422  0.1162 -0.6004 -0.0155
 4623TIP3    H135504   2.740   0.063   1.415 -0.5523  0.5449 -1.0439
 4623TIP3    H235505   2.671  -0.051   1.487  2.3566 -1.6147 -1.4768
 4624TIP3   OH235506   4.250   4.899   7.343  0.7922  0.3410  0.4796
 4624TIP3    H135507   4.272   4.898   7.250  0.8217 -0.2789  0.4855
 4624TIP3    H235508   4.159   4.929   7.345 -0.0765 -1.9844  0.0175
 4625TIP3   OH235509   3.709   5.476   7.995  0.2522 -0.0071 -0.4768
 4625TIP3    H135510   3.763   5.543   7.954  0.5457  0.2709  0.3483
 4625TIP3    H235511   3.627   5.478   7.945  0.7431  0.0401 -1.2962
 4626TIP3   OH235512   5.582   1.094   7.985  0.2631  0.0729 -0.2929
 4626TIP3    H135513   5.666   1.140   7.980 -0.1355  0.8610  0.1212
 4626TIP3    H235514   5.553   1.088   7.894  0.7830 -0.2293 -0.4401
 4627TIP3   OH235515   4.858   0.685   1.798  0.2422  0.1718  0.3193
 4627TIP3    H135516   4.849   0.660   1.890 -1.4269 -0.2734  0.0709
 4627TIP3    H235517   4.893   0.774   1.800 -0.5321  0.4762  1.4226
 4628TIP3   OH235518   2.087   2.442   1.267 -0.0881 -0.0880  0.0904
 4628TIP3    H135519   2.124   2.475   1.348 -0.4937  0.7270 -0.0481
 4628TIP3    H235520   1.993   2.461   1.274 -0.2225 -0.5807 -0.2942
 4629TIP3   OH235521   5.047   0.249   0.530 -0.3048 -0.3311 -0.0984
 4629TIP3    H135522   5.054   0.181   0.464  0.6751  0.2794 -0.6562
 4629TIP3    H235523   5.129   0.242   0.580 -0.9753 -0.7088  0.9954
 4630TIP3   OH235524   2.981   2.836   0.639  0.4424  0.0923 -0.2248
 4630TIP3    H135525   2.906   2.777   0.631 -0.2718  0.5910  2.0286
 4630TIP3    H235526   3.046   2.786   0.689  1.1642  0.0699 -1.1717
 4631TIP3   OH235527   4.279   0.909   0.138 -0.6134 -0.4497 -0.1957
 4631TIP3    H135528   4.276   0.874   0.049 -1.6748 -1.7150  0.3183
 4631TIP3    H235529   4.187   0.920   0.162 -0.4071 -2.0775  1.4876
 4632TIP3   OH235530   5.284   1.322   8.905 -0.0060  0.4993 -0.0370
 4632TIP3    H135531   5.203   1.272   8.916 -0.5205  1.5366  1.1419
 4632TIP3    H235532   5.297   1.365   8.990  0.8150  1.7785 -0.7881
 4633TIP3   OH235533   2.604   6.552   8.747  0.3419  1.1289  0.1196
 4633TIP3    H135534   2.624   6.471   8.795 -2.4910  0.1893 -0.0772
 4633TIP3    H235535   2.617   6.622   8.811  1.8501  0.4472  0.6020
 4634TIP3   OH235536   1.831   1.937   2.420 -0.4904  0.4576  0.4757
 4634TIP3    H135537   1.792   1.935   2.508 -1.9241  1.7394 -0.0948
 4634TIP3    H235538   1.901   2.002   2.426  0.7907 -0.9308  1.1702
 4635TIP3   OH235539   3.092   1.410   0.561  0.9247  0.3861 -0.0974
 4635TIP3    H135540   3.058   1.397   0.649 -1.2821 -0.4865 -1.0018
 4635TIP3    H235541   3.124   1.500   0.560 -0.5706  0.9725  1.1375
 4636TIP3   OH235542   5.970   2.318   8.632 -0.1558  0.0278 -0.2186
 4636TIP3    H135543   6.009   2.340   8.717  0.3209 -0.5788 -0.2696
 4636TIP3    H235544   5.889   2.272   8.655  0.6680 -1.3966 -0.0499
 4637TIP3   OH235545   2.307   6.004   0.262  0.3400  0.7039  0.3019
 4637TIP3    H135546   2.349   5.951   0.329 -0.6329  0.4051  0.6976
 4637TIP3    H235547   2.374   6.068   0.235  1.2178 -0.1303  0.4745
 4638TIP3   OH235548   2.953   6.228   0.745  0.1650 -0.3313 -0.3411
 4638TIP3    H135549   2.999   6.187   0.672  0.6061 -1.6690  0.6490
 4638TIP3    H235550   2.985   6.318   0.747  0.5592 -0.4338 -1.4411
 4639TIP3   OH235551   6.092   0.751   7.788 -0.3204 -0.1354 -0.2916
 4639TIP3    H135552   6.140   0.816   7.840 -0.2813  0.0404 -0.5445
 4639TIP3    H235553   6.160   0.700   7.744 -0.3564 -0.0934 -0.3986
 4640TIP3   OH235554   3.473   3.396   1.246 -0.0476  1.1608 -0.7228
 4640TIP3    H135555   3.419   3.388   1.167 -0.5987  0.4704 -0.2823
 4640TIP3    H235556   3.552   3.347   1.225 -1.9011 -2.8181  0.6230
 4641TIP3   OH235557   0.286   0.275   0.199 -0.2051  0.1620 -0.5756
 4641TIP3    H135558   0.191   0.275   0.183 -0.1996 -1.3057 -0.7486
 4641TIP3    H235559   0.294   0.265   0.294 -0.2573 -1.7572 -0.7340
 4642TIP3   OH235560   1.513   1.112   6.721 -0.2246  0.0017  1.2261
 4642TIP3    H135561   1.584   1.127   6.784  0.1792 -2.9669  1.6125
 4642TIP3    H235562   1.556   1.117   6.636  0.2790 -0.8573  1.4206
 4643TIP3   OH235563   1.851   1.619   1.141  0.0957  0.0145  0.0018
 4643TIP3    H135564   1.814   1.534   1.166 -1.2438  0.4506 -0.4147
 4643TIP3    H235565   1.800   1.646   1.065 -0.0157  1.5489  0.5870
 4644TIP3   OH235566   2.122   0.010   7.376 -0.3357  0.4740  0.1056
 4644TIP3    H135567   2.117  -0.058   7.309 -1.0625  0.6170  0.0042
 4644TIP3    H235568   2.139   0.091   7.328  3.0361  0.0702  0.4090
 4645TIP3   OH235569   0.900   3.890   8.287  0.3218  0.1264 -0.7627
 4645TIP3    H135570   0.886   3.975   8.328 -1.2612 -0.5771  0.2962
 4645TIP3    H235571   0.992   3.869   8.306  0.1577  0.6807  0.8469
 4646TIP3   OH235572   4.431   6.251   7.834 -0.3360  0.3974 -0.4972
 4646TIP3    H135573   4.456   6.318   7.897  0.6339 -0.3214 -0.0998
 4646TIP3    H235574   4.383   6.186   7.886 -1.1523  0.6958 -0.8546
 4647TIP3   OH235575   3.187   3.865   1.202  0.1169  0.3871 -0.2778
 4647TIP3    H135576   3.102   3.885   1.241 -0.6573 -2.7754 -0.1080
 4647TIP3    H235577   3.195   3.928   1.130 -1.9266  1.3671  0.2679
 4648TIP3   OH235578   3.202   6.736   1.667 -0.4081  0.0146  0.3584
 4648TIP3    H135579   3.211   6.828   1.690  0.2046 -0.0554  0.4117
 4648TIP3    H235580   3.287   6.712   1.630 -1.5912  0.3504 -2.8410
 4649TIP3   OH235581   2.870   5.890   0.670 -0.4547 -0.7783 -0.6019
 4649TIP3    H135582   2.925   5.875   0.593 -0.2817  0.7767 -0.8043
 4649TIP3    H235583   2.797   5.943   0.638  0.0673  0.6308  0.4431
 4650TIP3   OH235584   3.789   2.007   8.156  0.2637  0.1235 -0.1011
 4650TIP3    H135585   3.697   2.025   8.177  0.4335  1.2044 -0.2206
 4650TIP3    H235586   3.824   1.970   8.237 -0.0456  0.6079  0.2648
 4651TIP3   OH235587   1.248   0.820   6.286 -0.0666  0.3636 -0.2271
 4651TIP3    H135588   1.214   0.909   6.295 -1.6403 -0.4029  2.5566
 4651TIP3    H235589   1.340   0.826   6.312  0.0759  1.2911 -0.9006
 4652TIP3   OH235590   3.192   5.252   8.738 -0.1728  0.1131 -0.2064
 4652TIP3    H135591   3.282   5.267   8.711 -0.0159  0.2900  0.3957
 4652TIP3    H235592   3.173   5.322   8.800  0.1265 -1.3523  1.6360
 4653TIP3   OH235593   3.317   4.608   0.551 -0.1964  0.3729 -0.6059
 4653TIP3    H135594   3.358   4.543   0.494  1.0599 -0.0011  0.6544
 4653TIP3    H235595   3.387   4.634   0.612 -0.7766  2.5912 -0.7824
 4654TIP3   OH235596   3.066   5.283   7.322  0.6350  0.4944 -0.5971
 4654TIP3    H135597   3.133   5.237   7.271 -0.6778 -1.3969 -0.7225
 4654TIP3    H235598   3.044   5.223   7.393 -1.8554  0.4443 -1.3289
 4655TIP3   OH235599   2.408   0.120   8.925 -0.0589 -0.0719  0.5187
 4655TIP3    H135600   2.385   0.036   8.886  1.9906 -0.2701 -0.4213
 4655TIP3    H235601   2.370   0.185   8.867  0.4970 -0.3769 -0.2090
 4656TIP3   OH235602   2.517   2.104   0.282  0.0873  0.3966 -0.3960
 4656TIP3    H135603   2.585   2.171   0.276  0.1972  0.1658 -2.7328
 4656TIP3    H235604   2.564   2.021   0.287 -0.0344  0.3931  3.2078
 4657TIP3   OH235605   1.452   3.217   8.731  0.0624 -0.5479  0.4496
 4657TIP3    H135606   1.357   3.204   8.726  0.1254 -0.7721 -0.1862
 4657TIP3    H235607   1.471   3.282   8.664  0.6216 -1.9691 -0.8223
 4658TIP3   OH235608   5.932   0.522   6.613  0.2466 -0.2741 -0.3673
 4658TIP3    H135609   5.865   0.588   6.630 -1.3776 -2.5007  2.9769
 4658TIP3    H235610   6.015   0.567   6.629 -0.6297  1.5334 -0.6275
 4659TIP3   OH235611   0.018   4.984   8.134 -0.0888 -0.3317  0.2806
 4659TIP3    H135612  -0.043   5.051   8.104  0.4400 -0.5906 -1.5234
 4659TIP3    H235613  -0.037   4.909   8.157 -0.4842 -0.5440 -1.2676
 4660TIP3   OH235614   0.421   0.669   6.872  0.2061  0.9583  0.0997
 4660TIP3    H135615   0.514   0.651   6.877 -0.2803 -2.0691  0.4778
 4660TIP3    H235616   0.409   0.711   6.787  1.6401 -1.0556 -1.1854
 4661TIP3   OH235617   1.808   3.454   7.266  0.4392  0.4351  0.1853
 4661TIP3    H135618   1.818   3.501   7.183 -0.0350 -0.5118 -0.4203
 4661TIP3    H235619   1.877   3.491   7.322 -0.3269  2.3113 -0.0286
 4662TIP3   OH235620   1.194   4.910   8.380 -0.1661 -0.4936 -0.2236
 4662TIP3    H135621   1.264   4.884   8.319 -0.9198 -1.0752 -0.8552
 4662TIP3    H235622   1.188   5.005   8.370  2.1723 -0.0455  1.6281
 4663TIP3   OH235623   0.456   5.385   0.656  0.1327 -0.1655 -0.0484
 4663TIP3    H135624   0.465   5.447   0.728 -1.6519 -1.0245  0.9818
 4663TIP3    H235625   0.370   5.403   0.619  0.7546 -0.1805 -1.5674
 4664TIP3   OH235626   3.697   3.599   0.421  0.1811 -0.1283  0.5067
 4664TIP3    H135627   3.650   3.595   0.338 -0.9619  0.7206  1.0895
 4664TIP3    H235628   3.735   3.512   0.431 -2.1265 -1.2093  0.4899
 4665TIP3   OH235629   5.455   1.637   6.326 -0.3148  0.6632 -0.0892
 4665TIP3    H135630   5.430   1.545   6.327 -1.4912  0.9678 -0.2811
 4665TIP3    H235631   5.541   1.639   6.367  0.0182 -0.5995 -0.7080
 4666TIP3   OH235632   3.486   1.822   7.932 -0.2895 -0.7311  0.0307
 4666TIP3    H135633   3.495   1.905   7.980  0.0893 -0.0678 -1.1254
 4666TIP3    H235634   3.549   1.763   7.974  1.0947  0.2782 -0.5252
 4667TIP3   OH235635   1.953   0.684   0.129 -0.4599  0.4278  0.4336
 4667TIP3    H135636   1.902   0.762   0.147  1.5413  1.7998  0.4672
 4667TIP3    H235637   2.041   0.705   0.159  0.2901 -1.6205 -0.1318
 4668TIP3   OH235638   3.002   3.261   1.057  0.2251 -0.1609 -0.4982
 4668TIP3    H135639   2.973   3.296   1.141  0.9562 -1.4222  0.3198
 4668TIP3    H235640   2.940   3.190   1.038  0.2388 -0.0758 -0.8675
 4669TIP3   OH235641   6.505   1.124   8.436  0.1720 -0.4050 -0.3057
 4669TIP3    H135642   6.527   1.217   8.429  1.2847 -0.7128 -0.9863
 4669TIP3    H235643   6.522   1.088   8.350 -0.0962 -1.2885 -0.0003
 4670TIP3   OH235644   4.010   3.216   7.416  0.1134  0.7325  0.3616
 4670TIP3    H135645   4.057   3.190   7.495 -1.6724  0.5889  1.4054
 4670TIP3    H235646   4.078   3.216   7.348  1.1898 -1.8224  1.2999
 4671TIP3   OH235647   5.395   1.819   7.190 -0.1077  0.0916 -0.7365
 4671TIP3    H135648   5.392   1.739   7.244  0.3487  0.8756  0.4958
 4671TIP3    H235649   5.364   1.791   7.104 -2.3059 -0.9132  0.2978
 4672TIP3   OH235650   5.820   0.523   7.166  0.7519  0.2789 -0.4503
 4672TIP3    H135651   5.908   0.502   7.197  0.8036  0.6903 -0.2999
 4672TIP3    H235652   5.783   0.440   7.139 -0.1288 -0.5400  2.8501
 4673TIP3   OH235653   2.241   5.288   8.436 -0.0006  0.0689 -0.0006
 4673TIP3    H135654   2.189   5.332   8.368  1.0666 -1.0299 -1.6087
 4673TIP3    H235655   2.240   5.196   8.410 -1.1707 -0.7508  2.6113
 4674TIP3   OH235656   2.796   0.864   7.683 -0.1155  0.4469  0.4177
 4674TIP3    H135657   2.845   0.829   7.758 -2.5720 -0.3787  1.7409
 4674TIP3    H235658   2.818   0.957   7.683 -0.6701  0.6532  2.7323
 4675TIP3   OH235659   4.127   2.875   6.394 -0.2021 -0.0845  0.3336
 4675TIP3    H135660   4.209   2.834   6.422 -0.0150  0.4841  0.6357
 4675TIP3    H235661   4.149   2.968   6.382 -0.5024 -0.1380 -0.7911
 4676TIP3   OH235662   0.740   2.912   7.286  0.3772  0.0718 -0.0181
 4676TIP3    H135663   0.807   2.860   7.241 -2.6553 -1.5218 -3.0780
 4676TIP3    H235664   0.703   2.968   7.218 -1.4473  0.8585  1.5480
 4677TIP3   OH235665   1.518   2.640   7.572  0.4610 -0.2029 -0.0978
 4677TIP3    H135666   1.535   2.734   7.566 -1.9482  0.2150 -3.4404
 4677TIP3    H235667   1.432   2.634   7.613 -0.0725 -0.8155 -1.2701
 4678TIP3   OH235668   2.442   4.113   0.710 -0.3370 -0.2590  0.5502
 4678TIP3    H135669   2.534   4.107   0.684  0.0745 -0.0169  1.8986
 4678TIP3    H235670   2.393   4.100   0.628  0.8839 -0.5160 -0.1600
 4679TIP3   OH235671   2.516   6.331   2.490 -0.0275  0.1188  0.0063
 4679TIP3    H135672   2.425   6.314   2.514  0.3863 -0.2991  1.4049
 4679TIP3    H235673   2.550   6.384   2.563  0.6246  1.0044 -0.9073
 4680TIP3   OH235674   2.581   1.808   0.578 -0.1947 -0.6461 -0.5632
 4680TIP3    H135675   2.519   1.735   0.582 -1.8656  0.6900 -1.2287
 4680TIP3    H235676   2.570   1.855   0.660  0.8069 -1.0409 -0.1808
 4681TIP3   OH235677   0.575   6.205   0.769 -0.4536  0.3955 -0.6703
 4681TIP3    H135678   0.521   6.272   0.809  0.2982  0.9592 -0.5684
 4681TIP3    H235679   0.657   6.250   0.747  0.5264 -0.7435  0.4797
 4682TIP3   OH235680   4.315   5.974   7.632 -0.3438 -0.5107 -0.3846
 4682TIP3    H135681   4.278   6.008   7.551  0.4854  0.4317 -0.3970
 4682TIP3    H235682   4.384   5.914   7.604  0.2951  0.2119 -0.4030
 4683TIP3   OH235683   4.035   1.936   0.622 -0.0307 -0.1166  0.6450
 4683TIP3    H135684   4.054   2.028   0.642 -0.5675  0.3686 -0.9242
 4683TIP3    H235685   4.083   1.919   0.541  2.2044 -2.0445  2.2319
 4684TIP3   OH235686   4.051   3.424   7.837  0.6950 -0.1720 -0.3574
 4684TIP3    H135687   4.124   3.431   7.898  0.2180 -0.0691  0.2163
 4684TIP3    H235688   4.002   3.506   7.848  0.1574 -0.4971 -0.2897
 4685TIP3   OH235689   1.173   4.749   0.103 -0.6298  0.0160  0.4333
 4685TIP3    H135690   1.103   4.685   0.087 -0.2065 -1.1179  2.6600
 4685TIP3    H235691   1.183   4.749   0.199  2.4079  0.1324  0.1935
 4686TIP3   OH235692   3.125   3.104   8.748 -0.2620 -0.0393  0.1149
 4686TIP3    H135693   3.087   3.163   8.813 -0.3757  2.8567 -2.3525
 4686TIP3    H235694   3.064   3.106   8.675  0.1925 -2.6406 -0.4360
 4687TIP3   OH235695   1.192   0.758   0.182 -0.0142 -0.2999 -0.2864
 4687TIP3    H135696   1.182   0.824   0.251 -0.3373 -0.3811 -0.2565
 4687TIP3    H235697   1.141   0.791   0.109 -0.0886 -0.4633 -0.3096
 4688TIP3   OH235698   6.615   2.187   6.560 -0.7035 -0.1294 -0.0889
 4688TIP3    H135699   6.526   2.152   6.569 -0.3022 -1.4596 -1.0986
 4688TIP3    H235700   6.665   2.143   6.628 -0.1273 -1.8544 -1.5602
 4689TIP3   OH235701   1.620   4.915   0.692  0.0255 -0.2099 -0.1158
 4689TIP3    H135702   1.596   4.996   0.737  0.2137 -0.0959 -0.2228
 4689TIP3    H235703   1.541   4.890   0.645  0.4557  0.7937 -1.4179
 4690TIP3   OH235704   2.434   0.768   7.141 -0.3123 -0.6006  0.5873
 4690TIP3    H135705   2.486   0.849   7.137  0.0171 -0.8343  0.0559
 4690TIP3    H235706   2.360   0.785   7.084 -1.4841  0.1778  2.2545
 4691TIP3   OH235707   1.334   3.203   1.168  0.0501  0.7881 -0.1387
 4691TIP3    H135708   1.404   3.180   1.106  1.2236  0.1834  1.3563
 4691TIP3    H235709   1.273   3.130   1.162  1.6810 -0.8187  1.5462
 4692TIP3   OH235710   1.374   5.916   8.644 -0.0390 -0.0131 -0.2100
 4692TIP3    H135711   1.458   5.959   8.661 -0.4890  0.9964 -0.5022
 4692TIP3    H235712   1.338   5.962   8.568 -1.8974  1.1252  1.2721
 4693TIP3   OH235713   4.101   3.114   0.848  0.3136  0.2566 -0.9722
 4693TIP3    H135714   4.156   3.192   0.846  2.6755 -1.2197  0.2498
 4693TIP3    H235715   4.151   3.052   0.903 -1.9905 -1.6882 -0.9146
 4694TIP3   OH235716   0.075   3.153   0.937 -0.4387 -0.3935 -0.1904
 4694TIP3    H135717   0.119   3.151   0.853 -0.1225  1.0190 -0.0809
 4694TIP3    H235718   0.114   3.226   0.984 -1.5465 -0.3086  0.6676
 4695TIP3   OH235719   2.758   6.604   8.511  0.5322  0.0107  0.1977
 4695TIP3    H135720   2.713   6.580   8.592  1.7888  1.6114  1.4321
 4695TIP3    H235721   2.691   6.651   8.460 -0.7126 -2.2980 -0.4385
 4696TIP3   OH235722   0.049   0.736   1.568 -0.2884 -0.4468  0.3900
 4696TIP3    H135723   0.063   0.819   1.523 -2.1694 -1.0129 -1.3893
 4696TIP3    H235724   0.000   0.759   1.647 -0.1762  0.1956  0.2786
 4697TIP3   OH235725   2.368   1.715   6.638 -0.3358 -0.1477 -0.2314
 4697TIP3    H135726   2.437   1.755   6.690 -1.6596  0.1521  1.3519
 4697TIP3    H235727   2.367   1.624   6.665 -2.2693  0.3951  1.7610
 4698TIP3   OH235728   0.699   1.391   8.040  0.7265 -0.8217  0.3212
 4698TIP3    H135729   0.677   1.476   8.002  0.5361 -1.1629 -0.3526
 4698TIP3    H235730   0.753   1.412   8.116  2.1899 -0.1406 -0.8462
 4699TIP3   OH235731   0.773   3.662   8.201 -0.3927  0.6135  0.1952
 4699TIP3    H135732   0.798   3.753   8.220  0.0129  0.4011  0.6761
 4699TIP3    H235733   0.804   3.612   8.276  0.3029 -0.0824 -0.5435
 4700TIP3   OH235734   1.057   2.165   8.201 -0.1765 -0.4521  0.3315
 4700TIP3    H135735   1.060   2.257   8.176  0.8404 -0.2629  1.1091
 4700TIP3    H235736   0.971   2.154   8.242 -0.1186  0.2605  0.6566
 4701TIP3   OH235737   5.488   4.091   7.943 -0.0166 -0.1226  0.2281
 4701TIP3    H135738   5.430   4.156   7.902  0.1162 -0.0369  0.1771
 4701TIP3    H235739   5.520   4.039   7.870  0.8241  0.5083  0.1297
 4702TIP3   OH235740   0.367   1.625   7.100  0.2286  0.0532  0.6264
 4702TIP3    H135741   0.353   1.719   7.091  0.2719  0.0232  0.2397
 4702TIP3    H235742   0.448   1.617   7.150  0.1175  0.2209  0.8339
 4703TIP3   OH235743   4.156   2.713   7.171 -0.5550  0.7759 -0.1546
 4703TIP3    H135744   4.134   2.801   7.140  0.1101  1.0119  0.0251
 4703TIP3    H235745   4.157   2.659   7.092 -0.2343  1.0851 -0.3644
 4704TIP3   OH235746   2.418   2.788   7.567  0.2130 -0.0260 -0.8045
 4704TIP3    H135747   2.459   2.874   7.560 -0.2896  0.1742 -1.3371
 4704TIP3    H235748   2.362   2.794   7.644  1.0253 -0.2373 -0.1885
 4705TIP3   OH235749   2.277   6.184   0.622  0.6406  0.5960  0.1525
 4705TIP3    H135750   2.265   6.260   0.565 -1.6228  0.3052  0.1429
 4705TIP3    H235751   2.347   6.211   0.682  0.9472  2.0827 -0.7976
 4706TIP3   OH235752   3.385   2.912   0.634  0.3043 -0.1294 -0.3440
 4706TIP3    H135753   3.355   2.952   0.716 -2.1586 -3.6588  0.7413
 4706TIP3    H235754   3.308   2.910   0.578  1.7258  1.3808 -2.4984
 4707TIP3   OH235755   2.214   0.180   8.333 -0.1946  0.3654 -0.0884
 4707TIP3    H135756   2.217   0.187   8.238  2.4934 -0.8870 -0.1752
 4707TIP3    H235757   2.208   0.086   8.350  0.4192  0.5027  0.9848
 4708TIP3   OH235758   5.164   1.841   8.213  0.3673 -0.4689 -0.2581
 4708TIP3    H135759   5.074   1.816   8.191  0.4861 -0.0151 -1.3422
 4708TIP3    H235760   5.182   1.917   8.158  0.7120  0.7673  1.4817
 4709TIP3   OH235761   3.348   6.388   6.490  0.0713  0.4145 -0.2255
 4709TIP3    H135762   3.300   6.470   6.481 -0.4225  0.1773  0.1754
 4709TIP3    H235763   3.285   6.328   6.530  0.0864 -0.4773 -1.4873
 4710TIP3   OH235764   4.569   4.404   8.735  0.5428 -0.2305 -0.3424
 4710TIP3    H135765   4.609   4.438   8.654 -0.6842 -0.4707 -1.0802
 4710TIP3    H235766   4.598   4.464   8.803  1.0180  0.4158 -1.0937
 4711TIP3   OH235767   3.235   4.128   8.471 -0.6423 -0.1233 -0.1000
 4711TIP3    H135768   3.185   4.107   8.550  0.2996 -2.7868 -0.1235
 4711TIP3    H235769   3.174   4.111   8.399 -0.6615 -0.3124 -0.0391
 4712TIP3   OH235770   2.937   1.229   8.083 -0.2388 -0.0394 -0.6955
 4712TIP3    H135771   2.971   1.307   8.127 -2.4750  0.6980 -0.1310
 4712TIP3    H235772   2.920   1.257   7.993  0.4694 -0.3553 -0.9319
 4713TIP3   OH235773   3.628   5.834   0.742  0.2296  0.1654  0.3324
 4713TIP3    H135774   3.705   5.813   0.794 -0.1606  0.1537  0.9180
 4713TIP3    H235775   3.622   5.764   0.677  1.5957  0.9898 -0.7409
 4714TIP3   OH235776   5.084   4.506   0.522  0.1569 -0.0570 -0.0224
 4714TIP3    H135777   5.151   4.525   0.457  0.7175 -0.3695  0.4553
 4714TIP3    H235778   5.131   4.502   0.605 -0.2405 -1.5020  0.1597
 4715TIP3   OH235779   6.626   5.503   0.394  0.4351 -0.1436  0.0639
 4715TIP3    H135780   6.591   5.545   0.315  0.7129  0.6349  0.3440
 4715TIP3    H235781   6.674   5.573   0.439  1.9933 -1.0846 -0.0861
 4716TIP3   OH235782   3.519   0.370   8.717 -0.0283  0.3372  0.3964
 4716TIP3    H135783   3.445   0.383   8.776  0.0689 -0.8905  0.8134
 4716TIP3    H235784   3.536   0.276   8.720  0.5681  0.3865 -0.8917
 4717TIP3   OH235785   0.221   1.356   0.017  0.1770  0.2938 -0.0007
 4717TIP3    H135786   0.246   1.381   0.106  1.3043 -1.5011  0.2283
 4717TIP3    H235787   0.303   1.358  -0.033 -0.0530 -0.8210 -0.4528
 4718TIP3   OH235788   6.098   0.446   0.247  0.5615  0.3023  0.4615
 4718TIP3    H135789   6.135   0.515   0.193 -0.6288 -0.5670 -1.5994
 4718TIP3    H235790   6.072   0.490   0.328  1.6855  1.8233  0.0407
 4719TIP3   OH235791   1.740   1.312   6.722  0.2674  0.0523 -0.2314
 4719TIP3    H135792   1.802   1.306   6.795 -1.2923 -2.6372  0.9938
 4719TIP3    H235793   1.690   1.392   6.739  0.8652  0.2011  0.8739
 4720TIP3   OH235794   3.095   1.152   6.416  0.1972  0.4457  0.3290
 4720TIP3    H135795   3.073   1.059   6.409  0.6996  0.3611 -0.1106
 4720TIP3    H235796   3.120   1.163   6.507  1.3464 -0.1168  0.0930
 4721TIP3   OH235797   3.120   3.354   6.948 -0.1789 -0.0125 -0.7194
 4721TIP3    H135798   3.206   3.313   6.949 -0.2717 -0.1911  0.3196
 4721TIP3    H235799   3.137   3.445   6.921  0.3169 -0.0819 -0.6424
 4722TIP3   OH235800   2.209   3.530   7.685  0.7653 -0.0889  0.3258
 4722TIP3    H135801   2.291   3.559   7.645  0.9315  0.2537  0.9195
 4722TIP3    H235802   2.150   3.517   7.610  1.4011 -0.4906 -0.1170
 4723TIP3   OH235803   2.933   6.779   8.684  0.1659  0.3228  0.4049
 4723TIP3    H135804   2.885   6.700   8.656 -0.7001  0.4679  1.4226
 4723TIP3    H235805   2.877   6.852   8.658 -0.2328  0.4924  1.6677
 4724TIP3   OH235806   6.757   4.422   1.256 -0.0964 -0.0313  0.6564
 4724TIP3    H135807   6.720   4.463   1.178  1.9254  1.2085  0.2859
 4724TIP3    H235808   6.702   4.453   1.328 -0.3465  1.0141  0.0294
 4725TIP3   OH235809   3.095   1.024   8.220 -0.4275 -0.9689 -0.7762
 4725TIP3    H135810   3.070   1.101   8.169 -0.5742 -1.1077 -0.9138
 4725TIP3    H235811   3.180   0.998   8.184  1.1545  0.9396  1.2758
 4726TIP3   OH235812   2.286   2.032   8.685  1.0189  0.6818 -0.4516
 4726TIP3    H135813   2.272   2.119   8.722 -1.2922  0.1410  0.0804
 4726TIP3    H235814   2.343   2.047   8.609  0.6280  2.6642 -0.4075
 4727TIP3   OH235815   4.548   4.553   7.199  0.0202  0.0600 -0.1600
 4727TIP3    H135816   4.614   4.492   7.166 -0.7269 -0.7695 -0.1686
 4727TIP3    H235817   4.465   4.506   7.189 -0.3799  0.2725  1.6944
 4728TIP3   OH235818   5.506   6.049   8.454 -0.1132  0.1289 -0.0021
 4728TIP3    H135819   5.574   6.093   8.403 -2.5063  3.7103 -0.5279
 4728TIP3    H235820   5.435   6.034   8.391 -0.4426 -2.1230  0.8189
 4729TIP3   OH235821   0.211   2.868   0.031 -0.3889  0.0438 -0.3638
 4729TIP3    H135822   0.260   2.853   0.111 -0.4895 -0.3032 -0.3645
 4729TIP3    H235823   0.247   2.949  -0.005 -0.3146  0.1771  0.0080
 4730TIP3   OH235824   5.388   1.330   1.911  0.0572 -0.0031 -0.3914
 4730TIP3    H135825   5.396   1.235   1.900 -1.3732 -0.4406  1.6517
 4730TIP3    H235826   5.478   1.362   1.913  0.5488 -1.1468 -2.1384
 4731TIP3   OH235827   3.334   6.540   0.390 -0.0923  0.0528  0.4773
 4731TIP3    H135828   3.324   6.552   0.484  0.8692 -1.5360  0.8135
 4731TIP3    H235829   3.326   6.446   0.376  0.5670  0.1680 -0.9255
 4732TIP3   OH235830   6.593   2.307   1.417 -0.0844 -0.4611  0.4439
 4732TIP3    H135831   6.550   2.230   1.454  0.1195 -0.5360  0.5292
 4732TIP3    H235832   6.673   2.272   1.379 -0.7303 -0.5296 -0.8930
 4733TIP3   OH235833   6.235   1.940   2.262 -0.1269  0.0561 -0.4535
 4733TIP3    H135834   6.218   2.034   2.273  1.3419  0.2416  0.5491
 4733TIP3    H235835   6.192   1.899   2.337 -1.5872 -0.2099 -1.4007
 4734TIP3   OH235836   0.989   0.722   7.206  0.1631 -0.3214 -0.7373
 4734TIP3    H135837   1.002   0.742   7.299  0.9181 -0.4803 -0.8006
 4734TIP3    H235838   0.938   0.796   7.173 -0.9505 -0.7261 -0.0022
 4735TIP3   OH235839   0.080   0.944   8.231 -0.7386  0.0670 -0.2685
 4735TIP3    H135840   0.147   0.972   8.293 -1.2037  0.5472  0.0283
 4735TIP3    H235841   0.013   1.013   8.235 -0.9093 -0.0311 -1.0924
 4736TIP3   OH235842   6.452   1.384   7.628  0.2943  0.2079 -0.4049
 4736TIP3    H135843   6.428   1.400   7.537  1.6669  1.8693 -0.5231
 4736TIP3    H235844   6.525   1.444   7.645 -1.3948  1.6573  2.4626
 4737TIP3   OH235845   0.772   4.531   0.679  0.1334  0.2595  0.3842
 4737TIP3    H135846   0.695   4.499   0.726  0.7872 -0.8653  0.7422
 4737TIP3    H235847   0.749   4.620   0.652 -1.9256 -0.5934 -0.9413
 4738TIP3   OH235848   1.120   6.755   6.857 -0.1768 -0.2862 -0.1116
 4738TIP3    H135849   1.161   6.680   6.815  0.7812  0.7705 -1.1275
 4738TIP3    H235850   1.078   6.803   6.786 -0.3905  0.3898  0.4550
 4739TIP3   OH235851   1.761   0.448   6.475 -0.0591  0.1022 -0.7362
 4739TIP3    H135852   1.733   0.521   6.420 -2.9027 -0.1440  0.2425
 4739TIP3    H235853   1.708   0.455   6.554  0.4719 -2.3141 -0.0702
 4740TIP3   OH235854   5.196   4.916   7.731 -0.0107 -0.2678  0.1226
 4740TIP3    H135855   5.111   4.897   7.691  0.4416  0.6614 -1.3421
 4740TIP3    H235856   5.260   4.872   7.675  0.5890  0.4239  0.2445
 4741TIP3   OH235857   4.410   5.506   1.849  0.2363 -0.0684 -0.1904
 4741TIP3    H135858   4.474   5.576   1.856  0.4234 -0.2898  0.3492
 4741TIP3    H235859   4.329   5.543   1.881  0.5860 -0.4165  1.1715
 4742TIP3   OH235860   5.859   5.982   0.693  0.2563  0.5075  0.1235
 4742TIP3    H135861   5.790   5.918   0.711  1.1643 -0.3134  0.7444
 4742TIP3    H235862   5.813   6.054   0.649 -1.1102  0.2689  1.0996
 4743TIP3   OH235863   5.901   2.247   0.500 -0.3871  0.2158  0.3440
 4743TIP3    H135864   5.887   2.154   0.522 -1.5148 -0.0372 -1.2889
 4743TIP3    H235865   5.923   2.288   0.584  1.0107 -1.6663  0.9665
 4744TIP3   OH235866   0.139   5.321   0.764 -0.1480 -0.4485  0.2509
 4744TIP3    H135867   0.157   5.404   0.809 -0.6738 -0.8159  1.1594
 4744TIP3    H235868   0.205   5.261   0.797 -0.3218 -0.6298  0.2683
 4745TIP3   OH235869   1.154   1.793   1.600 -0.2315 -0.3632  0.8768
 4745TIP3    H135870   1.105   1.741   1.664 -1.2127  0.3096  0.6924
 4745TIP3    H235871   1.175   1.731   1.529  0.1680 -0.9163  1.4662
 4746TIP3   OH235872   6.356   4.661   1.310 -0.3203  0.5179  0.2626
 4746TIP3    H135873   6.275   4.680   1.357  0.6718 -0.8222  2.6921
 4746TIP3    H235874   6.385   4.746   1.277 -1.9292  1.2500  0.6525
 4747TIP3   OH235875   2.238   0.740   8.216 -0.3919  1.0028  0.5661
 4747TIP3    H135876   2.314   0.683   8.211  0.8722  2.7121 -1.7707
 4747TIP3    H235877   2.178   0.695   8.275  1.2240 -1.8162  0.2420
 4748TIP3   OH235878   1.002   0.170   7.322 -0.6090  0.0375 -0.2360
 4748TIP3    H135879   1.000   0.149   7.229  0.6726 -0.1334 -0.2451
 4748TIP3    H235880   0.925   0.127   7.358  0.1073 -1.8724 -0.8405
 4749TIP3   OH235881   5.916   1.030   7.431 -0.2470 -0.0619 -0.1284
 4749TIP3    H135882   5.828   1.058   7.407 -0.2382 -1.2079 -1.6499
 4749TIP3    H235883   5.902   0.966   7.501 -0.4649  1.1406  0.9711
 4750TIP3   OH235884   3.959   5.936   7.561 -0.1366  0.6991 -1.0329
 4750TIP3    H135885   3.954   5.911   7.469 -0.0461  1.2158 -1.1821
 4750TIP3    H235886   3.882   5.992   7.574 -0.4060  0.2502 -0.6749
 4751TIP3   OH235887   5.229   0.247   0.028 -0.0284 -0.0824  0.1159
 4751TIP3    H135888   5.276   0.202  -0.042 -1.3986 -0.2218 -0.7550
 4751TIP3    H235889   5.189   0.323  -0.014 -1.0983 -0.3126  0.6660
 4752TIP3   OH235890   6.055   3.741   1.686  0.6924 -0.1060  0.3913
 4752TIP3    H135891   6.142   3.732   1.725  0.4090  0.8803  1.2888
 4752TIP3    H235892   6.051   3.832   1.656 -0.9029  0.6525  2.6359
 4753TIP3   OH235893   1.997   1.378   0.914 -0.6226 -0.2800 -0.5388
 4753TIP3    H135894   2.031   1.432   0.985  0.8618 -0.3568 -1.1627
 4753TIP3    H235895   2.036   1.292   0.929 -0.3681 -0.3154 -1.3955
 4754TIP3   OH235896   5.484   3.126   1.616 -0.1490  0.1612 -0.1341
 4754TIP3    H135897   5.480   3.110   1.710  0.6233 -1.0664 -0.2964
 4754TIP3    H235898   5.477   3.221   1.608 -1.0431  0.2204  1.1066
 4755TIP3   OH235899   1.053   1.228   1.092  0.5881  0.2427 -0.1780
 4755TIP3    H135900   1.074   1.185   1.175  1.3679  1.4310  0.2678
 4755TIP3    H235901   1.136   1.264   1.061 -0.1683  2.2856 -0.0094
 4756TIP3   OH235902   6.066   3.517   1.960 -0.5170 -0.0582  0.0104
 4756TIP3    H135903   6.120   3.467   2.021 -0.3828  0.3036  0.1950
 4756TIP3    H235904   6.124   3.538   1.887 -0.5685 -0.1610 -0.0599
 4757TIP3   OH235905   6.617   4.997   7.773  0.3237  0.1764  0.2817
 4757TIP3    H135906   6.538   5.007   7.826  0.4287 -0.3545  0.5371
 4757TIP3    H235907   6.638   5.087   7.746  0.3244  0.4655  1.2099
 4758TIP3   OH235908   4.049   5.651   8.290 -0.3342 -0.1562 -0.3416
 4758TIP3    H135909   4.069   5.676   8.380  1.0112  0.1195 -0.7009
 4758TIP3    H235910   3.992   5.574   8.299  0.3167 -0.5273  0.7447
 4759TIP3   OH235911   1.428   6.653   6.612 -0.0360 -0.1338  0.0033
 4759TIP3    H135912   1.477   6.719   6.661  1.4970  0.1178 -1.7638
 4759TIP3    H235913   1.468   6.570   6.636  0.0496 -0.1157 -0.0787
 4760TIP3   OH235914   2.394   6.143   7.171 -0.3397 -0.8716  0.1313
 4760TIP3    H135915   2.411   6.049   7.168  0.6588 -1.0034  4.0475
 4760TIP3    H235916   2.478   6.182   7.195 -0.8613  1.0108 -0.8794
 4761TIP3   OH235917   1.146   5.561   7.615  0.4218 -0.8171 -0.5830
 4761TIP3    H135918   1.152   5.593   7.526  0.8120 -0.3591 -0.3948
 4761TIP3    H235919   1.065   5.510   7.617 -0.5270  0.6208 -0.7378
 4762TIP3   OH235920   6.305   5.970   2.503 -0.4009 -0.1991 -0.1206
 4762TIP3    H135921   6.349   6.054   2.489 -0.3572 -0.3562 -1.0396
 4762TIP3    H235922   6.376   5.906   2.509 -0.4633 -0.3391 -0.7579
 4763TIP3   OH235923   2.557   0.223   1.595  0.7349 -0.5420 -0.4236
 4763TIP3    H135924   2.615   0.219   1.670  0.0404 -0.8832  0.1032
 4763TIP3    H235925   2.593   0.159   1.533  1.1060 -0.5067 -0.2454
 4764TIP3   OH235926   4.081   5.541   7.830 -0.1731  0.0042 -0.2853
 4764TIP3    H135927   3.994   5.577   7.848  0.5004  1.0216  1.1934
 4764TIP3    H235928   4.123   5.608   7.776 -0.0899 -0.2002 -0.4739
 4765TIP3   OH235929   6.256   5.421   1.386  0.1286  0.7919  0.3872
 4765TIP3    H135930   6.224   5.503   1.348 -0.7375  1.3502  2.1782
 4765TIP3    H235931   6.271   5.443   1.478  3.1489 -0.1796  0.2273
 4766TIP3   OH235932   6.737   0.952   1.773  0.2934 -0.2103  0.3618
 4766TIP3    H135933   6.647   0.924   1.786  0.3284 -0.0863  0.8858
 4766TIP3    H235934   6.759   1.001   1.852 -0.1510  2.3019 -0.9672
 4767TIP3   OH235935   2.628   2.962   7.629 -0.1420  0.5152  0.4498
 4767TIP3    H135936   2.720   2.956   7.607 -1.0236 -0.9286 -3.7239
 4767TIP3    H235937   2.602   3.050   7.601 -0.1071  0.8695  1.4903
 4768TIP3   OH235938   0.209   3.171   8.174 -0.7201  0.1038  0.4064
 4768TIP3    H135939   0.218   3.082   8.207 -1.2875 -0.4724 -0.9435
 4768TIP3    H235940   0.145   3.212   8.232  0.8637  0.2503  2.1706
 4769TIP3   OH235941   5.949   2.033   8.084 -0.3966 -0.1358  0.4145
 4769TIP3    H135942   5.898   1.961   8.120  0.9811 -0.3980  1.9603
 4769TIP3    H235943   6.029   2.035   8.137 -0.3446  2.4650  0.3668
 4770TIP3   OH235944   5.531   3.658   1.439  0.0187  0.2163 -0.0365
 4770TIP3    H135945   5.571   3.740   1.408 -0.2716  0.4125  0.1059
 4770TIP3    H235946   5.545   3.660   1.534  1.7443 -0.8281 -0.2206
 4771TIP3   OH235947   5.671   2.461   6.653  0.2533  0.0682  0.6503
 4771TIP3    H135948   5.655   2.555   6.642 -0.5380 -0.1230  0.0896
 4771TIP3    H235949   5.585   2.421   6.643  0.7134 -0.7909  0.0120
 4772TIP3   OH235950   6.695   4.430   8.474  0.2927  0.0002 -0.7560
 4772TIP3    H135951   6.624   4.375   8.442 -0.5023  0.0454  0.7996
 4772TIP3    H235952   6.756   4.369   8.514  1.1201 -0.0300 -2.0164
 4773TIP3   OH235953   3.470   5.634   1.063 -0.3847  0.1176  0.2484
 4773TIP3    H135954   3.405   5.601   1.125  1.8969 -1.6043  1.8842
 4773TIP3    H235955   3.482   5.562   1.001  0.9120 -0.1371  0.7750
 4774TIP3   OH235956   1.469   5.414   7.978 -0.4631 -0.2804 -0.1665
 4774TIP3    H135957   1.435   5.460   8.055 -1.4527 -3.1211  1.2356
 4774TIP3    H235958   1.394   5.409   7.918 -0.6604 -0.8959  0.1220
 4775TIP3   OH235959   4.453   6.672   1.368 -0.2655 -0.0790 -0.3917
 4775TIP3    H135960   4.471   6.741   1.432  2.7239 -1.2473  0.1719
 4775TIP3    H235961   4.507   6.695   1.293 -0.8540 -0.7241 -1.0295
 4776TIP3   OH235962   5.365   3.248   6.634  0.2064  0.3585 -1.0450
 4776TIP3    H135963   5.303   3.179   6.612  0.9730 -0.6561 -0.0792
 4776TIP3    H235964   5.361   3.307   6.558 -0.5651 -0.6468 -1.8274
 4777TIP3   OH235965   6.286   2.226   1.526 -0.2160  0.0330 -0.3873
 4777TIP3    H135966   6.292   2.261   1.437 -2.7163  1.2209 -0.1833
 4777TIP3    H235967   6.313   2.299   1.582  0.0048 -0.2525 -0.1197
 4778TIP3   OH235968   1.631   6.128   0.175 -0.2166 -0.4065  0.3047
 4778TIP3    H135969   1.569   6.177   0.122  0.2766 -0.5894 -0.4675
 4778TIP3    H235970   1.578   6.084   0.241 -0.5301  2.4112  2.0735
 4779TIP3   OH235971   3.519   4.744   8.912 -0.0582 -0.1996  0.3067
 4779TIP3    H135972   3.473   4.769   8.832  0.5388  1.5224  0.4430
 4779TIP3    H235973   3.539   4.828   8.955  3.0972 -0.8001  0.2824
 4780TIP3   OH235974   0.240   2.249   1.398 -0.1584  0.6509  0.0836
 4780TIP3    H135975   0.161   2.245   1.344 -0.4447  0.2749  0.5240
 4780TIP3    H235976   0.246   2.162   1.438  0.2645  0.8028  0.3569
 4781TIP3   OH235977   3.348   2.119   0.451 -0.9418  0.3641 -0.1068
 4781TIP3    H135978   3.345   2.212   0.432 -0.7599  0.3957  0.0153
 4781TIP3    H235979   3.440   2.102   0.472 -0.8611  0.0497 -0.6844
 4782TIP3   OH235980   4.460   3.690   6.259 -0.0587 -0.1797 -0.1786
 4782TIP3    H135981   4.493   3.773   6.226 -2.5385  0.7343 -0.6182
 4782TIP3    H235982   4.510   3.674   6.339  0.5513  1.7038 -0.1417
 4783TIP3   OH235983   5.150   0.165   8.685  0.1948 -0.3511 -0.2818
 4783TIP3    H135984   5.138   0.256   8.658 -0.9557 -0.3493  0.1522
 4783TIP3    H235985   5.096   0.115   8.623 -0.9900 -0.5071  0.8290
 4784TIP3   OH235986   5.274   0.375   7.782 -0.2110  0.2685  0.4094
 4784TIP3    H135987   5.253   0.292   7.740 -0.5507 -0.4065  1.8666
 4784TIP3    H235988   5.212   0.437   7.744 -1.0192 -0.4855  0.4673
 4785TIP3   OH235989   5.245   3.742   0.764 -0.2783  0.1663  0.1685
 4785TIP3    H135990   5.287   3.693   0.834 -0.4802 -0.7729 -0.3507
 4785TIP3    H235991   5.318   3.781   0.715 -0.1094  0.2874  0.5159
 4786TIP3   OH235992   0.109   0.980   7.434  0.0632  0.2222  0.6839
 4786TIP3    H135993   0.027   0.942   7.465 -0.3773  0.4397 -0.1763
 4786TIP3    H235994   0.101   1.073   7.452  0.0112  0.2797  0.3707
 4787TIP3   OH235995   2.768   1.446   7.593 -0.6738  0.0561 -0.3477
 4787TIP3    H135996   2.789   1.397   7.672 -0.6641  1.4013  0.5082
 4787TIP3    H235997   2.704   1.392   7.547  0.4216 -1.4369 -0.1734
 4788TIP3   OH235998   5.263   0.296   1.343 -0.1587  0.4410  0.1370
 4788TIP3    H135999   5.326   0.261   1.406  0.6404  1.4490 -0.0611
 4788TIP3    H236000   5.270   0.238   1.268  0.8128  0.7395 -0.0197
 4789TIP3   OH236001   5.827   1.212   7.961 -0.2557  0.1186 -0.2901
 4789TIP3    H136002   5.885   1.142   7.989 -2.4360 -2.3949 -1.6070
 4789TIP3    H236003   5.852   1.228   7.870 -0.5814  0.1349 -0.3782
 4790TIP3   OH236004   2.091   1.914   1.663 -0.2898 -0.0172 -0.1247
 4790TIP3    H136005   2.117   1.822   1.659 -0.4083 -0.0271 -0.9195
 4790TIP3    H236006   2.010   1.914   1.713  0.5635 -0.1375  1.2979
 4791TIP3   OH236007   0.845   3.801   7.462  0.2796 -0.1762  0.3417
 4791TIP3    H136008   0.812   3.828   7.548 -0.3139 -2.1649  0.7935
 4791TIP3    H236009   0.932   3.840   7.457 -0.2966  1.3212  1.1298
 4792TIP3   OH236010   1.911   3.112   0.720 -0.2589 -0.6049  0.3387
 4792TIP3    H136011   1.950   3.024   0.726  0.3624 -0.4593 -1.0882
 4792TIP3    H236012   1.843   3.103   0.654  0.1262  0.0780 -0.1678
 4793TIP3   OH236013   6.537   4.691   2.183 -0.0176  0.3517 -0.0993
 4793TIP3    H136014   6.575   4.777   2.202  0.4718 -0.0875  0.9976
 4793TIP3    H236015   6.443   4.702   2.199  0.0655  0.6436  0.1827
 4794TIP3   OH236016   6.209   4.657   7.170 -0.2581 -0.6087 -0.4315
 4794TIP3    H136017   6.165   4.735   7.137 -0.2564 -0.4573 -0.0825
 4794TIP3    H236018   6.286   4.690   7.216  1.4516 -0.9695 -2.8605
 4795TIP3   OH236019   6.116   3.126   0.620  0.3758 -0.0124  0.3660
 4795TIP3    H136020   6.056   3.158   0.552 -1.5217  1.3501  2.5112
 4795TIP3    H236021   6.103   3.187   0.692  1.2020 -2.2113  2.4718
 4796TIP3   OH236022   0.938   4.522   8.378 -0.2461 -0.2031  0.2156
 4796TIP3    H136023   0.955   4.613   8.403  1.5216 -0.1987 -0.8221
 4796TIP3    H236024   0.995   4.471   8.436 -0.3808 -0.5754  0.0203
 4797TIP3   OH236025   2.950   0.716   7.960 -0.0037  0.6549  0.0874
 4797TIP3    H136026   2.870   0.668   7.938  0.4634 -0.9312  1.5667
 4797TIP3    H236027   2.920   0.804   7.983 -1.0789  0.6715 -1.2503
 4798TIP3   OH236028   2.919   6.106   7.333  0.0157  0.3087  0.9698
 4798TIP3    H136029   2.910   6.143   7.421  0.4394  0.1186  1.0973
 4798TIP3    H236030   2.941   6.014   7.348  0.4737  0.3673  0.6638
 4799TIP3   OH236031   0.510   3.338   8.081  0.4826  0.3056  0.1769
 4799TIP3    H136032   0.477   3.371   8.164 -1.2547  0.8702 -0.6853
 4799TIP3    H236033   0.575   3.272   8.105 -0.1244  0.3170  1.9687
 4800TIP3   OH236034   3.692   0.831   2.397  0.3376 -0.1747  0.5868
 4800TIP3    H136035   3.649   0.808   2.315  1.0334  0.4864  0.0212
 4800TIP3    H236036   3.621   0.840   2.460 -0.2209 -0.4731  0.0086
 4801TIP3   OH236037   2.625   1.484   8.254 -0.6317  0.7674 -0.5908
 4801TIP3    H136038   2.570   1.420   8.299  0.4837  0.1473 -0.0741
 4801TIP3    H236039   2.694   1.506   8.317  0.6885  0.2458 -1.7837
 4802TIP3   OH236040   0.249   5.039   8.712 -0.0758  0.8438  0.7029
 4802TIP3    H136041   0.228   5.071   8.799  0.9275 -0.7514  1.5756
 4802TIP3    H236042   0.189   4.965   8.698  1.5161 -0.5988  1.1843
 4803TIP3   OH236043   0.275   1.166   0.502 -0.2258  0.0629  0.0661
 4803TIP3    H136044   0.337   1.140   0.434 -0.1505  0.5268 -0.0466
 4803TIP3    H236045   0.302   1.255   0.526 -1.3878  0.6195 -0.6192
 4804TIP3   OH236046   0.930   0.702   0.402  0.7879  0.4554  0.4654
 4804TIP3    H136047   0.902   0.791   0.423 -1.4822  0.2681 -1.3449
 4804TIP3    H236048   0.938   0.702   0.306 -1.5267 -1.7887  0.1505
 4805TIP3   OH236049   6.589   3.656   1.878  0.9466  0.9347 -0.2162
 4805TIP3    H136050   6.519   3.640   1.941 -1.5820 -0.3128 -3.1100
 4805TIP3    H236051   6.623   3.569   1.857 -0.5434  0.9020 -2.8778
 4806TIP3   OH236052   1.723   1.339   8.051 -0.4652  0.3949 -0.4502
 4806TIP3    H136053   1.703   1.397   7.978 -1.5789 -0.0030 -0.4716
 4806TIP3    H236054   1.819   1.335   8.052 -0.3336  2.4188 -0.2822
 4807TIP3   OH236055   5.292   3.267   7.702 -0.5303 -0.1387  0.4894
 4807TIP3    H136056   5.359   3.262   7.770 -0.4528 -0.3870  0.3956
 4807TIP3    H236057   5.338   3.241   7.622 -0.9364 -1.1039  0.5571
 4808TIP3   OH236058   0.176   0.054   8.468 -0.5055 -0.0730  0.3570
 4808TIP3    H136059   0.173  -0.040   8.486  0.4369 -0.0311  0.7643
 4808TIP3    H236060   0.261   0.082   8.502 -0.8133  0.9405  0.3009
 4809TIP3   OH236061   2.796   4.489   7.419 -0.2055 -0.4267  0.8178
 4809TIP3    H136062   2.738   4.419   7.390 -2.9009  2.0171 -0.2592
 4809TIP3    H236063   2.865   4.492   7.352 -1.9705  0.0471 -1.0942
 4810TIP3   OH236064   4.955   3.708   8.094  0.0723 -0.1162  0.2537
 4810TIP3    H136065   5.004   3.662   8.026 -0.5821 -0.8481  0.2698
 4810TIP3    H236066   4.867   3.672   8.089 -0.1758  0.3716  0.9839
 4811TIP3   OH236067   0.092   1.151   1.938  0.0970 -0.0973  0.4925
 4811TIP3    H136068   0.101   1.187   1.850  0.4818  0.7292  0.8467
 4811TIP3    H236069   0.125   1.062   1.932 -2.6841 -1.1504 -0.8504
 4812TIP3   OH236070   6.513   0.077   1.830 -0.5280 -0.4062 -0.0270
 4812TIP3    H136071   6.479   0.161   1.800 -0.1700 -0.2156  0.1049
 4812TIP3    H236072   6.571   0.099   1.903 -1.1555 -0.8348  0.6144
 4813TIP3   OH236073   4.381   1.855   0.701 -0.4475 -0.2870  0.0905
 4813TIP3    H136074   4.317   1.884   0.766  0.0684  0.6658  0.1732
 4813TIP3    H236075   4.413   1.771   0.735  1.7112  1.3625  2.4331
 4814TIP3   OH236076   0.432   5.521   0.101 -0.1687  0.4105 -0.0014
 4814TIP3    H136077   0.352   5.544   0.053  0.9771 -0.3219 -2.3933
 4814TIP3    H236078   0.417   5.431   0.129 -0.4016  0.4687  0.0699
 4815TIP3   OH236079   2.470   5.568   0.977  0.5282  0.2998  0.5358
 4815TIP3    H136080   2.375   5.560   0.975  0.3310  2.0488  1.2934
 4815TIP3    H236081   2.494   5.591   0.887  0.2274  0.0473  0.3883
 4816TIP3   OH236082   6.031   0.339   1.962 -0.0845  0.0038 -0.4457
 4816TIP3    H136083   6.100   0.327   2.027 -0.9945 -3.8580  0.1107
 4816TIP3    H236084   6.047   0.270   1.897 -3.2384 -1.0533 -0.3087
 4817TIP3   OH236085   0.106   3.754   8.555 -0.3725 -0.1577  0.0233
 4817TIP3    H136086   0.100   3.833   8.502 -0.2751 -0.4530 -0.4279
 4817TIP3    H236087   0.182   3.769   8.612  0.8433 -0.7165 -1.3847
 4818TIP3   OH236088   2.917   2.274   0.536  0.2909 -0.1921  0.0338
 4818TIP3    H136089   2.966   2.287   0.455  0.6492 -1.8328 -0.0377
 4818TIP3    H236090   2.938   2.351   0.589  0.1935  0.8043 -1.3467
 4819TIP3   OH236091   4.897   2.460   7.658  0.0458  0.0278  0.4318
 4819TIP3    H136092   4.813   2.447   7.701  0.2061  0.3085  0.8279
 4819TIP3    H236093   4.895   2.400   7.583 -0.5417  0.1014  0.3886
 4820TIP3   OH236094   4.857   1.386   0.890  0.3750 -0.6128 -0.2030
 4820TIP3    H136095   4.948   1.372   0.918  1.3129  0.7813 -2.2955
 4820TIP3    H236096   4.848   1.337   0.809 -0.9039 -1.0598  0.1801
 4821TIP3   OH236097   6.715   4.547   0.981 -0.0638  0.3890 -0.5834
 4821TIP3    H136098   6.699   4.639   0.959 -2.9197 -0.0020 -0.5010
 4821TIP3    H236099   6.739   4.507   0.898  0.8633  1.1119 -0.6872
 4822TIP3   OH236100   0.642   0.781   8.844  0.3271  0.1807  0.3722
 4822TIP3    H136101   0.651   0.687   8.828 -0.3948 -0.0156  1.0614
 4822TIP3    H236102   0.551   0.800   8.823  0.7168  0.9407 -0.7461
 4823TIP3   OH236103   1.814   4.145   7.830 -0.4431  0.3561 -0.0679
 4823TIP3    H136104   1.782   4.235   7.842  2.4563  1.4585  0.2584
 4823TIP3    H236105   1.824   4.137   7.735 -0.9888  0.2410 -0.1209
 4824TIP3   OH236106   3.503   6.486   0.828 -0.1753 -0.4664 -0.3522
 4824TIP3    H136107   3.500   6.426   0.754  0.7351 -0.3757 -0.4774
 4824TIP3    H236108   3.529   6.431   0.902  1.3430 -0.1284 -0.6037
 4825TIP3   OH236109   6.472   6.537   0.990 -0.4300 -0.6644 -0.3941
 4825TIP3    H136110   6.456   6.509   1.080  1.7268 -0.1056  0.2243
 4825TIP3    H236111   6.498   6.629   0.997  1.2984 -1.0207 -1.3705
 4826TIP3   OH236112   0.683   0.288   1.099  0.1666  0.1242  0.4423
 4826TIP3    H136113   0.685   0.377   1.135 -0.2921 -0.3117  1.5926
 4826TIP3    H236114   0.741   0.238   1.157  2.6182  0.1943 -1.7642
 4827TIP3   OH236115   5.748   4.051   1.719 -0.0938 -0.5816 -0.0227
 4827TIP3    H136116   5.736   4.017   1.630  0.1855 -2.5863  0.6582
 4827TIP3    H236117   5.786   4.139   1.706 -3.1602  0.6353 -1.9159
 4828TIP3   OH236118   4.062   2.497   1.191  0.0147  0.1990  0.0611
 4828TIP3    H136119   4.016   2.441   1.129  0.7090  0.6040 -0.8430
 4828TIP3    H236120   4.063   2.446   1.273 -0.4640 -0.5636 -0.3924
 4829TIP3   OH236121   0.280   1.603   7.446  0.0265 -0.4733 -0.3590
 4829TIP3    H136122   0.268   1.691   7.408  0.5280  0.7926  2.1800
 4829TIP3    H236123   0.374   1.599   7.467  0.0650 -1.7580 -0.7341
 4830TIP3   OH236124   3.825   2.603   0.110  0.7470 -0.0245  0.3387
 4830TIP3    H136125   3.784   2.599   0.196 -0.0707  0.1663 -0.0358
 4830TIP3    H236126   3.752   2.605   0.048  1.3209  0.1555 -0.3478
 4831TIP3   OH236127   1.783   3.484   1.345  0.4039  0.0646  0.1236
 4831TIP3    H136128   1.813   3.397   1.321 -1.1668 -0.9059  1.4611
 4831TIP3    H236129   1.863   3.533   1.363  1.3749 -0.6778 -1.8539
 4832TIP3   OH236130   4.878   0.707   1.210  0.1019 -0.1678  0.7803
 4832TIP3    H136131   4.912   0.792   1.239  0.5317 -0.0129 -0.1631
 4832TIP3    H236132   4.941   0.644   1.245  1.7823  0.1525 -1.4370
 4833TIP3   OH236133   3.597   0.903   0.541 -0.7117 -0.0781  0.8708
 4833TIP3    H136134   3.552   0.982   0.571 -0.0229  0.8994 -0.5409
 4833TIP3    H236135   3.527   0.846   0.508 -1.1372  0.3628  1.0024
 4834TIP3   OH236136   1.731   4.622   7.033 -0.0751 -0.5047  0.4576
 4834TIP3    H136137   1.670   4.550   7.021 -0.9040 -0.4396  3.4524
 4834TIP3    H236138   1.792   4.591   7.100  0.9507  0.7649  0.1578
 4835TIP3   OH236139   5.615   2.422   0.184  0.1034 -0.1185 -0.3468
 4835TIP3    H136140   5.690   2.383   0.140 -0.3607 -0.6689 -0.6567
 4835TIP3    H236141   5.577   2.481   0.120  0.8432  0.9168  0.1437
 4836TIP3   OH236142   4.636   0.054   2.315 -0.5130  0.2302  0.0960
 4836TIP3    H136143   4.547   0.088   2.305 -0.3184  0.7148 -0.0455
 4836TIP3    H236144   4.629  -0.039   2.295 -0.9114  0.3491 -0.3445
 4837TIP3   OH236145   4.843   0.361   1.401  0.9450  0.1883 -0.7775
 4837TIP3    H136146   4.893   0.406   1.334 -0.6701  1.8196 -0.9687
 4837TIP3    H236147   4.845   0.420   1.476  2.1679 -1.3052  0.4255
 4838TIP3   OH236148   1.661   5.697   8.602 -0.3037 -0.4293 -0.1625
 4838TIP3    H136149   1.662   5.747   8.520  1.5319 -0.4931 -0.2178
 4838TIP3    H236150   1.662   5.763   8.671 -0.5244 -0.3845 -0.2005
 4839TIP3   OH236151   2.292   2.573   8.554 -0.4137 -0.3651 -0.0565
 4839TIP3    H136152   2.263   2.534   8.471  0.1202  1.1229 -0.9912
 4839TIP3    H236153   2.381   2.541   8.566 -1.1158 -2.0495  0.9327
 4840TIP3   OH236154   2.330   4.918   1.321 -0.2488 -0.5688 -0.0132
 4840TIP3    H136155   2.291   5.003   1.301  1.0101 -0.5214 -2.7022
 4840TIP3    H236156   2.260   4.855   1.306 -0.2006 -0.2536 -1.6841
 4841TIP3   OH236157   0.211   3.010   1.135 -0.0404  0.1202  0.6275
 4841TIP3    H136158   0.218   3.063   1.214  1.1774  2.7248 -1.0556
 4841TIP3    H236159   0.185   3.072   1.067  3.3832 -0.8684 -1.8991
 4842TIP3   OH236160   1.562   5.837   1.667 -0.1636  0.8350  0.4903
 4842TIP3    H136161   1.532   5.819   1.577 -0.9043  1.0715  0.6792
 4842TIP3    H236162   1.574   5.750   1.706  4.0316  0.5277 -0.9964
 4843TIP3   OH236163   1.690   0.716   2.006 -0.1711 -0.0363  0.1156
 4843TIP3    H136164   1.633   0.642   1.984  1.8315 -1.1091 -1.9846
 4843TIP3    H236165   1.764   0.677   2.051  1.3366  0.4703 -1.7860
 4844TIP3   OH236166   0.907   2.636   6.990  0.3032  0.2746 -0.2757
 4844TIP3    H136167   0.991   2.592   7.003 -0.1708 -0.1852  1.4643
 4844TIP3    H236168   0.928   2.710   6.933  2.3200  1.3310  1.6547
 4845TIP3   OH236169   6.030   1.797   1.659 -0.3682 -0.5382  0.4299
 4845TIP3    H136170   6.090   1.863   1.624 -2.9439  1.8679  0.2338
 4845TIP3    H236171   6.061   1.780   1.748  0.3262  1.0159  0.5083
 4846TIP3   OH236172   0.970   4.965   7.609 -0.0740 -0.4932 -0.0889
 4846TIP3    H136173   0.888   4.947   7.564 -0.9250  1.3050  0.6469
 4846TIP3    H236174   1.037   4.952   7.541 -0.8659 -2.4302 -0.5791
 4847TIP3   OH236175   2.823   6.139   8.012 -0.4205 -0.5598 -0.3476
 4847TIP3    H136176   2.809   6.233   8.001  1.0527  0.0170  2.0013
 4847TIP3    H236177   2.737   6.100   7.995 -0.8326  1.0515 -2.3838
 4848TIP3   OH236178   5.456   4.064   6.906  0.0504 -0.2157 -0.0426
 4848TIP3    H136179   5.389   4.022   6.851 -3.1600  1.6024  2.1581
 4848TIP3    H236180   5.499   4.127   6.847 -1.4384 -0.1604 -1.1213
 4849TIP3   OH236181   5.411   2.341   6.718  0.2587 -0.1347  0.1025
 4849TIP3    H136182   5.458   2.342   6.801  0.0575  1.0160  0.2174
 4849TIP3    H236183   5.334   2.395   6.733 -0.4452 -0.9357 -0.4704
 4850TIP3   OH236184   5.954   6.631   0.391  0.6338 -0.1511  0.3784
 4850TIP3    H136185   6.005   6.557   0.423  0.5647 -1.1362 -1.6340
 4850TIP3    H236186   5.993   6.653   0.306 -1.5280 -0.2037 -0.7060
 4851TIP3   OH236187   2.738   2.603   8.026  0.3014 -0.1871 -0.1182
 4851TIP3    H136188   2.680   2.677   8.042  0.8575 -0.0561  1.4883
 4851TIP3    H236189   2.798   2.634   7.958 -2.0631 -0.6958 -2.6059
 4852TIP3   OH236190   2.662   5.995   1.693 -0.0699 -0.6368 -0.0240
 4852TIP3    H136191   2.586   6.051   1.680 -0.5555 -1.3193 -0.1756
 4852TIP3    H236192   2.727   6.029   1.631 -0.4116 -0.3318 -0.2219
 4853TIP3   OH236193   5.595   5.402   1.150 -0.2698 -0.6992 -0.2096
 4853TIP3    H136194   5.632   5.455   1.079  0.8711 -1.2439 -0.0315
 4853TIP3    H236195   5.594   5.313   1.115  1.8932 -1.2730  1.0132
 4854TIP3   OH236196   0.372   0.004   1.341 -0.1299 -0.1276 -0.1347
 4854TIP3    H136197   0.348  -0.015   1.432  2.2726  0.9078  0.8067
 4854TIP3    H236198   0.362  -0.080   1.296 -0.6360 -0.8505  1.2539
 4855TIP3   OH236199   0.679   5.037   0.163  0.2085 -0.3351 -0.8821
 4855TIP3    H136200   0.737   5.113   0.163  1.2012 -1.0566 -1.3506
 4855TIP3    H236201   0.731   4.968   0.121 -0.2326 -1.5976  0.5587
 4856TIP3   OH236202   2.319   1.030   7.601  0.4554  0.5631 -0.2483
 4856TIP3    H136203   2.387   0.994   7.658 -0.3161  1.7202  1.4995
 4856TIP3    H236204   2.241   0.978   7.621 -0.2293  1.9804  1.0349
 4857TIP3   OH236205   0.421   3.727   0.077  0.4968  0.0350 -0.4506
 4857TIP3    H136206   0.497   3.709   0.021  0.0662 -0.1877 -0.9631
 4857TIP3    H236207   0.457   3.724   0.166  1.0277 -0.3968 -0.6704
 4858TIP3   OH236208   1.435   1.095   1.734 -0.0517 -0.5934  0.3866
 4858TIP3    H136209   1.448   1.056   1.820 -0.2236 -2.2188 -0.2963
 4858TIP3    H236210   1.367   1.042   1.693 -1.6472  1.5597  0.0882
 4859TIP3   OH236211   1.727   1.283   7.682  0.0759 -0.1976 -0.0546
 4859TIP3    H136212   1.818   1.284   7.651 -0.4355  1.1276 -1.6514
 4859TIP3    H236213   1.721   1.359   7.739 -0.4330  0.7623 -1.3358
 4860TIP3   OH236214   6.425   5.275   8.582  0.6327  0.2415  0.8672
 4860TIP3    H136215   6.497   5.271   8.644  0.6371 -0.3425  0.8311
 4860TIP3    H236216   6.352   5.313   8.631  0.5812 -0.3883  1.2807
 4861TIP3   OH236217   2.102   0.491   6.727 -0.1760  0.0174  0.3213
 4861TIP3    H136218   2.118   0.583   6.747 -1.1319  0.2306  0.1810
 4861TIP3    H236219   2.008   0.480   6.744  0.3665 -1.5367  2.7559
 4862TIP3   OH236220   0.472   3.900   1.476  0.9612 -0.2869 -0.3103
 4862TIP3    H136221   0.385   3.862   1.487 -0.7471  3.2692 -0.0560
 4862TIP3    H236222   0.504   3.864   1.394 -2.1558  0.5369 -2.0641
 4863TIP3   OH236223   6.140   5.077   7.470 -0.1552  0.0710  0.3533
 4863TIP3    H136224   6.151   5.156   7.523 -1.8306  0.5625  0.0123
 4863TIP3    H236225   6.046   5.072   7.452  0.2038 -0.7176 -1.5901
 4864TIP3   OH236226   6.723   1.946   7.770  0.7986 -0.0162  0.5824
 4864TIP3    H136227   6.641   1.897   7.764  0.1055  1.0095  1.3421
 4864TIP3    H236228   6.706   2.013   7.838  1.4418  1.7302 -0.8924
 4865TIP3   OH236229   0.932   2.125   0.606 -0.2938 -0.0265 -0.5719
 4865TIP3    H136230   1.013   2.175   0.600  0.4104 -1.2445 -1.8305
 4865TIP3    H236231   0.863   2.189   0.589  0.5809  0.5251 -2.2785
 4866TIP3   OH236232   5.974   4.223   8.351 -0.7017  0.5813  0.0311
 4866TIP3    H136233   5.893   4.254   8.310 -0.1925 -0.4744 -1.8799
 4866TIP3    H236234   6.043   4.278   8.313 -0.4516  1.1371  1.2631
 4867TIP3   OH236235   3.107   0.817   0.792 -0.3220 -0.1244  0.1366
 4867TIP3    H136236   3.020   0.826   0.753  0.0456 -1.1218 -0.9893
 4867TIP3    H236237   3.092   0.765   0.871 -0.8879  0.6721  0.5650
 4868TIP3   OH236238   6.779   4.497   7.975 -0.2712 -0.0882  0.1095
 4868TIP3    H136239   6.758   4.426   7.915  0.6278 -0.5622  0.3294
 4868TIP3    H236240   6.773   4.577   7.922 -0.7179 -0.3830 -0.2850
 4869TIP3   OH236241   0.885   2.079   8.429 -0.6388  0.1027  0.0737
 4869TIP3    H136242   0.870   2.173   8.421  0.4732  0.2241 -0.8171
 4869TIP3    H236243   0.969   2.071   8.473 -1.4467 -0.5145  1.5767
 4870TIP3   OH236244   4.195   5.256   1.265  0.8188 -0.1740  0.0451
 4870TIP3    H136245   4.119   5.221   1.219  2.0918  1.9825 -4.2297
 4870TIP3    H236246   4.167   5.342   1.297  1.1748  0.2530 -0.7662
 4871TIP3   OH236247   2.205   5.920   7.739 -0.6662  1.1021  0.1500
 4871TIP3    H136248   2.242   6.006   7.759 -0.4399  0.8145  0.9995
 4871TIP3    H236249   2.112   5.937   7.727 -0.5711  1.5170 -0.0498
 4872TIP3   OH236250   5.979   0.423   7.666 -0.5275  0.0976 -0.2173
 4872TIP3    H136251   5.948   0.501   7.621  0.0258  0.2440 -0.3421
 4872TIP3    H236252   5.974   0.354   7.599  0.4492  0.3486 -0.5564
 4873TIP3   OH236253   4.613   5.624   2.144 -0.2017 -0.0285 -0.3569
 4873TIP3    H136254   4.582   5.714   2.136 -1.1935 -0.1907  1.2672
 4873TIP3    H236255   4.546   5.580   2.197  1.8684 -0.8777  1.6855
 4874TIP3   OH236256   1.075   2.618   0.788  0.5041  0.1490 -0.4579
 4874TIP3    H136257   1.060   2.700   0.834 -0.3343 -1.3088  2.0885
 4874TIP3    H236258   0.988   2.591   0.758  0.8631  0.4566 -1.8303
 4875TIP3   OH236259   6.252   5.489   8.711  0.5472  0.0694  0.5094
 4875TIP3    H136260   6.295   5.562   8.755  0.9908  1.4371 -2.0106
 4875TIP3    H236261   6.160   5.515   8.705  0.0160 -1.1426  2.5237
 4876TIP3   OH236262   1.478   3.004   1.837  0.1514 -0.6558  0.3798
 4876TIP3    H136263   1.435   2.926   1.803 -0.7564 -0.4064  0.8948
 4876TIP3    H236264   1.558   2.971   1.878  0.1418 -1.2198 -0.0388
 4877TIP3   OH236265   1.216   6.550   1.304  0.6659  0.1070 -0.3226
 4877TIP3    H136266   1.121   6.558   1.292  0.7941  1.3097 -0.7206
 4877TIP3    H236267   1.227   6.479   1.367 -0.4549 -0.6869 -0.9785
 4878TIP3   OH236268   0.655   1.170   7.862 -0.3111 -0.0810  0.3118
 4878TIP3    H136269   0.685   1.241   7.919 -0.1240  0.8077 -0.8418
 4878TIP3    H236270   0.717   1.099   7.878  0.2378  0.4466  0.5995
 4879TIP3   OH236271   4.604   4.487   0.469 -0.6161 -0.0268  0.5760
 4879TIP3    H136272   4.678   4.537   0.502  0.4786 -0.2637 -1.4003
 4879TIP3    H236273   4.630   4.395   0.478  0.0109 -0.0961 -1.4727
 4880TIP3   OH236274   1.222   3.608   0.585  0.5017 -0.5664  0.3101
 4880TIP3    H136275   1.217   3.639   0.676 -2.2153  1.5827 -0.4593
 4880TIP3    H236276   1.287   3.666   0.544 -0.4583  0.4814  0.2199
 4881TIP3   OH236277   0.069   1.835   2.073 -0.1392  0.2209  0.4207
 4881TIP3    H136278   0.121   1.759   2.047 -0.1035 -0.0565  1.2554
 4881TIP3    H236279  -0.004   1.799   2.123  0.7863  0.7893  2.3137
 4882TIP3   OH236280   0.729   3.116   7.748  0.5227 -0.0463 -0.5680
 4882TIP3    H136281   0.740   3.210   7.763 -4.0219  0.6105  0.1231
 4882TIP3    H236282   0.716   3.109   7.653  0.6789  0.0502 -0.5970
 4883TIP3   OH236283   0.096   2.183   0.158  0.2570  0.4175 -0.2468
 4883TIP3    H136284   0.111   2.103   0.108 -0.0028  1.2382 -1.6760
 4883TIP3    H236285   0.049   2.241   0.099 -0.6071  1.2155  1.1552
 4884TIP3   OH236286   1.771   6.718   1.171  0.1938 -0.1550  0.2321
 4884TIP3    H136287   1.861   6.700   1.146  0.6924  0.9195  1.1541
 4884TIP3    H236288   1.777   6.790   1.233 -1.3280  0.1239  0.1057
 4885TIP3   OH236289   4.215   2.927   1.060  0.1412 -0.2607  0.2664
 4885TIP3    H136290   4.173   2.880   1.131  1.4765 -1.8795  0.0617
 4885TIP3    H236291   4.305   2.940   1.090 -0.0549  1.7540  0.0912
 4886TIP3   OH236292   1.583   0.188   8.774 -0.1167  0.4908 -0.2127
 4886TIP3    H136293   1.519   0.188   8.703  0.8938  3.9481 -1.3674
 4886TIP3    H236294   1.554   0.259   8.832  1.8534  1.2232 -0.0530
 4887TIP3   OH236295   4.319   2.497   1.056  0.1623 -0.1686  0.1281
 4887TIP3    H136296   4.385   2.541   1.109  1.4104 -0.6276 -0.9987
 4887TIP3    H236297   4.235   2.524   1.095  0.9166  1.9864  0.4070
 4888TIP3   OH236298   6.172   1.324   8.775  0.2130  0.0203  0.1991
 4888TIP3    H136299   6.146   1.243   8.731 -0.4936  0.6807 -0.6125
 4888TIP3    H236300   6.167   1.302   8.869  0.0346 -0.8759 -0.0076
 4889TIP3   OH236301   5.365   4.182   6.366 -0.4195  0.2320 -0.0024
 4889TIP3    H136302   5.297   4.247   6.344 -1.3710  0.0531  2.1980
 4889TIP3    H236303   5.439   4.235   6.398  0.1282  0.3637 -1.3958
 4890TIP3   OH236304   5.476   4.521   1.674  0.0706 -0.2033  0.2714
 4890TIP3    H136305   5.503   4.483   1.757  0.5193 -0.5430 -0.0229
 4890TIP3    H236306   5.549   4.502   1.614 -0.0127  0.4931 -0.0631
 4891TIP3   OH236307   1.277   0.370   8.711  0.1343 -0.2129 -0.1607
 4891TIP3    H136308   1.323   0.330   8.638 -0.1399 -0.3082 -0.2828
 4891TIP3    H236309   1.335   0.440   8.741  1.4728 -1.8239  1.2130
 4892TIP3   OH236310   4.914   2.479   0.744 -0.1239 -0.2998  0.2159
 4892TIP3    H136311   4.990   2.451   0.693 -0.4320  0.5419 -0.7615
 4892TIP3    H236312   4.881   2.400   0.786  0.2474 -0.9919 -0.7775
 4893TIP3   OH236313   2.723   5.283   8.891 -0.0836  0.1015  0.1923
 4893TIP3    H136314   2.691   5.249   8.808 -0.1994 -0.6776  0.5532
 4893TIP3    H236315   2.801   5.231   8.910  0.7754  1.2277 -0.1245
 4894TIP3   OH236316   4.300   4.354   8.793  0.2888 -0.0129  0.1215
 4894TIP3    H136317   4.273   4.427   8.850 -0.2710  0.2813 -0.5047
 4894TIP3    H236318   4.388   4.378   8.764 -0.5259  1.2562 -1.4123
 4895TIP3   OH236319   0.982   2.512   1.667 -1.0215 -0.4633 -0.4096
 4895TIP3    H136320   1.015   2.597   1.637 -1.4252 -0.7298 -1.6619
 4895TIP3    H236321   0.908   2.494   1.610 -0.6712 -1.8565 -0.4545
 4896TIP3   OH236322   3.060   2.403   2.583 -0.6891  0.2407 -0.1414
 4896TIP3    H136323   3.027   2.423   2.495 -0.3980 -3.0909 -1.1708
 4896TIP3    H236324   3.151   2.378   2.569 -1.0032 -1.6475  0.8045
 4897TIP3   OH236325   2.579   0.026   8.125  0.4147 -0.2031 -0.3610
 4897TIP3    H136326   2.588  -0.069   8.126  0.6274 -0.3097  3.6563
 4897TIP3    H236327   2.668   0.059   8.133  0.1349  0.0376  3.0613
 4898TIP3   OH236328   0.230   3.972   7.400  0.0321 -0.1178 -0.2250
 4898TIP3    H136329   0.212   3.883   7.429  1.9772 -0.3808  0.3173
 4898TIP3    H236330   0.218   3.970   7.305  0.7942 -1.1733 -0.3188
 4899TIP3   OH236331   1.994   2.270   1.063 -0.2232 -0.3910 -0.6376
 4899TIP3    H136332   1.915   2.299   1.017 -0.7381 -0.5731  0.1212
 4899TIP3    H236333   2.002   2.329   1.138  2.0241  1.5581 -2.2509
 4900TIP3   OH236334   5.392   1.544   1.104 -0.8181 -0.1749  0.3798
 4900TIP3    H136335   5.377   1.595   1.184 -0.6179 -0.3927  0.5607
 4900TIP3    H236336   5.437   1.604   1.045  0.8162 -0.5872  1.1592
 4901TIP3   OH236337   2.799   5.663   0.400 -0.3476  0.0833 -0.2031
 4901TIP3    H136338   2.856   5.626   0.333  0.0577 -2.3212  1.3175
 4901TIP3    H236339   2.840   5.746   0.423  1.4494 -0.6525 -0.5506
 4902TIP3   OH236340   4.185   5.344   8.289  0.6246  0.1206 -1.0070
 4902TIP3    H136341   4.174   5.429   8.331  0.4947 -0.0917 -0.6085
 4902TIP3    H236342   4.124   5.346   8.216  0.0593  0.0717 -0.5373
 4903TIP3   OH236343   2.312   4.375   1.671 -0.1121 -0.3031 -0.0982
 4903TIP3    H136344   2.281   4.378   1.761 -1.4572 -1.2576 -0.4839
 4903TIP3    H236345   2.362   4.455   1.659  1.2000 -0.7647  1.8610
 4904TIP3   OH236346   5.449   2.716   8.438  0.1154  0.1400 -0.1193
 4904TIP3    H136347   5.443   2.720   8.534  0.6662  2.6310 -0.1109
 4904TIP3    H236348   5.378   2.658   8.412 -0.1897 -0.4273  1.7766
 4905TIP3   OH236349   2.301   6.604   8.058 -0.5505  0.0471 -0.0851
 4905TIP3    H136350   2.239   6.591   7.987 -1.2336  0.2234  0.4678
 4905TIP3    H236351   2.280   6.690   8.094  0.8323  0.6600 -0.6709
 4906TIP3   OH236352   1.298   1.394   0.386  0.6695  0.9410  0.3957
 4906TIP3    H136353   1.222   1.402   0.329  0.5222 -1.2539  0.2311
 4906TIP3    H236354   1.261   1.377   0.472  0.9562  2.2252  0.8018
 4907TIP3   OH236355   4.993   5.227   1.646 -0.3110 -0.6876 -0.4893
 4907TIP3    H136356   5.003   5.160   1.714  0.3572 -0.8105 -0.7030
 4907TIP3    H236357   5.033   5.305   1.683 -1.3765 -0.3017 -0.1130
 4908TIP3   OH236358   3.102   1.583   7.844  0.0698  0.4102 -0.1234
 4908TIP3    H136359   3.186   1.621   7.817  0.4725  1.1126  1.9629
 4908TIP3    H236360   3.036   1.634   7.796  0.7736 -0.3300 -2.0030
 4909TIP3   OH236361   3.150   4.378   7.921  0.1752  0.0963  0.2445
 4909TIP3    H136362   3.192   4.387   8.007 -1.4206  0.1658  1.0410
 4909TIP3    H236363   3.063   4.344   7.940  0.8179 -2.9789 -1.5576
 4910TIP3   OH236364   2.628   6.312   1.064  0.1393  0.2727 -0.0002
 4910TIP3    H136365   2.713   6.345   1.090 -0.7298  1.9288  0.8855
 4910TIP3    H236366   2.583   6.387   1.024 -0.7349 -0.6899 -0.9259
 4911TIP3   OH236367   2.717   2.032   7.247 -0.0863  0.3600 -0.2920
 4911TIP3    H136368   2.707   1.976   7.324 -0.8725 -0.3528 -0.8870
 4911TIP3    H236369   2.630   2.031   7.206  0.3145  0.7498 -1.1657
 4912TIP3   OH236370   3.112   5.736   2.397  0.2873  0.2650  0.2160
 4912TIP3    H136371   3.047   5.725   2.466  0.3319 -2.0476 -0.0296
 4912TIP3    H236372   3.064   5.723   2.316  0.7389  0.1817 -0.0439
 4913TIP3   OH236373   6.416   0.695   8.729  0.9173 -0.0482  0.4967
 4913TIP3    H136374   6.418   0.746   8.648 -0.8476 -0.6074  0.0518
 4913TIP3    H236375   6.412   0.761   8.798 -0.3121  0.4472 -0.0231
 4914TIP3   OH236376   6.742   1.694   6.898 -0.1321  0.1324  0.0912
 4914TIP3    H136377   6.834   1.721   6.894 -1.0000  3.4585 -2.0135
 4914TIP3    H236378   6.732   1.632   6.825  0.6078 -1.0788  0.9909
 4915TIP3   OH236379   3.756   0.177   0.585  0.2224 -0.8805  0.3046
 4915TIP3    H136380   3.693   0.136   0.526 -0.0109 -1.2847  0.8291
 4915TIP3    H236381   3.703   0.238   0.637  0.2981 -1.0949  0.6287
 4916TIP3   OH236382   0.159   3.683   8.922  0.6205 -0.2559 -0.1513
 4916TIP3    H136383   0.237   3.699   8.974 -0.7285 -0.1684  1.9828
 4916TIP3    H236384   0.152   3.759   8.864  2.6453 -0.7839 -1.1733
 4917TIP3   OH236385   3.277   2.651   1.963 -0.5764 -0.1827 -0.1999
 4917TIP3    H136386   3.296   2.636   1.870  0.9575 -0.4675  0.1389
 4917TIP3    H236387   3.256   2.564   1.998  0.3166 -0.3176  0.0245
 4918TIP3   OH236388   6.351   4.619   0.477 -0.2370 -0.3107  0.2488
 4918TIP3    H136389   6.305   4.703   0.483 -0.4199 -0.4559  1.0293
 4918TIP3    H236390   6.372   4.597   0.568  0.3657 -0.8065 -0.0067
 4919TIP3   OH236391   4.636   6.646   8.492  0.5229 -0.4331  0.0305
 4919TIP3    H136392   4.542   6.645   8.507  0.4783 -0.1972 -0.2237
 4919TIP3    H236393   4.672   6.696   8.565  0.5499 -1.3145  0.6430
 4920TIP3   OH236394   1.939   0.687   1.838 -0.3806  0.5273  0.3384
 4920TIP3    H136395   1.862   0.677   1.895 -0.3332 -0.7720  0.2128
 4920TIP3    H236396   1.937   0.778   1.811 -1.9966  0.4791  0.1948
 4921TIP3   OH236397   0.543   4.378   8.751  0.2682  0.2179 -0.1136
 4921TIP3    H136398   0.476   4.355   8.688  0.5777  0.8200 -0.6731
 4921TIP3    H236399   0.623   4.385   8.700  0.6489  0.0633  0.4531
 4922TIP3   OH236400   0.461   0.422   7.821  0.3643  0.2382  0.3726
 4922TIP3    H136401   0.471   0.355   7.753  0.0599  0.5561  0.0116
 4922TIP3    H236402   0.373   0.456   7.809  1.2701  2.3580 -0.9872
 4923TIP3   OH236403   0.457   2.902   1.257 -0.3267 -0.1051 -0.1164
 4923TIP3    H136404   0.472   2.990   1.292 -1.6756 -1.0627  3.3315
 4923TIP3    H236405   0.372   2.908   1.214 -0.7599  0.1551  0.7484
 4924TIP3   OH236406   3.680   0.031   0.134  0.4663 -0.6351 -0.5601
 4924TIP3    H136407   3.654  -0.060   0.136  0.0260 -0.5264 -1.0959
 4924TIP3    H236408   3.620   0.075   0.194 -0.5026 -0.4171 -1.6444
 4925TIP3   OH236409   2.175   4.838   7.753 -0.1468  0.1776  0.4522
 4925TIP3    H136410   2.172   4.933   7.753 -1.2445  0.1613 -0.3218
 4925TIP3    H236411   2.207   4.815   7.841  0.1694  1.2403  0.6311
 4926TIP3   OH236412   3.624   4.830   1.488 -0.8708  0.4024  0.2245
 4926TIP3    H136413   3.697   4.891   1.500  1.3308 -2.1317  0.4489
 4926TIP3    H236414   3.565   4.849   1.561  1.2257  0.3375  2.0556
 4927TIP3   OH236415   1.479   4.703   2.074 -0.3733  0.8973 -0.3301
 4927TIP3    H136416   1.501   4.797   2.074  0.4594  0.7684  2.0591
 4927TIP3    H236417   1.552   4.662   2.120 -0.4866 -1.0336 -1.7588
 4928TIP3   OH236418   5.529   3.145   8.154 -0.0052  0.3619 -0.0943
 4928TIP3    H136419   5.601   3.084   8.136 -1.3546 -1.7365  1.1929
 4928TIP3    H236420   5.456   3.089   8.179 -1.3912  2.5321  1.0185
 4929TIP3   OH236421   3.680   1.447   8.395  0.4535 -0.3288  0.2625
 4929TIP3    H136422   3.682   1.374   8.334  0.3675 -0.5726  0.5470
 4929TIP3    H236423   3.604   1.430   8.451 -0.5424  0.8166 -0.6724
 4930TIP3   OH236424   6.577   1.898   6.967 -0.1596  0.7480  0.0885
 4930TIP3    H136425   6.602   1.921   7.057  1.8806  2.1684 -0.7711
 4930TIP3    H236426   6.633   1.823   6.945  0.3678  1.2970 -0.4581
 4931TIP3   OH236427   0.623   5.799   7.975  0.7661  0.2501 -0.2295
 4931TIP3    H136428   0.653   5.712   8.002  0.7264  0.0073 -0.9479
 4931TIP3    H236429   0.696   5.835   7.925  0.6137  0.4570 -0.3002
 4932TIP3   OH236430   4.039   5.575   1.263  0.3079  0.4329 -0.0400
 4932TIP3    H136431   4.090   5.604   1.338 -1.0290  1.2933  0.5701
 4932TIP3    H236432   3.949   5.600   1.284 -0.2496 -0.2840 -1.4512
 4933TIP3   OH236433   6.175   0.252   0.548 -0.6562  0.3123 -1.0546
 4933TIP3    H136434   6.140   0.329   0.593 -1.3424  0.3696 -1.6606
 4933TIP3    H236435   6.241   0.287   0.487 -0.9865  0.4292 -1.3485
 4934TIP3   OH236436   5.954   5.679   0.986  0.1850  0.2229  0.0385
 4934TIP3    H136437   5.993   5.729   0.915 -0.1030  0.5272  0.0909
 4934TIP3    H236438   5.974   5.730   1.065  0.2910  0.0151  0.1477
 4935TIP3   OH236439   0.641   5.485   1.174 -0.6066 -0.5070  0.1722
 4935TIP3    H136440   0.713   5.492   1.237 -0.0795  2.1557 -0.6067
 4935TIP3    H236441   0.684   5.482   1.089 -1.3638 -2.4609 -0.1855
 4936TIP3   OH236442   3.022   3.679   7.974 -0.0090  0.2187 -0.2687
 4936TIP3    H136443   2.940   3.728   7.974  0.3710  1.2861  3.7542
 4936TIP3    H236444   2.996   3.588   7.963 -1.7756  0.5517  0.7412
 4937TIP3   OH236445   4.658   2.875   2.427 -0.8830 -0.0712 -0.1895
 4937TIP3    H136446   4.666   2.840   2.516 -0.9859  0.1081 -0.1091
 4937TIP3    H236447   4.566   2.862   2.405 -0.7705 -0.4807 -0.4230
 4938TIP3   OH236448   0.789   2.881   0.900 -0.0044 -0.1845 -0.6067
 4938TIP3    H136449   0.882   2.859   0.889  0.1344  0.7388 -1.4751
 4938TIP3    H236450   0.775   2.877   0.994  1.7721  2.7229 -0.0660
 4939TIP3   OH236451   1.918   5.536   0.513  0.2408 -0.0575  0.1753
 4939TIP3    H136452   1.981   5.468   0.493 -1.1875 -1.0130 -1.4154
 4939TIP3    H236453   1.866   5.501   0.585 -0.5142 -0.7169 -0.6640
 4940TIP3   OH236454   0.121   6.590   8.559  0.0016 -0.1000  0.7866
 4940TIP3    H136455   0.201   6.571   8.510  0.2916 -0.9571  1.5797
 4940TIP3    H236456   0.050   6.565   8.499  0.3355 -0.1878  0.4272
 4941TIP3   OH236457   0.921   3.206   1.014  0.4963 -0.4940 -0.3577
 4941TIP3    H136458   1.005   3.249   0.999 -0.0005  0.7151  0.2011
 4941TIP3    H236459   0.940   3.139   1.080  0.9588  0.0197  0.0416
 4942TIP3   OH236460   5.426   0.592   0.396 -0.0013 -0.2910  0.1657
 4942TIP3    H136461   5.415   0.576   0.490  1.3266  0.3144  0.4409
 4942TIP3    H236462   5.364   0.662   0.377 -1.2616 -1.3318  0.2780
 4943TIP3   OH236463   1.031   4.065   8.778  0.8263 -0.5867 -0.3431
 4943TIP3    H136464   1.067   3.994   8.831 -0.3952 -1.7882 -1.0554
 4943TIP3    H236465   1.042   4.036   8.688 -2.9870 -1.7126 -0.6315
 4944TIP3   OH236466   3.430   4.721   7.682 -0.3983 -0.0335 -0.0947
 4944TIP3    H136467   3.363   4.790   7.685 -0.9452 -0.5363 -0.6747
 4944TIP3    H236468   3.471   4.731   7.596  1.9783  1.8330  1.1145
 4945TIP3   OH236469   1.651   2.891   7.610  0.3755  0.3124 -0.6839
 4945TIP3    H136470   1.726   2.922   7.560  0.2530  0.8397 -0.5511
 4945TIP3    H236471   1.609   2.971   7.643  0.5511 -0.0157  0.3932
 4946TIP3   OH236472   5.164   3.021   7.037  0.2019 -0.5126  0.3947
 4946TIP3    H136473   5.141   3.004   6.946  0.0809 -2.0107  0.6897
 4946TIP3    H236474   5.134   2.944   7.085  1.6026 -0.4214  1.4896
 4947TIP3   OH236475   0.140   5.560   0.858 -0.3673 -0.1170  0.1146
 4947TIP3    H136476   0.172   5.537   0.945  1.8269 -0.8972 -0.8183
 4947TIP3    H236477   0.188   5.640   0.835 -0.9546  0.1075 -0.3512
 4948TIP3   OH236478   3.436   3.502   6.731 -0.5076  0.7583 -0.7490
 4948TIP3    H136479   3.418   3.449   6.809 -1.7446 -0.0519 -1.5410
 4948TIP3    H236480   3.473   3.440   6.669  1.5946  1.6410 -0.4545
 4949TIP3   OH236481   1.029   2.335   8.445 -0.5021 -0.0291  0.0532
 4949TIP3    H136482   1.084   2.408   8.418  0.9899 -1.4329 -0.8919
 4949TIP3    H236483   1.044   2.327   8.539 -0.1913  0.4897  0.0523
 4950TIP3   OH236484   3.702   6.232   1.622 -0.3253  0.1472 -0.3154
 4950TIP3    H136485   3.697   6.169   1.694 -1.3633  0.7565  0.1795
 4950TIP3    H236486   3.653   6.308   1.654  1.9791  1.7551 -0.3562
 4951TIP3   OH236487   4.311   5.704   8.062 -0.5985  0.3907 -0.1240
 4951TIP3    H136488   4.317   5.646   8.139  0.9541  0.0729 -0.4417
 4951TIP3    H236489   4.292   5.644   7.989 -2.7478  0.7701  0.0670
 4952TIP3   OH236490   4.749   1.343   6.494  0.2969  0.2618  0.5976
 4952TIP3    H136491   4.664   1.385   6.482  0.0681 -0.4798 -0.5249
 4952TIP3    H236492   4.737   1.288   6.571  0.1850  1.1846  1.2561
 4953TIP3   OH236493   2.748   6.394   0.594 -0.0833  0.1827 -0.0507
 4953TIP3    H136494   2.741   6.469   0.654 -2.3060 -0.3907  0.4747
 4953TIP3    H236495   2.758   6.318   0.652  0.5205 -0.1053 -0.5247
 4954TIP3   OH236496   3.454   0.492   7.713  0.0044  0.1049 -0.4310
 4954TIP3    H136497   3.431   0.499   7.621  1.7199  0.8215 -0.8471
 4954TIP3    H236498   3.497   0.407   7.720  1.1655  0.6562 -0.6268
 4955TIP3   OH236499   1.342   5.441   0.187 -0.2588 -0.0106 -0.3966
 4955TIP3    H136500   1.407   5.504   0.157 -0.5613  0.0015 -1.0467
 4955TIP3    H236501   1.258   5.478   0.160 -0.3658 -1.2649 -1.9043
 4956TIP3   OH236502   5.936   1.114   1.674  0.0992  0.3312  0.1716
 4956TIP3    H136503   5.875   1.139   1.743  0.1529  2.2780 -0.4453
 4956TIP3    H236504   5.884   1.114   1.594  0.2423 -1.0397  0.0464
 4957TIP3   OH236505   2.474   2.625   1.280 -0.8185  0.4607 -0.3236
 4957TIP3    H136506   2.423   2.681   1.338 -0.4861  0.4311 -0.0010
 4957TIP3    H236507   2.411   2.563   1.244 -1.2022  1.0765 -0.7285
 4958TIP3   OH236508   3.720   1.563   1.011  0.0285 -0.2158 -0.1517
 4958TIP3    H136509   3.663   1.635   0.984 -0.0227 -0.9307 -2.1488
 4958TIP3    H236510   3.660   1.489   1.027  0.2881 -1.1844 -2.9667
 4959TIP3   OH236511   3.483   1.672   7.547  0.0666  0.5621  0.0080
 4959TIP3    H136512   3.559   1.679   7.605 -0.8730 -0.2387  1.3808
 4959TIP3    H236513   3.490   1.748   7.489  0.0431  2.4716  2.3836
 4960TIP3   OH236514   5.637   5.437   2.315  0.4324  0.2815 -0.0122
 4960TIP3    H136515   5.621   5.366   2.378  0.6748 -0.0987 -0.3812
 4960TIP3    H236516   5.599   5.406   2.233  2.8841 -0.6173 -0.9098
 4961TIP3   OH236517   5.956   4.632   1.672  0.0369  0.1887  0.4915
 4961TIP3    H136518   6.050   4.625   1.652 -0.0471  2.2271 -1.0251
 4961TIP3    H236519   5.950   4.708   1.731 -0.6158 -0.2404  0.9845
 4962TIP3   OH236520   5.292   0.925   6.460  0.3335 -0.5418 -0.2868
 4962TIP3    H136521   5.222   0.897   6.518  0.0004 -2.0347 -1.3465
 4962TIP3    H236522   5.369   0.931   6.517 -0.0854 -1.4674  0.4075
 4963TIP3   OH236523   5.929   4.995   0.530  0.2857 -0.5022  0.1599
 4963TIP3    H136524   5.938   5.083   0.567 -0.0919 -0.6713  0.6786
 4963TIP3    H236525   5.896   4.942   0.603 -0.4627 -0.8539 -0.4134
 4964TIP3   OH236526   3.614   0.805   8.590 -0.3304 -0.5819 -0.0642
 4964TIP3    H136527   3.645   0.891   8.561  1.1965 -1.5267 -1.3970
 4964TIP3    H236528   3.655   0.791   8.675  1.4318 -1.0078 -0.9571
 4965TIP3   OH236529   0.595   5.770   1.105 -0.6519  0.0500  0.3036
 4965TIP3    H136530   0.597   5.720   1.186 -0.7756  0.2587  0.4354
 4965TIP3    H236531   0.686   5.773   1.076 -0.5982  0.0411  0.4731
 4966TIP3   OH236532   4.128   1.360   6.536  0.2628 -0.1320  0.0582
 4966TIP3    H136533   4.191   1.288   6.537  1.1412  0.6029 -0.8087
 4966TIP3    H236534   4.077   1.346   6.456  1.8522  1.3409 -1.3063
 4967TIP3   OH236535   5.714   4.341   2.860  0.1585  1.2276  0.2785
 4967TIP3    H136536   5.781   4.287   2.900  1.1169  1.8077 -0.4910
 4967TIP3    H236537   5.758   4.424   2.841 -0.9893  1.9036  0.4711
 4968TIP3   OH236538   4.832   0.210   1.744 -0.1314  0.9316 -0.0806
 4968TIP3    H136539   4.857   0.264   1.818 -0.0082  0.2054  0.4148
 4968TIP3    H236540   4.912   0.202   1.692  0.0919  0.4600  0.3327
 4969TIP3   OH236541   0.864   3.957   1.291 -0.2403 -0.4693 -0.4154
 4969TIP3    H136542   0.882   3.915   1.375 -1.2010  1.8600  1.0574
 4969TIP3    H236543   0.769   3.951   1.281 -0.1691 -0.4185 -1.1575
 4970TIP3   OH236544   6.443   0.268   6.926 -0.2599  0.1940  0.4408
 4970TIP3    H136545   6.394   0.199   6.880 -0.1898  1.4085 -1.5833
 4970TIP3    H236546   6.451   0.236   7.015 -0.4946 -2.2725 -0.3502
 4971TIP3   OH236547   5.607   3.142   8.707 -0.5904 -0.2348  0.1320
 4971TIP3    H136548   5.616   3.079   8.636  1.5373 -0.6085  0.6701
 4971TIP3    H236549   5.571   3.221   8.666  0.0540 -0.6357 -1.2261
 4972TIP3   OH236550   6.560   5.909   1.991 -0.4480 -0.1416  0.2499
 4972TIP3    H136551   6.604   5.930   2.074  1.7646 -1.6458 -0.4400
 4972TIP3    H236552   6.525   5.821   2.004 -0.2975 -0.2904 -0.3237
 4973TIP3   OH236553   3.129   4.940   7.082  0.1599  0.2295  0.3520
 4973TIP3    H136554   3.045   4.964   7.122  1.1880  2.5256  1.3230
 4973TIP3    H236555   3.108   4.930   6.989 -1.0136  2.0957  0.3445
 4974TIP3   OH236556   1.648   2.264   7.313 -0.6006 -0.3964 -0.1314
 4974TIP3    H136557   1.690   2.260   7.227  2.5923  1.6561  1.1218
 4974TIP3    H236558   1.656   2.356   7.339 -0.8067 -1.0503  2.6201
 4975TIP3   OH236559   5.589   3.507   7.823  0.7527  0.4508  0.2229
 4975TIP3    H136560   5.504   3.533   7.788  0.0640 -2.3569 -0.4281
 4975TIP3    H236561   5.653   3.544   7.762 -0.2756 -1.4570 -2.1582
 4976TIP3   OH236562   4.910   1.194   8.156 -0.3825  0.5988  0.1208
 4976TIP3    H136563   4.850   1.144   8.102  0.3442 -0.2545  0.0800
 4976TIP3    H236564   4.949   1.258   8.096  2.8527 -2.4019 -1.3114
 4977TIP3   OH236565   5.234   2.577   6.482 -0.2347  0.1317  0.4292
 4977TIP3    H136566   5.276   2.663   6.473 -0.3074  0.2304  0.9839
 4977TIP3    H236567   5.202   2.576   6.572  3.0108 -1.9310  1.7008
 4978TIP3   OH236568   3.008   4.788   8.876  0.3295 -0.4010 -0.4746
 4978TIP3    H136569   2.923   4.743   8.872 -0.0382  0.1861  0.4049
 4978TIP3    H236570   3.019   4.827   8.789 -0.5333 -0.0895 -0.4574
 4979TIP3   OH236571   6.482   4.242   0.968 -0.0967 -0.3442 -0.0430
 4979TIP3    H136572   6.508   4.223   1.058  2.3737 -0.3895 -0.6931
 4979TIP3    H236573   6.494   4.337   0.959 -0.2345 -0.3537 -0.3368
 4980TIP3   OH236574   5.389   6.773   6.982  0.5772  0.4808  0.4923
 4980TIP3    H136575   5.402   6.827   7.060 -2.7294 -1.8754  2.9409
 4980TIP3    H236576   5.451   6.701   6.992 -0.5524 -0.3683  1.5737
 4981TIP3   OH236577   6.081   4.728   0.486  0.4529 -0.5868  0.3273
 4981TIP3    H136578   6.016   4.667   0.520  2.0721 -2.0091  1.0329
 4981TIP3    H236579   6.036   4.812   0.483 -1.4093 -1.5182  0.7437
 4982TIP3   OH236580   4.654   1.939   7.531  0.7718 -0.4388 -0.5713
 4982TIP3    H136581   4.625   1.848   7.526  4.2983 -1.6627 -3.8365
 4982TIP3    H236582   4.633   1.975   7.444 -0.3024  1.8898  0.5521
 4983TIP3   OH236583   1.976   5.358   2.718  0.1149 -0.1805  0.7054
 4983TIP3    H136584   1.918   5.395   2.784 -2.2849 -0.0394 -1.3329
 4983TIP3    H236585   1.969   5.419   2.644  0.6060 -1.7015 -0.6409
 4984TIP3   OH236586   0.404   0.533   0.520  0.2738  0.2670  0.1820
 4984TIP3    H136587   0.407   0.441   0.492  0.4989  1.0558 -2.6137
 4984TIP3    H236588   0.495   0.561   0.521  0.3629  0.1293  2.5471
 4985TIP3   OH236589   0.149   1.657   0.213  0.6432 -0.4332 -0.0871
 4985TIP3    H136590   0.210   1.584   0.199 -0.6281 -1.5553 -0.0396
 4985TIP3    H236591   0.068   1.614   0.242  0.4131  1.1458  1.7509
 4986TIP3   OH236592   1.014   0.446   8.699 -0.2218 -0.2591 -0.3167
 4986TIP3    H136593   0.970   0.368   8.733  1.0053 -0.8175  0.0383
 4986TIP3    H236594   1.107   0.431   8.717 -0.0221  1.6597  0.5357
 4987TIP3   OH236595   3.129   5.719   0.958 -0.1936 -0.1949 -0.1413
 4987TIP3    H136596   3.215   5.715   0.916 -0.1394  1.7237 -0.3026
 4987TIP3    H236597   3.147   5.710   1.052  0.6022  3.1109  0.1387
 4988TIP3   OH236598   2.042   5.863   8.744  0.0327  0.5550 -0.4429
 4988TIP3    H136599   2.077   5.865   8.833 -0.1971  0.7843 -0.3573
 4988TIP3    H236600   2.120   5.860   8.688  0.3263  3.6493 -0.3506
 4989TIP3   OH236601   4.432   5.879   7.282  0.1931  0.0170 -0.1034
 4989TIP3    H136602   4.520   5.911   7.300  0.9267 -2.1592  0.5244
 4989TIP3    H236603   4.426   5.876   7.187 -0.1518  2.4891 -0.2131
 4990TIP3   OH236604   2.008   1.641   6.952  0.2359  0.6414 -0.0093
 4990TIP3    H136605   1.917   1.649   6.980  0.4742  0.6584  0.7740
 4990TIP3    H236606   2.052   1.600   7.026  0.3614 -1.8211 -1.3278
 4991TIP3   OH236607   3.594   1.109   6.533 -0.0321  0.2894 -0.6687
 4991TIP3    H136608   3.653   1.134   6.462  1.0064  0.8486  0.3612
 4991TIP3    H236609   3.544   1.188   6.552 -0.2979  0.1442 -0.7532
 4992TIP3   OH236610   3.899   5.508   1.036 -0.0088  0.2999 -0.3405
 4992TIP3    H136611   3.956   5.528   1.110 -0.6367 -1.3745  0.6583
 4992TIP3    H236612   3.947   5.441   0.986 -1.0590 -1.2006  0.5671
 4993TIP3   OH236613   5.296   2.993   8.220  0.6078 -0.0886 -0.1172
 4993TIP3    H136614   5.201   2.982   8.221  0.6711 -1.0053  1.8796
 4993TIP3    H236615   5.324   2.955   8.137 -0.9149  2.2254 -1.7893
 4994TIP3   OH236616   5.151   0.069   1.186 -0.3461  0.3979 -0.0768
 4994TIP3    H136617   5.171   0.018   1.108  0.4096  0.7039 -0.0937
 4994TIP3    H236618   5.078   0.125   1.160  0.2446  0.8816 -0.7450
 4995TIP3   OH236619   3.986   4.656   1.496 -0.0874 -0.5868  0.5057
 4995TIP3    H136620   4.042   4.710   1.552  1.3151 -1.0403 -0.4207
 4995TIP3    H236621   3.949   4.717   1.433  0.2513 -0.4585  0.4294
 4996TIP3   OH236622   1.750   5.363   8.466  0.3057  0.2363 -0.4819
 4996TIP3    H136623   1.672   5.309   8.479  1.4781 -1.3994 -0.0367
 4996TIP3    H236624   1.719   5.453   8.480 -1.8593 -0.1961 -1.9641
 4997TIP3   OH236625   3.736   5.342   1.282 -0.1938  0.3750 -0.1424
 4997TIP3    H136626   3.659   5.351   1.225 -0.6566  1.1442  0.5836
 4997TIP3    H236627   3.769   5.432   1.291  0.0669  0.2121  0.5326
 4998TIP3   OH236628   6.625   2.243   7.283 -0.3105 -0.2850  0.4884
 4998TIP3    H136629   6.630   2.287   7.198  2.2358 -0.1711  0.6199
 4998TIP3    H236630   6.687   2.171   7.276  0.2779 -0.0122  2.3863
 4999TIP3   OH236631   5.593   3.995   0.762 -0.1846 -0.3094 -0.4775
 4999TIP3    H136632   5.685   4.014   0.747 -0.3863  0.8945 -0.2608
 4999TIP3    H236633   5.584   3.902   0.740  0.9590 -0.3115 -0.9967
 5000TIP3   OH236634   2.348   1.432   8.404  0.1690  0.1142 -0.4372
 5000TIP3    H136635   2.385   1.346   8.425 -0.5256 -0.7602 -2.4562
 5000TIP3    H236636   2.254   1.421   8.420  0.0409  0.3906 -0.9728
 5001TIP3   OH236637   0.476   5.161   8.709 -0.0866  0.4962 -0.4631
 5001TIP3    H136638   0.473   5.208   8.793 -0.1461 -0.0738 -0.1371
 5001TIP3    H236639   0.392   5.114   8.705  0.6400 -0.8989  0.0089
 5002TIP3   OH236640   0.382   5.142   1.765 -0.2334 -0.3790 -0.1398
 5002TIP3    H136641   0.388   5.212   1.831  1.2924 -1.3145  0.7810
 5002TIP3    H236642   0.465   5.147   1.718 -0.3591 -1.1918 -0.4536
 5003TIP3   OH236643   4.887   2.191   7.378  0.4002  0.1300  0.1431
 5003TIP3    H136644   4.966   2.244   7.370  1.8613 -2.0551 -1.0709
 5003TIP3    H236645   4.844   2.199   7.293 -0.2085  0.5868  0.4888
 5004TIP3   OH236646   2.908   4.737   7.684  0.3716 -0.4908  0.6449
 5004TIP3    H136647   2.925   4.797   7.756  1.2711 -0.6416  0.5666
 5004TIP3    H236648   2.967   4.663   7.700  1.4324 -0.0140 -0.8560
 5005TIP3   OH236649   6.128   1.118   7.715 -0.3835  0.0177 -0.1758
 5005TIP3    H136650   6.165   1.089   7.631 -1.3643 -1.3451 -0.1682
 5005TIP3    H236651   6.137   1.213   7.713  0.9902 -0.0905 -1.1650
 5006TIP3   OH236652   5.246   3.128   0.180  0.6259  0.0117  0.2042
 5006TIP3    H136653   5.238   3.146   0.086  0.7240 -0.1042  0.1738
 5006TIP3    H236654   5.303   3.197   0.213  0.4075  0.1862  0.2200
 5007TIP3   OH236655   0.085   2.218   1.729  0.4089 -0.3518  0.0118
 5007TIP3    H136656   0.025   2.208   1.655  1.6629  0.2369 -1.1189
 5007TIP3    H236657   0.051   2.157   1.795 -2.1380  0.8523 -0.0855
 5008TIP3   OH236658   4.837   5.568   1.998 -0.4156  0.0075 -0.7690
 5008TIP3    H136659   4.757   5.597   2.042 -0.6061  1.8604 -2.2175
 5008TIP3    H236660   4.897   5.545   2.069 -2.0902 -1.0872  0.3496
 5009TIP3   OH236661   4.436   5.897   1.630  0.1942 -0.2638 -0.1831
 5009TIP3    H136662   4.403   5.969   1.577  0.2879 -1.8304 -2.5015
 5009TIP3    H236663   4.392   5.907   1.714 -0.6411  1.8118 -0.7945
 5010TIP3   OH236664   2.162   0.544   7.076  0.0676 -0.4804 -0.0438
 5010TIP3    H136665   2.239   0.529   7.131  1.2794  0.6825 -1.3212
 5010TIP3    H236666   2.165   0.638   7.057 -1.0790 -0.6150 -0.9793
 5011TIP3   OH236667   2.892   4.700   0.705 -0.0906 -0.1769 -0.5154
 5011TIP3    H136668   2.929   4.741   0.783  0.2338 -0.6014 -0.4429
 5011TIP3    H236669   2.798   4.698   0.721 -0.2751  1.7827 -1.1112
 5012TIP3   OH236670   3.575   5.533   1.688 -0.2998  0.3823 -0.0664
 5012TIP3    H136671   3.578   5.609   1.630  1.5122 -0.2844 -0.9263
 5012TIP3    H236672   3.594   5.459   1.630  0.6689 -0.4092  1.2136
 5013TIP3   OH236673   0.681   0.484   8.765 -0.1807 -0.0016  0.0249
 5013TIP3    H136674   0.749   0.434   8.810 -2.1200 -2.0524  0.8161
 5013TIP3    H236675   0.690   0.458   8.673  0.6493  0.4661 -0.0431
 5014TIP3   OH236676   3.550   5.818   7.488 -0.4632  0.0164 -0.1868
 5014TIP3    H136677   3.633   5.860   7.467  0.1178 -1.1821 -0.4077
 5014TIP3    H236678   3.503   5.815   7.405 -0.6790  0.5911 -0.0859
 5015TIP3   OH236679   6.570   5.770   7.004 -0.2639  0.4018  0.7854
 5015TIP3    H136680   6.550   5.813   6.921 -0.3839 -2.3629 -0.7374
 5015TIP3    H236681   6.488   5.771   7.052 -0.8850 -0.1882 -0.2315
 5016TIP3   OH236682   5.878   0.780   1.231  0.2183 -0.1397 -0.2997
 5016TIP3    H136683   5.930   0.857   1.210  0.1716 -0.1231 -0.3544
 5016TIP3    H236684   5.797   0.791   1.180 -0.8780  1.0220  1.5775
 5017TIP3   OH236685   2.503   0.738   1.936  1.1474  0.3050 -0.9538
 5017TIP3    H136686   2.459   0.658   1.965  1.2980 -0.3883 -2.5613
 5017TIP3    H236687   2.473   0.805   1.998  0.3334 -0.7938 -0.1107
 5018TIP3   OH236688   3.071   0.735   7.239 -0.3036  0.0590 -0.0961
 5018TIP3    H136689   3.068   0.641   7.258  0.5361 -1.0017 -4.2416
 5018TIP3    H236690   3.037   0.742   7.150  1.9293  3.3811 -0.8651
 5019TIP3   OH236691   3.249   3.644   0.984  0.1429  0.3000 -0.2892
 5019TIP3    H136692   3.154   3.642   0.969  0.3902 -0.8444 -1.8843
 5019TIP3    H236693   3.264   3.727   1.030 -1.7260  0.0816  0.8114
 5020TIP3   OH236694   6.398   6.735   7.117  0.7986  0.4052  0.3050
 5020TIP3    H136695   6.419   6.650   7.157 -0.6292  0.2617  0.8112
 5020TIP3    H236696   6.443   6.734   7.033  0.2450 -1.1524  0.0003
 5021TIP3   OH236697   5.131   1.424   8.149  0.3898  0.0002 -0.5268
 5021TIP3    H136698   5.186   1.487   8.104  0.8269  0.1525  0.2101
 5021TIP3    H236699   5.188   1.349   8.166  0.6924  0.5524  1.1288
 5022TIP3   OH236700   1.992   4.037   0.749 -0.6688 -0.0502  0.6640
 5022TIP3    H136701   2.036   4.037   0.834 -1.0806 -2.0702  0.9384
 5022TIP3    H236702   1.960   4.126   0.738  1.7087  0.9760  1.3746
 5023TIP3   OH236703   6.137   6.566   7.908 -0.1067  0.0324  0.2372
 5023TIP3    H136704   6.061   6.621   7.924  0.4808  0.8722  0.2186
 5023TIP3    H236705   6.105   6.494   7.854 -0.8339  0.4963  0.0463
 5024TIP3   OH236706   0.007   3.469   8.847  0.4562 -0.5417 -0.1509
 5024TIP3    H136707  -0.047   3.435   8.919 -1.6959  1.1429 -0.8675
 5024TIP3    H236708   0.055   3.542   8.886 -1.6216  1.1574 -0.5892
 5025TIP3   OH236709   2.204   2.684   0.243 -0.5287  0.3231 -0.6153
 5025TIP3    H136710   2.128   2.637   0.209  0.1103 -0.6149 -0.7940
 5025TIP3    H236711   2.197   2.675   0.338 -0.5190  0.0406 -0.6410
 5026TIP3   OH236712   6.123   4.625   7.736 -0.5150  0.5620 -0.1439
 5026TIP3    H136713   6.090   4.714   7.729 -2.5903 -0.2330 -1.2203
 5026TIP3    H236714   6.153   4.603   7.648  1.8827  0.8095  0.5245
 5027TIP3   OH236715   0.579   5.310   7.951  0.2017  0.2798 -0.1367
 5027TIP3    H136716   0.550   5.338   7.864 -1.9899  1.5063  0.9188
 5027TIP3    H236717   0.550   5.219   7.958  0.5009  0.1364 -0.7261
 5028TIP3   OH236718   1.694   3.582   8.428  0.1927  0.2080  0.2383
 5028TIP3    H136719   1.766   3.536   8.385 -0.9484 -0.1966 -1.3581
 5028TIP3    H236720   1.682   3.661   8.375 -0.3244  0.4244  0.6743
 5029TIP3   OH236721   4.698   1.308   1.379 -0.2225  0.0134  0.4747
 5029TIP3    H136722   4.650   1.269   1.306  0.8882 -0.9275  0.2143
 5029TIP3    H236723   4.642   1.379   1.410 -0.2997  1.0943 -1.9423
 5030TIP3   OH236724   0.148   4.734   0.276  0.1878  0.5185  0.2173
 5030TIP3    H136725   0.096   4.655   0.267  0.3986  0.5084 -1.2329
 5030TIP3    H236726   0.153   4.769   0.187  0.4979  1.9041  0.7567
 5031TIP3   OH236727   6.462   1.824   7.906  0.0430 -0.5653  0.0994
 5031TIP3    H136728   6.486   1.742   7.950 -1.4788  0.2756  2.6866
 5031TIP3    H236729   6.370   1.812   7.883  0.0729  0.0831 -0.3721
 5032TIP3   OH236730   3.257   6.612   0.636 -0.2732 -0.5989  0.5365
 5032TIP3    H136731   3.304   6.625   0.718 -0.5853 -0.3742  0.6851
 5032TIP3    H236732   3.217   6.697   0.618  1.4307 -0.0351 -0.9071
 5033TIP3   OH236733   3.980   1.716   0.895 -0.4250 -0.0632  0.1241
 5033TIP3    H136734   3.948   1.666   0.820 -1.8014  1.1212 -0.1410
 5033TIP3    H236735   3.966   1.659   0.970  0.0748 -0.9004 -0.4022
 5034TIP3   OH236736   0.399   5.314   2.201 -0.1905 -0.0967  0.7158
 5034TIP3    H136737   0.337   5.242   2.214  0.5088 -0.5184  1.7767
 5034TIP3    H236738   0.365   5.384   2.257  0.2285 -0.2961  1.2254
 5035TIP3   OH236739   2.491   4.394   8.377 -0.4900 -0.0498  0.0260
 5035TIP3    H136740   2.525   4.306   8.365  2.7530  0.9389  0.9253
 5035TIP3    H236741   2.458   4.419   8.291 -1.0091 -1.9104 -0.3679
 5036TIP3   OH236742   5.559   5.651   8.168 -0.1332 -0.5719 -0.4223
 5036TIP3    H136743   5.530   5.639   8.078 -0.4457  0.2360 -0.4410
 5036TIP3    H236744   5.488   5.700   8.210  0.8289  0.7433 -0.2505
 5037TIP3   OH236745   3.897   3.449   0.832 -0.1406  0.5928  0.3278
 5037TIP3    H136746   3.993   3.450   0.838 -0.1049  2.4232  0.1135
 5037TIP3    H236747   3.878   3.386   0.763  0.9757  0.8299 -0.2243
 5038TIP3   OH236748   1.279   0.487   0.155 -0.3564  0.1853  0.0241
 5038TIP3    H136749   1.261   0.428   0.228 -1.6380 -1.6685 -1.6753
 5038TIP3    H236750   1.215   0.558   0.166  0.2852  0.5915  1.3373
 5039TIP3   OH236751   0.467   4.927   0.265  0.3039  0.1870 -0.3104
 5039TIP3    H136752   0.558   4.956   0.256  0.5669  0.0376  1.5277
 5039TIP3    H236753   0.454   4.866   0.192  0.8430  2.1273 -2.1426
 5040TIP3   OH236754   2.825   4.467   0.143  0.3386  0.2450  0.1094
 5040TIP3    H136755   2.873   4.537   0.188  0.8916  0.8529 -1.3590
 5040TIP3    H236756   2.894   4.412   0.106 -0.1033 -0.6094  0.5340
 5041TIP3   OH236757   2.885   1.691   7.721  0.2416  0.0742 -0.7462
 5041TIP3    H136758   2.860   1.629   7.653  0.8082 -0.8826 -0.1111
 5041TIP3    H236759   2.805   1.705   7.772 -0.3695  1.3485 -1.9969
 5042TIP3   OH236760   5.866   4.824   8.344  0.3528  0.2883 -0.3056
 5042TIP3    H136761   5.817   4.847   8.265  0.1652 -1.1306 -0.6273
 5042TIP3    H236762   5.918   4.748   8.319  0.6716  0.1251  0.8007
 5043TIP3   OH236763   1.320   1.683   0.790  0.2723 -0.2291  0.7247
 5043TIP3    H136764   1.375   1.760   0.806  0.6990 -0.2264 -0.7112
 5043TIP3    H236765   1.379   1.616   0.757 -0.2823 -0.8427  0.9402
 5044TIP3   OH236766   1.331   2.913   1.443 -0.1968  0.1119  0.7858
 5044TIP3    H136767   1.266   2.969   1.485 -1.1490 -0.5924  0.2763
 5044TIP3    H236768   1.313   2.922   1.349 -1.2044 -2.0025  0.7240
 5045TIP3   OH236769   1.838   6.705   2.180  0.6137  0.8736 -0.3980
 5045TIP3    H136770   1.883   6.757   2.114  1.1583  1.2575  0.2661
 5045TIP3    H236771   1.745   6.709   2.155  0.8006  1.1265 -1.0550
 5046TIP3   OH236772   5.428   6.769   1.706 -0.3287 -0.4525 -0.4892
 5046TIP3    H136773   5.452   6.740   1.794 -0.4007  0.0744 -0.2859
 5046TIP3    H236774   5.332   6.772   1.707 -0.5140 -3.3078 -1.5480
 5047TIP3   OH236775   5.151   2.216   7.549  0.2174 -0.4516 -0.4656
 5047TIP3    H136776   5.243   2.228   7.525  0.1553 -1.0310 -1.0220
 5047TIP3    H236777   5.102   2.246   7.472  0.0167 -2.3006 -1.1304
 5048TIP3   OH236778   2.639   2.843   7.252  0.3265  0.0852 -0.5727
 5048TIP3    H136779   2.666   2.801   7.334 -1.1692  1.4036  0.6736
 5048TIP3    H236780   2.720   2.877   7.214  1.1614 -1.3395 -0.1251
 5049TIP3   OH236781   4.490   4.875   2.234 -0.6140 -0.3200 -0.6640
 5049TIP3    H136782   4.463   4.784   2.246 -0.0624 -0.2806  1.1427
 5049TIP3    H236783   4.418   4.927   2.270 -1.0277 -0.0049 -1.8887
 5050TIP3   OH236784   0.324   0.470   7.333  0.2250 -0.2217 -0.2691
 5050TIP3    H136785   0.361   0.476   7.245  0.4204 -0.1822 -0.1859
 5050TIP3    H236786   0.274   0.550   7.344 -1.5759 -1.1783 -1.1410
 5051TIP3   OH236787   4.525   4.445   2.013 -0.2889  0.0871 -0.4279
 5051TIP3    H136788   4.478   4.483   1.939 -1.6049 -1.7374 -0.6065
 5051TIP3    H236789   4.603   4.405   1.974 -0.5074 -0.0677 -0.7120
 5052TIP3   OH236790   6.554   5.818   7.403  0.2677 -0.0459  0.4118
 5052TIP3    H136791   6.573   5.843   7.494 -0.7359  1.4258  0.2596
 5052TIP3    H236792   6.588   5.891   7.351 -0.0141 -0.4321 -0.3206
 5053TIP3   OH236793   5.820   4.827   0.002  0.4051 -0.2018  0.8805
 5053TIP3    H136794   5.815   4.840   0.097  0.4090  1.7693  0.6386
 5053TIP3    H236795   5.904   4.865  -0.023  0.0858 -0.0684 -0.0092
 5054TIP3   OH236796   1.339   6.680   7.086  0.5018 -0.4631  0.1251
 5054TIP3    H136797   1.287   6.664   7.007  0.5474  0.7150 -0.1688
 5054TIP3    H236798   1.275   6.686   7.157  0.2348  0.7221 -0.1946
 5055TIP3   OH236799   3.162   0.270   8.834 -0.1358  0.4025  0.2678
 5055TIP3    H136800   3.073   0.286   8.802 -0.1439  0.0284  0.0941
 5055TIP3    H236801   3.175   0.176   8.821  1.0149  0.7788 -1.5358
 5056TIP3   OH236802   0.708   4.756   1.774  0.6927 -0.2185  0.7261
 5056TIP3    H136803   0.682   4.781   1.863  1.2174 -1.9756  1.4124
 5056TIP3    H236804   0.728   4.839   1.731 -1.7452  0.8825  1.5124
 5057TIP3   OH236805   1.442   6.142   0.653 -0.2834 -0.0816 -0.3427
 5057TIP3    H136806   1.464   6.079   0.722  0.2828  0.6607  0.1689
 5057TIP3    H236807   1.448   6.227   0.695 -2.9136  0.2755 -0.5080
 5058TIP3   OH236808   6.741   5.190   0.604  0.6625 -0.0893  0.1378
 5058TIP3    H136809   6.817   5.223   0.652  1.5963 -0.1881 -1.2181
 5058TIP3    H236810   6.757   5.216   0.514 -1.7648  1.3745  0.0597
 5059TIP3   OH236811   3.027   0.549   0.260 -0.4615  0.0380 -0.2176
 5059TIP3    H136812   2.965   0.621   0.272 -0.0071  0.3941  0.0632
 5059TIP3    H236813   3.106   0.591   0.225 -0.5059 -0.4654 -0.9441
 5060TIP3   OH236814   3.783   5.248   8.511 -0.2356  0.1906 -0.1780
 5060TIP3    H136815   3.831   5.306   8.451 -0.8485  0.4857 -0.3918
 5060TIP3    H236816   3.848   5.221   8.575 -0.5571  3.5457  1.7661
 5061TIP3   OH236817   5.558   0.834   8.302 -0.1363 -0.3819  0.0680
 5061TIP3    H136818   5.559   0.807   8.210  1.7292 -1.1484  0.2645
 5061TIP3    H236819   5.526   0.757   8.348  0.2847 -0.4921  0.1783
 5062TIP3   OH236820   4.623   6.191   8.518  0.1878 -0.1794 -0.6538
 5062TIP3    H136821   4.714   6.174   8.496  0.9987  0.4264  1.8954
 5062TIP3    H236822   4.611   6.284   8.498  0.5453  0.0581  0.1776
 5063TIP3   OH236823   4.177   4.197   6.510 -0.5810  0.1766  0.0695
 5063TIP3    H136824   4.211   4.214   6.598 -0.0276 -0.5009 -0.0074
 5063TIP3    H236825   4.212   4.268   6.456  0.4619 -0.3230  0.0595
 5064TIP3   OH236826   3.744   6.784   7.344  0.5776 -0.1950  0.3700
 5064TIP3    H136827   3.688   6.806   7.418  1.4426 -0.3387  1.0789
 5064TIP3    H236828   3.804   6.859   7.336  0.3823 -0.1010 -0.2985
 5065TIP3   OH236829   2.716   5.329   8.361 -0.0524  0.6532  0.1225
 5065TIP3    H136830   2.671   5.264   8.307  0.7388  0.4963 -0.3505
 5065TIP3    H236831   2.646   5.367   8.415 -0.9755  1.2375 -1.4259
 5066TIP3   OH236832   0.624   1.789   0.697 -0.1074  0.9208  0.4336
 5066TIP3    H136833   0.635   1.699   0.727 -0.3550  0.2821 -1.3123
 5066TIP3    H236834   0.553   1.785   0.633  0.5700  2.1699 -0.4410
 5067TIP3   OH236835   3.976   1.882   1.149  0.3970 -0.1458  0.5974
 5067TIP3    H136836   3.920   1.923   1.083 -0.6310 -0.0314  1.5148
 5067TIP3    H236837   3.974   1.789   1.128 -0.1263 -0.1388  0.6170
 5068TIP3   OH236838   3.219   5.136   8.460  0.4368 -0.0520 -0.0438
 5068TIP3    H136839   3.215   5.231   8.461  3.5457  0.2063 -1.0767
 5068TIP3    H236840   3.306   5.115   8.493 -0.6145 -2.6553  1.3891
 5069TIP3   OH236841   0.686   0.542   0.191  0.3717 -0.0599  0.0879
 5069TIP3    H136842   0.765   0.558   0.140 -0.0010  1.1773 -0.1321
 5069TIP3    H236843   0.641   0.472   0.143  0.6725  0.1713 -0.5443
 5070TIP3   OH236844   2.536   1.342   7.232 -0.1786 -0.2017 -0.0603
 5070TIP3    H136845   2.472   1.313   7.167 -2.3143  1.6393  1.0896
 5070TIP3    H236846   2.519   1.287   7.309  0.1981 -0.2633 -0.0191
 5071TIP3   OH236847   2.244   6.471   2.260 -0.3692 -0.3616 -0.3120
 5071TIP3    H136848   2.316   6.517   2.303 -0.0259 -0.6411 -0.5796
 5071TIP3    H236849   2.184   6.541   2.233 -1.7191 -0.2699  2.5329
 5072TIP3   OH236850   5.590   3.163   6.778 -0.0960 -0.3590  0.4658
 5072TIP3    H136851   5.659   3.229   6.782 -0.5853  0.1633  0.3678
 5072TIP3    H236852   5.516   3.208   6.736  0.0166 -1.3618 -0.8828
 5073TIP3   OH236853   5.162   5.614   7.909 -0.2148  0.1107  0.1357
 5073TIP3    H136854   5.148   5.570   7.825  0.2726 -0.2032  0.2134
 5073TIP3    H236855   5.258   5.619   7.918 -0.2511  1.2058  0.1211
 5074TIP3   OH236856   4.589   2.876   8.276 -0.0805 -0.7526 -0.4416
 5074TIP3    H136857   4.674   2.840   8.301  0.6793  0.3582 -1.2962
 5074TIP3    H236858   4.546   2.898   8.358  1.8438  1.7184 -0.0092
 5075TIP3   OH236859   1.737   4.787   2.863  0.0761 -0.5153  0.0218
 5075TIP3    H136860   1.733   4.876   2.897 -1.2755  0.1844 -1.8281
 5075TIP3    H236861   1.667   4.782   2.798 -0.0605 -3.0185  0.2456
 5076TIP3   OH236862   5.093   0.505   1.281  0.2046  0.1652  0.0763
 5076TIP3    H136863   5.094   0.464   1.194 -2.1665 -2.4390  1.1278
 5076TIP3    H236864   5.153   0.452   1.333 -0.2263  0.2013  0.6158
 5077TIP3   OH236865   6.060   6.734   0.136 -0.1349  0.0707 -0.3150
 5077TIP3    H136866   6.126   6.803   0.133 -0.9407  0.9300  0.7126
 5077TIP3    H236867   5.977   6.780   0.125 -0.7794 -0.5435  1.5913
 5078TIP3   OH236868   2.324   2.929   1.037  0.1741  0.4430  0.3074
 5078TIP3    H136869   2.303   2.953   1.127 -3.4779  1.3982 -0.6087
 5078TIP3    H236870   2.353   3.010   0.996  1.0702  0.1883  0.4365
 5079TIP3   OH236871   2.869   2.991   7.225  0.3568  0.3811 -0.0259
 5079TIP3    H136872   2.915   3.024   7.148  1.9403  0.4444  0.9167
 5079TIP3    H236873   2.837   3.070   7.270 -3.5906  0.3426 -2.2458
 5080TIP3   OH236874   4.521   6.082   1.142  0.3864  0.4368  0.3477
 5080TIP3    H136875   4.534   6.091   1.048 -0.3176  0.1241  0.2120
 5080TIP3    H236876   4.523   6.172   1.176  0.2560  0.5766 -0.0184
 5081TIP3   OH236877   1.202   5.128   0.959  0.1401  0.0716 -0.0620
 5081TIP3    H136878   1.294   5.145   0.936  0.1135 -0.4362 -0.5591
 5081TIP3    H236879   1.159   5.111   0.876 -0.0490 -1.3643  0.3126
 5082TIP3   OH236880   3.144   2.824   1.010  0.2722 -0.2268  0.0616
 5082TIP3    H136881   3.151   2.729   1.010  0.4904 -0.2348 -1.2997
 5082TIP3    H236882   3.139   2.848   0.917  1.0910  1.1522  0.3402
 5083TIP3   OH236883   0.381   1.557   1.300 -0.6607  0.3890  0.1961
 5083TIP3    H136884   0.461   1.536   1.251 -1.7786 -0.7582 -1.2554
 5083TIP3    H236885   0.400   1.640   1.343  1.2426  0.2301 -0.2587
 5084TIP3   OH236886   3.031   1.577   8.628  0.2593 -0.0243 -0.4985
 5084TIP3    H136887   3.062   1.495   8.666 -0.7742  1.3802  3.8946
 5084TIP3    H236888   2.937   1.575   8.641  0.2714  2.0419  0.0937
 5085TIP3   OH236889   4.038   5.335   0.899 -0.1133  0.0375  0.4179
 5085TIP3    H136890   4.099   5.405   0.874  0.9851 -0.6238  1.1271
 5085TIP3    H236891   3.961   5.349   0.844  0.7310  0.8240 -0.6090
 5086TIP3   OH236892   2.285   0.354   8.765  0.1049 -0.4005  0.3350
 5086TIP3    H136893   2.335   0.428   8.800 -0.4964 -0.4550  1.3710
 5086TIP3    H236894   2.284   0.367   8.671 -0.4783  1.2315  0.5432
 5087TIP3   OH236895   3.461   0.158   7.589  0.3774  0.5227 -0.1969
 5087TIP3    H136896   3.382   0.104   7.581  1.3484 -0.9366 -0.2883
 5087TIP3    H236897   3.434   0.245   7.558 -1.6133  0.5120  1.2948
 5088TIP3   OH236898   1.060   6.549   8.354 -0.5419  0.4025 -0.0958
 5088TIP3    H136899   1.154   6.534   8.359 -0.5246  0.8661  2.0084
 5088TIP3    H236900   1.021   6.462   8.357 -0.1947  0.2668  0.6484
 5089TIP3   OH236901   6.473   5.431   7.086  0.0223 -0.2802 -0.4212
 5089TIP3    H136902   6.442   5.348   7.121  2.7998 -1.2315  0.0080
 5089TIP3    H236903   6.462   5.493   7.157 -0.1171 -0.7863  0.0050
 5090TIP3   OH236904   2.077   2.308   8.115 -1.0645  0.2656 -0.1898
 5090TIP3    H136905   2.048   2.360   8.040  0.0104  0.7309 -0.3010
 5090TIP3    H236906   2.036   2.222   8.103  0.4864 -0.2635 -2.3123
 5091TIP3   OH236907   5.072   0.829   0.414  0.8147  0.3723 -0.1144
 5091TIP3    H136908   5.158   0.865   0.393  0.4161  0.7989 -1.0440
 5091TIP3    H236909   5.028   0.818   0.330 -0.3105  0.8351  0.3782
 5092TIP3   OH236910   6.631   0.171   0.782  0.1295 -0.6141  0.0398
 5092TIP3    H136911   6.682   0.247   0.810  2.5742 -1.8845 -0.6684
 5092TIP3    H236912   6.637   0.172   0.686 -1.1382 -0.8524 -0.0565
 5093TIP3   OH236913   2.554   3.534   8.646 -0.0378  0.0487  0.1675
 5093TIP3    H136914   2.534   3.468   8.713  0.0496  0.8749  1.0428
 5093TIP3    H236915   2.491   3.604   8.662 -0.1493  0.1673 -0.7646
 5094TIP3   OH236916   4.876   3.913   2.001 -0.5078 -0.6653  1.3704
 5094TIP3    H136917   4.809   3.948   1.943 -0.0859  0.1548  1.3648
 5094TIP3    H236918   4.833   3.841   2.047 -1.3916 -0.1331  1.3935
 5095TIP3   OH236919   1.250   3.197   0.297  0.0950  0.3276  0.2539
 5095TIP3    H136920   1.229   3.282   0.259  0.0864  1.3852  2.4701
 5095TIP3    H236921   1.171   3.171   0.344  0.5049 -0.3154  0.6052
 5096TIP3   OH236922   6.344   1.638   2.425  0.6968  0.2787 -0.1277
 5096TIP3    H136923   6.287   1.584   2.480  0.9660  0.8050  0.6851
 5096TIP3    H236924   6.323   1.728   2.450 -0.2315  0.6009 -1.9473
 5097TIP3   OH236925   5.902   3.730   1.908  0.5455 -0.0180 -0.8041
 5097TIP3    H136926   5.967   3.673   1.948 -0.0578  1.0449  1.9277
 5097TIP3    H236927   5.934   3.744   1.819  1.9857 -2.5714 -0.7807
 5098TIP3   OH236928   5.712   0.306   7.340 -0.4237  0.0919 -0.2047
 5098TIP3    H136929   5.656   0.384   7.343  1.3503  1.3998  0.0259
 5098TIP3    H236930   5.691   0.265   7.256 -2.2036  0.1388  0.1617
 5099TIP3   OH236931   2.027   6.029   2.111 -0.0760  0.2413 -0.1039
 5099TIP3    H136932   1.952   5.976   2.141 -0.8155  1.0649 -0.4516
 5099TIP3    H236933   2.033   6.100   2.175 -0.8949  1.3210 -1.1737
 5100TIP3   OH236934   2.430   0.948   1.397  0.5959  0.1918  0.0200
 5100TIP3    H136935   2.342   0.983   1.410  1.0637  1.0892  0.9846
 5100TIP3    H236936   2.423   0.891   1.321 -0.2777  2.2598 -1.5420
 5101TIP3   OH236937   6.064   6.507   6.938  0.4569 -0.1505  0.6336
 5101TIP3    H136938   6.152   6.474   6.918  0.4193 -0.3636  0.8221
 5101TIP3    H236939   6.066   6.599   6.910  0.5472 -0.3191  0.0653
 5102TIP3   OH236940   0.289   5.899   8.270  0.2681  0.0301  0.2940
 5102TIP3    H136941   0.309   5.912   8.177  1.0104 -0.6698  0.3502
 5102TIP3    H236942   0.233   5.821   8.271 -2.4468  1.8304  0.1545
 5103TIP3   OH236943   4.202   5.062   7.621  0.1786  0.1023 -0.6338
 5103TIP3    H136944   4.115   5.022   7.621  0.6275 -0.9017 -1.3333
 5103TIP3    H236945   4.200   5.123   7.695 -1.3585  0.6393 -1.0847
 5104TIP3   OH236946   3.666   2.687   8.815  0.1568 -0.4693  0.6581
 5104TIP3    H136947   3.732   2.721   8.754 -0.1091  1.3160  1.3033
 5104TIP3    H236948   3.605   2.638   8.760  0.9842 -0.5359 -0.2204
 5105TIP3   OH236949   1.323   3.027   7.745  0.1628  0.4856  0.1706
 5105TIP3    H136950   1.254   3.078   7.704  0.0891 -1.0113 -1.7072
 5105TIP3    H236951   1.397   3.087   7.752  0.2739  0.7543 -2.5227
 5106TIP3   OH236952   1.539   0.645   1.415  0.4768 -0.1865  0.2896
 5106TIP3    H136953   1.610   0.704   1.389 -1.0920  2.6659  1.8633
 5106TIP3    H236954   1.536   0.652   1.510 -0.5897 -1.9122  0.4222
 5107TIP3   OH236955   3.319   1.925   6.592 -0.2123 -0.3792  0.3998
 5107TIP3    H136956   3.269   1.985   6.647 -1.5425  0.3743 -1.5706
 5107TIP3    H236957   3.390   1.978   6.557 -1.5346  0.1768 -1.5451
 5108TIP3   OH236958   0.179   5.932   0.344 -0.1087  0.2569  0.3972
 5108TIP3    H136959   0.114   6.003   0.343 -0.8604 -0.4180 -0.0703
 5108TIP3    H236960   0.263   5.977   0.350 -0.6079  1.1586  0.9334
 5109TIP3   OH236961   2.395   3.023   8.841 -0.1423 -0.2141 -0.2205
 5109TIP3    H136962   2.427   2.950   8.789  0.7070 -0.6828  0.9230
 5109TIP3    H236963   2.317   2.989   8.885  0.7751 -0.7598  1.0322
 5110TIP3   OH236964   4.607   5.718   1.853  0.0684  0.5116  0.0240
 5110TIP3    H136965   4.670   5.650   1.877 -2.3997 -1.7474  0.4315
 5110TIP3    H236966   4.594   5.768   1.934  0.5411  0.3758  0.1898
 5111TIP3   OH236967   0.519   0.704   7.565 -0.0845  0.1566 -0.2766
 5111TIP3    H136968   0.476   0.705   7.651  2.6115  2.2275  1.2099
 5111TIP3    H236969   0.487   0.783   7.521  0.1653  0.2565 -0.2800
 5112TIP3   OH236970   5.349   2.569   7.994 -0.0366 -0.1298  0.5749
 5112TIP3    H136971   5.422   2.591   8.051  0.7803  0.1883 -0.5619
 5112TIP3    H236972   5.371   2.483   7.958  0.8788  0.8741 -1.4225
 5113TIP3   OH236973   4.930   2.113   8.666 -0.0557  0.1269  0.1363
 5113TIP3    H136974   4.937   2.208   8.680 -1.4815  0.4436 -1.1005
 5113TIP3    H236975   4.855   2.086   8.719  0.6351 -0.4242  0.8656
 5114TIP3   OH236976   5.597   3.503   0.559  0.1478 -0.6081  0.1332
 5114TIP3    H136977   5.669   3.453   0.597 -0.1453 -1.4236 -0.3526
 5114TIP3    H236978   5.621   3.513   0.466  0.0226 -0.1725  0.1446
 5115TIP3   OH236979   4.360   2.201   0.777 -0.3399  0.0323 -0.0434
 5115TIP3    H136980   4.327   2.117   0.744 -2.1430  0.2301  1.0870
 5115TIP3    H236981   4.402   2.179   0.860  2.6917 -0.2317 -1.5249
 5116TIP3   OH236982   2.956   1.203   8.890 -0.0286  0.3792 -0.5800
 5116TIP3    H136983   3.019   1.268   8.858  1.1153 -0.8606 -0.9605
 5116TIP3    H236984   2.872   1.250   8.893  0.0765  1.0515 -3.9702
 5117TIP3   OH236985   2.684   2.076   8.649 -0.0652 -0.1294  0.0236
 5117TIP3    H136986   2.642   2.100   8.731  0.7638  0.4238  0.3041
 5117TIP3    H236987   2.709   2.160   8.609 -1.6116 -0.3157 -1.4416
 5118TIP3   OH236988   5.111   3.473   6.748  0.5359 -0.5840 -0.3142
 5118TIP3    H136989   5.051   3.529   6.796  2.9761  1.6244  0.4092
 5118TIP3    H236990   5.060   3.395   6.727 -1.7369 -0.0502  2.5913
 5119TIP3   OH236991   0.218   1.113   1.299 -0.0229 -0.0954 -0.8485
 5119TIP3    H136992   0.228   1.112   1.204 -0.3317 -0.9772 -0.8808
 5119TIP3    H236993   0.208   1.205   1.321  2.3826  0.3719 -1.4271
 5120TIP3   OH236994   0.430   4.451   7.188 -0.2491  0.8368  0.2292
 5120TIP3    H136995   0.494   4.435   7.258  1.4931  0.1707 -1.4290
 5120TIP3    H236996   0.376   4.372   7.187 -0.4594  0.9626  0.9742
 5121TIP3   OH236997   5.407   5.063   0.365  0.4195  0.9549 -0.2735
 5121TIP3    H136998   5.393   5.040   0.273 -0.4877 -0.0079  0.1002
 5121TIP3    H236999   5.319   5.077   0.400  0.5249 -1.3991  1.1329
 5122TIP3   OH237000   0.136   1.668   0.600 -0.3395 -0.7179 -0.7659
 5122TIP3    H137001   0.112   1.578   0.579 -1.5258  0.2198 -4.2828
 5122TIP3    H237002   0.053   1.713   0.616  0.1795 -0.0841  0.2828
 5123TIP3   OH237003   6.695   1.285   7.726  0.0393 -0.3511 -0.6981
 5123TIP3    H137004   6.612   1.253   7.761 -0.1888  1.4522  0.5413
 5123TIP3    H237005   6.760   1.259   7.792  0.0856  0.3666 -0.4613
 5124TIP3   OH237006   3.073   1.922   7.994 -0.0138 -0.0394 -0.0259
 5124TIP3    H137007   3.003   1.982   7.967 -0.5689 -0.3004  0.8019
 5124TIP3    H237008   3.136   1.926   7.922  0.6988  2.6504  0.6085
 5125TIP3   OH237009   6.434   4.508   0.240  0.4122  0.3120  0.0440
 5125TIP3    H137010   6.399   4.542   0.322 -0.2471  0.3176 -0.2281
 5125TIP3    H237011   6.393   4.422   0.230 -0.7247  0.9485 -1.0243
 5126TIP3   OH237012   4.089   0.047   8.158  0.2253  0.2601  0.0355
 5126TIP3    H137013   4.161   0.049   8.095 -0.1216 -2.6293 -0.6166
 5126TIP3    H237014   4.026   0.111   8.125  1.1089  0.5192 -1.2221
 5127TIP3   OH237015   1.278   2.794   8.115  0.1222 -0.1729 -0.0370
 5127TIP3    H137016   1.340   2.808   8.043 -0.3715 -1.6642 -0.7849
 5127TIP3    H237017   1.211   2.737   8.078  1.4067 -3.5480  2.3998
 5128TIP3   OH237018   0.446   6.666   7.439  0.0196  0.3614 -0.3069
 5128TIP3    H137019   0.381   6.700   7.501  0.0261  0.2375 -0.2329
 5128TIP3    H237020   0.394   6.628   7.368 -0.0050  1.7840 -1.0916
 5129TIP3   OH237021   5.669   3.394   8.402  0.0904  0.0991 -0.6241
 5129TIP3    H137022   5.727   3.329   8.443  0.8575 -0.6354 -2.7481
 5129TIP3    H237023   5.729   3.459   8.365 -0.3428 -0.7813 -3.0317
 5130TIP3   OH237024   4.723   2.618   0.998 -0.0961 -0.3068 -0.2581
 5130TIP3    H137025   4.771   2.565   1.061  1.5070  1.2510 -0.0772
 5130TIP3    H237026   4.646   2.648   1.046 -0.5559 -1.6727 -0.0864
 5131TIP3   OH237027   4.519   0.655   8.580  0.2327  0.0680 -0.2748
 5131TIP3    H137028   4.459   0.728   8.598 -0.0951  0.3728 -2.3498
 5131TIP3    H237029   4.603   0.698   8.563 -0.0902  0.0630 -2.0670
 5132TIP3   OH237030   5.874   0.879   7.680 -0.0813 -0.0459 -0.1049
 5132TIP3    H137031   5.805   0.824   7.718 -0.9161  1.8910  1.3665
 5132TIP3    H237032   5.950   0.864   7.736  0.1063 -0.7260 -0.5411
 5133TIP3   OH237033   0.548   2.452   2.171 -0.5562 -0.2105 -0.0595
 5133TIP3    H137034   0.550   2.455   2.266  0.6845 -2.1372  0.0391
 5133TIP3    H237035   0.455   2.453   2.148 -0.8711 -0.1262  1.1786
 5134TIP3   OH237036   2.714   1.423   1.771 -0.1439  0.0350 -0.7678
 5134TIP3    H137037   2.713   1.386   1.859 -0.7529 -3.2215 -2.0016
 5134TIP3    H237038   2.688   1.350   1.714  1.7492  1.5373 -3.8124
 5135TIP3   OH237039   2.351   3.996   7.452  0.5376 -0.1582  0.6946
 5135TIP3    H137040   2.418   4.045   7.405 -0.1078  1.6123  1.5392
 5135TIP3    H237041   2.269   4.019   7.407  0.1778 -0.1557  1.3442
 5136TIP3   OH237042   3.352   2.649   8.814  0.1591  0.1985 -0.4670
 5136TIP3    H137043   3.421   2.657   8.748 -0.3086  0.9724 -0.8726
 5136TIP3    H237044   3.270   2.651   8.764 -0.1872 -3.5524 -0.3201
 5137TIP3   OH237045   0.621   2.822   0.603  0.3628  0.5030 -0.4034
 5137TIP3    H137046   0.586   2.861   0.684  0.5043  0.8711 -0.5186
 5137TIP3    H237047   0.569   2.743   0.591 -0.2528  0.8973 -0.4140
 5138TIP3   OH237048   1.995   4.869   1.138 -0.1805 -0.4772  0.1941
 5138TIP3    H137049   1.959   4.957   1.127 -0.5460 -0.5718  0.6044
 5138TIP3    H237050   2.033   4.847   1.053 -1.4636 -0.5439 -0.3755
 5139TIP3   OH237051   4.505   0.331   7.217  0.3925  0.2227 -0.7474
 5139TIP3    H137052   4.594   0.356   7.192  0.2856 -0.8082 -2.3358
 5139TIP3    H237053   4.473   0.280   7.142 -1.1872 -0.2482  0.2036
 5140TIP3   OH237054   3.708   2.216   1.599  0.0562 -0.0122 -0.2513
 5140TIP3    H137055   3.664   2.226   1.683 -0.8005 -0.2328 -0.6718
 5140TIP3    H237056   3.648   2.164   1.545  0.5508  0.2015 -1.0324
 5141TIP3   OH237057   6.517   2.813   6.839  0.0605  0.0033  0.0223
 5141TIP3    H137058   6.432   2.820   6.797  0.1749  1.6536  0.0276
 5141TIP3    H237059   6.571   2.764   6.777 -0.7562 -0.6774 -0.1628
 5142TIP3   OH237060   2.392   2.983   7.918  0.1925 -0.2615 -0.2364
 5142TIP3    H137061   2.327   2.974   7.848 -0.4807  1.1635  0.1561
 5142TIP3    H237062   2.431   3.069   7.903  0.3653 -0.1319  0.8607
 5143TIP3   OH237063   5.317   6.622   7.285  0.3172  0.4716 -0.1688
 5143TIP3    H137064   5.354   6.661   7.207 -0.3393  1.0428 -0.2068
 5143TIP3    H237065   5.298   6.531   7.260  1.6598  0.1641 -0.1402
 5144TIP3   OH237066   3.214   6.672   2.257 -0.1650  0.2765 -0.2939
 5144TIP3    H137067   3.253   6.717   2.332 -0.4004  1.0852 -0.6543
 5144TIP3    H237068   3.201   6.582   2.288  0.0193  0.5248  0.5322
 5145TIP3   OH237069   5.287   3.110   1.405  0.1671 -0.5485  0.0269
 5145TIP3    H137070   5.312   3.153   1.487 -1.3992  1.8219 -0.6226
 5145TIP3    H237071   5.366   3.112   1.351  0.4839  0.4192  0.5024
 5146TIP3   OH237072   0.417   0.031   0.056 -0.0931 -0.1332  0.2996
 5146TIP3    H137073   0.512   0.028   0.070 -0.2682 -1.1430  1.4668
 5146TIP3    H237074   0.394   0.123   0.070  0.6023 -0.0393  0.8788
 5147TIP3   OH237075   1.735   0.908   1.750 -0.1373  0.6582  0.3080
 5147TIP3    H137076   1.702   0.881   1.835 -1.0998 -0.8636 -0.4972
 5147TIP3    H237077   1.684   0.857   1.687  3.4785 -1.6860 -1.0715
 5148TIP3   OH237078   3.795   3.723   6.969 -0.6473 -0.5171 -0.0396
 5148TIP3    H137079   3.868   3.678   6.927  0.9044  1.4323  0.4366
 5148TIP3    H237080   3.768   3.664   7.040  0.9749 -0.9553  0.2532
 5149TIP3   OH237081   6.236   2.748   1.063 -0.1338  0.2863 -0.4999
 5149TIP3    H137082   6.180   2.736   1.139  0.1046 -1.3468 -0.5580
 5149TIP3    H237083   6.279   2.832   1.078  1.0823 -0.6888  1.9423
 5150TIP3   OH237084   6.602   5.757   0.509 -0.0407 -0.4700  0.5083
 5150TIP3    H137085   6.588   5.851   0.511 -1.0139 -0.5202 -1.4445
 5150TIP3    H237086   6.547   5.723   0.580  1.3933  0.4894  2.1441
 5151TIP3   OH237087   2.096   1.411   1.466 -0.5783 -0.2371  0.7989
 5151TIP3    H137088   2.106   1.428   1.372  0.7045 -1.2767  0.7170
 5151TIP3    H237089   2.013   1.364   1.473 -1.4097  1.1145  0.3837
 5152TIP3   OH237090   1.448   2.671   8.347 -0.5369 -0.0783  0.0137
 5152TIP3    H137091   1.434   2.660   8.252 -0.4068 -1.5109  0.1433
 5152TIP3    H237092   1.503   2.597   8.372  1.2051  1.4290  0.8630
 5153TIP3   OH237093   4.555   5.157   6.929 -0.2619 -0.3785  0.3186
 5153TIP3    H137094   4.505   5.088   6.886  0.0063 -1.1939  1.2669
 5153TIP3    H237095   4.541   5.235   6.875  0.5673 -1.4835 -1.5750
 5154TIP3   OH237096   5.418   4.508   8.067  0.3054 -0.4547 -0.0498
 5154TIP3    H137097   5.401   4.599   8.047  1.7490 -0.5554 -2.0008
 5154TIP3    H237098   5.468   4.510   8.149  0.6108  0.5280 -0.2519
 5155TIP3   OH237099   2.295   1.541   0.818 -0.0163 -0.2781  0.1814
 5155TIP3    H137100   2.217   1.597   0.820 -0.9715 -1.3421 -2.5233
 5155TIP3    H237101   2.261   1.452   0.820  0.9866 -0.7762 -2.0262
 5156TIP3   OH237102   4.907   0.163   2.372  0.7640  0.1662  0.3153
 5156TIP3    H137103   4.825   0.115   2.376  1.1883 -0.5552  4.1008
 5156TIP3    H237104   4.893   0.231   2.306 -2.9204  0.1549  0.9136
 5157TIP3   OH237105   6.500   6.487   7.203 -0.3534 -0.2940  0.4750
 5157TIP3    H137106   6.443   6.437   7.144 -1.4128 -0.7946  1.8480
 5157TIP3    H237107   6.589   6.469   7.172 -0.8789  0.2720 -1.5505
 5158TIP3   OH237108   5.997   0.169   6.768  0.3762 -0.4767  0.0328
 5158TIP3    H137109   6.035   0.084   6.789 -1.3276 -0.9203  1.6098
 5158TIP3    H237110   6.029   0.227   6.837 -0.3010 -0.4118  0.2996
 5159TIP3   OH237111   2.382   6.228   0.114  0.2290  0.6374  0.1549
 5159TIP3    H137112   2.319   6.294   0.145 -1.4142 -1.2185  0.9767
 5159TIP3    H237113   2.339   6.187   0.039  0.7733 -0.1457  0.2576
 5160TIP3   OH237114   6.244   5.259   8.867 -0.2434 -0.1354  0.2143
 5160TIP3    H137115   6.151   5.278   8.881 -0.0974 -0.4642  1.8123
 5160TIP3    H237116   6.281   5.343   8.838 -1.1933 -0.2475 -1.4712
 5161TIP3   OH237117   0.184   6.765   0.499  0.1088 -0.4010 -0.3958
 5161TIP3    H137118   0.098   6.737   0.469  0.0611 -1.7044  0.8354
 5161TIP3    H237119   0.243   6.748   0.425 -0.8382  1.5929 -1.6665
 5162TIP3   OH237120   3.182   3.566   2.203  0.4740  0.2167 -0.0909
 5162TIP3    H137121   3.162   3.475   2.222 -2.1295  0.4384 -1.3672
 5162TIP3    H237122   3.245   3.563   2.132 -0.5082 -0.6331 -0.9613
 5163TIP3   OH237123   4.752   5.767   8.158 -0.1251 -0.3911  0.1347
 5163TIP3    H137124   4.684   5.702   8.175 -0.6278  0.4634  1.5780
 5163TIP3    H237125   4.833   5.717   8.157 -0.6610 -1.2580 -0.3820
 5164TIP3   OH237126   3.015   4.278   2.099  0.3715 -0.3515 -0.8000
 5164TIP3    H137127   3.101   4.264   2.059  0.2850 -1.8087 -0.5470
 5164TIP3    H237128   2.960   4.209   2.060 -0.6704  0.5309 -0.9237
 5165TIP3   OH237129   2.843   1.481   8.865  0.8346  0.0098 -0.4605
 5165TIP3    H137130   2.802   1.493   8.950 -0.3343  0.1243 -1.0202
 5165TIP3    H237131   2.771   1.457   8.806  1.6840 -0.5303 -1.3221
 5166TIP3   OH237132   5.357   3.378   7.395  0.0896 -0.1462 -0.2217
 5166TIP3    H137133   5.342   3.291   7.359  1.8772  0.0868 -1.6844
 5166TIP3    H237134   5.285   3.431   7.360  0.1807 -0.5763 -1.0834
 5167TIP3   OH237135   1.932   5.512   2.506 -0.2224 -0.2127  0.0745
 5167TIP3    H137136   1.906   5.462   2.428 -0.6460  2.4246 -1.6115
 5167TIP3    H237137   1.991   5.579   2.472 -0.7418  1.2884  1.9746
 5168TIP3   OH237138   6.089   6.338   7.174 -0.1377 -0.0105 -0.3741
 5168TIP3    H137139   6.169   6.309   7.130  0.7814  0.0404  1.1976
 5168TIP3    H237140   6.024   6.342   7.104  1.2018 -0.1135 -1.6855
 5169TIP3   OH237141   3.362   0.471   8.470  0.1661  0.6606  0.1631
 5169TIP3    H137142   3.420   0.434   8.536  0.1337  1.0927  0.4412
 5169TIP3    H237143   3.372   0.566   8.480 -2.1469  0.8046  1.6140
 5170TIP3   OH237144   1.002   3.187   1.836  0.2251  0.9007  0.0990
 5170TIP3    H137145   1.007   3.277   1.806  0.0215  1.6827  2.2844
 5170TIP3    H237146   1.049   3.186   1.919 -1.0439 -0.6652  0.8605
 5171TIP3   OH237147   5.087   2.490   7.896 -0.0462 -0.2875  0.3069
 5171TIP3    H137148   5.183   2.499   7.900  0.2525 -2.9438  0.8167
 5171TIP3    H237149   5.063   2.536   7.816  1.4646  1.6507  0.8907
 5172TIP3   OH237150   1.072   6.055   7.152 -0.4900  0.3704  0.1078
 5172TIP3    H137151   1.003   6.117   7.129 -0.2993  0.0625 -1.4233
 5172TIP3    H237152   1.091   6.072   7.244 -0.7924  2.2385 -0.1361
 5173TIP3   OH237153   5.796   5.392   2.680 -0.0927 -0.4831  0.6731
 5173TIP3    H137154   5.823   5.300   2.684 -1.1371 -0.9464 -1.6587
 5173TIP3    H237155   5.712   5.394   2.726  0.8516 -0.2478  2.4829
 5174TIP3   OH237156   0.611   0.968   1.475  0.4043 -0.4854  0.1239
 5174TIP3    H137157   0.642   0.914   1.403  0.4855 -1.3938  0.8289
 5174TIP3    H237158   0.670   0.949   1.548  0.3205  0.4109  0.4422
 5175TIP3   OH237159   3.746   6.786   1.212 -0.3291 -0.1531 -0.5336
 5175TIP3    H137160   3.654   6.814   1.215 -0.4222 -0.4723 -0.3848
 5175TIP3    H237161   3.742   6.694   1.188  0.0201  0.2258 -2.1677
 5176TIP3   OH237162   4.251   3.024   7.480  0.2567 -0.2808 -0.4566
 5176TIP3    H137163   4.220   3.057   7.396 -0.3166  1.0301  0.2446
 5176TIP3    H237164   4.253   2.929   7.469 -2.2667 -0.3314 -1.1447
 5177TIP3   OH237165   0.801   4.843   2.073  0.2899  0.2548 -0.8244
 5177TIP3    H137166   0.870   4.840   2.007  1.7485  0.4486  0.6212
 5177TIP3    H237167   0.787   4.751   2.097 -0.6004  0.1382 -1.7172
 5178TIP3   OH237168   4.067   6.143   0.744  0.0069 -0.1495  0.2544
 5178TIP3    H137169   4.067   6.054   0.708 -1.7012 -0.8412  1.7814
 5178TIP3    H237170   4.015   6.194   0.683  1.5111  0.0035 -0.9624
 5179TIP3   OH237171   2.565   1.369   0.743 -0.3508  0.2180 -0.1267
 5179TIP3    H137172   2.480   1.373   0.788  0.0526  2.3962  0.5603
 5179TIP3    H237173   2.625   1.337   0.810 -0.5394 -0.8866 -0.4783
 5180TIP3   OH237174   0.642   3.306   8.367  0.4778 -0.0872 -0.6366
 5180TIP3    H137175   0.655   3.396   8.395  0.9456  0.2984 -1.9961
 5180TIP3    H237176   0.581   3.269   8.431 -2.4371  2.1680 -1.8751
 5181TIP3   OH237177   5.006   6.449   1.559 -0.6085 -0.3392  0.1753
 5181TIP3    H137178   4.959   6.443   1.476 -0.7963  0.3348  0.2234
 5181TIP3    H237179   4.948   6.500   1.616 -0.5718 -0.9805  0.7923
 5182TIP3   OH237180   3.831   0.398   2.365 -0.2442  0.0194  0.1404
 5182TIP3    H137181   3.881   0.394   2.447 -3.0977  0.4823  2.0343
 5182TIP3    H237182   3.880   0.342   2.304  3.2784  1.5419  1.3239
 5183TIP3   OH237183   2.776   1.123   8.324  0.5475  0.1247 -0.1487
 5183TIP3    H137184   2.707   1.120   8.259  0.4689 -0.2313 -0.0503
 5183TIP3    H237185   2.851   1.161   8.278  0.1565  0.9247 -0.1320
 5184TIP3   OH237186   3.806   1.554   8.927 -0.8659 -0.6572 -0.1075
 5184TIP3    H137187   3.806   1.579   8.834  1.2987  1.0441  0.2729
 5184TIP3    H237188   3.729   1.597   8.964 -1.5399 -1.0461 -1.0104
 5185TIP3   OH237189   1.995   2.236   1.781  0.2430 -0.5202 -0.1438
 5185TIP3    H137190   1.962   2.310   1.730  0.5012 -0.0584  0.3611
 5185TIP3    H237191   2.052   2.275   1.846 -1.0943 -0.9763  1.3538
 5186TIP3   OH237192   5.397   2.500   1.788  0.3620 -0.0131  0.0981
 5186TIP3    H137193   5.339   2.426   1.768 -0.9443  0.8762  0.4477
 5186TIP3    H237194   5.365   2.533   1.872  0.2685  1.5734 -0.5327
 5187TIP3   OH237195   0.337   3.094   8.836 -0.6940 -0.6487  0.1720
 5187TIP3    H137196   0.261   3.120   8.783  0.6133  0.0937 -1.4379
 5187TIP3    H237197   0.405   3.075   8.771  0.8243 -0.2734  1.6056
 5188TIP3   OH237198   2.332   6.778   0.446 -0.2015  0.0269  0.3286
 5188TIP3    H137199   2.374   6.764   0.361 -1.1425 -0.6305 -0.0526
 5188TIP3    H237200   2.252   6.828   0.425 -1.0876 -1.2076  0.6470
 5189TIP3   OH237201   4.719   4.628   0.192 -0.0211  0.1483  0.6402
 5189TIP3    H137202   4.638   4.626   0.141  0.7070 -0.5655 -0.5468
 5189TIP3    H237203   4.694   4.669   0.275 -1.5418  0.1358  0.2265
 5190TIP3   OH237204   5.148   2.682   0.766 -0.4128 -0.3874  0.4523
 5190TIP3    H137205   5.151   2.772   0.732  1.0647 -0.2469  0.8729
 5190TIP3    H237206   5.240   2.654   0.768 -0.7697 -1.5918  1.1784
 5191TIP3   OH237207   0.362   4.641   2.694  0.0108  0.1556 -0.1916
 5191TIP3    H137208   0.298   4.710   2.711  1.4678  1.1199  1.7449
 5191TIP3    H237209   0.410   4.670   2.617 -0.2288  0.6542 -0.1569
 5192TIP3   OH237210   5.264   1.377   6.615  0.5653 -0.4329 -0.0661
 5192TIP3    H137211   5.315   1.310   6.661 -0.8272 -2.0764 -0.7988
 5192TIP3    H237212   5.307   1.386   6.530  0.7073 -0.4437  0.0033
 5193TIP3   OH237213   6.335   1.563   1.292  0.0164 -0.6989  0.8338
 5193TIP3    H137214   6.250   1.567   1.249  0.3265 -0.5940  0.2149
 5193TIP3    H237215   6.347   1.651   1.328 -0.0321 -0.6391  0.7061
 5194TIP3   OH237216   2.061   0.670   2.447  0.1968  0.3106 -0.0788
 5194TIP3    H137217   2.033   0.582   2.473  0.8195 -0.1993 -1.1023
 5194TIP3    H237218   2.126   0.655   2.378  0.5633  1.5663 -0.0163
 5195TIP3   OH237219   2.272   4.072   8.643  0.5674  0.7060  0.3098
 5195TIP3    H137220   2.249   4.082   8.550  0.8020  0.4246  0.2180
 5195TIP3    H237221   2.192   4.095   8.690  0.3512  0.5474  0.0269
 5196TIP3   OH237222   1.330   3.056   0.051 -0.3435 -0.5860  0.2271
 5196TIP3    H137223   1.421   3.046   0.025 -0.5913  1.9219 -2.0087
 5196TIP3    H237224   1.330   3.124   0.118 -0.6008 -0.4214  0.0618
 5197TIP3   OH237225   5.762   6.662   7.512 -0.0892  0.0807 -0.4246
 5197TIP3    H137226   5.717   6.596   7.459  0.2969  0.2735 -0.9940
 5197TIP3    H237227   5.855   6.648   7.494 -0.0020  0.7570 -0.5213
 5198TIP3   OH237228   5.740   4.903   6.568 -0.1190 -0.2313 -0.1505
 5198TIP3    H137229   5.819   4.956   6.564 -0.4858  0.5444  1.7842
 5198TIP3    H237230   5.675   4.954   6.520  0.0991 -0.0143 -0.2184
 5199TIP3   OH237231   6.029   0.256   8.632  0.4095 -0.5887  0.3369
 5199TIP3    H137232   5.979   0.335   8.655  0.2330 -1.4726  3.5053
 5199TIP3    H237233   6.116   0.289   8.608 -0.6720  0.7506 -2.0791
 5200TIP3   OH237234   2.745   6.400   1.333  0.6424  0.0168  0.7654
 5200TIP3    H137235   2.670   6.431   1.383  0.7320  0.4730  0.6197
 5200TIP3    H237236   2.752   6.307   1.356 -0.2985 -0.1622  0.3546
 5201TIP3   OH237237   0.878   0.952   8.245 -0.3893 -0.0315  0.2839
 5201TIP3    H137238   0.811   1.017   8.266 -0.7679 -0.4983  0.5317
 5201TIP3    H237239   0.961   0.997   8.262 -0.6079 -0.7544  4.2415
 5202TIP3   OH237240   1.527   3.533   8.908 -0.1445  0.1092 -0.1613
 5202TIP3    H137241   1.473   3.612   8.904 -1.0796 -0.5093 -0.0515
 5202TIP3    H237242   1.590   3.544   8.836 -0.1718  1.0105 -0.0595
 5203TIP3   OH237243   2.806   5.546   1.325 -0.1887  0.6544 -0.0021
 5203TIP3    H137244   2.838   5.596   1.250 -0.0218 -1.1796 -1.2372
 5203TIP3    H237245   2.830   5.455   1.305  0.3735  0.1573  2.5774
 5204TIP3   OH237246   3.077   4.634   0.334  0.3737  0.0685  1.3117
 5204TIP3    H137247   3.150   4.598   0.385  0.9053 -0.3097  0.3161
 5204TIP3    H237248   3.112   4.641   0.245 -0.6911  0.2563  0.8992
 5205TIP3   OH237249   5.567   6.600   7.176  0.2760 -0.5996  0.1878
 5205TIP3    H137250   5.594   6.547   7.101 -3.2282 -0.8039 -1.1262
 5205TIP3    H237251   5.552   6.537   7.246 -3.9594 -1.7100 -1.3920
 5206TIP3   OH237252   3.628   2.835   0.548  0.5058 -0.3755  0.2980
 5206TIP3    H137253   3.558   2.878   0.597  0.6810 -1.2993  1.3923
 5206TIP3    H237254   3.627   2.879   0.463 -0.0835  0.9756  0.9666
 5207TIP3   OH237255   0.489   5.624   1.869 -0.1072 -0.1469 -0.2324
 5207TIP3    H137256   0.462   5.667   1.787  0.3554  0.2116 -0.1966
 5207TIP3    H237257   0.571   5.580   1.847 -0.8604 -1.5190 -0.4280
 5208TIP3   OH237258   1.831   3.384   8.583  0.5157  0.0442  0.2866
 5208TIP3    H137259   1.899   3.317   8.595  0.1218 -0.7102 -1.4255
 5208TIP3    H237260   1.800   3.402   8.672  0.2712 -2.4733  0.7914
 5209TIP3   OH237261   0.107   5.095   6.838 -0.2944  0.2049  0.4429
 5209TIP3    H137262   0.197   5.126   6.853 -0.0333 -0.2265 -0.1735
 5209TIP3    H237263   0.053   5.153   6.891  0.3475  0.4823  0.8167
 5210TIP3   OH237264   6.646   0.901   7.521  0.1661  0.0840 -0.0778
 5210TIP3    H137265   6.579   0.857   7.469 -0.2638 -2.5469  2.4193
 5210TIP3    H237266   6.601   0.977   7.559 -1.0335 -0.8119  0.3723
 5211TIP3   OH237267   1.290   1.688   7.964 -0.0613 -0.5901 -0.3464
 5211TIP3    H137268   1.312   1.778   7.940  0.4524 -0.5337  0.3068
 5211TIP3    H237269   1.197   1.679   7.941 -0.3807  0.4261  0.4874
 5212TIP3   OH237270   1.978   0.935   8.565  0.0740  0.3279 -0.5247
 5212TIP3    H137271   1.899   0.920   8.616  0.1212  1.4184 -0.0993
 5212TIP3    H237272   1.951   0.926   8.474 -0.9689  2.3870 -0.4731
 5213TIP3   OH237273   5.157   1.619   7.612 -0.0367 -0.2351  0.1194
 5213TIP3    H137274   5.182   1.710   7.596 -0.3689 -0.1163  0.2642
 5213TIP3    H237275   5.090   1.624   7.680  0.9187 -0.6933  1.1301
 5214TIP3   OH237276   4.302   3.726   8.732  0.2374  0.3449 -0.3122
 5214TIP3    H137277   4.331   3.643   8.770 -0.8593 -0.2644 -0.7605
 5214TIP3    H237278   4.238   3.760   8.794  0.0114  0.4102 -0.5815
 5215TIP3   OH237279   4.366   0.487   8.241  0.1328 -0.2240  0.2768
 5215TIP3    H137280   4.274   0.493   8.214  0.2455 -0.7328 -0.2480
 5215TIP3    H237281   4.386   0.393   8.239  1.3316  0.0090 -1.9856
 5216TIP3   OH237282   4.453   3.233   0.930 -0.1311  0.2600  0.3336
 5216TIP3    H137283   4.380   3.263   0.984  0.5346  1.0154  0.8367
 5216TIP3    H237284   4.444   3.281   0.848 -1.0059 -0.7103 -0.1571
 5217TIP3   OH237285   5.612   3.415   1.396  0.4598 -0.4860  0.5258
 5217TIP3    H137286   5.708   3.414   1.387  0.5366 -0.9122  1.2876
 5217TIP3    H237287   5.592   3.505   1.420  0.9821 -0.9887  3.1647
 5218TIP3   OH237288   0.632   3.608   1.669 -0.1683 -0.0045  0.6515
 5218TIP3    H137289   0.667   3.558   1.743 -0.4879 -0.0984  0.7428
 5218TIP3    H237290   0.575   3.674   1.709  1.3942  1.4134  0.6258
 5219TIP3   OH237291   6.062   1.738   0.122 -0.5814 -0.7858 -0.3654
 5219TIP3    H137292   6.124   1.696   0.063 -0.4159 -0.3876 -0.4763
 5219TIP3    H237293   5.985   1.680   0.121  0.1361 -1.8013  0.5252
 5220TIP3   OH237294   3.871   3.929   7.376 -0.2945  0.5926  0.1895
 5220TIP3    H137295   3.793   3.938   7.322  0.2657  1.9462 -0.4301
 5220TIP3    H237296   3.858   3.992   7.447  0.5263  1.3476 -0.3064
 5221TIP3   OH237297   4.109   4.863   0.547  0.3689  0.0442 -0.6645
 5221TIP3    H137298   4.143   4.953   0.548 -0.2366  0.3100 -1.7405
 5221TIP3    H237299   4.159   4.818   0.615 -0.3327  1.5405  0.9323
 5222TIP3   OH237300   1.844   1.696   2.228  0.0048 -0.0542 -0.7624
 5222TIP3    H137301   1.846   1.615   2.279 -2.0219 -1.1333 -2.2683
 5222TIP3    H237302   1.826   1.764   2.292 -0.4175 -1.0846  0.2538
 5223TIP3   OH237303   5.321   1.639   8.395 -0.4699  0.1414 -0.2639
 5223TIP3    H137304   5.303   1.717   8.343  0.1701  0.7542  0.4213
 5223TIP3    H237305   5.235   1.611   8.427 -0.9206 -0.4101 -1.8466
 5224TIP3   OH237306   1.875   2.102   8.605 -0.2475  0.3994 -0.2080
 5224TIP3    H137307   1.957   2.133   8.644  0.1746  0.5326 -1.1462
 5224TIP3    H237308   1.902   2.065   8.520 -1.0658 -0.2645 -0.1887
 5225TIP3   OH237309   0.708   0.829   7.218 -0.1971 -0.5877 -0.0340
 5225TIP3    H137310   0.735   0.893   7.152  0.3960 -0.8590 -0.0596
 5225TIP3    H237311   0.720   0.875   7.301 -0.3873 -0.4440 -0.0867
 5226TIP3   OH237312   1.800   6.616   0.392 -0.5398 -0.1465 -0.1299
 5226TIP3    H137313   1.746   6.543   0.421 -2.8955  2.6231  3.1915
 5226TIP3    H237314   1.861   6.632   0.464  1.9540 -0.5217 -2.0275
 5227TIP3   OH237315   0.672   5.051   7.696 -0.0084 -1.0237  0.1752
 5227TIP3    H137316   0.696   5.006   7.615 -0.1911 -2.6244  0.9592
 5227TIP3    H237317   0.577   5.052   7.696 -0.0760  1.9188 -1.1252
 5228TIP3   OH237318   6.392   0.052   0.022  0.2260  0.8882 -0.1435
 5228TIP3    H137319   6.307   0.087   0.051  0.3735 -0.5090  2.2373
 5228TIP3    H237320   6.371  -0.030  -0.021  0.2988  1.1599 -0.7079
 5229TIP3   OH237321   3.085   2.046   2.094  0.1858  0.1077 -0.2256
 5229TIP3    H137322   3.086   1.989   2.018  1.1492  2.1939 -1.8855
 5229TIP3    H237323   3.048   2.128   2.062  0.2319  0.9242  1.6626
 5230TIP3   OH237324   4.548   1.020   1.494 -0.5035  0.3395 -0.0864
 5230TIP3    H137325   4.516   1.107   1.470 -2.4770  0.6443  3.1276
 5230TIP3    H237326   4.640   1.033   1.514 -0.1410  1.1031 -2.0210
 5231TIP3   OH237327   6.413   6.794   2.251 -0.2827  0.2135  0.4583
 5231TIP3    H137328   6.340   6.822   2.306  0.3473  1.3520  0.7475
 5231TIP3    H237329   6.449   6.717   2.295 -1.1654 -0.2171  0.4313
 5232TIP3   OH237330   2.512   2.828   2.027 -0.0359  0.3219 -0.7966
 5232TIP3    H137331   2.538   2.878   1.949  0.2663 -0.5366 -1.2641
 5232TIP3    H237332   2.589   2.777   2.050 -0.2785  0.2107 -0.2213
 5233TIP3   OH237333   1.643   2.101   1.761  0.3769 -0.1549 -0.4931
 5233TIP3    H137334   1.676   2.107   1.672 -0.6726  0.6534 -0.8481
 5233TIP3    H237335   1.588   2.178   1.772  0.7691 -0.0518  0.9848
 5234TIP3   OH237336   4.455   2.678   7.065  0.1877 -0.3237 -0.1190
 5234TIP3    H137337   4.372   2.629   7.070 -0.0995  0.1833  0.1687
 5234TIP3    H237338   4.428   2.768   7.048  0.4745  0.4220  2.8540
 5235TIP3   OH237339   1.346   4.092   8.640  0.5638 -0.2501  0.2999
 5235TIP3    H137340   1.428   4.104   8.688  0.8718 -0.3443 -0.1987
 5235TIP3    H237341   1.315   4.182   8.624  0.9028 -0.1997 -0.0778
 5236TIP3   OH237342   6.655   6.768   8.591  0.7631 -0.3007  0.1330
 5236TIP3    H137343   6.696   6.694   8.636  1.3854 -0.5749 -0.8730
 5236TIP3    H237344   6.683   6.761   8.500 -0.6273  0.1423 -0.3715
 5237TIP3   OH237345   0.536   2.350   1.200 -0.3048  0.0296  0.6281
 5237TIP3    H137346   0.585   2.412   1.255 -1.1256  1.4502 -0.1909
 5237TIP3    H237347   0.537   2.268   1.250  0.9668  0.6359  1.6639
 5238TIP3   OH237348   1.947   2.873   6.759 -0.4846 -0.1357 -0.2348
 5238TIP3    H137349   2.009   2.801   6.772  0.4962  0.3814 -1.7808
 5238TIP3    H237350   2.000   2.944   6.722 -1.5204  1.2291  0.7772
 5239TIP3   OH237351   1.424   6.177   0.399  0.4959  0.3098  0.0406
 5239TIP3    H137352   1.436   6.148   0.489 -0.8987 -1.6216 -0.3291
 5239TIP3    H237353   1.329   6.174   0.385  0.8013 -1.9215 -2.2065
 5240TIP3   OH237354   3.469   5.476   0.803  0.3424  0.1717  0.0074
 5240TIP3    H137355   3.377   5.456   0.786  0.4479 -0.5482  0.2378
 5240TIP3    H237356   3.517   5.414   0.748  0.6799  0.0522  0.4326
 5241TIP3   OH237357   4.815   1.329   7.615 -0.5487 -0.4277 -0.1601
 5241TIP3    H137358   4.732   1.333   7.662 -0.0105 -1.1135  0.8780
 5241TIP3    H237359   4.801   1.383   7.537 -2.0418 -0.7249 -0.1297
 5242TIP3   OH237360   3.924   0.374   0.816  0.0217 -0.3278  0.0142
 5242TIP3    H137361   3.943   0.303   0.756  4.1639 -0.9027  1.6624
 5242TIP3    H237362   3.870   0.334   0.884 -0.0484 -1.1314 -0.5046
 5243TIP3   OH237363   2.407   3.784   1.051 -0.0421  1.0969  0.2501
 5243TIP3    H137364   2.426   3.863   1.000 -1.4825  0.9525 -0.5871
 5243TIP3    H237365   2.357   3.816   1.126 -3.0247  0.8306 -1.4593
 5244TIP3   OH237366   5.687   5.230   0.701 -0.1268  0.1774 -0.4982
 5244TIP3    H137367   5.647   5.185   0.626  0.1916 -0.9130 -0.0230
 5244TIP3    H237368   5.758   5.282   0.663 -0.8158  0.6976 -1.1140
 5245TIP3   OH237369   2.890   3.821   1.332 -0.3704  0.4981 -0.2044
 5245TIP3    H137370   2.902   3.900   1.279  4.0382 -0.7016 -1.3373
 5245TIP3    H237371   2.863   3.754   1.270 -2.6617  0.6615  0.5193
 5246TIP3   OH237372   3.380   4.405   7.674 -0.1273  0.1273  0.1688
 5246TIP3    H137373   3.437   4.340   7.712  0.1988  1.7421  2.6697
 5246TIP3    H237374   3.436   4.481   7.659 -1.0712  0.8451  0.1638
 5247TIP3   OH237375   3.938   2.248   7.474  0.3203  0.0766 -0.3019
 5247TIP3    H137376   3.950   2.340   7.495  1.7855  0.3088 -1.9173
 5247TIP3    H237377   3.956   2.202   7.557 -0.5276  1.2224  0.5382
 5248TIP3   OH237378   4.964   2.353   8.808 -0.1815 -0.4727 -0.3904
 5248TIP3    H137379   5.031   2.336   8.874 -0.6244  1.6770  0.7024
 5248TIP3    H237380   4.923   2.435   8.836 -1.2170 -0.1254 -2.6758
 5249TIP3   OH237381   3.868   2.425   8.498 -0.3365  0.8757  0.6031
 5249TIP3    H137382   3.808   2.412   8.572 -0.5759 -0.3667  0.2214
 5249TIP3    H237383   3.811   2.426   8.421 -0.1075  2.3408  0.4261
 5250TIP3   OH237384   3.947   3.343   8.260 -0.1830  0.0937 -0.1123
 5250TIP3    H137385   4.039   3.360   8.241 -0.2283  0.3233 -0.1270
 5250TIP3    H237386   3.926   3.266   8.207 -0.2632  0.6355 -0.8933
 5251TIP3   OH237387   5.017   5.698   8.408 -0.2770  0.0035  0.1355
 5251TIP3    H137388   5.067   5.682   8.488 -0.2438 -1.1429 -0.1042
 5251TIP3    H237389   5.048   5.783   8.377  0.8868 -0.2930  0.4578
 5252TIP3   OH237390   2.500   4.571   1.815 -0.0974  0.1703 -0.1470
 5252TIP3    H137391   2.528   4.628   1.887 -0.6318 -1.1291  1.1644
 5252TIP3    H237392   2.541   4.487   1.834  0.2427 -0.0509 -1.7303
 5253TIP3   OH237393   2.255   0.567   7.721 -0.6004 -0.0062 -0.2136
 5253TIP3    H137394   2.162   0.564   7.697 -1.3348  0.4458  2.2916
 5253TIP3    H237395   2.294   0.626   7.656 -1.9452 -0.5715 -1.5921
 5254TIP3   OH237396   5.327   6.551   2.053 -0.0349 -0.4961  0.2504
 5254TIP3    H137397   5.277   6.610   1.997 -0.0656 -0.0692  0.7171
 5254TIP3    H237398   5.270   6.537   2.129  1.0436  1.0366  1.4093
 5255TIP3   OH237399   6.000   1.569   0.766 -0.1774  0.0353  0.3919
 5255TIP3    H137400   5.907   1.589   0.767  0.3176  2.6881  0.3322
 5255TIP3    H237401   6.044   1.654   0.772  2.2707 -1.2115  2.2824
 5256TIP3   OH237402   3.884   5.357   1.607  0.6159 -0.1048  0.2330
 5256TIP3    H137403   3.895   5.290   1.675  0.5563 -2.9541 -2.3299
 5256TIP3    H237404   3.972   5.374   1.576  0.4462 -0.7704 -0.6499
 5257TIP3   OH237405   5.375   5.723   0.813  0.6501  0.2081  0.0575
 5257TIP3    H137406   5.281   5.738   0.822  0.6283  0.8178 -1.0817
 5257TIP3    H237407   5.383   5.634   0.781  0.4340  0.3233 -0.3153
 5258TIP3   OH237408   0.196   4.117   0.847 -0.4453 -0.0965  0.1632
 5258TIP3    H137409   0.172   4.173   0.921 -1.4633 -0.8755  0.4471
 5258TIP3    H237410   0.173   4.028   0.876 -1.2404 -0.3817 -1.2346
 5259TIP3   OH237411   5.533   2.929   0.038  0.1226 -0.2522  0.1490
 5259TIP3    H137412   5.624   2.905   0.019  0.3363  0.8136 -0.2392
 5259TIP3    H237413   5.532   3.024   0.032 -1.1671 -0.2926 -0.5169
 5260TIP3   OH237414   0.119   4.664   1.334 -0.4252 -0.2331 -0.0230
 5260TIP3    H137415   0.053   4.610   1.378 -0.7269  1.3891  1.6125
 5260TIP3    H237416   0.201   4.644   1.380 -0.5235  0.6083  0.5348
 5261TIP3   OH237417   1.931   5.218   7.579  0.4459 -0.1942  0.0997
 5261TIP3    H137418   1.881   5.287   7.623  1.4099  1.0263 -0.6636
 5261TIP3    H237419   1.896   5.216   7.490  0.7348 -0.3763 -0.0105
 5262TIP3   OH237420   2.878   5.383   1.816 -0.1108 -0.6049  0.0504
 5262TIP3    H137421   2.901   5.430   1.896  1.7036  0.9076 -1.2709
 5262TIP3    H237422   2.847   5.298   1.847 -0.8360  0.4192  2.4054
 5263TIP3   OH237423   4.043   1.880   6.945  0.1612  0.6535  0.2240
 5263TIP3    H137424   4.040   1.965   6.987 -1.7016  0.8447 -0.1919
 5263TIP3    H237425   4.126   1.842   6.972 -0.2282  1.4325  2.7241
 5264TIP3   OH237426   6.512   2.721   7.571 -0.3799 -0.2354  0.5915
 5264TIP3    H137427   6.525   2.751   7.661  0.2702  1.5018 -0.0217
 5264TIP3    H237428   6.576   2.772   7.520 -2.8404  1.2443 -1.2444
 5265TIP3   OH237429   1.455   4.906   1.605  0.5765  0.7148  0.4032
 5265TIP3    H137430   1.410   4.875   1.527  0.4460 -0.3309  0.8858
 5265TIP3    H237431   1.407   4.985   1.631 -0.4868  0.0732  0.4441
 5266TIP3   OH237432   5.513   5.447   1.408  0.5378 -0.2738 -0.1554
 5266TIP3    H137433   5.538   5.452   1.316  0.9310  0.8939 -0.0086
 5266TIP3    H237434   5.522   5.355   1.431  1.9709 -0.3381 -0.8719
 5267TIP3   OH237435   0.744   3.507   0.425  0.8083 -0.0045  0.1108
 5267TIP3    H137436   0.824   3.535   0.381  2.5966  1.2320  3.7593
 5267TIP3    H237437   0.764   3.515   0.518 -3.5237  0.0800  1.2277
 5268TIP3   OH237438   0.872   0.563   0.805 -0.0154  0.0383  0.1982
 5268TIP3    H137439   0.783   0.563   0.839 -0.1948 -0.2615 -0.2584
 5268TIP3    H237440   0.887   0.473   0.775  0.8960 -0.2419  1.4091
 5269TIP3   OH237441   0.979   6.158   2.356 -0.1168  0.0061 -0.0032
 5269TIP3    H137442   0.918   6.130   2.424 -1.4998  3.1122  0.1963
 5269TIP3    H237443   1.061   6.174   2.402 -0.2987 -0.3525  0.4535
 5270TIP3   OH237444   3.525   4.478   0.062 -0.0156  0.8406 -0.2182
 5270TIP3    H137445   3.604   4.464   0.114 -1.6764 -0.4900  2.1257
 5270TIP3    H237446   3.520   4.573   0.052  0.9960  1.0621  1.0593
 5271TIP3   OH237447   0.346   2.623   2.358  0.0085 -0.1413  0.4702
 5271TIP3    H137448   0.331   2.697   2.416  1.1131  0.9039 -0.5367
 5271TIP3    H237449   0.415   2.572   2.402  2.2842  1.6911 -0.7392
 5272TIP3   OH237450   4.962   6.782   7.204  0.0764 -0.0192  0.5536
 5272TIP3    H137451   4.902   6.721   7.247  0.7036  0.3074  1.9675
 5272TIP3    H237452   4.921   6.801   7.120 -0.9585 -1.0836  0.7933
 5273TIP3   OH237453   0.467   0.643   8.529  0.1791  0.3083  0.1207
 5273TIP3    H137454   0.419   0.597   8.597 -0.4966  0.6353 -0.1272
 5273TIP3    H237455   0.497   0.724   8.570 -0.4705  0.6376 -0.0411
 5274TIP3   OH237456   2.206   5.165   1.243  0.7120  0.5242  0.4886
 5274TIP3    H137457   2.206   5.255   1.278 -1.2179  1.2575 -1.1809
 5274TIP3    H237458   2.135   5.121   1.291  0.1720  0.5929 -0.2248
 5275TIP3   OH237459   4.812   4.047   6.819 -0.2405 -0.4818  0.6153
 5275TIP3    H137460   4.765   3.974   6.780  0.3278 -0.1207 -0.8142
 5275TIP3    H237461   4.849   4.012   6.900  0.8924 -2.1137 -0.5437
 5276TIP3   OH237462   6.598   3.084   8.379  0.0364  0.5025 -0.7072
 5276TIP3    H137463   6.520   3.040   8.345 -0.0319 -0.6059  0.7447
 5276TIP3    H237464   6.658   3.013   8.400  0.7988  1.2486 -0.3084
 5277TIP3   OH237465   3.548   4.079   7.795  0.0668  0.0074  0.1487
 5277TIP3    H137466   3.464   4.103   7.757  0.3848 -0.5593 -0.9649
 5277TIP3    H237467   3.527   4.015   7.863 -0.5665  1.4762  1.3895
 5278TIP3   OH237468   1.033   5.306   0.493  0.2148  0.3963 -0.2580
 5278TIP3    H137469   1.023   5.257   0.575  0.4487  1.0739  0.1821
 5278TIP3    H237470   1.024   5.398   0.518 -1.3923  0.5604 -1.2527
 5279TIP3   OH237471   1.755   2.038   8.913  0.2326 -0.1215  0.4432
 5279TIP3    H137472   1.690   2.107   8.925  0.9617  0.7002 -0.1443
 5279TIP3    H237473   1.839   2.085   8.911  0.6708 -0.9020 -0.9480
 5280TIP3   OH237474   0.419   3.171   7.632  0.4266 -0.4022 -0.4324
 5280TIP3    H137475   0.403   3.107   7.701 -2.9286  1.3255  0.5942
 5280TIP3    H237476   0.419   3.119   7.551 -0.5688 -1.9000  0.4799
 5281TIP3   OH237477   2.074   1.714   0.756 -0.2347  0.0700  0.3262
 5281TIP3    H137478   2.058   1.734   0.848  1.1101  0.7966  0.4232
 5281TIP3    H237479   2.146   1.771   0.731 -1.2055  0.5889 -1.4688
 5282TIP3   OH237480   5.330   0.939   8.479  0.3974  0.1326 -0.3991
 5282TIP3    H137481   5.270   0.976   8.413 -0.1711  1.3614  0.7509
 5282TIP3    H237482   5.399   0.898   8.428 -0.3318  0.5337 -1.7705
 5283TIP3   OH237483   3.494   2.747   6.941  0.5401  0.4661 -0.3552
 5283TIP3    H137484   3.426   2.743   6.874 -0.8458  0.4644  1.0131
 5283TIP3    H237485   3.538   2.831   6.926 -0.1719  0.7528 -0.8633
 5284TIP3   OH237486   6.711   4.043   7.154 -0.5841 -0.1332 -0.3990
 5284TIP3    H137487   6.704   4.132   7.189 -1.2933 -0.6524  0.8445
 5284TIP3    H237488   6.622   4.008   7.160 -0.4704 -0.6743 -1.5928
 5285TIP3   OH237489   0.856   6.068   8.797  0.1862 -0.6026  0.6711
 5285TIP3    H137490   0.774   6.058   8.846  0.1810  1.6574  1.2656
 5285TIP3    H237491   0.893   5.980   8.794 -0.9114 -1.2135  2.8145
 5286TIP3   OH237492   6.159   5.561   0.034 -0.0869  0.0056  0.1246
 5286TIP3    H137493   6.209   5.622  -0.020 -1.4721  1.3347  0.2737
 5286TIP3    H237494   6.069   5.593   0.029 -0.7211 -1.5528  0.8997
 5287TIP3   OH237495   1.698   5.171   8.086 -0.3307  0.2144 -0.7233
 5287TIP3    H137496   1.779   5.192   8.131 -0.8090  0.0773  0.2323
 5287TIP3    H237497   1.629   5.195   8.148 -0.9698 -1.7568 -0.5840
 5288TIP3   OH237498   4.670   1.371   0.593  0.3569 -0.0993 -0.4404
 5288TIP3    H137499   4.575   1.369   0.604  0.4193 -1.6228  0.0713
 5288TIP3    H237500   4.700   1.291   0.636  2.1457  1.7361  2.0164
 5289TIP3   OH237501   5.158   4.868   0.559 -0.4281  0.6492  0.0951
 5289TIP3    H137502   5.223   4.914   0.611 -0.4331 -0.0910  0.7666
 5289TIP3    H237503   5.091   4.841   0.621  1.2004 -3.2970  0.4522
 5290TIP3   OH237504   5.671   3.989   8.873 -0.7791  0.0686 -0.0069
 5290TIP3    H137505   5.712   4.029   8.796 -0.4804  0.9703  0.6060
 5290TIP3    H237506   5.684   3.895   8.860 -1.0581  0.1784 -1.2337
 5291TIP3   OH237507   2.031   5.305   6.506  0.4888 -0.4498  0.2968
 5291TIP3    H137508   2.021   5.266   6.592  2.3757 -1.2662  0.1790
 5291TIP3    H237509   2.051   5.232   6.448  0.2465  0.2157 -0.6659
 5292TIP3   OH237510   0.782   6.760   1.552 -0.2158  0.3015 -0.1116
 5292TIP3    H137511   0.736   6.706   1.616  1.4757 -2.1291 -0.8425
 5292TIP3    H237512   0.821   6.830   1.604  0.3744 -1.0990  1.4101
 5293TIP3   OH237513   6.661   1.748   0.308  0.4277  0.0727 -0.1306
 5293TIP3    H137514   6.571   1.764   0.337  0.7792  0.4482  0.8012
 5293TIP3    H237515   6.701   1.835   0.305  0.9152 -0.1436  0.0047
 5294TIP3   OH237516   2.428   0.119   1.958 -0.0160  0.1092 -0.2896
 5294TIP3    H137517   2.499   0.184   1.964  0.2965 -0.2741  0.2344
 5294TIP3    H237518   2.460   0.044   2.007  0.9610 -1.7199 -3.4464
 5295TIP3   OH237519   4.435   6.244   8.906 -0.5733  0.2753  0.2413
 5295TIP3    H137520   4.398   6.331   8.893  2.2951  1.3644 -1.5228
 5295TIP3    H237521   4.511   6.258   8.962  1.8515 -0.3992 -2.5905
 5296TIP3   OH237522   6.285   3.752   2.567 -0.0231  0.3666 -0.1772
 5296TIP3    H137523   6.251   3.835   2.533 -1.4895 -1.0632 -2.5332
 5296TIP3    H237524   6.358   3.730   2.510  0.5042  0.1266  0.5712
 5297TIP3   OH237525   6.043   5.779   0.698 -0.3619  0.0191  0.2509
 5297TIP3    H137526   5.972   5.841   0.679 -1.3493 -1.1183  0.1444
 5297TIP3    H237527   6.016   5.698   0.655  0.5171 -0.7324  1.0824
 5298TIP3   OH237528   1.201   6.058   7.530  0.1432  0.2441  0.0590
 5298TIP3    H137529   1.215   6.143   7.572  0.8967 -0.1727  0.7033
 5298TIP3    H237530   1.257   5.998   7.580 -1.5254 -0.9343  0.6099
 5299TIP3   OH237531   5.004   3.052   8.715 -0.2166  0.1261  0.4022
 5299TIP3    H137532   5.069   3.017   8.653  3.1432 -0.2950  3.8158
 5299TIP3    H237533   4.944   2.979   8.730  0.6325 -0.7180 -0.1677
 5300TIP3   OH237534   3.154   6.471   7.085  0.3845  0.1145  0.2952
 5300TIP3    H137535   3.221   6.510   7.141  1.1415 -0.8330  0.0848
 5300TIP3    H237536   3.184   6.380   7.072 -1.1744 -0.4665  0.5709
 5301TIP3   OH237537   6.577   3.328   6.884 -0.5471 -0.5536 -0.4980
 5301TIP3    H137538   6.517   3.387   6.929  0.3292  0.6096 -0.7875
 5301TIP3    H237539   6.579   3.250   6.938 -1.4719 -0.1822  0.0994
 5302TIP3   OH237540   2.883   3.581   2.790  0.0431 -0.1351 -0.6211
 5302TIP3    H137541   2.952   3.598   2.725  0.4807  0.7055  0.0422
 5302TIP3    H237542   2.894   3.489   2.813 -0.0009 -0.3993 -1.5966
 5303TIP3   OH237543   3.694   4.174   8.131 -0.2657 -0.3244 -0.5340
 5303TIP3    H137544   3.759   4.170   8.061 -0.5839 -0.8089 -0.8089
 5303TIP3    H237545   3.634   4.244   8.105  0.3523  0.3897 -0.0867
 5304TIP3   OH237546   3.502   3.304   0.348 -0.2024  0.3666  0.7055
 5304TIP3    H137547   3.484   3.210   0.347  0.4852  0.2299  0.2162
 5304TIP3    H237548   3.562   3.317   0.275 -1.5103  1.4468 -0.2117
 5305TIP3   OH237549   1.768   0.014   8.253 -0.2223  0.5934  0.6903
 5305TIP3    H137550   1.826   0.082   8.289  2.2371 -0.3950 -1.1092
 5305TIP3    H237551   1.733   0.053   8.173 -0.4227  0.4288  0.6979
 5306TIP3   OH237552   2.408   4.055   0.975  0.4997 -0.1920 -0.7862
 5306TIP3    H137553   2.402   4.145   1.004  3.3691  0.3839 -1.6768
 5306TIP3    H237554   2.407   4.060   0.879 -0.4008 -1.2255 -0.8557
 5307TIP3   OH237555   5.353   2.206   1.976  0.1339  0.6844  0.1386
 5307TIP3    H137556   5.416   2.134   1.982  0.0029  0.4575 -0.9136
 5307TIP3    H237557   5.292   2.191   2.048 -0.4049 -0.7768 -0.5674
 5308TIP3   OH237558   3.333   5.989   0.648 -0.8614  0.3698  0.4393
 5308TIP3    H137559   3.249   6.021   0.681 -1.4684 -1.9992  1.3640
 5308TIP3    H237560   3.356   5.916   0.705  0.0550 -1.3438 -1.9359
 5309TIP3   OH237561   0.805   5.027   0.446 -0.4511 -0.6380  0.3099
 5309TIP3    H137562   0.847   5.058   0.366  0.7821 -1.0225  0.7966
 5309TIP3    H237563   0.726   5.082   0.453 -0.3491 -0.2875 -0.9112
 5310TIP3   OH237564   4.240   4.707   0.745  0.0700  0.1263  0.0917
 5310TIP3    H137565   4.201   4.626   0.778 -0.7195  0.6076  0.3982
 5310TIP3    H237566   4.333   4.688   0.735  0.1864 -0.3181  1.7780
 5311TIP3   OH237567   3.398   0.105   6.907 -0.9336  0.5411 -0.0002
 5311TIP3    H137568   3.463   0.173   6.889  0.9480 -1.0718  0.3558
 5311TIP3    H237569   3.387   0.060   6.823  1.7876 -1.9124  0.8116
 5312TIP3   OH237570   0.139   1.102   0.077 -0.1872  0.7001  1.3548
 5312TIP3    H137571   0.209   1.050   0.115  0.0556  0.0551  0.0788
 5312TIP3    H237572   0.171   1.192   0.082  1.2658  0.3161 -0.2331
 5313TIP3   OH237573   0.713   3.083   6.854 -0.6211  0.0695 -0.0948
 5313TIP3    H137574   0.796   3.104   6.897 -1.3413  0.8698  0.9650
 5313TIP3    H237575   0.732   3.007   6.799  1.0824  0.9327 -0.7532
 5314TIP3   OH237576   1.162   1.620   7.678 -0.1534  0.1435  0.6390
 5314TIP3    H137577   1.146   1.714   7.676 -1.9229 -0.1225 -0.5505
 5314TIP3    H237578   1.222   1.603   7.605  1.2667  0.4751  1.6874
 5315TIP3   OH237579   1.383   2.303   0.176  0.2949  0.0784 -0.0290
 5315TIP3    H137580   1.306   2.333   0.126 -0.1594 -0.4216  0.3554
 5315TIP3    H237581   1.417   2.382   0.217  0.1662  0.3558 -0.4447
 5316TIP3   OH237582   6.441   5.891   6.701 -0.3928 -0.2937 -0.4788
 5316TIP3    H137583   6.481   5.811   6.669 -0.7769 -1.2417  1.2576
 5316TIP3    H237584   6.361   5.901   6.650  0.1083 -0.5103 -1.3137
 5317TIP3   OH237585   1.270   2.808   0.181  0.3390  0.2199  0.5861
 5317TIP3    H137586   1.175   2.797   0.179  0.4137 -0.3418 -0.7431
 5317TIP3    H237587   1.288   2.876   0.115  1.0217 -1.3367 -0.9360
 5318TIP3   OH237588   3.500   2.316   8.161 -0.1570  0.2928 -0.2090
 5318TIP3    H137589   3.512   2.317   8.256 -0.3113 -0.6494 -0.1752
 5318TIP3    H237590   3.407   2.330   8.148 -0.1359  0.4222 -0.2279
 5319TIP3   OH237591   1.986   6.491   1.009 -0.0033  0.2674 -0.3244
 5319TIP3    H137592   1.982   6.585   0.990  1.5050  0.6601  1.0734
 5319TIP3    H237593   2.070   6.479   1.053 -0.6583 -1.5631  0.5233
 5320TIP3   OH237594   1.453   0.890   0.456  0.5978 -0.0843 -0.2105
 5320TIP3    H137595   1.507   0.926   0.385  2.0512 -0.8419  0.4886
 5320TIP3    H237596   1.493   0.924   0.536 -1.2051  1.0079  0.2912
 5321TIP3   OH237597   3.804   4.135   7.892  0.4249 -0.9586 -0.0334
 5321TIP3    H137598   3.827   4.058   7.839  1.3420 -0.0901 -0.9481
 5321TIP3    H237599   3.716   4.158   7.863  1.2769  0.1029 -1.9977
 5322TIP3   OH237600   0.011   2.574   8.761 -0.2964  0.3309 -0.3530
 5322TIP3    H137601  -0.075   2.587   8.720 -0.1157  0.6321 -0.6406
 5322TIP3    H237602   0.018   2.479   8.771 -1.1613  0.3634  0.7594
 5323TIP3   OH237603   2.206   1.784   1.931 -0.4067 -0.2623  0.0242
 5323TIP3    H137604   2.120   1.751   1.956  0.2195 -2.0092  0.0376
 5323TIP3    H237605   2.252   1.796   2.014  0.1878 -1.8080 -0.0453
 5324TIP3   OH237606   4.263   4.076   8.459 -0.3960 -0.2972 -1.0564
 5324TIP3    H137607   4.217   4.122   8.530  3.6928  0.1935  1.6508
 5324TIP3    H237608   4.306   4.003   8.503  1.8897 -0.2902 -3.1182
 5325TIP3   OH237609   4.763   0.017   0.220 -0.2595  0.0249  0.7579
 5325TIP3    H137610   4.760   0.041   0.312 -1.0301  0.3061  0.6658
 5325TIP3    H237611   4.856   0.002   0.202  0.0680  1.3848  1.2176
 5326TIP3   OH237612   5.543   6.677   0.130  0.2759  0.1891  0.3073
 5326TIP3    H137613   5.547   6.772   0.124  0.4852  0.3039  1.8822
 5326TIP3    H237614   5.609   6.646   0.068 -0.0199  1.0480 -0.4562
 5327TIP3   OH237615   3.172   1.368   8.723  0.1473 -0.5136 -0.5954
 5327TIP3    H137616   3.176   1.287   8.671 -0.3715  0.0329 -1.5152
 5327TIP3    H237617   3.261   1.401   8.723  0.6997 -1.8411  1.0655
 5328TIP3   OH237618   3.361   6.229   7.006 -0.5576 -0.7742 -0.3713
 5328TIP3    H137619   3.329   6.166   6.942 -0.4456 -1.6155  0.3879
 5328TIP3    H237620   3.382   6.177   7.084 -1.1504  0.2881  0.5258
 5329TIP3   OH237621   6.130   0.699   2.146 -0.2803  0.3314  0.3569
 5329TIP3    H137622   6.160   0.731   2.231  0.3560  0.5114  0.0709
 5329TIP3    H237623   6.198   0.728   2.084 -1.0677  0.7889 -0.3135
 5330TIP3   OH237624   1.886   1.300   1.784  0.4507  0.3041 -0.7389
 5330TIP3    H137625   1.802   1.279   1.745 -0.6451 -0.1194  1.6562
 5330TIP3    H237626   1.880   1.393   1.806  0.1444  0.0205  0.4324
 5331TIP3   OH237627   1.799   3.545   0.579  0.3976  0.1854  0.1056
 5331TIP3    H137628   1.874   3.559   0.637  0.4532  0.4222 -0.0237
 5331TIP3    H237629   1.806   3.614   0.513  1.0675 -0.8523 -0.9451
 5332TIP3   OH237630   3.259   1.702   8.746 -0.5033  0.2977 -0.1679
 5332TIP3    H137631   3.331   1.662   8.796 -0.2840  0.7112 -0.1463
 5332TIP3    H237632   3.198   1.630   8.730 -0.2220  0.0036  0.0644
 5333TIP3   OH237633   4.148   0.408   6.857 -0.3226  0.2143  0.4405
 5333TIP3    H137634   4.103   0.472   6.801  0.6860 -0.4091 -1.1440
 5333TIP3    H237635   4.211   0.459   6.907  0.9580  0.4254 -1.3180
 5334TIP3   OH237636   3.876   4.539   6.597 -0.3170 -0.2652  0.1655
 5334TIP3    H137637   3.841   4.453   6.621 -1.0392 -0.0934 -0.2446
 5334TIP3    H237638   3.957   4.547   6.648 -2.2726  0.5104  3.4112
 5335TIP3   OH237639   1.839   5.458   7.942 -0.5976  0.1497  0.1931
 5335TIP3    H137640   1.827   5.430   8.033 -1.6193  0.0148  0.0282
 5335TIP3    H237641   1.859   5.551   7.948 -0.5983  0.1277  0.5665
 5336TIP3   OH237642   0.660   6.091   7.166 -0.0391 -0.3971 -0.1375
 5336TIP3    H137643   0.610   6.155   7.116 -0.1286 -0.8513 -0.6368
 5336TIP3    H237644   0.739   6.137   7.193  0.3500 -0.3544 -1.3035
 5337TIP3   OH237645   6.313   3.692   1.522 -0.3387  0.0602 -0.0733
 5337TIP3    H137646   6.282   3.776   1.555  0.6019 -0.1446  1.4108
 5337TIP3    H237647   6.307   3.633   1.597  1.7817 -0.4471 -0.2301
 5338TIP3   OH237648   4.579   5.994   6.467  0.4199  0.0026  0.0422
 5338TIP3    H137649   4.610   5.907   6.494 -2.7183 -1.1506  0.3598
 5338TIP3    H237650   4.556   6.037   6.548 -0.9948 -0.1466 -0.2505
 5339TIP3   OH237651   4.647   2.756   0.350 -0.2300 -0.4169  0.0778
 5339TIP3    H137652   4.697   2.707   0.415 -0.5297 -2.5193 -1.1993
 5339TIP3    H237653   4.627   2.839   0.394  0.1868 -1.4549  2.4103
 5340TIP3   OH237654   1.730   1.004   6.889  0.1124 -0.1049  0.1267
 5340TIP3    H137655   1.801   0.943   6.872 -0.4996 -0.7330 -0.2461
 5340TIP3    H237656   1.654   0.948   6.909  0.2740  0.5473  3.0050
 5341TIP3   OH237657   1.047   2.946   7.908 -0.3679 -0.0422 -0.0869
 5341TIP3    H137658   1.043   3.004   7.832 -1.9713  2.8957  2.0463
 5341TIP3    H237659   1.058   3.004   7.983 -1.2724 -2.5667  2.1878
 5342TIP3   OH237660   0.979   2.776   0.175 -0.2536  0.2856  0.5442
 5342TIP3    H137661   0.892   2.816   0.169 -0.7085 -0.7781 -0.4021
 5342TIP3    H237662   0.992   2.735   0.089  1.1312  0.3095  0.7193
 5343TIP3   OH237663   3.035   6.773   0.966 -0.1227 -0.7776 -0.4823
 5343TIP3    H137664   3.030   6.790   0.872 -1.4493 -2.3100 -0.7348
 5343TIP3    H237665   3.084   6.691   0.974  0.3671 -0.4339  0.2045
 5344TIP3   OH237666   0.072   5.533   1.824  0.4691  0.6083 -0.1390
 5344TIP3    H137667  -0.021   5.553   1.817  0.2332 -0.7186 -1.2498
 5344TIP3    H237668   0.112   5.574   1.748  0.6755  0.5558 -0.0619
 5345TIP3   OH237669   3.525   5.799   0.348  0.2846  0.2007 -0.3826
 5345TIP3    H137670   3.557   5.749   0.423  0.1016 -1.4396 -1.3545
 5345TIP3    H237671   3.596   5.794   0.284 -0.1284  0.3603 -0.8540
 5346TIP3   OH237672   4.615   0.546   1.723  0.0266  0.0544 -0.3175
 5346TIP3    H137673   4.658   0.571   1.805  0.0910 -0.4323 -0.1993
 5346TIP3    H237674   4.597   0.452   1.733  1.0085 -0.2546 -1.2892
 5347TIP3   OH237675   4.838   4.861   8.717 -0.1164 -0.6114  0.1296
 5347TIP3    H137676   4.784   4.888   8.791 -1.0005  3.5658 -1.7202
 5347TIP3    H237677   4.784   4.799   8.669 -1.4413  0.0906  0.6521
 5348TIP3   OH237678   6.728   1.678   1.075  0.0061 -0.5464  0.6682
 5348TIP3    H137679   6.781   1.672   1.154 -0.4838  1.4287  1.2155
 5348TIP3    H237680   6.718   1.587   1.045  2.2925 -1.1138  1.4284
 5349TIP3   OH237681   4.374   5.986   8.101 -0.3638  0.2310  0.3693
 5349TIP3    H137682   4.373   5.903   8.053 -0.3563  1.8156 -2.5652
 5349TIP3    H237683   4.440   5.973   8.170 -0.0009 -1.9935 -0.3222
 5350TIP3   OH237684   1.726   3.062   0.464 -0.1490 -0.5196  0.0194
 5350TIP3    H137685   1.720   3.088   0.372  1.5182  1.1937  0.3341
 5350TIP3    H237686   1.648   3.008   0.478 -1.0230  0.0612 -2.1020
 5351TIP3   OH237687   0.816   5.309   1.558  0.3552  0.5830 -0.0699
 5351TIP3    H137688   0.824   5.288   1.465  0.5703 -1.0998  0.2896
 5351TIP3    H237689   0.762   5.238   1.594  0.5520  1.0198  1.1459
 5352TIP3   OH237690   2.244   0.857   1.049  0.1458 -0.1733 -0.5432
 5352TIP3    H137691   2.170   0.892   1.000 -0.3335 -0.1822  0.1468
 5352TIP3    H237692   2.313   0.922   1.040  0.1582 -0.3080 -1.4500
 5353TIP3   OH237693   6.650   5.144   2.806 -0.4049  0.0797 -0.3633
 5353TIP3    H137694   6.667   5.053   2.782 -0.6923 -0.1173  0.1671
 5353TIP3    H237695   6.554   5.148   2.814 -0.3411  0.2379  0.3504
 5354TIP3   OH237696   1.359   2.057   8.787 -0.1817  0.6022 -0.7909
 5354TIP3    H137697   1.280   2.004   8.778  0.6637 -0.9324  0.3269
 5354TIP3    H237698   1.392   2.066   8.697 -0.8343  0.0055 -1.0948
 5355TIP3   OH237699   2.005   3.151   1.764 -0.0347 -0.4241  0.1309
 5355TIP3    H137700   1.919   3.186   1.787  0.1454 -0.6099  1.1198
 5355TIP3    H237701   1.986   3.070   1.718 -0.4002 -0.2192 -0.0805
 5356TIP3   OH237702   0.856   0.316   1.393 -0.2276  0.7729 -0.0891
 5356TIP3    H137703   0.862   0.294   1.486  0.5497 -1.2064 -0.5527
 5356TIP3    H237704   0.816   0.239   1.353  0.2168  1.2533 -1.5106
 5357TIP3   OH237705   2.895   4.750   1.266 -0.1700 -0.2822 -0.0593
 5357TIP3    H137706   2.874   4.747   1.173  2.0535  0.9380 -0.6586
 5357TIP3    H237707   2.901   4.658   1.293 -0.5893 -0.6393 -1.1559
 5358TIP3   OH237708   6.296   3.500   7.685  0.4588  0.1857 -0.6365
 5358TIP3    H137709   6.283   3.422   7.739  1.8790 -0.5395 -1.2970
 5358TIP3    H237710   6.216   3.552   7.698 -0.7552 -1.6092 -0.6091
 5359TIP3   OH237711   1.736   5.050   6.773 -0.5187  0.5050  0.0198
 5359TIP3    H137712   1.656   5.005   6.744 -0.7225  0.3108  0.8550
 5359TIP3    H237713   1.787   4.983   6.818  0.9176  0.2010 -1.9326
 5360TIP3   OH237714   1.121   4.459   8.872 -0.0534 -0.4278 -0.3171
 5360TIP3    H137715   1.138   4.366   8.863 -1.2889 -0.7263  0.2616
 5360TIP3    H237716   1.195   4.492   8.923  0.8353 -0.9044 -1.2500
 5361TIP3   OH237717   0.171   1.503   2.296 -0.3845  0.0669 -0.1918
 5361TIP3    H137718   0.177   1.498   2.201  0.6871  1.5982 -0.2466
 5361TIP3    H237719   0.220   1.427   2.328  0.8427  0.5524 -0.8729
 5362TIP3   OH237720   6.635   5.228   1.005 -0.1376 -0.0966 -0.9344
 5362TIP3    H137721   6.584   5.194   1.079  2.8493 -2.8219  0.1603
 5362TIP3    H237722   6.726   5.223   1.035  1.0569  1.0287 -3.9625
 5363TIP3   OH237723   6.383   6.452   1.226 -0.3606 -0.4091  0.4664
 5363TIP3    H137724   6.304   6.504   1.245 -2.6051 -3.2912 -0.2624
 5363TIP3    H237725   6.363   6.364   1.259  1.8328 -1.7152 -1.3474
 5364TIP3   OH237726   6.390   4.197   6.939  0.1936  0.1642 -0.4490
 5364TIP3    H137727   6.436   4.167   6.861  0.5943  0.3914 -0.3064
 5364TIP3    H237728   6.457   4.244   6.989  0.2535 -1.0443  0.6319
 5365TIP3   OH237729   2.886   6.047   1.964 -0.1066 -0.4779  0.3459
 5365TIP3    H137730   2.919   6.134   1.941 -1.0156 -0.1464  0.2689
 5365TIP3    H237731   2.934   5.987   1.908 -0.1470  0.0586 -0.2707
 5366TIP3   OH237732   0.166   4.974   0.900  0.2163  0.2980 -0.1975
 5366TIP3    H137733   0.227   5.048   0.891 -1.2872  1.6129 -0.0386
 5366TIP3    H237734   0.211   4.912   0.957  0.7844  1.9384  1.2184
 5367TIP3   OH237735   5.457   4.442   2.607 -0.2969  0.3225  0.2360
 5367TIP3    H137736   5.525   4.480   2.552 -0.6689  0.2411 -0.2906
 5367TIP3    H237737   5.487   4.353   2.624 -0.4928  0.1311 -0.3930
 5368TIP3   OH237738   0.555   1.571   7.466  0.1130  0.9084  0.3043
 5368TIP3    H137739   0.587   1.550   7.554 -0.3566  0.8874  0.4712
 5368TIP3    H237740   0.612   1.520   7.407 -1.2444 -1.2021  0.7218
 5369TIP3   OH237741   6.630   0.563   0.484  0.9994  0.0555  0.3088
 5369TIP3    H137742   6.724   0.545   0.488  1.1938  1.1237  1.0428
 5369TIP3    H237743   6.624   0.653   0.452  0.1960 -0.2332 -0.3721
 5370TIP3   OH237744   2.186   0.763   6.241  0.1606 -0.1608  0.0482
 5370TIP3    H137745   2.219   0.844   6.279  1.7392 -0.9828  0.4938
 5370TIP3    H237746   2.097   0.755   6.276 -1.3687  3.0339 -2.6520
 5371TIP3   OH237747   5.941   1.393   0.266  0.5511  0.1253 -0.7590
 5371TIP3    H137748   5.917   1.312   0.310  0.3300  0.0555 -1.0034
 5371TIP3    H237749   5.944   1.458   0.336 -2.1068  0.5319 -0.9133
 5372TIP3   OH237750   6.739   0.620   0.852  0.0252 -0.8163  0.7963
 5372TIP3    H137751   6.690   0.539   0.867  0.2679 -0.9711  0.7577
 5372TIP3    H237752   6.831   0.594   0.856  0.1043 -0.5540  0.7194
 5373TIP3   OH237753   5.531   6.734   1.981 -0.0224  0.1161 -0.0014
 5373TIP3    H137754   5.605   6.677   2.004  0.5593 -0.3359 -2.6800
 5373TIP3    H237755   5.454   6.685   2.011  0.4974 -1.9305 -1.7478
 5374TIP3   OH237756   1.944   5.731   7.980  0.1313 -0.0638 -0.0796
 5374TIP3    H137757   1.922   5.779   8.060  0.7816  0.9863 -0.5024
 5374TIP3    H237758   2.039   5.742   7.971 -0.0820  0.8475 -1.6050
 5375TIP3   OH237759   4.796   6.377   8.209 -0.1965 -0.1908  0.2368
 5375TIP3    H137760   4.740   6.339   8.141  0.0773  0.7530 -0.5520
 5375TIP3    H237761   4.835   6.454   8.166  1.3978 -0.6109  0.8872
 5376TIP3   OH237762   6.141   6.690   1.903 -0.2327 -0.3247 -0.1314
 5376TIP3    H137763   6.083   6.659   1.972  0.8863 -2.2235 -0.0002
 5376TIP3    H237764   6.083   6.741   1.845 -1.5407 -0.2386  1.1983
 5377TIP3   OH237765   0.880   4.421   7.620 -0.0222  0.0962  0.2090
 5377TIP3    H137766   0.814   4.491   7.621  0.3864  0.5877 -1.9541
 5377TIP3    H237767   0.829   4.340   7.619 -0.5183  0.3648  1.6934
 5378TIP3   OH237768   3.966   5.249   0.501 -0.0765  0.2030  0.3010
 5378TIP3    H137769   3.918   5.304   0.563 -0.4531  0.4843 -0.2277
 5378TIP3    H237770   4.010   5.184   0.555  0.5571  1.1606  0.9713
 5379TIP3   OH237771   6.496   5.231   7.260 -0.5454  0.5837  0.0716
 5379TIP3    H137772   6.576   5.182   7.282 -1.1028 -0.2196  0.3375
 5379TIP3    H237773   6.433   5.164   7.233 -1.2307  1.1794  0.1616
 5380TIP3   OH237774   5.248   2.923   1.736  0.2060  0.1686 -0.3714
 5380TIP3    H137775   5.256   2.901   1.829 -0.9655  0.8667 -0.0912
 5380TIP3    H237776   5.234   3.018   1.735  1.3501  0.3433 -1.3350
 5381TIP3   OH237777   0.688   1.675   8.010  0.2606 -0.1516 -0.4125
 5381TIP3    H137778   0.776   1.709   8.027  0.3039 -0.2976 -0.3411
 5381TIP3    H237779   0.654   1.731   7.941 -0.0432  0.6583  0.3799
 5382TIP3   OH237780   5.744   5.179   8.488 -0.1512 -0.0522  0.1108
 5382TIP3    H137781   5.677   5.146   8.429  1.6660 -1.6282 -1.2046
 5382TIP3    H237782   5.698   5.240   8.545 -2.9116 -1.9639  0.0991
 5383TIP3   OH237783   4.706   6.790   6.207 -0.1449  0.0764  0.3085
 5383TIP3    H137784   4.748   6.819   6.127  0.2834  0.8064  0.7897
 5383TIP3    H237785   4.777   6.754   6.260 -0.5930 -1.5091 -0.0957
 5384TIP3   OH237786   0.271   4.236   7.977  0.0164 -0.3429  0.8827
 5384TIP3    H137787   0.245   4.306   8.037  1.1713  1.1405 -0.2788
 5384TIP3    H237788   0.346   4.195   8.018  1.1674  1.0450  0.2482
 5385TIP3   OH237789   6.490   1.427   1.080  0.0007  0.6577  0.3517
 5385TIP3    H137790   6.410   1.432   1.029 -0.8516 -2.6270  1.1500
 5385TIP3    H237791   6.557   1.397   1.018 -0.3698 -0.5615  0.5266
 5386TIP3   OH237792   5.604   0.135   8.922  0.1260 -0.2779 -0.0591
 5386TIP3    H137793   5.665   0.187   8.869 -1.4760  2.9766  1.0542
 5386TIP3    H237794   5.532   0.115   8.862 -1.1138  2.3554  0.4073
 5387TIP3   OH237795   1.512   0.348   7.863 -0.4947 -0.3160  0.3971
 5387TIP3    H137796   1.591   0.294   7.862 -0.5960 -0.4585  0.2116
 5387TIP3    H237797   1.440   0.286   7.854 -0.5989 -0.1255 -0.0749
 5388TIP3   OH237798   6.782   0.925   7.959  0.5315  0.0216  0.2154
 5388TIP3    H137799   6.790   0.923   8.054  0.8111 -0.0327  0.1899
 5388TIP3    H237800   6.788   0.834   7.932  1.9515  0.1529  0.0219
 5389TIP3   OH237801   3.551   1.139   8.026 -0.2674 -0.2426 -0.4102
 5389TIP3    H137802   3.575   1.211   7.968  2.8585  1.8400  3.0190
 5389TIP3    H237803   3.630   1.085   8.032 -1.9984 -3.0918 -1.5390
 5390TIP3   OH237804   2.885   2.131   8.020 -0.4805 -0.4149 -0.2784
 5390TIP3    H137805   2.930   2.213   7.999  0.0303 -0.7568 -0.5340
 5390TIP3    H237806   2.826   2.154   8.092  0.1894  0.0225  0.1419
 5391TIP3   OH237807   5.560   4.805   7.267  0.6338  0.0925  0.3418
 5391TIP3    H137808   5.503   4.876   7.295 -0.6023 -1.0117  0.7207
 5391TIP3    H237809   5.543   4.795   7.173 -0.0457 -0.4355  0.5151
 5392TIP3   OH237810   4.875   2.523   7.170  0.1865 -0.2028 -0.1054
 5392TIP3    H137811   4.847   2.609   7.198  1.4348  0.5953 -1.1502
 5392TIP3    H237812   4.797   2.482   7.133  0.2689  2.0185 -3.1525
 5393TIP3   OH237813   2.114   0.637   0.467 -0.2778 -0.7701 -0.0449
 5393TIP3    H137814   2.124   0.701   0.538  1.0835  0.3126 -1.1397
 5393TIP3    H237815   2.132   0.688   0.388 -1.7600 -1.9503 -1.1799
 5394TIP3   OH237816   6.367   4.956   7.904 -0.5449  0.0294 -0.7005
 5394TIP3    H137817   6.282   4.950   7.861  0.2121 -1.2655 -2.1041
 5394TIP3    H237818   6.368   4.883   7.966 -1.0452  1.0082  0.5222
 5395TIP3   OH237819   5.830   1.765   8.107  0.6718 -0.7352  0.1793
 5395TIP3    H137820   5.756   1.780   8.166  1.6129 -0.4223  1.3206
 5395TIP3    H237821   5.865   1.680   8.135  1.4966 -0.3020  0.4949
 5396TIP3   OH237822   6.298   4.295   0.092  0.7528  0.7520  0.0303
 5396TIP3    H137823   6.310   4.265   0.002 -0.6217  0.4899 -0.0848
 5396TIP3    H237824   6.328   4.222   0.146  1.8523  1.0231 -0.2062
 5397TIP3   OH237825   1.880   5.238   0.279 -0.2619  0.0766 -0.0255
 5397TIP3    H137826   1.833   5.206   0.356 -0.4548 -1.9410 -0.9011
 5397TIP3    H237827   1.948   5.295   0.313 -0.7090 -0.3097  1.5864
 5398TIP3   OH237828   2.622   4.997   0.270 -0.4100  0.3127  0.2334
 5398TIP3    H137829   2.611   4.908   0.235  0.0944  0.1997  0.3612
 5398TIP3    H237830   2.612   5.054   0.194  1.3427  0.0385 -0.2453
 5399TIP3   OH237831   0.643   3.371   7.028  0.3804 -0.4656 -0.5057
 5399TIP3    H137832   0.712   3.318   6.988  0.4252 -0.5596 -0.3093
 5399TIP3    H237833   0.562   3.341   6.987  0.3019 -1.3088  0.2296
 5400TIP3   OH237834   2.939   3.828   7.551  0.6199  0.1595 -0.0215
 5400TIP3    H137835   3.020   3.854   7.594 -0.4861  0.0816  2.2578
 5400TIP3    H237836   2.957   3.742   7.514  1.1888 -0.5374  1.7694
 5401TIP3   OH237837   2.863   4.503   0.914  0.1097  0.1679 -0.1242
 5401TIP3    H137838   2.853   4.586   0.961 -1.6729 -0.1301  0.1016
 5401TIP3    H237839   2.915   4.448   0.973 -1.2290  0.1486  1.0963
 5402TIP3   OH237840   5.358   5.079   2.158  0.1165  0.5085 -0.6585
 5402TIP3    H137841   5.266   5.104   2.165  0.5476  2.0298  0.0690
 5402TIP3    H237842   5.376   5.030   2.238  0.0866  0.7495 -0.5033
 5403TIP3   OH237843   0.995   0.779   1.217  0.0929  0.5030 -0.0252
 5403TIP3    H137844   1.067   0.717   1.206 -0.1610  0.2379 -0.2077
 5403TIP3    H237845   1.033   0.851   1.266  0.4668  0.3332 -0.0617
 5404TIP3   OH237846   1.159   1.345   8.759  0.0747 -0.1159 -0.6322
 5404TIP3    H137847   1.132   1.264   8.714 -0.5760  0.0499 -0.5563
 5404TIP3    H237848   1.121   1.337   8.846  0.9834 -0.2441 -0.2445
 5405TIP3   OH237849   6.243   3.936   1.651  0.6384  0.4573 -0.4421
 5405TIP3    H137850   6.165   3.957   1.599  0.3422 -0.0926 -0.2227
 5405TIP3    H237851   6.244   4.003   1.719 -2.2112 -1.9789  2.3292
 5406TIP3   OH237852   4.559   4.062   7.363 -0.2614  0.3671  0.2100
 5406TIP3    H137853   4.651   4.088   7.375 -0.4888  0.9577  0.7316
 5406TIP3    H237854   4.522   4.130   7.307 -0.1420 -0.4110 -0.8515
 5407TIP3   OH237855   4.023   0.174   0.642  0.0631 -0.1288  0.3308
 5407TIP3    H137856   4.060   0.089   0.664 -0.2164 -0.1790  0.6135
 5407TIP3    H237857   3.932   0.155   0.618  0.6633 -0.2671 -2.1562
 5408TIP3   OH237858   4.401   6.714   8.612  0.2490  0.1893 -0.4070
 5408TIP3    H137859   4.355   6.784   8.567 -0.4843  0.0910  0.1714
 5408TIP3    H237860   4.400   6.740   8.704  1.5992  0.3227 -0.4061
 5409TIP3   OH237861   2.767   3.980   7.017  0.8986  0.1530  0.3614
 5409TIP3    H137862   2.744   3.897   6.977 -0.5153  0.8358 -0.2925
 5409TIP3    H237863   2.763   4.044   6.945  0.2991  1.0615  1.1767
 5410TIP3   OH237864   4.226   0.969   8.569 -0.5268  0.4191 -0.3783
 5410TIP3    H137865   4.267   1.054   8.552  0.0598 -0.0235 -1.2065
 5410TIP3    H237866   4.221   0.965   8.665 -1.0815  1.6168 -0.3255
 5411TIP3   OH237867   1.126   1.052   2.133 -0.7731  0.5968 -0.3199
 5411TIP3    H137868   1.067   1.054   2.058 -0.8696  0.7568 -0.2392
 5411TIP3    H237869   1.083   1.105   2.199 -0.2839  1.1670 -0.4511
 5412TIP3   OH237870   1.102   6.443   6.896  0.1558  0.1806 -0.0860
 5412TIP3    H137871   1.116   6.451   6.802  1.2040 -0.2505  0.0118
 5412TIP3    H237872   1.018   6.399   6.905 -1.0597  2.2230 -0.7603
 5413TIP3   OH237873   0.086   3.479   8.594 -0.2278  0.3583  0.9495
 5413TIP3    H137874   0.102   3.572   8.576 -1.3751  0.3144 -0.4563
 5413TIP3    H237875   0.040   3.479   8.678 -4.8479  1.6170 -1.2452
 5414TIP3   OH237876   1.628   2.470   8.425 -1.2608  1.0202  0.0263
 5414TIP3    H137877   1.721   2.450   8.415 -1.5252 -0.2784 -0.0257
 5414TIP3    H237878   1.615   2.482   8.519 -0.9797  1.5962 -0.0019
 5415TIP3   OH237879   1.586   3.271   8.172  0.9903  0.4117 -0.5133
 5415TIP3    H137880   1.671   3.301   8.204 -0.5299  2.3740  2.0983
 5415TIP3    H237881   1.567   3.193   8.224  1.1624 -0.0054 -1.0694
 5416TIP3   OH237882   6.758   1.013   6.807  0.2548 -0.2474  0.2309
 5416TIP3    H137883   6.739   0.965   6.727 -0.2097 -0.4008  0.4329
 5416TIP3    H237884   6.743   1.105   6.784 -0.7616 -0.3598  0.3846
 5417TIP3   OH237885   0.129   5.189   8.929 -0.0458  0.3166 -0.1642
 5417TIP3    H137886   0.037   5.163   8.920 -0.2235 -0.8126  3.2709
 5417TIP3    H237887   0.126   5.283   8.947 -0.5362  0.2558  0.0711
 5418TIP3   OH237888   5.865   3.209   8.501  0.3931  0.2692  0.1821
 5418TIP3    H137889   5.889   3.198   8.409  0.6762 -1.1471  0.4026
 5418TIP3    H237890   5.851   3.120   8.533 -0.8654  0.8119  1.2149
 5419TIP3   OH237891   4.734   3.574   0.692 -0.0854  0.2713 -0.1727
 5419TIP3    H137892   4.748   3.485   0.662 -1.6753  0.9369 -3.3339
 5419TIP3    H237893   4.809   3.623   0.659  0.8670  0.1672  1.6919
 5420TIP3   OH237894   4.547   3.555   7.069 -0.4329  0.4107 -0.5420
 5420TIP3    H137895   4.625   3.609   7.059 -0.8697  1.0231 -0.7401
 5420TIP3    H237896   4.529   3.555   7.163 -0.7446  1.0653 -0.6013
 5421TIP3   OH237897   3.165   2.191   7.177  0.0600 -0.2766 -0.0133
 5421TIP3    H137898   3.252   2.180   7.213  0.5393 -0.5379 -1.1918
 5421TIP3    H237899   3.174   2.260   7.112 -0.5170 -0.5556 -0.4019
 5422TIP3   OH237900   0.442   3.790   1.054 -0.3924 -0.1724  0.3702
 5422TIP3    H137901   0.500   3.716   1.073  1.5314  1.4600  1.1585
 5422TIP3    H237902   0.368   3.778   1.113 -0.5347 -1.8934 -0.1017
 5423TIP3   OH237903   3.878   4.693   7.000 -0.4788  0.7857 -0.1093
 5423TIP3    H137904   3.931   4.737   6.932 -1.1870  0.1669 -1.0811
 5423TIP3    H237905   3.902   4.601   6.993 -1.8452  0.4589 -0.7278
 5424TIP3   OH237906   5.751   2.020   0.930 -0.6618  0.2817 -0.0145
 5424TIP3    H137907   5.753   1.988   1.020 -2.2269  0.3928  0.0812
 5424TIP3    H237908   5.728   2.112   0.937  1.4124  0.8888 -0.4374
 5425TIP3   OH237909   5.755   0.118   0.249 -0.2388  0.2518  0.3483
 5425TIP3    H137910   5.715   0.062   0.315 -0.3295 -0.4681 -0.3019
 5425TIP3    H237911   5.684   0.137   0.187  0.0878  0.0943 -0.0793
 5426TIP3   OH237912   1.311   4.710   1.471  0.7004 -0.3233  0.3053
 5426TIP3    H137913   1.225   4.686   1.436  0.5189  1.8956 -0.9038
 5426TIP3    H237914   1.366   4.634   1.453 -0.5470 -1.0511 -0.5868
 5427TIP3   OH237915   5.354   6.046   8.171 -0.1194  0.0490 -0.0314
 5427TIP3    H137916   5.332   6.137   8.153 -0.5427 -0.0335  0.0537
 5427TIP3    H237917   5.402   6.017   8.093 -0.1894  0.2734 -0.1583
 5428TIP3   OH237918   6.152   1.272   6.792  0.4142 -0.3998  0.1446
 5428TIP3    H137919   6.142   1.250   6.885  0.4156  1.3497  0.6063
 5428TIP3    H237920   6.064   1.300   6.765  0.2496 -1.5550 -0.6020
 5429TIP3   OH237921   3.065   1.418   1.355  1.3209  0.1424 -0.4488
 5429TIP3    H137922   3.153   1.451   1.335  1.4594 -0.4654 -0.9012
 5429TIP3    H237923   3.009   1.460   1.290  1.1838  0.9407  0.1746
 5430TIP3   OH237924   5.341   4.916   2.384 -0.4100 -0.2846  0.3639
 5430TIP3    H137925   5.338   4.876   2.471  0.0898  0.1369  0.5833
 5430TIP3    H237926   5.328   4.843   2.323  2.1375 -1.0958  0.6755
 5431TIP3   OH237927   4.640   4.608   8.048  0.6523 -0.4338  0.4343
 5431TIP3    H137928   4.657   4.657   7.967  0.2393 -2.1266 -0.7303
 5431TIP3    H237929   4.554   4.640   8.076  0.3480 -0.5194 -0.3507
 5432TIP3   OH237930   1.657   3.771   7.702  0.3365 -0.6388 -0.0074
 5432TIP3    H137931   1.605   3.723   7.766 -0.0045  0.1069  0.2880
 5432TIP3    H237932   1.608   3.851   7.686 -1.0357 -1.9807 -3.3251
 5433TIP3   OH237933   6.125   3.991   8.881 -0.4100  0.2669  0.2203
 5433TIP3    H137934   6.083   4.050   8.944  0.3600  0.6570  0.3825
 5433TIP3    H237935   6.179   4.048   8.827  2.0899 -0.4901  1.7736
 5434TIP3   OH237936   0.672   0.548   0.469 -0.2366  1.1381  0.5773
 5434TIP3    H137937   0.668   0.548   0.374  0.1911  0.7390  0.5542
 5434TIP3    H237938   0.752   0.596   0.490 -0.2289  1.0600  0.7301
 5435TIP3   OH237939   3.396   0.042   0.164  0.5772 -0.1254 -0.1074
 5435TIP3    H137940   3.310   0.028   0.125  0.8934  0.8745 -1.2278
 5435TIP3    H237941   3.411  -0.036   0.218  0.1946 -1.7021 -2.1588
 5436TIP3   OH237942   0.378   1.440   8.243 -0.2417  0.6244  1.0743
 5436TIP3    H137943   0.381   1.529   8.207 -0.5841  0.8532  1.5957
 5436TIP3    H237944   0.459   1.431   8.291  0.4091  0.1723 -0.0594
 5437TIP3   OH237945   4.827   5.714   7.880 -0.1202  0.3367  0.2079
 5437TIP3    H137946   4.837   5.667   7.963  1.2786 -1.8310 -1.0763
 5437TIP3    H237947   4.890   5.786   7.885 -0.4088  0.5310  1.2107
 5438TIP3   OH237948   2.289   5.906   1.265 -0.1359  0.4129 -0.0240
 5438TIP3    H137949   2.205   5.859   1.270 -0.1891  0.4167 -0.7303
 5438TIP3    H237950   2.354   5.840   1.290 -0.2331  0.0113 -0.7772
 5439TIP3   OH237951   4.986   0.811   7.131 -0.1305 -0.5257 -0.0782
 5439TIP3    H137952   5.067   0.774   7.165  0.1252  1.7347  2.0833
 5439TIP3    H237953   5.014   0.875   7.066 -0.3534 -1.3162 -0.9785
 5440TIP3   OH237954   5.466   3.646   0.898  0.4141  0.0625  0.0219
 5440TIP3    H137955   5.475   3.553   0.879  0.2295  0.3731 -1.8312
 5440TIP3    H237956   5.483   3.689   0.814 -0.5060  1.6380  0.5964
 5441TIP3   OH237957   3.823   3.475   2.193 -0.3835 -0.9232 -0.3146
 5441TIP3    H137958   3.823   3.570   2.177 -0.3958 -0.7106  0.8930
 5441TIP3    H237959   3.730   3.451   2.191 -0.6326 -0.3903  2.1728
 5442TIP3   OH237960   3.034   0.816   1.803  0.1308  0.1492 -0.3482
 5442TIP3    H137961   3.029   0.772   1.888 -0.8776 -0.8817 -0.9081
 5442TIP3    H237962   3.046   0.908   1.825  0.5003 -0.1779  0.9023
 5443TIP3   OH237963   5.761   4.748   1.156 -0.5782 -0.0200 -0.7742
 5443TIP3    H137964   5.779   4.661   1.122  2.3014  0.7945 -1.6308
 5443TIP3    H237965   5.845   4.793   1.152 -1.2960  1.8940  2.4295
 5444TIP3   OH237966   2.620   6.116   1.958  0.0454 -0.6903  0.3065
 5444TIP3    H137967   2.707   6.140   1.991 -0.0312  1.0283 -0.6291
 5444TIP3    H237968   2.635   6.092   1.866 -0.6741  1.5492 -0.4640
 5445TIP3   OH237969   2.124   4.908   0.890  0.0625  0.4403  0.3518
 5445TIP3    H137970   2.204   4.904   0.943 -0.0467 -2.3970  0.4391
 5445TIP3    H237971   2.143   4.975   0.824  1.0169  2.5351  2.5868
 5446TIP3   OH237972   5.913   1.152   8.259  0.3310  0.2995  0.0014
 5446TIP3    H137973   5.933   1.059   8.255  0.0206 -0.1596  4.3525
 5446TIP3    H237974   5.817   1.156   8.258  0.3291  0.8161 -1.8817
 5447TIP3   OH237975   1.027   6.589   0.501  0.1895  0.4180 -0.0614
 5447TIP3    H137976   1.008   6.510   0.450 -0.8487  0.1324  0.7104
 5447TIP3    H237977   1.082   6.642   0.445  1.8535 -1.3368 -0.1969
 5448TIP3   OH237978   1.800   2.235   7.900 -0.2063 -0.1960  0.4453
 5448TIP3    H137979   1.890   2.202   7.904 -0.4386 -0.7686  1.2388
 5448TIP3    H237980   1.808   2.329   7.915  0.1954 -0.3743  1.4397
 5449TIP3   OH237981   2.015   1.170   1.267  0.0116  0.0731 -0.6343
 5449TIP3    H137982   2.076   1.153   1.338 -0.3205  0.4610 -0.2509
 5449TIP3    H237983   1.936   1.203   1.310 -0.4408 -0.3352 -1.1306
 5450TIP3   OH237984   3.597   6.566   8.081  0.3754 -0.0103 -0.0677
 5450TIP3    H137985   3.598   6.605   8.168  1.0596 -0.0013 -0.0729
 5450TIP3    H237986   3.685   6.532   8.069 -0.6685 -3.4317  0.7377
 5451TIP3   OH237987   2.053   3.802   6.846 -0.2722  0.0423 -0.5434
 5451TIP3    H137988   2.109   3.848   6.909  2.4423  0.2145 -2.8985
 5451TIP3    H237989   2.030   3.869   6.782  0.5955 -0.9706 -1.9822
 5452TIP3   OH237990   1.000   0.452   7.523  0.1542  0.2743  0.5259
 5452TIP3    H137991   1.004   0.401   7.442 -0.6841  0.2368  0.5033
 5452TIP3    H237992   0.961   0.535   7.497 -1.8370 -0.4060  1.2020
 5453TIP3   OH237993   2.377   4.043   0.446  0.0123  0.2531 -0.4259
 5453TIP3    H137994   2.388   4.129   0.405  2.0512 -0.0508 -0.6644
 5453TIP3    H237995   2.459   3.997   0.425  0.4198 -0.5429  2.4700
 5454TIP3   OH237996   5.271   3.442   1.163  0.0793 -0.2268  0.1647
 5454TIP3    H137997   5.235   3.359   1.132 -0.1523  0.1586 -0.6251
 5454TIP3    H237998   5.206   3.508   1.136  1.8470  0.6608 -2.3793
 5455TIP3   OH237999   2.191   5.709   7.885 -0.0387  0.3645  0.1122
 5455TIP3    H138000   2.192   5.782   7.823  0.4031 -0.3367 -0.7246
 5455TIP3    H238001   2.283   5.692   7.903 -0.1516  0.2064  0.5549
 5456TIP3   OH238002   2.508   6.198   0.436  0.3210  0.4979  0.5571
 5456TIP3    H138003   2.464   6.280   0.458 -2.3447  0.4473 -3.5518
 5456TIP3    H238004   2.443   6.130   0.456  1.1179 -0.2829  0.5594
 5457TIP3   OH238005   1.612   2.476   6.978  0.0704 -0.3764  0.7544
 5457TIP3    H138006   1.587   2.500   6.889 -0.0372 -0.2431  0.8207
 5457TIP3    H238007   1.701   2.443   6.970  0.2409  0.1053  0.6739
 5458TIP3   OH238008   4.120   6.475   0.148 -0.1932 -0.1584  0.2127
 5458TIP3    H138009   4.034   6.515   0.133  0.1259  0.1204 -0.9449
 5458TIP3    H238010   4.179   6.549   0.162 -0.1322 -0.3475  0.9667
 5459TIP3   OH238011   3.722   5.675   2.105  0.0876  0.7647  0.4688
 5459TIP3    H138012   3.747   5.708   2.019 -0.7718 -1.1333 -0.5826
 5459TIP3    H238013   3.777   5.597   2.117 -0.2727  0.6402  1.3518
 5460TIP3   OH238014   3.233   5.356   1.089  0.0563 -0.1772 -0.4270
 5460TIP3    H138015   3.296   5.307   1.037  1.7071  0.3599  0.9939
 5460TIP3    H238016   3.167   5.291   1.114  0.3589 -0.8887 -1.4160
 5461TIP3   OH238017   5.876   5.970   8.621  0.1042  0.4812 -0.0841
 5461TIP3    H138018   5.964   5.948   8.652  0.1059  0.6159  0.0097
 5461TIP3    H238019   5.870   5.929   8.535 -0.1372 -0.4461  0.3616
 5462TIP3   OH238020   5.758   6.396   7.124 -0.5487  0.1872 -0.1639
 5462TIP3    H138021   5.780   6.305   7.103  3.3275  0.7913  0.5445
 5462TIP3    H238022   5.719   6.391   7.212  0.9330 -0.7576  0.4860
 5463TIP3   OH238023   3.394   6.177   7.607  0.0236 -0.1833  0.0614
 5463TIP3    H138024   3.463   6.243   7.611 -1.0794  0.9475  1.6502
 5463TIP3    H238025   3.430   6.102   7.655 -0.4795  1.1103  2.6613
 5464TIP3   OH238026   3.234   2.179   7.912  0.1759  0.0495  0.1781
 5464TIP3    H138027   3.210   2.119   7.841 -0.1327  1.1309 -0.6620
 5464TIP3    H238028   3.222   2.267   7.875  1.8295  0.6536  0.9507
 5465TIP3   OH238029   3.480   1.282   1.303  0.7666 -0.5520  0.2687
 5465TIP3    H138030   3.423   1.210   1.330  0.0564  0.9043  3.0338
 5465TIP3    H238031   3.456   1.299   1.212 -1.6319 -1.4508  0.6665
 5466TIP3   OH238032   3.809   1.306   7.841 -0.0417 -0.2922  0.4799
 5466TIP3    H138033   3.835   1.218   7.868  1.7903  0.3865  1.1489
 5466TIP3    H238034   3.819   1.306   7.746  0.7102 -0.6063  0.5502
 5467TIP3   OH238035   2.037   4.443   7.992  0.0173 -0.1403 -0.5106
 5467TIP3    H138036   1.987   4.522   8.015  2.7655  1.3252  0.8175
 5467TIP3    H238037   2.048   4.449   7.897  1.4260  1.9652 -0.2826
 5468TIP3   OH238038   6.773   5.414   0.132  0.0526  0.1352 -0.5338
 5468TIP3    H138039   6.808   5.502   0.122  1.3777 -0.3468 -0.3985
 5468TIP3    H238040   6.678   5.425   0.135  0.1367  1.4184 -1.8638
 5469TIP3   OH238041   1.773   0.557   8.911  0.6479 -0.2044 -0.0544
 5469TIP3    H138042   1.859   0.556   8.869  0.2974  1.7302 -0.9180
 5469TIP3    H238043   1.792   0.570   9.004  1.3388 -2.0784  0.1068
 5470TIP3   OH238044   5.789   1.547   7.650  0.2653  0.4095  0.0195
 5470TIP3    H138045   5.767   1.580   7.737  0.9197  0.0368  0.3325
 5470TIP3    H238046   5.705   1.541   7.605 -0.2075 -0.3780  0.9652
 5471TIP3   OH238047   1.196   5.367   2.487  0.5979  0.0758 -0.1997
 5471TIP3    H138048   1.177   5.274   2.483  0.1639  0.1875 -0.8550
 5471TIP3    H238049   1.124   5.409   2.439  0.3757  0.8074  0.7284
 5472TIP3   OH238050   1.942   2.804   1.351 -0.0237  0.2247 -0.0594
 5472TIP3    H138051   1.909   2.841   1.269 -0.0241  0.3573  0.0005
 5472TIP3    H238052   1.875   2.740   1.377 -0.4931  0.8602  0.3280
 5473TIP3   OH238053   0.917   0.374   0.271  0.2857 -0.5126  0.2678
 5473TIP3    H138054   0.845   0.380   0.334 -0.3196  1.1683 -0.5099
 5473TIP3    H238055   0.993   0.347   0.322 -0.0616  1.3193  1.8422
 5474TIP3   OH238056   2.555   3.267   0.130  0.2817  0.1934 -0.3457
 5474TIP3    H138057   2.571   3.277   0.224  1.3452 -0.0954 -0.4861
 5474TIP3    H238058   2.475   3.215   0.125  0.3318  0.0302  0.3970
 5475TIP3   OH238059   2.627   3.798   0.648 -0.6419 -0.2388  0.1228
 5475TIP3    H138060   2.664   3.813   0.561  1.7342  0.4954  1.1799
 5475TIP3    H238061   2.559   3.732   0.634  0.8832 -1.4846 -2.0405
 5476TIP3   OH238062   6.678   2.269   0.779 -0.7355 -0.2708 -0.3742
 5476TIP3    H138063   6.729   2.339   0.738 -1.4086  0.4977  0.0683
 5476TIP3    H238064   6.683   2.196   0.717 -0.8222  0.4988 -1.2994
 5477TIP3   OH238065   4.723   4.611   2.151 -0.2647 -0.6780 -0.4040
 5477TIP3    H138066   4.629   4.612   2.171 -0.0226  2.1036  1.1373
 5477TIP3    H238067   4.765   4.590   2.234  0.4948 -0.3966 -0.7036
 5478TIP3   OH238068   1.755   1.068   7.940  0.0666 -0.1697 -0.1835
 5478TIP3    H138069   1.710   1.152   7.937 -0.3213 -0.3635 -0.0427
 5478TIP3    H238070   1.799   1.060   7.856  0.8119  0.5497  0.1271
 5479TIP3   OH238071   6.417   0.336   0.406 -0.3191  0.5481  0.4574
 5479TIP3    H138072   6.385   0.384   0.330 -0.8613  1.3590  1.1832
 5479TIP3    H238073   6.471   0.399   0.454 -1.3390  0.5917  1.6147
 5480TIP3   OH238074   2.687   3.887   1.032 -0.6702  0.0045  0.7286
 5480TIP3    H138075   2.674   3.925   1.119  0.5852 -0.4549  1.1309
 5480TIP3    H238076   2.606   3.907   0.986 -1.5558 -0.1246  2.1418
 5481TIP3   OH238077   4.734   0.120   7.398 -0.3731  0.0176 -0.4851
 5481TIP3    H138078   4.698   0.032   7.410  0.3682 -0.2454 -0.1119
 5481TIP3    H238079   4.678   0.177   7.450 -0.2593 -0.3857  0.0932
 5482TIP3   OH238080   3.073   4.533   7.711 -0.0124 -0.2255 -0.0007
 5482TIP3    H138081   3.127   4.501   7.783  1.1928  0.8421 -0.3911
 5482TIP3    H238082   3.114   4.497   7.632  0.5689  1.1427 -0.3482
 5483TIP3   OH238083   6.418   0.582   6.927  0.2824  0.6176 -0.4526
 5483TIP3    H138084   6.332   0.624   6.936 -0.1019  0.2270 -1.9886
 5483TIP3    H238085   6.404   0.492   6.955 -0.2768  0.0868 -2.2933
 5484TIP3   OH238086   2.121   4.358   0.952 -0.6541  0.4822  0.4831
 5484TIP3    H138087   2.212   4.371   0.925 -0.9595  1.0468 -0.3412
 5484TIP3    H238088   2.116   4.267   0.980 -0.1810  0.0011 -0.9312
 5485TIP3   OH238089   4.674   4.844   7.276  0.3690 -0.2612  0.2230
 5485TIP3    H138090   4.605   4.821   7.214 -0.2341  1.6620  0.1088
 5485TIP3    H238091   4.649   4.930   7.309  0.6079 -1.2276  3.2730
 5486TIP3   OH238092   1.389   2.301   7.019 -0.4123 -1.2621  0.0633
 5486TIP3    H138093   1.423   2.261   7.099  1.4434  0.9972  0.5023
 5486TIP3    H238094   1.430   2.387   7.016 -1.0483 -0.9613 -2.9460
 5487TIP3   OH238095   5.816   0.682   1.677  0.2627  0.3496 -0.5895
 5487TIP3    H138096   5.845   0.592   1.657 -1.5930 -0.5821  0.6716
 5487TIP3    H238097   5.801   0.722   1.591 -3.1339 -2.0386 -1.3041
 5488TIP3   OH238098   0.303   3.773   2.077  0.0911 -0.2246  0.7035
 5488TIP3    H138099   0.223   3.825   2.078 -0.2031 -0.6741  0.7737
 5488TIP3    H238100   0.373   3.838   2.067 -0.4044  0.0165 -1.9265
 5489TIP3   OH238101   0.134   1.492   7.955 -0.3487 -0.2604  0.0229
 5489TIP3    H138102   0.198   1.544   8.004 -1.2304 -0.1519  1.1094
 5489TIP3    H238103   0.184   1.453   7.884  1.1459 -0.9681  1.3933
 5490TIP3   OH238104   1.397   4.795   8.249 -0.1133 -0.3360 -0.2408
 5490TIP3    H138105   1.476   4.773   8.298 -0.6879  1.6366  1.7345
 5490TIP3    H238106   1.429   4.828   8.165  1.3462  2.0510  1.1457
 5491TIP3   OH238107   6.678   5.718   0.205 -0.0487 -0.6181 -0.0725
 5491TIP3    H138108   6.688   5.766   0.287  1.3964 -0.3635 -0.3751
 5491TIP3    H238109   6.647   5.784   0.143  1.2197 -0.2145 -0.3064
 5492TIP3   OH238110   3.951   5.080   8.669 -0.0794  0.4334 -0.5156
 5492TIP3    H138111   4.033   5.118   8.700  0.8676 -0.5371 -1.7293
 5492TIP3    H238112   3.905   5.054   8.749  1.3290 -0.0830  0.1627
 5493TIP3   OH238113   5.775   6.455   8.179  0.2375  0.3822 -0.2354
 5493TIP3    H138114   5.737   6.396   8.114 -1.3181 -0.2898  1.1995
 5493TIP3    H238115   5.869   6.440   8.173 -0.0793 -1.9281 -0.2672
 5494TIP3   OH238116   6.780   1.487   0.414 -0.8997 -0.0760 -0.1287
 5494TIP3    H138117   6.748   1.570   0.380  0.0403 -0.1486 -1.2807
 5494TIP3    H238118   6.749   1.421   0.351 -1.4301 -0.5779  0.6387
 5495TIP3   OH238119   2.937   3.367   1.548 -0.1588 -0.0433  0.5185
 5495TIP3    H138120   2.964   3.445   1.499  0.9047 -0.1687  0.8703
 5495TIP3    H238121   3.000   3.362   1.620  0.4340 -1.7831 -0.0754
 5496TIP3   OH238122   4.625   4.833   0.749  0.4027 -0.2539 -0.2548
 5496TIP3    H138123   4.578   4.886   0.683  0.9366  0.5008 -0.0482
 5496TIP3    H238124   4.569   4.757   0.762  0.1737 -0.3107 -1.4192
 5497TIP3   OH238125   6.173   0.331   1.142  0.4339 -0.1428  0.0473
 5497TIP3    H138126   6.097   0.278   1.114  1.0958 -0.3025 -1.5543
 5497TIP3    H238127   6.239   0.266   1.167 -0.2980 -0.0090  2.6187
 5498TIP3   OH238128   5.433   4.604   1.416 -0.6344  0.1874 -0.3528
 5498TIP3    H138129   5.430   4.567   1.504 -0.4018 -3.3606 -1.6486
 5498TIP3    H238130   5.504   4.667   1.418 -0.8890  0.4783  2.0599
 5499TIP3   OH238131   5.672   1.346   1.694  0.2193 -0.2198  0.7091
 5499TIP3    H138132   5.687   1.281   1.762  3.2275  0.1222  0.5257
 5499TIP3    H238133   5.681   1.297   1.612 -0.6563 -0.1271  0.5497
 5500TIP3   OH238134   0.958   4.022   7.692  0.1059 -0.5139 -0.1616
 5500TIP3    H138135   1.022   4.081   7.730 -0.6908 -1.1106  2.2928
 5500TIP3    H238136   0.925   3.971   7.766 -2.0703 -1.2949 -1.5539
 5501TIP3   OH238137   4.668   1.069   7.998 -0.0195  0.4212 -0.2131
 5501TIP3    H138138   4.581   1.073   8.038  1.2086 -0.4265  2.8471
 5501TIP3    H238139   4.678   0.979   7.968 -0.5421  0.7903 -1.5727
 5502TIP3   OH238140   5.855   3.573   8.333  0.3545 -0.7003 -0.5431
 5502TIP3    H138141   5.787   3.635   8.308  1.3310  0.9794  0.7769
 5502TIP3    H238142   5.914   3.569   8.258 -0.3943 -1.0650 -1.1289
 5503TIP3   OH238143   0.605   3.357   1.500 -0.3047  0.4377 -0.4225
 5503TIP3    H138144   0.697   3.335   1.483 -0.0329  0.5934  0.7155
 5503TIP3    H238145   0.610   3.434   1.558 -1.0555 -1.0732  1.7833
 5504TIP3   OH238146   4.311   0.803   7.507  0.9862  0.2427 -0.0996
 5504TIP3    H138147   4.333   0.833   7.419 -0.0252 -1.9814 -1.2064
 5504TIP3    H238148   4.361   0.722   7.518 -0.8466 -0.9155  0.2557
 5505TIP3   OH238149   5.933   0.158   1.175  0.1921 -0.0825 -0.2033
 5505TIP3    H138150   5.866   0.165   1.243 -0.2656  1.3089 -0.7582
 5505TIP3    H238151   5.954   0.065   1.172 -0.1178 -0.2432  1.4939
 5506TIP3   OH238152   0.672   1.887   1.040 -0.3737 -0.3773  0.5105
 5506TIP3    H138153   0.702   1.916   1.126  0.2577 -1.9724  0.8654
 5506TIP3    H238154   0.719   1.944   0.978 -0.5534  0.5416  1.1979
 5507TIP3   OH238155   4.993   5.508   1.476  0.0331 -0.2077  0.0634
 5507TIP3    H138156   5.014   5.553   1.558  0.7322  2.6399 -1.5455
 5507TIP3    H238157   5.072   5.518   1.423 -0.8599 -0.8433 -1.4293
 5508TIP3   OH238158   6.735   6.746   0.376  0.0349 -0.5314 -0.4807
 5508TIP3    H138159   6.648   6.714   0.352 -0.0228 -0.9035  0.2166
 5508TIP3    H238160   6.774   6.773   0.292 -1.0260  0.3627 -0.7161
 5509TIP3   OH238161   2.426   4.407   2.210  0.1045  0.0009  0.4943
 5509TIP3    H138162   2.338   4.427   2.176  0.3805 -0.7153 -0.7131
 5509TIP3    H238163   2.485   4.449   2.147  0.6337  0.5980  1.3784
 5510TIP3   OH238164   1.301   0.989   1.088 -0.4551  0.1113 -0.4973
 5510TIP3    H138165   1.256   1.022   1.010 -0.8979 -0.7663 -0.6312
 5510TIP3    H238166   1.243   1.012   1.160 -0.0221  0.9673 -0.4026
 5511TIP3   OH238167   3.796   1.025   8.059  0.2935 -0.6826 -0.0530
 5511TIP3    H138168   3.809   0.934   8.084 -3.2816 -1.2783  0.2686
 5511TIP3    H238169   3.869   1.072   8.099  1.0335 -3.1129  1.6845
 5512TIP3   OH238170   1.706   4.034   1.284  0.2694 -0.3340 -0.0752
 5512TIP3    H138171   1.720   4.114   1.335 -1.1372 -0.1422  0.0428
 5512TIP3    H238172   1.709   3.964   1.349 -0.6254 -0.1702  0.1570
 5513TIP3   OH238173   0.559   1.779   0.323 -0.0377  0.6284  0.1504
 5513TIP3    H138174   0.492   1.798   0.388 -0.5070  2.5100 -0.8063
 5513TIP3    H238175   0.522   1.810   0.241  1.6069  0.7863 -0.5675
 5514TIP3   OH238176   5.647   6.020   7.945  0.4802  0.2227  0.2012
 5514TIP3    H138177   5.712   6.022   8.016 -1.1660  2.6155  1.8295
 5514TIP3    H238178   5.653   6.107   7.905 -1.0951  0.2058 -0.1560
 5515TIP3   OH238179   2.691   5.383   7.435 -0.0083  0.4983  0.4045
 5515TIP3    H138180   2.691   5.456   7.373 -0.8241  0.5145  0.4111
 5515TIP3    H238181   2.698   5.305   7.380 -1.4227  0.4734  0.2081
 5516TIP3   OH238182   5.739   4.366   8.281 -0.1792 -0.4376 -0.4298
 5516TIP3    H138183   5.687   4.444   8.263 -0.1710 -0.7790 -2.1664
 5516TIP3    H238184   5.699   4.327   8.358 -0.4502  1.0325  0.1970
 5517TIP3   OH238185   0.952   6.031   8.548  0.7710  0.5566  0.0251
 5517TIP3    H138186   1.045   6.053   8.553  0.9888 -0.1305 -0.7445
 5517TIP3    H238187   0.914   6.067   8.628  1.6717  0.9746  0.2757
 5518TIP3   OH238188   3.706   1.958   8.890  0.6432  0.1361  0.2339
 5518TIP3    H138189   3.729   2.037   8.940 -0.9676  1.6574 -1.2578
 5518TIP3    H238190   3.633   1.920   8.938  0.1825  0.6471 -0.0526
 5519TIP3   OH238191   0.001   5.650   8.580  0.1881 -0.3608  0.1387
 5519TIP3    H138192   0.027   5.579   8.638  0.7135  0.3150  0.7538
 5519TIP3    H238193  -0.012   5.609   8.495  2.0316 -0.9494  0.1017
 5520TIP3   OH238194   1.483   3.282   1.831 -0.6713  0.6118  0.0516
 5520TIP3    H138195   1.398   3.326   1.825 -0.3494  1.5092  1.6077
 5520TIP3    H238196   1.461   3.191   1.850 -1.2901  0.7778  0.1528
 5521TIP3   OH238197   5.864   4.969   8.597  0.1766 -0.0238  0.4322
 5521TIP3    H138198   5.886   4.929   8.513  0.1504  0.0210  0.4038
 5521TIP3    H238199   5.847   5.061   8.576  0.3200  0.0204  0.5091
 5522TIP3   OH238200   4.120   5.722   7.634  0.1050  0.3690 -0.1874
 5522TIP3    H138201   4.069   5.798   7.606  1.6337  1.5521  0.1462
 5522TIP3    H238202   4.183   5.707   7.564 -0.9764 -1.4162 -0.8464
 5523TIP3   OH238203   3.864   4.531   1.176  0.5419 -0.1802  0.6639
 5523TIP3    H138204   3.859   4.447   1.132  1.0895  1.3297 -2.5403
 5523TIP3    H238205   3.788   4.532   1.235 -1.3798 -1.6238 -1.6299
 5524TIP3   OH238206   2.092   1.962   0.510  0.4452 -0.1774  0.3965
 5524TIP3    H138207   2.007   1.923   0.528  0.2018  0.0763 -0.1732
 5524TIP3    H238208   2.098   1.964   0.414  0.9231  0.1570  0.4270
 5525TIP3   OH238209   5.427   6.565   0.447 -0.0044 -0.0462  1.1242
 5525TIP3    H138210   5.514   6.549   0.484  1.4075  1.9769 -1.0923
 5525TIP3    H238211   5.434   6.538   0.355 -1.2110  1.6329  0.4839
 5526TIP3   OH238212   0.198   4.559   2.226 -0.1027  0.0392  0.2319
 5526TIP3    H138213   0.194   4.642   2.178 -1.7962  2.3546  3.9252
 5526TIP3    H238214   0.286   4.557   2.263 -0.1231  0.3088  0.2980
 5527TIP3   OH238215   0.677   3.331   0.192 -0.1073  0.0106 -0.1437
 5527TIP3    H138216   0.586   3.302   0.192 -0.1097 -0.0009 -0.9154
 5527TIP3    H238217   0.687   3.379   0.274 -0.6386 -0.5046  0.2314
 5528TIP3   OH238218   3.355   6.401   7.325 -0.5226 -0.0870 -0.6898
 5528TIP3    H138219   3.401   6.403   7.409 -0.8868 -1.9057 -0.4181
 5528TIP3    H238220   3.383   6.482   7.281  1.2532 -0.0909  0.3307
 5529TIP3   OH238221   5.942   3.833   8.728 -0.3511 -0.2132  0.0750
 5529TIP3    H138222   5.979   3.840   8.640 -0.5477 -0.7615 -0.0557
 5529TIP3    H238223   6.002   3.884   8.783 -0.3597  0.3320 -0.4079
 5530TIP3   OH238224   1.296   4.640   8.552  0.2210 -0.2355  0.3815
 5530TIP3    H138225   1.208   4.653   8.519  0.7919 -0.2795 -1.2216
 5530TIP3    H238226   1.325   4.727   8.580 -0.3584 -0.2484  1.0547
 5531TIP3   OH238227   1.449   5.207   0.864 -0.0150 -0.5429 -0.1670
 5531TIP3    H138228   1.414   5.219   0.775  0.0774  0.8558 -0.0317
 5531TIP3    H238229   1.462   5.296   0.897 -0.9140 -1.0180  1.6086
 5532TIP3   OH238230   0.818   5.666   7.394  0.3056 -0.3047 -0.3135
 5532TIP3    H138231   0.752   5.735   7.388  1.2623  0.7141  0.2649
 5532TIP3    H238232   0.800   5.608   7.321 -2.6424 -1.3671  1.0991
 5533TIP3   OH238233   4.064   2.221   0.392 -0.3232 -0.0286  0.1046
 5533TIP3    H138234   4.079   2.134   0.356 -2.2654 -0.8872  1.2322
 5533TIP3    H238235   4.150   2.250   0.422  0.3393 -1.5945 -0.1869
 5534TIP3   OH238236   0.938   4.890   1.520  0.1575 -0.7450  0.5143
 5534TIP3    H138237   0.881   4.944   1.574 -0.9681 -2.1048  0.7659
 5534TIP3    H238238   0.878   4.834   1.470  1.0862  0.8548 -2.6813
 5535TIP3   OH238239   1.502   5.169   8.292  0.4356  0.1176 -0.1149
 5535TIP3    H138240   1.530   5.113   8.364  0.6292 -2.1658 -1.8573
 5535TIP3    H238241   1.429   5.219   8.328  1.0537 -0.3231  1.8834
 5536TIP3   OH238242   1.970   3.940   1.200  0.1750  0.3726  0.0162
 5536TIP3    H138243   1.973   3.852   1.235  1.6031 -0.0981 -1.1832
 5536TIP3    H238244   1.878   3.966   1.206 -0.0539 -0.7011  1.5171
 5537TIP3   OH238245   6.399   2.920   0.500 -0.1262 -0.0874  0.2952
 5537TIP3    H138246   6.322   2.972   0.524 -1.6126 -2.5660  1.4000
 5537TIP3    H238247   6.365   2.855   0.438  1.2372 -0.8113  0.2773
 5538TIP3   OH238248   0.137   6.191   8.171 -0.4651 -0.0883 -0.1538
 5538TIP3    H138249   0.185   6.177   8.253 -0.2864  0.3856 -0.1769
 5538TIP3    H238250   0.189   6.257   8.124 -1.2684  0.6049 -0.0796
 5539TIP3   OH238251   6.040   3.233   0.374 -0.0692 -0.2146  0.2557
 5539TIP3    H138252   6.129   3.259   0.353 -0.1958 -0.1340 -0.1850
 5539TIP3    H238253   6.027   3.151   0.326 -0.0241 -0.5485  0.8104
 5540TIP3   OH238254   3.385   2.247   1.929  0.0071  0.1856  0.3998
 5540TIP3    H138255   3.367   2.272   2.020  1.8588 -0.6833  1.0641
 5540TIP3    H238256   3.436   2.320   1.894 -2.2054  1.3546 -0.5780
 5541TIP3   OH238257   5.563   6.469   7.422  0.2409 -0.0426  0.6252
 5541TIP3    H138258   5.570   6.382   7.461  0.7524  0.3137  1.3452
 5541TIP3    H238259   5.488   6.510   7.466  1.5377  0.8035  2.1813
 5542TIP3   OH238260   1.786   5.160   1.141  0.3307 -0.2173 -0.7918
 5542TIP3    H138261   1.794   5.172   1.235  0.3673 -0.6056 -0.7408
 5542TIP3    H238262   1.713   5.099   1.130 -0.3086  0.5867 -1.0726
 5543TIP3   OH238263   2.475   6.673   1.269  0.0182 -0.5810 -0.8182
 5543TIP3    H138264   2.497   6.634   1.184 -0.9204  0.4479 -1.5708
 5543TIP3    H238265   2.548   6.732   1.287  0.8565 -1.7635 -0.2560
 5544TIP3   OH238266   3.071   5.997   6.493 -0.3217  0.2479 -0.0190
 5544TIP3    H138267   3.119   6.050   6.557  1.9213 -1.4616 -0.1932
 5544TIP3    H238268   3.083   6.043   6.410  3.8726 -1.6616 -0.6931
 5545TIP3   OH238269   2.506   5.449   6.388  0.4154  0.2969 -0.2618
 5545TIP3    H138270   2.518   5.361   6.424 -0.3396  0.4898  0.4806
 5545TIP3    H238271   2.478   5.502   6.462  1.5021  1.3230 -0.5504
 5546TIP3   OH238272   2.953   3.501   8.445  0.1502 -0.2282  0.4497
 5546TIP3    H138273   2.968   3.533   8.357 -0.7810 -1.8337 -0.3293
 5546TIP3    H238274   2.997   3.416   8.448 -0.5355 -0.5767  1.2344
 5547TIP3   OH238275   0.802   1.789   2.609  0.1548  0.0379  0.1806
 5547TIP3    H138276   0.732   1.780   2.673 -0.4206  0.0665 -0.4301
 5547TIP3    H238277   0.765   1.752   2.528  0.1569  1.7745 -0.6525
 5548TIP3   OH238278   4.204   0.113   7.726 -0.1773  0.4647  0.1319
 5548TIP3    H138279   4.206   0.176   7.654  2.1235  0.6350  0.2661
 5548TIP3    H238280   4.211   0.167   7.805 -3.9665  0.3892  0.7038
 5549TIP3   OH238281   5.531   2.777   8.156  0.0705 -0.1707  0.7993
 5549TIP3    H138282   5.457   2.781   8.217  0.5850  1.5357  1.3638
 5549TIP3    H238283   5.586   2.852   8.179  2.3141 -1.7026  0.8011
 5550TIP3   OH238284   0.612   3.668   8.810  0.0644 -0.0368 -0.3539
 5550TIP3    H138285   0.680   3.722   8.850  0.0106 -1.0986  1.2704
 5550TIP3    H238286   0.642   3.578   8.824 -1.2824 -0.5042 -0.3326
 5551TIP3   OH238287   2.332   4.744   7.108 -0.0308 -0.4836 -0.1780
 5551TIP3    H138288   2.426   4.748   7.125 -0.0115 -1.8551  0.1495
 5551TIP3    H238289   2.325   4.707   7.020 -0.2758 -0.0999 -0.3263
 5552TIP3   OH238290   4.686   3.355   7.523 -0.2075 -0.4465  0.3257
 5552TIP3    H138291   4.762   3.310   7.486 -0.3612  0.4146 -1.0941
 5552TIP3    H238292   4.611   3.308   7.489 -0.3426 -0.0059  0.0076
 5553TIP3   OH238293   2.131   1.003   1.464 -0.6996 -0.0694  0.4141
 5553TIP3    H138294   2.084   1.023   1.545 -1.2387 -1.4385  0.4629
 5553TIP3    H238295   2.138   0.908   1.463  1.2714  0.0492 -0.0700
 5554TIP3   OH238296   1.741   3.531   2.386  0.1367  0.6268  0.2917
 5554TIP3    H138297   1.676   3.601   2.383 -1.0561 -0.4638 -2.1258
 5554TIP3    H238298   1.806   3.555   2.320 -0.4693 -0.6414 -0.8127
 5555TIP3   OH238299   0.710   3.805   7.706 -0.6216  0.5761 -0.2158
 5555TIP3    H138300   0.637   3.866   7.698  0.1092  1.2308 -2.8596
 5555TIP3    H238301   0.757   3.833   7.785 -1.0536  2.6209 -0.6382
 5556TIP3   OH238302   2.960   5.758   7.032  0.3623 -0.4009  0.1893
 5556TIP3    H138303   2.939   5.672   6.995  0.4525  0.5133 -2.1236
 5556TIP3    H238304   3.055   5.766   7.022  0.3643 -0.0478  0.4711
 5557TIP3   OH238305   2.666   1.947   1.862  0.1109 -0.0391  0.1402
 5557TIP3    H138306   2.684   1.898   1.782 -0.6455 -0.6608  0.3356
 5557TIP3    H238307   2.712   1.900   1.931 -0.0218 -0.0537  0.2191
 5558TIP3   OH238308   6.723   0.117   2.386 -0.1125 -0.2307  0.0955
 5558TIP3    H138309   6.676   0.086   2.464 -1.1715 -1.2857 -0.9215
 5558TIP3    H238310   6.679   0.199   2.363 -0.7773 -0.6623 -0.2176
 5559TIP3   OH238311   5.637   3.195   2.027  0.3650  0.6480 -0.1432
 5559TIP3    H138312   5.666   3.279   1.992  0.5410  0.8763  0.5425
 5559TIP3    H238313   5.697   3.177   2.099  0.7851 -0.4224 -0.7363
 5560TIP3   OH238314   0.789   5.442   8.349  0.5898  0.4037 -0.0029
 5560TIP3    H138315   0.744   5.487   8.421  1.4375  1.2426  0.0306
 5560TIP3    H238316   0.881   5.437   8.378  0.4372 -1.8962  0.2384
 5561TIP3   OH238317   0.443   6.605   1.882  0.1811 -0.4402  0.0806
 5561TIP3    H138318   0.506   6.623   1.951 -1.7156 -0.2563  1.8773
 5561TIP3    H238319   0.397   6.526   1.912 -1.6191  0.4327 -0.2145
 5562TIP3   OH238320   5.161   5.601   7.006 -0.0364  0.1916 -0.5726
 5562TIP3    H138321   5.178   5.559   7.090 -2.5025  1.8342  0.8760
 5562TIP3    H238322   5.161   5.529   6.943  1.6423 -1.1259  0.8195
 5563TIP3   OH238323   4.934   1.779   2.343 -0.6027 -0.2349  0.4189
 5563TIP3    H138324   4.859   1.744   2.295  0.2611 -0.6941 -0.6382
 5563TIP3    H238325   4.999   1.709   2.341  0.3774  0.6556  0.0797
 5564TIP3   OH238326   4.862   5.059   7.907  0.0672  0.4371 -0.5267
 5564TIP3    H138327   4.915   5.087   7.833  0.6714  0.0744 -0.2455
 5564TIP3    H238328   4.820   5.139   7.939 -0.5500  0.5311 -1.5129
 5565TIP3   OH238329   4.826   0.259   7.963 -0.4345  0.3457 -0.6914
 5565TIP3    H138330   4.881   0.201   8.016  0.9106  0.2440 -2.1398
 5565TIP3    H238331   4.829   0.222   7.875 -1.0205  1.6107 -1.2684
 5566TIP3   OH238332   3.892   0.460   0.381 -0.3715 -0.0573 -0.4315
 5566TIP3    H138333   3.856   0.540   0.420  0.5383  0.6377 -0.9898
 5566TIP3    H238334   3.818   0.420   0.335 -1.1625 -0.2534  0.9394
 5567TIP3   OH238335   5.326   2.287   0.756  0.8278  0.1759  0.3922
 5567TIP3    H138336   5.370   2.350   0.699  2.0626 -0.4332  0.6354
 5567TIP3    H238337   5.390   2.217   0.769  0.3391 -0.0207  1.9911
 5568TIP3   OH238338   4.700   0.596   2.015  0.0922  0.1794 -0.7086
 5568TIP3    H138339   4.722   0.509   2.048 -2.7741 -1.5462 -2.8592
 5568TIP3    H238340   4.623   0.621   2.066 -0.3037  0.5254 -1.4720
 5569TIP3   OH238341   6.487   5.581   8.272 -0.6323  0.5044 -0.3923
 5569TIP3    H138342   6.418   5.609   8.332 -1.2795 -1.2214 -0.2776
 5569TIP3    H238343   6.503   5.490   8.295  0.2545  0.2844 -1.7761
 5570TIP3   OH238344   3.153   2.476   8.921  0.6646 -0.1594  0.2488
 5570TIP3    H138345   3.233   2.487   8.971  0.9149  0.8947 -0.3484
 5570TIP3    H238346   3.181   2.478   8.829 -0.2108  2.5318 -0.0694
 5571TIP3   OH238347   4.356   5.440   6.539 -0.1551  0.6240  0.1292
 5571TIP3    H138348   4.395   5.363   6.497 -1.2211  1.3901 -2.4460
 5571TIP3    H238349   4.429   5.498   6.556  0.2872  0.4855 -1.1945
 5572TIP3   OH238350   2.021   4.687   0.767  0.2296  0.0768 -0.0967
 5572TIP3    H138351   1.933   4.718   0.747  0.9189  1.7671 -0.6942
 5572TIP3    H238352   2.062   4.761   0.812  1.4344 -0.6035 -0.0431
 5573TIP3   OH238353   5.670   2.198   7.309  0.2819  0.1144 -0.3638
 5573TIP3    H138354   5.685   2.210   7.215  1.5336 -3.2072 -0.7248
 5573TIP3    H238355   5.746   2.150   7.340 -0.9553 -0.4962  1.9781
 5574TIP3   OH238356   0.293   4.130   6.685 -0.0887 -0.0083  0.4232
 5574TIP3    H138357   0.295   4.034   6.678  0.4226  0.0997 -1.5166
 5574TIP3    H238358   0.205   4.149   6.718 -0.0499 -1.1448  1.2683
 5575TIP3   OH238359   3.918   6.049   1.198  0.2711  0.5270  0.0492
 5575TIP3    H138360   3.924   6.134   1.243  0.0726  1.0296 -0.8481
 5575TIP3    H238361   3.894   5.987   1.266  0.3599  1.2078  0.7085
 5576TIP3   OH238362   2.456   5.685   8.066 -0.4058  0.1002 -0.1934
 5576TIP3    H138363   2.511   5.650   8.136 -0.6222 -1.1876 -0.6434
 5576TIP3    H238364   2.469   5.780   8.071 -0.0943  0.0131  1.3130
 5577TIP3   OH238365   4.164   3.639   0.132  0.1791  0.4972  0.3253
 5577TIP3    H138366   4.089   3.698   0.131  0.2255  0.6005  1.4524
 5577TIP3    H238367   4.241   3.697   0.132  0.2223  0.5222  2.6275
 5578TIP3   OH238368   1.080   4.846   1.291 -0.3398  0.6014  0.3471
 5578TIP3    H138369   1.082   4.764   1.340  0.6605 -0.5957 -1.5694
 5578TIP3    H238370   1.014   4.899   1.335 -1.7534 -1.6158  1.0750
 5579TIP3   OH238371   6.492   4.931   8.796  0.2335 -0.1531  0.0759
 5579TIP3    H138372   6.413   4.905   8.845 -0.4916  1.6283 -0.0892
 5579TIP3    H238373   6.557   4.950   8.864  0.6394 -1.8359  0.2105
 5580TIP3   OH238374   4.309   3.625   7.946 -0.2886 -0.2862  0.5824
 5580TIP3    H138375   4.239   3.668   7.994 -1.0853 -0.4951 -0.3500
 5580TIP3    H238376   4.303   3.661   7.858  0.2844 -0.8694  0.2942
 5581TIP3   OH238377   6.408   1.773   0.455 -0.1084 -0.3350  0.3887
 5581TIP3    H138378   6.315   1.789   0.466 -0.3587 -2.8936  3.2726
 5581TIP3    H238379   6.450   1.827   0.523  0.1514 -1.6249  1.2968
 5582TIP3   OH238380   6.402   0.630   0.665  0.0479  0.0966  0.0279
 5582TIP3    H138381   6.477   0.591   0.620  0.0033  0.4050 -0.3204
 5582TIP3    H238382   6.424   0.723   0.671 -0.8227  0.3972 -1.1274
 5583TIP3   OH238383   6.266   0.117   2.029  0.2951  0.4363 -0.3077
 5583TIP3    H138384   6.194   0.080   2.080 -0.1623  1.8855  0.1591
 5583TIP3    H238385   6.272   0.062   1.951  0.3523 -1.2323  0.8079
 5584TIP3   OH238386   2.954   0.940   6.284  0.0748 -0.8633 -0.0688
 5584TIP3    H138387   3.022   0.875   6.298 -0.0242 -1.2470 -1.2877
 5584TIP3    H238388   2.874   0.889   6.270 -0.5247 -0.4187  1.5405
 5585TIP3   OH238389   6.120   0.957   0.239  0.2620 -0.1115 -0.1725
 5585TIP3    H138390   6.067   0.883   0.269  1.0036 -0.7949 -0.5152
 5585TIP3    H238391   6.199   0.954   0.293  0.3866  0.3092 -0.3254
 5586TIP3   OH238392   4.500   3.893   7.822 -0.1109 -0.0865  0.7556
 5586TIP3    H138393   4.517   3.925   7.734  2.9791  1.0291  1.6512
 5586TIP3    H238394   4.529   3.802   7.821 -1.3879 -0.5139  0.3165
 5587TIP3   OH238395   3.055   2.668   8.086 -0.4621 -0.1820 -0.0078
 5587TIP3    H138396   3.037   2.713   8.003 -0.6621 -1.5682 -0.7672
 5587TIP3    H238397   3.039   2.575   8.066  0.3268 -0.6421  1.3592
 5588TIP3   OH238398   3.686   2.127   6.912 -0.1406  0.1202  0.8066
 5588TIP3    H138399   3.742   2.147   6.837 -1.5821  0.9070 -0.0831
 5588TIP3    H238400   3.670   2.211   6.954 -0.4202 -0.1449  1.2507
 5589TIP3   OH238401   6.720   1.400   1.992 -0.2464  0.3385  0.0295
 5589TIP3    H138402   6.781   1.341   2.036 -1.1368  0.4222  1.4572
 5589TIP3    H238403   6.721   1.372   1.900  0.9633 -0.4685  0.2664
 5590TIP3   OH238404   3.699   6.549   1.087 -0.4051  0.4082 -0.2333
 5590TIP3    H138405   3.627   6.487   1.093 -2.4012  2.3813 -1.9536
 5590TIP3    H238406   3.750   6.519   1.012  0.4580 -0.8299  0.8108
 5591TIP3   OH238407   4.109   4.237   8.633  0.4712  0.3020 -0.1923
 5591TIP3    H138408   4.019   4.272   8.633  0.8684  1.3629  0.3414
 5591TIP3    H238409   4.155   4.289   8.699  0.8103 -2.0444  1.5481
 5592TIP3   OH238410   4.333   6.707   0.469 -0.3245 -0.1805  0.1384
 5592TIP3    H138411   4.252   6.742   0.431 -0.3085 -0.9808 -0.6683
 5592TIP3    H238412   4.377   6.663   0.396 -0.3226 -1.8334  1.0737
 5593TIP3   OH238413   5.465   6.384   6.953 -1.0055 -0.2335  0.1012
 5593TIP3    H138414   5.458   6.359   6.861 -0.3169  0.5341 -0.1690
 5593TIP3    H238415   5.511   6.310   6.993  2.1297  0.9737 -0.9356
 5594TIP3   OH238416   4.349   2.286   1.512 -0.3066  0.5408 -0.0455
 5594TIP3    H138417   4.289   2.353   1.478  0.0754  0.8814 -0.0588
 5594TIP3    H238418   4.311   2.203   1.485 -0.4810  0.7751 -0.5325
 5595TIP3   OH238419   4.679   3.375   1.605  0.6490  0.3576 -0.0959
 5595TIP3    H138420   4.767   3.384   1.644  0.3649 -0.4644  0.7848
 5595TIP3    H238421   4.620   3.370   1.680  0.0858 -1.3451 -0.6102
 5596TIP3   OH238422   4.829   2.446   8.561 -0.3456  0.1262 -0.0536
 5596TIP3    H138423   4.918   2.472   8.538  0.5513 -1.8261  0.9566
 5596TIP3    H238424   4.837   2.404   8.647 -1.8169 -2.1278 -0.8963
 5597TIP3   OH238425   2.685   3.023   6.919 -0.3445 -0.3291  0.2758
 5597TIP3    H138426   2.694   3.088   6.849 -0.8026 -1.9381 -1.3489
 5597TIP3    H238427   2.772   3.019   6.959 -0.0873  0.6695 -0.1406
 5598TIP3   OH238428   0.623   4.522   1.650  0.4564 -0.8053  0.1202
 5598TIP3    H138429   0.530   4.521   1.670  0.1476  0.1312 -1.1584
 5598TIP3    H238430   0.662   4.578   1.718  0.4809 -3.0239  2.0407
 5599TIP3   OH238431   6.417   2.833   8.838 -0.4157  0.2151  0.2325
 5599TIP3    H138432   6.414   2.929   8.838 -0.5337  0.2130 -0.1466
 5599TIP3    H238433   6.431   2.809   8.930 -0.5406  0.5897  0.3498
 5600TIP3   OH238434   5.266   5.203   1.074 -0.0101 -0.4054  0.5202
 5600TIP3    H138435   5.206   5.132   1.052 -0.7880 -0.3414  2.2255
 5600TIP3    H238436   5.345   5.159   1.106  0.9686 -0.4913 -1.8650
 5601TIP3   OH238437   2.660   5.213   0.602  0.0032 -0.1753 -0.4811
 5601TIP3    H138438   2.715   5.291   0.594 -1.1010  0.7954  0.8611
 5601TIP3    H238439   2.596   5.221   0.532  0.3607 -0.2856 -0.8225
 5602TIP3   OH238440   4.254   5.239   6.791 -0.2189  0.5710 -0.4269
 5602TIP3    H138441   4.181   5.232   6.730 -0.4251  1.4882 -0.3002
 5602TIP3    H238442   4.288   5.150   6.799 -0.2087  0.4362 -1.8514
 5603TIP3   OH238443   0.766   1.690   1.940 -0.2846 -0.2378  0.0443
 5603TIP3    H138444   0.674   1.716   1.942 -0.2401 -0.1119  0.5328
 5603TIP3    H238445   0.790   1.680   2.032  0.4179  0.5185 -0.0511
 5604TIP3   OH238446   0.128   3.561   2.165  0.2629 -0.3144 -0.0357
 5604TIP3    H138447   0.208   3.513   2.187 -0.8693 -1.8958  0.7985
 5604TIP3    H238448   0.158   3.632   2.107  2.1015 -1.5546 -0.6944
 5605TIP3   OH238449   3.168   3.003   6.912 -0.0404 -0.4128 -0.5590
 5605TIP3    H138450   3.120   2.941   6.967 -1.2355  0.4445 -0.5923
 5605TIP3    H238451   3.200   2.951   6.839  0.0431 -1.2258  0.0412
 5606TIP3   OH238452   2.983   0.695   8.246  0.0528 -0.5653  0.1853
 5606TIP3    H138453   2.979   0.731   8.157  1.9661  0.8639  0.6038
 5606TIP3    H238454   3.027   0.610   8.235  0.6040 -0.2352 -0.2012
 5607TIP3   OH238455   4.910   4.010   7.932 -0.3383  0.3473  0.2209
 5607TIP3    H138456   4.974   4.060   7.881 -0.8766 -1.4631 -2.4672
 5607TIP3    H238457   4.963   3.960   7.994  0.9194 -0.8463 -1.6980
 5608TIP3   OH238458   5.700   6.326   0.030  0.9051 -0.0195  0.5349
 5608TIP3    H138459   5.748   6.382   0.091  2.5230  0.0791 -0.7847
 5608TIP3    H238460   5.743   6.339  -0.054 -0.9918 -0.5036 -0.5656
 5609TIP3   OH238461   6.323   4.834   2.077 -0.2230 -0.1679 -0.4873
 5609TIP3    H138462   6.398   4.840   2.019 -0.1090  1.8983 -0.1855
 5609TIP3    H238463   6.339   4.899   2.145 -1.9731 -0.1183 -0.0666
 5610TIP3   OH238464   1.215   2.271   0.717  0.3641  0.7213 -0.2422
 5610TIP3    H138465   1.238   2.340   0.778 -0.1644 -0.7462  1.7216
 5610TIP3    H238466   1.210   2.192   0.771 -2.3903 -0.2774 -1.7421
 5611TIP3   OH238467   5.043   5.140   0.728 -0.0269  0.3376 -0.9158
 5611TIP3    H138468   5.100   5.214   0.705 -0.7835  1.1567 -0.2404
 5611TIP3    H238469   4.982   5.177   0.792 -0.8212 -0.7237 -1.0526
 5612TIP3   OH238470   3.168   4.643   8.596 -0.1055 -0.2846 -0.0954
 5612TIP3    H138471   3.178   4.591   8.675  1.7948 -0.4833 -0.4337
 5612TIP3    H238472   3.237   4.709   8.600 -0.8856  0.6352 -0.9054
 5613TIP3   OH238473   0.730   4.920   7.481  0.0524 -0.2567  0.1003
 5613TIP3    H138474   0.740   4.966   7.397  0.4961  0.6951  0.6585
 5613TIP3    H238475   0.684   4.839   7.458 -0.8584  0.5178 -0.8908
 5614TIP3   OH238476   5.353   0.331   2.226  0.0933 -0.2423  0.0711
 5614TIP3    H138477   5.442   0.307   2.202 -0.2555 -0.6603 -0.8509
 5614TIP3    H238478   5.330   0.402   2.166 -0.1801 -0.1240  0.3138
 5615TIP3   OH238479   2.503   0.784   2.347  0.2794  0.2799  0.2982
 5615TIP3    H138480   2.481   0.810   2.257  1.3242 -0.3294 -0.1582
 5615TIP3    H238481   2.476   0.858   2.401 -3.2377 -0.5307 -0.0981
 5616TIP3   OH238482   5.604   2.185   2.517  0.3435  0.1235 -0.1628
 5616TIP3    H138483   5.636   2.156   2.602  0.5388  2.5255  0.6596
 5616TIP3    H238484   5.683   2.206   2.467  0.1890  0.3276 -0.3248
 5617TIP3   OH238485   2.606   5.272   7.666  0.5039 -0.3710 -0.5266
 5617TIP3    H138486   2.648   5.290   7.583 -0.5937 -1.7917 -1.4464
 5617TIP3    H238487   2.589   5.358   7.704  0.7940  0.3116 -1.8832
 5618TIP3   OH238488   3.987   3.306   2.343 -0.5990  0.8647  0.1872
 5618TIP3    H138489   3.966   3.334   2.431  1.1596  2.7302  0.0815
 5618TIP3    H238490   3.939   3.366   2.286 -1.1017  0.1750 -0.1289
 5619TIP3   OH238491   4.286   2.745   7.440 -0.5765  0.1385  0.3792
 5619TIP3    H138492   4.248   2.674   7.491 -2.8594  0.0452 -1.3238
 5619TIP3    H238493   4.254   2.732   7.351  3.6526  0.0037 -1.3461
 5620TIP3   OH238494   0.871   4.731   0.218  0.4797  0.0064 -0.0528
 5620TIP3    H138495   0.960   4.750   0.248  0.3752 -0.8992  0.8763
 5620TIP3    H238496   0.859   4.788   0.141  2.5378 -1.2178 -1.3824
 5621TIP3   OH238497   6.328   1.816   7.394  0.2851  0.1651 -0.5036
 5621TIP3    H138498   6.355   1.908   7.393  2.9752 -0.5314 -0.1669
 5621TIP3    H238499   6.376   1.777   7.467 -0.7813 -1.5149 -0.6424
 5622TIP3   OH238500   1.270   1.214   8.468  0.2866 -1.1448  0.1863
 5622TIP3    H138501   1.341   1.196   8.406 -0.0741  0.5156 -0.7733
 5622TIP3    H238502   1.308   1.274   8.531 -0.7969  1.6932 -1.6826
 5623TIP3   OH238503   4.723   4.407   7.042  0.3361  0.0113  0.1445
 5623TIP3    H138504   4.784   4.439   6.975  0.2401 -0.8926 -0.3931
 5623TIP3    H238505   4.774   4.347   7.095 -0.3074 -1.6345 -0.9932
 5624TIP3   OH238506   0.865   3.506   0.866  0.3476 -0.3564 -0.1136
 5624TIP3    H138507   0.945   3.519   0.917 -0.0361 -0.0073  0.4061
 5624TIP3    H238508   0.795   3.540   0.921 -0.5752 -3.3504  0.7625
 5625TIP3   OH238509   1.466   6.248   7.633  0.4482  0.0756  0.2515
 5625TIP3    H138510   1.372   6.267   7.636  0.4014 -0.2544  1.1437
 5625TIP3    H238511   1.487   6.246   7.539 -0.6165 -0.7253  0.0094
 5626TIP3   OH238512   1.344   1.133   6.932  0.1639  0.2962  0.2388
 5626TIP3    H138513   1.367   1.211   6.982 -1.1021  1.2541 -0.6260
 5626TIP3    H238514   1.389   1.145   6.848 -1.1846  0.8209 -0.4256
 5627TIP3   OH238515   1.113   4.039   1.647  0.2969 -0.2460  0.3701
 5627TIP3    H138516   1.026   4.070   1.621  0.2741 -0.9744 -0.4578
 5627TIP3    H238517   1.171   4.112   1.627 -0.0851  0.1625  0.7158
 5628TIP3   OH238518   4.931   0.576   1.563  0.2872 -0.5761 -0.2202
 5628TIP3    H138519   5.026   0.583   1.572  0.4061 -0.0897 -1.5669
 5628TIP3    H238520   4.896   0.623   1.638  1.1106 -0.5313  0.1478
 5629TIP3   OH238521   6.789   3.536   8.294  0.1617 -0.5614  0.1589
 5629TIP3    H138522   6.859   3.593   8.262  0.4366 -0.7532  0.4190
 5629TIP3    H238523   6.777   3.561   8.386 -2.5502  1.9862 -0.7115
 5630TIP3   OH238524   5.882   5.463   8.148  0.2151 -0.1068  0.0924
 5630TIP3    H138525   5.860   5.377   8.111 -1.0518  0.8886 -1.5841
 5630TIP3    H238526   5.811   5.481   8.211 -0.4163  0.3845 -0.7396
 5631TIP3   OH238527   0.021   1.854   6.610 -0.2545  0.2593  0.4039
 5631TIP3    H138528  -0.054   1.848   6.550  0.1432  0.2822 -0.1052
 5631TIP3    H238529  -0.002   1.925   6.669 -0.7249  0.1332  0.3799
 5632TIP3   OH238530   3.926   0.461   7.147  0.2015 -0.2347  0.5436
 5632TIP3    H138531   3.917   0.511   7.065  0.2865 -0.9197  0.1071
 5632TIP3    H238532   3.918   0.527   7.216 -0.0477  0.3302 -0.0117
 5633TIP3   OH238533   0.923   5.172   0.249 -0.3863 -0.2789 -0.3396
 5633TIP3    H138534   0.955   5.197   0.336 -1.1608 -1.1758  0.2280
 5633TIP3    H238535   0.991   5.201   0.189 -0.0670  0.7998  0.5177
 5634TIP3   OH238536   6.554   0.128   7.522  0.5699  0.1201  0.7850
 5634TIP3    H138537   6.646   0.102   7.534  0.2112 -1.0245  1.1592
 5634TIP3    H238538   6.542   0.200   7.584  1.0796 -0.0620  1.1061
 5635TIP3   OH238539   5.480   1.419   8.351 -0.2642  0.4496  0.3601
 5635TIP3    H138540   5.569   1.431   8.384  0.2196 -0.5433 -0.5067
 5635TIP3    H238541   5.428   1.485   8.397  0.7711  0.5455  1.4515
 5636TIP3   OH238542   6.054   4.807   8.071  0.6473 -0.5619  0.4266
 5636TIP3    H138543   5.961   4.821   8.089  0.3688  2.0270 -2.2874
 5636TIP3    H238544   6.060   4.715   8.044 -1.5724 -0.2205 -1.5185
 5637TIP3   OH238545   1.878   4.987   7.307 -0.0240 -0.2508  0.0321
 5637TIP3    H138546   1.957   4.932   7.304  0.4651  0.4518 -0.1282
 5637TIP3    H238547   1.807   4.925   7.320  0.3144 -1.1047 -1.9152
 5638TIP3   OH238548   2.044   2.574   7.222 -0.0000 -0.0310  0.3828
 5638TIP3    H138549   1.998   2.551   7.303  0.1043 -0.2252  0.3887
 5638TIP3    H238550   1.976   2.605   7.163  0.0202  0.8104  0.7977
 5639TIP3   OH238551   0.923   0.634   2.055 -0.2111  0.2136 -0.4125
 5639TIP3    H138552   0.877   0.557   2.021  0.3269  0.3933 -1.5882
 5639TIP3    H238553   1.011   0.602   2.075  0.2771  0.6848 -1.7054
 5640TIP3   OH238554   0.394   4.284   0.076 -0.4762  0.1044 -0.3019
 5640TIP3    H138555   0.450   4.206   0.069 -0.1146  0.1782  1.3159
 5640TIP3    H238556   0.344   4.271   0.156  1.3571  2.5643  1.4263
 5641TIP3   OH238557   2.254   1.443   7.136 -0.0834 -0.5518 -0.3266
 5641TIP3    H138558   2.328   1.469   7.080 -0.8787  0.7116 -0.8128
 5641TIP3    H238559   2.211   1.525   7.159 -0.9644 -1.2272  0.4869
 5642TIP3   OH238560   2.599   3.488   1.454  0.2999  0.5563  0.0876
 5642TIP3    H138561   2.598   3.452   1.366 -0.8593  0.4132  0.1512
 5642TIP3    H238562   2.602   3.412   1.512 -0.6318  0.5870  0.1926
 5643TIP3   OH238563   3.175   1.417   7.584 -0.6300  0.0197  0.4219
 5643TIP3    H138564   3.151   1.362   7.659 -0.7805 -0.1623  0.2430
 5643TIP3    H238565   3.270   1.423   7.587 -0.6615  0.3387  0.8566
 5644TIP3   OH238566   2.270   5.365   0.003 -0.3326 -0.1613 -0.5463
 5644TIP3    H138567   2.182   5.332   0.021  0.2706 -2.3995 -1.3205
 5644TIP3    H238568   2.288   5.338  -0.087  1.4392 -0.5324 -0.1296
 5645TIP3   OH238569   2.751   0.297   7.249  1.4426 -0.3484  0.0585
 5645TIP3    H138570   2.753   0.201   7.254 -0.6911 -0.6507 -2.6326
 5645TIP3    H238571   2.751   0.316   7.156  0.5037  2.2389  0.5038
 5646TIP3   OH238572   4.238   6.085   1.180  0.0081 -0.3982 -0.1589
 5646TIP3    H138573   4.332   6.085   1.164  0.1337 -1.8396  0.4651
 5646TIP3    H238574   4.211   5.994   1.171 -0.9848 -0.3188  1.5296
 5647TIP3   OH238575   3.692   1.234   8.238  0.2624  0.0403 -0.0879
 5647TIP3    H138576   3.782   1.206   8.226  0.1416  0.2149 -1.6164
 5647TIP3    H238577   3.648   1.210   8.156 -0.6835  1.4268 -0.0213
 5648TIP3   OH238578   2.906   5.581   2.495  0.5142  0.3765 -0.1557
 5648TIP3    H138579   2.852   5.564   2.418  1.7923 -2.5668 -0.5242
 5648TIP3    H238580   2.903   5.499   2.545  2.1580  1.1827  1.3782
 5649TIP3   OH238581   1.464   2.866   7.946  0.5036 -0.0330 -0.2111
 5649TIP3    H138582   1.430   2.916   7.872  0.6569 -1.4673 -1.3136
 5649TIP3    H238583   1.543   2.912   7.972 -0.0587  1.0236 -0.3100
 5650TIP3   OH238584   3.633   3.851   1.775 -0.4679  0.1700 -0.0649
 5650TIP3    H138585   3.566   3.823   1.838  0.9918 -0.2132  1.3967
 5650TIP3    H238586   3.715   3.844   1.823  0.6397  0.6434 -1.7947
 5651TIP3   OH238587   6.096   3.338   1.522 -0.2069  0.1844 -0.0701
 5651TIP3    H138588   6.054   3.417   1.554 -0.7693 -0.0042 -0.3282
 5651TIP3    H238589   6.068   3.269   1.583  0.3712  0.2077  0.2196
 5652TIP3   OH238590   5.559   4.409   1.073  0.3369 -0.2032  0.1137
 5652TIP3    H138591   5.515   4.325   1.059 -1.7075  0.7293  0.5266
 5652TIP3    H238592   5.597   4.402   1.161  1.8694 -1.3516 -0.5993
 5653TIP3   OH238593   3.969   0.276   7.997 -0.2386 -0.2797 -0.2323
 5653TIP3    H138594   4.009   0.363   7.988 -0.2360 -0.0002  1.9546
 5653TIP3    H238595   3.957   0.246   7.907  1.2783  1.2836 -1.0173
 5654TIP3   OH238596   0.642   1.654   7.178  0.5120  0.5825 -0.3537
 5654TIP3    H138597   0.694   1.701   7.112 -0.2556  1.0735 -0.6247
 5654TIP3    H238598   0.644   1.711   7.254  1.5343 -0.0607  0.1280
 5655TIP3   OH238599   6.126   2.729   0.037 -0.3178 -0.4952  0.0099
 5655TIP3    H138600   6.133   2.823   0.050 -1.0721 -0.6967  2.4452
 5655TIP3    H238601   6.207   2.705  -0.008 -0.7578  1.4597 -1.9830
 5656TIP3   OH238602   4.928   1.214   7.831 -0.0498  0.0964  0.0113
 5656TIP3    H138603   4.853   1.172   7.872  0.7484 -0.5283  0.8812
 5656TIP3    H238604   4.893   1.254   7.751 -0.7326 -2.9621 -1.3627
 5657TIP3   OH238605   4.427   6.096   8.671 -0.1514  0.1064 -0.6442
 5657TIP3    H138606   4.408   6.136   8.756 -1.4179 -1.0028 -0.3708
 5657TIP3    H238607   4.505   6.142   8.639  0.4800  0.3905  1.2148
 5658TIP3   OH238608   1.063   5.790   2.706  0.0246  0.5968  0.2456
 5658TIP3    H138609   0.983   5.793   2.654  0.5997  1.9667 -0.6248
 5658TIP3    H238610   1.064   5.703   2.745 -1.5487  0.3311 -0.2580
 5659TIP3   OH238611   1.528   2.225   8.889  0.2738 -0.8199 -0.2636
 5659TIP3    H138612   1.461   2.160   8.865 -1.4180  0.3358  1.0687
 5659TIP3    H238613   1.485   2.280   8.955  2.2571  0.5614 -0.0430
 5660TIP3   OH238614   5.544   1.468   2.239 -0.7966 -0.1485  0.1034
 5660TIP3    H138615   5.558   1.546   2.294 -0.6117  0.1109 -0.3093
 5660TIP3    H238616   5.631   1.434   2.222 -0.5048  1.6378 -2.7052
 5661TIP3   OH238617   5.068   0.363   8.529 -0.0487 -0.3107  0.1732
 5661TIP3    H138618   5.018   0.308   8.468 -0.4835 -1.2680  1.3538
 5661TIP3    H238619   5.009   0.434   8.552 -1.3000 -1.9307  2.2797
 5662TIP3   OH238620   0.681   0.875   6.402 -0.3755  0.5015  0.6587
 5662TIP3    H138621   0.671   0.928   6.481 -1.1797  1.8586 -0.3116
 5662TIP3    H238622   0.597   0.830   6.391 -1.1500  2.1357 -0.6419
 5663TIP3   OH238623   6.324   3.109   0.856 -0.0082 -0.1270 -0.4296
 5663TIP3    H138624   6.265   3.092   0.929  1.1126 -0.5656  0.4043
 5663TIP3    H238625   6.411   3.100   0.893  0.6155  1.2815 -1.4385
 5664TIP3   OH238626   1.749   6.617   7.776  0.5611 -0.9031 -0.4277
 5664TIP3    H138627   1.816   6.686   7.773  0.2037 -0.4482  0.9548
 5664TIP3    H238628   1.716   6.612   7.686 -1.6689  3.0843 -0.0746
 5665TIP3   OH238629   4.870   0.895   7.782 -0.2399 -0.2796  0.2041
 5665TIP3    H138630   4.813   0.850   7.844 -0.4111  3.3375  3.0046
 5665TIP3    H238631   4.810   0.947   7.728  0.1624 -0.1846 -0.1568
 5666TIP3   OH238632   3.464   3.555   1.478 -0.2835  0.3128 -0.3867
 5666TIP3    H138633   3.448   3.522   1.390  1.2912 -1.0920 -0.2141
 5666TIP3    H238634   3.501   3.642   1.465 -0.8104  0.4522 -1.0502
 5667TIP3   OH238635   6.554   5.324   8.336 -0.2387  0.5173 -0.4475
 5667TIP3    H138636   6.500   5.292   8.408 -1.1866 -0.6326 -1.6191
 5667TIP3    H238637   6.636   5.351   8.377 -1.4489  1.7586  1.3070
 5668TIP3   OH238638   5.199   0.602   2.377 -0.2425 -0.0324  0.0865
 5668TIP3    H138639   5.125   0.599   2.317 -0.5581  1.5665  0.3401
 5668TIP3    H238640   5.266   0.652   2.330 -1.0431  2.6134  1.5231
 5669TIP3   OH238641   4.060   3.701   8.529 -0.5205  0.1936 -0.1954
 5669TIP3    H138642   3.967   3.713   8.509 -0.3492 -0.2402 -1.2824
 5669TIP3    H238643   4.070   3.738   8.617 -1.4447  1.4709 -0.6026
 5670TIP3   OH238644   0.475   2.114   1.887 -0.1537 -0.2745  0.9433
 5670TIP3    H138645   0.556   2.155   1.916 -0.4976  1.1426  0.0211
 5670TIP3    H238646   0.426   2.185   1.845 -0.6148 -1.7187 -1.0916
 5671TIP3   OH238647   6.511   2.559   8.291  0.2881  0.3349  0.3366
 5671TIP3    H138648   6.472   2.525   8.211  0.3832 -0.3780  0.5835
 5671TIP3    H238649   6.583   2.499   8.310 -0.6725 -0.4120  1.7896
 5672TIP3   OH238650   4.441   2.297   0.483 -0.0540  0.1703  0.5918
 5672TIP3    H138651   4.524   2.344   0.490  0.2943 -0.4657  0.7807
 5672TIP3    H238652   4.427   2.260   0.570 -0.4630  0.1469  0.5182
 5673TIP3   OH238653   0.473   0.379   0.825 -0.0201 -0.3001 -0.0669
 5673TIP3    H138654   0.507   0.332   0.749 -2.0955  0.3596 -1.4876
 5673TIP3    H238655   0.442   0.310   0.883  1.3319 -0.8056  0.0976
 5674TIP3   OH238656   6.010   6.769   2.678  0.1280 -0.0965  0.4572
 5674TIP3    H138657   6.012   6.716   2.758  0.9140  1.5338  1.5696
 5674TIP3    H238658   5.933   6.736   2.630  1.1004 -2.8469  0.6069
 5675TIP3   OH238659   4.971   4.907   7.598  0.2617 -0.1956 -0.0884
 5675TIP3    H138660   5.011   4.859   7.525 -1.6323 -0.6932 -0.8511
 5675TIP3    H238661   4.904   4.848   7.632 -1.8192  1.6464 -0.7407
 5676TIP3   OH238662   1.784   0.782   1.443  0.0638 -0.3465  0.5582
 5676TIP3    H138663   1.849   0.795   1.374 -0.5489 -3.2850 -0.7448
 5676TIP3    H238664   1.831   0.734   1.511 -0.2004 -0.6158  0.5538
 5677TIP3   OH238665   3.103   5.948   0.783 -0.1863 -0.0688 -0.9201
 5677TIP3    H138666   3.137   5.877   0.838  1.1356  0.0681 -1.5447
 5677TIP3    H238667   3.015   5.919   0.759 -0.8043 -0.1599  1.1958
 5678TIP3   OH238668   3.579   1.634   0.130  0.2547 -0.4050 -0.8354
 5678TIP3    H138669   3.544   1.723   0.133 -0.0807 -0.5179 -1.3234
 5678TIP3    H238670   3.563   1.599   0.218  0.3014 -0.0170 -0.6712
 5679TIP3   OH238671   0.625   4.203   8.348  0.1290 -0.2299  0.2193
 5679TIP3    H138672   0.556   4.197   8.282 -1.5983 -0.4432  1.9482
 5679TIP3    H238673   0.598   4.142   8.417 -0.8581  3.3669  3.4009
 5680TIP3   OH238674   1.767   2.676   7.755 -0.2044 -0.4971  0.2100
 5680TIP3    H138675   1.710   2.727   7.698 -0.0096 -1.0393 -0.4746
 5680TIP3    H238676   1.854   2.682   7.716  0.1212 -0.0900  0.9721
 5681TIP3   OH238677   4.409   6.781   8.889 -0.0248 -0.1582 -0.0526
 5681TIP3    H138678   4.467   6.849   8.923 -0.2086  0.4826 -0.9648
 5681TIP3    H238679   4.350   6.761   8.962  1.2520 -0.7407  0.8441
 5682TIP3   OH238680   4.453   6.396   1.383  0.8521  0.7524  0.3111
 5682TIP3    H138681   4.451   6.492   1.385 -1.3273  0.8967 -2.3707
 5682TIP3    H238682   4.517   6.375   1.315 -0.1082  0.4574 -0.5410
 5683TIP3   OH238683   1.991   0.568   7.529  0.2809  0.2360 -0.7576
 5683TIP3    H138684   2.013   0.652   7.488 -0.7450  0.4737 -0.8556
 5683TIP3    H238685   2.035   0.502   7.475  2.9889  0.7667  0.5895
 5684TIP3   OH238686   5.808   2.259   8.002 -0.0180 -0.1329  0.5066
 5684TIP3    H138687   5.839   2.172   8.026 -0.1804 -0.1390  0.6943
 5684TIP3    H238688   5.816   2.261   7.906  1.3243  0.1530  0.5981
 5685TIP3   OH238689   4.890   5.953   0.272  0.4023  0.2226  0.1197
 5685TIP3    H138690   4.940   5.964   0.192 -0.7953  0.7661 -0.5926
 5685TIP3    H238691   4.851   5.866   0.265  0.1235  0.3559  0.0065
 5686TIP3   OH238692   1.412   4.144   8.015 -0.2082 -0.2555 -0.2310
 5686TIP3    H138693   1.367   4.228   8.017 -0.6627 -0.4894 -0.5730
 5686TIP3    H238694   1.471   4.150   7.940  0.5894  0.1725  0.4070
 5687TIP3   OH238695   5.703   4.645   6.618 -0.6921  0.6250 -0.6618
 5687TIP3    H138696   5.742   4.587   6.553 -0.8731 -0.0744 -0.1538
 5687TIP3    H238697   5.740   4.731   6.598  2.3945 -0.2325  0.7623
 5688TIP3   OH238698   1.838   1.557   1.805  0.0713  1.3905  0.3599
 5688TIP3    H138699   1.826   1.621   1.735  0.7645  2.6086  1.3067
 5688TIP3    H238700   1.886   1.605   1.873  1.4498 -0.4028  0.7256
 5689TIP3   OH238701   3.029   6.405   8.678  0.0590  0.2053  0.1644
 5689TIP3    H138702   2.958   6.423   8.739 -0.7153 -2.3137  0.1112
 5689TIP3    H238703   2.995   6.429   8.592  0.1397  1.1405  0.3832
 5690TIP3   OH238704   6.659   2.915   0.306  0.4192 -0.5098 -0.1299
 5690TIP3    H138705   6.568   2.886   0.304  0.2668 -0.0408 -0.0496
 5690TIP3    H238706   6.681   2.933   0.215  0.6801 -1.3735 -0.2476
 5691TIP3   OH238707   3.743   5.206   2.014  0.1297  0.2487 -0.6461
 5691TIP3    H138708   3.770   5.285   2.060  1.2814  0.4553 -1.6340
 5691TIP3    H238709   3.800   5.137   2.050 -2.6499 -0.8063  2.2142
 5692TIP3   OH238710   3.712   6.473   8.724  0.2629 -0.0321  0.0188
 5692TIP3    H138711   3.695   6.379   8.720  0.9654 -0.1172 -1.5744
 5692TIP3    H238712   3.789   6.481   8.781  2.1495 -0.7656 -2.2819
 5693TIP3   OH238713   5.491   2.516   1.020 -0.6432  0.0985  0.1226
 5693TIP3    H138714   5.515   2.594   1.070  0.7992  0.1292 -0.5936
 5693TIP3    H238715   5.441   2.550   0.945 -0.3841  0.3020  0.0405
 5694TIP3   OH238716   6.523   4.387   8.094 -0.5535 -0.1674  0.2935
 5694TIP3    H138717   6.579   4.340   8.032  1.0610  0.1717  1.4151
 5694TIP3    H238718   6.434   4.363   8.069  0.0304 -0.2267 -1.9764
 5695TIP3   OH238719   3.340   5.601   7.442 -0.2476 -0.0892 -0.3448
 5695TIP3    H138720   3.410   5.536   7.436 -0.4644 -0.5056  1.1612
 5695TIP3    H238721   3.355   5.659   7.368  1.6155 -0.2444 -0.1447
 5696TIP3   OH238722   5.857   1.941   0.565 -0.3859 -0.2462 -0.0272
 5696TIP3    H138723   5.784   1.939   0.502 -0.7175 -2.1337  0.3637
 5696TIP3    H238724   5.820   1.906   0.646  0.3613  1.0287  0.9010
 5697TIP3   OH238725   2.823   2.421   8.216 -0.4772  0.0996  0.2254
 5697TIP3    H138726   2.810   2.477   8.139 -0.2576  0.0725  0.1685
 5697TIP3    H238727   2.795   2.475   8.289 -1.2135 -0.0673  0.0761
 5698TIP3   OH238728   4.001   6.200   7.265  0.2443 -0.3097 -0.0608
 5698TIP3    H138729   4.010   6.106   7.284  0.1265 -0.6438 -1.5087
 5698TIP3    H238730   3.942   6.203   7.189 -2.3532  1.1166  1.8424
 5699TIP3   OH238731   0.579   2.997   7.065  0.2607  0.2988  0.1281
 5699TIP3    H138732   0.584   2.902   7.057  1.0979  0.3948 -0.6805
 5699TIP3    H238733   0.616   3.030   6.983  2.2768  1.3270  1.3591
 5700TIP3   OH238734   5.233   4.457   7.322  0.1575  0.5407 -0.4148
 5700TIP3    H138735   5.166   4.408   7.275 -0.0791  1.1003 -0.6730
 5700TIP3    H238736   5.315   4.431   7.281  0.0852 -0.0066 -0.2231
 5701TIP3   OH238737   0.700   1.798   8.810 -0.2491 -0.0717 -0.3386
 5701TIP3    H138738   0.772   1.744   8.842  0.3297  1.0603  0.3311
 5701TIP3    H238739   0.673   1.756   8.728  1.1979 -0.4860 -0.6290
 5702TIP3   OH238740   5.717   4.748   0.548  0.1272  0.2643 -0.0595
 5702TIP3    H138741   5.623   4.734   0.533  0.3385 -0.3862 -0.8414
 5702TIP3    H238742   5.730   4.726   0.640 -0.5509  0.7268  0.1552
 5703TIP3   OH238743   6.717   4.023   1.459  0.9091 -0.2095  0.4604
 5703TIP3    H138744   6.679   4.072   1.386 -0.2465 -2.3653 -0.4610
 5703TIP3    H238745   6.653   4.032   1.530 -0.0109 -1.4786 -0.1688
 5704TIP3   OH238746   2.798   1.253   7.084  0.0186  0.6238  0.0841
 5704TIP3    H138747   2.817   1.169   7.126  0.1565  0.1353 -0.9222
 5704TIP3    H238748   2.704   1.249   7.064  0.0794  0.5986 -0.1975
 5705TIP3   OH238749   5.499   5.166   1.428 -0.0507 -0.7459 -0.2271
 5705TIP3    H138750   5.411   5.203   1.423  0.3385  0.1469 -0.6414
 5705TIP3    H238751   5.504   5.106   1.353 -0.2694 -0.7168 -0.2660
 5706TIP3   OH238752   5.052   4.328   7.563 -0.1812 -0.5285  0.2212
 5706TIP3    H138753   5.108   4.405   7.574  1.0186 -1.3187 -0.1150
 5706TIP3    H238754   5.094   4.278   7.493  0.5239 -2.7172  2.1022
 5707TIP3   OH238755   1.521   5.834   1.988 -0.0952  0.1251 -0.4801
 5707TIP3    H138756   1.502   5.850   1.896 -2.3793  0.2504 -0.0406
 5707TIP3    H238757   1.554   5.918   2.020 -1.3629  0.7281 -0.7126
 5708TIP3   OH238758   2.940   1.354   7.814  0.5998 -0.1470 -0.3674
 5708TIP3    H138759   2.906   1.437   7.850 -1.8382 -0.0890 -2.5333
 5708TIP3    H238760   3.034   1.359   7.830  0.2388  1.8361  1.8951
 5709TIP3   OH238761   0.289   6.597   0.953 -0.4202  0.0630  0.1009
 5709TIP3    H138762   0.215   6.582   0.895 -0.9215 -0.0906  0.7592
 5709TIP3    H238763   0.249   6.622   1.036  0.3245  2.9840 -0.3308
 5710TIP3   OH238764   4.332   6.314   0.694  0.1644 -0.5884  0.0464
 5710TIP3    H138765   4.311   6.262   0.772 -1.0252 -1.5912 -0.9233
 5710TIP3    H238766   4.248   6.327   0.650  0.5876  1.2738 -0.3053
 5711TIP3   OH238767   4.935   1.793   7.177  0.0184  0.0877  0.6407
 5711TIP3    H138768   4.989   1.794   7.255 -0.1729  1.4080  0.7761
 5711TIP3    H238769   4.996   1.778   7.105  0.2755 -0.5000  0.9760
 5712TIP3   OH238770   4.536   5.852   1.351 -0.3710  0.5380  0.4422
 5712TIP3    H138771   4.608   5.858   1.288 -1.1267  1.6491 -0.3498
 5712TIP3    H238772   4.507   5.942   1.362 -1.4278  0.1384  1.0046
 5713TIP3   OH238773   3.426   1.980   1.777 -0.3050 -0.5196  0.4527
 5713TIP3    H138774   3.394   1.910   1.835 -1.3939  0.2045  0.7449
 5713TIP3    H238775   3.423   2.059   1.831  1.9321 -0.3796  0.4647
 5714TIP3   OH238776   0.263   6.570   7.277 -0.1597  0.1961 -0.3941
 5714TIP3    H138777   0.180   6.526   7.292  0.0034 -0.0212 -0.1262
 5714TIP3    H238778   0.326   6.499   7.267 -0.1374  0.3382 -1.4110
 5715TIP3   OH238779   2.529   0.788   7.990  0.5387 -0.5269  0.0570
 5715TIP3    H138780   2.593   0.717   7.982  0.0097 -1.1003  0.7879
 5715TIP3    H238781   2.552   0.832   8.072  1.2827  0.5899 -0.7246
 5716TIP3   OH238782   6.119   6.478   1.326 -0.3525  0.3648  0.2504
 5716TIP3    H138783   6.104   6.475   1.421  2.6012 -0.6196  0.7877
 5716TIP3    H238784   6.128   6.386   1.300  1.1987  0.6929 -0.4994
 5717TIP3   OH238785   1.033   1.025   0.132 -0.2811 -0.3179  0.3358
 5717TIP3    H138786   1.054   1.099   0.074 -0.3120 -0.6171 -0.0669
 5717TIP3    H238787   1.086   1.040   0.210 -0.9584  0.6005  0.6331
 5718TIP3   OH238788   3.972   1.947   1.423  0.3653  0.3814  0.5351
 5718TIP3    H138789   3.977   1.928   1.329 -1.0856  1.1813  0.2617
 5718TIP3    H238790   3.894   2.002   1.432 -0.1237 -0.5194  2.3493
 5719TIP3   OH238791   4.036   6.728   8.740 -0.6236 -0.4828  0.6503
 5719TIP3    H138792   3.984   6.780   8.801 -1.0253  0.3642 -0.3735
 5719TIP3    H238793   4.101   6.789   8.706 -1.3847 -0.4807 -0.9063
 5720TIP3   OH238794   3.042   6.537   1.537 -0.0678 -0.1759  0.1831
 5720TIP3    H138795   3.071   6.449   1.510 -0.0186 -0.0014 -0.3600
 5720TIP3    H238796   3.122   6.580   1.567  0.0556 -0.0526 -0.3087
 5721TIP3   OH238797   2.272   1.710   8.351 -0.5290  0.0524 -0.5700
 5721TIP3    H138798   2.324   1.648   8.403  1.4224  2.8158  1.0254
 5721TIP3    H238799   2.299   1.693   8.261 -1.0777 -2.2488 -0.3790
 5722TIP3   OH238800   1.704   6.240   0.979 -0.0354  0.0105 -0.0777
 5722TIP3    H138801   1.646   6.227   1.054  0.3007 -0.2297  0.1426
 5722TIP3    H238802   1.761   6.312   1.005 -0.7818  0.8293 -0.6307
 5723TIP3   OH238803   1.628   0.426   1.163 -0.1192 -0.7623  0.2630
 5723TIP3    H138804   1.664   0.514   1.163 -1.0677 -0.2996 -2.2073
 5723TIP3    H238805   1.699   0.371   1.130 -0.4771 -0.4225 -1.1126
 5724TIP3   OH238806   4.441   3.371   8.148  0.3430  0.2160  0.5652
 5724TIP3    H138807   4.469   3.458   8.178  0.2584 -0.2324  2.0364
 5724TIP3    H238808   4.520   3.318   8.155  0.3227  0.0895 -0.0636
 5725TIP3   OH238809   6.242   1.981   1.671 -0.4092  0.1103  0.1369
 5725TIP3    H138810   6.257   2.056   1.614 -1.4812 -0.6167 -1.1424
 5725TIP3    H238811   6.287   1.908   1.629 -0.9952 -0.3786  0.3275
 5726TIP3   OH238812   1.232   3.638   0.905  0.1249  0.1323 -0.0820
 5726TIP3    H138813   1.313   3.615   0.859  1.0012 -1.4548  2.0933
 5726TIP3    H238814   1.258   3.705   0.967 -0.0225 -0.8784  1.1096
 5727TIP3   OH238815   3.898   3.918   7.745 -0.3468 -0.1327 -0.1929
 5727TIP3    H138816   3.833   3.847   7.742  0.0448 -0.4607 -1.2324
 5727TIP3    H238817   3.880   3.971   7.668 -0.5099  0.8101  0.4780
 5728TIP3   OH238818   6.140   1.575   7.993 -0.3609 -0.4120  0.1056
 5728TIP3    H138819   6.082   1.508   8.030  0.2316 -0.1923  1.4760
 5728TIP3    H238820   6.216   1.576   8.051  0.5085  0.1204 -0.9974
 5729TIP3   OH238821   5.150   5.935   8.349  0.0741  0.0442  0.0640
 5729TIP3    H138822   5.117   6.018   8.383 -2.2295 -0.1632 -1.3936
 5729TIP3    H238823   5.218   5.959   8.287 -2.1667  1.1544 -2.1689
 5730TIP3   OH238824   2.504   6.235   0.798 -0.5710  0.4805 -0.0693
 5730TIP3    H138825   2.483   6.161   0.856  0.9589 -0.4221 -0.5958
 5730TIP3    H238826   2.538   6.303   0.857 -0.9453  0.3429  0.3081
 5731TIP3   OH238827   4.413   1.026   8.092  0.1636 -0.0433  0.4415
 5731TIP3    H138828   4.341   1.067   8.043 -0.3148 -1.2680  0.0883
 5731TIP3    H238829   4.374   1.002   8.176  0.1689 -0.6681  0.2674
 5732TIP3   OH238830   0.812   4.379   1.905  0.2255 -0.7074  0.2372
 5732TIP3    H138831   0.836   4.421   1.822  0.6357  0.3752  0.8823
 5732TIP3    H238832   0.717   4.391   1.911  0.0934 -1.3594 -0.3662
 5733TIP3   OH238833   1.676   4.494   8.905  0.3883  0.1351  0.2750
 5733TIP3    H138834   1.670   4.533   8.818  2.1163 -0.1684 -0.0241
 5733TIP3    H238835   1.719   4.561   8.958 -0.2773  0.1583  0.7937
 5734TIP3   OH238836   1.044   0.778   1.815 -1.1130 -0.0211 -0.0501
 5734TIP3    H138837   1.009   0.738   1.736  0.0978 -1.2021 -0.0089
 5734TIP3    H238838   1.001   0.732   1.887  1.5887 -2.6736  0.0448
 5735TIP3   OH238839   3.391   6.527   1.548 -0.0085  0.0484 -0.3699
 5735TIP3    H138840   3.468   6.548   1.600 -0.5602  1.3770 -0.0296
 5735TIP3    H238841   3.379   6.433   1.558 -0.4983  0.3318  2.4935
 5736TIP3   OH238842   4.503   5.200   6.496  0.2304 -0.1421  0.1155
 5736TIP3    H138843   4.438   5.129   6.497  0.5559 -0.5808 -2.6948
 5736TIP3    H238844   4.577   5.164   6.448  0.4202  2.0666 -1.3895
 5737TIP3   OH238845   0.204   0.512   0.863  0.2254 -0.7428 -0.0087
 5737TIP3    H138846   0.269   0.547   0.924  0.5039 -2.7548  0.9140
 5737TIP3    H238847   0.254   0.462   0.799 -0.2065  0.0231 -0.9700
 5738TIP3   OH238848   1.492   3.837   8.604  0.5798  0.2537 -0.7133
 5738TIP3    H138849   1.483   3.913   8.546 -0.0373  0.4849 -0.3187
 5738TIP3    H238850   1.407   3.794   8.600  0.7635 -0.1256 -0.5292
 5739TIP3   OH238851   2.613   3.036   6.387 -0.4021 -0.2961  0.6223
 5739TIP3    H138852   2.553   3.053   6.314  1.3217 -0.4314 -0.9133
 5739TIP3    H238853   2.625   2.941   6.385 -0.1314 -0.2675  0.8948
 5740TIP3   OH238854   1.056   0.075   8.527 -0.6144 -0.8284  0.2699
 5740TIP3    H138855   1.066   0.110   8.616  0.1966 -1.6996  0.5367
 5740TIP3    H238856   0.970   0.033   8.528 -0.8671 -0.3195  0.4554
 5741TIP3   OH238857   5.413   0.411   6.934 -0.1188  0.2357  0.5813
 5741TIP3    H138858   5.434   0.478   6.869  0.7418  0.0508  0.6551
 5741TIP3    H238859   5.373   0.460   7.006  0.1542  0.6223  0.4759
 5742TIP3   OH238860   2.550   2.519   8.594  0.5346 -0.3623  0.6501
 5742TIP3    H138861   2.547   2.447   8.530 -0.4808 -0.0413  0.3191
 5742TIP3    H238862   2.637   2.558   8.582 -0.1287  0.5822 -1.5439
 5743TIP3   OH238863   0.011   6.160   0.403 -0.1922 -0.0487 -0.0516
 5743TIP3    H138864   0.032   6.244   0.444  0.7034 -0.0586 -0.4649
 5743TIP3    H238865  -0.051   6.182   0.333 -0.0624  0.2573 -0.0741
 5744TIP3   OH238866   0.378   6.200   7.874  0.7167  0.2681  0.1970
 5744TIP3    H138867   0.332   6.280   7.851  1.0488  0.4647  0.2170
 5744TIP3    H238868   0.360   6.140   7.801  2.4046  1.1471 -1.0137
 5745TIP3   OH238869   3.892   6.594   0.071 -0.3615  0.3477 -0.0767
 5745TIP3    H138870   3.922   6.640  -0.008  0.7249 -0.4102 -0.1284
 5745TIP3    H238871   3.798   6.582   0.057 -0.4374  1.4510 -0.6176
 5746TIP3   OH238872   3.907   5.438   8.789  0.4017  0.5109 -0.0856
 5746TIP3    H138873   3.819   5.443   8.828  0.4095  1.6264 -0.1819
 5746TIP3    H238874   3.941   5.353   8.818 -0.8100 -0.0658 -0.2660
 5747TIP3   OH238875   0.511   1.806   7.630  0.6550  0.3310  0.0378
 5747TIP3    H138876   0.518   1.775   7.539  0.7205  0.7665 -0.1073
 5747TIP3    H238877   0.475   1.894   7.622  1.1557  0.5693  0.4117
 5748TIP3   OH238878   0.202   5.059   0.330 -0.4555  0.1992  0.0540
 5748TIP3    H138879   0.173   5.001   0.400  1.4063 -0.0619  0.6717
 5748TIP3    H238880   0.277   5.015   0.291 -0.2826  1.2329 -0.8466
 5749TIP3   OH238881   5.819   3.079   7.606  0.2488 -0.3367  0.1527
 5749TIP3    H138882   5.897   3.044   7.564  1.8412  1.3618  1.4963
 5749TIP3    H238883   5.810   3.028   7.687 -0.5438 -1.0621 -0.3763
 5750TIP3   OH238884   0.920   2.759   1.271  0.0916 -0.5519 -0.2234
 5750TIP3    H138885   0.985   2.691   1.252  2.1316  1.5749 -1.3513
 5750TIP3    H238886   0.967   2.841   1.258 -1.7996  1.1530  2.6445
 5751TIP3   OH238887   5.129   0.517   7.302  0.1712  0.0305  0.1498
 5751TIP3    H138888   5.202   0.529   7.241  0.2494 -1.9423 -0.2063
 5751TIP3    H238889   5.052   0.511   7.247 -0.0454  0.4202  0.4071
 5752TIP3   OH238890   1.816   3.895   7.950  0.4425  0.3968 -0.3068
 5752TIP3    H138891   1.804   3.839   7.874 -0.0345  0.2400 -0.1199
 5752TIP3    H238892   1.800   3.984   7.916 -0.7433  0.2478 -0.1950
 5753TIP3   OH238893   1.960   1.184   2.384  0.2811  0.0228  0.6487
 5753TIP3    H138894   1.927   1.242   2.316 -1.4315  1.0914  2.2680
 5753TIP3    H238895   2.003   1.243   2.447  1.2989 -0.8537  0.8005
 5754TIP3   OH238896   3.865   4.794   1.842 -0.4796 -0.4330 -0.3714
 5754TIP3    H138897   3.841   4.740   1.767  0.3098 -0.4660 -0.6112
 5754TIP3    H238898   3.789   4.851   1.856 -0.4439 -0.0724 -1.5163
 5755TIP3   OH238899   3.771   3.834   1.418  0.2763  0.0566  0.7497
 5755TIP3    H138900   3.819   3.775   1.476 -0.3590 -1.0288  0.1867
 5755TIP3    H238901   3.801   3.811   1.330 -1.7545 -1.1602  0.3037
 5756TIP3   OH238902   3.627   5.371   1.029  0.6204  0.2107 -0.3573
 5756TIP3    H138903   3.713   5.412   1.037  0.5817  0.9245 -2.7949
 5756TIP3    H238904   3.600   5.389   0.939 -2.0844 -0.0323  0.3233
 5757TIP3   OH238905   0.980   0.110   7.035 -0.3033  0.0246  0.4644
 5757TIP3    H138906   1.027   0.059   6.970 -1.2274  2.2259 -2.1247
 5757TIP3    H238907   0.963   0.194   6.992 -0.6358  1.8135  3.7158
 5758TIP3   OH238908   4.508   5.105   1.056 -1.1586 -0.4809 -0.2366
 5758TIP3    H138909   4.542   5.023   1.091 -1.1097  0.9120  3.5202
 5758TIP3    H238910   4.413   5.091   1.048 -0.9732 -1.3204 -1.0386
 5759TIP3   OH238911   0.253   1.363   7.248  0.6473 -0.2824 -0.4278
 5759TIP3    H138912   0.274   1.322   7.332  1.5024 -0.6834 -0.8286
 5759TIP3    H238913   0.192   1.433   7.271 -1.7144 -2.3871  0.1822
 5760TIP3   OH238914   6.336   2.347   8.569 -0.3094 -0.2086 -0.0923
 5760TIP3    H138915   6.403   2.308   8.514  0.3136 -0.7307  0.9974
 5760TIP3    H238916   6.273   2.385   8.508 -0.0033 -1.3696 -1.1650
 5761TIP3   OH238917   1.065   2.290   8.719  0.5906  0.5172 -0.1226
 5761TIP3    H138918   1.138   2.349   8.743  1.3248 -1.0428  1.7809
 5761TIP3    H238919   1.108   2.213   8.683 -0.0769 -0.4703  1.1220
 5762TIP3   OH238920   3.957   1.570   1.122 -0.4878 -0.4610 -0.9859
 5762TIP3    H138921   3.942   1.577   1.216  0.1871 -0.5641 -0.8682
 5762TIP3    H238922   3.870   1.557   1.085 -1.1160  2.0778 -0.6172
 5763TIP3   OH238923   5.289   6.427   7.875  0.2991  0.6875  0.8462
 5763TIP3    H138924   5.245   6.351   7.837 -0.7016  0.6242  2.0868
 5763TIP3    H238925   5.336   6.393   7.951  1.0384  1.0784  0.5812
 5764TIP3   OH238926   6.790   0.175   8.735 -0.0539  0.1706  0.6053
 5764TIP3    H138927   6.720   0.112   8.752 -0.2483  0.6325  1.6085
 5764TIP3    H238928   6.802   0.174   8.640  0.7009 -2.1793  0.6666
 5765TIP3   OH238929   2.350   6.112   2.234  0.0496 -0.5568  0.0332
 5765TIP3    H138930   2.441   6.112   2.262  0.0423  0.0063  0.0616
 5765TIP3    H238931   2.335   6.024   2.200  0.1883 -1.1363  1.3942
 5766TIP3   OH238932   4.111   2.111   1.123  0.2837  0.2361 -0.0155
 5766TIP3    H138933   4.052   2.183   1.100 -0.2241  0.1666  1.0364
 5766TIP3    H238934   4.056   2.033   1.120  0.0263  0.2954  2.0113
 5767TIP3   OH238935   3.057   0.988   7.124  0.4333 -0.5045  0.4096
 5767TIP3    H138936   2.965   0.973   7.144  0.1153 -0.0909 -0.6646
 5767TIP3    H238937   3.104   0.927   7.180 -0.5515 -1.5592  0.1282
 5768TIP3   OH238938   3.885   2.203   0.586  0.0627 -0.0657 -0.5528
 5768TIP3    H138939   3.948   2.186   0.516  1.1296 -0.7607  0.5394
 5768TIP3    H238940   3.918   2.282   0.630 -0.7904  0.5700 -1.0133
 5769TIP3   OH238941   1.014   5.262   1.967  0.3716  0.1814  0.2059
 5769TIP3    H138942   1.104   5.297   1.968 -0.6069  2.9544  0.8725
 5769TIP3    H238943   0.981   5.279   2.055 -0.8718 -0.6593 -0.0782
 5770TIP3   OH238944   1.746   3.249   1.800 -0.2387  0.1416 -0.1695
 5770TIP3    H138945   1.759   3.294   1.883  0.0918  2.7075 -1.5243
 5770TIP3    H238946   1.653   3.259   1.781 -0.2500 -0.1625 -0.2809
 5771TIP3   OH238947   4.162   6.497   1.629 -0.2501 -0.2965 -0.3724
 5771TIP3    H138948   4.131   6.536   1.711  0.3680 -0.0515 -0.2468
 5771TIP3    H238949   4.091   6.439   1.601 -0.8474  0.3106 -0.1413
 5772TIP3   OH238950   6.303   3.772   2.830  0.4452 -0.6129  0.1415
 5772TIP3    H138951   6.268   3.859   2.811 -1.3681 -1.0957  1.0091
 5772TIP3    H238952   6.302   3.726   2.746 -1.8146 -0.8386  0.2349
 5773TIP3   OH238953   2.480   5.406   8.508  0.7300 -0.2531 -0.2442
 5773TIP3    H138954   2.488   5.488   8.459 -1.1238  0.9853  1.3644
 5773TIP3    H238955   2.395   5.371   8.483  0.6934 -0.7091  0.4748
 5774TIP3   OH238956   0.435   1.070   7.717 -0.4191  0.3599  1.1021
 5774TIP3    H138957   0.493   1.121   7.774  1.4759 -0.3525 -0.1043
 5774TIP3    H238958   0.369   1.132   7.688  0.0850  1.3603  2.0266
 5775TIP3   OH238959   3.492   6.765   1.787 -0.2056 -0.2999  0.5690
 5775TIP3    H138960   3.566   6.792   1.842  0.2514 -0.1842 -0.0986
 5775TIP3    H238961   3.478   6.673   1.810  1.0268 -0.7193 -0.2734
 5776TIP3   OH238962   6.585   0.450   7.474  0.5288  0.0416  0.3862
 5776TIP3    H138963   6.594   0.379   7.411  2.2700  0.6490 -0.1196
 5776TIP3    H238964   6.581   0.407   7.559 -2.1623 -0.8090 -0.0605
 5777TIP3   OH238965   6.294   6.006   1.923 -0.6992 -0.0071 -0.1459
 5777TIP3    H138966   6.288   6.097   1.892  1.0670 -0.1670 -1.0780
 5777TIP3    H238967   6.384   5.998   1.955 -0.4608 -1.7398 -1.1301
 5778TIP3   OH238968   3.809   0.563   6.917 -0.1984  0.2169 -0.2383
 5778TIP3    H138969   3.817   0.657   6.900  0.4505  0.2418  0.2012
 5778TIP3    H238970   3.762   0.529   6.840  1.0737  0.6236 -1.2300
 5779TIP3   OH238971   5.764   4.814   7.437  0.1589  0.3564  0.5825
 5779TIP3    H138972   5.841   4.855   7.398  1.3144 -2.1651  0.0708
 5779TIP3    H238973   5.713   4.781   7.363 -0.2865  0.0615  1.0085
 5780TIP3   OH238974   2.787   0.669   1.505 -0.0580 -0.5615 -0.0208
 5780TIP3    H138975   2.729   0.669   1.581 -0.7639 -2.4170 -0.4943
 5780TIP3    H238976   2.728   0.674   1.430  0.5788  0.3389 -0.4765
 5781TIP3   OH238977   3.141   3.180   7.282  0.5718 -0.0760 -0.7486
 5781TIP3    H138978   3.176   3.102   7.326 -0.9006 -0.0580  0.5431
 5781TIP3    H238979   3.201   3.195   7.209  1.7265 -1.5490 -0.1617
 5782TIP3   OH238980   5.326   4.632   2.823 -0.6004 -0.4316 -0.3593
 5782TIP3    H138981   5.335   4.564   2.756  1.4857 -1.3440  0.7500
 5782TIP3    H238982   5.321   4.714   2.774 -1.1012 -1.2069 -1.6664
 5783TIP3   OH238983   2.631   3.971   0.336  0.0445 -0.2150  0.1271
 5783TIP3    H138984   2.683   3.891   0.348 -1.0938 -0.8490  1.0964
 5783TIP3    H238985   2.639   3.992   0.243  2.2631 -0.0960  0.2914
 5784TIP3   OH238986   0.701   6.670   0.402 -0.1775 -0.0823  0.1117
 5784TIP3    H138987   0.670   6.651   0.491 -3.0485  1.0935 -0.5167
 5784TIP3    H238988   0.646   6.617   0.345  1.8138 -1.0359 -1.0142
 5785TIP3   OH238989   3.186   6.421   2.339 -0.0720 -0.3874 -0.1040
 5785TIP3    H138990   3.207   6.385   2.253  0.8620 -3.2979  1.1702
 5785TIP3    H238991   3.120   6.361   2.374  0.3874  0.0388  1.5926
 5786TIP3   OH238992   6.063   4.878   7.709 -0.2509  0.0394  0.0653
 5786TIP3    H138993   6.110   4.949   7.666  1.5574 -1.4697 -0.6070
 5786TIP3    H238994   5.971   4.902   7.702  0.1416  1.1863 -2.2703
 5787TIP3   OH238995   4.635   4.817   0.399 -0.2210 -0.8755 -0.0277
 5787TIP3    H138996   4.686   4.774   0.468 -2.3240 -2.0103  0.9469
 5787TIP3    H238997   4.666   4.907   0.399  3.2149 -1.9332 -1.0047
 5788TIP3   OH238998   4.909   6.240   6.846 -0.2104  0.3407  0.0045
 5788TIP3    H138999   5.002   6.261   6.851 -0.4082  1.8078 -1.6543
 5788TIP3    H239000   4.894   6.219   6.754 -1.6363  0.6578  0.1444
 5789TIP3   OH239001   5.230   2.094   7.032 -0.0458  0.6200 -0.3383
 5789TIP3    H139002   5.253   2.187   7.034  0.1722  0.5662 -0.2475
 5789TIP3    H239003   5.232   2.068   7.124  2.0834  0.0031 -0.5061
 5790TIP3   OH239004   2.418   3.434   7.103 -0.8066 -0.2673 -0.1432
 5790TIP3    H139005   2.330   3.472   7.103 -0.3386  0.8800  0.6277
 5790TIP3    H239006   2.464   3.482   7.172 -0.0074 -1.8765  0.4757
 5791TIP3   OH239007   5.738   1.562   1.439 -0.3542 -0.1189  0.1466
 5791TIP3    H139008   5.700   1.476   1.456 -0.6404 -0.0979 -0.3842
 5791TIP3    H239009   5.741   1.604   1.525  0.2795 -0.8515  0.4969
 5792TIP3   OH239010   6.362   5.525   1.652  0.0519  0.3368  0.3154
 5792TIP3    H139011   6.296   5.552   1.717  1.2684 -0.4329  1.9438
 5792TIP3    H239012   6.433   5.487   1.704  1.5799  0.6783 -1.4129
 5793TIP3   OH239013   4.553   3.602   8.313  0.2538 -0.3986 -0.3976
 5793TIP3    H139014   4.568   3.567   8.401  1.3112  0.1761 -0.3276
 5793TIP3    H239015   4.500   3.680   8.327  1.6742  0.5567 -0.0828
 5794TIP3   OH239016   4.454   1.188   8.598  0.5343  0.5176 -0.4525
 5794TIP3    H139017   4.532   1.244   8.606  0.8261 -0.1022  2.1762
 5794TIP3    H239018   4.426   1.175   8.689 -2.0970 -0.0662 -1.2903
 5795TIP3   OH239019   3.067   5.535   8.124  0.2358  0.2638 -0.0751
 5795TIP3    H139020   3.129   5.598   8.087  0.1625  0.1493 -0.3986
 5795TIP3    H239021   3.120   5.478   8.180  0.5381 -0.2314 -0.8514
 5796TIP3   OH239022   2.704   3.803   8.889 -0.1087  0.2922  0.3785
 5796TIP3    H139023   2.684   3.720   8.932 -0.3447  0.9992  1.6747
 5796TIP3    H239024   2.622   3.830   8.848 -0.1136  0.0521  0.2271
 5797TIP3   OH239025   1.903   0.212   8.405  0.1613 -0.2075 -0.0053
 5797TIP3    H139026   1.997   0.198   8.409  0.2806  0.1435 -1.0410
 5797TIP3    H239027   1.882   0.263   8.482  1.0223  0.7054 -0.3614
 5798TIP3   OH239028   5.906   3.517   0.474 -0.5376 -0.7888  0.3849
 5798TIP3    H139029   5.901   3.433   0.428  0.3601 -1.0842  0.7932
 5798TIP3    H239030   5.866   3.500   0.559 -1.3573 -0.4961  0.0610
 5799TIP3   OH239031   6.097   4.908   1.411  0.2493  0.3415 -0.1931
 5799TIP3    H139032   6.165   4.895   1.477  0.2124 -1.1246 -0.3996
 5799TIP3    H239033   6.078   4.820   1.379  1.2314  1.0887 -3.1556
 5800TIP3   OH239034   5.809   4.465   2.174  0.1300  0.2218  0.0375
 5800TIP3    H139035   5.800   4.422   2.089 -0.8238 -1.1214  0.7761
 5800TIP3    H239036   5.815   4.393   2.237 -0.9633  1.1733  1.2809
 5801TIP3   OH239037   5.327   5.431   1.626  0.2273  0.3578  0.2807
 5801TIP3    H139038   5.379   5.445   1.547  1.4110  1.0020  1.1321
 5801TIP3    H239039   5.243   5.397   1.595  0.0605  2.1368 -1.3513
 5802TIP3   OH239040   2.046   2.694   8.663  0.2352  0.2656 -0.0777
 5802TIP3    H139041   2.123   2.648   8.628 -0.9315 -1.8520 -0.0006
 5802TIP3    H239042   2.001   2.727   8.585  0.1070 -0.3595 -0.2744
 5803TIP3   OH239043   4.029   0.602   6.650  0.5671  0.4369 -0.4824
 5803TIP3    H139044   3.940   0.627   6.627 -0.1564 -0.5529  1.0893
 5803TIP3    H239045   4.047   0.526   6.594  1.1444  1.7053 -2.1004
 5804TIP3   OH239046   0.942   1.347   2.054  0.3376  0.3027  0.6570
 5804TIP3    H139047   0.990   1.288   1.996 -0.3518 -0.8729  1.2400
 5804TIP3    H239048   0.933   1.298   2.135 -1.8380  0.4655  0.5670
 5805TIP3   OH239049   1.122   2.074   8.578 -0.4581  0.1504 -0.1716
 5805TIP3    H139050   1.111   2.001   8.638 -0.8931 -0.1804 -0.6435
 5805TIP3    H239051   1.185   2.043   8.514 -1.3431 -0.1766 -0.9132
 5806TIP3   OH239052   6.179   3.195   7.600  0.1838 -0.0716  0.2231
 5806TIP3    H139053   6.198   3.256   7.528 -0.4430  0.0029  0.1119
 5806TIP3    H239054   6.199   3.244   7.679 -1.2978  0.6770  0.1780
 5807TIP3   OH239055   2.631   4.671   2.057  0.3228 -0.1536  0.8192
 5807TIP3    H139056   2.609   4.714   2.139  1.7071 -0.3325  1.3152
 5807TIP3    H239057   2.713   4.625   2.075  2.0828  1.8473 -1.2695
 5808TIP3   OH239058   1.916   5.753   1.502  0.1669 -0.1952 -0.1138
 5808TIP3    H139059   1.909   5.659   1.520  1.1784 -0.4789 -1.1192
 5808TIP3    H239060   1.843   5.771   1.443 -1.0121  0.0093  1.3550
 5809TIP3   OH239061   3.810   5.840   8.171  0.4669  0.5329 -0.0190
 5809TIP3    H139062   3.887   5.789   8.196  1.1023  1.0811 -0.8105
 5809TIP3    H239063   3.845   5.910   8.115 -0.7144  0.2829 -1.0846
 5810TIP3   OH239064   5.384   6.770   6.710 -0.4741 -0.5249 -0.0003
 5810TIP3    H139065   5.391   6.789   6.804 -0.0823 -0.0055 -0.1282
 5810TIP3    H239066   5.411   6.852   6.667  1.8498 -1.5395 -0.5878
 5811TIP3   OH239067   2.194   2.947   8.138  0.3464 -0.2843  0.0195
 5811TIP3    H139068   2.266   2.939   8.075  1.1414 -0.5178  0.9366
 5811TIP3    H239069   2.115   2.948   8.084  1.0377  0.1249 -1.0222
 5812TIP3   OH239070   6.070   5.842   2.484  0.9214 -0.2010  0.2514
 5812TIP3    H139071   6.058   5.799   2.569  1.3156  1.0758  0.9748
 5812TIP3    H239072   6.150   5.892   2.494  1.4337 -0.6834 -1.1752
 5813TIP3   OH239073   0.121   2.735   7.623  0.7181  0.0821 -0.5481
 5813TIP3    H139074   0.081   2.733   7.536 -0.7213  0.1960  0.0821
 5813TIP3    H239075   0.087   2.814   7.664  0.4894 -0.5337  0.5093
 5814TIP3   OH239076   3.416   1.721   8.328  0.0080 -0.0523  0.5127
 5814TIP3    H139077   3.443   1.672   8.250 -0.4708  1.1837 -0.4647
 5814TIP3    H239078   3.321   1.710   8.331  0.0817 -0.5433  1.2509
 5815TIP3   OH239079   0.467   3.309   8.650  0.3263 -0.4156  0.2449
 5815TIP3    H139080   0.479   3.249   8.576 -1.4987  1.1305 -1.4432
 5815TIP3    H239081   0.375   3.297   8.675  0.3735  0.5375  0.9095
 5816TIP3   OH239082   0.478   2.175   7.335 -0.2998  0.1682 -0.7200
 5816TIP3    H139083   0.473   2.259   7.381  1.5036  0.5206 -1.1050
 5816TIP3    H239084   0.537   2.191   7.262  2.3993 -2.0906  0.7847
 5817TIP3   OH239085   1.660   6.576   0.831  0.2772  0.2328 -0.1003
 5817TIP3    H139086   1.720   6.502   0.824 -0.1666 -0.0308 -1.3026
 5817TIP3    H239087   1.587   6.554   0.773 -1.0679  0.4833  1.4243
 5818TIP3   OH239088   3.485   5.757   2.221  0.5299 -0.3777 -0.2542
 5818TIP3    H139089   3.443   5.695   2.281  2.2463  0.9303  2.4984
 5818TIP3    H239090   3.566   5.713   2.195 -0.7062 -1.4100 -2.6862
 5819TIP3   OH239091   2.102   1.161   8.177  0.1260  0.7375  0.1128
 5819TIP3    H139092   2.097   1.106   8.099  0.9175  0.1973  0.4366
 5819TIP3    H239093   2.118   1.249   8.143  0.3653  0.5198 -0.3461
 5820TIP3   OH239094   3.928   3.158   1.085 -0.3194  0.5346 -0.0642
 5820TIP3    H139095   3.918   3.064   1.102  1.5172  0.3616  0.3569
 5820TIP3    H239096   3.948   3.163   0.992 -2.0441  0.6952 -0.4578
 5821TIP3   OH239097   3.529   0.094   1.538 -0.0190 -0.4058 -0.3120
 5821TIP3    H139098   3.451   0.150   1.539  0.5470  0.3813  0.8929
 5821TIP3    H239099   3.520   0.039   1.615  0.0060 -1.2081 -0.8664
 5822TIP3   OH239100   6.747   5.992   8.161 -0.4217 -0.0907  0.6448
 5822TIP3    H139101   6.688   6.060   8.193  0.9547  1.3851  0.1343
 5822TIP3    H239102   6.832   6.034   8.155  0.6035 -2.0388  0.8691
 5823TIP3   OH239103   4.853   6.576   1.734  0.5814  0.1869 -0.1712
 5823TIP3    H139104   4.813   6.662   1.719 -1.7156 -0.9331 -0.9260
 5823TIP3    H239105   4.867   6.572   1.828 -0.5726  0.8930  0.0494
 5824TIP3   OH239106   0.578   5.926   8.661  0.0516  0.8196  0.5210
 5824TIP3    H139107   0.601   6.018   8.647 -1.1491  1.3053  1.5047
 5824TIP3    H239108   0.659   5.886   8.692  0.4973  1.6506  0.4631
 5825TIP3   OH239109   5.688   1.626   7.893 -1.3100  0.1306  0.1357
 5825TIP3    H139110   5.655   1.563   7.957 -1.1623 -1.0782 -0.9473
 5825TIP3    H239111   5.743   1.686   7.944  1.3631 -2.5934  0.7461
 5826TIP3   OH239112   3.405   5.692   8.857  0.0196 -0.6246 -0.6697
 5826TIP3    H139113   3.483   5.709   8.911 -1.1457  1.7600  0.3828
 5826TIP3    H239114   3.424   5.733   8.773  0.2217 -0.7959 -0.7090
 5827TIP3   OH239115   2.267   3.550   1.188  0.1189 -0.2010  0.2592
 5827TIP3    H139116   2.277   3.457   1.212  0.5778 -0.0557  0.6405
 5827TIP3    H239117   2.227   3.548   1.101 -0.7229 -0.7488  0.6393
 5828TIP3   OH239118   6.211   0.126   7.101 -0.2044 -0.1253 -0.1078
 5828TIP3    H139119   6.122   0.112   7.134 -0.1519  0.1005  0.1385
 5828TIP3    H239120   6.258   0.045   7.123  0.6094  1.0193  3.0237
 5829TIP3   OH239121   4.642   4.930   7.972 -0.4705 -0.1774  0.3956
 5829TIP3    H139122   4.703   4.996   7.939 -0.0218  0.5484  2.5229
 5829TIP3    H239123   4.657   4.854   7.916  1.0212  0.6019 -0.3329
 5830TIP3   OH239124   4.334   4.551   1.274  0.5860 -0.0511  0.4508
 5830TIP3    H139125   4.258   4.606   1.254  1.7828  2.2726  1.7836
 5830TIP3    H239126   4.336   4.485   1.205 -0.5959  2.0150 -1.6810
 5831TIP3   OH239127   4.089   5.608   7.325 -0.3489  0.1287  0.1925
 5831TIP3    H139128   4.123   5.521   7.301 -0.4050  0.0508  0.3956
 5831TIP3    H239129   4.163   5.652   7.366  0.2402  0.8571 -1.5654
 5832TIP3   OH239130   5.186   1.945   1.992  0.2050 -0.5156 -0.0793
 5832TIP3    H139131   5.148   1.908   2.072  1.0754  1.9619  1.6298
 5832TIP3    H239132   5.148   2.032   1.986  0.7507 -0.3742 -1.9855
 5833TIP3   OH239133   4.716   5.775   1.156  0.2800  0.0572  0.2667
 5833TIP3    H139134   4.811   5.771   1.168  0.3700  1.0421 -0.0173
 5833TIP3    H239135   4.704   5.768   1.061 -0.0019 -0.9576  0.3618
 5834TIP3   OH239136   3.198   4.384   0.806  0.4159  0.1221 -0.1414
 5834TIP3    H139137   3.205   4.463   0.752 -1.3334  0.7746  0.4948
 5834TIP3    H239138   3.151   4.413   0.884  0.7361 -1.3273  0.6231
 5835TIP3   OH239139   1.881   4.172   8.894  0.0299  0.2168  0.5983
 5835TIP3    H139140   1.942   4.241   8.918 -1.6271  1.6555  0.8779
 5835TIP3    H239141   1.893   4.105   8.961 -0.1681  1.4171  1.8681
 5836TIP3   OH239142   4.250   5.162   2.016  0.0122  0.5027 -0.2171
 5836TIP3    H139143   4.207   5.234   2.062  1.3446  2.2625 -1.5438
 5836TIP3    H239144   4.341   5.192   2.005  0.7474 -1.6386 -0.3502
 5837TIP3   OH239145   4.787   5.119   7.442  1.5133  0.1310 -0.0004
 5837TIP3    H139146   4.844   5.044   7.460  1.9557  0.9490  2.3837
 5837TIP3    H239147   4.803   5.179   7.515 -0.3709  1.6280 -0.7381
 5838TIP3   OH239148   2.593   2.310   6.507  0.0519  0.3483  0.1949
 5838TIP3    H139149   2.642   2.386   6.478 -1.3716  0.4508 -2.2442
 5838TIP3    H239150   2.512   2.346   6.544 -0.7829  0.0933 -1.2853
 5839TIP3   OH239151   4.812   1.533   0.034 -0.3539  0.3455 -0.1083
 5839TIP3    H139152   4.738   1.479   0.006 -0.1445  1.0011 -2.0383
 5839TIP3    H239153   4.849   1.486   0.110 -1.4935 -1.0511 -0.3854
 5840TIP3   OH239154   6.222   2.342   2.305 -0.0680 -0.1307  0.2082
 5840TIP3    H139155   6.184   2.427   2.328  0.9314  0.0109  1.4257
 5840TIP3    H239156   6.172   2.279   2.355  0.5417 -0.0503  0.9319
 5841TIP3   OH239157   1.103   3.899   7.473 -0.1225  0.4571  0.0488
 5841TIP3    H139158   1.177   3.844   7.501 -0.4129 -0.2626 -0.5568
 5841TIP3    H239159   1.052   3.913   7.553  1.2726  1.9622  0.7405
 5842TIP3   OH239160   6.577   3.521   8.084  0.7744  0.0664 -0.2682
 5842TIP3    H139161   6.652   3.514   8.142  2.4156 -0.2878 -2.3328
 5842TIP3    H239162   6.614   3.520   7.995 -1.6889 -0.6474 -1.3848
 5843TIP3   OH239163   3.508   4.115   7.461  0.1911  0.3247 -0.5341
 5843TIP3    H139164   3.415   4.099   7.447  0.1134 -0.3785  0.7230
 5843TIP3    H239165   3.540   4.038   7.506  1.2328  0.8811 -0.2842
 5844TIP3   OH239166   4.368   5.749   8.526  0.1503 -0.1750  0.0326
 5844TIP3    H139167   4.367   5.667   8.476 -0.0975  0.6059 -1.3074
 5844TIP3    H239168   4.281   5.787   8.510  0.9345  1.2668 -1.0040
 5845TIP3   OH239169   0.304   0.229   0.464  1.1472 -0.3273 -0.2982
 5845TIP3    H139170   0.253   0.150   0.477 -0.3925  0.7100  0.2017
 5845TIP3    H239171   0.375   0.223   0.528  1.1639 -1.3663 -0.3958
 5846TIP3   OH239172   4.953   2.406   6.877 -0.9455  0.0546 -0.2949
 5846TIP3    H139173   4.956   2.310   6.871  0.8270  0.1530 -2.4403
 5846TIP3    H239174   4.950   2.424   6.971 -1.0438 -2.0997  0.1755
 5847TIP3   OH239175   0.199   2.009   7.885 -0.5722 -0.5607  0.2444
 5847TIP3    H139176   0.120   1.962   7.909 -1.4893 -0.4016 -2.1484
 5847TIP3    H239177   0.271   1.952   7.914 -1.5974 -1.6184  0.7716
 5848TIP3   OH239178   5.199   0.592   1.833  0.0029 -0.2307 -0.2508
 5848TIP3    H139179   5.162   0.612   1.746 -1.1254  1.3527  0.5450
 5848TIP3    H239180   5.292   0.609   1.823 -0.4424  2.5377 -0.5415
 5849TIP3   OH239181   1.396   0.657   8.583  0.3642  0.1848  0.3686
 5849TIP3    H139182   1.491   0.665   8.590  0.8054 -3.6384  0.9047
 5849TIP3    H239183   1.368   0.629   8.670 -0.8754 -1.1905 -0.4325
 5850TIP3   OH239184   2.750   0.640   8.709 -0.6515  0.0398 -0.5520
 5850TIP3    H139185   2.673   0.611   8.659 -0.0181  0.0762 -1.5721
 5850TIP3    H239186   2.810   0.674   8.643 -0.1278  0.8730  0.3249
 5851TIP3   OH239187   2.446   3.496   6.387 -0.1099 -0.2761 -0.1285
 5851TIP3    H139188   2.493   3.562   6.335  1.2112 -0.8949  0.2356
 5851TIP3    H239189   2.430   3.424   6.326 -0.7675  0.0070 -0.2983
 5852TIP3   OH239190   0.476   2.345   0.246 -0.5364 -0.3379 -0.0825
 5852TIP3    H139191   0.503   2.254   0.235 -0.1643 -0.0271 -2.0255
 5852TIP3    H239192   0.461   2.354   0.340 -0.2077 -2.2904  0.2007
 5853TIP3   OH239193   2.548   2.992   1.820 -0.0144 -0.0861  0.7825
 5853TIP3    H139194   2.634   3.028   1.841  0.8662 -0.5398 -1.7080
 5853TIP3    H239195   2.536   3.012   1.727 -2.3260 -0.6342  0.8981
 5854TIP3   OH239196   3.963   5.118   7.382  0.7456  0.7497 -0.2937
 5854TIP3    H139197   3.886   5.076   7.419 -0.4822  1.4789 -1.8662
 5854TIP3    H239198   3.973   5.199   7.432 -0.0474  1.0628 -0.6240
 5855TIP3   OH239199   1.107   4.208   0.452 -0.0611  0.0861 -0.1914
 5855TIP3    H139200   1.020   4.178   0.477 -0.2044  0.6110 -0.0364
 5855TIP3    H239201   1.095   4.301   0.429  0.4876  0.2141  0.0136
 5856TIP3   OH239202   2.859   5.940   2.209 -0.5137  0.1324 -0.1513
 5856TIP3    H139203   2.899   5.854   2.210  0.6830  0.6368  1.6776
 5856TIP3    H239204   2.867   5.970   2.119  0.3913 -1.0609 -0.4828
 5857TIP3   OH239205   6.404   3.626   1.285 -0.4268 -0.1273 -0.0816
 5857TIP3    H139206   6.350   3.688   1.236  0.7975  2.1175  1.2427
 5857TIP3    H239207   6.373   3.635   1.376  1.1626  0.1508  0.4645
 5858TIP3   OH239208   5.704   0.089   7.672 -0.3518  0.4689 -0.1736
 5858TIP3    H139209   5.619   0.065   7.709 -0.4041  0.8412 -0.0441
 5858TIP3    H239210   5.723   0.021   7.608 -0.1932 -0.2744  0.6376
 5859TIP3   OH239211   0.465   5.075   7.970 -0.1118  0.1824 -0.5696
 5859TIP3    H139212   0.472   5.012   8.042  0.0352 -1.0066 -1.5855
 5859TIP3    H239213   0.372   5.094   7.964 -0.0917  0.5356  0.1292
 5860TIP3   OH239214   2.651   2.610   1.750 -0.4696 -0.1298 -0.2864
 5860TIP3    H139215   2.680   2.618   1.659  0.6624  1.9271  0.1764
 5860TIP3    H239216   2.729   2.631   1.801 -1.2340 -0.6704  1.1544
 5861TIP3   OH239217   0.240   3.140   0.713 -0.2525  0.6248 -0.1054
 5861TIP3    H139218   0.240   3.093   0.630 -0.0803 -0.6274  0.5802
 5861TIP3    H239219   0.281   3.225   0.693  1.6718 -0.4341 -0.8864
 5862TIP3   OH239220   1.213   5.728   7.148  0.7932 -0.2991  0.3206
 5862TIP3    H139221   1.284   5.675   7.111  0.5809 -0.4266  0.0929
 5862TIP3    H239222   1.254   5.812   7.166  0.1923  0.9544 -3.3256
 5863TIP3   OH239223   1.943   1.754   1.980 -0.6529  0.0578  0.5645
 5863TIP3    H139224   1.888   1.826   1.949 -0.7830 -0.6179 -0.8662
 5863TIP3    H239225   1.919   1.744   2.072 -2.6812  0.0352  0.0826
 5864TIP3   OH239226   2.781   2.408   1.244 -0.0625  0.4852 -0.5568
 5864TIP3    H139227   2.832   2.461   1.183  1.1785 -0.5150 -0.4337
 5864TIP3    H239228   2.715   2.366   1.189 -0.9461  1.9923 -0.6786
 5865TIP3   OH239229   5.440   5.962   1.711  0.0578 -0.2868 -0.2354
 5865TIP3    H139230   5.413   5.989   1.799  0.9252  0.7008 -0.2600
 5865TIP3    H239231   5.393   5.880   1.696  0.5551 -0.9314  1.4957
 5866TIP3   OH239232   1.314   0.418   8.085  0.2490 -0.3048  1.3695
 5866TIP3    H139233   1.389   0.467   8.051  1.5794 -2.1452  1.5132
 5866TIP3    H239234   1.345   0.328   8.092 -2.7786 -1.7443 -1.1338
 5867TIP3   OH239235   4.238   4.389   6.329  0.1685  0.4789 -0.2991
 5867TIP3    H139236   4.239   4.482   6.350  0.3627  0.5394 -0.5627
 5867TIP3    H239237   4.159   4.377   6.277  0.4802  0.6279 -0.8194
 5868TIP3   OH239238   5.512   2.590   0.722  0.2723  0.0014  0.4362
 5868TIP3    H139239   5.521   2.683   0.699 -0.0648 -0.1185 -0.2052
 5868TIP3    H239240   5.594   2.550   0.692  0.2900  0.0422  0.4303
 5869TIP3   OH239241   3.018   5.837   7.672 -0.4725  0.3605 -1.0526
 5869TIP3    H139242   2.950   5.784   7.714 -0.3708 -0.4201 -1.8315
 5869TIP3    H239243   3.002   5.926   7.704 -0.0904 -0.2558  1.0163
 5870TIP3   OH239244   0.313   1.842   0.815 -0.0634 -0.6350  0.7135
 5870TIP3    H139245   0.344   1.932   0.824  1.0241 -1.0384  1.3134
 5870TIP3    H239246   0.221   1.845   0.840  0.4128  0.0259  2.5742
 5871TIP3   OH239247   4.096   2.227   8.154  0.2540  0.0289 -0.0016
 5871TIP3    H139248   4.117   2.239   8.247 -0.5685 -2.4501  0.5812
 5871TIP3    H239249   4.179   2.206   8.113  0.5645  0.7587  0.2411
 5872TIP3   OH239250   3.866   5.697   7.856 -0.3987 -0.4885  0.2846
 5872TIP3    H139251   3.853   5.783   7.897  1.1893  0.5812 -1.2444
 5872TIP3    H239252   3.870   5.717   7.762 -2.8706 -2.6697 -0.3797
 5873TIP3   OH239253   6.160   3.954   2.406  0.3174  0.0040 -0.0119
 5873TIP3    H139254   6.083   3.959   2.462  0.1101  3.2611 -0.4006
 5873TIP3    H239255   6.151   4.028   2.346  2.8694 -0.5803 -1.2578
 5874TIP3   OH239256   5.737   2.977   8.079  0.1288 -0.0643 -0.1680
 5874TIP3    H139257   5.803   2.964   8.148  1.3743 -0.6482 -1.4263
 5874TIP3    H239258   5.780   2.950   7.999 -1.0819  1.1987 -1.3010
 5875TIP3   OH239259   5.596   1.866   0.149  0.6674  0.2713 -0.5880
 5875TIP3    H139260   5.585   1.805   0.076 -0.3635 -0.2559 -0.0217
 5875TIP3    H239261   5.645   1.939   0.113  1.4593 -0.6556 -1.4204
 5876TIP3   OH239262   0.442   5.163   8.376  0.8624 -0.0451 -0.4335
 5876TIP3    H139263   0.356   5.131   8.350  0.2057  0.8932  0.4752
 5876TIP3    H239264   0.455   5.241   8.322  0.8211  0.2127 -0.0718
 5877TIP3   OH239265   1.723   1.705   7.678  0.0868 -0.1347 -0.2075
 5877TIP3    H139266   1.799   1.762   7.662  0.5301 -0.7581 -0.3393
 5877TIP3    H239267   1.648   1.760   7.656  0.3661  1.2064  1.8417
 5878TIP3   OH239268   5.882   2.656   8.562 -0.1047  0.2335 -0.0507
 5878TIP3    H139269   5.807   2.611   8.523 -0.0174  0.7353 -0.8310
 5878TIP3    H239270   5.844   2.723   8.618 -0.2472  0.3455 -0.2790
 5879TIP3   OH239271   4.032   5.053   0.910  0.0102  0.0259  0.6485
 5879TIP3    H139272   4.045   5.148   0.906  1.4075 -0.1472  0.1778
 5879TIP3    H239273   4.116   5.020   0.943 -0.0682 -1.1119 -0.2386
 5880TIP3   OH239274   0.549   4.446   8.392  0.3240 -0.0691 -0.5218
 5880TIP3    H139275   0.611   4.377   8.370 -0.9217 -0.8680 -1.7003
 5880TIP3    H239276   0.465   4.401   8.401  0.0811  0.7772  2.3179
 5881TIP3   OH239277   5.771   2.532   0.629  0.0835 -0.0719  0.6189
 5881TIP3    H139278   5.845   2.588   0.605  0.7250  0.0713  2.7869
 5881TIP3    H239279   5.811   2.451   0.661 -0.7456 -0.4891  0.6274
 5882TIP3   OH239280   1.473   0.756   0.155  0.1250 -0.1498  0.1678
 5882TIP3    H139281   1.505   0.728   0.241  0.4787 -1.2034 -0.2811
 5882TIP3    H239282   1.380   0.771   0.167 -0.5801 -3.5188  0.0682
 5883TIP3   OH239283   3.120   1.072   0.710 -0.6166  0.4681 -0.3420
 5883TIP3    H139284   3.159   1.139   0.767 -1.3788  0.0055  0.7449
 5883TIP3    H239285   3.135   0.990   0.757 -1.9443  0.1654 -0.4125
 5884TIP3   OH239286   2.726   4.750   8.779 -0.0357  0.1616  0.6013
 5884TIP3    H139287   2.712   4.689   8.706  1.0018 -0.1549  0.6529
 5884TIP3    H239288   2.743   4.834   8.736 -3.6306  1.0045  0.5325
 5885TIP3   OH239289   5.704   2.353   1.287  0.0148 -0.0189 -1.1494
 5885TIP3    H139290   5.718   2.446   1.307  2.3027 -0.4673 -0.3421
 5885TIP3    H239291   5.692   2.350   1.193 -1.1095  1.1847 -1.0637
 5886TIP3   OH239292   2.626   1.650   1.944 -0.2205 -0.4363 -0.1002
 5886TIP3    H139293   2.693   1.609   1.998 -0.0608  0.6479  0.5424
 5886TIP3    H239294   2.668   1.663   1.859 -0.3195 -1.7038 -0.3676
 5887TIP3   OH239295   5.948   2.967   0.992 -0.4312  0.0044 -0.0502
 5887TIP3    H139296   5.998   3.020   1.054 -1.3930 -0.1138  0.8769
 5887TIP3    H239297   6.001   2.889   0.979 -0.1774  0.0625  0.5905
 5888TIP3   OH239298   3.021   1.591   0.216  0.0672  0.2696 -0.0477
 5888TIP3    H139299   3.078   1.656   0.258  1.2622 -1.8139  1.8011
 5888TIP3    H239300   3.070   1.562   0.139  0.2718  0.4175  0.0259
 5889TIP3   OH239301   5.957   0.977   8.027 -0.2472  0.2835  0.4843
 5889TIP3    H139302   6.052   0.971   8.018 -0.1411  0.4703  1.4768
 5889TIP3    H239303   5.931   0.889   8.055 -0.5450 -0.1875 -1.1193
 5890TIP3   OH239304   4.425   6.425   8.601 -0.2847  0.4112 -0.0659
 5890TIP3    H139305   4.413   6.460   8.690  0.2685  0.3798  0.0247
 5890TIP3    H239306   4.378   6.488   8.545 -0.4925  0.5245  0.2283
 5891TIP3   OH239307   1.280   5.349   1.220  0.5704  0.4301 -0.1911
 5891TIP3    H139308   1.325   5.273   1.255 -0.6459 -1.6305 -2.7112
 5891TIP3    H239309   1.342   5.388   1.158  0.2714 -0.2276 -0.9367
 5892TIP3   OH239310   6.758   0.091   6.370  0.7731  0.5490  0.2662
 5892TIP3    H139311   6.781   0.154   6.438  1.0892 -0.7984  1.4748
 5892TIP3    H239312   6.706   0.024   6.416  2.0350 -1.0500 -0.5204
 5893TIP3   OH239313   0.001   1.772   8.903  0.3220 -0.5196 -0.2467
 5893TIP3    H139314   0.055   1.779   8.982  0.2786  0.5886 -0.3008
 5893TIP3    H239315   0.013   1.682   8.874 -0.0640 -1.1167  1.3132
 5894TIP3   OH239316   4.483   4.079   0.703 -0.1451  0.3300 -0.0609
 5894TIP3    H139317   4.527   4.033   0.631  0.0167  1.3004 -0.5964
 5894TIP3    H239318   4.433   4.011   0.748  0.8842 -0.5600 -0.2146
 5895TIP3   OH239319   4.761   4.964   0.057  0.1231  0.1707 -0.0745
 5895TIP3    H139320   4.688   4.918   0.097  0.2681  0.5422  0.6420
 5895TIP3    H239321   4.805   5.007   0.131  1.4663 -0.5956 -0.3874
 5896TIP3   OH239322   5.637   2.237   0.405  0.2185 -0.0691  0.2538
 5896TIP3    H139323   5.712   2.264   0.458  0.1852  1.2048 -0.3151
 5896TIP3    H239324   5.643   2.289   0.326 -2.0545  1.1369  0.7925
 5897TIP3   OH239325   4.748   6.530   0.308 -0.8497  0.7837 -0.0956
 5897TIP3    H139326   4.818   6.567   0.256 -0.7266 -0.2378 -0.6944
 5897TIP3    H239327   4.782   6.527   0.397 -0.0522  0.1472 -0.4095
 5898TIP3   OH239328   6.734   2.960   0.052 -0.2846 -0.3107 -0.0215
 5898TIP3    H139329   6.825   2.932   0.052  0.4422  1.8092 -1.1194
 5898TIP3    H239330   6.711   2.970  -0.040 -1.0007  0.9818  0.2681
 5899TIP3   OH239331   5.561   5.747   2.398  0.3774  0.1202  0.2846
 5899TIP3    H139332   5.593   5.664   2.363 -0.8290 -0.0603 -0.4596
 5899TIP3    H239333   5.493   5.774   2.337 -1.8011 -0.1683  2.3985
 5900TIP3   OH239334   3.413   2.196   7.280 -0.0375  0.5070 -0.3215
 5900TIP3    H139335   3.445   2.153   7.201  0.7529  0.0587  0.2315
 5900TIP3    H239336   3.490   2.237   7.319  0.0025 -0.9378  1.2493
 5901TIP3   OH239337   5.540   3.389   0.872  0.1339 -0.5112  0.1515
 5901TIP3    H139338   5.504   3.308   0.837  1.8635 -1.6595  0.8757
 5901TIP3    H239339   5.538   3.378   0.967  1.1489 -0.0728  0.2410
 5902TIP3   OH239340   4.159   4.628   7.219 -0.0107  0.2112 -0.0339
 5902TIP3    H139341   4.066   4.635   7.242 -0.0697 -1.3411  0.3462
 5902TIP3    H239342   4.204   4.640   7.303  0.5195  5.4213 -0.7446
 5903TIP3   OH239343   2.576   1.119   8.153  0.9021  0.6113  0.0714
 5903TIP3    H139344   2.550   1.153   8.067  1.0373 -0.2360 -0.3155
 5903TIP3    H239345   2.500   1.071   8.184  0.5191  1.6751  0.8591
 5904TIP3   OH239346   0.693   4.223   7.589  0.0267  0.1191  0.4895
 5904TIP3    H139347   0.686   4.245   7.682  1.7549 -2.1731  1.2551
 5904TIP3    H239348   0.635   4.148   7.577  0.5735 -0.2405 -0.0157
 5905TIP3   OH239349   5.606   5.990   0.269 -0.2024 -0.2395 -0.0483
 5905TIP3    H139350   5.686   6.001   0.321  1.1634  3.1360 -2.5241
 5905TIP3    H239351   5.635   5.943   0.191 -0.7552  0.5227 -0.7211
 5906TIP3   OH239352   2.639   6.387   1.688  0.1519  0.5126  0.4966
 5906TIP3    H139353   2.550   6.371   1.656 -0.1817 -0.3042  1.7529
 5906TIP3    H239354   2.630   6.463   1.745  0.4501  1.0245 -0.1347
 5907TIP3   OH239355   6.263   3.386   7.424 -0.4319 -0.2029  0.5624
 5907TIP3    H139356   6.291   3.445   7.494 -1.0950 -0.5492  1.1309
 5907TIP3    H239357   6.341   3.373   7.371 -0.3420  1.4636  0.2171
 5908TIP3   OH239358   5.901   6.378   8.772  0.3728 -0.2503  0.1627
 5908TIP3    H139359   5.938   6.330   8.699  1.5875  0.1787  0.4650
 5908TIP3    H239360   5.948   6.462   8.772 -0.1642  0.0667  0.9382
 5909TIP3   OH239361   1.454   0.851   6.642  0.3065 -0.3558  0.2632
 5909TIP3    H139362   1.445   0.928   6.698  0.8836 -1.1315  1.4698
 5909TIP3    H239363   1.443   0.777   6.701 -2.1718 -1.2607 -1.1706
 5910TIP3   OH239364   0.833   4.173   8.075  0.2468 -0.0275 -0.2392
 5910TIP3    H139365   0.928   4.162   8.075  0.1069 -2.2008  2.2242
 5910TIP3    H239366   0.811   4.197   8.165 -1.5222  1.4159 -0.9766
 5911TIP3   OH239367   6.318   4.855   0.081 -0.3217  0.1293 -0.4942
 5911TIP3    H139368   6.393   4.833   0.136 -0.3952  0.1408 -0.3895
 5911TIP3    H239369   6.257   4.900   0.140 -0.8009 -0.6755 -0.3715
 5912TIP3   OH239370   6.203   0.941   7.939 -0.3142 -0.2627 -0.8866
 5912TIP3    H139371   6.175   1.015   7.885 -0.7911  0.7596  0.7073
 5912TIP3    H239372   6.297   0.955   7.952 -0.9447  2.0181  2.1629
 5913TIP3   OH239373   5.704   4.539   0.343 -0.7170  0.2656 -0.3329
 5913TIP3    H139374   5.767   4.593   0.391  0.7869 -3.0256  1.7875
 5913TIP3    H239375   5.644   4.506   0.410 -2.4304  0.3954 -1.7495
 5914TIP3   OH239376   1.913   1.299   0.350 -0.4919  0.0940  0.0819
 5914TIP3    H139377   1.954   1.343   0.425  0.8310 -1.8406  0.5587
 5914TIP3    H239378   1.906   1.368   0.283  0.4745  1.2847  1.1545
 5915TIP3   OH239379   0.023   1.019   2.241  0.0016  0.8093  0.0377
 5915TIP3    H139380   0.025   1.101   2.290 -0.8021  2.9637 -3.2147
 5915TIP3    H239381   0.097   1.025   2.181 -0.7423 -0.2907 -1.0445
 5916TIP3   OH239382   1.978   2.429   1.576  0.3212 -0.1734 -0.4330
 5916TIP3    H139383   2.038   2.498   1.604  0.0385 -0.0243 -0.1982
 5916TIP3    H239384   1.893   2.472   1.571  0.0458 -0.6320  0.2345
 5917TIP3   OH239385   0.438   1.931   8.222 -0.4148  0.4056 -0.3398
 5917TIP3    H139386   0.530   1.952   8.236 -0.6923  0.7776  1.1852
 5917TIP3    H239387   0.403   2.004   8.171  0.1819  0.1146 -1.1840
 5918TIP3   OH239388   6.147   0.138   2.507 -0.5233  0.1762 -0.5018
 5918TIP3    H139389   6.105   0.076   2.567  0.3300  0.3333  0.2787
 5918TIP3    H239390   6.077   0.164   2.448 -1.0549 -1.0707 -0.4725
 5919TIP3   OH239391   6.478   6.669   0.391  0.5090  0.4910 -0.3413
 5919TIP3    H139392   6.452   6.631   0.307  1.9952  3.9756 -2.5953
 5919TIP3    H239393   6.400   6.717   0.420  0.7149  1.2950 -1.0632
 5920TIP3   OH239394   4.097   6.036   7.774 -0.0472  0.5329 -0.5938
 5920TIP3    H139395   4.029   6.005   7.713  0.3955  0.8731 -1.2721
 5920TIP3    H239396   4.179   6.014   7.731  0.2717  1.4348 -0.4591
 5921TIP3   OH239397   6.639   6.755   1.033  0.8414 -0.3700  0.1994
 5921TIP3    H139398   6.726   6.752   1.072  0.6951  0.4396  0.6147
 5921TIP3    H239399   6.613   6.847   1.039  0.2351 -0.4769 -0.5409
 5922TIP3   OH239400   5.131   6.032   1.587  0.1526 -0.2650  0.0673
 5922TIP3    H139401   5.178   5.960   1.629  3.1859 -0.9016 -3.8366
 5922TIP3    H239402   5.047   5.994   1.561  0.2900 -1.3215  1.0810
 5923TIP3   OH239403   0.528   3.889   8.056  0.3603  0.0769 -0.4325
 5923TIP3    H139404   0.527   3.923   8.145 -0.5812 -2.3893  0.5928
 5923TIP3    H239405   0.599   3.826   8.055 -1.9797 -2.8033 -0.1082
 5924TIP3   OH239406   6.352   6.435   0.220  0.2476  0.3242  0.1603
 5924TIP3    H139407   6.333   6.390   0.303  0.3049  2.0735  1.1705
 5924TIP3    H239408   6.269   6.433   0.172 -0.2658  0.7339  0.9981
 5925TIP3   OH239409   5.950   1.018   1.119  0.0147  0.1625 -0.4998
 5925TIP3    H139410   6.037   1.035   1.084 -0.0640 -0.1521 -0.8571
 5925TIP3    H239411   5.890   1.042   1.048 -0.1920  0.3885 -0.2527
 5926TIP3   OH239412   1.093   1.272   6.963 -0.4477 -0.0788  0.1118
 5926TIP3    H139413   1.109   1.367   6.961 -2.2379  0.2458 -1.3162
 5926TIP3    H239414   1.173   1.234   6.927  0.6226  0.7903  1.4390
 5927TIP3   OH239415   0.918   2.682   0.473  0.4257  0.4976 -0.0851
 5927TIP3    H139416   0.950   2.716   0.389  1.6186  2.0030  0.9286
 5927TIP3    H239417   0.998   2.658   0.521 -0.2740 -1.2859  0.2825
 5928TIP3   OH239418   1.949   1.461   7.569 -0.3469  0.5746  0.0722
 5928TIP3    H139419   1.992   1.544   7.547 -0.5927  0.7315  0.1795
 5928TIP3    H239420   2.021   1.400   7.583 -0.1194  1.0634  1.1545
 5929TIP3   OH239421   6.393   0.256   2.539  0.0481  0.0877 -0.4282
 5929TIP3    H139422   6.434   0.263   2.453 -0.0568 -0.4403 -0.5225
 5929TIP3    H239423   6.306   0.220   2.522  0.6329 -1.6217  0.0409
 5930TIP3   OH239424   2.912   1.846   0.396  0.4898 -0.5369  0.2273
 5930TIP3    H139425   2.962   1.926   0.414 -1.0962  0.0814  2.3279
 5930TIP3    H239426   2.942   1.783   0.461 -0.2874 -0.6854  0.4586
 5931TIP3   OH239427   3.429   4.676   0.797 -0.2655  0.6360  0.4908
 5931TIP3    H139428   3.372   4.706   0.867 -0.8508  1.3461 -0.2750
 5931TIP3    H239429   3.518   4.697   0.828 -0.3774 -0.6145  1.7450
 5932TIP3   OH239430   0.907   4.537   1.002  0.5208  0.2591  0.1577
 5932TIP3    H139431   0.948   4.602   0.944  0.7274 -1.0553 -1.2231
 5932TIP3    H239432   0.980   4.486   1.037  0.2300 -0.9784 -0.9500
 5933TIP3   OH239433   5.904   2.116   7.008 -0.1931  0.4942  0.3002
 5933TIP3    H139434   5.913   2.087   6.918 -0.5457  1.9576 -0.2344
 5933TIP3    H239435   5.817   2.088   7.034  0.4239 -1.1905  0.7042
 5934TIP3   OH239436   3.585   6.084   0.622  0.1069 -0.1837 -0.6114
 5934TIP3    H139437   3.622   6.007   0.665  1.1322  1.6980  2.1769
 5934TIP3    H239438   3.490   6.067   0.619  0.1198 -0.9415  1.4530
 5935TIP3   OH239439   1.039   3.628   2.706 -0.0893  0.3124 -0.3566
 5935TIP3    H139440   1.010   3.538   2.722  1.3477 -0.3050 -1.0508
 5935TIP3    H239441   1.104   3.620   2.637 -0.9916  2.0854 -1.4872
 5936TIP3   OH239442   0.996   4.983   1.885  0.4846  0.3556  0.0967
 5936TIP3    H139443   1.012   5.074   1.910 -0.2861  0.2693  0.9688
 5936TIP3    H239444   0.935   4.988   1.811  1.4599  0.5710 -0.7080
 5937TIP3   OH239445   1.722   3.827   1.002  0.1915  0.0354  0.4566
 5937TIP3    H139446   1.755   3.744   1.037  0.2789 -0.8169 -1.5225
 5937TIP3    H239447   1.793   3.857   0.945 -1.7168 -1.1163 -2.7796
 5938TIP3   OH239448   1.162   2.677   1.508  0.0640 -0.3309 -0.2000
 5938TIP3    H139449   1.210   2.757   1.488  1.5468 -0.8976  0.8913
 5938TIP3    H239450   1.143   2.639   1.422 -0.8057  1.2431 -0.7365
 5939TIP3   OH239451   6.237   0.612   0.020 -0.1664  0.3643 -0.1011
 5939TIP3    H139452   6.302   0.569   0.076  0.8298 -0.9926 -2.1715
 5939TIP3    H239453   6.285   0.632  -0.061 -1.0386  4.0333  0.1579
 5940TIP3   OH239454   6.581   4.195   1.247 -0.2759 -0.6134 -0.1026
 5940TIP3    H139455   6.647   4.252   1.288 -2.0050  1.6345 -0.2081
 5940TIP3    H239456   6.507   4.197   1.308 -1.5891 -0.0614 -1.6502
 5941TIP3   OH239457   1.276   6.187   8.420  0.1450 -0.7989  0.8981
 5941TIP3    H139458   1.197   6.171   8.368 -0.2990 -1.6755  1.8053
 5941TIP3    H239459   1.250   6.164   8.509  1.4242 -1.0806  1.2099
 5942TIP3   OH239460   2.528   6.270   8.069 -0.3068 -0.3070  0.1186
 5942TIP3    H139461   2.510   6.180   8.044 -1.5694  0.0561 -0.3421
 5942TIP3    H239462   2.572   6.263   8.154 -2.3455 -1.3088  1.1584
 5943TIP3   OH239463   5.151   5.418   6.834  0.0649 -0.2693 -0.5294
 5943TIP3    H139464   5.245   5.424   6.850  0.2059 -1.9419 -0.6254
 5943TIP3    H239465   5.136   5.327   6.808 -1.5555  0.0119 -0.6922
 5944TIP3   OH239466   1.927   0.141   7.183  0.0353  0.2986 -0.0823
 5944TIP3    H139467   1.921   0.075   7.114 -1.0370  0.5539 -0.2378
 5944TIP3    H239468   1.970   0.216   7.142 -0.7950  0.5301 -0.5341
 5945TIP3   OH239469   3.033   3.533   7.152 -0.0916  0.1176  0.0783
 5945TIP3    H139470   3.036   3.440   7.128  1.5156  0.0650  0.3872
 5945TIP3    H239471   2.945   3.561   7.127 -1.2785 -1.9236  1.6430
 5946TIP3   OH239472   0.809   5.168   1.308  0.4114 -0.7551 -0.4049
 5946TIP3    H139473   0.765   5.091   1.274  2.2362 -1.4070 -1.3834
 5946TIP3    H239474   0.835   5.218   1.230 -2.7035  2.1187  0.1619
 5947TIP3   OH239475   0.227   1.347   1.081 -0.1019  0.2625  0.0296
 5947TIP3    H139476   0.219   1.257   1.050 -0.1008  0.3121 -0.1159
 5947TIP3    H239477   0.322   1.364   1.081 -0.1654  1.0391 -2.2102
 5948TIP3   OH239478   4.166   3.413   0.824  0.2929 -0.8128 -0.5302
 5948TIP3    H139479   4.244   3.460   0.793 -0.0013  1.1073  1.4795
 5948TIP3    H239480   4.186   3.391   0.915 -2.8435  3.1351  1.3727
 5949TIP3   OH239481   4.118   3.992   0.451  0.4106  0.0074 -0.1138
 5949TIP3    H139482   4.207   4.003   0.485 -0.0504  3.7128  0.3613
 5949TIP3    H239483   4.131   3.977   0.357  1.6340  1.9571 -0.3294
 5950TIP3   OH239484   3.845   3.752   1.159 -0.5828  0.1998 -0.8010
 5950TIP3    H139485   3.918   3.803   1.122 -0.0549 -0.0667 -0.1438
 5950TIP3    H239486   3.873   3.661   1.150  0.0685  0.1588  1.2481
 5951TIP3   OH239487   4.917   2.843   0.809 -0.1746  0.7892  0.7976
 5951TIP3    H139488   4.932   2.891   0.728  0.8904  0.4046  0.7493
 5951TIP3    H239489   4.916   2.909   0.877 -0.8337  1.0895  0.5049
 5952TIP3   OH239490   3.826   2.448   7.021 -0.1245  0.0762 -0.5124
 5952TIP3    H139491   3.912   2.422   7.053  0.0072  1.5981  0.5052
 5952TIP3    H239492   3.841   2.477   6.931  0.3753  0.0467 -0.4400
 5953TIP3   OH239493   4.007   2.722   7.602  0.4506 -0.5417 -0.0865
 5953TIP3    H139494   4.022   2.755   7.691 -0.8643  0.2323 -0.1322
 5953TIP3    H239495   3.964   2.794   7.557  1.2951 -0.8455 -1.4372
 5954TIP3   OH239496   0.808   0.847   1.627 -0.4165 -0.0303 -0.9049
 5954TIP3    H139497   0.849   0.760   1.633 -1.7212 -0.6200 -0.1130
 5954TIP3    H239498   0.731   0.841   1.683 -0.8246  1.4909 -1.2597
 5955TIP3   OH239499   3.775   3.162   7.270 -0.8638 -0.0564  0.3869
 5955TIP3    H139500   3.843   3.199   7.327  0.4329  0.6686 -1.5251
 5955TIP3    H239501   3.824   3.109   7.206 -1.9548  1.2731 -1.6512
 5956TIP3   OH239502   0.999   0.717   7.711  0.1598 -0.2178 -0.2492
 5956TIP3    H139503   1.008   0.757   7.624 -0.1673 -1.3486 -0.8147
 5956TIP3    H239504   1.085   0.731   7.751  0.4390 -0.0069 -0.8930
 5957TIP3   OH239505   6.411   6.792   7.863  0.4045  0.2472 -0.0664
 5957TIP3    H139506   6.507   6.798   7.861  0.4809 -0.5714  0.6560
 5957TIP3    H239507   6.383   6.878   7.895  0.8606  0.6987 -0.8521
 5958TIP3   OH239508   6.499   5.238   0.439 -0.1021 -0.0178 -0.0039
 5958TIP3    H139509   6.547   5.207   0.516  0.6150 -0.1963 -0.5103
 5958TIP3    H239510   6.560   5.296   0.394 -0.7166  0.5317 -0.1510
 5959TIP3   OH239511   5.286   3.208   0.602 -0.1950  0.5730  0.2185
 5959TIP3    H139512   5.313   3.195   0.511 -0.2168  2.9910 -0.1925
 5959TIP3    H239513   5.265   3.301   0.608 -0.4070  0.4313  2.6608
 5960TIP3   OH239514   5.528   3.001   1.864 -0.3510  0.3571  0.4745
 5960TIP3    H139515   5.535   2.913   1.901 -0.2171 -0.5932 -1.6909
 5960TIP3    H239516   5.578   3.056   1.924  2.2636 -1.5789  0.2466
 5961TIP3   OH239517   2.151   2.262   0.460 -0.0073  0.2245  0.6280
 5961TIP3    H139518   2.110   2.287   0.543 -0.2753 -0.7277  0.7875
 5961TIP3    H239519   2.138   2.168   0.454 -0.0069  0.2864 -0.5136
 5962TIP3   OH239520   3.762   3.922   0.378  0.1766 -0.3617  0.0570
 5962TIP3    H139521   3.816   3.940   0.455  0.4193 -0.7122 -0.0268
 5962TIP3    H239522   3.707   3.847   0.404  0.0870 -0.3265 -0.0290
 5963TIP3   OH239523   4.206   1.104   6.474  0.4483 -0.3063  0.2015
 5963TIP3    H139524   4.258   1.045   6.420  0.6408  1.5519 -1.7509
 5963TIP3    H239525   4.115   1.080   6.456  0.5235  0.0314 -0.6452
 5964TIP3   OH239526   5.458   3.136   0.795 -0.2313  0.3843  0.2305
 5964TIP3    H139527   5.520   3.079   0.751  0.1496  0.9487  0.0220
 5964TIP3    H239528   5.402   3.169   0.725 -0.2913  0.4634  0.3161
 5965TIP3   OH239529   1.118   0.520   1.294 -0.4970 -0.2688  0.3185
 5965TIP3    H139530   1.071   0.448   1.334 -1.9827  2.1167  3.2269
 5965TIP3    H239531   1.192   0.536   1.352  0.9019 -0.5368 -1.3002
 5966TIP3   OH239532   6.697   4.107   8.736 -0.2771  0.4869  0.5367
 5966TIP3    H139533   6.674   4.200   8.743 -0.8704  0.3886 -0.0173
 5966TIP3    H239534   6.705   4.092   8.642  0.4431  0.1220  0.6527
 5967TIP3   OH239535   6.175   2.544   2.889  0.0770 -0.5055 -0.0554
 5967TIP3    H139536   6.247   2.482   2.876  0.9224  0.6344 -1.0049
 5967TIP3    H239537   6.106   2.513   2.830  0.8564 -0.0363 -1.2646
 5968TIP3   OH239538   2.055   2.140   7.527  0.1560 -0.9183  0.4817
 5968TIP3    H139539   2.026   2.135   7.618  0.0088 -0.2132  0.4765
 5968TIP3    H239540   2.151   2.136   7.532  0.2875  1.3588  0.8600
 5969TIP3   OH239541   0.927   1.001   0.678  0.0185 -0.3119  0.1014
 5969TIP3    H139542   0.892   1.027   0.593 -0.9967 -0.4826  0.4534
 5969TIP3    H239543   0.861   0.941   0.713  0.1892  0.1443  1.2246
 5970TIP3   OH239544   6.107   1.791   1.256 -0.0944  0.1356 -0.4403
 5970TIP3    H139545   6.087   1.848   1.330  0.9797 -0.0768  0.0322
 5970TIP3    H239546   6.197   1.814   1.231 -0.1605 -0.3483 -1.1688
 5971TIP3   OH239547   4.270   1.171   1.671 -0.1506  0.4824  0.5155
 5971TIP3    H139548   4.231   1.216   1.745  0.1993  0.1608  0.9003
 5971TIP3    H239549   4.273   1.079   1.697 -1.9798  0.0088 -0.7442
 5972TIP3   OH239550   6.722   1.915   8.418  0.6396  0.6222  0.3402
 5972TIP3    H139551   6.692   1.836   8.464 -2.8628  1.5510 -0.0516
 5972TIP3    H239552   6.737   1.979   8.487 -0.2747  0.7140  0.4614
 5973TIP3   OH239553   2.135   6.073   1.861 -0.0266 -0.4771 -0.5991
 5973TIP3    H139554   2.064   6.058   1.925 -0.3012 -0.8072 -0.9746
 5973TIP3    H239555   2.190   6.140   1.902 -0.6101 -0.1431 -0.3469
 5974TIP3   OH239556   6.108   1.180   7.039 -0.3101  0.1144  0.0688
 5974TIP3    H139557   6.017   1.209   7.036 -0.6512 -0.8847  0.3314
 5974TIP3    H239558   6.113   1.122   7.115  0.0577 -1.3700 -1.0205
 5975TIP3   OH239559   4.736   5.499   8.654 -0.4651  0.4712 -0.3908
 5975TIP3    H139560   4.721   5.593   8.642 -1.1442  0.1865 -2.0032
 5975TIP3    H239561   4.799   5.494   8.726 -1.8632  2.0703  1.0509
 5976TIP3   OH239562   2.013   2.847   1.620 -0.7408 -0.5499 -0.5489
 5976TIP3    H139563   1.984   2.845   1.529 -1.0783  2.3209 -0.5707
 5976TIP3    H239564   2.107   2.866   1.615 -0.8747  0.1961 -0.2951
 5977TIP3   OH239565   0.105   5.823   7.597 -0.0035 -0.5923 -0.2006
 5977TIP3    H139566   0.088   5.752   7.659  0.0494 -0.9220 -0.5585
 5977TIP3    H239567   0.032   5.883   7.608  0.1860 -0.4711  0.4333
 5978TIP3   OH239568   6.133   4.287   0.467 -0.2085 -0.1649  0.1500
 5978TIP3    H139569   6.135   4.335   0.384 -1.0060  1.7826  1.1707
 5978TIP3    H239570   6.224   4.282   0.494 -0.1424  1.4277  0.3227
 5979TIP3   OH239571   6.715   5.558   7.059  0.0584 -0.6129 -0.6648
 5979TIP3    H139572   6.680   5.478   7.098 -0.0862 -1.4604 -2.4089
 5979TIP3    H239573   6.653   5.627   7.084 -0.5152 -1.2890 -0.1826
 5980TIP3   OH239574   5.377   4.073   8.532 -0.2667 -0.0250  0.1487
 5980TIP3    H139575   5.286   4.047   8.547 -0.2004  0.0683  0.7564
 5980TIP3    H239576   5.386   4.077   8.437 -1.3022  1.3518  0.0768
 5981TIP3   OH239577   0.819   3.632   7.155  1.1833  0.6008 -0.1830
 5981TIP3    H139578   0.905   3.612   7.193  1.0468  1.4008  0.5657
 5981TIP3    H239579   0.834   3.710   7.102  0.7359  1.2964  0.6944
 5982TIP3   OH239580   6.115   1.492   6.573 -0.3194  0.1996  0.3354
 5982TIP3    H139581   6.044   1.446   6.617  0.2032  0.3403  1.3705
 5982TIP3    H239582   6.072   1.551   6.512 -1.2153  1.7958  2.3942
 5983TIP3   OH239583   6.002   2.085   2.113 -0.3171  0.5858 -0.1410
 5983TIP3    H139584   6.009   2.101   2.207  0.6612  0.4117 -0.1747
 5983TIP3    H239585   5.951   2.004   2.106 -0.2698  0.5227  0.2434
 5984TIP3   OH239586   5.462   3.428   8.198  0.6345  0.1196  0.1856
 5984TIP3    H139587   5.444   3.340   8.231  0.8977 -0.1124 -0.2781
 5984TIP3    H239588   5.517   3.468   8.265 -1.1092  0.6437  1.3613
 5985TIP3   OH239589   0.777   0.871   0.157 -0.0052  0.7998 -0.0630
 5985TIP3    H139590   0.836   0.937   0.119 -1.4706  1.7953 -0.6831
 5985TIP3    H239591   0.706   0.862   0.094  0.0692 -1.2995  0.0830
 5986TIP3   OH239592   5.095   2.901   8.513  0.1678  0.1202  0.2033
 5986TIP3    H139593   5.134   2.816   8.536 -1.2576 -0.6319 -0.0244
 5986TIP3    H239594   5.145   2.931   8.437 -0.4930 -1.4305 -0.8902
 5987TIP3   OH239595   3.975   2.386   7.765 -0.2550  0.7377  0.1595
 5987TIP3    H139596   4.065   2.369   7.737  0.2702  1.5676  1.2442
 5987TIP3    H239597   3.961   2.326   7.838 -1.1067 -0.3982 -0.8923
 5988TIP3   OH239598   1.993   1.351   0.622 -0.6999  0.0149  0.6518
 5988TIP3    H139599   2.080   1.335   0.585 -1.0405  0.0280 -0.1842
 5988TIP3    H239600   1.963   1.432   0.579 -1.5580 -0.5694  0.1185
 5989TIP3   OH239601   4.642   3.951   2.345 -0.4433  0.1384  0.0566
 5989TIP3    H139602   4.685   4.024   2.299 -0.7215 -1.2088 -2.5679
 5989TIP3    H239603   4.713   3.905   2.389  0.6322 -0.7955 -2.4253
 5990TIP3   OH239604   0.497   1.489   0.284  0.3333 -0.7368  0.4925
 5990TIP3    H139605   0.514   1.496   0.190 -1.0589 -0.6090  0.2299
 5990TIP3    H239606   0.518   1.576   0.319 -0.6407 -0.3077  0.0349
 5991TIP3   OH239607   0.068   2.077   8.260 -0.0184 -0.1046 -0.6137
 5991TIP3    H139608   0.055   2.121   8.344  1.6499 -0.1877 -0.2782
 5991TIP3    H239609   0.020   1.994   8.269 -0.4392  0.1917 -0.0229
 5992TIP3   OH239610   6.418   3.559   2.057 -0.5406  0.3434 -0.0854
 5992TIP3    H139611   6.494   3.520   2.100 -0.4990  1.4868  0.9638
 5992TIP3    H239612   6.343   3.511   2.092 -0.3225 -0.7638 -1.0972
 5993TIP3   OH239613   0.143   4.171   7.555  0.0605  0.5215 -0.4294
 5993TIP3    H139614   0.060   4.198   7.514 -0.3145  1.9756  1.1675
 5993TIP3    H239615   0.166   4.090   7.510 -2.6215 -0.3612 -0.4446
 5994TIP3   OH239616   3.669   4.672   8.664 -0.0866  0.4645 -0.2525
 5994TIP3    H139617   3.707   4.751   8.625  1.0836 -0.0608 -0.2105
 5994TIP3    H239618   3.695   4.676   8.756 -0.5104  0.3147 -0.1253
 5995TIP3   OH239619   1.152   1.565   1.454  0.3799  0.3568  0.1742
 5995TIP3    H139620   1.129   1.474   1.467 -2.0194  0.9246  0.3991
 5995TIP3    H239621   1.095   1.594   1.383  0.2264  1.9729  0.9099
 5996TIP3   OH239622   0.046   5.150   1.186 -0.3487  0.3067  0.3668
 5996TIP3    H139623  -0.033   5.177   1.233 -0.8138  2.0751 -1.3067
 5996TIP3    H239624   0.020   5.069   1.141 -0.8897  0.3500  0.5949
 5997TIP3   OH239625   0.981   3.238   0.408  0.7332 -0.1133  0.5471
 5997TIP3    H139626   0.973   3.165   0.469 -1.7372 -0.6785 -0.3284
 5997TIP3    H239627   0.964   3.316   0.461 -0.0619 -0.4923  0.8690
 5998TIP3   OH239628   0.010   2.106   1.984 -0.2999  0.1124 -0.5705
 5998TIP3    H139629   0.035   2.014   1.987  0.4247  0.3338  0.4200
 5998TIP3    H239630   0.093   2.154   1.986 -0.6918  0.7961 -0.3557
 5999TIP3   OH239631   0.436   4.744   7.566  0.0309  0.2159 -0.1262
 5999TIP3    H139632   0.351   4.715   7.598 -0.2287  2.2359  1.2021
 5999TIP3    H239633   0.483   4.771   7.645  0.8050  1.7963 -1.0893
 6000TIP3   OH239634   0.300   2.148   8.736 -0.4691 -0.0873 -0.0404
 6000TIP3    H139635   0.386   2.165   8.775  0.1220  0.9356 -1.6849
 6000TIP3    H239636   0.270   2.234   8.706 -1.8757 -0.5040  0.1004
 6001TIP3   OH239637   2.535   0.552   2.486  0.2494  0.2947  0.2434
 6001TIP3    H139638   2.545   0.480   2.423 -0.7992  0.9525 -0.7051
 6001TIP3    H239639   2.554   0.631   2.435  0.4199  0.7694  1.0264
 6002TIP3   OH239640   0.011   4.879   8.563 -0.4784  0.3728  0.1952
 6002TIP3    H139641   0.001   4.821   8.639 -1.3659 -1.0194 -0.9169
 6002TIP3    H239642  -0.078   4.909   8.545 -0.0855  1.7601  0.4704
 6003TIP3   OH239643   5.843   5.045   1.373 -0.0713  0.4267 -0.4943
 6003TIP3    H139644   5.824   5.016   1.462 -1.1286  0.7823 -0.5868
 6003TIP3    H239645   5.916   4.991   1.345 -1.1769 -1.2895 -0.2184
 6004TIP3   OH239646   5.224   1.628   6.741  0.5831 -0.0118 -0.4858
 6004TIP3    H139647   5.199   1.667   6.657  0.9728  0.8342 -0.2208
 6004TIP3    H239648   5.235   1.535   6.722  0.7187  0.1780 -1.3838
 6005TIP3   OH239649   4.936   3.451   1.615  0.3200  0.3813  0.1245
 6005TIP3    H139650   4.968   3.536   1.583  0.7737 -0.5707 -2.1423
 6005TIP3    H239651   5.015   3.397   1.623 -0.0450 -0.0703  0.8106
 6006TIP3   OH239652   6.383   4.218   0.540 -0.0584  0.1610  0.1494
 6006TIP3    H139653   6.450   4.153   0.521 -0.0151 -0.0364  0.9389
 6006TIP3    H239654   6.329   4.178   0.609 -0.6085  0.5706 -0.0365
 6007TIP3   OH239655   1.899   0.395   0.672 -0.4127  0.2959 -0.2252
 6007TIP3    H139656   1.864   0.336   0.738 -0.1347  0.0426 -0.3003
 6007TIP3    H239657   1.993   0.397   0.689 -0.2963 -0.0024 -0.7883
 6008TIP3   OH239658   1.312   5.681   0.582 -0.3151  0.3285  0.1760
 6008TIP3    H139659   1.382   5.682   0.516 -0.0724 -2.5333  0.2586
 6008TIP3    H239660   1.233   5.658   0.533  0.0338 -2.7681  0.8669
 6009TIP3   OH239661   1.727   2.951   2.242  0.0789  0.2702 -0.0804
 6009TIP3    H139662   1.714   2.857   2.252 -0.7660  0.1984 -1.4690
 6009TIP3    H239663   1.787   2.975   2.312  1.8044 -1.6345 -0.7933
 6010TIP3   OH239664   5.138   1.168   8.640 -0.6097  0.1355  0.5920
 6010TIP3    H139665   5.222   1.128   8.619  0.2430  0.2463  3.3439
 6010TIP3    H239666   5.109   1.209   8.558  2.2707  0.5305 -0.3371
 6011TIP3   OH239667   2.659   0.758   8.234  0.4169 -0.2200  0.0408
 6011TIP3    H139668   2.637   0.812   8.310 -1.8154  0.1205 -0.7693
 6011TIP3    H239669   2.750   0.781   8.213 -0.7056  4.2579 -0.9709
 6012TIP3   OH239670   4.913   5.274   8.677  0.3233  0.3503  0.3489
 6012TIP3    H139671   4.921   5.196   8.621  2.2272  1.3612 -0.8982
 6012TIP3    H239672   4.966   5.253   8.754  0.0783  0.0705  0.4452
 6013TIP3   OH239673   5.978   1.006   0.536  0.3875 -0.4443 -0.3222
 6013TIP3    H139674   5.887   1.021   0.512  0.6165  1.1948 -0.3147
 6013TIP3    H239675   6.017   0.967   0.458 -0.6341 -2.6520  0.2062
 6014TIP3   OH239676   0.262   5.389   7.837 -0.2849 -0.1587 -0.1213
 6014TIP3    H139677   0.243   5.375   7.744 -0.3297  0.1870 -0.1630
 6014TIP3    H239678   0.269   5.300   7.873 -0.6028 -0.2926 -0.3825
 6015TIP3   OH239679   3.025   2.053   8.412  0.0504  0.4674 -0.1395
 6015TIP3    H139680   2.976   1.984   8.367 -1.0232 -0.1173  1.7910
 6015TIP3    H239681   2.961   2.124   8.423  0.2170  0.5204  0.5649
 6016TIP3   OH239682   4.954   6.186   0.970 -0.1550 -0.1159 -0.6974
 6016TIP3    H139683   4.963   6.262   0.912  0.0570  0.4331  0.0392
 6016TIP3    H239684   4.866   6.154   0.955 -1.0286  1.5642  0.5051
 6017TIP3   OH239685   6.160   1.308   8.310 -0.1151 -0.2451 -0.4855
 6017TIP3    H139686   6.081   1.258   8.291 -1.2371  0.0618  2.7088
 6017TIP3    H239687   6.130   1.398   8.318  0.7536  0.0412 -0.3364
 6018TIP3   OH239688   3.427   4.769   8.631  0.1407  0.0725 -0.5707
 6018TIP3    H139689   3.484   4.819   8.573 -0.0488 -0.4927 -1.2501
 6018TIP3    H239690   3.475   4.689   8.650  0.1869  0.2370  0.0338
 6019TIP3   OH239691   5.984   4.895   1.110  0.2239 -0.1963 -0.4585
 6019TIP3    H139692   6.079   4.880   1.113  0.3978  0.9480  1.3067
 6019TIP3    H239693   5.976   4.989   1.094 -0.6707 -0.4706 -1.7854
 6020TIP3   OH239694   6.333   5.976   2.833 -0.2284  0.4034 -0.1998
 6020TIP3    H139695   6.289   5.901   2.794 -0.2082 -0.3309  1.1262
 6020TIP3    H239696   6.425   5.951   2.836 -0.6406 -1.5280  4.2148
 6021TIP3   OH239697   2.772   1.542   0.946 -0.1991  0.0801 -0.7412
 6021TIP3    H139698   2.785   1.631   0.911  1.4715  0.2573  0.2371
 6021TIP3    H239699   2.745   1.491   0.870  0.7881  1.0053 -1.7635
 6022TIP3   OH239700   3.896   2.747   6.537  0.0727 -0.4295  0.4113
 6022TIP3    H139701   3.867   2.660   6.509  0.0633 -0.3379  0.1331
 6022TIP3    H239702   3.982   2.759   6.497 -0.3632  0.0993 -0.4059
 6023TIP3   OH239703   1.839   4.688   0.112 -0.3885 -0.4610  0.1616
 6023TIP3    H139704   1.830   4.782   0.128 -1.0110 -0.4352 -0.3010
 6023TIP3    H239705   1.847   4.649   0.199  2.0107  0.2097  0.3146
 6024TIP3   OH239706   5.523   0.514   0.901 -0.4898  0.1852 -0.3307
 6024TIP3    H139707   5.454   0.453   0.875 -0.1041 -0.0595 -0.8218
 6024TIP3    H239708   5.534   0.501   0.995 -0.3246 -0.6018 -0.4526
 6025TIP3   OH239709   0.973   2.376   7.984 -0.5383  0.3446 -1.1059
 6025TIP3    H139710   0.911   2.358   8.055 -2.4916 -0.5654 -2.9004
 6025TIP3    H239711   0.938   2.454   7.942 -0.2660  0.0292 -1.9384
 6026TIP3   OH239712   5.796   0.793   2.243 -0.0720 -0.6446 -0.4254
 6026TIP3    H139713   5.707   0.769   2.267  0.4332 -0.7651  1.5686
 6026TIP3    H239714   5.796   0.888   2.241 -0.4439 -0.6585 -1.3230
 6027TIP3   OH239715   3.128   4.412   1.086 -0.1712 -0.2038 -0.4115
 6027TIP3    H139716   3.166   4.332   1.120  1.4693  0.5353 -0.4254
 6027TIP3    H239717   3.176   4.482   1.130 -0.2681  0.7647 -1.7893
 6028TIP3   OH239718   3.424   4.741   6.354  0.1498  0.0277  0.1212
 6028TIP3    H139719   3.356   4.675   6.339 -1.0220  1.1013  0.4571
 6028TIP3    H239720   3.501   4.707   6.309 -0.2853 -1.7538  0.6343
 6029TIP3   OH239721   4.458   3.161   6.512  0.1169  0.0754 -0.3039
 6029TIP3    H139722   4.514   3.102   6.461  0.8754 -0.5772  1.2066
 6029TIP3    H239723   4.384   3.107   6.538  0.9252 -0.3230  1.2747
 6030TIP3   OH239724   3.821   5.121   8.060 -0.0064  0.3687  0.6532
 6030TIP3    H139725   3.767   5.130   8.139  1.2984  0.3757  1.5756
 6030TIP3    H239726   3.790   5.040   8.019 -1.1423  0.7123  0.8115
 6031TIP3   OH239727   4.086   5.872   8.163  0.0538  0.2113 -0.4397
 6031TIP3    H139728   4.167   5.891   8.116 -0.2216 -0.5504 -1.2519
 6031TIP3    H239729   4.103   5.789   8.207 -0.3023  0.0074 -0.6784
 6032TIP3   OH239730   2.767   5.210   1.552  0.2347  0.0316 -0.3115
 6032TIP3    H139731   2.819   5.242   1.626  1.0033  0.6938 -1.1082
 6032TIP3    H239732   2.693   5.269   1.547 -0.0861 -0.3199  0.2322
 6033TIP3   OH239733   4.265   4.886   2.520  0.5801  0.3773 -0.4308
 6033TIP3    H139734   4.304   4.806   2.556 -0.2712 -0.1057 -0.5382
 6033TIP3    H239735   4.223   4.858   2.439  0.6247  1.0253 -0.6858
 6034TIP3   OH239736   4.980   1.386   7.189  0.3353 -0.5099 -0.4999
 6034TIP3    H139737   4.917   1.429   7.246 -0.1818  1.4965 -2.4187
 6034TIP3    H239738   5.050   1.357   7.247  0.4022  2.4358  1.0768
 6035TIP3   OH239739   1.541   4.736   2.422 -0.0322 -0.7614 -0.0743
 6035TIP3    H139740   1.579   4.824   2.424  0.0577 -0.8115  1.0878
 6035TIP3    H239741   1.580   4.695   2.345 -0.4425  0.3688 -0.9177
 6036TIP3   OH239742   0.424   0.500   7.077  0.0313 -0.2666 -0.4538
 6036TIP3    H139743   0.514   0.494   7.045 -0.1039 -0.7597 -0.7320
 6036TIP3    H239744   0.394   0.585   7.046  0.4588 -0.0131 -0.2005
 6037TIP3   OH239745   6.390   2.220   7.672 -0.1074 -0.2719  0.2002
 6037TIP3    H139746   6.481   2.214   7.701 -0.3239  0.3791  1.0555
 6037TIP3    H239747   6.370   2.313   7.677 -0.5587 -0.3056 -0.8273
 6038TIP3   OH239748   0.456   0.169   8.526 -0.1912 -0.1816  0.0994
 6038TIP3    H139749   0.466   0.166   8.431  0.3830  0.1189  0.1493
 6038TIP3    H239750   0.491   0.254   8.552 -2.5373  0.7910  0.3345
 6039TIP3   OH239751   0.012   5.052   1.638  0.3313  0.0404 -0.0520
 6039TIP3    H139752   0.046   5.023   1.553 -0.2807 -1.8286  0.3030
 6039TIP3    H239753  -0.035   5.133   1.618 -0.6376 -0.8655 -1.6803
 6040TIP3   OH239754   3.824   6.519   1.622  0.3822 -0.3771 -0.2018
 6040TIP3    H139755   3.876   6.468   1.684 -0.2263  1.0249  1.5701
 6040TIP3    H239756   3.740   6.532   1.667  0.2242  1.4320 -0.9432
 6041TIP3   OH239757   3.423   4.012   0.458 -0.1648 -0.3598 -0.1673
 6041TIP3    H139758   3.486   3.946   0.487 -0.0324 -0.4101 -0.5593
 6041TIP3    H239759   3.356   4.012   0.525 -1.1476 -2.2616 -1.0621
 6042TIP3   OH239760   1.446   4.368   0.618 -0.3400  0.1025 -0.5637
 6042TIP3    H139761   1.520   4.335   0.567 -0.8875 -0.7799 -0.7985
 6042TIP3    H239762   1.393   4.291   0.636 -0.8277  0.6157  0.2367
 6043TIP3   OH239763   0.478   6.427   6.570 -0.1144 -0.9735 -0.0974
 6043TIP3    H139764   0.411   6.377   6.617  0.5500 -2.9701 -1.1734
 6043TIP3    H239765   0.561   6.393   6.602  0.3583 -2.0699 -2.2992
 6044TIP3   OH239766   5.918   0.880   8.397 -0.2153  0.4713 -0.4998
 6044TIP3    H139767   5.881   0.843   8.317  1.6909 -3.3751  0.1547
 6044TIP3    H239768   5.856   0.854   8.466 -0.3269  1.1244 -0.3495
 6045TIP3   OH239769   5.072   3.033   0.660  0.2793  0.3046 -0.0158
 6045TIP3    H139770   5.045   3.044   0.751 -0.3587  2.0352 -0.3714
 6045TIP3    H239771   5.137   3.102   0.646 -0.1791  0.5412 -1.0675
 6046TIP3   OH239772   5.890   6.775   0.600  0.5082  0.5402  0.1385
 6046TIP3    H139773   5.951   6.734   0.662  0.2334 -0.8091 -0.4464
 6046TIP3    H239774   5.910   6.735   0.516  1.2081  2.7096 -0.8081
 6047TIP3   OH239775   6.060   5.085   6.819 -0.0960  0.4254 -0.2195
 6047TIP3    H139776   6.027   5.169   6.851  2.7994  2.0861 -1.2242
 6047TIP3    H239777   6.132   5.063   6.878  0.4160 -0.3616 -1.1092
 6048TIP3   OH239778   2.992   1.436   7.404 -0.4898  0.1738  0.5632
 6048TIP3    H139779   3.056   1.455   7.473  0.1914  4.8773 -0.9603
 6048TIP3    H239780   2.908   1.432   7.450  0.2830 -0.2259  2.0054
 6049TIP3   OH239781   5.090   1.536   1.084  0.0055  0.5812  0.4354
 6049TIP3    H139782   5.052   1.609   1.134  0.9448  0.1752  1.8138
 6049TIP3    H239783   5.183   1.540   1.103  0.1766 -0.5241 -0.0821
 6050TIP3   OH239784   5.359   4.217   8.205  0.0473  0.3140  0.2577
 6050TIP3    H139785   5.426   4.190   8.143  1.0220  0.9647  0.9937
 6050TIP3    H239786   5.314   4.135   8.228  0.7658 -0.1793 -0.0397
 6051TIP3   OH239787   1.107   4.057   0.209  0.0108  0.0619 -0.0052
 6051TIP3    H139788   1.082   4.126   0.271 -2.6588  1.0304 -1.9235
 6051TIP3    H239789   1.149   4.104   0.137  1.6981 -0.8496  0.3461
 6052TIP3   OH239790   4.680   4.676   6.760 -0.2410  0.0598 -0.1662
 6052TIP3    H139791   4.749   4.611   6.770 -1.3397 -0.9841  1.1019
 6052TIP3    H239792   4.720   4.747   6.709  1.8840 -0.2725  0.9476
 6053TIP3   OH239793   4.161   3.608   7.092 -0.1464 -0.0214 -0.5365
 6053TIP3    H139794   4.221   3.559   7.147  0.4327  0.6239 -0.5849
 6053TIP3    H239795   4.074   3.583   7.123  0.1707  0.1731  0.5282
 6054TIP3   OH239796   1.322   2.746   2.302 -0.2707  0.0286 -0.3410
 6054TIP3    H139797   1.361   2.724   2.217 -0.2700  1.2301 -0.6716
 6054TIP3    H239798   1.361   2.831   2.324 -3.1647  1.6407 -1.0121
 6055TIP3   OH239799   6.097   5.913   8.783 -0.1283  0.1353  0.7025
 6055TIP3    H139800   6.121   6.006   8.778  0.0160  0.1950  2.0670
 6055TIP3    H239801   6.180   5.867   8.787 -0.2069  0.0506  1.4148
 6056TIP3   OH239802   5.301   0.110   7.644  0.2668 -0.4170 -0.2853
 6056TIP3    H139803   5.341   0.039   7.694  0.4212  0.0719  0.3143
 6056TIP3    H239804   5.287   0.075   7.557  1.0185 -0.9407 -0.1971
 6057TIP3   OH239805   3.356   0.868   0.866 -0.3503 -0.3834  0.3287
 6057TIP3    H139806   3.264   0.854   0.843 -0.9511  1.8815  1.1093
 6057TIP3    H239807   3.367   0.823   0.950 -0.3933 -1.6170 -0.2976
 6058TIP3   OH239808   1.473   3.640   6.811  0.0993  0.4227 -0.4352
 6058TIP3    H139809   1.481   3.719   6.864  1.8894  0.4645 -0.7343
 6058TIP3    H239810   1.397   3.656   6.755  0.1855  1.7471 -0.1925
 6059TIP3   OH239811   4.104   6.288   8.855  0.2328  0.3162  1.0887
 6059TIP3    H139812   4.187   6.328   8.831 -0.3398  1.6062  1.1311
 6059TIP3    H239813   4.070   6.344   8.924 -1.5394  0.9563 -0.2176
 6060TIP3   OH239814   5.463   5.651   1.750  0.0244 -0.1981 -0.0714
 6060TIP3    H139815   5.430   5.680   1.665 -1.2831 -1.1284  0.0840
 6060TIP3    H239816   5.436   5.560   1.757  0.7161 -0.3476  1.0568
 6061TIP3   OH239817   6.173   1.118   1.507 -0.0390  0.3990 -0.3899
 6061TIP3    H139818   6.243   1.172   1.543 -1.2009  0.9685  1.1707
 6061TIP3    H239819   6.099   1.134   1.566 -0.8816 -1.7410 -0.7941
 6062TIP3   OH239820   5.397   0.895   1.377 -0.2346 -0.4281  0.2531
 6062TIP3    H139821   5.380   0.831   1.308  0.5762  0.5105 -0.8626
 6062TIP3    H239822   5.355   0.976   1.346 -1.1472 -0.3657  1.5797
 6063TIP3   OH239823   1.000   6.422   8.013 -0.0848  0.0532  0.5253
 6063TIP3    H139824   1.081   6.460   7.978 -0.2035 -0.6927 -0.5915
 6063TIP3    H239825   1.017   6.328   8.018 -1.3402 -0.3046 -1.0777
 6064TIP3   OH239826   5.361   3.397   8.655 -0.5722 -0.7461  0.0990
 6064TIP3    H139827   5.454   3.420   8.654 -0.6283 -0.4052  1.2461
 6064TIP3    H239828   5.323   3.457   8.720 -1.7506 -0.2968 -0.9811
 6065TIP3   OH239829   0.456   5.391   6.623 -0.2044 -0.2905 -0.3239
 6065TIP3    H139830   0.493   5.310   6.659 -1.0506 -0.2478  0.6697
 6065TIP3    H239831   0.433   5.443   6.700 -0.7120  0.4258 -0.9516
 6066TIP3   OH239832   1.930   5.218   2.084  0.1311 -0.6602  0.3427
 6066TIP3    H139833   1.949   5.260   2.000  0.5706  1.2442  1.3515
 6066TIP3    H239834   2.001   5.154   2.095  1.0915  0.3386  0.0895
 6067TIP3   OH239835   4.133   1.284   0.456 -0.6775 -0.6710  0.3777
 6067TIP3    H139836   4.135   1.355   0.392  0.6045 -1.6728 -0.7412
 6067TIP3    H239837   4.053   1.236   0.437 -1.3927  0.2492  0.9414
 6068TIP3   OH239838   4.488   3.060   0.025  0.2513 -0.4657  0.3204
 6068TIP3    H139839   4.441   3.070  -0.057 -0.4832  0.3609  0.8128
 6068TIP3    H239840   4.446   2.986   0.069 -0.5300  0.1691  0.6880
 6069TIP3   OH239841   0.377   6.506   8.857  0.2222 -0.0602  0.6187
 6069TIP3    H139842   0.410   6.592   8.832 -0.5746  0.0199 -0.2391
 6069TIP3    H239843   0.448   6.466   8.907  0.3866  1.3180  1.5399
 6070TIP3   OH239844   5.057   1.585   8.375  0.7219  0.2364 -0.2557
 6070TIP3    H139845   5.086   1.562   8.286 -1.1995 -1.9747 -0.4176
 6070TIP3    H239846   4.998   1.659   8.362  1.6201  0.9165 -0.6004
 6071TIP3   OH239847   5.577   5.206   2.480 -0.0018 -0.3088  0.6579
 6071TIP3    H139848   5.615   5.118   2.478 -0.4344 -0.4981 -1.3452
 6071TIP3    H239849   5.482   5.191   2.481 -0.0838  0.1312 -0.0581
 6072TIP3   OH239850   3.121   1.739   0.955  0.6044 -0.5005  0.0972
 6072TIP3    H139851   3.060   1.731   0.882  1.3878 -1.0586 -0.5065
 6072TIP3    H239852   3.065   1.740   1.033 -0.3029  1.0620 -0.5346
 6073TIP3   OH239853   6.062   6.502   1.587  0.3590 -0.3539 -0.0747
 6073TIP3    H139854   5.986   6.527   1.640 -1.0447 -4.0689 -0.0418
 6073TIP3    H239855   6.133   6.493   1.650 -0.7482 -2.5916  0.9577
 6074TIP3   OH239856   5.546   0.559   1.174 -0.2550 -0.8902 -0.3562
 6074TIP3    H139857   5.465   0.604   1.201  1.0412 -0.8119  4.4387
 6074TIP3    H239858   5.603   0.630   1.144 -0.3009 -0.1148  1.2503
 6075TIP3   OH239859   4.639   6.083   7.624 -0.3344  0.3807 -0.2664
 6075TIP3    H139860   4.625   5.989   7.635 -0.1248  0.3218 -0.4854
 6075TIP3    H239861   4.551   6.121   7.623 -0.4035  0.2381  0.2441
 6076TIP3   OH239862   6.678   4.513   1.501  0.3744  0.1967 -0.0210
 6076TIP3    H139863   6.726   4.485   1.579 -0.8102  0.2317  0.7548
 6076TIP3    H239864   6.666   4.607   1.513  0.3681  0.2389 -0.3510
 6077TIP3   OH239865   5.170   0.227   7.144  0.0432  0.2833  0.1697
 6077TIP3    H139866   5.097   0.166   7.134 -0.0592  0.4467 -0.0712
 6077TIP3    H239867   5.220   0.191   7.218 -1.8206  1.6822  2.2482
 6078TIP3   OH239868   4.496   1.586   0.843 -0.6543 -0.1571  0.1625
 6078TIP3    H139869   4.505   1.509   0.787 -1.2494 -0.5022  0.5343
 6078TIP3    H239870   4.546   1.564   0.922  2.6763  1.4504 -1.2922
 6079TIP3   OH239871   4.229   0.294   0.843 -0.0784 -0.0063  0.0575
 6079TIP3    H139872   4.154   0.318   0.788 -0.2800  0.4087  0.5122
 6079TIP3    H239873   4.191   0.235   0.909  0.1054 -0.2552 -0.0586
 6080TIP3   OH239874   2.262   6.221   2.519 -0.2573  0.8111 -0.4433
 6080TIP3    H139875   2.170   6.242   2.535  0.1910  2.6440 -0.1179
 6080TIP3    H239876   2.263   6.184   2.431 -1.4134 -0.1191 -0.0984
 6081TIP3   OH239877   4.634   3.645   1.514 -0.5326  0.0916  0.7678
 6081TIP3    H139878   4.553   3.677   1.554  0.1747 -0.2306  2.5439
 6081TIP3    H239879   4.634   3.552   1.533  0.7260  0.2617  1.6861
 6082TIP3   OH239880   6.007   2.472   2.673  0.4751 -0.2476  0.3720
 6082TIP3    H139881   5.919   2.488   2.640  0.3919 -0.0770  0.6671
 6082TIP3    H239882   6.027   2.382   2.648  0.4855 -0.0682 -0.2897
 6083TIP3   OH239883   5.439   2.547   8.930 -0.6362 -0.1659 -0.2983
 6083TIP3    H139884   5.390   2.507   8.859 -1.4032 -0.5010  0.4075
 6083TIP3    H239885   5.376   2.554   9.002  0.2557 -0.3109  0.5202
 6084TIP3   OH239886   5.297   1.223   8.307  0.2946 -0.8542 -0.0879
 6084TIP3    H139887   5.346   1.298   8.342  0.0279 -0.9863  0.5992
 6084TIP3    H239888   5.354   1.187   8.239  1.3056 -1.1955  0.9079
 6085TIP3   OH239889   0.131   0.184   7.881  0.0399  0.1714  0.0401
 6085TIP3    H139890   0.166   0.273   7.878 -0.4164  0.3402 -1.7359
 6085TIP3    H239891   0.129   0.157   7.789  0.6920 -1.8977  0.5869
 6086TIP3   OH239892   5.760   3.901   6.710  0.3673  0.3746  0.0326
 6086TIP3    H139893   5.756   3.957   6.633  1.2452 -1.6910 -1.6205
 6086TIP3    H239894   5.840   3.850   6.699 -0.5952 -1.5191  1.1707
 6087TIP3   OH239895   4.031   3.402   0.062 -0.0619  0.4966 -0.2298
 6087TIP3    H139896   3.949   3.450   0.050  0.1841  1.1152  0.5468
 6087TIP3    H239897   4.096   3.468   0.083  1.0964  0.2638 -2.6661
 6088TIP3   OH239898   0.695   4.123   1.833 -0.5634 -0.3223 -0.2592
 6088TIP3    H139899   0.757   4.057   1.866 -0.5254  0.3134  1.0377
 6088TIP3    H239900   0.742   4.206   1.841 -1.2431  0.0642 -0.1646
 6089TIP3   OH239901   2.871   5.000   7.227  0.3343  0.4412  0.2120
 6089TIP3    H139902   2.880   4.946   7.305  0.7649  0.5538  0.2460
 6089TIP3    H239903   2.779   5.027   7.225  0.2491  0.1605  0.4935
 6090TIP3   OH239904   6.447   1.388   7.102  0.0952 -0.5187 -0.0183
 6090TIP3    H139905   6.390   1.331   7.051  0.6006 -1.3763  0.3610
 6090TIP3    H239906   6.518   1.331   7.132  0.5077  0.2649  0.5288
 6091TIP3   OH239907   4.262   2.083   7.708 -0.4147  0.3184 -0.3210
 6091TIP3    H139908   4.295   2.105   7.795  0.2816 -1.0669 -0.2050
 6091TIP3    H239909   4.167   2.090   7.716 -0.3415  0.5681  0.4422
 6092TIP3   OH239910   3.458   5.405   8.900  0.0061  0.5600  0.3814
 6092TIP3    H139911   3.483   5.365   8.816  0.5471 -0.5132  1.0458
 6092TIP3    H239912   3.432   5.494   8.876 -1.6260 -0.2691 -1.1947
 6093TIP3   OH239913   1.257   1.649   2.320  0.7425  0.3636  0.5358
 6093TIP3    H139914   1.196   1.612   2.256  1.3039 -0.1369  0.2854
 6093TIP3    H239915   1.201   1.678   2.392  0.0596  1.2389 -0.3109
 6094TIP3   OH239916   0.626   1.312   1.364 -0.1671 -0.1646  0.3634
 6094TIP3    H139917   0.598   1.292   1.454  1.9790 -1.4139  0.8152
 6094TIP3    H239918   0.631   1.226   1.322 -0.2248  0.3373 -0.6881
 6095TIP3   OH239919   4.797   6.296   6.311 -0.4777 -0.0365  0.2448
 6095TIP3    H139920   4.759   6.219   6.269  1.8510 -1.0408 -0.1653
 6095TIP3    H239921   4.796   6.363   6.243 -1.0773 -0.1817  0.1020
 6096TIP3   OH239922   2.497   0.001   0.665  0.0660 -0.8160  0.9586
 6096TIP3    H139923   2.472  -0.081   0.707 -0.0938 -1.2402  0.0671
 6096TIP3    H239924   2.456  -0.003   0.579  0.2753  0.0861  0.8066
 6097TIP3   OH239925   5.807   1.231   7.025  0.5412  0.5069 -0.2567
 6097TIP3    H139926   5.769   1.239   6.938  0.2671 -0.5461 -0.2457
 6097TIP3    H239927   5.780   1.145   7.055  1.5354  0.4224  0.4353
 6098TIP3   OH239928   5.200   3.182   8.858  0.0815 -0.3813 -0.2901
 6098TIP3    H139929   5.114   3.148   8.834 -0.8540  1.4002  0.3554
 6098TIP3    H239930   5.221   3.245   8.790  0.3389  0.0380  0.1696
 6099TIP3   OH239931   5.365   0.253   1.631 -0.5248  0.4172  0.2009
 6099TIP3    H139932   5.427   0.326   1.625 -0.5340  0.3229 -1.4984
 6099TIP3    H239933   5.385   0.211   1.714  1.7289  0.3752 -0.3000
 6100TIP3   OH239934   3.354   0.562   0.249 -0.0504  0.4468 -0.3075
 6100TIP3    H139935   3.396   0.482   0.279  2.6199  1.9541  0.3189
 6100TIP3    H239936   3.332   0.545   0.158 -2.6015 -2.0534  0.6324
 6101TIP3   OH239937   0.034   6.604   7.875 -0.1714  0.0563 -0.0684
 6101TIP3    H139938   0.004   6.610   7.784 -0.7350  0.0341  0.1081
 6101TIP3    H239939  -0.002   6.522   7.907 -0.4731  0.3430  0.3450
 6102TIP3   OH239940   4.737   4.789   6.997 -0.4901 -0.2469 -0.3149
 6102TIP3    H139941   4.699   4.743   6.922 -1.1474 -4.0436  2.1221
 6102TIP3    H239942   4.707   4.741   7.074  3.4840  0.8017  2.2204
 6103TIP3   OH239943   3.420   0.732   1.093  0.6826  0.3550  0.5597
 6103TIP3    H139944   3.498   0.677   1.088  1.4637  1.5419 -1.2084
 6103TIP3    H239945   3.350   0.671   1.116  1.6836 -1.2297 -0.3957
 6104TIP3   OH239946   6.053   2.025   7.752  0.6193 -0.1196 -0.2892
 6104TIP3    H139947   6.053   1.934   7.780  1.8179  0.0772  0.4358
 6104TIP3    H239948   6.123   2.066   7.803  2.1423  0.5164 -2.7272
 6105TIP3   OH239949   0.897   0.550   0.025  0.1389  0.6684 -0.3199
 6105TIP3    H139950   0.949   0.490   0.078 -1.1622 -0.6360 -0.4527
 6105TIP3    H239951   0.930   0.539  -0.064 -0.1267  0.0674 -0.3541
 6106TIP3   OH239952   6.412   0.341   2.064 -0.0643 -0.3726 -0.2486
 6106TIP3    H139953   6.374   0.411   2.011  1.1023  0.3284 -0.2114
 6106TIP3    H239954   6.346   0.273   2.065 -1.0113  0.5060 -0.7570
 6107TIP3   OH239955   2.832   4.030   7.996 -0.1126  1.2580  0.2584
 6107TIP3    H139956   2.838   3.983   8.080 -2.8709  1.1363  0.4893
 6107TIP3    H239957   2.738   4.034   7.978  0.3841  1.3051 -2.8456
 6108TIP3   OH239958   6.227   5.737   2.703  0.5123  0.1402 -0.0757
 6108TIP3    H139959   6.267   5.654   2.677 -0.0298  0.2676 -1.3590
 6108TIP3    H239960   6.134   5.717   2.711  0.7958 -0.4187  3.9137
 6109TIP3   OH239961   0.239   4.009   0.588  0.1263  0.5317 -0.0386
 6109TIP3    H139962   0.158   3.960   0.597  0.7663 -0.7906 -1.1397
 6109TIP3    H239963   0.253   4.048   0.675  0.7121 -3.0484  1.6709
 6110TIP3   OH239964   2.205   4.384   1.294  0.3604  0.2304  0.9980
 6110TIP3    H139965   2.130   4.333   1.325 -0.0536  0.2629  0.0957
 6110TIP3    H239966   2.175   4.475   1.299 -0.2582  0.1706 -0.7889
 6111TIP3   OH239967   0.113   1.911   1.194 -0.0655 -0.3687  0.4269
 6111TIP3    H139968   0.196   1.953   1.173  0.1284 -0.7956  0.3196
 6111TIP3    H239969   0.137   1.822   1.219 -0.2699  0.0821  2.4307
 6112TIP3   OH239970   2.634   0.317   8.607  0.3164 -0.2285  0.1463
 6112TIP3    H139971   2.615   0.363   8.525  0.7195 -0.1514  0.0944
 6112TIP3    H239972   2.572   0.244   8.609  0.9473 -0.8040 -0.6963
 6113TIP3   OH239973   6.432   1.875   0.951  0.3060  0.6176 -0.1401
 6113TIP3    H139974   6.511   1.894   1.002 -0.0691  0.3466  0.5634
 6113TIP3    H239975   6.362   1.919   0.999 -0.5116 -2.0203  1.2732
 6114TIP3   OH239976   1.457   2.560   0.320  0.0760 -0.2416  0.3129
 6114TIP3    H139977   1.484   2.593   0.234 -1.3527  2.1525  0.6700
 6114TIP3    H239978   1.496   2.621   0.382 -1.2557 -0.2099  1.1568
 6115TIP3   OH239979   1.266   4.110   1.997  0.5814 -0.3396 -0.4191
 6115TIP3    H139980   1.254   4.055   1.919 -0.9176 -0.2605 -0.2556
 6115TIP3    H239981   1.199   4.177   1.990 -0.4203 -1.0647  1.5934
 6116TIP3   OH239982   5.612   5.848   2.096  0.0070 -0.1019  0.2260
 6116TIP3    H139983   5.593   5.930   2.142 -0.9006 -0.0736 -0.1826
 6116TIP3    H239984   5.697   5.863   2.054  1.6150 -0.6252  3.0296
 6117TIP3   OH239985   0.043   2.803   1.155 -0.8068 -0.2472 -0.1319
 6117TIP3    H139986   0.096   2.881   1.172  0.6663 -1.1717 -0.2582
 6117TIP3    H239987  -0.024   2.832   1.094 -0.2329  0.8912 -0.2581
 6118TIP3   OH239988   5.216   4.688   7.142  0.4557  0.2701 -0.1689
 6118TIP3    H139989   5.216   4.621   7.211  0.8426  0.6639  0.2242
 6118TIP3    H239990   5.175   4.646   7.067 -0.6501  0.0644  0.5292
 6119TIP3   OH239991   0.200   6.408   6.958 -0.4770 -0.2264  0.3310
 6119TIP3    H139992   0.231   6.498   6.955  0.9283 -0.6369  1.4461
 6119TIP3    H239993   0.108   6.415   6.985  0.0287  0.8162  1.9295
 6120TIP3   OH239994   0.687   1.383   7.292  0.1880 -0.1372  0.6442
 6120TIP3    H139995   0.674   1.455   7.230 -1.7170  0.0984  1.2530
 6120TIP3    H239996   0.764   1.336   7.258 -1.2332 -0.5034 -2.3818
 6121TIP3   OH239997   5.549   2.483   8.621 -0.2590  0.2164  0.0205
 6121TIP3    H139998   5.469   2.459   8.668  0.2094 -1.1608  0.1697
 6121TIP3    H239999   5.573   2.404   8.573  0.9733  0.6321 -0.0844
 6122TIP3   OH240000   3.541   4.012   6.785 -0.0351  0.4200 -0.1704
 6122TIP3    H140001   3.572   4.056   6.706  2.9838 -0.9619  0.0779
 6122TIP3    H240002   3.582   3.925   6.781 -0.9836 -0.2043  2.1872
 6123TIP3   OH240003   5.745   0.062   6.908  0.3817  0.8509  0.1377
 6123TIP3    H140004   5.710  -0.027   6.907  0.3694  0.8491  0.4176
 6123TIP3    H240005   5.812   0.062   6.840 -0.1043  0.8305 -0.3442
 6124TIP3   OH240006   2.492   1.614   7.278  0.4927 -0.2380 -1.0047
 6124TIP3    H140007   2.530   1.528   7.264 -2.9050 -2.2582  0.8364
 6124TIP3    H240008   2.426   1.623   7.209  0.4429  0.6603 -0.8567
 6125TIP3   OH240009   3.953   5.804   1.972  0.6644  0.0750 -0.4811
 6125TIP3    H140010   3.931   5.848   1.890  0.7950 -1.6557 -1.4927
 6125TIP3    H240011   3.933   5.868   2.040  1.2405  1.8075 -1.8953
 6126TIP3   OH240012   3.311   1.729   7.748  0.0826 -0.9102 -0.3231
 6126TIP3    H140013   3.384   1.767   7.796 -0.5285 -0.7792  0.5167
 6126TIP3    H240014   3.350   1.695   7.667  1.0087 -0.5545 -0.0314
 6127TIP3   OH240015   1.612   3.560   7.081  0.3317  0.2443 -0.2664
 6127TIP3    H140016   1.552   3.589   7.012  0.9708 -0.7837 -1.3138
 6127TIP3    H240017   1.698   3.560   7.039  0.8232  0.1033  0.7066
 6128TIP3   OH240018   5.379   1.498   0.193  0.0157 -0.1248 -0.3783
 6128TIP3    H140019   5.360   1.588   0.218 -1.7048 -0.6530  0.3259
 6128TIP3    H240020   5.474   1.491   0.201  0.3610  1.9817 -1.7814
 6129TIP3   OH240021   0.354   6.399   8.139 -0.2031  0.1441 -0.0682
 6129TIP3    H140022   0.386   6.331   8.199  0.9325 -0.9543 -1.8416
 6129TIP3    H240023   0.364   6.481   8.188 -2.5494 -0.9472  2.5362
 6130TIP3   OH240024   0.203   3.748   7.619  0.2924 -0.1354  0.7365
 6130TIP3    H140025   0.126   3.794   7.651 -1.1301 -1.3607 -0.7699
 6130TIP3    H240026   0.220   3.680   7.685 -0.7465 -0.7081  0.4259
 6131TIP3   OH240027   0.471   3.239   6.858 -0.0169 -0.5372 -0.1688
 6131TIP3    H140028   0.549   3.185   6.844  0.1632 -0.2480 -0.2816
 6131TIP3    H240029   0.422   3.232   6.776  0.7301  0.6508 -0.7423
 6132TIP3   OH240030   4.348   6.528   2.077  0.6295  0.2324  0.2312
 6132TIP3    H140031   4.298   6.451   2.105 -0.3704  1.2465  1.2896
 6132TIP3    H240032   4.435   6.515   2.115  0.7218 -0.7498 -0.2758
 6133TIP3   OH240033   1.789   0.040   0.842 -0.0580 -0.6679  0.2181
 6133TIP3    H140034   1.774   0.025   0.936  1.3145 -1.1225  0.3948
 6133TIP3    H240035   1.745  -0.034   0.799 -0.5592 -0.5463  0.5117
 6134TIP3   OH240036   5.034   4.850   1.248  0.5041  0.9472  0.0391
 6134TIP3    H140037   5.106   4.883   1.301  0.0282  1.3204  0.4719
 6134TIP3    H240038   5.057   4.871   1.158  1.0811  0.7719  0.1459
 6135TIP3   OH240039   2.383   6.158   7.689 -0.5727  0.0667  0.4702
 6135TIP3    H140040   2.444   6.105   7.741 -0.1971 -0.4140 -0.4290
 6135TIP3    H240041   2.390   6.246   7.725  1.8808  0.3906 -0.5945
 6136TIP3   OH240042   0.499   1.220   0.312  1.0210  0.2797 -0.5561
 6136TIP3    H140043   0.492   1.314   0.333 -2.0878 -0.2043  1.1473
 6136TIP3    H240044   0.483   1.216   0.217  0.5875  1.4570 -0.5561
 6137TIP3   OH240045   5.999   2.598   8.260 -0.1964  0.0029  0.1187
 6137TIP3    H140046   6.057   2.559   8.325 -0.0077 -0.2008 -0.1665
 6137TIP3    H240047   5.912   2.567   8.284  0.0778 -1.5406 -0.7601
 6138TIP3   OH240048   2.132   4.050   1.845 -0.5707 -0.5704 -0.3627
 6138TIP3    H140049   2.168   4.123   1.895 -2.6033  0.5441 -0.4343
 6138TIP3    H240050   2.180   3.973   1.877  0.7719  0.6186  0.5875
 6139TIP3   OH240051   6.444   4.788   7.181 -0.0037  0.2587  0.0159
 6139TIP3    H140052   6.510   4.800   7.113  1.3572 -0.9932  1.0366
 6139TIP3    H240053   6.433   4.874   7.220  2.4435  0.1921  1.0294
 6140TIP3   OH240054   5.513   6.117   0.821  0.0329 -0.1048 -0.0096
 6140TIP3    H140055   5.465   6.052   0.771 -0.6149 -0.0991  0.5751
 6140TIP3    H240056   5.546   6.069   0.897  1.6809 -0.2941 -0.8000
 6141TIP3   OH240057   6.580   0.055   2.596 -0.1721 -0.4143 -0.2844
 6141TIP3    H140058   6.569  -0.036   2.622  0.2660 -0.5114 -0.4388
 6141TIP3    H240059   6.491   0.087   2.582 -0.6541  0.2159  3.3040
 6142TIP3   OH240060   2.561   1.296   8.729 -0.6712 -0.1302 -0.3121
 6142TIP3    H140061   2.625   1.264   8.793 -1.4393 -1.8435 -0.3526
 6142TIP3    H240062   2.615   1.342   8.663  0.5994 -1.9397 -0.6018
 6143TIP3   OH240063   3.245   5.790   0.430 -0.5235  0.7876 -0.3506
 6143TIP3    H140064   3.275   5.844   0.503 -0.8412 -0.3410  0.6470
 6143TIP3    H240065   3.307   5.808   0.360  0.0035  1.6264  0.3039
 6144TIP3   OH240066   0.034   4.113   6.839  0.0562 -0.2870  0.3331
 6144TIP3    H140067  -0.001   4.188   6.886 -0.4158 -0.5539  0.4141
 6144TIP3    H240068   0.078   4.061   6.907 -0.6429 -0.6827  0.4939
 6145TIP3   OH240069   5.223   0.793   0.996  0.3675  0.0361  0.1538
 6145TIP3    H140070   5.255   0.880   1.021 -0.8078  0.9532 -1.3473
 6145TIP3    H240071   5.156   0.810   0.930  0.1332 -2.0296 -0.2153
 6146TIP3   OH240072   5.004   3.980   1.458 -0.3700 -0.2887  0.3387
 6146TIP3    H140073   5.033   3.888   1.458  4.3715  0.9111 -0.4021
 6146TIP3    H240074   5.029   4.013   1.372 -2.7927  1.5545  0.2556
 6147TIP3   OH240075   0.597   4.646   8.551  0.6731 -0.6369  0.0687
 6147TIP3    H140076   0.579   4.726   8.501  0.5922 -0.8357 -0.2170
 6147TIP3    H240077   0.570   4.575   8.494 -1.0440 -0.8317  1.0282
 6148TIP3   OH240078   6.562   6.308   0.905 -0.2958 -0.1410 -0.1012
 6148TIP3    H140079   6.596   6.325   0.817  1.4994 -0.3324  0.5039
 6148TIP3    H240080   6.536   6.394   0.938  1.4105  0.3416  0.0846
 6149TIP3   OH240081   1.016   0.724   8.521  0.1956  0.2145  0.3299
 6149TIP3    H140082   1.015   0.638   8.564 -0.4765  0.2106  0.3260
 6149TIP3    H240083   1.019   0.703   8.427  0.5804  0.2081  0.3412
 6150TIP3   OH240084   2.965   2.659   1.932  0.3858 -0.9449  0.2072
 6150TIP3    H140085   3.051   2.625   1.905  1.3459  1.2828  0.2011
 6150TIP3    H240086   2.938   2.602   2.004  2.1484 -1.3438  0.5972
 6151TIP3   OH240087   0.135   1.405   2.657  0.1590 -0.3760 -0.1014
 6151TIP3    H140088   0.216   1.447   2.625  0.8467 -1.2337  0.4759
 6151TIP3    H240089   0.126   1.437   2.746  0.8719 -1.6748  0.4615
 6152TIP3   OH240090   1.429   1.688   7.189 -0.0630 -0.2421  0.4403
 6152TIP3    H140091   1.439   1.720   7.099  0.4688 -1.0959  0.1856
 6152TIP3    H240092   1.421   1.593   7.179 -2.1262 -0.1935  1.1283
 6153TIP3   OH240093   3.135   0.272   2.130  0.2227  0.2944 -0.0465
 6153TIP3    H140094   3.059   0.215   2.117  0.2394  0.5065 -1.1833
 6153TIP3    H240095   3.115   0.322   2.209  0.2377 -1.3359  1.0375
 6154TIP3   OH240096   0.304   4.393   0.869 -0.2488 -0.3646 -0.3633
 6154TIP3    H140097   0.287   4.307   0.829  1.1269 -0.5739 -0.5601
 6154TIP3    H240098   0.248   4.395   0.946 -0.5303 -1.3188 -0.5261
 6155TIP3   OH240099   5.979   5.866   7.021 -0.1672  0.3229 -0.5259
 6155TIP3    H140100   6.018   5.797   7.075 -0.7870  0.9216  0.7389
 6155TIP3    H240101   6.053   5.906   6.976  0.3875 -0.1076 -0.0124
 6156TIP3   OH240102   3.946   0.073   6.221  0.4764 -0.0555 -0.3038
 6156TIP3    H140103   4.036   0.073   6.254  0.6777  0.4317 -0.8504
 6156TIP3    H240104   3.893   0.097   6.297  0.8485  0.0999 -0.0918
 6157TIP3   OH240105   2.450   4.629   8.062 -0.3556 -0.1692 -0.2674
 6157TIP3    H140106   2.519   4.568   8.036  0.1810  0.0516  0.6219
 6157TIP3    H240107   2.490   4.716   8.056 -1.5998  0.3226 -3.1778
 6158TIP3   OH240108   1.197   0.033   1.600 -0.4077  0.2201 -0.4812
 6158TIP3    H140109   1.162  -0.014   1.676  1.8567 -1.1376 -0.1818
 6158TIP3    H240110   1.150   0.117   1.600 -2.1811 -0.6903  0.9589
 6159TIP3   OH240111   4.200   5.327   7.762  0.2292  0.0017  0.0898
 6159TIP3    H140112   4.155   5.404   7.796  2.1628  0.9102  0.7080
 6159TIP3    H240113   4.283   5.324   7.810  0.6360 -1.8966 -0.6334
 6160TIP3   OH240114   0.080   6.286   0.980 -0.1281  0.0559  0.0357
 6160TIP3    H140115   0.058   6.229   0.907 -1.8908  2.8979 -1.8516
 6160TIP3    H240116   0.156   6.336   0.949  0.2012  0.0973  0.8752
 6161TIP3   OH240117   5.132   5.294   8.009 -0.1907  0.4928  0.2301
 6161TIP3    H140118   5.146   5.383   7.979  0.4974  1.1124  2.2141
 6161TIP3    H240119   5.037   5.285   8.014 -0.2978  0.6422 -1.2037
 6162TIP3   OH240120   2.081   1.653   7.215  0.4037  0.0069  0.1344
 6162TIP3    H140121   1.987   1.668   7.199  0.3581  0.4490  0.7819
 6162TIP3    H240122   2.095   1.682   7.305  0.8235 -1.6377  0.6398
 6163TIP3   OH240123   2.874   4.483   1.579  0.1892  0.1931 -0.0340
 6163TIP3    H140124   2.873   4.427   1.657 -1.0503  1.2340  0.7434
 6163TIP3    H240125   2.935   4.554   1.601  0.7817 -0.1478 -0.5213
 6164TIP3   OH240126   5.703   0.045   1.006  0.3187 -0.4843  0.0193
 6164TIP3    H140127   5.689  -0.045   0.976  0.4606 -0.0389 -1.4495
 6164TIP3    H240128   5.616   0.074   1.034  0.0519 -0.6852 -0.5987
 6165TIP3   OH240129   4.048   0.367   0.160  0.2536  0.5439 -0.0556
 6165TIP3    H140130   4.003   0.381   0.243  2.7837  1.2462  1.3269
 6165TIP3    H240131   4.139   0.391   0.178  1.3505 -1.3188 -2.4681
 6166TIP3   OH240132   1.058   1.212   0.437 -0.1157 -0.1985 -1.0520
 6166TIP3    H140133   1.041   1.266   0.360  0.2007 -2.0227 -2.4601
 6166TIP3    H240134   0.984   1.151   0.440 -0.8267  0.6783  0.9052
 6167TIP3   OH240135   2.639   0.552   7.371  0.2453 -0.2822 -0.5880
 6167TIP3    H140136   2.668   0.472   7.328  1.3708 -0.7006  0.8573
 6167TIP3    H240137   2.549   0.564   7.342  0.6368 -1.0763 -2.2180
 6168TIP3   OH240138   4.569   2.047   1.408  0.4927 -0.5609  0.1198
 6168TIP3    H140139   4.489   2.072   1.362  0.8102 -0.4134 -0.3631
 6168TIP3    H240140   4.555   2.076   1.499 -0.7160 -2.1322  0.4728
 6169TIP3   OH240141   6.017   2.518   7.281 -0.0202  0.0932  0.1817
 6169TIP3    H140142   6.032   2.518   7.376 -2.6366  0.4029  0.6479
 6169TIP3    H240143   6.011   2.426   7.258  0.8702  0.0079  0.2342
 6170TIP3   OH240144   4.077   0.605   7.702  0.3232 -0.3984 -0.0884
 6170TIP3    H140145   4.094   0.695   7.672 -1.3810 -0.0351 -0.0805
 6170TIP3    H240146   3.986   0.588   7.675  0.2692 -1.7358  0.8445
 6171TIP3   OH240147   0.720   0.089   1.306 -0.2049 -0.2389 -0.1238
 6171TIP3    H140148   0.690   0.019   1.247 -2.5204 -0.6127  1.3978
 6171TIP3    H240149   0.748   0.043   1.385  0.0853  0.4655  0.1901
 6172TIP3   OH240150   1.870   5.485   1.593  0.2812 -0.3252 -0.6585
 6172TIP3    H140151   1.937   5.417   1.600  0.9020  0.2757 -0.6729
 6172TIP3    H240152   1.802   5.445   1.538 -0.1684 -1.5486  0.6981
 6173TIP3   OH240153   2.145   6.145   1.086 -0.1226  0.8181  0.2734
 6173TIP3    H140154   2.080   6.200   1.128 -1.1654  1.0958 -1.6151
 6173TIP3    H240155   2.229   6.181   1.116 -0.7827  1.0066  2.0405
 6174TIP3   OH240156   6.475   4.651   8.711  0.7886  0.0537  0.1340
 6174TIP3    H140157   6.504   4.738   8.686  0.3663 -0.1762 -1.2080
 6174TIP3    H240158   6.544   4.619   8.770  0.4917  1.6279  1.4237
 6175TIP3   OH240159   3.396   1.645   1.355 -0.5784 -0.1212 -0.4151
 6175TIP3    H140160   3.345   1.638   1.436  1.6983  0.8049  1.1745
 6175TIP3    H240161   3.470   1.586   1.369  0.5768  1.1004 -1.2232
 6176TIP3   OH240162   0.943   3.149   6.975 -0.6190  0.1524 -0.0526
 6176TIP3    H140163   1.033   3.120   6.963 -1.6940 -3.1596 -1.5364
 6176TIP3    H240164   0.943   3.241   6.947  2.2715  0.2980  0.1458
 6177TIP3   OH240165   5.159   6.481   0.463 -0.1053 -0.4670  0.2913
 6177TIP3    H140166   5.247   6.509   0.489 -0.7399  0.4779  1.4976
 6177TIP3    H240167   5.173   6.435   0.380  1.3315  1.0653 -0.3909
 6178TIP3   OH240168   6.096   5.368   8.307  0.5394  0.3359  0.0644
 6178TIP3    H140169   6.032   5.369   8.236  1.1314 -0.2864 -0.4804
 6178TIP3    H240170   6.103   5.276   8.332  0.3020  0.5508  0.9757
 6179TIP3   OH240171   1.985   2.730   7.597 -0.0121  0.0559  0.4812
 6179TIP3    H140172   1.939   2.805   7.559  0.5151  0.4157  0.5408
 6179TIP3    H240173   2.078   2.746   7.577  0.1248 -0.4713  0.6813
 6180TIP3   OH240174   0.601   4.441   6.678 -0.0381 -0.4488  0.4168
 6180TIP3    H140175   0.656   4.373   6.637  1.7191  1.3344 -0.3723
 6180TIP3    H240176   0.538   4.465   6.610  1.7537  1.2697 -0.7457
 6181TIP3   OH240177   6.342   0.457   2.314 -0.4092  0.5266 -0.0164
 6181TIP3    H140178   6.362   0.408   2.234 -1.3034  0.3840 -0.1699
 6181TIP3    H240179   6.348   0.549   2.288 -0.8389  0.4810 -0.2958
 6182TIP3   OH240180   3.546   3.715   1.991 -0.4090  0.2116 -0.0109
 6182TIP3    H140181   3.560   3.627   1.956 -0.0677  0.1759  0.2096
 6182TIP3    H240182   3.616   3.726   2.054  0.7944  1.4122 -1.4858
 6183TIP3   OH240183   3.069   0.880   1.139  0.3467 -0.2589 -0.0499
 6183TIP3    H140184   3.074   0.849   1.229  2.5307  1.4682  0.5132
 6183TIP3    H240185   3.113   0.965   1.141 -0.6175  0.3791 -2.5284
 6184TIP3   OH240186   5.555   3.835   7.670 -0.0980 -0.4669 -0.7646
 6184TIP3    H140187   5.625   3.770   7.669  0.3540  0.0041 -0.5982
 6184TIP3    H240188   5.497   3.806   7.740  1.1106  0.3165  0.6426
 6185TIP3   OH240189   1.586   1.554   6.825  0.4246  0.7208  0.3146
 6185TIP3    H140190   1.494   1.528   6.826  0.9174 -1.1320  1.7555
 6185TIP3    H240191   1.585   1.643   6.860 -0.7086  0.2258  1.6335
 6186TIP3   OH240192   1.736   6.149   7.920  0.4190  0.1898  0.5268
 6186TIP3    H140193   1.657   6.194   7.889  0.1501  0.6016  1.7727
 6186TIP3    H240194   1.749   6.181   8.009  0.2452 -2.1752  1.4805
 6187TIP3   OH240195   3.926   0.156   7.709  0.4547  0.6824 -0.0597
 6187TIP3    H140196   3.864   0.087   7.684  1.9490 -0.6657 -0.2121
 6187TIP3    H240197   4.012   0.119   7.690  1.3057  2.9716 -1.0627
 6188TIP3   OH240198   0.930   6.754   0.246 -0.1646  0.2833  0.9692
 6188TIP3    H140199   0.888   6.715   0.322 -0.3286 -1.5364 -0.0046
 6188TIP3    H240200   0.914   6.692   0.175  0.8722  1.4237 -0.3215
 6189TIP3   OH240201   0.572   1.438   0.718  0.0788 -0.3485  0.5974
 6189TIP3    H140202   0.649   1.423   0.663  0.6941 -0.1890  1.3963
 6189TIP3    H240203   0.608   1.468   0.801 -0.9191  1.2909  0.4699
 6190TIP3   OH240204   4.689   3.177   1.925  0.1737 -0.5213 -0.1499
 6190TIP3    H140205   4.664   3.177   2.017  1.7239  3.8076  0.5323
 6190TIP3    H240206   4.621   3.229   1.882  0.8123 -0.2831 -0.8940
 6191TIP3   OH240207   1.171   6.109   8.691 -0.1914 -0.2830  0.0256
 6191TIP3    H140208   1.240   6.159   8.734 -0.4144 -0.7430  0.9456
 6191TIP3    H240209   1.162   6.030   8.744 -0.9406 -0.5569 -0.4878
 6192TIP3   OH240210   0.113   6.632   8.852  0.0748 -0.3148  0.3994
 6192TIP3    H140211   0.183   6.660   8.793 -1.2832  1.9244 -0.2594
 6192TIP3    H240212   0.093   6.543   8.824  2.3861 -0.9077  0.4032
 6193TIP3   OH240213   1.065   5.595   1.235  0.4556  0.3771  0.4828
 6193TIP3    H140214   0.982   5.558   1.264 -0.2921 -0.1354 -2.1113
 6193TIP3    H240215   1.128   5.524   1.248 -0.1207 -0.3018 -0.3601
 6194TIP3   OH240216   3.799   3.329   6.800  0.1530 -0.5042 -0.3816
 6194TIP3    H140217   3.756   3.272   6.735 -0.7320 -0.5418  0.2108
 6194TIP3    H240218   3.745   3.320   6.878 -0.5166  1.7971 -0.5095
 6195TIP3   OH240219   4.887   0.495   0.190  0.3054 -0.6579  0.1093
 6195TIP3    H140220   4.808   0.446   0.214  0.1635 -1.4570 -1.7928
 6195TIP3    H240221   4.892   0.486   0.095  1.0382  1.9461 -0.1526
 6196TIP3   OH240222   2.582   0.389   8.881 -0.1948  0.2538 -0.2826
 6196TIP3    H140223   2.601   0.390   8.787  0.4088 -2.0647 -0.2435
 6196TIP3    H240224   2.667   0.377   8.923 -0.6666 -0.6376  0.4498
 6197TIP3   OH240225   5.328   6.084   7.675 -0.5263  0.2027  0.1548
 6197TIP3    H140226   5.288   6.130   7.749 -3.2872 -1.2693 -0.3153
 6197TIP3    H240227   5.260   6.025   7.644  1.3523 -0.8916 -2.1364
 6198TIP3   OH240228   3.783   4.740   6.393  0.0061  0.0602 -0.6393
 6198TIP3    H140229   3.834   4.702   6.465 -0.9329 -0.2227 -0.1206
 6198TIP3    H240230   3.739   4.666   6.352 -0.7953  0.4310 -0.4537
 6199TIP3   OH240231   0.809   0.298   7.901  0.2245  0.1707  0.0251
 6199TIP3    H140232   0.839   0.246   7.826  1.0319  0.1303  0.3702
 6199TIP3    H240233   0.796   0.386   7.865  0.0656  0.0218 -0.2862
 6200TIP3   OH240234   6.446   5.894   1.058  0.0455 -0.0040 -0.1380
 6200TIP3    H140235   6.486   5.851   0.982  0.5365 -0.3099  0.2883
 6200TIP3    H240236   6.442   5.826   1.125 -0.6547  0.1865  0.0229
 6201TIP3   OH240237   2.744   2.518   6.463  0.2066  0.0724 -0.1089
 6201TIP3    H140238   2.831   2.558   6.475  1.0513 -1.4934 -0.7262
 6201TIP3    H240239   2.684   2.592   6.459  1.3435  1.1663  1.5817
 6202TIP3   OH240240   6.743   6.617   1.378  0.1970  0.1927 -0.5875
 6202TIP3    H140241   6.749   6.553   1.307  1.3473  1.9154 -2.1299
 6202TIP3    H240242   6.786   6.574   1.452 -0.8401 -1.5680 -0.9337
 6203TIP3   OH240243   3.521   0.764   7.762  0.0297  0.0083  0.9014
 6203TIP3    H140244   3.563   0.767   7.848  1.4584  0.8325  0.2337
 6203TIP3    H240245   3.485   0.676   7.755  3.2659 -1.4619  0.8677
 6204TIP3   OH240246   2.811   0.275   0.618 -0.4205 -0.5017 -0.1280
 6204TIP3    H140247   2.876   0.318   0.562 -2.3551  2.4367 -0.3492
 6204TIP3    H240248   2.751   0.233   0.556  0.7813 -2.6087  0.0542
 6205TIP3   OH240249   2.320   6.209   8.339  0.1935 -0.3691  0.2647
 6205TIP3    H140250   2.232   6.174   8.353  0.4224 -1.0148  0.1280
 6205TIP3    H240251   2.366   6.140   8.292 -0.2697  1.3239 -2.9547
 6206TIP3   OH240252   4.935   4.709   0.109 -0.2922 -0.0174 -0.1612
 6206TIP3    H140253   4.844   4.691   0.134 -0.8924  0.7821 -1.6439
 6206TIP3    H240254   4.976   4.740   0.190 -0.9579 -1.6855  0.8590
 6207TIP3   OH240255   6.088   2.757   1.345  0.4989 -0.0652  0.2971
 6207TIP3    H140256   6.024   2.827   1.356 -2.3636 -2.5662  1.0250
 6207TIP3    H240257   6.132   2.751   1.430  0.6600  0.7320  0.2732
 6208TIP3   OH240258   2.912   3.602   7.397  0.9264 -0.5181  0.7254
 6208TIP3    H140259   2.853   3.659   7.347  2.4349  1.0362  0.6058
 6208TIP3    H240260   2.961   3.555   7.330 -0.6321 -2.4040  0.8227
 6209TIP3   OH240261   5.572   0.549   6.717  0.3009 -0.6633  1.0439
 6209TIP3    H140262   5.620   0.630   6.701 -0.9405 -0.4483 -2.5114
 6209TIP3    H240263   5.629   0.480   6.684 -0.7782 -0.6259 -1.0389
 6210TIP3   OH240264   0.717   6.295   7.814  0.0518  0.1374 -0.1264
 6210TIP3    H140265   0.764   6.360   7.762 -0.8269  0.0942 -1.0043
 6210TIP3    H240266   0.625   6.318   7.803 -0.1515  0.2778  1.6381
 6211TIP3   OH240267   6.209   3.290   7.871  0.9612  0.1431 -0.1151
 6211TIP3    H140268   6.264   3.313   7.945 -0.9662 -0.6910  1.7034
 6211TIP3    H240269   6.119   3.303   7.902  0.0616  0.0289 -2.4127
 6212TIP3   OH240270   5.518   2.127   8.408  0.6758  0.5876 -0.1402
 6212TIP3    H140271   5.487   2.196   8.349  2.8807 -0.0725 -2.1848
 6212TIP3    H240272   5.610   2.149   8.425  0.9004 -0.8723  0.6872
 6213TIP3   OH240273   0.001   4.913   1.879  0.6630  0.6748  0.2145
 6213TIP3    H140274  -0.095   4.909   1.886  0.5860 -0.5982 -0.9007
 6213TIP3    H240275   0.017   4.979   1.812  0.5542  0.8760  0.3883
 6214TIP3   OH240276   6.043   6.356   0.380  0.0985 -0.0078  0.3203
 6214TIP3    H140277   6.086   6.278   0.415 -1.0514 -0.2741  1.1849
 6214TIP3    H240278   5.992   6.324   0.306  1.7929  0.4070 -1.0994
 6215TIP3   OH240279   5.579   4.198   2.667  0.0608 -0.3811  0.2771
 6215TIP3    H140280   5.647   4.144   2.628 -0.2061 -0.4017 -0.1619
 6215TIP3    H240281   5.612   4.219   2.755  0.3966 -0.8184  0.2549
 6216TIP3   OH240282   4.442   2.453   7.964  0.5937 -0.2425  0.2848
 6216TIP3    H140283   4.529   2.446   7.925  0.0590  0.1152 -1.0403
 6216TIP3    H240284   4.395   2.513   7.906 -0.1631  0.5503  1.6719
 6217TIP3   OH240285   1.821   3.438   8.858  0.8619 -0.1318 -0.2859
 6217TIP3    H140286   1.775   3.521   8.842 -0.8291 -0.9875  0.0252
 6217TIP3    H240287   1.884   3.459   8.927 -2.0246  0.1122  2.4710
 6218TIP3   OH240288   0.387   4.657   1.417 -0.1990  0.7231  0.2534
 6218TIP3    H140289   0.441   4.595   1.369  0.8797  0.7471  1.3982
 6218TIP3    H240290   0.411   4.743   1.382  1.3512  0.8353  1.5001
 6219TIP3   OH240291   3.721   0.622   2.011 -0.1890 -0.0696  0.0405
 6219TIP3    H140292   3.808   0.664   2.011 -0.8745  1.4871 -1.5923
 6219TIP3    H240293   3.679   0.655   2.090  1.0659 -1.7735  1.4993
 6220TIP3   OH240294   6.317   1.558   8.215 -0.5726  0.0038  0.1438
 6220TIP3    H140295   6.301   1.643   8.255  0.9325 -0.2673  1.3722
 6220TIP3    H240296   6.275   1.495   8.274  0.9544 -0.3282  0.9169
 6221TIP3   OH240297   5.342   4.622   8.839 -0.5690  0.2190 -0.1980
 6221TIP3    H140298   5.366   4.713   8.855 -0.7329  0.1233  0.6391
 6221TIP3    H240299   5.250   4.626   8.813 -0.4747  0.3211 -0.5242
 6222TIP3   OH240300   6.041   5.870   1.955  0.5532 -0.8143  0.6615
 6222TIP3    H140301   5.980   5.944   1.956  1.4530 -0.0365 -0.1591
 6222TIP3    H240302   6.120   5.904   1.915  1.4240 -1.9074  1.3727
 6223TIP3   OH240303   6.455   2.527   0.026 -0.1819  0.3240 -0.0195
 6223TIP3    H140304   6.546   2.541   0.052 -0.0167 -1.1784  0.3225
 6223TIP3    H240305   6.461   2.486  -0.061 -0.5382  0.3587 -0.0612
 6224TIP3   OH240306   0.595   1.107   8.706  0.0978 -0.4670  0.6838
 6224TIP3    H140307   0.635   1.177   8.654  0.0943 -1.6830 -1.0546
 6224TIP3    H240308   0.519   1.080   8.656  0.6908 -2.4135  0.7379
 6225TIP3   OH240309   1.890   1.986   1.820 -0.3550  0.1740  0.0738
 6225TIP3    H140310   1.809   2.004   1.773 -1.1759  0.3385  1.5226
 6225TIP3    H240311   1.940   2.067   1.813 -2.0878  1.6034  2.6291
 6226TIP3   OH240312   1.194   6.758   8.047 -1.0104  1.0619  0.1917
 6226TIP3    H140313   1.188   6.663   8.032  0.3347  1.0985 -0.7966
 6226TIP3    H240314   1.138   6.774   8.122 -0.6766 -0.6525  0.8575
 6227TIP3   OH240315   2.145   1.910   2.184 -0.5504  0.2229 -0.2906
 6227TIP3    H140316   2.143   1.952   2.270 -2.1274  0.3084 -0.3327
 6227TIP3    H240317   2.085   1.962   2.131  2.9280  2.2751 -2.5330
 6228TIP3   OH240318   2.961   1.822   1.197  0.1308  0.6235 -0.3898
 6228TIP3    H140319   3.020   1.892   1.226 -0.3811  1.2860 -0.9121
 6228TIP3    H240320   2.875   1.847   1.231 -0.6654  1.8415 -3.0026
 6229TIP3   OH240321   5.804   3.829   1.475  0.1095 -0.9318  0.1492
 6229TIP3    H140322   5.788   3.771   1.550 -1.1151 -1.9299 -0.8274
 6229TIP3    H240323   5.848   3.773   1.411  0.9378 -0.1516  0.0134
 6230TIP3   OH240324   4.061   2.416   7.155  0.3878 -0.4133 -0.0807
 6230TIP3    H140325   4.045   2.454   7.241 -0.4871  2.7125 -1.4997
 6230TIP3    H240326   4.138   2.462   7.122 -0.0309 -0.6571 -1.4613
 6231TIP3   OH240327   5.224   1.045   7.081  0.6855 -0.0343  0.1476
 6231TIP3    H140328   5.180   1.110   7.137 -0.1339 -0.7849  0.4121
 6231TIP3    H240329   5.304   1.088   7.052  0.5829  0.7772  1.0141
 6232TIP3   OH240330   5.872   5.129   2.717 -0.1523 -0.0953  0.6169
 6232TIP3    H140331   5.819   5.052   2.735  0.5159 -0.6600  0.2131
 6232TIP3    H240332   5.919   5.108   2.636  1.7042 -0.1671  1.6706
 6233TIP3   OH240333   5.754   5.988   1.901 -0.1361  0.0507 -0.2660
 6233TIP3    H140334   5.734   5.924   1.833 -1.1337  0.8741 -0.7779
 6233TIP3    H240335   5.670   6.030   1.919  0.0892 -0.1779  1.5236
 6234TIP3   OH240336   6.707   1.553   7.631 -0.1311  0.6487  0.4807
 6234TIP3    H140337   6.727   1.466   7.665 -0.7115  0.3120 -0.0181
 6234TIP3    H240338   6.768   1.565   7.558 -2.2723 -0.7976 -1.7049
 6235TIP3   OH240339   3.649   1.482   1.381  0.3494  0.3286 -0.0614
 6235TIP3    H140340   3.628   1.404   1.330  0.3986  0.8734 -0.9327
 6235TIP3    H240341   3.744   1.483   1.387  0.2790 -0.8432  1.8302
 6236TIP3   OH240342   3.808   1.275   8.901 -0.3114 -0.1626  0.4550
 6236TIP3    H140343   3.756   1.247   8.827  1.6364 -0.6348 -0.8073
 6236TIP3    H240344   3.807   1.371   8.896 -0.4594 -0.1859  0.0194
 6237TIP3   OH240345   3.587   5.573   7.624  0.3674 -0.6596  0.2568
 6237TIP3    H140346   3.569   5.656   7.582 -3.1298 -2.0559 -1.4100
 6237TIP3    H240347   3.670   5.543   7.586  0.8480  1.2799 -0.3055
 6238TIP3   OH240348   2.669   6.785   8.918  0.2767  0.7104  0.2449
 6238TIP3    H140349   2.728   6.859   8.931  0.1196  1.0962 -1.0363
 6238TIP3    H240350   2.582   6.824   8.914 -0.2732  0.0253  3.2761
 6239TIP3   OH240351   4.886   4.201   0.277 -0.0956 -0.0584  0.1272
 6239TIP3    H140352   4.883   4.265   0.205  0.8778  0.4835  0.5431
 6239TIP3    H240353   4.928   4.124   0.238  3.2948  1.2615  0.7764
 6240TIP3   OH240354   4.364   3.951   1.829  0.5799  0.4239  0.0358
 6240TIP3    H140355   4.422   3.915   1.896 -0.0255  1.9793  1.4944
 6240TIP3    H240356   4.278   3.916   1.849  0.3103  1.2504  0.3967
 6241TIP3   OH240357   2.624   0.623   7.656 -0.0746  0.1557 -0.2888
 6241TIP3    H140358   2.696   0.685   7.648 -2.5812  3.2661 -1.0426
 6241TIP3    H240359   2.587   0.618   7.568 -2.0989  0.4379  0.5004
 6242TIP3   OH240360   4.429   3.691   1.690 -0.3154 -0.0917  0.4451
 6242TIP3    H140361   4.386   3.772   1.719 -0.4934  0.5183 -1.3555
 6242TIP3    H240362   4.463   3.652   1.770 -1.1462  1.2303  1.4965
 6243TIP3   OH240363   0.709   3.451   1.885 -0.8548  0.9060  0.2127
 6243TIP3    H140364   0.801   3.479   1.878 -0.6385  0.0905 -0.3337
 6243TIP3    H240365   0.712   3.368   1.932 -1.6227  2.3684  3.0354
 6244TIP3   OH240366   0.366   1.168   1.785  0.3687 -0.3343 -0.0900
 6244TIP3    H140367   0.291   1.128   1.742  0.2588 -0.3621  0.1222
 6244TIP3    H240368   0.393   1.103   1.851  0.0264  0.0420  0.4350
 6245TIP3   OH240369   4.829   0.433   8.176  0.1412 -0.0516  0.8523
 6245TIP3    H140370   4.807   0.396   8.091 -1.4921 -0.2650  1.3213
 6245TIP3    H240371   4.868   0.518   8.156 -2.1039  0.8340 -0.1132
 6246TIP3   OH240372   5.488   0.073   7.239 -0.0045 -0.4370  0.2256
 6246TIP3    H140373   5.497   0.119   7.323  0.4932 -0.4462  0.1824
 6246TIP3    H240374   5.527  -0.013   7.255 -0.2946 -0.5902  0.1046
 6247TIP3   OH240375   2.666   2.582   2.104 -0.1714  0.2442 -0.0620
 6247TIP3    H140376   2.622   2.552   2.184  0.7622 -0.4156  0.2248
 6247TIP3    H240377   2.757   2.553   2.115  0.3721  1.6788 -0.5749
 6248TIP3   OH240378   6.571   4.136   1.706 -0.0640 -0.4228 -0.4830
 6248TIP3    H140379   6.654   4.177   1.682  1.5119 -2.0742  1.7497
 6248TIP3    H240380   6.585   4.103   1.795 -2.7958 -1.6083 -0.3934
 6249TIP3   OH240381   4.127   1.248   8.862  0.0074  0.0683  1.1679
 6249TIP3    H140382   4.155   1.311   8.796 -0.4299  0.6605  1.5374
 6249TIP3    H240383   4.035   1.232   8.843  0.2755 -0.9963  0.6597
 6250TIP3   OH240384   1.606   2.869   1.414 -0.2706 -0.3796 -0.5297
 6250TIP3    H140385   1.519   2.892   1.446 -0.2661  1.2920 -1.5878
 6250TIP3    H240386   1.666   2.911   1.476 -0.2537  3.4542 -2.8167
 6251TIP3   OH240387   1.351   1.176   7.922 -0.0949 -0.7050 -0.1124
 6251TIP3    H140388   1.413   1.171   7.995 -1.6766 -0.6037  1.3042
 6251TIP3    H240389   1.322   1.267   7.921  1.6359 -0.0983 -2.4368
 6252TIP3   OH240390   3.198   1.208   7.800  0.3464 -0.0227  0.3677
 6252TIP3    H140391   3.210   1.114   7.784 -1.3505 -0.2790  0.3755
 6252TIP3    H240392   3.278   1.248   7.767  1.0929 -1.4677  0.3241
 6253TIP3   OH240393   0.538   5.977   8.318  0.2805  0.1648 -0.0692
 6253TIP3    H140394   0.445   5.957   8.312 -0.4579  3.3024 -1.2364
 6253TIP3    H240395   0.572   5.961   8.230  0.1682  1.5509 -0.3975
 6254TIP3   OH240396   0.984   0.251   6.455  0.2572  0.0923 -0.2230
 6254TIP3    H140397   1.079   0.263   6.449  0.4971 -0.3236  2.0062
 6254TIP3    H240398   0.947   0.325   6.408  1.6998  1.3445  0.5502
 6255TIP3   OH240399   3.402   5.994   1.605 -0.2305  0.1228 -0.8330
 6255TIP3    H140400   3.440   6.021   1.521  0.5578 -3.2200 -1.7063
 6255TIP3    H240401   3.391   6.076   1.654 -0.8756  2.2195 -4.2056
 6256TIP3   OH240402   1.964   1.910   0.909 -0.6444 -0.2420 -0.0849
 6256TIP3    H140403   1.894   1.850   0.934 -1.6729 -0.9800 -4.1136
 6256TIP3    H240404   1.918   1.991   0.885 -0.0205 -0.2864 -1.4861
 6257TIP3   OH240405   2.313   2.283   7.711 -0.1368 -0.3216 -0.2037
 6257TIP3    H140406   2.382   2.276   7.776 -1.1591  2.0074  1.2656
 6257TIP3    H240407   2.357   2.310   7.631  0.9668 -1.8312 -0.1364
 6258TIP3   OH240408   1.220   4.314   6.948 -0.1143 -0.1294  0.1988
 6258TIP3    H140409   1.244   4.228   6.982  0.1634  0.4455  1.4954
 6258TIP3    H240410   1.205   4.368   7.026  0.4458  1.2003 -0.5751
 6259TIP3   OH240411   0.160   4.670   1.055 -0.2858  0.4715 -0.0753
 6259TIP3    H140412   0.075   4.653   1.016 -1.0580  2.7021  0.4939
 6259TIP3    H240413   0.143   4.677   1.149  0.7167 -0.0721  0.1648
 6260TIP3   OH240414   1.687   6.089   1.800 -0.0568  0.0876 -0.3310
 6260TIP3    H140415   1.650   6.019   1.746  2.2721 -2.3874  1.0477
 6260TIP3    H240416   1.646   6.078   1.885 -1.2819  1.8886 -0.6392
 6261TIP3   OH240417   1.567   2.609   7.220  0.6473 -0.5755 -0.1612
 6261TIP3    H140418   1.572   2.570   7.133 -1.4331  0.4844 -0.8099
 6261TIP3    H240419   1.479   2.647   7.225  1.3032  0.8554  1.7721
 6262TIP3   OH240420   1.182   6.455   7.251 -0.2399  0.6047  0.3399
 6262TIP3    H140421   1.177   6.543   7.214 -0.6032  0.2019 -0.6057
 6262TIP3    H240422   1.140   6.462   7.336  2.1621  1.9657  1.5256
 6263TIP3   OH240423   1.284   6.302   7.048 -0.4399 -0.2454  0.1399
 6263TIP3    H140424   1.227   6.335   6.979 -1.3768  0.1451  1.0705
 6263TIP3    H240425   1.253   6.345   7.127  0.7723 -0.4909  0.7759
 6264TIP3   OH240426   3.248   2.597   7.111 -0.3837 -0.2391  0.2061
 6264TIP3    H140427   3.338   2.591   7.081 -0.8783 -1.7094 -1.1203
 6264TIP3    H240428   3.209   2.512   7.088 -1.4068 -0.6849  3.1743
 6265TIP3   OH240429   1.137   4.821   0.367 -0.4125 -0.3576 -0.2819
 6265TIP3    H140430   1.162   4.913   0.364  0.0537 -0.2844  3.0464
 6265TIP3    H240431   1.091   4.811   0.450 -0.1371 -3.1944 -0.3765
 6266TIP3   OH240432   5.731   3.153   2.302 -0.1564 -0.2612  0.3278
 6266TIP3    H140433   5.769   3.137   2.388  2.3413  0.3668 -0.5598
 6266TIP3    H240434   5.642   3.183   2.320  0.2775 -0.1728  2.6680
 6267TIP3   OH240435   0.978   0.250   1.040  0.0741  0.5838 -0.2198
 6267TIP3    H140436   0.956   0.157   1.046 -0.0606  0.6748  1.0690
 6267TIP3    H240437   1.011   0.272   1.128 -1.2453  2.0857 -0.0613
 6268TIP3   OH240438   2.759   3.056   1.961  0.0918  0.1016  0.1074
 6268TIP3    H140439   2.727   3.111   2.032  0.9277  1.5419 -0.5789
 6268TIP3    H240440   2.819   2.994   2.003 -0.0643  0.3961  0.7748
 6269TIP3   OH240441   0.656   5.407   8.864 -0.1049  0.5233 -0.0780
 6269TIP3    H140442   0.590   5.472   8.888 -1.2771 -0.0621 -1.5551
 6269TIP3    H240443   0.628   5.327   8.908 -1.5194 -0.2122 -2.1633
 6270TIP3   OH240444   6.596   2.936   1.371  0.1686  0.5119  0.7785
 6270TIP3    H140445   6.607   2.850   1.414  3.9027  0.4755  0.1279
 6270TIP3    H240446   6.660   2.992   1.415 -0.1675  2.1702 -0.7524
 6271TIP3   OH240447   5.467   4.782   0.970 -0.0884  0.0982  0.2187
 6271TIP3    H140448   5.459   4.728   1.048 -1.6818  1.7720  1.2807
 6271TIP3    H240449   5.503   4.723   0.904 -2.0490 -2.3625  1.2062
 6272TIP3   OH240450   0.213   5.514   7.089 -0.0008 -0.0659 -0.3597
 6272TIP3    H140451   0.118   5.516   7.076 -0.0687  1.0399  0.1447
 6272TIP3    H240452   0.249   5.478   7.008 -0.8371 -0.3691 -0.6003
 6273TIP3   OH240453   3.128   1.838   6.787  0.0707 -0.1205 -0.2839
 6273TIP3    H140454   3.045   1.813   6.747 -0.7002 -0.2013  1.3167
 6273TIP3    H240455   3.145   1.926   6.755 -0.6222 -0.1094 -0.6255
 6274TIP3   OH240456   0.302   6.094   0.025 -0.2392  0.0727 -0.0141
 6274TIP3    H140457   0.359   6.166   0.000 -0.8071  0.6095  0.2022
 6274TIP3    H240458   0.295   6.101   0.120  0.1040 -0.5776  0.0615
 6275TIP3   OH240459   0.974   4.820   6.878 -0.4258 -0.2917 -0.4739
 6275TIP3    H140460   0.932   4.768   6.809 -0.3809  0.2981 -0.9588
 6275TIP3    H240461   1.055   4.773   6.897 -0.7831 -0.8532 -0.3034
 6276TIP3   OH240462   2.059   0.396   7.319 -1.0688  0.2098 -0.0704
 6276TIP3    H140463   1.988   0.332   7.329 -0.7091  0.0478  1.8077
 6276TIP3    H240464   2.066   0.409   7.224 -2.3086 -1.2180 -0.4036
 6277TIP3   OH240465   6.050   5.568   0.495  0.1485 -0.3974 -0.5589
 6277TIP3    H140466   6.069   5.650   0.449 -1.1494  0.3934  0.2696
 6277TIP3    H240467   6.127   5.513   0.479  0.2296  0.2569 -2.7181
 6278TIP3   OH240468   3.164   2.855   0.454 -0.1989  0.1989 -0.0338
 6278TIP3    H140469   3.149   2.771   0.409 -0.9828  0.5654 -0.4795
 6278TIP3    H240470   3.093   2.860   0.518 -0.5022  0.7912 -0.4143
 6279TIP3   OH240471   1.808   6.525   6.597 -0.1637 -0.3686 -0.2085
 6279TIP3    H140472   1.851   6.570   6.668 -1.7467 -0.1637  0.6636
 6279TIP3    H240473   1.866   6.536   6.522  1.0734  0.2129  0.8133
 6280TIP3   OH240474   0.561   4.027   7.819  0.3749  0.2570  0.0352
 6280TIP3    H140475   0.467   4.025   7.801  0.3538  0.3361  0.1336
 6280TIP3    H240476   0.568   4.011   7.913  0.3919  1.3739  0.2402
 6281TIP3   OH240477   1.097   2.864   0.928 -0.0658  0.1371 -0.9557
 6281TIP3    H140478   1.111   2.931   0.860  1.0488  0.3657 -0.5272
 6281TIP3    H240479   1.112   2.910   1.010 -1.1109 -0.2140 -0.5442
 6282TIP3   OH240480   3.484   6.484   7.010 -0.5874  0.0545 -0.5335
 6282TIP3    H140481   3.447   6.396   6.995 -0.5963  0.0036 -0.2294
 6282TIP3    H240482   3.444   6.539   6.942 -1.1808 -0.0118 -0.2463
 6283TIP3   OH240483   1.176   5.543   6.562 -0.2581  0.3952  0.3319
 6283TIP3    H140484   1.266   5.567   6.583 -0.8994  0.7980  2.9169
 6283TIP3    H240485   1.176   5.532   6.467  2.6822 -0.4264  0.3355
 6284TIP3   OH240486   4.170   2.581   8.315 -0.1033 -0.2682 -0.0323
 6284TIP3    H140487   4.156   2.628   8.233  1.0040  1.1238  0.5407
 6284TIP3    H240488   4.265   2.569   8.319 -0.3682 -3.6723 -0.7194
 6285TIP3   OH240489   2.918   2.768   0.058  0.2975  0.6416 -0.0456
 6285TIP3    H140490   2.950   2.820  -0.016  0.6429  0.7224  0.1608
 6285TIP3    H240491   2.823   2.780   0.055  0.4459  2.3483  0.7757
 6286TIP3   OH240492   3.666   3.481   7.834  0.4723  0.9372  0.7316
 6286TIP3    H140493   3.621   3.406   7.794  0.4295  1.2048  0.2717
 6286TIP3    H240494   3.685   3.453   7.923  1.3559  0.0048  0.2657
 6287TIP3   OH240495   5.795   4.096   8.646 -0.4857 -0.0385  0.0149
 6287TIP3    H140496   5.756   4.120   8.562 -0.9957 -2.5656 -0.5554
 6287TIP3    H240497   5.855   4.025   8.626  1.4083  1.0652  1.4780
 6288TIP3   OH240498   3.436   5.657   6.703  0.4291 -0.2528 -0.0513
 6288TIP3    H140499   3.367   5.683   6.764 -1.2361 -2.0066 -1.0569
 6288TIP3    H240500   3.497   5.730   6.703 -2.4973  2.4065 -0.6870
 6289TIP3   OH240501   0.331   5.769   1.074 -0.4161 -0.3225  0.0415
 6289TIP3    H140502   0.423   5.746   1.079 -0.1979  0.0651 -1.5802
 6289TIP3    H240503   0.285   5.685   1.073  0.1712 -0.7051 -2.4838
 6290TIP3   OH240504   3.256   3.167   1.108 -0.1159 -0.4965  0.2211
 6290TIP3    H140505   3.178   3.188   1.055 -1.8151 -0.4544  2.5678
 6290TIP3    H240506   3.272   3.247   1.158  1.2236 -0.6470  0.0459
 6291TIP3   OH240507   3.620   6.504   7.352  0.0597 -0.3584 -0.4746
 6291TIP3    H140508   3.642   6.466   7.266  0.0927 -0.2483 -0.5143
 6291TIP3    H240509   3.649   6.595   7.346 -1.9533  0.3015 -1.1343
 6292TIP3   OH240510   5.974   5.512   1.462  0.1357  0.2061 -0.1644
 6292TIP3    H140511   6.025   5.585   1.427  2.1593 -1.5205 -1.0423
 6292TIP3    H240512   5.975   5.447   1.391 -2.6817 -0.2321  0.1036
 6293TIP3   OH240513   4.282   4.178   7.711 -0.2625 -0.4844 -0.2067
 6293TIP3    H140514   4.289   4.123   7.789 -1.1433 -1.9910 -1.1239
 6293TIP3    H240515   4.207   4.235   7.728 -2.7356 -3.1775 -1.2166
 6294TIP3   OH240516   4.233   5.512   6.823 -0.0777 -0.0240  0.9245
 6294TIP3    H140517   4.249   5.555   6.739  0.0464  0.6735  1.2959
 6294TIP3    H240518   4.264   5.422   6.811 -0.5421 -0.0767  0.0666
 6295TIP3   OH240519   4.492   3.665   0.597  0.5272 -0.1661  0.4310
 6295TIP3    H140520   4.549   3.597   0.631 -1.5698 -3.1501 -1.5330
 6295TIP3    H240521   4.531   3.690   0.513  0.1712 -0.5211  0.1583
 6296TIP3   OH240522   4.739   4.737   1.401 -0.0595 -0.0601  0.1832
 6296TIP3    H140523   4.682   4.781   1.464  0.8970  1.2161  0.1969
 6296TIP3    H240524   4.824   4.731   1.445  0.8201  1.5002 -1.2032
 6297TIP3   OH240525   0.244   1.410   0.292 -0.2966  0.5944 -0.4558
 6297TIP3    H140526   0.184   1.415   0.367  0.8852  2.1278  0.4455
 6297TIP3    H240527   0.322   1.456   0.321  0.2854  1.0476 -2.5845
 6298TIP3   OH240528   0.469   4.676   1.968 -0.1504 -0.0749 -0.5274
 6298TIP3    H140529   0.492   4.707   2.055  4.3016  2.5010 -2.2472
 6298TIP3    H240530   0.399   4.734   1.940 -1.1234 -0.4555  1.0164
 6299TIP3   OH240531   3.709   1.472   7.322 -0.3067 -0.2598  0.0134
 6299TIP3    H140532   3.652   1.540   7.287  0.8785  1.5983  1.5055
 6299TIP3    H240533   3.794   1.488   7.280  0.3304  0.0590  1.3790
 6300TIP3   OH240534   5.756   2.051   7.780 -0.0862 -0.2276  0.5293
 6300TIP3    H140535   5.734   2.015   7.694 -1.7910  1.0271  0.3919
 6300TIP3    H240536   5.851   2.044   7.786  0.0355 -0.5356 -1.3582
 6301TIP3   OH240537   5.641   3.592   0.311 -0.1781 -0.3437  0.1574
 6301TIP3    H140538   5.581   3.644   0.258 -0.2661  0.0673  0.6509
 6301TIP3    H240539   5.725   3.601   0.267 -0.5592 -1.3468 -0.8357
 6302TIP3   OH240540   5.649   4.607   8.200  0.1247 -0.5320 -0.1242
 6302TIP3    H140541   5.666   4.666   8.127  0.8429 -2.4995 -1.6334
 6302TIP3    H240542   5.626   4.665   8.273  0.7574  1.5738 -1.5104
 6303TIP3   OH240543   2.213   0.174   8.059  0.6358  0.5864 -0.0606
 6303TIP3    H140544   2.146   0.230   8.020  1.0270  0.4334 -0.9586
 6303TIP3    H240545   2.275   0.157   7.988  2.4097  1.8937  1.0924
 6304TIP3   OH240546   1.936   6.783   7.587 -0.6355 -0.0969 -0.3427
 6304TIP3    H140547   1.991   6.806   7.513 -0.5016  0.9211  0.0551
 6304TIP3    H240548   1.977   6.826   7.662 -1.4637 -0.0739  0.1125
 6305TIP3   OH240549   0.349   2.822   2.551 -0.0014  0.1367 -0.0281
 6305TIP3    H140550   0.307   2.762   2.613 -1.0244  1.6532  0.7903
 6305TIP3    H240551   0.443   2.809   2.565 -0.1589  1.5372  3.0244
 6306TIP3   OH240552   2.613   6.596   7.068  0.0784  1.0101 -0.2134
 6306TIP3    H140553   2.586   6.509   7.097  1.5927  0.5413 -0.1470
 6306TIP3    H240554   2.684   6.581   7.006  1.2694  2.2107  0.7846
 6307TIP3   OH240555   2.114   5.121   7.758 -0.2284  0.1049 -0.0279
 6307TIP3    H140556   2.045   5.164   7.708  0.9480 -0.0272 -1.8834
 6307TIP3    H240557   2.195   5.144   7.711  0.6347 -2.5061  0.0462
 6308TIP3   OH240558   3.794   3.085   1.403  0.3510  0.1462  0.6189
 6308TIP3    H140559   3.823   3.097   1.494 -1.8828 -2.4341  1.8257
 6308TIP3    H240560   3.811   2.993   1.385 -1.0904  0.1329 -0.8531
 6309TIP3   OH240561   2.067   2.309   7.149 -0.1176 -0.1820 -0.1970
 6309TIP3    H140562   2.086   2.357   7.230 -0.2248  0.5028 -0.5671
 6309TIP3    H240563   2.089   2.371   7.079 -1.5527 -0.1652 -0.6741
 6310TIP3   OH240564   5.483   4.765   7.008  0.3804 -0.0741 -0.8989
 6310TIP3    H140565   5.495   4.796   6.918 -0.2650  2.0334 -0.3245
 6310TIP3    H240566   5.389   4.768   7.022  0.2398 -2.6554 -0.8439
 6311TIP3   OH240567   6.266   5.850   1.662 -0.3212 -0.4046 -0.3894
 6311TIP3    H140568   6.288   5.902   1.740  0.8842 -0.4990 -0.6482
 6311TIP3    H240569   6.221   5.773   1.697 -1.0060  0.2070  0.0981
 6312TIP3   OH240570   5.354   1.238   8.039 -0.1663  0.1949 -0.2205
 6312TIP3    H140571   5.427   1.178   8.026  0.5785  0.7047  1.3993
 6312TIP3    H240572   5.277   1.188   8.011  0.8155 -0.1054 -2.6593
 6313TIP3   OH240573   2.953   5.336   0.149 -0.0863  0.0921 -0.3644
 6313TIP3    H140574   3.044   5.307   0.160 -0.2754 -0.0561  1.0020
 6313TIP3    H240575   2.902   5.271   0.197 -1.0098 -0.2554 -1.7549
 6314TIP3   OH240576   6.415   6.450   8.587 -0.1362 -0.3626 -0.3855
 6314TIP3    H140577   6.510   6.448   8.603 -0.2851  0.2966  0.6680
 6314TIP3    H240578   6.383   6.367   8.623 -0.4540  1.0486  2.9368
 6315TIP3   OH240579   1.732   1.942   0.277  0.1912  0.0719 -0.2072
 6315TIP3    H140580   1.775   2.017   0.236 -0.4427  0.0665 -0.9155
 6315TIP3    H240581   1.645   1.974   0.301  0.7724  0.2712  1.8110
 6316TIP3   OH240582   4.641   6.172   8.033  0.0634 -0.7254 -0.1750
 6316TIP3    H140583   4.657   6.133   7.947 -0.8701 -1.6455  0.0449
 6316TIP3    H240584   4.680   6.110   8.095  0.6809 -0.0957  0.0801
 6317TIP3   OH240585   5.691   4.994   0.839  0.3072  0.2093 -0.5150
 6317TIP3    H140586   5.662   5.003   0.930 -0.5225 -1.4706 -0.5740
 6317TIP3    H240587   5.693   5.083   0.806 -0.0157  0.8007  0.9574
 6318TIP3   OH240588   3.762   4.365   7.279 -0.0298 -0.6855 -0.2712
 6318TIP3    H140589   3.761   4.390   7.186 -0.2396 -0.1663 -0.1327
 6318TIP3    H240590   3.847   4.323   7.291  0.3399 -0.0313 -0.5174
 6319TIP3   OH240591   1.259   3.077   2.622 -0.3351  0.0204  0.1171
 6319TIP3    H140592   1.185   3.046   2.675 -0.4248  1.0326  0.5983
 6319TIP3    H240593   1.226   3.078   2.533 -0.2628 -1.4563  0.0340
 6320TIP3   OH240594   5.538   1.746   8.852  0.0574  0.0870  0.3048
 6320TIP3    H140595   5.471   1.792   8.801 -1.1351 -1.2328  0.6120
 6320TIP3    H240596   5.541   1.658   8.814  0.3444 -0.4029  1.4090
 6321TIP3   OH240597   5.650   1.085   8.276 -0.2321  0.0605  0.0228
 6321TIP3    H140598   5.614   1.087   8.188  0.8716  0.2369 -0.4466
 6321TIP3    H240599   5.621   1.002   8.313 -0.9252  0.1081 -0.4026
 6322TIP3   OH240600   0.619   5.877   7.362 -0.5078  0.6650  0.2802
 6322TIP3    H140601   0.593   5.950   7.306 -0.6189 -0.1493 -0.7627
 6322TIP3    H240602   0.565   5.886   7.440 -2.3796  0.2457 -0.9194
 6323TIP3   OH240603   1.255   1.424   7.935 -0.3692 -0.0177  0.4713
 6323TIP3    H140604   1.289   1.512   7.949  0.7555 -0.2592 -0.5591
 6323TIP3    H240605   1.209   1.429   7.851  1.2784 -0.8043 -0.5331
 6324TIP3   OH240606   3.779   5.644   7.344  0.1651  0.1346  0.0585
 6324TIP3    H140607   3.758   5.694   7.265 -1.2186 -1.4341 -0.6287
 6324TIP3    H240608   3.873   5.655   7.354  0.5737 -0.4569 -2.4265
 6325TIP3   OH240609   3.018   3.275   2.025  0.7700 -0.0863 -0.0322
 6325TIP3    H140610   2.933   3.306   2.055  0.4339 -1.7526  0.8698
 6325TIP3    H240611   3.074   3.277   2.102  1.2843  0.1250 -0.4028
 6326TIP3   OH240612   3.382   1.105   8.881  0.1424  0.1029  0.7864
 6326TIP3    H140613   3.339   1.174   8.930 -0.1106  2.3354 -2.2825
 6326TIP3    H240614   3.350   1.024   8.920 -3.4383  1.6702  1.4470
 6327TIP3   OH240615   5.782   2.740   1.769 -0.2913 -1.1544 -0.3466
 6327TIP3    H140616   5.862   2.688   1.773  0.6776  0.3214  0.7075
 6327TIP3    H240617   5.737   2.722   1.852 -0.1282 -0.6181 -0.1348
 6328TIP3   OH240618   3.439   2.276   8.444  0.0265  0.3412  0.9399
 6328TIP3    H140619   3.481   2.199   8.481  0.9080 -0.3595 -1.3531
 6328TIP3    H240620   3.347   2.270   8.472 -0.1242 -2.0128  0.1292
 6329TIP3   OH240621   3.543   5.971   2.041  0.1435 -0.5838 -0.0921
 6329TIP3    H140622   3.495   5.892   2.065 -2.6738  0.7153 -1.0503
 6329TIP3    H240623   3.538   6.026   2.119 -0.3050 -0.2761 -0.3367
 6330TIP3   OH240624   5.083   4.759   8.488 -0.0429  0.8356 -0.0455
 6330TIP3    H140625   5.102   4.829   8.426 -0.6240  0.0427 -1.1622
 6330TIP3    H240626   5.160   4.702   8.484  0.1707  1.0839  0.4137
 6331TIP3   OH240627   1.418   2.124   7.268  0.0841 -0.2880 -0.8087
 6331TIP3    H140628   1.427   2.030   7.282  0.1204 -0.0460  1.0976
 6331TIP3    H240629   1.493   2.162   7.314 -1.0289  0.7631  0.2122
 6332TIP3   OH240630   2.296   3.267   1.168 -0.3423 -0.9211 -0.2760
 6332TIP3    H140631   2.214   3.228   1.199 -1.0574  0.1638 -0.7455
 6332TIP3    H240632   2.276   3.295   1.079  0.8058 -1.3947 -0.6997
 6333TIP3   OH240633   3.807   0.710   0.466  0.1229 -0.0005 -0.0650
 6333TIP3    H140634   3.774   0.800   0.460  2.5497  0.9217 -0.9086
 6333TIP3    H240635   3.814   0.693   0.560 -0.4448  0.6440  0.1028
 6334TIP3   OH240636   2.385   4.507   8.597  0.2035 -0.1076 -0.7506
 6334TIP3    H140637   2.405   4.599   8.579  0.8522 -0.0423  0.2416
 6334TIP3    H240638   2.435   4.459   8.532  2.7993  0.1120  0.9267
 6335TIP3   OH240639   3.617   6.372   8.405  0.2403  0.2127 -0.1031
 6335TIP3    H140640   3.652   6.461   8.412  0.5371  0.2298 -1.4627
 6335TIP3    H240641   3.693   6.318   8.390 -0.0595 -0.1049 -0.4963
 6336TIP3   OH240642   4.392   6.738   8.118  0.2794 -0.6658  0.8467
 6336TIP3    H140643   4.353   6.655   8.089 -2.1323  0.6175  0.0867
 6336TIP3    H240644   4.424   6.778   8.037  0.5937 -0.4477  1.0783
 6337TIP3   OH240645   2.250   1.859   7.148 -0.3382 -0.0896 -0.5602
 6337TIP3    H140646   2.208   1.942   7.171 -0.5435 -0.2831 -0.2200
 6337TIP3    H240647   2.193   1.792   7.186  0.2629 -0.3604 -0.1127
 6338TIP3   OH240648   3.671   4.885   0.317 -0.1052 -0.2700  0.0302
 6338TIP3    H140649   3.666   4.789   0.323 -0.3908 -0.2340  0.4375
 6338TIP3    H240650   3.656   4.915   0.407  0.2444  0.1477 -0.0474
 6339TIP3   OH240651   5.524   0.014   8.542  0.5612  0.4413 -0.1584
 6339TIP3    H140652   5.446   0.007   8.486  0.2058  1.7927  0.1394
 6339TIP3    H240653   5.587   0.063   8.490  1.0254 -0.1783 -0.1880
 6340TIP3   OH240654   2.141   0.506   1.771  0.1223  0.7703  0.4306
 6340TIP3    H140655   2.234   0.526   1.759 -0.1112  0.9316 -1.3912
 6340TIP3    H240656   2.099   0.591   1.780  0.1358  0.7010  1.1729
 6341TIP3   OH240657   1.769   2.586   0.608 -0.1620 -0.0014  0.5175
 6341TIP3    H140658   1.749   2.508   0.659 -0.1231 -0.0606  0.4438
 6341TIP3    H240659   1.688   2.606   0.561  0.4846 -1.4121 -1.3319
 6342TIP3   OH240660   6.327   5.030   7.232  0.2225 -0.3774  0.1076
 6342TIP3    H140661   6.260   5.025   7.300  0.2156 -0.2536  0.1100
 6342TIP3    H240662   6.279   5.041   7.151  0.2942  1.8184  0.3249
 6343TIP3   OH240663   4.440   4.594   7.452  0.4524  0.0804  0.2841
 6343TIP3    H140664   4.487   4.572   7.372  1.7474  0.5032  0.9045
 6343TIP3    H240665   4.406   4.682   7.436 -1.1120 -0.6365 -0.5775
 6344TIP3   OH240666   6.663   6.612   7.601 -0.7470 -0.7583 -0.2495
 6344TIP3    H140667   6.571   6.607   7.630 -1.2016  2.5005 -0.7932
 6344TIP3    H240668   6.667   6.690   7.547  2.6849  0.1019  0.9922
 6345TIP3   OH240669   0.921   4.148   2.225  0.2484  0.0816  0.1695
 6345TIP3    H140670   0.834   4.122   2.194  0.0078 -2.5257  2.5522
 6345TIP3    H240671   0.907   4.232   2.268 -0.4519  1.0712 -1.8797
 6346TIP3   OH240672   2.161   3.512   0.540 -0.3748  0.0612  0.3398
 6346TIP3    H140673   2.149   3.542   0.630  1.9484 -0.7171  0.9873
 6346TIP3    H240674   2.127   3.422   0.540  1.7628 -0.8237  1.1736
 6347TIP3   OH240675   0.963   3.218   0.142  0.2962 -0.3093  0.3215
 6347TIP3    H140676   0.967   3.213   0.237  2.2636  0.3783  0.3247
 6347TIP3    H240677   0.944   3.310   0.123  2.2653  0.0846  0.0749
 6348TIP3   OH240678   2.660   3.797   7.650 -0.2164 -0.2436 -0.3648
 6348TIP3    H140679   2.636   3.825   7.561  0.9174 -0.4573 -0.7630
 6348TIP3    H240680   2.756   3.801   7.650 -0.2070  2.0482  1.6080
 6349TIP3   OH240681   0.766   4.379   7.908 -0.4260 -1.1200  0.1517
 6349TIP3    H140682   0.786   4.303   7.962 -2.3415 -0.3279  2.0979
 6349TIP3    H240683   0.816   4.450   7.947  0.6801 -1.1501 -1.1354
 6350TIP3   OH240684   2.090   3.330   8.305 -0.5945  0.4520  0.1629
 6350TIP3    H140685   2.097   3.407   8.249  1.4068  0.0508 -0.2341
 6350TIP3    H240686   2.120   3.360   8.391  1.2714 -0.0729 -0.2532
 6351TIP3   OH240687   1.774   3.785   0.385 -0.0414  0.1086  0.0925
 6351TIP3    H140688   1.730   3.867   0.406  0.1463  0.5355 -1.0817
 6351TIP3    H240689   1.730   3.754   0.306 -0.5153 -1.2515  0.8626
 6352TIP3   OH240690   6.669   3.241   6.658 -0.1279  0.2818  0.0521
 6352TIP3    H140691   6.637   3.284   6.737  1.0484  1.9524 -0.3286
 6352TIP3    H240692   6.760   3.269   6.650 -0.1871  0.0765 -1.8455
 6353TIP3   OH240693   4.481   0.600   0.040 -0.1244  0.2753 -0.3685
 6353TIP3    H140694   4.531   0.541  -0.017  0.6028  0.8840 -0.3667
 6353TIP3    H240695   4.519   0.686   0.025 -1.0968  0.7338 -0.2713
 6354TIP3   OH240696   4.929   5.950   6.523 -0.2453  0.7156  0.5961
 6354TIP3    H140697   4.940   5.959   6.428  0.5879 -0.0368  0.6034
 6354TIP3    H240698   4.857   5.888   6.532 -2.5286  3.2055  0.5148
 6355TIP3   OH240699   5.143   2.102   0.864  0.3809  0.1638 -0.1146
 6355TIP3    H140700   5.173   2.028   0.812 -1.6126 -0.2278 -0.7926
 6355TIP3    H240701   5.188   2.178   0.825  1.0149 -0.4521 -0.6104
 6356TIP3   OH240702   1.196   4.041   2.723  0.5220  0.2888  0.2634
 6356TIP3    H140703   1.130   4.041   2.653  0.0634  0.2521  0.6927
 6356TIP3    H240704   1.152   4.001   2.798  1.3488 -0.6745  0.2588
 6357TIP3   OH240705   5.202   5.714   0.040  0.0462 -0.3411 -0.1815
 6357TIP3    H140706   5.138   5.784   0.033  0.6173  0.4315  1.7444
 6357TIP3    H240707   5.280   5.748  -0.003 -0.4239 -0.8200 -1.4699
 6358TIP3   OH240708   6.514   2.284   8.095 -0.1055 -0.5459  0.0362
 6358TIP3    H140709   6.561   2.209   8.059  1.4340  0.2509  0.2896
 6358TIP3    H240710   6.549   2.359   8.047 -1.8978 -0.0060 -0.4850
 6359TIP3   OH240711   1.144   3.391   8.040 -0.4104  0.4352 -0.4065
 6359TIP3    H140712   1.106   3.459   8.095  0.6061  0.4401  0.3153
 6359TIP3    H240713   1.132   3.423   7.950 -2.7853  0.0655 -0.2807
 6360TIP3   OH240714   5.429   2.168   7.440  0.5369 -0.0508  0.4750
 6360TIP3    H140715   5.510   2.159   7.390  0.7265 -2.2049  1.0428
 6360TIP3    H240716   5.448   2.124   7.523 -1.1544 -0.4552  0.6746
 6361TIP3   OH240717   5.869   2.588   1.302 -0.4642  0.6834  0.0242
 6361TIP3    H140718   5.827   2.655   1.356 -1.6829  1.0947 -1.3694
 6361TIP3    H240719   5.959   2.619   1.291 -1.0983  2.3402 -0.9060
 6362TIP3   OH240720   5.465   3.012   8.507 -0.3980  0.1043 -0.1133
 6362TIP3    H140721   5.458   2.926   8.547 -2.7335  0.4037  0.3108
 6362TIP3    H240722   5.425   3.001   8.420  2.2609  0.0683 -1.4452
 6363TIP3   OH240723   6.383   0.332   1.376 -0.5875  0.1480 -0.2894
 6363TIP3    H140724   6.404   0.241   1.358  0.6726  0.1823  0.8520
 6363TIP3    H240725   6.455   0.364   1.430 -2.4657  0.9452  1.9402
 6364TIP3   OH240726   6.217   4.342   1.227  0.3285  0.5444  0.2988
 6364TIP3    H140727   6.208   4.406   1.157  0.0204 -1.6022 -1.7779
 6364TIP3    H240728   6.302   4.359   1.266  0.3298  2.0525 -0.3143
 6365TIP3   OH240729   2.613   2.810   0.827  0.2427 -0.4082 -0.3015
 6365TIP3    H140730   2.598   2.824   0.920  0.3902 -1.1456 -0.1642
 6365TIP3    H240731   2.634   2.897   0.793  0.1262 -0.1243  0.3356
 6366TIP3   OH240732   2.561   5.026   8.437  0.0931 -0.1332 -0.1467
 6366TIP3    H140733   2.477   4.982   8.440  1.1115 -2.3110 -1.5249
 6366TIP3    H240734   2.561   5.074   8.355 -0.1362  0.6262  0.2875
 6367TIP3   OH240735   1.091   1.929   0.319 -0.0777  0.2430  0.1977
 6367TIP3    H140736   1.014   1.937   0.375  0.5792  1.6169  0.9624
 6367TIP3    H240737   1.156   1.987   0.359  0.7294  0.5466 -1.4743
 6368TIP3   OH240738   4.190   2.096   7.268 -0.1342  0.2925  0.3993
 6368TIP3    H140739   4.230   2.049   7.194  0.4169 -1.4127  1.7188
 6368TIP3    H240740   4.215   2.187   7.253 -0.9529  0.1927 -2.0823
 6369TIP3   OH240741   1.398   5.477   0.752  0.0585 -0.0005  0.0568
 6369TIP3    H140742   1.454   5.444   0.682 -3.0195 -1.4923 -1.8993
 6369TIP3    H240743   1.344   5.544   0.710 -1.3889 -0.4156  1.1867
 6370TIP3   OH240744   6.086   2.393   7.915  0.0062  0.5261 -0.3806
 6370TIP3    H140745   6.127   2.469   7.876  2.0359 -1.1279 -1.6507
 6370TIP3    H240746   6.023   2.363   7.849 -0.4778  0.8415 -0.0659
 6371TIP3   OH240747   5.976   5.609   6.328  0.2242  0.8017 -0.3325
 6371TIP3    H140748   6.037   5.682   6.338 -1.4059  1.9808  1.7949
 6371TIP3    H240749   6.006   5.544   6.392  1.0887 -0.0389 -1.5415
 6372TIP3   OH240750   4.186   3.468   8.457 -0.0084 -0.0059 -0.2926
 6372TIP3    H140751   4.175   3.447   8.365  0.7350  0.0995 -0.4050
 6372TIP3    H240752   4.141   3.552   8.468  0.1955  0.1448 -0.6285
 6373TIP3   OH240753   4.099   3.736   8.079  0.7141  0.0008  0.7065
 6373TIP3    H140754   4.035   3.734   8.008  0.3082  2.8397  0.8487
 6373TIP3    H240755   4.048   3.727   8.159  0.9362 -1.1848  0.7281
 6374TIP3   OH240756   4.356   3.505   8.863  0.0703  0.4660  0.4018
 6374TIP3    H140757   4.339   3.429   8.808  0.3030  0.5475  0.2133
 6374TIP3    H240758   4.322   3.481   8.949  0.7871 -0.1403  0.5333
 6375TIP3   OH240759   2.700   0.656   0.067  0.2720  0.0119 -0.2059
 6375TIP3    H140760   2.745   0.609  -0.003  2.3710  0.3996  0.7965
 6375TIP3    H240761   2.741   0.742   0.069  0.4000 -0.0458  1.5836
 6376TIP3   OH240762   4.191   3.112   7.235  0.1730 -0.2980  0.4000
 6376TIP3    H140763   4.264   3.154   7.188  0.0240  0.9007  1.1826
 6376TIP3    H240764   4.146   3.061   7.169  0.0675  1.1968 -0.7499
 6377TIP3   OH240765   2.903   5.454   7.600  0.1059  0.3253  0.1102
 6377TIP3    H140766   2.852   5.521   7.645 -0.1303  0.8037 -0.8459
 6377TIP3    H240767   2.838   5.403   7.551  0.2861 -0.5941  0.7867
 6378TIP3   OH240768   4.844   2.969   1.860  0.6406  0.0579  0.4642
 6378TIP3    H140769   4.806   3.057   1.865 -0.0494 -0.3023  1.8763
 6378TIP3    H240770   4.925   2.975   1.911  0.5878 -0.1392  0.5692
 6379TIP3   OH240771   5.997   2.195   7.523 -0.0617 -0.1653 -0.2730
 6379TIP3    H140772   5.987   2.127   7.455 -1.4432 -2.6554  2.2243
 6379TIP3    H240773   6.043   2.151   7.594  1.8886  2.5408  0.2839
 6380TIP3   OH240774   0.638   4.160   0.025  0.0384  0.3355  1.1043
 6380TIP3    H140775   0.621   4.101  -0.048  2.0908 -0.3818  1.1347
 6380TIP3    H240776   0.710   4.118   0.073  0.9280  2.3860  1.6678
 6381TIP3   OH240777   1.908   1.825   1.398 -0.1179  0.2978 -0.3185
 6381TIP3    H140778   1.953   1.884   1.338  0.6219 -0.7462 -0.8217
 6381TIP3    H240779   1.879   1.752   1.343 -0.2501 -0.2214  0.4234
 6382TIP3   OH240780   4.239   2.142   6.868  0.1873  0.5538  0.4937
 6382TIP3    H140781   4.149   2.147   6.900  0.4371  0.1109  1.2911
 6382TIP3    H240782   4.238   2.070   6.805  0.0219  0.4267  0.6398
 6383TIP3   OH240783   6.072   6.106   1.490 -0.0302  0.3054  0.0499
 6383TIP3    H140784   6.100   6.160   1.564  1.5101  0.0052 -0.2845
 6383TIP3    H240785   6.150   6.056   1.465 -0.7529 -0.2451 -1.2230
 6384TIP3   OH240786   4.578   2.376   8.556 -0.5117  0.6160  0.1196
 6384TIP3    H140787   4.554   2.350   8.468 -0.3673  2.7391 -0.6017
 6384TIP3    H240788   4.674   2.380   8.554 -0.2539 -2.3568  1.3497
 6385TIP3   OH240789   3.969   3.487   1.132  0.2778 -0.0406  0.4741
 6385TIP3    H140790   3.923   3.439   1.063  0.1831  0.5361  0.1285
 6385TIP3    H240791   3.966   3.428   1.208  1.7610 -1.3686 -0.4314
 6386TIP3   OH240792   5.393   3.266   0.351 -0.3072  0.0261  0.6923
 6386TIP3    H140793   5.489   3.272   0.350 -0.2976 -0.0783 -0.4594
 6386TIP3    H240794   5.364   3.342   0.300 -0.8558  0.2477  1.3243
 6387TIP3   OH240795   5.601   3.543   8.655 -0.0862 -0.0398 -0.8127
 6387TIP3    H140796   5.660   3.501   8.592  2.6367  3.0719 -0.5770
 6387TIP3    H240797   5.576   3.625   8.614 -1.0477  0.5200  0.7878
 6388TIP3   OH240798   3.117   1.832   8.251 -0.2924  0.0560 -0.8756
 6388TIP3    H140799   3.114   1.789   8.165 -1.9376  1.8003 -1.7637
 6388TIP3    H240800   3.148   1.921   8.232  2.1083 -0.3465  0.7817
 6389TIP3   OH240801   5.882   2.014   7.341  0.1462  0.3485 -0.4142
 6389TIP3    H140802   5.855   1.925   7.367 -0.5821  1.1045  1.6183
 6389TIP3    H240803   5.971   2.003   7.307 -0.6601 -1.4306 -2.1957
 6390TIP3   OH240804   1.045   5.330   7.961  0.3989  0.2273 -0.3608
 6390TIP3    H140805   1.010   5.266   7.899 -0.0858  0.2042 -0.0685
 6390TIP3    H240806   0.985   5.327   8.035  0.7029  0.6030 -0.0955
 6391TIP3   OH240807   5.580   6.192   6.438  0.1802 -0.1390 -0.0552
 6391TIP3    H140808   5.641   6.119   6.428  1.0812  0.8334 -2.7240
 6391TIP3    H240809   5.501   6.152   6.475  2.4963 -1.3238  4.2336
 6392TIP3   OH240810   1.178   4.870   7.832  0.6121  0.0039 -0.1271
 6392TIP3    H140811   1.123   4.896   7.758  0.8081 -1.9612 -1.0223
 6392TIP3    H240812   1.249   4.934   7.834  0.0066  0.7083 -0.9658
 6393TIP3   OH240813   2.109   5.313   0.405 -0.1297  0.4208  0.1638
 6393TIP3    H140814   2.175   5.252   0.438 -0.2710 -0.2526 -0.7565
 6393TIP3    H240815   2.154   5.398   0.400  1.0935 -0.2582 -1.6173
 6394TIP3   OH240816   5.404   5.745   0.427  0.1003 -0.0399  0.1999
 6394TIP3    H140817   5.332   5.684   0.445 -1.3984  1.9504  1.4069
 6394TIP3    H240818   5.367   5.807   0.363  2.1001 -1.2002 -2.2583
 6395TIP3   OH240819   6.445   6.636   2.657  0.1307  0.1074  0.2116
 6395TIP3    H140820   6.357   6.670   2.645  0.7885  1.3160 -1.5672
 6395TIP3    H240821   6.433   6.542   2.672 -1.5163  0.5015  1.6811
 6396TIP3   OH240822   5.387   2.607   7.623 -0.3223 -0.1738  0.7874
 6396TIP3    H140823   5.362   2.674   7.687  0.2021  0.4162  0.3914
 6396TIP3    H240824   5.323   2.617   7.552  0.2867  0.5199  0.3233
 6397TIP3   OH240825   6.223   4.083   8.417  0.4278  0.2724 -0.4377
 6397TIP3    H140826   6.255   4.075   8.328 -0.9602 -0.7412 -0.8812
 6397TIP3    H240827   6.142   4.133   8.409  0.4817  0.4963  0.3064
 6398TIP3   OH240828   1.694   1.136   6.526  0.4164  0.3771 -0.5215
 6398TIP3    H140829   1.629   1.193   6.485  2.1835  1.5096 -1.8473
 6398TIP3    H240830   1.721   1.183   6.605 -2.1581 -1.2957  1.5727
 6399TIP3   OH240831   0.625   3.900   8.336  0.1746 -0.2592 -0.3265
 6399TIP3    H140832   0.719   3.880   8.334  0.3465  0.3545  0.7620
 6399TIP3    H240833   0.594   3.863   8.418 -0.7469 -1.2337 -1.0863
 6400TIP3   OH240834   3.377   3.067   7.070 -0.0345  0.4202 -0.0578
 6400TIP3    H140835   3.442   3.077   7.000 -0.3436  0.3838 -0.3526
 6400TIP3    H240836   3.300   3.033   7.026 -0.1815  0.2452  0.3311
 6401TIP3   OH240837   2.906   4.036   1.163 -0.0945 -0.2684  0.3728
 6401TIP3    H140838   2.825   4.057   1.118  0.3089  0.2632 -0.1066
 6401TIP3    H240839   2.920   4.108   1.224 -0.0782 -0.4494  0.5848
 6402TIP3   OH240840   0.314   2.154   0.866 -0.0063  0.2986  0.8923
 6402TIP3    H140841   0.311   2.241   0.904  0.6052 -0.0608  1.8277
 6402TIP3    H240842   0.404   2.145   0.835 -0.6270  0.7803 -1.1975
 6403TIP3   OH240843   0.912   0.236   8.854 -0.0307 -0.0599 -0.1569
 6403TIP3    H140844   0.886   0.218   8.944  0.5304  0.9068  0.2078
 6403TIP3    H240845   0.998   0.194   8.845 -0.6687 -1.3182 -0.6754
 6404TIP3   OH240846   3.669   0.156   7.990  0.2118 -0.4474  0.2991
 6404TIP3    H140847   3.706   0.148   8.078 -0.8515 -0.1515  0.7922
 6404TIP3    H240848   3.585   0.199   8.003 -0.3432 -1.1476 -0.7737
 6405TIP3   OH240849   1.397   0.040   1.071  0.1009 -0.0891 -0.5271
 6405TIP3    H140850   1.398   0.117   1.014  1.6316  0.0346 -0.3810
 6405TIP3    H240851   1.340   0.065   1.144 -0.8044  0.2449 -1.3236
 6406TIP3   OH240852   5.963   4.437   0.258  0.3452  0.9885  0.0641
 6406TIP3    H140853   5.945   4.434   0.164  0.9933 -0.1110 -0.0324
 6406TIP3    H240854   5.878   4.454   0.298  0.0499  1.3840 -0.7079
 6407TIP3   OH240855   1.196   4.320   2.618  0.0099 -0.3549  0.3008
 6407TIP3    H140856   1.215   4.239   2.666 -1.1984  0.4486  2.2644
 6407TIP3    H240857   1.257   4.384   2.654  0.2194 -0.1102 -0.4631
 6408TIP3   OH240858   4.636   6.332   1.217  0.7045  0.2556  0.2619
 6408TIP3    H140859   4.650   6.336   1.122  1.9633  2.5675  0.4824
 6408TIP3    H240860   4.716   6.368   1.255  0.0340 -0.1773  2.2188
 6409TIP3   OH240861   6.686   4.211   7.417  0.0466  0.2287 -0.1459
 6409TIP3    H140862   6.679   4.119   7.395 -0.1271  0.1269  0.3243
 6409TIP3    H240863   6.595   4.240   7.427  0.1085 -0.2431  2.5016
 6410TIP3   OH240864   4.210   5.156   8.735  0.7770 -0.1204 -0.0380
 6410TIP3    H140865   4.280   5.136   8.796  1.5578  2.1893 -0.0946
 6410TIP3    H240866   4.255   5.172   8.652  0.0970  0.4825 -0.2958
 6411TIP3   OH240867   1.719   0.154   0.603  0.1829 -0.1463  0.0820
 6411TIP3    H140868   1.748   0.129   0.691 -0.7209 -0.6590  0.2387
 6411TIP3    H240869   1.628   0.128   0.599  0.4208 -0.8418 -1.2823
 6412TIP3   OH240870   0.355   4.393   1.725  0.6423 -0.0586 -0.6329
 6412TIP3    H140871   0.262   4.408   1.707  0.6218 -1.5312 -2.0464
 6412TIP3    H240872   0.372   4.305   1.690  3.0906  1.0723 -2.6302
 6413TIP3   OH240873   6.305   5.768   0.574  0.7530  0.3512  0.3356
 6413TIP3    H140874   6.260   5.746   0.656  0.2331 -0.1837 -0.0861
 6413TIP3    H240875   6.330   5.683   0.537 -1.8778  0.3159 -1.6587
 6414TIP3   OH240876   5.566   0.002   1.467 -0.3655 -0.4770  0.4040
 6414TIP3    H140877   5.512  -0.007   1.546 -1.0160 -0.2933 -0.0186
 6414TIP3    H240878   5.619  -0.078   1.465  1.1228  0.3750  2.1046
 6415TIP3   OH240879   2.153   4.039   6.991 -0.6290 -0.1886  0.0663
 6415TIP3    H140880   2.079   4.099   6.982  0.7681  1.6804  0.5732
 6415TIP3    H240881   2.209   4.058   6.916  0.3875  0.0041  0.8441
 6416TIP3   OH240882   2.272   3.793   1.920 -0.4406 -0.4394  0.0744
 6416TIP3    H140883   2.349   3.757   1.964 -0.0921 -2.1724 -1.8216
 6416TIP3    H240884   2.199   3.743   1.957 -0.4681 -0.0529  0.5583
 6417TIP3   OH240885   0.577   6.377   0.090  0.2975 -0.4507  1.0535
 6417TIP3    H140886   0.670   6.355   0.091  1.0078  2.2079  1.2151
 6417TIP3    H240887   0.558   6.407   0.178 -0.2887  0.5643  0.5939
 6418TIP3   OH240888   4.498   5.641   0.826 -0.0689  0.4050  0.0357
 6418TIP3    H140889   4.537   5.563   0.788 -1.4491 -0.7588  0.9058
 6418TIP3    H240890   4.493   5.623   0.920  2.9353  3.0548  0.9176
 6419TIP3   OH240891   2.115   2.690   1.099  0.1869  0.3111  0.1448
 6419TIP3    H140892   2.103   2.784   1.114 -0.3083  0.2217  0.3130
 6419TIP3    H240893   2.085   2.649   1.180  0.6056  0.0182  0.1551
 6420TIP3   OH240894   0.330   2.557   1.762 -0.0796  0.1160 -0.1440
 6420TIP3    H140895   0.395   2.616   1.722  0.2806  1.0255  1.7058
 6420TIP3    H240896   0.262   2.548   1.695  0.7106  1.2162 -1.1411
 6421TIP3   OH240897   2.274   3.333   7.338 -0.0207 -0.3898  0.0658
 6421TIP3    H140898   2.350   3.377   7.300 -0.6243 -0.7640 -1.7037
 6421TIP3    H240899   2.206   3.401   7.341 -0.2326 -0.5779 -0.3679
 6422TIP3   OH240900   0.706   0.254   7.367 -0.3922 -0.0492  0.8881
 6422TIP3    H140901   0.634   0.271   7.428 -0.3281  0.0773  0.9295
 6422TIP3    H240902   0.719   0.337   7.322 -1.9854 -0.7347 -0.9714
 6423TIP3   OH240903   6.206   2.636   7.844 -0.0019  0.3333 -0.2780
 6423TIP3    H140904   6.216   2.655   7.937 -2.0315 -0.0824  0.0662
 6423TIP3    H240905   6.164   2.715   7.808  0.7689  0.4925 -0.8711
 6424TIP3   OH240906   2.444   6.136   1.735 -0.2330 -0.8397 -0.2483
 6424TIP3    H140907   2.367   6.180   1.700  0.7105  0.6906 -0.4773
 6424TIP3    H240908   2.451   6.167   1.825 -0.7358 -2.1902  0.2980
 6425TIP3   OH240909   6.236   0.662   1.213  0.0112  0.1871  0.0891
 6425TIP3    H140910   6.328   0.637   1.207 -0.6476 -2.3029 -0.7883
 6425TIP3    H240911   6.237   0.745   1.260  2.6715  0.0679  0.3924
 6426TIP3   OH240912   6.366   2.996   7.482 -0.0804  0.1018  0.1671
 6426TIP3    H140913   6.460   2.988   7.468  0.1014  1.1185  0.6826
 6426TIP3    H240914   6.334   3.048   7.407  0.1832  1.7936  1.1678
 6427TIP3   OH240915   3.535   5.111   1.071  0.1391 -0.2703 -0.1466
 6427TIP3    H140916   3.556   5.069   0.988  0.9957 -0.7592  0.2990
 6427TIP3    H240917   3.579   5.197   1.066  1.6937 -0.9891  0.4754
 6428TIP3   OH240918   2.031   6.582   0.569 -0.9060  0.2670 -0.0363
 6428TIP3    H140919   2.097   6.520   0.537 -2.7695 -1.0344 -1.6916
 6428TIP3    H240920   1.983   6.533   0.636 -0.6263  0.9377  0.6560
 6429TIP3   OH240921   2.014   2.601   0.770 -0.3980  0.4584 -0.0701
 6429TIP3    H140922   1.948   2.573   0.706 -0.6011 -0.2485  0.4381
 6429TIP3    H240923   2.088   2.541   0.755 -0.8947 -0.4992  1.1334
 6430TIP3   OH240924   4.224   3.720   0.652 -0.1554 -0.2021  0.3736
 6430TIP3    H140925   4.311   3.720   0.611  0.1266 -0.0324  0.9633
 6430TIP3    H240926   4.166   3.685   0.585  0.5292 -1.2710  0.3184
 6431TIP3   OH240927   3.137   4.757   7.407 -0.5663 -0.2958  0.2551
 6431TIP3    H140928   3.196   4.719   7.342 -0.7850 -0.7005  0.2901
 6431TIP3    H240929   3.050   4.750   7.367 -0.4753  1.4782 -0.3632
 6432TIP3   OH240930   5.972   3.610   8.080  0.2780 -0.4139 -0.2083
 6432TIP3    H140931   5.908   3.547   8.047 -0.8737 -0.0207  1.1821
 6432TIP3    H240932   6.054   3.586   8.036 -0.4738 -1.9079 -0.8683
 6433TIP3   OH240933   4.928   6.306   1.233  0.1221  0.0351  0.4018
 6433TIP3    H140934   4.949   6.246   1.162  0.0404  0.4897 -0.0086
 6433TIP3    H240935   4.987   6.380   1.221 -1.6914  1.3563 -0.7995
 6434TIP3   OH240936   4.336   6.531   8.339  0.0966 -0.2624 -0.5204
 6434TIP3    H140937   4.322   6.623   8.319 -0.2838 -0.3196 -0.5325
 6434TIP3    H240938   4.406   6.504   8.279  1.0692  0.3139  0.3304
 6435TIP3   OH240939   2.541   3.295   7.867 -0.2652 -0.2785 -0.4591
 6435TIP3    H140940   2.479   3.360   7.836 -0.2386  0.2601  0.5881
 6435TIP3    H240941   2.586   3.337   7.940  0.7851 -0.9449 -0.6990
 6436TIP3   OH240942   4.129   1.434   7.383  0.3453  0.3240 -0.2299
 6436TIP3    H140943   4.052   1.474   7.344 -1.0114 -1.1061  0.8162
 6436TIP3    H240944   4.183   1.507   7.412 -0.3761  1.3651 -1.4368
 6437TIP3   OH240945   5.342   1.708   0.812 -0.2367  0.1612 -0.4153
 6437TIP3    H140946   5.343   1.772   0.883  0.4168 -1.2656  0.9129
 6437TIP3    H240947   5.249   1.693   0.795 -0.4079  0.2410  0.4026
 6438TIP3   OH240948   6.701   2.662   0.084  0.1282  0.3012  0.1581
 6438TIP3    H140949   6.738   2.681  -0.003 -2.6701  0.3620 -1.1330
 6438TIP3    H240950   6.688   2.747   0.124  0.7990  0.3066  0.3776
 6439TIP3   OH240951   4.588   3.018   7.151  0.6960 -0.4992  0.1022
 6439TIP3    H140952   4.594   3.109   7.178  1.7174  0.1126 -1.9583
 6439TIP3    H240953   4.511   3.013   7.095  1.0962 -0.6929 -0.4470
 6440TIP3   OH240954   1.806   6.067   0.777  0.2090  0.2584  0.2725
 6440TIP3    H140955   1.825   6.111   0.694 -0.9927 -0.0791 -0.2077
 6440TIP3    H240956   1.749   6.127   0.824  0.6839  0.3380  0.7524
 6441TIP3   OH240957   0.692   2.034   7.674 -0.3147 -0.4874 -0.1957
 6441TIP3    H140958   0.743   2.063   7.598 -1.0501  0.5066 -0.3229
 6441TIP3    H240959   0.606   2.076   7.663  0.1582  1.3016  2.1905
 6442TIP3   OH240960   4.845   1.096   1.798 -0.8949 -0.4389 -0.5109
 6442TIP3    H140961   4.888   1.157   1.858 -0.0480 -1.8571  0.3763
 6442TIP3    H240962   4.833   1.146   1.717  1.9382  0.2372 -0.6348
 6443TIP3   OH240963   6.036   1.974   0.258 -0.7317  0.3065 -0.1368
 6443TIP3    H140964   5.942   1.991   0.246 -1.0146 -0.0371  1.4118
 6443TIP3    H240965   6.054   1.898   0.202 -1.5022  0.0677 -0.0757
 6444TIP3   OH240966   3.801   0.158   8.623 -0.4282  0.0486  0.1542
 6444TIP3    H140967   3.786   0.076   8.575  0.6692 -0.2542  0.3002
 6444TIP3    H240968   3.740   0.155   8.696  0.6065 -1.3766  1.0148
 6445TIP3   OH240969   3.361   4.254   6.333  0.6577  0.0870 -0.1095
 6445TIP3    H140970   3.325   4.335   6.295  1.1202 -0.3479 -1.5446
 6445TIP3    H240971   3.398   4.282   6.417 -1.9675  0.7517  0.9106
 6446TIP3   OH240972   2.740   2.328   1.817  0.2981 -0.3674  0.1388
 6446TIP3    H140973   2.727   2.412   1.774  0.2083 -1.1784 -1.4755
 6446TIP3    H240974   2.701   2.264   1.758 -0.5625 -1.4738  1.8088
 6447TIP3   OH240975   4.815   4.615   0.549 -0.2038  0.2666  0.2052
 6447TIP3    H140976   4.834   4.676   0.621  1.1151  1.8390 -1.3506
 6447TIP3    H240977   4.901   4.583   0.523 -0.5108  0.7097 -1.4433
 6448TIP3   OH240978   2.484   6.135   8.747  0.6350  0.5352 -0.0876
 6448TIP3    H140979   2.415   6.179   8.796  0.3419  0.9205 -0.8303
 6448TIP3    H240980   2.503   6.056   8.797 -0.6797  0.1846 -0.1266
 6449TIP3   OH240981   6.421   3.243   0.613 -0.0281 -0.1899  0.5199
 6449TIP3    H140982   6.399   3.170   0.670 -1.7190  1.3854  2.0120
 6449TIP3    H240983   6.383   3.320   0.656 -0.9551  1.1775 -2.4418
 6450TIP3   OH240984   0.531   4.382   7.434 -0.2451  0.2730 -0.5014
 6450TIP3    H140985   0.513   4.420   7.520 -2.8880  1.0280 -1.3133
 6450TIP3    H240986   0.566   4.294   7.454  2.0502  1.4800  1.3197
 6451TIP3   OH240987   1.174   6.008   0.998 -0.2403 -0.1500  0.1316
 6451TIP3    H140988   1.089   6.051   1.002 -0.4475 -0.6424  2.6788
 6451TIP3    H240989   1.158   5.927   0.951 -1.1060 -0.0698  0.2758
 6452TIP3   OH240990   5.372   1.647   1.385  0.2728 -1.0046  0.0393
 6452TIP3    H140991   5.404   1.585   1.452  1.7508 -0.5802 -0.2313
 6452TIP3    H240992   5.384   1.733   1.425 -0.4900 -0.8260 -0.1095
 6453TIP3   OH240993   2.475   4.555   0.472 -0.3407 -0.2089  0.0279
 6453TIP3    H140994   2.388   4.553   0.512 -0.8064  0.8987 -0.8828
 6453TIP3    H240995   2.535   4.556   0.547 -1.1671  0.9920  0.7066
 6454TIP3   OH240996   6.658   1.503   0.141 -0.4723  0.8459  0.4165
 6454TIP3    H140997   6.632   1.464   0.058 -0.3500  1.7746 -0.0639
 6454TIP3    H240998   6.591   1.568   0.160 -0.6924  0.3981  1.2366
 6455TIP3   OH240999   6.785   0.666   8.294  0.1941 -0.2779  0.0822
 6455TIP3    H141000   6.875   0.683   8.321  0.1343 -1.7380  1.3265
 6455TIP3    H241001   6.758   0.747   8.250  2.2075  0.0551 -0.6524
 6456TIP3   OH241002   5.066   5.056   1.879 -0.2324 -0.4319 -0.2569
 6456TIP3    H141003   5.069   5.127   1.942  1.6968 -0.0667 -0.7122
 6456TIP3    H241004   5.111   4.983   1.922 -0.0625 -0.5921 -0.6980
 6457TIP3   OH241005   1.660   1.372   7.138  0.2598  0.1227  0.3959
 6457TIP3    H141006   1.710   1.369   7.220  0.4053  1.7551  0.4030
 6457TIP3    H241007   1.721   1.342   7.071  1.0743  1.4614  0.5006
 6458TIP3   OH241008   6.560   4.939   8.551 -0.0758 -0.0333 -0.5705
 6458TIP3    H141009   6.507   4.984   8.485  1.3745  2.4604 -0.1863
 6458TIP3    H241010   6.521   4.965   8.635  1.5256  1.7194 -0.2914
 6459TIP3   OH241011   3.278   6.129   7.264  0.1171 -0.0686  0.0124
 6459TIP3    H141012   3.305   6.220   7.276 -1.7134  0.5556 -0.3430
 6459TIP3    H241013   3.256   6.099   7.353 -1.1881  0.4782 -0.1210
 6460TIP3   OH241014   2.193   0.386   0.446  0.7174 -0.4820  0.5094
 6460TIP3    H141015   2.189   0.340   0.530  0.7206 -1.6606 -0.1258
 6460TIP3    H241016   2.172   0.477   0.469  3.0202 -0.2765  2.1376
 6461TIP3   OH241017   2.391   0.630   1.702 -0.2985  0.4036 -0.3302
 6461TIP3    H141018   2.448   0.651   1.776  0.8635 -3.0458 -0.0449
 6461TIP3    H241019   2.448   0.630   1.626 -1.1208  2.1836 -0.9842
 6462TIP3   OH241020   2.193   3.629   0.300  0.0391  0.3639  0.0167
 6462TIP3    H141021   2.151   3.713   0.317  0.4915  0.5763  0.0965
 6462TIP3    H241022   2.204   3.589   0.386 -2.4145 -0.9025 -0.1534
 6463TIP3   OH241023   2.075   1.036   0.039 -0.0403 -0.6343  0.0012
 6463TIP3    H141024   2.057   1.093  -0.035 -0.6074 -0.4283  0.2917
 6463TIP3    H241025   2.163   1.001   0.022  0.4262  0.5342 -0.0419
 6464TIP3   OH241026   1.349   5.600   2.646 -0.5812 -0.0697 -0.3716
 6464TIP3    H141027   1.257   5.604   2.673 -0.6975  0.9500 -0.8374
 6464TIP3    H241028   1.354   5.527   2.585 -0.5348 -1.7374  1.5200
 6465TIP3   OH241029   0.161   1.581   2.851 -0.1968 -0.0681  0.0815
 6465TIP3    H141030   0.190   1.609   2.764 -0.7980  1.6928  0.4123
 6465TIP3    H241031   0.118   1.658   2.888 -1.4497 -1.3038  1.2933
 6466TIP3   OH241032   4.045   1.567   1.795  0.2910  0.2400  0.1426
 6466TIP3    H141033   4.136   1.592   1.815  0.3383 -0.4830  0.8664
 6466TIP3    H241034   4.010   1.536   1.878 -0.3644 -0.2701 -0.3185
 6467TIP3   OH241035   1.037   0.565   7.934 -0.0180  0.3215 -0.0308
 6467TIP3    H141036   1.054   0.477   7.900 -2.4873 -0.7160  1.2100
 6467TIP3    H241037   0.994   0.610   7.861  1.2536  0.5471 -0.6700
 6468TIP3   OH241038   3.927   0.651   8.755 -0.7425  0.0963 -0.1471
 6468TIP3    H141039   3.851   0.671   8.810 -1.6504  0.4205 -1.4626
 6468TIP3    H241040   3.890   0.609   8.677  0.2994  1.2009 -1.2870
 6469TIP3   OH241041   4.098   5.387   6.583  0.3442 -0.0434 -0.3234
 6469TIP3    H141042   4.094   5.481   6.601  0.0807 -0.4275  1.8962
 6469TIP3    H241043   4.191   5.369   6.568  0.7680  0.1929  1.7741
 6470TIP3   OH241044   1.744   5.122   8.900  0.4388  0.0769  0.7058
 6470TIP3    H141045   1.763   5.078   8.983 -2.4592  0.9949  1.9884
 6470TIP3    H241046   1.650   5.140   8.904  0.5981  1.9820 -1.9210
 6471TIP3   OH241047   4.905   0.342   2.001 -0.0571 -0.0885  0.4087
 6471TIP3    H141048   4.919   0.429   2.039  1.2495  0.1665 -0.6018
 6471TIP3    H241049   4.885   0.286   2.076 -1.7653  1.2157  1.0003
 6472TIP3   OH241050   3.810   3.376   0.303  0.8833 -0.2895 -0.3958
 6472TIP3    H141051   3.869   3.411   0.236 -0.2602 -0.2966 -1.4466
 6472TIP3    H241052   3.798   3.284   0.280 -0.4912 -0.0021 -0.9598
 6473TIP3   OH241053   5.200   0.740   8.681 -0.1846  0.9516 -0.7920
 6473TIP3    H141054   5.267   0.749   8.613 -0.8543  0.8910 -1.4699
 6473TIP3    H241055   5.117   0.748   8.635 -0.7947 -2.5338 -0.5744
 6474TIP3   OH241056   0.168   3.945   7.104 -0.1503  0.2209  0.1895
 6474TIP3    H141057   0.146   3.852   7.097 -1.0955  0.5559 -2.7036
 6474TIP3    H241058   0.086   3.987   7.131  0.1565  0.3017  1.0426
 6475TIP3   OH241059   6.300   5.503   7.665 -0.1044  0.7423 -0.1594
 6475TIP3    H141060   6.368   5.554   7.709  2.3054 -2.1091 -0.2520
 6475TIP3    H241061   6.342   5.470   7.585 -1.6942 -0.7753 -0.4351
 6476TIP3   OH241062   4.928   2.950   0.413 -0.6706 -0.1568  0.1549
 6476TIP3    H141063   4.957   3.001   0.489 -1.4778 -0.3431  0.6051
 6476TIP3    H241064   4.848   2.907   0.443 -2.3096  1.5720 -1.5221
 6477TIP3   OH241065   1.816   0.909   6.434  0.2847 -0.1836 -0.2201
 6477TIP3    H141066   1.727   0.942   6.440  0.7830  0.9878  1.3117
 6477TIP3    H241067   1.871   0.984   6.454  1.6395 -0.8498 -1.2663
 6478TIP3   OH241068   6.117   0.666   7.454  0.3643 -0.2291 -0.0666
 6478TIP3    H141069   6.025   0.690   7.468  0.7690  1.2746  0.1316
 6478TIP3    H241070   6.164   0.709   7.525  1.3185 -0.3002 -0.6420
 6479TIP3   OH241071   5.277   1.572   7.978  0.2417  0.7545  0.2988
 6479TIP3    H141072   5.196   1.574   7.929  0.2147 -1.6110  0.1620
 6479TIP3    H241073   5.338   1.524   7.923  0.8702 -0.0142  1.6220
 6480TIP3   OH241074   2.844   4.745   6.298  0.0401  0.3424  0.2806
 6480TIP3    H141075   2.911   4.684   6.267  0.3775  0.8617 -0.0450
 6480TIP3    H241076   2.887   4.831   6.294 -0.8513  0.7643 -0.5566
 6481TIP3   OH241077   2.008   4.455   7.019  0.2815 -0.6510 -0.4142
 6481TIP3    H141078   1.966   4.386   6.967  0.4994 -0.8233 -0.3638
 6481TIP3    H241079   2.052   4.408   7.090 -0.0702 -0.4086 -0.0387
 6482TIP3   OH241080   6.561   4.799   0.228 -0.7759 -0.3845  0.7425
 6482TIP3    H141081   6.535   4.876   0.279 -0.0895 -0.4375  1.1840
 6482TIP3    H241082   6.547   4.725   0.287  0.0080 -0.4472  0.8695
 6483TIP3   OH241083   4.546   6.783   0.622 -0.6929 -0.1787  0.6438
 6483TIP3    H141084   4.610   6.831   0.569 -0.0362 -1.6919  0.0151
 6483TIP3    H241085   4.474   6.763   0.562 -1.2540  0.5059  1.0601
 6484TIP3   OH241086   4.315   4.041   7.951 -0.4485 -0.3868  0.5003
 6484TIP3    H141087   4.376   3.989   7.897 -0.2007  0.9826 -0.6057
 6484TIP3    H241088   4.343   4.025   8.041  0.9918 -0.4997  0.0625
 6485TIP3   OH241089   4.320   4.385   1.039  0.4008  0.1624 -0.6068
 6485TIP3    H141090   4.302   4.292   1.051  1.0986  0.0841 -0.1079
 6485TIP3    H241091   4.379   4.389   0.964  1.7780  0.0311  0.4227
 6486TIP3   OH241092   6.136   3.819   0.681 -0.3427 -0.7465  0.1069
 6486TIP3    H141093   6.183   3.902   0.671  2.0949 -1.9863  0.6187
 6486TIP3    H241094   6.055   3.832   0.631  1.0552  1.1025 -1.8701
 6487TIP3   OH241095   0.513   4.292   6.929  0.5655  0.0612  0.0869
 6487TIP3    H141096   0.509   4.364   6.867 -1.8391 -1.4126 -1.6806
 6487TIP3    H241097   0.437   4.306   6.987 -1.1809 -1.9360 -1.5361
 6488TIP3   OH241098   4.501   4.319   0.831  0.4245 -0.4285  0.7033
 6488TIP3    H141099   4.511   4.240   0.778 -2.2833 -1.2415  1.2314
 6488TIP3    H241100   4.543   4.297   0.915 -0.3604 -1.3533  0.8647
 6489TIP3   OH241101   6.252   4.164   8.699 -0.0779  0.1589 -0.4113
 6489TIP3    H141102   6.206   4.238   8.658 -0.3186  0.0814 -0.2843
 6489TIP3    H241103   6.270   4.104   8.627 -1.2312 -0.3627 -0.2945
 6490TIP3   OH241104   4.593   0.150   0.077  0.1471 -0.0578 -0.2227
 6490TIP3    H141105   4.640   0.100   0.144 -1.3243 -1.7636 -0.3815
 6490TIP3    H241106   4.593   0.240   0.110  0.5052 -0.6355  1.4814
 6491TIP3   OH241107   2.592   2.460   7.146  0.2264  0.3202  0.3081
 6491TIP3    H141108   2.630   2.525   7.086  0.1342  0.9925  0.9543
 6491TIP3    H241109   2.570   2.511   7.225 -0.6840 -0.3296  0.4887
 6492TIP3   OH241110   0.905   4.401   2.317 -0.0168  0.2831 -0.0289
 6492TIP3    H141111   0.989   4.438   2.346 -0.2276 -0.0185  1.0115
 6492TIP3    H241112   0.845   4.421   2.388 -0.7956  0.3565 -0.7013
 6493TIP3   OH241113   2.120   4.189   6.745  0.2163  0.2820  0.1322
 6493TIP3    H141114   2.168   4.272   6.755  1.3222 -0.4064  0.7310
 6493TIP3    H241115   2.028   4.213   6.754  0.4039  1.6814 -1.2439
 6494TIP3   OH241116   4.709   4.669   1.737 -0.3695  0.3104 -0.1020
 6494TIP3    H141117   4.628   4.702   1.698 -1.5313 -0.4543  1.5512
 6494TIP3    H241118   4.759   4.748   1.760 -1.3227  0.8260  0.2293
 6495TIP3   OH241119   0.065   1.582   8.367  0.0769  0.4499  0.1647
 6495TIP3    H141120   0.023   1.623   8.443  1.5228 -0.7858  1.6976
 6495TIP3    H241121   0.140   1.638   8.348  1.4318 -0.8139  1.5800
 6496TIP3   OH241122   0.013   3.778   7.840  0.4681 -0.4395  0.0906
 6496TIP3    H141123  -0.062   3.793   7.899 -0.0417 -2.3664  0.0037
 6496TIP3    H241124  -0.026   3.775   7.753  0.6480 -1.2007  0.0233
 6497TIP3   OH241125   5.040   0.581   6.502  0.3905 -0.0569 -0.0286
 6497TIP3    H141126   4.976   0.612   6.566  1.5411  0.9029  0.6904
 6497TIP3    H241127   4.987   0.536   6.436 -0.8779 -0.5434  1.2721
 6498TIP3   OH241128   5.055   5.856   7.870  0.2290  0.1947  0.4248
 6498TIP3    H141129   5.070   5.867   7.776 -1.1270 -0.3228  0.1291
 6498TIP3    H241130   5.088   5.768   7.889  3.0999  1.2912  1.0500
 6499TIP3   OH241131   4.972   6.591   0.173 -0.4136 -0.1238 -0.5007
 6499TIP3    H141132   5.017   6.566   0.092  0.5322  0.0313 -0.0412
 6499TIP3    H241133   4.970   6.511   0.225  0.1815  0.0818 -0.1441
 6500TIP3   OH241134   0.834   0.926   8.588 -0.1394  0.4345 -0.2893
 6500TIP3    H141135   0.758   0.895   8.637 -2.4624  0.8182 -3.2856
 6500TIP3    H241136   0.867   0.847   8.543  1.1454  0.3191  0.8044
 6501TIP3   OH241137   0.490   3.370   7.812  0.5982  0.3208  0.3971
 6501TIP3    H141138   0.489   3.345   7.905 -3.8455  0.0973  0.5116
 6501TIP3    H241139   0.497   3.287   7.765  2.5661  0.4136  0.4367
 6502TIP3   OH241140   6.237   3.235   8.304 -0.1098  0.0369 -0.2344
 6502TIP3    H141141   6.238   3.260   8.397 -0.4936  1.4391 -0.5872
 6502TIP3    H241142   6.145   3.216   8.285 -0.1734  0.6432 -0.5463
 6503TIP3   OH241143   1.237   2.204   0.453 -0.5167 -0.3862 -0.4395
 6503TIP3    H141144   1.243   2.236   0.543 -1.3036 -1.5495  0.0481
 6503TIP3    H241145   1.267   2.278   0.399 -0.7197  0.5731  0.7264
 6504TIP3   OH241146   1.915   6.513   8.752 -0.5173 -0.1789  0.3639
 6504TIP3    H141147   1.957   6.531   8.835  2.0147  0.7235 -1.0166
 6504TIP3    H241148   1.857   6.588   8.737  0.9434  0.9573  0.1876
 6505TIP3   OH241149   5.024   3.312   7.643 -0.2684 -0.4397 -0.1617
 6505TIP3    H141150   5.114   3.297   7.672 -0.3250  0.8121  0.7787
 6505TIP3    H241151   4.970   3.265   7.708 -0.3265  0.0794  0.1694
 6506TIP3   OH241152   3.480   5.342   7.364  0.0882  0.0380  0.3061
 6506TIP3    H141153   3.475   5.256   7.323 -0.0829  0.3397 -0.3178
 6506TIP3    H241154   3.571   5.369   7.354 -0.4506  1.1876 -2.1560
 6507TIP3   OH241155   0.031   2.128   8.593  0.3230  0.0873  0.0628
 6507TIP3    H141156   0.122   2.132   8.623  0.3435  1.2524 -0.1064
 6507TIP3    H241157  -0.003   2.217   8.607 -0.6500 -0.2107 -0.3168
 6508TIP3   OH241158   5.003   0.749   8.404 -0.3366  0.0496 -0.5150
 6508TIP3    H141159   5.043   0.836   8.397  0.2564 -0.2524 -0.9580
 6508TIP3    H241160   5.027   0.705   8.322  0.2889 -0.9210  0.1692
 6509TIP3   OH241161   5.201   0.871   1.976  0.0530 -0.0648 -0.0900
 6509TIP3    H141162   5.152   0.842   1.898 -0.2209 -0.5942  0.2719
 6509TIP3    H241163   5.152   0.947   2.008  0.0283  0.0067 -0.2971
 6510TIP3   OH241164   3.625   6.228   0.856  0.0063 -0.7478 -0.5930
 6510TIP3    H141165   3.696   6.186   0.905 -1.2352 -3.2924 -0.7921
 6510TIP3    H241166   3.621   6.178   0.774 -2.1766 -0.8830 -0.4450
 6511TIP3   OH241167   5.230   0.903   2.499  0.1886 -0.4374 -0.4606
 6511TIP3    H141168   5.219   0.933   2.409  0.4209 -1.2243 -0.7559
 6511TIP3    H241169   5.280   0.822   2.492  1.0758  0.0005  0.4440
 6512TIP3   OH241170   1.366   0.574   7.731  0.2008 -0.3906 -0.0072
 6512TIP3    H141171   1.404   0.521   7.801  0.7847  0.6123  0.4700
 6512TIP3    H241172   1.362   0.663   7.769 -0.6864 -0.0852 -0.7936
 6513TIP3   OH241173   2.853   6.221   1.590 -0.2293  0.5986  0.1709
 6513TIP3    H141174   2.788   6.288   1.613  0.4621  1.1759  0.4856
 6513TIP3    H241175   2.927   6.271   1.553  0.5408  0.0698  0.9673
 6514TIP3   OH241176   0.344   3.747   8.684  0.3206 -0.0750 -0.5115
 6514TIP3    H141177   0.434   3.780   8.685  0.0167  0.9653 -2.2445
 6514TIP3    H241178   0.334   3.702   8.767  2.2723  0.2539 -0.0422
 6515TIP3   OH241179   5.020   2.283   1.577 -0.2676 -0.0801 -0.5603
 6515TIP3    H141180   4.932   2.319   1.587 -0.5465 -0.5094 -1.3711
 6515TIP3    H241181   5.058   2.287   1.665 -0.3566  1.9469 -0.5689
 6516TIP3   OH241182   1.630   2.565   0.047  0.4414 -0.2471  0.5045
 6516TIP3    H141183   1.697   2.515   0.001  0.6035  0.8340 -0.4681
 6516TIP3    H241184   1.678   2.634   0.093  0.3147 -1.4225  2.5455
 6517TIP3   OH241185   5.850   2.403   6.889 -0.7023 -0.3500  0.4332
 6517TIP3    H141186   5.798   2.438   6.816  0.6249  0.6880 -0.0674
 6517TIP3    H241187   5.871   2.313   6.862 -1.6142 -0.5433  0.3253
 6518TIP3   OH241188   3.487   6.335   7.935  0.2622  0.4484  0.3054
 6518TIP3    H141189   3.506   6.399   8.003  0.6632  1.4300 -0.7072
 6518TIP3    H241190   3.395   6.350   7.913  0.0693 -0.0206  0.7775
 6519TIP3   OH241191   3.716   6.190   7.403  0.6329  0.2157  0.1353
 6519TIP3    H141192   3.658   6.266   7.398  0.3201  0.1386  2.0181
 6519TIP3    H241193   3.802   6.226   7.423  0.3774  0.0756  1.5886
 6520TIP3   OH241194   6.423   4.614   8.312  0.2039 -0.0576  0.0839
 6520TIP3    H141195   6.387   4.540   8.361  0.5110 -1.0579 -1.1409
 6520TIP3    H241196   6.518   4.602   8.319  0.3113  1.2248  1.3090
 6521TIP3   OH241197   2.642   1.201   7.588  0.2250  0.5770 -0.2315
 6521TIP3    H141198   2.620   1.130   7.648  0.6273  1.6283  1.1921
 6521TIP3    H241199   2.702   1.161   7.525 -2.4807 -1.3406 -1.8437
 6522TIP3   OH241200   1.130   2.043   7.392  0.0552  0.3307  1.0920
 6522TIP3    H141201   1.179   2.124   7.375  0.7447  0.0017  1.4770
 6522TIP3    H241202   1.135   2.032   7.487 -0.0584 -0.1513  1.0445
 6523TIP3   OH241203   0.406   3.526   0.912 -0.3493 -0.3077  0.0227
 6523TIP3    H141204   0.362   3.492   0.990 -0.3848 -0.1295  0.0810
 6523TIP3    H241205   0.493   3.552   0.942 -0.6772  0.6192  0.2062
 6524TIP3   OH241206   4.845   2.058   0.145 -0.0242  0.0135  0.1134
 6524TIP3    H141207   4.897   2.138   0.155  1.0062 -0.6799  0.3771
 6524TIP3    H241208   4.833   2.049   0.050  0.7620 -0.0797  0.0143
 6525TIP3   OH241209   6.666   1.221   7.217 -0.2584  1.0306  0.1751
 6525TIP3    H141210   6.696   1.298   7.169 -0.6366  0.8385 -0.3844
 6525TIP3    H241211   6.712   1.225   7.300  2.4865 -0.0240 -1.1622
 6526TIP3   OH241212   3.345   6.288   1.675 -0.2449  0.1028 -0.2343
 6526TIP3    H141213   3.280   6.253   1.736  0.7063 -0.2093  0.6321
 6526TIP3    H241214   3.372   6.371   1.713  1.2142 -0.6362  0.4376
 6527TIP3   OH241215   0.957   0.594   1.647  0.3384 -0.2054 -0.4396
 6527TIP3    H141216   0.997   0.517   1.688 -2.4434 -1.9890 -0.8071
 6527TIP3    H241217   0.954   0.573   1.554  0.4268  0.8084 -0.6857
 6528TIP3   OH241218   6.696   0.164   8.169 -0.3003 -0.0157  0.0047
 6528TIP3    H141219   6.764   0.230   8.179 -0.1840 -0.0957 -0.2627
 6528TIP3    H241220   6.743   0.081   8.172 -0.6876 -0.2740  3.1879
 6529TIP3   OH241221   3.896   0.689   2.332  0.5644 -0.3060 -0.2250
 6529TIP3    H141222   3.821   0.743   2.357 -0.6330 -2.1271  0.3458
 6529TIP3    H241223   3.864   0.599   2.341  2.9349 -1.1479  0.3549
 6530TIP3   OH241224   5.354   2.291   0.321 -0.4105 -0.5001  0.7210
 6530TIP3    H141225   5.444   2.281   0.288 -0.3005  1.5173  0.2784
 6530TIP3    H241226   5.351   2.381   0.354 -1.9369 -0.9342  1.8446
 6531TIP3   OH241227   1.563   5.843   7.392  0.2363 -0.9380 -0.9067
 6531TIP3    H141228   1.493   5.778   7.383 -1.6329  0.4560  1.8293
 6531TIP3    H241229   1.588   5.838   7.484  1.2641  1.0214 -1.0298
 6532TIP3   OH241230   1.432   6.378   0.187  0.5151 -0.0255  0.4261
 6532TIP3    H141231   1.427   6.454   0.245  0.6929 -0.2779  0.7754
 6532TIP3    H241232   1.413   6.303   0.243  0.8757 -0.2918  0.2022
 6533TIP3   OH241233   2.330   3.577   1.470 -0.0187 -0.1264  0.3297
 6533TIP3    H141234   2.423   3.559   1.479 -0.0106 -0.0616  0.3716
 6533TIP3    H241235   2.315   3.581   1.375  0.0334 -0.0685  0.3242
 6534TIP3   OH241236   3.180   2.891   7.322  0.3851 -0.4438 -0.3023
 6534TIP3    H141237   3.130   2.875   7.241  0.7714 -0.3465 -0.5627
 6534TIP3    H241238   3.133   2.842   7.389 -1.0982  1.0235 -0.1927
 6535TIP3   OH241239   5.075   5.857   8.685  0.1533 -0.2516 -0.6372
 6535TIP3    H141240   5.162   5.875   8.649 -0.1575  3.1901  0.0134
 6535TIP3    H241241   5.078   5.889   8.775 -1.2089 -2.0741  0.1324
 6536TIP3   OH241242   0.483   3.819   1.813  0.8571  0.6711  0.7458
 6536TIP3    H141243   0.463   3.870   1.891 -1.7544  0.4824  0.3014
 6536TIP3    H241244   0.418   3.847   1.749  0.0894 -2.2891  0.0854
 6537TIP3   OH241245   3.839   5.438   8.274  0.1774  0.2792  0.5592
 6537TIP3    H141246   3.799   5.509   8.325  2.5117  3.5489 -1.7308
 6537TIP3    H241247   3.798   5.444   8.188  3.4048  2.0637 -1.0573
 6538TIP3   OH241248   0.406   4.459   2.425 -0.1755 -0.6046 -0.5016
 6538TIP3    H141249   0.384   4.393   2.490  0.3492  0.9491  1.3547
 6538TIP3    H241250   0.478   4.421   2.375 -0.2507 -1.6312  0.1497
 6539TIP3   OH241251   1.636   4.592   1.435 -0.1159  0.0261 -0.1112
 6539TIP3    H141252   1.657   4.664   1.495  0.8522 -0.1462 -0.2342
 6539TIP3    H241253   1.699   4.600   1.365 -0.8862 -0.1214 -0.8397
 6540TIP3   OH241254   5.415   5.661   1.999 -0.1999  0.2626 -0.4694
 6540TIP3    H141255   5.477   5.709   2.054 -1.8565  2.0781 -0.1100
 6540TIP3    H241256   5.413   5.710   1.917  0.3472 -0.9822 -1.2620
 6541TIP3   OH241257   2.645   4.509   0.705  0.1875  0.1689 -0.6895
 6541TIP3    H141258   2.663   4.437   0.645  1.5824 -0.4810  0.4433
 6541TIP3    H241259   2.712   4.502   0.772 -0.4889  1.7023  0.2146
 6542TIP3   OH241260   4.550   1.349   7.722  0.0381  0.2632 -0.2595
 6542TIP3    H141261   4.506   1.401   7.789  1.5866  2.4642 -0.8413
 6542TIP3    H241262   4.479   1.308   7.673 -1.2961  1.9175  0.1769
 6543TIP3   OH241263   6.666   4.762   1.591  0.1468 -0.7578  0.3908
 6543TIP3    H141264   6.653   4.812   1.671 -0.0116 -1.9416  1.1273
 6543TIP3    H241265   6.726   4.815   1.539 -0.9057  0.7347  0.6366
 6544TIP3   OH241266   6.456   5.614   2.019 -0.1518  0.0474  0.3113
 6544TIP3    H141267   6.374   5.630   2.065  0.2386  0.7288  0.7919
 6544TIP3    H241268   6.511   5.568   2.082 -0.2013 -0.5024 -0.0439
 6545TIP3   OH241269   1.311   3.512   1.328 -0.5069 -0.0857 -0.5457
 6545TIP3    H141270   1.385   3.572   1.317 -0.7426  0.3834  0.3413
 6545TIP3    H241271   1.351   3.425   1.330  0.0204  0.1565 -0.2161
 6546TIP3   OH241272   3.950   6.554   7.484  0.3752 -0.0458 -0.3474
 6546TIP3    H141273   3.933   6.634   7.534 -1.5757 -0.4166 -0.3220
 6546TIP3    H241274   3.917   6.484   7.540  1.0182 -0.7653 -0.8553
 6547TIP3   OH241275   1.804   4.278   0.257 -0.4479  0.0505  0.0260
 6547TIP3    H141276   1.856   4.291   0.178 -0.8361  0.3774 -0.1851
 6547TIP3    H241277   1.857   4.314   0.327  1.3579 -3.1298  0.4756
 6548TIP3   OH241278   2.445   5.794   7.724  0.4959  0.0203 -0.1578
 6548TIP3    H141279   2.491   5.857   7.779  0.2062  0.8262 -0.8148
 6548TIP3    H241280   2.359   5.833   7.710  0.1053 -0.8002 -0.1039
 6549TIP3   OH241281   1.767   4.328   1.377 -0.3978  0.4818  0.3513
 6549TIP3    H141282   1.745   4.357   1.288 -2.5180 -1.4837  0.1532
 6549TIP3    H241283   1.862   4.311   1.373 -0.1263  1.9758 -1.0265
 6550TIP3   OH241284   5.856   4.002   0.679 -0.5486 -0.4323  0.1089
 6550TIP3    H141285   5.888   3.935   0.618  1.4119 -0.6033  1.2335
 6550TIP3    H241286   5.855   4.083   0.629  0.9884 -0.5770 -0.1883
 6551TIP3   OH241287   6.297   4.122   0.811 -1.0259 -0.1376 -0.9789
 6551TIP3    H141288   6.350   4.178   0.868 -1.4571 -0.1600 -0.5469
 6551TIP3    H241289   6.297   4.037   0.854  1.0449 -0.9753 -2.4962
 6552TIP3   OH241290   1.848   5.838   1.852  0.6326 -0.1603 -0.3493
 6552TIP3    H141291   1.793   5.892   1.796 -0.8165 -2.7099 -1.5398
 6552TIP3    H241292   1.791   5.817   1.927  0.7919 -0.8577 -0.4179
 6553TIP3   OH241293   4.495   4.422   1.468  0.2223 -1.1949 -0.1527
 6553TIP3    H141294   4.471   4.486   1.401  1.3437 -1.0610 -0.4442
 6553TIP3    H241295   4.458   4.458   1.549  0.0562 -0.6401 -0.4688
 6554TIP3   OH241296   0.865   2.813   8.294  0.5173 -0.7122 -0.1854
 6554TIP3    H141297   0.949   2.856   8.308  0.1071  0.3653 -0.8955
 6554TIP3    H241298   0.844   2.773   8.378  0.1349  1.9219  1.0711
 6555TIP3   OH241299   4.391   2.757   0.664  0.6350 -0.2007  0.1457
 6555TIP3    H141300   4.380   2.671   0.703  1.0792 -0.1218  0.4504
 6555TIP3    H241301   4.472   2.791   0.702  1.1455 -0.1664 -0.9267
 6556TIP3   OH241302   0.109   4.730   7.555  0.0859  0.3468  0.4962
 6556TIP3    H141303   0.029   4.735   7.607 -1.4642  1.0028 -1.7749
 6556TIP3    H241304   0.129   4.637   7.549  0.6682  0.2904  2.6823
 6557TIP3   OH241305   5.476   1.942   2.013  0.4030  0.5690  0.3296
 6557TIP3    H141306   5.396   1.909   2.055  1.0751  2.8267  3.8410
 6557TIP3    H241307   5.547   1.893   2.054  0.9837 -0.2877 -1.5841
 6558TIP3   OH241308   4.779   4.355   0.759 -0.7315  0.3072  0.2709
 6558TIP3    H141309   4.690   4.335   0.732 -1.0943  1.0593  0.8707
 6558TIP3    H241310   4.834   4.314   0.692 -1.5424  0.3857 -0.4636
 6559TIP3   OH241311   0.453   0.227   1.223 -0.8055 -0.1221  0.1400
 6559TIP3    H141312   0.460   0.141   1.264 -0.0006 -1.4422 -2.5899
 6559TIP3    H241313   0.534   0.237   1.173 -0.6635  2.4758  0.7310
 6560TIP3   OH241314   6.214   5.979   6.901 -0.7516  0.2312 -0.2706
 6560TIP3    H141315   6.281   5.948   6.840  0.9782 -0.2195  1.7403
 6560TIP3    H241316   6.234   6.072   6.913  0.8637 -0.2900  1.7866
 6561TIP3   OH241317   0.938   3.416   6.916  0.1219  0.1280  0.6216
 6561TIP3    H141318   1.029   3.444   6.901 -1.0256  3.0316 -2.2969
 6561TIP3    H241319   0.902   3.483   6.974 -0.8468  0.7095 -0.6036
 6562TIP3   OH241320   1.914   4.142   7.011 -0.0431 -0.2880 -0.1433
 6562TIP3    H141321   1.889   4.169   7.100  0.7823 -0.0508  0.0248
 6562TIP3    H241322   1.851   4.188   6.954  1.1655  1.8637  0.1429
 6563TIP3   OH241323   0.348   4.212   8.270 -0.2622 -0.0837  0.0236
 6563TIP3    H141324   0.316   4.206   8.360 -2.3169 -2.0873 -0.7267
 6563TIP3    H241325   0.294   4.279   8.229 -1.3345 -1.1557 -0.3891
 6564TIP3   OH241326   2.385   1.389   7.692 -0.0856 -0.0738 -0.2446
 6564TIP3    H141327   2.306   1.337   7.683 -1.4115  1.7621  0.2888
 6564TIP3    H241328   2.388   1.442   7.612  0.3618  0.1972 -0.0517
 6565TIP3   OH241329   2.490   2.252   0.945  0.1064  0.2176  0.2159
 6565TIP3    H141330   2.518   2.343   0.952 -1.6121  0.7427  0.8411
 6565TIP3    H241331   2.399   2.252   0.977 -0.4144 -1.4643 -1.0779
 6566TIP3   OH241332   6.456   3.760   7.620  0.2975  0.0263  0.0235
 6566TIP3    H141333   6.421   3.841   7.656  2.3119  0.7031  0.5949
 6566TIP3    H241334   6.410   3.691   7.667  0.2601  0.8786  1.2873
 6567TIP3   OH241335   0.140   3.247   7.917 -0.2649 -0.1509 -0.1760
 6567TIP3    H141336   0.138   3.245   8.013 -0.0277  1.6446 -0.1051
 6567TIP3    H241337   0.187   3.328   7.896 -2.4405  0.7760 -1.8168
 6568TIP3   OH241338   2.082   4.036   7.667 -0.3763 -0.6068 -1.1591
 6568TIP3    H141339   2.018   3.964   7.671  1.5059 -2.4299 -1.6971
 6568TIP3    H241340   2.109   4.049   7.758 -1.4876  0.2177 -0.9188
 6569TIP3   OH241341   5.299   2.021   7.986  0.2406  0.2378  0.1128
 6569TIP3    H141342   5.325   2.075   8.061  1.6408  0.5645 -0.5745
 6569TIP3    H241343   5.377   1.969   7.966 -1.2242 -2.5582  1.1163
 6570TIP3   OH241344   2.936   6.566   0.338  0.3985  0.7831 -0.2256
 6570TIP3    H141345   3.031   6.570   0.350  0.8589 -1.0454 -2.5735
 6570TIP3    H241346   2.914   6.649   0.295  1.2550  0.4750 -1.2994
 6571TIP3   OH241347   4.746   3.479   6.569  0.6741 -0.0336  0.2609
 6571TIP3    H141348   4.810   3.519   6.628 -0.7066  0.0333  1.8025
 6571TIP3    H241349   4.683   3.549   6.550  0.2964 -0.4563 -0.1000
 6572TIP3   OH241350   3.784   1.073   0.654  0.5597 -0.7062 -0.6975
 6572TIP3    H141351   3.749   0.989   0.683  0.1723  0.2826  1.9182
 6572TIP3    H241352   3.710   1.116   0.610 -0.6942  0.0581  1.9837
 6573TIP3   OH241353   6.651   3.935   1.052  0.8001 -0.7212  0.0633
 6573TIP3    H141354   6.631   4.020   1.090  1.1936 -1.5312  2.2408
 6573TIP3    H241355   6.744   3.939   1.031  0.6073 -0.3133 -0.7775
 6574TIP3   OH241356   5.457   6.197   7.188  0.0575 -0.1404  0.2440
 6574TIP3    H141357   5.362   6.193   7.198 -0.0066  1.7346  0.6531
 6574TIP3    H241358   5.490   6.198   7.278  0.2943  1.6934  0.1773
 6575TIP3   OH241359   0.470   6.580   6.343 -0.6516 -0.7377 -0.0954
 6575TIP3    H141360   0.488   6.504   6.399 -1.2621  0.6352  2.0829
 6575TIP3    H241361   0.543   6.640   6.359 -1.7962  0.4874  0.8201
 6576TIP3   OH241362   0.996   1.355   1.443  0.5871  0.7992  0.1754
 6576TIP3    H141363   0.987   1.274   1.394 -0.6126  1.4440 -0.6976
 6576TIP3    H241364   0.914   1.363   1.493  1.1788  0.8953  1.1747
 6577TIP3   OH241365   1.065   1.141   7.357  0.0580 -0.2690  0.4881
 6577TIP3    H141366   1.155   1.168   7.338 -0.5566  1.3989 -0.2868
 6577TIP3    H241367   1.042   1.187   7.438 -0.9065  1.4352 -0.6890
 6578TIP3   OH241368   1.797   2.798   8.028  0.0929  0.0837  0.0246
 6578TIP3    H141369   1.771   2.730   8.090 -0.5829  0.6082  0.3315
 6578TIP3    H241370   1.784   2.759   7.942  1.7357 -0.9189  0.1783
 6579TIP3   OH241371   6.348   5.952   0.346 -0.1782  0.0982  0.1407
 6579TIP3    H141372   6.258   5.978   0.366 -0.3707  0.2339 -0.8752
 6579TIP3    H241373   6.363   5.875   0.401 -1.0579 -0.1839 -0.0034
 6580TIP3   OH241374   6.649   5.876   1.730 -0.0225  0.1983 -0.2522
 6580TIP3    H141375   6.652   5.886   1.825  0.0528  0.2888 -0.2639
 6580TIP3    H241376   6.610   5.957   1.698  0.4719  0.4108 -0.3381
 6581TIP3   OH241377   1.786   0.958   2.198 -0.2214  0.4811 -0.4470
 6581TIP3    H141378   1.870   1.003   2.187  0.3550 -0.0383  1.4635
 6581TIP3    H241379   1.720   1.025   2.181  0.6154  1.6177  0.6025
 6582TIP3   OH241380   6.259   2.349   8.187 -0.2281  0.0593  0.2817
 6582TIP3    H141381   6.341   2.322   8.147  0.0770  1.0700  0.2123
 6582TIP3    H241382   6.226   2.270   8.230  0.6732 -0.4016  0.1401
 6583TIP3   OH241383   5.174   3.820   7.501  0.3838  0.6526  0.1525
 6583TIP3    H141384   5.173   3.733   7.540  0.3242 -0.0142 -1.2864
 6583TIP3    H241385   5.157   3.879   7.574  3.7725 -0.2467  1.8766
 6584TIP3   OH241386   5.284   5.167   2.504  0.5155 -0.3039 -0.1297
 6584TIP3    H141387   5.203   5.148   2.550  1.0941  3.7475  3.1483
 6584TIP3    H241388   5.303   5.087   2.455 -3.7495 -2.5615  1.3766
 6585TIP3   OH241389   4.564   5.405   7.366 -0.1855 -0.1665 -0.3007
 6585TIP3    H141390   4.587   5.493   7.393  0.3983 -0.3163 -0.2899
 6585TIP3    H241391   4.499   5.417   7.297 -1.3732  0.2204  0.8499
 6586TIP3   OH241392   6.471   6.188   6.463  0.3300 -0.4031  0.2989
 6586TIP3    H141393   6.388   6.229   6.440  0.5385  0.3542  0.8704
 6586TIP3    H241394   6.471   6.106   6.414 -0.3831 -0.0280 -0.3512
 6587TIP3   OH241395   4.055   4.577   0.195  0.9760 -0.4377  0.1272
 6587TIP3    H141396   4.101   4.628   0.129  1.2817 -0.1899  0.5346
 6587TIP3    H241397   3.999   4.640   0.240  1.7547 -0.3464  0.9928
 6588TIP3   OH241398   2.679   1.895   8.439 -0.0300  0.2702  0.5319
 6588TIP3    H141399   2.680   1.941   8.524  0.5431 -1.2787  1.3898
 6588TIP3    H241400   2.752   1.834   8.444 -0.5635 -0.4925 -0.7201
 6589TIP3   OH241401   0.330   1.883   1.794 -0.5707  0.5439 -0.1633
 6589TIP3    H141402   0.393   1.953   1.813 -2.1418  2.4005 -1.4639
 6589TIP3    H241403   0.375   1.803   1.822  1.6273  1.9527  0.6285
 6590TIP3   OH241404   5.003   1.212   6.963  0.2649 -0.0776 -0.0535
 6590TIP3    H141405   5.000   1.304   6.935 -1.7959  0.5723  2.0106
 6590TIP3    H241406   5.013   1.217   7.058 -0.4037 -1.9748  0.1501
 6591TIP3   OH241407   3.526   5.908   7.846 -0.3784 -0.3660  0.5035
 6591TIP3    H141408   3.468   5.858   7.789 -0.0524  0.5830 -0.7123
 6591TIP3    H241409   3.599   5.934   7.789 -0.5007  1.4072  1.1003
 6592TIP3   OH241410   3.991   0.710   1.240  0.0960  1.1134  0.0097
 6592TIP3    H141411   3.959   0.673   1.157  1.2584 -0.8488  0.3781
 6592TIP3    H241412   4.034   0.792   1.214  1.2731  0.0800 -1.4954
 6593TIP3   OH241413   1.961   6.602   8.259 -0.7412  0.8055 -0.4404
 6593TIP3    H141414   1.930   6.532   8.200 -1.8753  1.6296 -0.8520
 6593TIP3    H241415   1.904   6.676   8.240  0.2386  1.7593  0.2208
 6594TIP3   OH241416   0.385   6.220   7.019  0.4439  0.0113 -0.7567
 6594TIP3    H141417   0.341   6.293   6.976 -0.8402  0.0536  0.5200
 6594TIP3    H241418   0.465   6.206   6.969  0.4781  1.9598 -1.3243
 6595TIP3   OH241419   4.078   0.614   8.303  0.3352  0.7265 -0.0075
 6595TIP3    H141420   3.982   0.613   8.311  0.0989  0.5840 -2.1558
 6595TIP3    H241421   4.109   0.575   8.385 -1.4955 -0.3791  0.2272
 6596TIP3   OH241422   0.833   5.284   8.119  0.0854  0.0679  0.1223
 6596TIP3    H141423   0.799   5.315   8.203 -1.2788  1.0915 -0.7522
 6596TIP3    H241424   0.757   5.287   8.060  1.5567  2.0963 -1.8456
 6597TIP3   OH241425   1.987   3.755   7.660  0.8843  0.3549 -0.0094
 6597TIP3    H141426   1.910   3.704   7.686 -1.0033  2.7878 -0.4682
 6597TIP3    H241427   2.016   3.715   7.578 -0.5792  0.0596 -0.4041
 6598TIP3   OH241428   2.063   5.693   1.263  0.1342  0.3167  0.2814
 6598TIP3    H141429   2.102   5.605   1.272  0.1398  0.0329 -1.8943
 6598TIP3    H241430   2.015   5.706   1.344  2.3162 -0.5631  1.8304
 6599TIP3   OH241431   5.048   6.296   8.252  0.0672  0.2387  0.0037
 6599TIP3    H141432   4.960   6.331   8.241 -0.0624 -0.1607 -0.2917
 6599TIP3    H241433   5.060   6.238   8.176  1.1584  1.4535 -0.8046
 6600TIP3   OH241434   2.958   3.601   0.169 -0.3433  0.6999 -0.7505
 6600TIP3    H141435   3.002   3.516   0.167 -1.3772  0.1001  0.4058
 6600TIP3    H241436   2.953   3.628   0.078 -0.1449 -0.5665 -1.1540
 6601TIP3   OH241437   0.056   1.861   0.877  0.3072 -0.1028  0.7625
 6601TIP3    H141438   0.016   1.820   0.800 -1.2166  1.0574  0.8784
 6601TIP3    H241439   0.012   1.820   0.951 -1.0784  1.4998  0.8840
 6602TIP3   OH241440   0.388   2.657   7.583 -0.4228 -0.3141  0.2134
 6602TIP3    H141441   0.296   2.679   7.597 -0.9686 -2.6518  0.7552
 6602TIP3    H241442   0.432   2.682   7.665 -0.8967 -0.6637  0.5798
 6603TIP3   OH241443   4.563   2.025   7.261  0.5151  0.3525  0.1922
 6603TIP3    H141444   4.578   2.091   7.194  0.2592 -0.1193 -0.3361
 6603TIP3    H241445   4.475   2.044   7.294  0.6688  0.6278  0.4482
 6604TIP3   OH241446   0.863   4.125   1.610  0.2724  0.2553  0.2880
 6604TIP3    H141447   0.831   4.193   1.552 -1.4502 -0.0291  0.8485
 6604TIP3    H241448   0.788   4.103   1.666  1.1944 -1.0875  1.0730
 6605TIP3   OH241449   4.461   5.081   8.836 -0.7871  0.0950 -0.4150
 6605TIP3    H141450   4.472   5.025   8.912 -0.5600  0.4672 -0.1689
 6605TIP3    H241451   4.546   5.125   8.826 -1.5513  1.9160  0.6114
 6606TIP3   OH241452   0.116   5.835   8.908 -0.1182 -0.4413 -0.5317
 6606TIP3    H141453   0.074   5.881   8.981 -0.7364  0.6484 -1.5481
 6606TIP3    H241454   0.205   5.870   8.907 -0.7188  1.1662 -1.5988
 6607TIP3   OH241455   2.701   4.778   8.287  0.6061  0.5865 -0.1980
 6607TIP3    H141456   2.743   4.744   8.366  0.4258 -0.7036 -0.6449
 6607TIP3    H241457   2.773   4.817   8.237  0.5172  2.7725  1.2377
 6608TIP3   OH241458   0.276   1.203   8.143  0.2339  0.3271  0.1612
 6608TIP3    H141459   0.212   1.180   8.210  0.1518  0.3762  0.0995
 6608TIP3    H241460   0.309   1.289   8.169  0.3895  0.2308  0.2799
 6609TIP3   OH241461   6.594   6.684   6.923  0.4181 -0.4315 -0.1369
 6609TIP3    H141462   6.616   6.749   6.856 -0.5419  1.2613  1.1241
 6609TIP3    H241463   6.660   6.697   6.991 -0.2801 -0.1856  0.5000
 6610TIP3   OH241464   3.587   2.153   2.141  0.1401 -0.0158 -0.1297
 6610TIP3    H141465   3.587   2.059   2.158 -2.7709 -0.5843 -2.4923
 6610TIP3    H241466   3.501   2.182   2.171  0.6987  1.7838 -0.1567
 6611TIP3   OH241467   6.736   4.090   8.463 -0.3186 -0.2634 -0.4887
 6611TIP3    H141468   6.745   4.004   8.422 -0.8645 -0.5879  0.0504
 6611TIP3    H241469   6.644   4.114   8.450 -0.9228 -1.0458  1.7593
 6612TIP3   OH241470   0.864   3.357   7.792  0.2149 -0.2304  0.3952
 6612TIP3    H141471   0.882   3.442   7.753 -1.3878 -0.0298  0.0528
 6612TIP3    H241472   0.850   3.376   7.885  3.3338 -0.6211  1.0623
 6613TIP3   OH241473   2.108   1.541   1.163 -0.1068 -0.7570  0.6317
 6613TIP3    H141474   2.016   1.568   1.153  0.6167  1.2263 -1.5242
 6613TIP3    H241475   2.146   1.607   1.220  0.1852 -1.1039  0.8449
 6614TIP3   OH241476   2.914   1.095   7.702 -0.0612 -0.1887  0.1353
 6614TIP3    H141477   2.900   1.171   7.758 -3.1072  0.0178 -0.7378
 6614TIP3    H241478   2.984   1.121   7.643 -0.6085  1.7187  0.2761
 6615TIP3   OH241479   0.441   0.969   7.470 -0.4383  0.4663 -0.1220
 6615TIP3    H141480   0.495   1.000   7.543 -1.9353 -0.3623  1.4198
 6615TIP3    H241481   0.352   0.971   7.504 -1.2648  0.6482 -2.1841
 6616TIP3   OH241482   0.311   6.680   0.269 -0.2580  0.0892 -0.2349
 6616TIP3    H141483   0.340   6.754   0.216  0.1487  1.1200  1.3240
 6616TIP3    H241484   0.258   6.626   0.211 -0.7016  1.7020 -1.3669
 6617TIP3   OH241485   3.704   5.952   7.287 -0.6779  0.3587  0.1881
 6617TIP3    H141486   3.691   6.033   7.335 -1.1487  0.0334  0.6161
 6617TIP3    H241487   3.701   5.978   7.195  0.5796  1.0413  0.3143
 6618TIP3   OH241488   0.727   1.945   8.231 -0.0699 -0.1570 -0.6154
 6618TIP3    H141489   0.717   2.009   8.161  0.7195 -1.0415 -1.5695
 6618TIP3    H241490   0.765   1.994   8.304 -0.0955  0.5940 -1.1008
 6619TIP3   OH241491   4.438   4.866   0.168  0.1425  0.1084 -0.1443
 6619TIP3    H141492   4.480   4.892   0.250 -0.7769  1.1980  0.0134
 6619TIP3    H241493   4.351   4.908   0.171 -0.2275 -0.5231 -1.2960
 6620TIP3   OH241494   1.176   3.480   7.777 -0.1009  0.0805 -0.4441
 6620TIP3    H141495   1.254   3.448   7.731  0.7195  1.9719 -0.4541
 6620TIP3    H241496   1.109   3.486   7.709 -0.8031 -2.9232 -0.1910
 6621TIP3   OH241497   4.848   4.212   7.183 -0.0185  0.4325  0.1091
 6621TIP3    H141498   4.928   4.263   7.177  0.1564  0.2030  0.4740
 6621TIP3    H241499   4.860   4.158   7.261  0.1294 -0.7433 -0.7147
 6622TIP3   OH241500   5.281   0.370   0.772 -0.4904  0.1626 -0.1975
 6622TIP3    H141501   5.290   0.445   0.713  1.7488  1.6766  1.8605
 6622TIP3    H241502   5.299   0.294   0.718  3.3234  1.5847 -1.2473
 6623TIP3   OH241503   2.499   5.074   0.037  0.2337 -0.2158  0.5223
 6623TIP3    H141504   2.558   5.125  -0.019 -0.1941 -1.6727 -1.3350
 6623TIP3    H241505   2.449   5.020  -0.023 -1.7973 -0.3175  2.1750
 6624TIP3   OH241506   3.698   6.047   7.659 -0.2320 -0.1325  0.0521
 6624TIP3    H141507   3.699   6.114   7.728 -1.9642  0.6045 -0.5614
 6624TIP3    H241508   3.694   6.097   7.578 -1.3478 -0.9682 -0.4277
 6625TIP3   OH241509   3.333   1.268   8.187  0.5344  0.3147 -0.0953
 6625TIP3    H141510   3.362   1.204   8.123 -3.5578 -1.2642 -0.6381
 6625TIP3    H241511   3.375   1.240   8.269  0.6370 -1.6849 -0.7784
 6626TIP3   OH241512   5.237   2.033   0.290 -0.0782 -0.1808  0.1204
 6626TIP3    H141513   5.153   2.043   0.335  0.6831  3.1412  1.1011
 6626TIP3    H241514   5.295   2.096   0.334  2.4947 -1.2099 -1.5564
 6627TIP3   OH241515   3.803   6.060   0.950 -0.0959  0.2156 -0.2247
 6627TIP3    H141516   3.861   6.049   1.026 -0.3899 -1.4507 -0.2136
 6627TIP3    H241517   3.852   6.022   0.877 -0.3326  0.6863 -0.6349
 6628TIP3   OH241518   0.142   6.678   1.172  0.4160  0.0207  0.2484
 6628TIP3    H141519   0.144   6.615   1.244 -1.2353 -0.1029  0.2068
 6628TIP3    H241520   0.113   6.760   1.211  1.1766  0.4131  0.0244
 6629TIP3   OH241521   6.618   0.662   7.739  0.2051  0.1763  0.0577
 6629TIP3    H141522   6.654   0.681   7.826  0.8288 -0.6062 -0.0263
 6629TIP3    H241523   6.660   0.726   7.682  0.8416 -0.1996  0.1001
 6630TIP3   OH241524   5.618   5.442   8.616 -0.4457  1.2406  0.7556
 6630TIP3    H141525   5.631   5.533   8.640 -1.9515  1.6812 -0.0030
 6630TIP3    H241526   5.633   5.439   8.521  2.3313  0.1213  1.1057
 6631TIP3   OH241527   5.411   1.108   7.364 -0.5147  0.0824 -0.7068
 6631TIP3    H141528   5.487   1.059   7.332 -1.1743 -2.1375  0.8929
 6631TIP3    H241529   5.431   1.128   7.455 -1.4789  0.2566 -0.5207
 6632TIP3   OH241530   0.604   2.243   8.391 -0.5587  0.3086  0.0231
 6632TIP3    H141531   0.619   2.181   8.462 -0.8557  1.9186  1.5757
 6632TIP3    H241532   0.577   2.324   8.435 -4.1335  0.4827 -2.0407
 6633TIP3   OH241533   0.292   2.019   0.339  0.0578  0.3956 -0.4716
 6633TIP3    H141534   0.243   2.093   0.304  3.1619  2.6142 -0.5822
 6633TIP3    H241535   0.281   1.949   0.275 -3.0939  0.5642 -0.2926
 6634TIP3   OH241536   4.598   5.298   7.657  0.2760 -0.1363  0.0453
 6634TIP3    H141537   4.568   5.294   7.747  1.4216 -0.9346  0.4235
 6634TIP3    H241538   4.679   5.350   7.661  0.1874  0.0597 -0.5690
 6635TIP3   OH241539   2.157   0.788   2.667 -0.4028 -0.4196  0.0423
 6635TIP3    H141540   2.084   0.770   2.608  0.7944 -2.0032 -1.0492
 6635TIP3    H241541   2.205   0.705   2.671  1.8423  0.8118  0.0032
 6636TIP3   OH241542   5.823   5.619   2.233  0.3548  0.4550  0.5554
 6636TIP3    H141543   5.771   5.671   2.172  0.6994  1.0251  0.7366
 6636TIP3    H241544   5.764   5.550   2.263 -0.5012  1.4672  1.2554
 6637TIP3   OH241545   3.241   1.668   7.426  0.3427  0.2533  0.2622
 6637TIP3    H141546   3.208   1.589   7.470  1.0019 -1.4788 -2.1801
 6637TIP3    H241547   3.336   1.661   7.432  0.4157  0.4939 -0.5761
 6638TIP3   OH241548   5.873   5.411   7.835  0.2634  0.7829  0.6630
 6638TIP3    H141549   5.966   5.413   7.856  0.5567  0.9225 -0.5782
 6638TIP3    H241550   5.839   5.335   7.881  0.9302  0.9022  1.3643
 6639TIP3   OH241551   0.778   4.803   8.233  0.4194  0.3669 -0.1507
 6639TIP3    H141552   0.818   4.840   8.154 -0.4403  1.0058 -0.3037
 6639TIP3    H241553   0.714   4.740   8.200  1.5879 -1.0030  0.1010
 6640TIP3   OH241554   0.869   1.483   8.260  0.5225  0.2122  0.1121
 6640TIP3    H141555   0.953   1.441   8.242  0.3324  0.0197 -0.3576
 6640TIP3    H241556   0.887   1.576   8.251  0.1606  0.1067 -2.4966
 6641TIP3   OH241557   5.103   3.964   7.248  0.3146  0.3169 -0.1393
 6641TIP3    H141558   5.113   3.917   7.331 -0.4183  0.4509  0.0227
 6641TIP3    H241559   5.034   4.028   7.263 -1.7654 -1.4521 -1.6311
 6642TIP3   OH241560   1.005   3.531   7.564  0.0310 -0.1158 -0.4383
 6642TIP3    H141561   0.943   3.602   7.549 -0.0800 -0.3372 -1.0530
 6642TIP3    H241562   1.065   3.535   7.490  0.0130 -0.6718 -0.4901
 6643TIP3   OH241563   5.608   0.350   8.556  0.1382  0.2253 -0.2384
 6643TIP3    H141564   5.641   0.328   8.643 -0.6967 -0.1444 -0.0014
 6643TIP3    H241565   5.660   0.297   8.496 -0.2162 -0.5970  0.1518
 6644TIP3   OH241566   5.651   2.549   7.610 -0.1180  0.5527 -0.2214
 6644TIP3    H141567   5.558   2.545   7.632 -0.2013 -2.7356 -0.6183
 6644TIP3    H241568   5.654   2.531   7.516  0.8998  1.5148 -0.3860
 6645TIP3   OH241569   0.396   2.710   7.858 -0.0231  0.1130  0.2814
 6645TIP3    H141570   0.370   2.798   7.884  1.2448  0.8960 -0.9368
 6645TIP3    H241571   0.315   2.659   7.859 -1.2050  1.8511 -1.1979
 6646TIP3   OH241572   6.415   5.576   0.178 -0.2382 -0.3791 -0.4814
 6646TIP3    H141573   6.447   5.664   0.159  0.6694 -0.0312  2.2808
 6646TIP3    H241574   6.323   5.579   0.152 -0.2296  1.3957 -0.4538
 6647TIP3   OH241575   0.280   5.124   1.509 -0.1447  0.4401 -0.0435
 6647TIP3    H141576   0.277   5.105   1.603  0.6970  0.8853  0.0824
 6647TIP3    H241577   0.240   5.211   1.501  0.7506  0.8734  0.0505
 6648TIP3   OH241578   4.495   1.657   8.245  0.3903 -0.7152 -0.0805
 6648TIP3    H141579   4.472   1.564   8.237  1.5845 -1.1200  0.8236
 6648TIP3    H241580   4.415   1.699   8.278 -0.5046 -1.2082 -1.5452
 6649TIP3   OH241581   1.374   6.268   6.714  0.0728 -0.9349  0.8611
 6649TIP3    H141582   1.310   6.287   6.646 -0.3648 -0.6358  1.3503
 6649TIP3    H241583   1.449   6.324   6.693 -0.5900  0.1792  1.3848
 6650TIP3   OH241584   1.168   5.526   8.680  0.1518  0.3494  0.4015
 6650TIP3    H141585   1.148   5.435   8.701 -1.1334  0.3826 -0.5352
 6650TIP3    H241586   1.262   5.528   8.666  0.3023 -0.6647  1.1986
 6651TIP3   OH241587   1.704   4.432   1.102  0.7080  0.0491  0.0730
 6651TIP3    H141588   1.666   4.511   1.141  1.2673 -0.0908  0.9334
 6651TIP3    H241589   1.781   4.464   1.053  0.8997  0.0487  0.3718
 6652TIP3   OH241590   0.480   1.415   2.073  0.1179 -0.2258 -0.5497
 6652TIP3    H141591   0.497   1.339   2.018  2.0461 -1.2259  1.2604
 6652TIP3    H241592   0.385   1.419   2.081 -0.0404 -2.5670 -0.5913
 6653TIP3   OH241593   0.299   2.628   8.643 -0.3486 -0.7283 -0.5042
 6653TIP3    H141594   0.390   2.631   8.671  0.6526  0.6038 -3.4159
 6653TIP3    H241595   0.263   2.713   8.668 -0.7710 -1.1961  0.5106
 6654TIP3   OH241596   3.904   2.144   8.642 -0.2471 -0.4517 -0.6023
 6654TIP3    H141597   3.956   2.177   8.714 -1.7755 -0.9241  0.7907
 6654TIP3    H241598   3.834   2.209   8.631  0.6201  0.2245 -2.4859
 6655TIP3   OH241599   1.545   2.382   1.875  0.1988 -0.1710  0.2062
 6655TIP3    H141600   1.510   2.395   1.787 -0.3727 -1.0312  0.2878
 6655TIP3    H241601   1.493   2.442   1.930 -0.7191 -0.9505  0.2206
 6656TIP3   OH241602   3.274   0.363   1.792  0.3511 -0.4649  0.0969
 6656TIP3    H141603   3.253   0.415   1.869  2.8011 -0.7028  1.0084
 6656TIP3    H241604   3.325   0.422   1.736  0.1229 -0.8361 -0.5120
 6657TIP3   OH241605   6.524   1.019   1.527 -0.4544 -0.6440  0.1980
 6657TIP3    H141606   6.606   0.982   1.496 -1.3937 -1.3657 -1.5263
 6657TIP3    H241607   6.474   1.037   1.448 -2.1448 -0.6470  1.2215
 6658TIP3   OH241608   4.859   5.233   0.881  0.1455 -0.2257 -0.1333
 6658TIP3    H141609   4.839   5.142   0.903  0.9191 -0.3953 -0.1004
 6658TIP3    H241610   4.894   5.270   0.962  2.5926 -0.7302 -0.8642
 6659TIP3   OH241611   2.399   4.294   0.311 -0.2790 -0.7153  0.0561
 6659TIP3    H141612   2.418   4.331   0.225  1.2607 -1.8251 -0.1144
 6659TIP3    H241613   2.409   4.367   0.371 -2.6057  0.3949 -0.7552
 6660TIP3   OH241614   6.568   2.697   1.528  0.1151  0.6499 -0.6265
 6660TIP3    H141615   6.499   2.670   1.467 -1.7993  2.5576  0.5246
 6660TIP3    H241616   6.608   2.616   1.558 -0.5311 -0.4310 -2.5652
 6661TIP3   OH241617   5.067   4.784   8.831  0.0000  0.1815  0.4042
 6661TIP3    H141618   4.997   4.808   8.770 -0.3697 -0.6733  0.4773
 6661TIP3    H241619   5.021   4.756   8.910  0.2113 -3.2378 -0.5070
 6662TIP3   OH241620   5.408   4.140   1.699  0.0347 -0.0359 -0.2347
 6662TIP3    H141621   5.412   4.078   1.626 -1.2419 -1.2691  0.6840
 6662TIP3    H241622   5.366   4.218   1.662 -0.6298 -0.6599 -0.8422
 6663TIP3   OH241623   3.384   5.742   0.771  0.5128  0.0635 -0.1331
 6663TIP3    H141624   3.463   5.778   0.730  1.0006  0.5967  1.2255
 6663TIP3    H241625   3.414   5.661   0.813  0.0672 -0.3618 -0.6231
 6664TIP3   OH241626   4.891   1.796   8.171  0.3151  0.1634 -0.2574
 6664TIP3    H141627   4.872   1.709   8.137 -1.1589  0.6644 -0.7562
 6664TIP3    H241628   4.826   1.853   8.131  0.0031  1.1799  1.5767
 6665TIP3   OH241629   4.228   0.125   2.136  0.4171  0.1451 -0.0517
 6665TIP3    H141630   4.229   0.080   2.221 -1.0063  0.4723  0.1599
 6665TIP3    H241631   4.187   0.063   2.077 -0.3232  0.6284 -0.0602
 6666TIP3   OH241632   1.396   5.620   8.607 -0.4031 -0.6047 -0.0532
 6666TIP3    H141633   1.353   5.701   8.581 -1.9537 -1.6477 -0.9032
 6666TIP3    H241634   1.489   5.641   8.608 -0.8660  1.7984  2.0444
 6667TIP3   OH241635   1.118   1.863   8.756  0.3635  0.1545 -0.3016
 6667TIP3    H141636   1.051   1.809   8.715  1.4003 -0.3185 -1.4502
 6667TIP3    H241637   1.107   1.848   8.850  1.4568 -3.2306 -0.5610
 6668TIP3   OH241638   1.318   2.757   7.692 -0.1600 -0.3665 -0.2557
 6668TIP3    H141639   1.334   2.849   7.709 -0.6857 -0.1744 -0.7893
 6668TIP3    H241640   1.228   2.742   7.723 -0.2644 -0.5730 -0.6465
 6669TIP3   OH241641   5.876   3.560   0.949 -0.1284 -0.1049  0.1045
 6669TIP3    H141642   5.845   3.517   0.869 -1.4620 -0.1417  0.6062
 6669TIP3    H241643   5.804   3.617   0.974 -0.3760 -1.2066  2.0809
 6670TIP3   OH241644   0.126   0.510   1.680 -0.0623 -0.2477  0.0906
 6670TIP3    H141645   0.118   0.598   1.642  0.1117 -0.3037 -0.0728
 6670TIP3    H241646   0.063   0.457   1.632 -0.0088 -0.2649  0.0402
 6671TIP3   OH241647   6.209   0.165   0.179 -0.6556 -0.4455 -0.3377
 6671TIP3    H141648   6.247   0.161   0.267  2.4590  1.8705 -1.4094
 6671TIP3    H241649   6.168   0.252   0.175 -1.9712 -1.0624 -0.7979
 6672TIP3   OH241650   5.272   5.262   8.301 -0.4580  0.1630  0.0212
 6672TIP3    H141651   5.249   5.298   8.215 -0.2255  0.1402 -0.0539
 6672TIP3    H241652   5.224   5.315   8.364  0.1203  0.8142 -0.0715
 6673TIP3   OH241653   0.117   1.644   1.281 -0.1630  0.0856 -0.3544
 6673TIP3    H141654   0.078   1.635   1.369  0.6866 -0.8598 -0.0633
 6673TIP3    H241655   0.200   1.598   1.287 -0.2470 -0.2714 -1.7723
 6674TIP3   OH241656   6.287   3.560   0.654  0.3618  0.3569  0.4204
 6674TIP3    H141657   6.294   3.507   0.733 -0.3383  0.4626  0.5657
 6674TIP3    H241658   6.237   3.637   0.682  0.4725  0.5972 -0.0298
 6675TIP3   OH241659   0.421   2.385   8.797 -0.0350 -0.1154 -0.1385
 6675TIP3    H141660   0.474   2.337   8.860 -0.1258  0.9075  0.7388
 6675TIP3    H241661   0.344   2.412   8.846 -0.1301  0.6562 -0.7041
 6676TIP3   OH241662   5.840   6.526   7.771  0.3424  0.4765  0.3452
 6676TIP3    H141663   5.758   6.548   7.726 -0.3655 -1.5934  0.4923
 6676TIP3    H241664   5.848   6.593   7.839 -1.7326  0.2302  0.9122
 6677TIP3   OH241665   5.203   2.571   2.269  0.2275  0.2660  0.3527
 6677TIP3    H141666   5.209   2.597   2.361  0.6261 -0.7189  0.6178
 6677TIP3    H241667   5.124   2.518   2.264 -0.8084  1.8022 -0.2696
 6678TIP3   OH241668   5.232   5.277   1.383  0.4796  0.8688  0.2465
 6678TIP3    H141669   5.229   5.299   1.290  1.3123  0.3125  0.0797
 6678TIP3    H241670   5.142   5.253   1.405  1.0386 -4.1001 -1.6879
 6679TIP3   OH241671   2.348   3.942   7.709 -0.2024 -0.2850 -0.2613
 6679TIP3    H141672   2.360   3.955   7.615 -0.0290  2.2500  0.0363
 6679TIP3    H241673   2.266   3.894   7.716  0.5834 -1.9364 -1.7298
 6680TIP3   OH241674   5.657   2.914   0.730 -0.1925  0.2222  0.2265
 6680TIP3    H141675   5.634   2.902   0.638 -1.5883 -0.3518  0.6234
 6680TIP3    H241676   5.753   2.923   0.730  0.0239 -1.5127 -1.1044
 6681TIP3   OH241677   4.126   4.647   6.324  0.2825 -0.3937 -0.0166
 6681TIP3    H141678   4.146   4.693   6.405 -2.0664 -1.1658  1.0829
 6681TIP3    H241679   4.050   4.694   6.287  0.3953 -0.9436 -0.9937
 6682TIP3   OH241680   5.442   1.012   2.012  0.4049 -0.1059 -0.3078
 6682TIP3    H141681   5.501   0.937   2.010 -0.3572 -0.7225 -2.3007
 6682TIP3    H241682   5.358   0.977   1.982  0.0533  1.5222 -1.3565
 6683TIP3   OH241683   1.343   4.887   0.630  0.1447 -0.8060  0.1731
 6683TIP3    H141684   1.357   4.793   0.638  0.0537 -0.7055  1.9429
 6683TIP3    H241685   1.249   4.897   0.619  0.2013 -0.9415 -0.4318
 6684TIP3   OH241686   6.595   1.033   2.029 -0.7966  0.5006  0.1655
 6684TIP3    H141687   6.657   1.057   2.098 -0.0814 -1.6256  0.3348
 6684TIP3    H241688   6.509   1.054   2.066 -0.3763  0.1016  1.4164
 6685TIP3   OH241689   0.391   2.062   6.828 -0.6915 -0.2946 -0.0562
 6685TIP3    H141690   0.434   1.996   6.882 -0.3236 -0.8533 -1.0075
 6685TIP3    H241691   0.331   2.107   6.888  1.4637  0.7854  1.4228
 6686TIP3   OH241692   2.596   2.843   1.097 -0.4183 -0.1762 -0.0977
 6686TIP3    H141693   2.507   2.854   1.131 -0.6604 -2.0069 -0.0428
 6686TIP3    H241694   2.649   2.826   1.174 -0.3710 -0.9645 -0.2943
 6687TIP3   OH241695   5.326   4.342   0.453 -0.5170 -0.3792 -0.4972
 6687TIP3    H141696   5.295   4.388   0.531  0.4207 -1.7581  0.7368
 6687TIP3    H241697   5.329   4.409   0.385  1.8524  1.7294  1.4830
 6688TIP3   OH241698   6.566   6.401   1.597  0.2843  0.0439 -0.0213
 6688TIP3    H141699   6.660   6.416   1.601 -0.0078  1.8479  1.2060
 6688TIP3    H241700   6.528   6.487   1.580 -1.1111 -0.8930 -2.2113
 6689TIP3   OH241701   2.360   3.116   7.491 -0.4983 -0.8106  0.0995
 6689TIP3    H141702   2.324   3.188   7.438 -1.4091 -0.5812  1.0068
 6689TIP3    H241703   2.423   3.159   7.549  2.1215 -1.3338 -2.1501
 6690TIP3   OH241704   1.556   2.587   6.706 -0.3515  0.1182  0.1837
 6690TIP3    H141705   1.596   2.672   6.687  0.3628  0.0570  1.2808
 6690TIP3    H241706   1.617   2.523   6.669  1.4040 -0.0277  3.0085
 6691TIP3   OH241707   3.607   5.503   0.342 -0.5083 -0.1266 -0.0541
 6691TIP3    H141708   3.527   5.457   0.318 -0.7856 -0.1249  0.8436
 6691TIP3    H241709   3.672   5.473   0.278 -1.2952  0.1266 -0.9989
 6692TIP3   OH241710   4.911   5.442   8.343 -0.3783  0.2408 -0.7271
 6692TIP3    H141711   4.955   5.501   8.405  0.0365  0.7123 -1.4456
 6692TIP3    H241712   4.855   5.388   8.397  0.1645  0.4706  0.0900
 6693TIP3   OH241713   1.655   0.177   8.048 -0.4931  0.1108 -0.1528
 6693TIP3    H141714   1.564   0.176   8.078 -0.8192  1.4587 -0.9896
 6693TIP3    H241715   1.683   0.268   8.059  0.1545  0.1169 -1.5826
 6694TIP3   OH241716   2.420   0.186   0.252  0.0321  0.3470  0.1789
 6694TIP3    H141717   2.365   0.264   0.241 -0.9730 -0.4005 -0.3100
 6694TIP3    H241718   2.436   0.154   0.163  1.2303  0.5112  0.3178
 6695TIP3   OH241719   3.205   4.887   7.630 -0.8928 -0.1629 -0.4274
 6695TIP3    H141720   3.181   4.839   7.551  0.6412  0.2206 -1.1742
 6695TIP3    H241721   3.141   4.958   7.636 -0.4706  0.3686 -1.8808
 6696TIP3   OH241722   5.208   3.570   1.782  0.1065  0.5320  0.0148
 6696TIP3    H141723   5.201   3.504   1.713  1.0151 -0.4921  0.8776
 6696TIP3    H241724   5.302   3.586   1.791  0.0012  0.6835  0.9826
 6697TIP3   OH241725   5.775   1.082   0.913  0.1932  0.5541  0.5003
 6697TIP3    H141726   5.697   1.045   0.873  0.9927  0.2332 -0.8232
 6697TIP3    H241727   5.764   1.177   0.903  0.5846  0.4716 -0.9539
 6698TIP3   OH241728   0.511   3.389   7.347  0.3125 -0.1374 -0.5498
 6698TIP3    H141729   0.558   3.332   7.409 -1.7516 -1.3576  0.0066
 6698TIP3    H241730   0.450   3.437   7.402 -0.5928 -0.2120 -1.4789
 6699TIP3   OH241731   3.018   3.389   0.482  0.7379 -0.0398  0.5720
 6699TIP3    H141732   3.016   3.372   0.576 -2.2281  0.6137  0.7074
 6699TIP3    H241733   3.011   3.484   0.475 -0.8684 -0.1905 -0.2787
 6700TIP3   OH241734   1.920   1.721   6.682 -0.3597  0.9045 -0.5432
 6700TIP3    H141735   1.848   1.772   6.721 -0.0383  0.6096  0.4527
 6700TIP3    H241736   1.944   1.658   6.750  0.4456  0.6038 -1.1017
 6701TIP3   OH241737   0.370   3.617   8.410 -0.1016 -0.2364 -0.8143
 6701TIP3    H141738   0.357   3.680   8.481  0.3104  0.5826 -1.4489
 6701TIP3    H241739   0.306   3.548   8.428  0.2993 -0.2631  0.5887
 6702TIP3   OH241740   3.471   2.095   1.118  0.0929 -0.4309 -0.0480
 6702TIP3    H141741   3.516   2.117   1.036  1.0904 -0.7221  0.4065
 6702TIP3    H241742   3.390   2.052   1.089  1.0628 -1.7758 -0.8981
 6703TIP3   OH241743   1.763   2.597   1.578  0.1176  0.4208 -0.4586
 6703TIP3    H141744   1.757   2.689   1.601 -1.4660  0.5386 -1.2302
 6703TIP3    H241745   1.673   2.571   1.556  0.4092 -1.4684  0.3450
 6704TIP3   OH241746   0.666   0.216   7.093  0.1985 -0.1257  0.4236
 6704TIP3    H141747   0.682   0.216   7.188 -0.9622  0.9619  0.6531
 6704TIP3    H241748   0.689   0.305   7.066  1.5079 -0.7284 -0.5240
 6705TIP3   OH241749   1.081   3.277   2.073 -0.0782 -0.1272 -0.1262
 6705TIP3    H141750   0.992   3.281   2.109  0.1197  5.5721  0.5914
 6705TIP3    H241751   1.138   3.281   2.150  0.6442  0.6875 -0.6840
 6706TIP3   OH241752   5.321   4.831   1.757  0.0628 -0.2098  0.1112
 6706TIP3    H141753   5.260   4.850   1.828 -0.8782 -1.0633 -0.4444
 6706TIP3    H241754   5.280   4.759   1.708  0.5358  0.5596 -1.4792
 6707TIP3   OH241755   5.177   2.738   6.844  0.1844 -0.1539 -0.0847
 6707TIP3    H141756   5.224   2.765   6.923  0.4514  1.3553 -0.7277
 6707TIP3    H241757   5.127   2.815   6.819 -0.8921 -1.0317 -0.6867
 6708TIP3   OH241758   6.625   4.821   8.204  0.0705 -0.0545  0.6255
 6708TIP3    H141759   6.681   4.766   8.259 -0.5351  0.5209  1.8548
 6708TIP3    H241760   6.578   4.759   8.147 -0.0873 -0.7585  1.5056
 6709TIP3   OH241761   6.761   1.801   8.067 -0.5650  0.3983 -0.8065
 6709TIP3    H141762   6.699   1.730   8.050 -0.3896  0.2509 -0.8410
 6709TIP3    H241763   6.840   1.757   8.098 -0.2351  0.5236 -1.4289
 6710TIP3   OH241764   3.394   6.751   8.050 -0.0534  0.3293  0.2346
 6710TIP3    H141765   3.415   6.844   8.052 -0.7586  0.4828  1.0866
 6710TIP3    H241766   3.478   6.707   8.066  0.0167  0.8656  1.4365
 6711TIP3   OH241767   5.049   0.937   6.596  0.3217 -0.7137 -0.2230
 6711TIP3    H141768   5.037   0.933   6.691 -3.0857 -0.3805 -0.4957
 6711TIP3    H241769   5.033   1.029   6.574  0.2657 -0.9425 -1.1896
 6712TIP3   OH241770   2.100   0.055   0.775  0.4415 -0.7698 -0.2329
 6712TIP3    H141771   2.025   0.035   0.719  1.0982  0.3449 -1.5478
 6712TIP3    H241772   2.063   0.104   0.848 -0.0948 -0.1093 -0.9363
 6713TIP3   OH241773   0.666   5.602   8.546 -0.1402  0.5403  0.7203
 6713TIP3    H141774   0.610   5.611   8.624  0.0229  1.5441  0.7436
 6713TIP3    H241775   0.625   5.660   8.481  0.4397  0.6891  0.4860
 6714TIP3   OH241776   4.127   4.430   1.957  0.2582 -0.3917  0.5198
 6714TIP3    H141777   4.051   4.384   1.922 -0.1780 -0.8988  2.0359
 6714TIP3    H241778   4.097   4.519   1.972  0.9571  0.3116 -1.9523
 6715TIP3   OH241779   0.459   2.280   0.521 -0.2475  0.5386  0.1415
 6715TIP3    H141780   0.500   2.193   0.520  0.7389  1.0015 -0.5229
 6715TIP3    H241781   0.487   2.319   0.603  0.2411  0.6587 -0.0799
 6716TIP3   OH241782   2.331   1.217   7.954 -0.0112  0.1149  0.8865
 6716TIP3    H141783   2.253   1.176   7.918 -0.0693 -0.3531  1.5171
 6716TIP3    H241784   2.402   1.155   7.933  0.0514  0.1305  1.0530
 6717TIP3   OH241785   5.688   5.735   8.738 -0.2455  0.0537  0.0668
 6717TIP3    H141786   5.700   5.753   8.831  2.0638 -0.4697 -0.0724
 6717TIP3    H241787   5.690   5.821   8.696 -0.4598  0.2295  0.4116
 6718TIP3   OH241788   2.255   4.974   8.843 -0.1224 -0.5455 -0.1437
 6718TIP3    H141789   2.192   4.974   8.915 -0.7016  3.1369 -0.4863
 6718TIP3    H241790   2.202   4.981   8.764  0.6165 -1.9735 -0.8021
 6719TIP3   OH241791   2.985   5.000   6.378 -0.2123  0.2886  0.1585
 6719TIP3    H141792   3.034   5.050   6.313 -0.9484 -0.1988 -0.8198
 6719TIP3    H241793   2.925   5.063   6.417  1.3500  0.9538  1.5744
 6720TIP3   OH241794   5.017   3.096   1.434 -0.2490  0.3349 -0.5523
 6720TIP3    H141795   5.109   3.122   1.440 -0.6553  1.6811  0.3828
 6720TIP3    H241796   4.971   3.155   1.493 -1.7830 -0.0620 -1.2745
 6721TIP3   OH241797   3.961   4.567   0.691 -0.0013 -0.0406  0.0539
 6721TIP3    H141798   4.017   4.559   0.769  2.1464 -1.8918 -1.5628
 6721TIP3    H241799   3.936   4.477   0.670 -1.8686  0.5748 -0.5277
 6722TIP3   OH241800   2.530   3.201   6.578  0.2773  0.3303 -0.2503
 6722TIP3    H141801   2.570   3.134   6.522  0.8148  0.3022  0.1545
 6722TIP3    H241802   2.445   3.219   6.538  0.7989  0.5616 -1.2813
 6723TIP3   OH241803   4.629   2.004   0.693 -0.1460  0.6970 -0.2773
 6723TIP3    H141804   4.571   1.957   0.634  1.9560 -0.6298 -1.4252
 6723TIP3    H241805   4.608   1.970   0.780  0.1014 -1.1097 -0.8756
 6724TIP3   OH241806   4.881   6.189   1.723  0.6067 -0.2791  0.4736
 6724TIP3    H141807   4.854   6.199   1.815  1.3130  0.6606  0.5996
 6724TIP3    H241808   4.948   6.256   1.711 -1.2037  1.3101 -1.4236
 6725TIP3   OH241809   1.997   3.643   1.511 -0.3541 -0.1157 -0.3987
 6725TIP3    H141810   1.980   3.570   1.570  1.1654 -1.2696 -1.3256
 6725TIP3    H241811   2.052   3.703   1.562 -1.4481  0.3295  0.2987
 6726TIP3   OH241812   1.075   4.307   6.539  0.1859 -0.4787  0.0824
 6726TIP3    H141813   1.159   4.262   6.552 -0.1108 -0.8232  0.8589
 6726TIP3    H241814   1.024   4.247   6.485  0.5599 -0.1055 -0.7080
 6727TIP3   OH241815   1.839   0.971   8.199 -0.5809  0.4735 -0.0857
 6727TIP3    H141816   1.858   1.060   8.228 -3.3608  1.3705 -0.7452
 6727TIP3    H241817   1.808   0.980   8.109 -2.5471 -0.8651  0.3674
 6728TIP3   OH241818   1.944   6.220   8.725  0.3377 -0.0017  1.0089
 6728TIP3    H141819   1.947   6.316   8.721 -1.0813  0.0743  1.1220
 6728TIP3    H241820   1.909   6.202   8.813 -1.4203 -0.5318  0.2416
 6729TIP3   OH241821   3.064   4.041   8.657  0.1125 -0.2268 -0.5944
 6729TIP3    H141822   3.038   4.122   8.701  0.6022  0.0977 -0.8889
 6729TIP3    H241823   3.078   3.978   8.729  3.2783  0.9472  0.0077
 6730TIP3   OH241824   3.365   3.521   7.630 -0.3173  0.1012  0.0038
 6730TIP3    H141825   3.315   3.443   7.604  0.8843 -0.4294 -0.8164
 6730TIP3    H241826   3.456   3.494   7.621  0.1197  1.1586  1.1298
 6731TIP3   OH241827   6.600   1.834   6.459  0.0977  0.0026  0.2184
 6731TIP3    H141828   6.517   1.875   6.486  0.2293  0.2650  0.2280
 6731TIP3    H241829   6.575   1.770   6.393 -0.1193  0.0535  0.2505
 6732TIP3   OH241830   2.769   6.115   0.898 -0.0704 -0.2510  0.4344
 6732TIP3    H141831   2.850   6.151   0.861 -0.1069  1.4926  1.9253
 6732TIP3    H241832   2.752   6.168   0.976 -3.2157  0.0895 -0.3633
 6733TIP3   OH241833   0.052   3.010   2.644  0.0287  0.3127 -0.1278
 6733TIP3    H141834   0.048   2.921   2.678 -0.2184  0.2318 -0.3639
 6733TIP3    H241835  -0.008   3.010   2.569 -4.3792  2.0130  2.9102
 6734TIP3   OH241836   3.916   2.187   7.957  0.0673 -0.3504  0.3042
 6734TIP3    H141837   3.834   2.161   7.999  0.0617  1.6389  1.6136
 6734TIP3    H241838   3.979   2.192   8.029  0.7979  0.3006 -0.3680
 6735TIP3   OH241839   3.418   6.090   2.278  0.3459 -0.2603 -0.9067
 6735TIP3    H141840   3.325   6.069   2.278  0.1674  0.5069 -1.1398
 6735TIP3    H241841   3.438   6.109   2.369  0.3858 -0.8932 -0.7809
 6736TIP3   OH241842   1.656   1.230   1.634 -0.0888  0.1622  0.0707
 6736TIP3    H141843   1.588   1.193   1.691  1.8127 -0.6577  1.9449
 6736TIP3    H241844   1.655   1.173   1.557 -1.6651  0.3229 -0.0593
 6737TIP3   OH241845   3.377   3.879   7.957 -0.1519 -0.4086  0.3440
 6737TIP3    H141846   3.376   3.939   8.032 -1.2371  1.1929 -0.8739
 6737TIP3    H241847   3.348   3.795   7.993  0.3347  0.0621  1.8922
 6738TIP3   OH241848   0.559   2.611   1.307 -0.4283  0.3313 -0.2246
 6738TIP3    H141849   0.490   2.559   1.349  1.0620  0.3156  2.3813
 6738TIP3    H241850   0.591   2.668   1.376 -0.1381  2.8343 -2.2952
 6739TIP3   OH241851   6.479   5.246   0.105 -0.1931  0.6350 -0.3488
 6739TIP3    H141852   6.470   5.242   0.200  0.5436  1.5846 -0.2237
 6739TIP3    H241853   6.393   5.219   0.072  0.1500 -1.7824  0.5021
 6740TIP3   OH241854   4.284   3.157   8.214  1.0376 -0.4518 -0.0674
 6740TIP3    H141855   4.360   3.214   8.197  0.4610  0.1646 -0.6546
 6740TIP3    H241856   4.298   3.126   8.304  0.5561  1.9637  0.9470
 6741TIP3   OH241857   4.849   1.106   1.144 -0.3494 -0.1012  0.0019
 6741TIP3    H141858   4.764   1.140   1.171  0.2616  0.9407  0.7386
 6741TIP3    H241859   4.907   1.182   1.149  0.5592 -0.7204 -0.7818
 6742TIP3   OH241860   0.381   5.407   1.002 -0.6835 -0.7851 -0.2172
 6742TIP3    H141861   0.456   5.457   0.969 -0.9186 -1.3770 -1.7733
 6742TIP3    H241862   0.394   5.319   0.966 -0.7555 -1.6310  1.6891
 6743TIP3   OH241863   5.451   1.020   1.092  0.8866 -0.0299 -0.1558
 6743TIP3    H141864   5.369   1.011   1.141 -0.3045 -0.6390 -2.1628
 6743TIP3    H241865   5.479   1.110   1.108 -1.2886  0.8833 -1.0455
 6744TIP3   OH241866   4.382   4.823   8.009  0.0105 -0.3163  0.5506
 6744TIP3    H141867   4.353   4.857   8.093 -0.2205  0.0534  0.3244
 6744TIP3    H241868   4.437   4.892   7.972 -1.8889  0.6291 -0.6987
 6745TIP3   OH241869   4.212   1.073   2.281 -0.3992 -0.3105 -0.1679
 6745TIP3    H141870   4.182   0.982   2.270  0.7441 -0.6953 -0.2151
 6745TIP3    H241871   4.133   1.121   2.306 -1.5041 -0.8946 -2.2749
 6746TIP3   OH241872   6.182   5.678   1.330 -0.1410  0.5644 -0.2259
 6746TIP3    H141873   6.129   5.753   1.305  0.3011  0.3366 -1.9418
 6746TIP3    H241874   6.260   5.716   1.371  0.3529  1.0925 -1.6050
 6747TIP3   OH241875   5.185   2.486   6.749 -0.3471  0.3697  0.0238
 6747TIP3    H141876   5.101   2.450   6.779 -1.3264  1.3034 -1.4606
 6747TIP3    H241877   5.191   2.571   6.792 -2.1094  2.0480 -2.6756
 6748TIP3   OH241878   5.777   1.122   1.888 -1.1083 -0.3611  0.1945
 6748TIP3    H141879   5.758   1.030   1.870  0.6191 -0.6229 -0.3779
 6748TIP3    H241880   5.772   1.129   1.984 -0.2102 -1.2933  0.3194
 6749TIP3   OH241881   3.462   0.074   1.230  0.2653 -0.4265 -0.0233
 6749TIP3    H141882   3.400   0.005   1.254 -1.4228  1.1382  0.3727
 6749TIP3    H241883   3.436   0.149   1.285  0.7302  1.1321 -1.8406
 6750TIP3   OH241884   2.511   2.196   6.980 -0.0388 -0.9256 -0.4174
 6750TIP3    H141885   2.518   2.123   7.041  3.5573  0.9860  1.7944
 6750TIP3    H241886   2.479   2.268   7.032  0.1779  0.0302 -1.5536
 6751TIP3   OH241887   3.390   3.827   1.387  0.1703 -0.6439 -0.1879
 6751TIP3    H141888   3.410   3.914   1.420  1.8103 -1.1776  0.2991
 6751TIP3    H241889   3.329   3.843   1.315  0.1521  0.8687  0.1216
 6752TIP3   OH241890   6.767   1.573   2.456 -0.3696  0.0928  0.2760
 6752TIP3    H141891   6.824   1.525   2.516  1.7866  2.3842  0.1969
 6752TIP3    H241892   6.815   1.575   2.374 -1.9261 -0.3787 -0.6857
 6753TIP3   OH241893   1.946   0.420   1.331 -0.7791  0.1057 -0.0665
 6753TIP3    H141894   1.949   0.385   1.420 -1.2963  1.2678  0.4172
 6753TIP3    H241895   2.021   0.479   1.326  0.0079 -0.9184 -0.8362
 6754TIP3   OH241896   2.771   2.077   1.315 -0.3321 -0.1978  0.0610
 6754TIP3    H141897   2.747   2.108   1.227 -0.9083 -1.6063 -0.3064
 6754TIP3    H241898   2.727   1.993   1.323  2.9711 -2.0852  0.1065
 6755TIP3   OH241899   3.979   0.243   1.221 -0.8188  0.1198 -0.1253
 6755TIP3    H141900   4.040   0.275   1.154 -2.3591 -0.3611 -1.8435
 6755TIP3    H241901   3.964   0.318   1.278  0.3575  0.6150 -0.4482
 6756TIP3   OH241902   5.180   1.643   6.464 -0.0027 -0.6391  0.0882
 6756TIP3    H141903   5.126   1.567   6.439  0.1189 -0.7161  0.0537
 6756TIP3    H241904   5.239   1.655   6.389 -0.1138 -0.4258  0.0364
 6757TIP3   OH241905   1.522   3.910   6.945  0.0613  0.0088 -0.5920
 6757TIP3    H141906   1.497   3.885   7.034 -0.9809 -0.5393 -1.0173
 6757TIP3    H241907   1.616   3.893   6.941  0.1863  0.3785  0.5111
 6758TIP3   OH241908   0.755   5.572   2.098 -0.0870 -0.2330  1.1387
 6758TIP3    H141909   0.756   5.626   2.178 -0.3608 -0.6355  1.4189
 6758TIP3    H241910   0.723   5.487   2.127 -0.2438 -0.3684  0.5855
 6759TIP3   OH241911   3.564   6.333   6.658  0.1475 -0.5194 -0.6737
 6759TIP3    H141912   3.486   6.351   6.607  0.6086  0.8263 -0.9343
 6759TIP3    H241913   3.557   6.240   6.680 -2.0014 -0.2329  0.1332
 6760TIP3   OH241914   4.891   0.715   2.579  0.1303  0.1803 -0.3845
 6760TIP3    H141915   4.980   0.750   2.573  0.2408  0.3965  1.8674
 6760TIP3    H241916   4.903   0.620   2.580  0.5203  0.2101  1.4823
 6761TIP3   OH241917   3.882   4.143   7.103 -0.0076 -0.3982 -0.0089
 6761TIP3    H141918   3.858   4.122   7.013 -0.6623 -0.2911  0.1305
 6761TIP3    H241919   3.809   4.110   7.155  0.5655 -0.8440  0.5258
 6762TIP3   OH241920   3.066   0.247   1.641 -0.3490 -0.0684  0.6631
 6762TIP3    H141921   3.046   0.181   1.707 -2.8030  0.8334  0.9468
 6762TIP3    H241922   3.133   0.302   1.682 -1.0424 -0.1678  2.0136
 6763TIP3   OH241923   3.361   0.621   8.188 -0.7724 -0.5132  0.0725
 6763TIP3    H141924   3.284   0.568   8.205 -0.8894 -0.7295 -1.0345
 6763TIP3    H241925   3.327   0.703   8.152 -0.5265 -0.2626  0.4038
 6764TIP3   OH241926   1.510   1.661   8.751 -0.2690  0.1564  0.4013
 6764TIP3    H141927   1.491   1.682   8.843  0.5785  1.1205  0.3695
 6764TIP3    H241928   1.560   1.736   8.719  1.8669 -1.3638 -0.0623
 6765TIP3   OH241929   1.054   4.480   0.671  0.2157 -0.1147 -0.5500
 6765TIP3    H141930   0.970   4.493   0.714  0.1372 -0.1364 -0.6961
 6765TIP3    H241931   1.119   4.486   0.742  0.0579 -0.5859 -0.3588
 6766TIP3   OH241932   2.926   3.072   7.734 -0.0014 -0.4022  0.1963
 6766TIP3    H141933   2.929   3.032   7.647  0.1248 -0.7056  0.3395
 6766TIP3    H241934   2.862   3.020   7.782 -1.4119  0.8505 -0.2477
 6767TIP3   OH241935   5.134   2.175   7.821  0.0263  0.8032 -0.1960
 6767TIP3    H141936   5.200   2.112   7.850 -0.9714 -1.1762 -1.9781
 6767TIP3    H241937   5.159   2.197   7.731 -1.0028  1.0349 -0.4438
 6768TIP3   OH241938   2.177   3.600   0.917  0.2218  0.2634  0.3267
 6768TIP3    H141939   2.262   3.625   0.881  0.0662  0.0749 -0.1703
 6768TIP3    H241940   2.116   3.663   0.880  0.2009  0.6616  1.0146
 6769TIP3   OH241941   4.821   5.673   0.325  0.3486  0.0463 -0.1441
 6769TIP3    H141942   4.803   5.649   0.416  1.7971 -2.2073 -0.3967
 6769TIP3    H241943   4.915   5.660   0.314 -0.0025 -1.0986 -2.3318
 6770TIP3   OH241944   3.427   0.223   0.838 -0.3585 -0.0484  0.3278
 6770TIP3    H141945   3.405   0.286   0.907 -1.1489  0.0343  0.0087
 6770TIP3    H241946   3.483   0.159   0.882 -0.4514  0.2725  0.9311
 6771TIP3   OH241947   0.468   0.082   1.815  0.2786  0.1094  0.6989
 6771TIP3    H141948   0.555   0.120   1.829 -0.0526  0.6380  1.4047
 6771TIP3    H241949   0.478  -0.011   1.837  0.0017  0.7048  3.8273
 6772TIP3   OH241950   0.598   1.687   8.295  0.1935  0.7749  0.3352
 6772TIP3    H141951   0.537   1.761   8.299  0.0727  0.7548 -0.7609
 6772TIP3    H241952   0.621   1.680   8.202  2.5790  1.3490  0.8081
 6773TIP3   OH241953   1.523   0.826   6.953  0.0894  0.5560 -0.1160
 6773TIP3    H141954   1.438   0.824   6.997  0.1958  0.4113  0.0865
 6773TIP3    H241955   1.517   0.759   6.885 -0.2647  1.1490 -0.6836
 6774TIP3   OH241956   1.404   1.388   7.047 -0.7176  0.2728 -0.0975
 6774TIP3    H141957   1.498   1.399   7.055 -0.8528  1.1199  0.4883
 6774TIP3    H241958   1.380   1.439   6.970 -0.7075  0.1233 -0.1995
 6775TIP3   OH241959   4.550   3.325   1.360 -0.3568  0.5614 -0.4579
 6775TIP3    H141960   4.605   3.326   1.439  2.1916  0.2488 -2.1079
 6775TIP3    H241961   4.498   3.246   1.367 -1.4720  1.4001  1.6720
 6776TIP3   OH241962   1.251   5.074   0.361  0.0930 -0.1061  0.0920
 6776TIP3    H141963   1.217   5.115   0.281 -0.6268 -1.1596 -0.1706
 6776TIP3    H241964   1.339   5.111   0.372  0.1482  0.1564 -1.1081
 6777TIP3   OH241965   3.798   3.637   8.712 -0.1037 -0.1651 -0.3993
 6777TIP3    H141966   3.708   3.617   8.686 -0.5144  0.1159  0.7302
 6777TIP3    H241967   3.849   3.562   8.682 -1.0165 -1.1933  0.5365
 6778TIP3   OH241968   6.327   0.096   1.203  0.3983 -0.7141  0.0026
 6778TIP3    H141969   6.252   0.037   1.199  0.7020 -1.0562 -0.9105
 6778TIP3    H241970   6.364   0.095   1.114  0.4816  0.7693 -0.0047
 6779TIP3   OH241971   3.082   2.800   7.044 -0.1287 -0.1587  0.2272
 6779TIP3    H141972   3.013   2.734   7.045 -0.3873 -0.0482 -2.6696
 6779TIP3    H241973   3.163   2.751   7.053 -0.3993 -0.7057 -0.2879
 6780TIP3   OH241974   0.015   6.695   8.120 -0.0250  0.1351  0.4451
 6780TIP3    H141975   0.107   6.684   8.146  0.0749  0.9016  0.4347
 6780TIP3    H241976   0.011   6.663   8.030  0.0062 -0.8718  0.7929
 6781TIP3   OH241977   1.467   1.440   8.535  0.2889  0.0051 -0.2507
 6781TIP3    H141978   1.528   1.484   8.594 -1.6348  0.1773  1.7546
 6781TIP3    H241979   1.460   1.499   8.459  2.1582  0.2226 -0.2825
 6782TIP3   OH241980   0.896   5.557   8.790  0.3948  0.2368 -0.6111
 6782TIP3    H141981   0.950   5.562   8.711 -1.7193  0.9162 -2.1034
 6782TIP3    H241982   0.830   5.491   8.770 -0.8012  1.1536  0.1557
 6783TIP3   OH241983   1.023   1.053   1.634  0.4641  0.3195  0.2675
 6783TIP3    H141984   1.030   1.076   1.541 -0.9979  0.7145  0.2360
 6783TIP3    H241985   1.003   0.959   1.634 -2.0244  0.7803  0.0361
 6784TIP3   OH241986   5.321   4.243   7.759 -0.6297  0.1834 -1.0190
 6784TIP3    H141987   5.337   4.224   7.667  2.5694 -0.9196 -0.3465
 6784TIP3    H241988   5.385   4.310   7.782 -1.5122  0.6015  0.3917
 6785TIP3   OH241989   0.501   2.404   0.774  0.4920  0.6589 -0.0554
 6785TIP3    H141990   0.446   2.404   0.853  0.3893  1.8503 -0.1203
 6785TIP3    H241991   0.590   2.395   0.808  0.3425 -0.3777  0.0995
 6786TIP3   OH241992   3.948   0.904   7.351 -0.9300  0.3697 -0.1220
 6786TIP3    H141993   4.001   0.968   7.303 -0.5948 -1.1557 -1.9204
 6786TIP3    H241994   3.859   0.939   7.347 -0.5220  1.5079  0.3502
 6787TIP3   OH241995   6.472   4.466   0.676  0.4520 -0.6636  0.3706
 6787TIP3    H141996   6.459   4.395   0.613 -0.3326  0.4914 -0.8196
 6787TIP3    H241997   6.559   4.450   0.713  1.0259 -1.2543 -1.1716
 6788TIP3   OH241998   6.313   6.766   7.536 -0.0416 -0.0524  0.0623
 6788TIP3    H141999   6.380   6.833   7.524  1.0876 -0.9990  0.8074
 6788TIP3    H242000   6.278   6.749   7.448 -0.4655  1.5978 -0.1090
 6789TIP3   OH242001   5.036   5.413   1.861  0.1258 -0.9529 -0.1891
 6789TIP3    H142002   4.973   5.477   1.894  0.5223 -0.0512 -1.1036
 6789TIP3    H242003   5.107   5.414   1.925  0.1626 -0.4137 -0.2348
 6790TIP3   OH242004   2.360   4.829   8.630  0.7682  0.1608  0.0492
 6790TIP3    H142005   2.386   4.846   8.720  0.8486  0.1041  0.0367
 6790TIP3    H242006   2.268   4.801   8.637 -0.3978  3.5274 -0.2026
 6791TIP3   OH242007   3.891   0.655   0.137 -0.4578  0.3928  0.2115
 6791TIP3    H142008   3.926   0.618   0.057 -0.6971 -1.9469  1.1184
 6791TIP3    H242009   3.857   0.580   0.186  1.7498  1.3343  3.5742
 6792TIP3   OH242010   6.102   4.639   1.384  0.1174  0.4041 -0.4185
 6792TIP3    H142011   6.132   4.642   1.475 -0.2198 -0.7060 -0.2535
 6792TIP3    H242012   6.094   4.546   1.364 -0.3199  0.6378 -1.4199
 6793TIP3   OH242013   5.631   1.933   1.633 -0.1801  0.2996 -0.7510
 6793TIP3    H142014   5.685   2.001   1.675  0.0688  0.5059 -1.3989
 6793TIP3    H242015   5.541   1.955   1.658  0.1149 -1.1540  1.9825
 6794TIP3   OH242016   2.897   0.248   0.883  0.2647 -0.6387 -0.4265
 6794TIP3    H142017   2.924   0.161   0.912  0.3833 -1.5594 -3.0587
 6794TIP3    H242018   2.866   0.236   0.793 -1.2574  1.7843 -0.3282
 6795TIP3   OH242019   3.981   6.469   1.862 -0.0322 -0.5892  0.3308
 6795TIP3    H142020   3.926   6.515   1.925 -1.1306  0.3230 -1.2240
 6795TIP3    H242021   4.004   6.387   1.906 -0.7059  0.0297  1.9122
 6796TIP3   OH242022   3.159   0.073   0.728  0.3026  0.6109 -0.1338
 6796TIP3    H142023   3.157   0.160   0.769 -1.1191  0.3575  0.3897
 6796TIP3    H242024   3.160   0.091   0.634  2.0640  1.1903 -0.0354
 6797TIP3   OH242025   4.968   3.299   2.522  0.1168 -0.1189  0.4293
 6797TIP3    H142026   4.876   3.302   2.548 -0.0482 -1.7229  0.1367
 6797TIP3    H242027   5.001   3.218   2.559  1.1314 -0.0835 -0.3483
 6798TIP3   OH242028   5.056   6.574   7.830  0.0514 -0.2206  0.1085
 6798TIP3    H142029   5.051   6.555   7.736  0.2785  1.0057 -0.1689
 6798TIP3    H242030   5.119   6.510   7.864  1.4203  0.5126 -0.9332
 6799TIP3   OH242031   2.189   4.456   6.815  0.2505 -0.4320 -0.1794
 6799TIP3    H142032   2.235   4.539   6.824  0.1982 -0.5298  1.3741
 6799TIP3    H242033   2.114   4.464   6.874 -0.9239 -0.8152 -1.5959
 6800TIP3   OH242034   5.474   0.752   0.689  0.3701  0.9505  0.0417
 6800TIP3    H142035   5.502   0.708   0.769  0.1039  1.2122  0.2826
 6800TIP3    H242036   5.407   0.695   0.652  1.8485 -0.1741 -1.0510
 6801TIP3   OH242037   3.783   5.501   6.498  0.0971 -0.1163 -0.1730
 6801TIP3    H142038   3.837   5.427   6.471 -2.3221 -1.4072 -1.9489
 6801TIP3    H242039   3.826   5.578   6.461  1.0967 -0.9870 -0.8823
 6802TIP3   OH242040   3.175   0.493   2.335  0.1604  0.0587 -0.3601
 6802TIP3    H142041   3.115   0.549   2.384  1.0317  0.0922  0.6947
 6802TIP3    H242042   3.223   0.554   2.278 -1.3637 -0.0634 -1.8665
 6803TIP3   OH242043   1.709   0.859   0.019  1.1288 -0.1080 -0.2399
 6803TIP3    H142044   1.638   0.803   0.049 -1.0575  1.6755 -1.7406
 6803TIP3    H242045   1.750   0.891   0.099 -0.8236  0.0449  0.7557
 6804TIP3   OH242046   1.137   5.727   6.776  0.3730 -0.5083 -0.5344
 6804TIP3    H142047   1.145   5.818   6.746  2.1218 -0.3269  0.3497
 6804TIP3    H242048   1.147   5.675   6.696 -1.1700  0.0556 -1.1314
 6805TIP3   OH242049   6.599   0.251   7.234  0.3267  0.3478 -0.2931
 6805TIP3    H142050   6.596   0.175   7.291  0.2140 -0.6531 -1.5964
 6805TIP3    H242051   6.664   0.228   7.167 -0.5903  0.8823 -1.3993
 6806TIP3   OH242052   4.307   1.668   1.548 -0.3883 -0.1438 -0.9475
 6806TIP3    H142053   4.349   1.724   1.614 -1.2152 -0.3791 -0.2111
 6806TIP3    H242054   4.257   1.729   1.494  0.1381  0.0247 -1.2618
 6807TIP3   OH242055   0.781   2.279   8.172 -0.5412  0.2321 -0.2234
 6807TIP3    H142056   0.777   2.375   8.169 -1.2948  0.1831 -1.5796
 6807TIP3    H242057   0.707   2.254   8.227  0.7930  0.4490  1.7980
 6808TIP3   OH242058   3.238   2.427   1.549 -0.8387  0.1936  0.0357
 6808TIP3    H142059   3.149   2.437   1.515 -0.5229  1.1785 -0.5619
 6808TIP3    H242060   3.243   2.335   1.576 -2.6151  0.5491  1.8365
 6809TIP3   OH242061   4.899   0.758   2.190  0.2516  0.1415  0.1133
 6809TIP3    H142062   4.935   0.755   2.279  1.2841 -2.9736 -0.2643
 6809TIP3    H242063   4.959   0.703   2.139 -1.1570  0.6186 -2.1904
 6810TIP3   OH242064   2.687   1.313   0.376 -0.0567 -0.2839  0.0104
 6810TIP3    H142065   2.726   1.398   0.395  0.7454 -0.9799  1.6325
 6810TIP3    H242066   2.722   1.290   0.290  2.2652 -0.3455  0.8910
 6811TIP3   OH242067   4.199   6.470   8.020 -0.4019 -0.5011 -0.3763
 6811TIP3    H142068   4.249   6.525   7.959  0.8817  0.1607  1.2130
 6811TIP3    H242069   4.221   6.380   7.995 -0.8915 -0.2855 -1.6669
 6812TIP3   OH242070   4.874   3.212   7.383  0.0643  0.1286 -0.3154
 6812TIP3    H142071   4.846   3.126   7.415  0.0753  0.0941 -0.4005
 6812TIP3    H242072   4.969   3.212   7.395 -0.0305  0.4576  0.5000
 6813TIP3   OH242073   5.015   3.588   2.475  0.3580 -0.1693 -0.1098
 6813TIP3    H142074   5.039   3.629   2.559  1.9973 -0.8279 -0.2234
 6813TIP3    H242075   5.029   3.495   2.489  1.9984 -0.1858 -1.4886
 6814TIP3   OH242076   6.755   5.148   2.168  0.1661 -0.4115 -0.4256
 6814TIP3    H142077   6.832   5.166   2.115  0.6310 -0.4224  0.2382
 6814TIP3    H242078   6.693   5.217   2.144  0.8473  0.3440 -0.0384
 6815TIP3   OH242079   1.548   4.352   0.166  0.1552  0.3197  0.1141
 6815TIP3    H142080   1.622   4.322   0.218 -0.1418 -0.8782 -0.1189
 6815TIP3    H242081   1.587   4.392   0.089  0.5824 -1.3583 -0.5789
 6816TIP3   OH242082   5.187   4.605   7.592 -0.0067 -0.3913  0.0147
 6816TIP3    H142083   5.272   4.630   7.628 -0.1696 -2.2659  1.8610
 6816TIP3    H242084   5.186   4.644   7.504  1.9719  1.2062  0.6138
 6817TIP3   OH242085   3.277   4.551   1.297 -0.6775 -0.0653 -0.3068
 6817TIP3    H142086   3.347   4.607   1.262 -2.1316  1.1172 -1.4609
 6817TIP3    H242087   3.305   4.532   1.386  0.0643  2.2614  0.0476
 6818TIP3   OH242088   3.438   1.353   1.593 -0.7530 -0.7121 -0.0523
 6818TIP3    H142089   3.453   1.267   1.631  0.6784 -1.0441 -1.2807
 6818TIP3    H242090   3.474   1.347   1.505 -1.2134  0.9536 -0.3910
 6819TIP3   OH242091   2.528   3.561   7.690 -0.0195 -0.0157  0.1122
 6819TIP3    H142092   2.590   3.530   7.624 -0.5159  1.9965 -1.3961
 6819TIP3    H242093   2.548   3.654   7.701  0.2660 -0.3224  3.1395
 6820TIP3   OH242094   0.067   5.777   6.997 -0.7893  0.2094  0.2800
 6820TIP3    H142095  -0.009   5.719   7.007  0.5536 -1.6672 -0.0385
 6820TIP3    H242096   0.030   5.857   6.958 -2.4903 -0.9179 -0.5697
 6821TIP3   OH242097   0.329   6.004   1.677 -0.4442 -0.4191 -0.1631
 6821TIP3    H142098   0.346   6.045   1.592 -0.6002  0.2991  0.1469
 6821TIP3    H242099   0.242   6.036   1.703 -1.8439 -3.0755 -1.1579
 6822TIP3   OH242100   1.684   5.890   7.644  0.5307  0.2956  0.3814
 6822TIP3    H142101   1.640   5.973   7.630  0.3374  0.2320  0.6128
 6822TIP3    H242102   1.750   5.908   7.711  1.5821  0.6439 -0.7142
 6823TIP3   OH242103   6.793   2.297   8.885  0.3501  0.2600 -0.4485
 6823TIP3    H142104   6.700   2.306   8.906  0.2775 -1.2788 -0.0052
 6823TIP3    H242105   6.801   2.208   8.851  1.6637  0.3808 -0.4966
 6824TIP3   OH242106   5.790   6.105   7.019  0.0729 -0.0842 -0.0373
 6824TIP3    H142107   5.857   6.057   7.069 -1.2735 -1.5237  0.4615
 6824TIP3    H242108   5.837   6.137   6.942  1.1727 -1.7458 -0.1207
 6825TIP3   OH242109   4.219   0.696   0.334 -0.2136  0.0209 -0.3846
 6825TIP3    H142110   4.260   0.761   0.276  0.5318 -0.0281  0.0789
 6825TIP3    H242111   4.223   0.614   0.285  2.9041 -0.6179  0.7717
 6826TIP3   OH242112   1.818   1.791   8.826  0.1177  0.5779  0.1382
 6826TIP3    H142113   1.812   1.885   8.808  0.9687  0.7474  0.6751
 6826TIP3    H242114   1.741   1.772   8.880 -0.2437  0.8891 -0.2554
 6827TIP3   OH242115   3.169   3.012   2.090 -0.1089 -0.3905 -0.7387
 6827TIP3    H142116   3.222   3.062   2.152  0.6316 -0.4977 -1.2740
 6827TIP3    H242117   3.122   3.078   2.040 -1.1922 -0.3135  0.3264
 6828TIP3   OH242118   6.762   2.561   0.321 -0.2367 -0.0318 -0.0069
 6828TIP3    H142119   6.671   2.545   0.344 -0.4745  1.8982  0.5521
 6828TIP3    H242120   6.760   2.585   0.228 -0.2784 -0.1738 -0.0419
 6829TIP3   OH242121   2.180   0.292   0.710  0.0948 -0.0069  0.1218
 6829TIP3    H142122   2.161   0.199   0.709  1.1416 -0.2398 -1.0154
 6829TIP3    H242123   2.256   0.302   0.767  0.6417 -0.0140 -0.5877
 6830TIP3   OH242124   6.151   1.062   8.711  0.2539  0.9830  0.0558
 6830TIP3    H142125   6.099   0.986   8.740 -0.0847  1.3828  0.5213
 6830TIP3    H242126   6.169   1.044   8.619 -0.4343  0.6724 -0.0303
 6831TIP3   OH242127   1.158   0.382   7.769  0.4755 -0.1401  0.2034
 6831TIP3    H142128   1.223   0.453   7.772  0.8031 -0.3542 -1.2506
 6831TIP3    H242129   1.102   0.404   7.695 -0.1099 -0.8178  0.4399
 6832TIP3   OH242130   1.333   4.377   8.601 -0.2483 -0.4103  0.7965
 6832TIP3    H142131   1.304   4.468   8.604 -1.3642 -0.7310  0.0871
 6832TIP3    H242132   1.427   4.382   8.587 -0.2208  0.6363  1.2799
 6833TIP3   OH242133   2.073   3.262   0.539  0.2253 -0.2848  0.4892
 6833TIP3    H142134   2.104   3.184   0.493 -0.5974 -1.2160  1.4585
 6833TIP3    H242135   2.013   3.229   0.606 -0.0684  1.1748  1.0007
 6834TIP3   OH242136   5.691   3.976   2.196 -0.2846  0.0738  0.1885
 6834TIP3    H142137   5.688   4.048   2.259 -0.4173 -0.1866  0.4847
 6834TIP3    H242138   5.631   3.910   2.232 -0.5849  0.0407 -0.3628
 6835TIP3   OH242139   2.411   3.925   8.804 -0.3863  0.2212  0.0204
 6835TIP3    H142140   2.357   3.983   8.750 -0.9561 -0.1115  0.2247
 6835TIP3    H242141   2.384   3.945   8.894 -3.2171 -2.7854  0.0316
 6836TIP3   OH242142   1.865   5.388   2.289 -0.2500  0.4021 -0.1247
 6836TIP3    H142143   1.884   5.353   2.202  0.5697 -1.0653  0.6018
 6836TIP3    H242144   1.782   5.348   2.314 -1.7526  2.6816 -1.1410
 6837TIP3   OH242145   3.498   4.364   7.356  0.2192 -0.1698  0.0361
 6837TIP3    H142146   3.507   4.302   7.429 -1.3899  1.3239  1.5925
 6837TIP3    H242147   3.585   4.369   7.318  1.2186 -0.7405  2.1008
 6838TIP3   OH242148   6.538   0.714   7.152 -0.3279 -0.3152  0.1668
 6838TIP3    H142149   6.586   0.788   7.117 -0.4411 -0.5523 -0.4932
 6838TIP3    H242150   6.485   0.682   7.079 -0.3101 -1.0207  0.4530
 6839TIP3   OH242151   1.008   1.230   8.376 -0.2820 -0.7184  0.0451
 6839TIP3    H142152   1.048   1.259   8.294  1.2361 -4.0878 -0.5797
 6839TIP3    H242153   1.078   1.182   8.421 -2.1709 -2.2886  1.4613
 6840TIP3   OH242154   2.556   5.688   6.939 -0.2776 -0.6355  0.7998
 6840TIP3    H142155   2.508   5.605   6.928  0.5311 -0.7754 -2.7341
 6840TIP3    H242156   2.491   5.756   6.922  0.0721 -0.7538 -1.2325
 6841TIP3   OH242157   5.148   0.458   0.974 -0.0720 -0.1849 -0.7845
 6841TIP3    H142158   5.166   0.418   0.889 -0.3200  0.5429 -1.1844
 6841TIP3    H242159   5.162   0.551   0.961 -0.7822  0.0169 -0.2036
 6842TIP3   OH242160   4.979   0.484   7.074  0.4305 -0.0102 -0.2357
 6842TIP3    H142161   4.965   0.389   7.072  0.0087 -0.0178  1.4965
 6842TIP3    H242162   5.018   0.504   6.989  0.1107 -1.6639 -0.8147
 6843TIP3   OH242163   3.833   6.336   6.771  0.3393  0.2381  0.2831
 6843TIP3    H142164   3.910   6.311   6.719 -2.3780 -2.9633 -2.7165
 6843TIP3    H242165   3.779   6.386   6.710 -1.7928 -1.3358  0.7702
 6844TIP3   OH242166   3.660   3.354   7.068 -0.3421 -0.1096 -0.5207
 6844TIP3    H142167   3.649   3.296   7.143  0.7285  0.6284  0.2367
 6844TIP3    H242168   3.638   3.442   7.101 -0.7345  0.1101 -1.3175
 6845TIP3   OH242169   4.785   6.043   8.216  0.4834 -0.0067 -0.0956
 6845TIP3    H142170   4.744   5.957   8.226 -0.1235 -0.0627 -2.4497
 6845TIP3    H242171   4.834   6.056   8.297  0.3930 -2.4503  0.4255
 6846TIP3   OH242172   1.400   0.156   8.156  0.1238 -0.4900 -0.6057
 6846TIP3    H142173   1.408   0.121   8.244 -1.9301  2.3794  0.9005
 6846TIP3    H242174   1.365   0.084   8.104  0.2136 -1.9152  1.2052
 6847TIP3   OH242175   3.277   4.475   8.775 -0.2687 -0.2918  0.3217
 6847TIP3    H142176   3.270   4.494   8.869 -0.0225 -1.4007  0.5767
 6847TIP3    H242177   3.285   4.380   8.770  0.5690 -0.1855 -0.7737
 6848TIP3   OH242178   0.649   5.093   2.423 -0.0045 -0.4959 -0.2227
 6848TIP3    H142179   0.727   5.053   2.462 -1.0022 -2.4417 -0.1235
 6848TIP3    H242180   0.621   5.031   2.356 -0.5048  1.0108 -1.4576
 6849TIP3   OH242181   6.244   1.573   7.042 -0.3209 -0.2089 -0.0395
 6849TIP3    H142182   6.297   1.504   7.080  2.1662  1.0713 -0.9312
 6849TIP3    H242183   6.205   1.618   7.117  0.9137 -0.4316  0.7648
 6850TIP3   OH242184   3.515   4.105   8.541 -0.3721  0.5918 -0.3012
 6850TIP3    H142185   3.422   4.128   8.534 -0.7364 -0.3429  0.9919
 6850TIP3    H242186   3.560   4.189   8.551 -1.0149  1.0819 -1.2945
 6851TIP3   OH242187   6.782   1.337   1.693  0.1589  0.2675 -0.2853
 6851TIP3    H142188   6.801   1.420   1.648 -0.8908  0.1144 -1.0577
 6851TIP3    H242189   6.691   1.318   1.670  0.3380 -1.0329  0.0086
 6852TIP3   OH242190   3.934   4.959   7.661 -0.4474  0.2329  0.6804
 6852TIP3    H142191   3.887   5.039   7.686  1.2386  1.1923  0.9504
 6852TIP3    H242192   3.922   4.900   7.736  1.8760  1.9032  2.5243
 6853TIP3   OH242193   5.080   0.514   0.414  0.3962 -0.0822 -0.1767
 6853TIP3    H142194   5.034   0.520   0.330 -0.9395 -1.1324  0.4357
 6853TIP3    H242195   5.044   0.435   0.455  0.7001  0.6401  1.5735
 6854TIP3   OH242196   3.843   5.815   1.729  0.2818  0.7409  0.0665
 6854TIP3    H142197   3.762   5.771   1.702  0.8961  0.4840 -1.4538
 6854TIP3    H242198   3.910   5.748   1.721  0.8498  1.3049  0.0577
 6855TIP3   OH242199   2.926   0.687   6.990 -0.6782  0.3167 -0.0528
 6855TIP3    H142200   2.924   0.594   6.969  0.3508  0.4122 -0.6143
 6855TIP3    H242201   2.846   0.722   6.950 -1.3828 -0.4122  0.6771
 6856TIP3   OH242202   2.774   3.081   1.041 -0.1876 -0.9163  0.0493
 6856TIP3    H142203   2.715   3.007   1.057 -2.5333  0.2993 -2.1369
 6856TIP3    H242204   2.728   3.134   0.976  2.4125  1.3145 -0.1488
 6857TIP3   OH242205   5.168   2.575   6.131 -0.7357  0.0141 -0.4980
 6857TIP3    H142206   5.166   2.546   6.223 -2.6625 -1.1656 -0.8603
 6857TIP3    H242207   5.098   2.640   6.125 -0.3479  0.3913 -1.0655
 6858TIP3   OH242208   2.311   5.836   8.637 -0.3211  0.3976  0.3292
 6858TIP3    H142209   2.341   5.783   8.710  1.0252 -2.2681 -1.9640
 6858TIP3    H242210   2.388   5.888   8.613  0.2393 -0.9594 -0.9631
 6859TIP3   OH242211   6.712   2.609   1.294 -0.1340  0.3301 -0.2861
 6859TIP3    H142212   6.722   2.692   1.248 -0.4831 -0.2136 -1.3871
 6859TIP3    H242213   6.802   2.582   1.314 -0.0003  0.7756 -0.2804
 6860TIP3   OH242214   2.861   4.388   7.819  0.5488 -0.3983 -0.2361
 6860TIP3    H142215   2.896   4.306   7.783  1.7253 -0.0135 -0.0298
 6860TIP3    H242216   2.912   4.456   7.774 -0.3106  0.2167 -0.2911
 6861TIP3   OH242217   4.198   4.817   2.263  0.0465 -0.1983 -0.1594
 6861TIP3    H142218   4.225   4.725   2.257  2.2697  0.3333  0.4947
 6861TIP3    H242219   4.208   4.851   2.174  3.1097  0.2756  0.2240
 6862TIP3   OH242220   2.509   3.652   6.606  0.2138 -0.0677 -0.4100
 6862TIP3    H142221   2.503   3.573   6.552 -0.9476  0.2378 -0.7812
 6862TIP3    H242222   2.519   3.723   6.542 -0.0477  0.1957 -0.1596
 6863TIP3   OH242223   2.190   3.563   7.968  0.4569  0.1392  1.1594
 6863TIP3    H142224   2.183   3.559   7.873  2.1693  0.7895  0.9725
 6863TIP3    H242225   2.158   3.478   7.998 -0.8318  0.2079  0.0808
 6864TIP3   OH242226   4.725   0.415   2.220 -0.2238 -0.2094  0.5872
 6864TIP3    H142227   4.746   0.444   2.309  0.6170 -1.2901  0.7631
 6864TIP3    H242228   4.632   0.393   2.224 -0.0880 -0.7074  1.3454
 6865TIP3   OH242229   5.448   2.565   1.441 -0.4929 -0.3287  0.0527
 6865TIP3    H142230   5.466   2.615   1.362  0.6740 -0.3104  0.3038
 6865TIP3    H242231   5.447   2.631   1.511  0.5899 -0.5741  0.3215
 6866TIP3   OH242232   1.817   1.259   8.536  0.1341 -0.3657 -0.1235
 6866TIP3    H142233   1.770   1.331   8.493 -0.3266 -1.0138 -0.7324
 6866TIP3    H242234   1.748   1.204   8.572  0.4827 -0.5618  0.2557
 6867TIP3   OH242235   2.171   5.415   1.348  0.4657 -0.2002 -0.0838
 6867TIP3    H142236   2.141   5.398   1.437 -0.4040  0.7876 -0.1620
 6867TIP3    H242237   2.246   5.474   1.358  0.0691  0.3016 -0.0087
 6868TIP3   OH242238   4.863   1.672   7.559 -0.1962  0.0910  0.4689
 6868TIP3    H142239   4.892   1.674   7.651  3.5977 -2.0275 -0.4737
 6868TIP3    H242240   4.914   1.741   7.516  0.3533 -0.9144 -0.5359
 6869TIP3   OH242241   0.099   5.143   6.389  0.2251  0.3599  0.7314
 6869TIP3    H142242   0.182   5.188   6.398  0.6690 -0.4449  0.7263
 6869TIP3    H242243   0.080   5.145   6.295 -0.6564  2.1012  0.9142
 6870TIP3   OH242244   2.943   2.117   8.757 -0.5695  0.0023 -0.2452
 6870TIP3    H142245   2.874   2.054   8.734  0.1612 -0.9964  0.2509
 6870TIP3    H242246   3.022   2.064   8.764 -0.3120  0.5971  2.2323
 6871TIP3   OH242247   6.754   5.792   0.930  0.0299 -0.1901  0.1862
 6871TIP3    H142248   6.776   5.780   1.023  0.6250 -0.3254  0.0283
 6871TIP3    H242249   6.746   5.704   0.895 -0.1907 -0.1389  0.1044
 6872TIP3   OH242250   2.406   0.494   1.030  0.0296  0.1062  0.3549
 6872TIP3    H142251   2.460   0.506   0.952  0.2983 -0.7823  0.4029
 6872TIP3    H242252   2.319   0.524   1.003 -0.7443 -3.2110 -1.3700
 6873TIP3   OH242253   5.448   1.573   8.657 -0.5003  0.2943  0.2195
 6873TIP3    H142254   5.353   1.569   8.661 -0.5770  1.8555  1.3985
 6873TIP3    H242255   5.477   1.485   8.678 -1.6995  0.0450  0.9374
 6874TIP3   OH242256   3.923   0.617   7.353 -0.2463 -0.3436 -0.1245
 6874TIP3    H142257   3.942   0.710   7.367  0.0839 -0.0688 -2.1717
 6874TIP3    H242258   3.913   0.582   7.442 -0.1651  1.5825  0.7084
 6875TIP3   OH242259   3.688   3.342   0.657  0.0941  0.0706  0.3853
 6875TIP3    H142260   3.698   3.298   0.572  1.0032  0.4137  0.2952
 6875TIP3    H242261   3.642   3.279   0.711  0.6443 -0.6763  0.0121
 6876TIP3   OH242262   1.874   2.958   7.462 -0.1442 -0.0789  0.1273
 6876TIP3    H142263   1.838   3.047   7.461  0.6006  0.2558 -1.8116
 6876TIP3    H242264   1.963   2.968   7.427  0.2380 -1.4917  0.6353
 6877TIP3   OH242265   6.237   0.314   7.699  0.3094  0.3264  0.4033
 6877TIP3    H142266   6.315   0.338   7.648 -0.8577  1.1611 -1.0396
 6877TIP3    H242267   6.178   0.389   7.689 -0.9941 -0.6200  0.8368
 6878TIP3   OH242268   1.686   0.671   7.844  0.7211 -0.5778  0.4103
 6878TIP3    H142269   1.639   0.691   7.763 -1.7817 -1.0098  1.6829
 6878TIP3    H242270   1.779   0.675   7.819  0.0366 -0.8007 -2.4821
 6879TIP3   OH242271   6.690   4.673   0.566  0.1217 -0.1409 -0.0123
 6879TIP3    H142272   6.696   4.634   0.479 -0.1337  0.7126 -0.4293
 6879TIP3    H242273   6.598   4.697   0.575 -0.0807 -1.2358  0.9540
 6880TIP3   OH242274   3.155   6.314   7.562 -0.4016  0.0169 -0.4695
 6880TIP3    H142275   3.249   6.295   7.572 -0.8185 -1.4438  1.2179
 6880TIP3    H242276   3.113   6.229   7.574 -1.9998  0.7903 -0.4663
 6881TIP3   OH242277   0.837   1.800   7.731 -0.5159  0.3760  0.7506
 6881TIP3    H142278   0.784   1.870   7.692 -1.1743 -0.9685 -0.9108
 6881TIP3    H242279   0.907   1.785   7.667 -0.4657 -0.5632  1.0106
 6882TIP3   OH242280   2.342   3.705   8.678 -0.3102 -0.3555 -0.2286
 6882TIP3    H142281   2.397   3.775   8.713 -1.5242  0.2580  0.4801
 6882TIP3    H242282   2.297   3.744   8.603  0.1602 -0.8569 -0.7984
 6883TIP3   OH242283   5.031   1.507   2.397  0.0541 -0.1866  0.3690
 6883TIP3    H142284   5.060   1.434   2.452  0.2793 -1.4209 -1.3018
 6883TIP3    H242285   5.105   1.569   2.399  0.1117 -0.2720  1.3194
 6884TIP3   OH242286   1.674   2.058   7.512 -0.1111  0.2371  0.6753
 6884TIP3    H142287   1.655   2.128   7.449  0.0120  0.9963  1.4622
 6884TIP3    H242288   1.629   1.981   7.476  0.6556  0.4313 -0.7734
 6885TIP3   OH242289   5.792   2.704   0.258 -0.0767 -0.0155  0.5232
 6885TIP3    H142290   5.884   2.686   0.277  0.0609 -1.3483 -1.1804
 6885TIP3    H242291   5.745   2.630   0.295 -0.1197 -0.9303 -1.2510
 6886TIP3   OH242292   0.523   0.358   0.032  0.0475 -0.7291 -0.0940
 6886TIP3    H142293   0.429   0.345   0.040 -0.1313  0.8283  0.6972
 6886TIP3    H242294   0.536   0.387  -0.059  0.2562 -4.2497 -1.3430
 6887TIP3   OH242295   2.486   4.596   2.458 -0.4886  0.0802  0.7492
 6887TIP3    H142296   2.451   4.540   2.389 -1.1876 -0.5015  1.5468
 6887TIP3    H242297   2.408   4.623   2.507 -0.0537  0.9326  0.9723
 6888TIP3   OH242298   2.113   4.812   1.793 -0.5558  0.3622  0.2327
 6888TIP3    H142299   2.094   4.724   1.826 -1.3874  0.2026 -0.6424
 6888TIP3    H242300   2.206   4.825   1.813 -0.7182 -0.2252  1.4601
 6889TIP3   OH242301   1.161   6.156   1.961 -0.7577 -0.5279  0.1809
 6889TIP3    H142302   1.083   6.199   1.998  0.5201  1.1200  1.0678
 6889TIP3    H242303   1.228   6.165   2.028  0.6065 -0.7084 -1.1077
 6890TIP3   OH242304   5.526   6.404   1.947  0.1461 -0.0105  0.2547
 6890TIP3    H142305   5.611   6.445   1.961  0.0165 -0.2870  2.0753
 6890TIP3    H242306   5.468   6.445   2.011 -0.5195 -1.4469  0.6224
 6891TIP3   OH242307   0.940   3.385   8.737 -0.0873  0.8331 -0.6226
 6891TIP3    H142308   0.849   3.384   8.767  0.2238 -0.5001  0.3326
 6891TIP3    H242309   0.985   3.444   8.798 -0.2191  1.1775 -0.8534
 6892TIP3   OH242310   5.629   1.875   7.574 -0.3453  0.3555  0.2173
 6892TIP3    H142311   5.663   1.842   7.491 -1.3056 -0.5938  0.1716
 6892TIP3    H242312   5.582   1.800   7.612 -1.1747  1.2022  0.9152
 6893TIP3   OH242313   4.465   6.148   0.529  0.0616 -0.6019 -0.0953
 6893TIP3    H142314   4.396   6.199   0.571 -0.7716 -1.5092 -0.3310
 6893TIP3    H242315   4.500   6.206   0.461  1.7098  1.0434  2.0028
 6894TIP3   OH242316   4.491   6.112   6.698  0.5797  0.4779  0.0835
 6894TIP3    H142317   4.404   6.150   6.713  1.2714  1.7760  1.0136
 6894TIP3    H242318   4.515   6.074   6.783  1.5109  1.4218  0.2579
 6895TIP3   OH242319   4.664   1.774   7.231  0.2536 -0.0209  0.1440
 6895TIP3    H142320   4.759   1.772   7.217  0.1583  2.1926 -1.3774
 6895TIP3    H242321   4.643   1.867   7.237 -1.8271 -0.4707  0.4956
 6896TIP3   OH242322   1.761   5.235   7.352  0.4019 -0.2326 -0.1759
 6896TIP3    H142323   1.804   5.150   7.346  0.0789 -0.6813  2.4152
 6896TIP3    H242324   1.756   5.266   7.262  2.1857 -2.1110 -1.0113
 6897TIP3   OH242325   1.384   0.598   8.859 -0.5012  0.1311  0.3024
 6897TIP3    H142326   1.339   0.548   8.927  0.1843  0.0359  0.6968
 6897TIP3    H242327   1.412   0.678   8.903  0.3096 -0.1140  0.2431
 6898TIP3   OH242328   0.775   2.837   6.711 -0.1169 -0.5300  0.6217
 6898TIP3    H142329   0.709   2.785   6.664 -1.2176 -1.1072  2.7026
 6898TIP3    H242330   0.858   2.794   6.690 -0.5647 -0.7692 -0.7737
 6899TIP3   OH242331   6.566   2.827   8.199 -0.0772  0.2162  0.2673
 6899TIP3    H142332   6.474   2.821   8.225 -0.3074  1.7355 -0.1024
 6899TIP3    H242333   6.611   2.762   8.253 -1.6582 -2.1708 -1.1223
 6900TIP3   OH242334   2.636   1.822   7.392  0.2741  0.6028  0.3317
 6900TIP3    H142335   2.667   1.768   7.465  3.7403 -0.0316 -1.4083
 6900TIP3    H242336   2.581   1.763   7.340  0.0472  0.2413  0.9679
 6901TIP3   OH242337   4.753   0.862   6.911 -0.1430 -0.5786  0.0072
 6901TIP3    H142338   4.673   0.914   6.912  1.1324  1.5170 -0.1308
 6901TIP3    H242339   4.726   0.775   6.942 -2.4533  0.0126 -0.1447
 6902TIP3   OH242340   5.001   5.125   8.890 -0.5751  0.0849  0.1509
 6902TIP3    H142341   4.916   5.087   8.913 -1.0248  2.4259  2.8101
 6902TIP3    H242342   5.065   5.065   8.927 -1.0834 -0.7291 -0.2565
 6903TIP3   OH242343   5.706   1.276   0.589 -0.0878 -0.3924  0.1914
 6903TIP3    H142344   5.763   1.276   0.666  2.1995  0.4610 -1.3927
 6903TIP3    H242345   5.745   1.211   0.531  0.5203  1.5563 -1.7258
 6904TIP3   OH242346   1.605   0.012   0.298  0.1705  0.1150  0.3391
 6904TIP3    H142347   1.682  -0.045   0.292 -0.8199 -1.0988 -2.3476
 6904TIP3    H242348   1.622   0.080   0.233 -0.9157 -0.0281 -0.1043
 6905TIP3   OH242349   5.710   5.558   0.925 -0.3103  0.9918  0.7325
 6905TIP3    H142350   5.684   5.629   0.867  0.1937 -1.2255 -2.4550
 6905TIP3    H242351   5.799   5.580   0.951 -1.0273  2.7117  1.9736
 6906TIP3   OH242352   2.170   4.362   2.450  0.5217 -0.4615  0.2057
 6906TIP3    H142353   2.107   4.320   2.508  0.9400  1.7622  2.4376
 6906TIP3    H242354   2.255   4.330   2.479  0.7273  0.5461  0.7334
 6907TIP3   OH242355   4.610   6.189   7.088 -0.3121 -0.0601 -0.1708
 6907TIP3    H142356   4.541   6.156   7.031 -0.2676 -1.4267  0.5346
 6907TIP3    H242357   4.612   6.283   7.070 -2.7909  0.1448  0.2372
 6908TIP3   OH242358   2.643   0.084   1.097  0.1700  0.3098 -0.4923
 6908TIP3    H142359   2.690   0.148   1.150 -0.2925  0.5949 -0.4220
 6908TIP3    H242360   2.599   0.135   1.029 -1.9117  0.3633  0.7795
 6909TIP3   OH242361   0.231   1.356   1.435 -0.2043 -0.5559  0.0364
 6909TIP3    H142362   0.284   1.422   1.390 -1.1846  0.3328  0.1295
 6909TIP3    H242363   0.279   1.338   1.516  0.4199 -0.4622 -0.3088
 6910TIP3   OH242364   4.933   6.147   7.334  0.1544  0.0900 -0.0531
 6910TIP3    H142365   4.860   6.205   7.356 -0.6500 -1.2680  0.9914
 6910TIP3    H242366   4.897   6.059   7.342  1.5589 -0.5924 -0.8446
 6911TIP3   OH242367   4.335   0.924   0.892 -0.4793 -0.2414 -0.3925
 6911TIP3    H142368   4.393   0.855   0.926 -0.3587  0.6776  1.3732
 6911TIP3    H242369   4.352   0.925   0.798  0.2012 -1.9878 -0.3277
 6912TIP3   OH242370   4.207   0.520   7.275 -0.2347 -0.4289 -0.0707
 6912TIP3    H142371   4.114   0.542   7.280 -0.0295  0.6449 -0.6290
 6912TIP3    H242372   4.211   0.450   7.210 -0.6005 -0.1267 -0.4261
 6913TIP3   OH242373   4.817   6.432   8.494 -0.1682  0.1553 -0.2364
 6913TIP3    H142374   4.812   6.404   8.403  0.7147  1.7136 -0.7914
 6913TIP3    H242375   4.765   6.512   8.498  1.2610  1.1108  0.1772
 6914TIP3   OH242376   2.284   0.862   7.939  0.2803 -0.6307 -0.1985
 6914TIP3    H142377   2.376   0.841   7.950 -0.1320 -2.2748  0.4269
 6914TIP3    H242378   2.238   0.798   7.993 -1.2411 -0.0600 -0.7534
 6915TIP3   OH242379   2.503   1.569   2.185  0.3373  0.6796 -0.0180
 6915TIP3    H142380   2.577   1.575   2.246  0.2562 -0.5364  0.2154
 6915TIP3    H242381   2.535   1.611   2.105  0.5204  2.0968  0.7651
 6916TIP3   OH242382   2.325   1.912   0.255 -0.2411  0.6670  0.2374
 6916TIP3    H142383   2.358   1.885   0.169 -1.4038  1.0137 -0.3445
 6916TIP3    H242384   2.360   2.000   0.268  0.7256  0.2398  0.5649
 6917TIP3   OH242385   6.353   6.397   7.474  0.0096 -0.4085 -0.4908
 6917TIP3    H142386   6.356   6.308   7.439  0.1434 -0.7477  0.3558
 6917TIP3    H242387   6.380   6.452   7.401 -1.6164 -0.8983 -1.5048
 6918TIP3   OH242388   0.410   3.221   0.134  0.4304 -0.1552  0.2461
 6918TIP3    H142389   0.338   3.169   0.169  0.2498 -0.5478 -0.6892
 6918TIP3    H242390   0.413   3.199   0.041  1.3292  0.3627  0.1406
 6919TIP3   OH242391   2.009   0.369   8.030  0.1149  0.7954  0.0406
 6919TIP3    H142392   2.013   0.442   7.969  0.7140  1.3156  0.6839
 6919TIP3    H242393   1.919   0.368   8.062 -0.6770 -0.5073 -2.0489
 6920TIP3   OH242394   2.555   3.997   1.263  0.2017 -0.3523 -0.4150
 6920TIP3    H142395   2.545   4.055   1.188  0.1824 -0.2571 -0.3398
 6920TIP3    H242396   2.476   3.943   1.264  0.3266 -0.5402 -0.6221
 6921TIP3   OH242397   5.104   0.996   8.294  0.3926 -0.0661 -0.2348
 6921TIP3    H142398   5.132   0.960   8.210 -0.7524 -1.4454 -0.0680
 6921TIP3    H242399   5.035   1.058   8.273  0.5665  0.0937 -0.3424
 6922TIP3   OH242400   5.130   2.331   0.112 -0.1842 -0.2042  0.2537
 6922TIP3    H142401   5.223   2.313   0.127 -0.1417  0.5502  0.9771
 6922TIP3    H242402   5.118   2.421   0.141 -0.8101  0.2586 -1.3051
 6923TIP3   OH242403   3.481   2.868   0.198 -0.4289 -0.0528 -0.2970
 6923TIP3    H142404   3.416   2.831   0.137  0.6406 -0.1727 -1.4135
 6923TIP3    H242405   3.436   2.940   0.241 -1.2141  0.0711 -1.2876
 6924TIP3   OH242406   4.923   3.992   8.812 -0.2264  0.4183 -0.4008
 6924TIP3    H142407   4.861   4.057   8.780  0.1192  0.1102 -1.7716
 6924TIP3    H242408   4.873   3.910   8.813  0.2683  0.0350 -2.1476
 6925TIP3   OH242409   2.192   1.639   2.234 -0.5683  0.0536 -0.3474
 6925TIP3    H142410   2.280   1.627   2.271 -0.9512 -1.1547  0.2448
 6925TIP3    H242411   2.180   1.734   2.230  0.3634  0.2289  0.5576
 6926TIP3   OH242412   1.427   0.413   1.330 -0.4300  0.1102 -0.2401
 6926TIP3    H142413   1.427   0.507   1.349  1.3751 -0.1841  1.6761
 6926TIP3    H242414   1.502   0.399   1.271 -0.1127 -0.2098  0.2235
 6927TIP3   OH242415   4.899   1.534   8.083  0.2007  0.0879 -0.2972
 6927TIP3    H142416   4.831   1.470   8.061 -1.6476  1.7540  0.2072
 6927TIP3    H242417   4.961   1.486   8.139 -0.7563 -1.3998 -0.4523
 6928TIP3   OH242418   5.620   5.429   8.337 -0.4890  0.9618  0.6637
 6928TIP3    H142419   5.565   5.351   8.329 -1.5404  1.5320  1.9748
 6928TIP3    H242420   5.585   5.491   8.273 -0.3328  0.7471  0.3684
 6929TIP3   OH242421   2.026   5.777   0.612  0.4225 -0.3463 -0.2801
 6929TIP3    H142422   1.998   5.705   0.556  0.6089 -1.0411  0.4948
 6929TIP3    H242423   2.068   5.839   0.552  0.7642 -1.1457 -0.8905
 6930TIP3   OH242424   4.233   4.278   8.142  0.2786 -0.3072 -0.3497
 6930TIP3    H142425   4.166   4.224   8.101  0.8938 -1.0320 -0.4332
 6930TIP3    H242426   4.275   4.324   8.069  0.8069 -0.9416 -0.4508
 6931TIP3   OH242427   3.914   1.119   1.361  0.4918  0.2151 -0.0618
 6931TIP3    H142428   3.968   1.182   1.409  0.3454  1.9839 -2.0636
 6931TIP3    H242429   3.826   1.128   1.398  0.5692  0.8912 -0.0374
 6932TIP3   OH242430   3.945   1.665   7.462  0.0152 -0.1842 -0.4005
 6932TIP3    H142431   3.891   1.647   7.386 -0.4386  1.4548 -0.5065
 6932TIP3    H242432   3.992   1.746   7.440  1.4931 -0.8387  0.2247
 6933TIP3   OH242433   5.491   0.084   1.171 -0.1098 -0.3391 -0.6871
 6933TIP3    H142434   5.491   0.012   1.234  0.8536 -1.8381 -2.3443
 6933TIP3    H242435   5.429   0.057   1.103 -0.3827  0.8113 -0.9286
 6934TIP3   OH242436   5.704   0.352   8.821  0.1367  0.0912 -0.2008
 6934TIP3    H142437   5.776   0.407   8.789  1.3272 -0.5596  1.2309
 6934TIP3    H242438   5.687   0.384   8.910 -0.1390 -0.9032  0.1154
 6935TIP3   OH242439   4.204   1.380   0.157  0.1851 -0.4416  0.3418
 6935TIP3    H142440   4.129   1.435   0.135  1.5526  0.7853 -1.5434
 6935TIP3    H242441   4.201   1.309   0.093  0.4746 -0.5454  0.4417
 6936TIP3   OH242442   5.630   0.664   7.611  0.6940  0.0118  0.0624
 6936TIP3    H142443   5.587   0.579   7.621 -0.0062  0.2884 -0.5572
 6936TIP3    H242444   5.648   0.692   7.701  0.1249 -0.3851  0.3076
 6937TIP3   OH242445   5.564   4.236   8.910 -0.2126  0.3386 -0.1907
 6937TIP3    H142446   5.478   4.227   8.951  0.2112 -1.6323  0.3671
 6937TIP3    H242447   5.599   4.147   8.907  1.0629  0.8521 -2.0753
 6938TIP3   OH242448   4.916   5.335   1.137 -0.1118 -0.1156  0.1563
 6938TIP3    H142449   4.979   5.397   1.102 -1.0476  0.7448 -0.0737
 6938TIP3    H242450   4.937   5.329   1.230 -0.5999  1.3115  0.3804
 6939TIP3   OH242451   0.068   3.076   1.803  0.2473  0.1448  0.2020
 6939TIP3    H142452  -0.020   3.045   1.826 -0.1667  0.3811 -0.9594
 6939TIP3    H242453   0.113   3.086   1.887 -0.7042 -0.3636  0.7926
 6940TIP3   OH242454   3.415   2.964   8.061  0.2316  0.4624  0.0458
 6940TIP3    H142455   3.330   2.921   8.053 -1.1162  2.2025  3.2614
 6940TIP3    H242456   3.409   3.041   8.004 -0.5150  0.7492  0.4993
 6941TIP3   OH242457   1.353   3.410   6.569  0.4983  0.2805 -0.0127
 6941TIP3    H142458   1.439   3.448   6.583  1.2980 -1.5328  0.2505
 6941TIP3    H242459   1.370   3.318   6.548 -1.4030 -0.3213  0.8321
 6942TIP3   OH242460   0.020   1.377   0.670 -0.4735  0.0964 -0.8150
 6942TIP3    H142461  -0.004   1.405   0.582 -0.7496  0.2216 -0.7013
 6942TIP3    H242462   0.088   1.311   0.657 -0.7513 -0.1270 -1.1308
 6943TIP3   OH242463   2.173   2.415   6.902  0.4215  0.2537 -0.3969
 6943TIP3    H142464   2.141   2.505   6.899 -1.2385 -0.2055  1.4307
 6943TIP3    H242465   2.115   2.366   6.843 -0.8131 -0.1456  1.0807
 6944TIP3   OH242466   0.865   6.560   0.013 -0.5286  0.0488  0.3641
 6944TIP3    H142467   0.904   6.592  -0.068 -5.1061 -0.0616 -2.2041
 6944TIP3    H242468   0.866   6.465   0.006 -0.4613  0.0208  0.7055
 6945TIP3   OH242469   4.587   1.174   1.178 -0.2817  1.0274  0.8824
 6945TIP3    H142470   4.538   1.100   1.214 -0.6712  1.1551  0.6258
 6945TIP3    H242471   4.544   1.192   1.094  1.2601  0.0421 -0.1647
 6946TIP3   OH242472   1.035   1.868   0.879 -0.0606  0.1134  0.7328
 6946TIP3    H142473   0.983   1.801   0.922 -0.6272  0.1182  0.0787
 6946TIP3    H242474   1.110   1.821   0.843 -1.7073 -0.7274 -1.9530
 6947TIP3   OH242475   4.883   1.277   1.599 -0.8627 -0.3721 -0.1248
 6947TIP3    H142476   4.955   1.337   1.579 -2.2914  1.1278 -0.9526
 6947TIP3    H242477   4.826   1.282   1.522 -2.6219 -0.3773  1.1445
 6948TIP3   OH242478   3.646   0.703   6.294 -0.2900 -0.2610 -0.0938
 6948TIP3    H142479   3.710   0.662   6.352 -0.5300 -0.5241 -0.0143
 6948TIP3    H242480   3.567   0.649   6.303 -0.1877 -0.5809 -1.0070
 6949TIP3   OH242481   6.632   4.082   0.485 -0.0684 -0.0430 -0.1978
 6949TIP3    H142482   6.705   4.141   0.501 -0.7585  0.9218 -0.4795
 6949TIP3    H242483   6.648   4.007   0.543  1.2126  0.0628 -0.3813
 6950TIP3   OH242484   0.796   1.159   0.130  0.0816  0.0585  0.5590
 6950TIP3    H142485   0.808   1.245   0.089 -0.6583 -0.7595 -1.4959
 6950TIP3    H242486   0.879   1.113   0.114 -0.4861 -0.5463 -0.8548
 6951TIP3   OH242487   2.944   5.604   7.843  0.5975  0.3787  0.1513
 6951TIP3    H142488   3.024   5.554   7.827 -0.2707 -0.7835 -0.7189
 6951TIP3    H242489   2.902   5.559   7.916 -0.6999 -0.8545 -1.2999
 6952TIP3   OH242490   4.483   2.160   0.246  0.0929  0.3206 -0.2732
 6952TIP3    H142491   4.566   2.115   0.262 -0.6654 -0.9698  0.2090
 6952TIP3    H242492   4.454   2.187   0.333 -0.6767 -0.5248 -0.2514
 6953TIP3   OH242493   5.121   4.524   8.641  0.1157  0.1956 -0.4408
 6953TIP3    H142494   5.090   4.612   8.622 -1.5563 -0.1112  0.6943
 6953TIP3    H242495   5.042   4.469   8.638  1.0728 -1.2305 -0.8645
 6954TIP3   OH242496   2.978   5.751   6.621  0.2470 -0.2807 -0.0670
 6954TIP3    H142497   3.017   5.822   6.571 -0.0640  0.6097  0.9348
 6954TIP3    H242498   2.905   5.721   6.567  0.7274 -0.2348 -0.7522
 6955TIP3   OH242499   5.675   5.707   0.490 -0.2183  0.5369 -0.0139
 6955TIP3    H142500   5.658   5.630   0.544  2.2199  0.1076  0.2562
 6955TIP3    H242501   5.603   5.709   0.427 -0.6134 -1.6704  0.2914
 6956TIP3   OH242502   1.420   4.044   2.576  0.0400 -0.0758 -0.3115
 6956TIP3    H142503   1.339   4.021   2.622 -0.0739 -0.6742 -0.8010
 6956TIP3    H242504   1.480   4.070   2.645 -0.6975  0.7896  0.0290
 6957TIP3   OH242505   3.365   4.908   0.438 -0.3956 -0.0559 -0.2315
 6957TIP3    H142506   3.445   4.909   0.492  0.9044 -1.0208 -2.0493
 6957TIP3    H242507   3.294   4.911   0.502  0.9952 -3.3861  1.7592
 6958TIP3   OH242508   3.016   4.990   0.382 -0.4764  0.1123 -0.3591
 6958TIP3    H142509   3.019   5.003   0.287 -0.0451 -0.0439 -0.3704
 6958TIP3    H242510   3.074   5.057   0.418 -0.8958  0.3827 -0.1805
 6959TIP3   OH242511   4.842   0.436   8.836 -0.1570 -0.1882  0.0404
 6959TIP3    H142512   4.874   0.486   8.761  0.0805  0.0618  0.3015
 6959TIP3    H242513   4.747   0.440   8.830 -0.1866  1.4831  0.8074
 6960TIP3   OH242514   6.577   0.319   7.733 -0.5408 -0.1349  0.0920
 6960TIP3    H142515   6.596   0.265   7.810 -0.1929  1.3965  1.1376
 6960TIP3    H242516   6.591   0.409   7.763 -0.9353  0.5425 -1.6245
 6961TIP3   OH242517   2.710   4.329   8.654 -0.1405  0.3202  0.2358
 6961TIP3    H142518   2.789   4.300   8.699 -0.8931 -0.5010  1.0755
 6961TIP3    H242519   2.710   4.279   8.571  1.2539  1.8502 -0.7404
 6962TIP3   OH242520   2.882   6.460   1.059  0.1024  0.3139 -0.9433
 6962TIP3    H142521   2.832   6.523   1.008 -1.8064 -0.4629 -0.1115
 6962TIP3    H242522   2.862   6.481   1.150  0.9327 -0.3282 -0.5964
 6963TIP3   OH242523   5.094   2.748   1.055 -0.3274  0.2971  0.3456
 6963TIP3    H142524   5.069   2.811   1.123 -2.6168 -0.0298 -0.0982
 6963TIP3    H242525   5.143   2.800   0.991  0.5364  0.9263  1.4752
 6964TIP3   OH242526   0.922   0.949   7.024 -0.5158  1.1554  0.3388
 6964TIP3    H142527   0.841   0.986   6.988 -0.3502  0.3777 -0.8885
 6964TIP3    H242528   0.981   1.024   7.034  0.0271  1.2377 -2.6482
 6965TIP3   OH242529   6.278   6.246   0.846 -0.2257 -0.2524 -0.0048
 6965TIP3    H142530   6.265   6.155   0.818  1.2295 -0.8993  1.2825
 6965TIP3    H242531   6.370   6.251   0.869 -0.3110  1.5455  0.0404
 6966TIP3   OH242532   2.820   3.179   0.442  0.3330  0.2674  0.3624
 6966TIP3    H142533   2.846   3.103   0.390 -0.7775  0.8858 -1.1808
 6966TIP3    H242534   2.885   3.246   0.420  0.3549  0.2734  0.4450
 6967TIP3   OH242535   4.020   6.508   7.772  0.6055  0.2497  0.5637
 6967TIP3    H142536   4.058   6.463   7.696  0.4235  0.3001  0.4426
 6967TIP3    H242537   4.092   6.512   7.835  0.6758 -0.0530  0.5077
 6968TIP3   OH242538   6.594   5.959   7.633 -0.4044  0.1261  0.1361
 6968TIP3    H142539   6.611   6.041   7.586 -1.3503  0.3102  0.1038
 6968TIP3    H242540   6.630   5.974   7.720  0.8645 -0.0178 -0.3391
 6969TIP3   OH242541   1.947   4.108   0.415  0.2722  0.8277  0.2203
 6969TIP3    H142542   1.873   4.167   0.397 -0.6600 -0.0432  1.0460
 6969TIP3    H242543   1.936   4.085   0.507  0.5741 -0.6794 -0.1075
 6970TIP3   OH242544   3.426   1.365   7.703  0.7454  0.4927 -0.3170
 6970TIP3    H142545   3.474   1.386   7.783  0.7032  0.7591 -0.3626
 6970TIP3    H242546   3.494   1.351   7.637  0.8999 -1.6634  0.1998
 6971TIP3   OH242547   6.593   1.116   6.384 -0.2506  0.1409 -0.1749
 6971TIP3    H142548   6.590   1.210   6.401 -2.0961  0.3729 -1.4676
 6971TIP3    H242549   6.553   1.106   6.297  0.5989 -1.7689 -0.3965
 6972TIP3   OH242550   5.338   4.415   0.119  0.0299  0.1482 -0.5980
 6972TIP3    H142551   5.252   4.385   0.090  0.0590 -0.0837 -0.4476
 6972TIP3    H242552   5.350   4.500   0.077 -0.5945  0.5273 -0.0359
 6973TIP3   OH242553   1.100   6.161   0.725  0.4139  0.7178 -0.0046
 6973TIP3    H142554   1.187   6.171   0.686  1.2685 -1.7001  1.0922
 6973TIP3    H242555   1.041   6.159   0.650  1.3961  1.4694 -0.8304
 6974TIP3   OH242556   2.088   0.169   8.867  0.2486 -0.6911 -0.2760
 6974TIP3    H142557   2.176   0.204   8.851 -0.0003 -0.6027 -1.5888
 6974TIP3    H242558   2.053   0.151   8.779 -1.8635  1.3147  0.0618
 6975TIP3   OH242559   1.082   5.247   8.771 -0.0718 -0.2906  0.5015
 6975TIP3    H142560   1.094   5.159   8.808 -4.2475  0.1335  3.6099
 6975TIP3    H242561   1.041   5.231   8.686 -1.3780 -1.4530  1.3041
 6976TIP3   OH242562   5.465   5.064   8.089 -0.2710  0.0056 -0.4114
 6976TIP3    H142563   5.388   5.027   8.046 -1.1167  1.1277  0.0670
 6976TIP3    H242564   5.529   4.993   8.090 -0.6920 -0.4513 -2.3262
 6977TIP3   OH242565   1.771   1.725   8.142  0.1587 -0.4922 -0.0330
 6977TIP3    H142566   1.857   1.690   8.164  0.6688  0.7975  0.1161
 6977TIP3    H242567   1.746   1.777   8.219  0.1957  0.8450 -0.8915
 6978TIP3   OH242568   5.463   4.449   6.883 -0.1838 -0.0205  0.1446
 6978TIP3    H142569   5.444   4.364   6.844  0.2497 -0.5206  1.0085
 6978TIP3    H242570   5.425   4.512   6.822  1.4470 -0.7112 -1.6931
 6979TIP3   OH242571   5.040   1.688   1.314  0.0590 -0.3262  0.5535
 6979TIP3    H142572   4.968   1.682   1.377 -0.2749 -0.0780  0.2058
 6979TIP3    H242573   5.118   1.699   1.367 -0.1751 -0.4862  0.9340
 6980TIP3   OH242574   6.699   2.034   0.291 -0.2010  0.8068 -0.3107
 6980TIP3    H142575   6.771   2.085   0.254 -0.0180  0.9894  0.2801
 6980TIP3    H242576   6.632   2.099   0.311 -0.7884  0.5733 -1.4048
 6981TIP3   OH242577   4.773   2.307   1.695  0.4028  0.0313 -0.3785
 6981TIP3    H142578   4.772   2.303   1.791 -0.0460 -0.9059 -0.4071
 6981TIP3    H242579   4.723   2.230   1.668  0.4516  0.3378 -1.3695
 6982TIP3   OH242580   5.358   5.919   7.393 -0.5549 -0.5886  0.3189
 6982TIP3    H142581   5.384   5.862   7.321 -0.1459 -0.7181  0.5661
 6982TIP3    H242582   5.328   6.000   7.351  1.4648  0.0755  0.0658
 6983TIP3   OH242583   2.215   1.864   0.964 -0.1233 -0.1065 -0.7308
 6983TIP3    H142584   2.121   1.879   0.967 -0.0302  0.4922 -0.7726
 6983TIP3    H242585   2.244   1.902   0.881  0.2828  0.4664 -0.3350
 6984TIP3   OH242586   2.099   5.993   0.457  0.4534  0.4084  0.3633
 6984TIP3    H142587   2.152   6.042   0.519  1.2335 -0.2733  0.2546
 6984TIP3    H242588   2.147   5.999   0.374 -0.5840  1.3332 -0.2055
 6985TIP3   OH242589   4.768   6.598   6.852  0.7343  0.2751  0.1076
 6985TIP3    H142590   4.764   6.615   6.758 -1.1284  1.1840  0.3048
 6985TIP3    H242591   4.721   6.516   6.864  1.1247  0.0669  0.2376
 6986TIP3   OH242592   0.471   6.259   2.491  0.1192 -0.5881  0.1200
 6986TIP3    H142593   0.413   6.203   2.542 -0.6180  0.3406  0.3361
 6986TIP3    H242594   0.431   6.346   2.497  2.5748  0.5562  2.0034
 6987TIP3   OH242595   5.222   0.849   7.306  0.8845 -0.1975 -0.5696
 6987TIP3    H142596   5.157   0.883   7.368  0.8932 -0.1709 -0.5748
 6987TIP3    H242597   5.217   0.909   7.231 -0.2067 -1.1187 -1.2582
 6988TIP3   OH242598   4.892   3.643   6.765 -0.5982 -0.0153 -0.5508
 6988TIP3    H142599   4.964   3.705   6.764  0.0295 -0.7158  0.1781
 6988TIP3    H242600   4.814   3.697   6.752 -0.1639  1.0698  1.0581
 6989TIP3   OH242601   3.065   6.145   8.170  0.2602  0.1782  0.0523
 6989TIP3    H142602   3.127   6.114   8.105 -0.0255  0.4373 -0.3446
 6989TIP3    H242603   2.980   6.144   8.126 -0.3047 -1.6983  1.0662
 6990TIP3   OH242604   4.107   2.758   1.282  0.0793 -0.4073  0.4318
 6990TIP3    H142605   4.127   2.667   1.262 -0.3893 -0.6097  0.8533
 6990TIP3    H242606   4.012   2.759   1.298 -0.0314  0.2810 -0.2285
 6991TIP3   OH242607   0.360   5.303   0.325 -0.2953 -0.4742  0.2532
 6991TIP3    H142608   0.331   5.368   0.389 -1.7014  2.2329 -2.8627
 6991TIP3    H242609   0.308   5.225   0.346 -3.1471  1.3359  0.5626
 6992TIP3   OH242610   1.426   1.992   8.503  0.0543  0.1203 -0.2459
 6992TIP3    H142611   1.480   2.037   8.438 -0.3283  0.5896 -0.2406
 6992TIP3    H242612   1.488   1.967   8.572  0.9401 -2.5607 -1.8671
 6993TIP3   OH242613   3.436   0.078   0.582  0.4429 -0.1377 -0.4154
 6993TIP3    H142614   3.442   0.114   0.670  0.8338  0.3634 -0.6407
 6993TIP3    H242615   3.343   0.082   0.560  0.5898  1.6889 -0.8156
 6994TIP3   OH242616   5.921   4.287   1.683  0.1552 -0.3353 -0.1644
 6994TIP3    H142617   5.934   4.373   1.723  1.6297 -1.3168  1.6398
 6994TIP3    H242618   6.009   4.258   1.661 -0.3959 -1.0791 -1.5004
 6995TIP3   OH242619   1.791   3.975   7.584  0.0816  0.5814 -0.1991
 6995TIP3    H142620   1.803   3.880   7.593 -1.8607  0.1476 -1.4055
 6995TIP3    H242621   1.696   3.987   7.593  0.2702  2.3738 -0.3969
 6996TIP3   OH242622   3.074   2.697   8.371  0.0693  0.3025 -0.3819
 6996TIP3    H142623   3.086   2.602   8.363  1.3532  0.2351  1.6015
 6996TIP3    H242624   3.105   2.732   8.288  1.2685 -0.9282 -0.4991
 6997TIP3   OH242625   4.089   3.088   6.655  0.1708 -0.3054  0.2713
 6997TIP3    H142626   4.113   3.125   6.571  0.2423  1.0007  0.8423
 6997TIP3    H242627   4.108   2.994   6.647  2.8899  0.2155 -0.1980
 6998TIP3   OH242628   1.928   4.280   2.019  0.1424 -0.1596 -0.3140
 6998TIP3    H142629   1.897   4.299   1.930  1.2320  0.9097 -0.4955
 6998TIP3    H242630   1.899   4.355   2.071  1.4988  0.3689 -0.2817
 6999TIP3   OH242631   5.280   5.433   2.034 -0.0574  0.1254 -0.1435
 6999TIP3    H142632   5.329   5.515   2.022  1.0860 -0.4438  0.4474
 6999TIP3    H242633   5.319   5.372   1.971  1.1422 -0.8025  1.4300
 7000TIP3   OH242634   0.606   4.347   2.268 -0.5408 -0.6960  0.1304
 7000TIP3    H142635   0.636   4.413   2.205  0.2348 -0.8628  0.3188
 7000TIP3    H242636   0.648   4.266   2.240 -0.6086 -0.8804  0.5564
 7001TIP3   OH242637   6.329   0.360   7.247  0.5769  0.3384  0.2940
 7001TIP3    H142638   6.296   0.275   7.216  0.0871  0.3248  0.8400
 7001TIP3    H242639   6.424   0.355   7.233  0.4223  0.1868 -0.8504
 7002TIP3   OH242640   6.756   3.741   1.494 -0.1788  0.0678  0.2598
 7002TIP3    H142641   6.712   3.761   1.412 -0.6771  1.5299  0.8508
 7002TIP3    H242642   6.720   3.804   1.557  1.4416  0.1283  1.1883
 7003TIP3   OH242643   5.720   1.682   1.699  0.4944 -0.1175 -0.0204
 7003TIP3    H142644   5.710   1.683   1.794  0.4966 -0.7265 -0.0121
 7003TIP3    H242645   5.696   1.771   1.672  1.9807  0.5291  0.6879
 7004TIP3   OH242646   6.140   0.005   8.198  0.1561 -0.1563  0.4737
 7004TIP3    H142647   6.199  -0.065   8.226 -1.1401 -1.1429  0.7783
 7004TIP3    H242648   6.177   0.034   8.114  1.8906  0.2521  1.3288
 7005TIP3   OH242649   6.667   1.167   0.491  0.0505 -0.0551  0.4901
 7005TIP3    H142650   6.645   1.234   0.555  0.1501  0.4447  0.0143
 7005TIP3    H242651   6.583   1.144   0.449 -0.6582 -2.8648  3.0671
 7006TIP3   OH242652   5.659   1.400   1.985  0.3773  0.4223 -0.2388
 7006TIP3    H142653   5.708   1.378   2.064 -0.0079 -0.5171 -0.2561
 7006TIP3    H242654   5.671   1.495   1.975 -0.2406  0.7121  1.4073
 7007TIP3   OH242655   1.470   5.762   1.404 -0.1586 -0.6456  0.4983
 7007TIP3    H142656   1.428   5.679   1.427  1.2796 -1.6478 -0.3871
 7007TIP3    H242657   1.404   5.808   1.351 -1.5412 -0.5194  2.2099
 7008TIP3   OH242658   5.878   4.489   1.081  0.4817 -0.0363 -0.1573
 7008TIP3    H142659   5.836   4.409   1.111  0.4945 -0.3126 -0.8505
 7008TIP3    H242660   5.971   4.466   1.075  0.3553 -0.3088 -1.3721
 7009TIP3   OH242661   6.695   5.546   7.399 -0.5547 -0.4841  0.3269
 7009TIP3    H142662   6.652   5.577   7.319 -0.8406  3.5064  1.7707
 7009TIP3    H242663   6.785   5.579   7.392  0.3347 -2.7646  0.3784
 7010TIP3   OH242664   3.484   6.349   0.563 -0.0379  0.3339  0.1145
 7010TIP3    H142665   3.532   6.270   0.589  1.8270  0.8648 -1.4037
 7010TIP3    H242666   3.396   6.318   0.542  0.0972 -1.0071  1.3572
 7011TIP3   OH242667   0.810   4.866   8.677 -0.1907  0.1484 -0.1437
 7011TIP3    H142668   0.857   4.869   8.593 -1.1959  0.5166 -0.7176
 7011TIP3    H242669   0.749   4.792   8.667 -2.9564  2.3500 -1.2678
 7012TIP3   OH242670   3.558   1.513   0.377  0.0719  0.0844  0.3534
 7012TIP3    H142671   3.647   1.541   0.396  0.6557  2.6896 -4.5511
 7012TIP3    H242672   3.503   1.569   0.432  1.4371  0.7407  1.1000
 7013TIP3   OH242673   5.142   1.952   8.713  0.4814 -0.0288 -0.0164
 7013TIP3    H142674   5.163   1.989   8.799  0.1565 -2.9672  1.4449
 7013TIP3    H242675   5.060   1.995   8.688 -1.4374 -1.6736  2.9459
 7014TIP3   OH242676   0.788   4.398   8.629  0.2547 -0.2944 -0.1198
 7014TIP3    H142677   0.853   4.461   8.660  0.1988  0.3696 -1.3197
 7014TIP3    H242678   0.764   4.428   8.542 -0.4538 -1.4630 -0.3559
 7015TIP3   OH242679   0.733   6.389   0.622 -0.1449  0.1649 -0.1903
 7015TIP3    H142680   0.825   6.394   0.648  0.4613  1.4680 -2.3241
 7015TIP3    H242681   0.700   6.478   0.635 -0.0533  0.6545 -2.7074
 7016TIP3   OH242682   0.261   0.725   0.681 -0.0327  0.0428 -0.1339
 7016TIP3    H142683   0.188   0.670   0.654  0.1961 -0.5887  0.4837
 7016TIP3    H242684   0.339   0.679   0.649  0.1313  0.2517 -0.0365
 7017TIP3   OH242685   1.419   2.398   7.476 -0.0216  0.3543  0.3874
 7017TIP3    H142686   1.456   2.333   7.535  1.3178  0.8317  0.1008
 7017TIP3    H242687   1.472   2.476   7.489 -0.0169  0.6291 -1.0711
 7018TIP3   OH242688   5.402   0.079   8.768  0.4239 -0.4458 -0.0511
 7018TIP3    H142689   5.319   0.097   8.722 -0.5072 -0.3389  1.5932
 7018TIP3    H242690   5.451   0.023   8.707 -0.7980 -0.4250 -1.1117
 7019TIP3   OH242691   5.396   6.558   1.478  0.2883 -0.0870  0.3381
 7019TIP3    H142692   5.360   6.604   1.402 -0.9224 -2.7142 -0.8262
 7019TIP3    H242693   5.399   6.624   1.547 -0.5891  1.8853 -1.4007
 7020TIP3   OH242694   0.327   1.280   2.354 -0.1241 -0.0416 -0.3800
 7020TIP3    H142695   0.389   1.327   2.410 -2.3805  0.2958  2.0237
 7020TIP3    H242696   0.362   1.190   2.350  1.3118  0.4900 -0.4052
 7021TIP3   OH242697   1.445   5.496   1.052  0.2611  0.0708  0.0780
 7021TIP3    H142698   1.531   5.534   1.070  0.2963  0.6090 -1.1341
 7021TIP3    H242699   1.413   5.543   0.975 -0.3390 -1.3556 -0.5895
 7022TIP3   OH242700   3.649   1.990   7.148 -0.4565  0.1915 -0.0402
 7022TIP3    H142701   3.659   2.011   7.055 -1.3408  1.5213  0.1400
 7022TIP3    H242702   3.728   2.026   7.189  0.2558 -0.9745 -0.3351
 7023TIP3   OH242703   0.941   6.263   2.108 -0.4872 -0.0866 -0.3027
 7023TIP3    H142704   0.954   6.358   2.114 -1.2665  0.0775 -0.9921
 7023TIP3    H242705   0.956   6.231   2.197  3.2976  0.1824 -0.6846
 7024TIP3   OH242706   3.329   5.211   7.554 -0.1683 -0.0173  0.2869
 7024TIP3    H142707   3.344   5.277   7.486  1.0914 -1.4240 -0.8768
 7024TIP3    H242708   3.240   5.181   7.538 -1.0842  1.9216  1.3638
 7025TIP3   OH242709   0.660   6.185   2.248 -0.1492  0.0844  0.1507
 7025TIP3    H142710   0.667   6.280   2.256 -0.5221 -0.0014  2.2660
 7025TIP3    H242711   0.670   6.153   2.338 -0.5344 -1.8443 -0.4407
 7026TIP3   OH242712   4.947   6.779   0.687  0.4726  0.2426  0.3202
 7026TIP3    H142713   4.877   6.715   0.702 -0.5689  1.2072 -0.2485
 7026TIP3    H242714   4.998   6.742   0.614 -0.1475  0.0684 -0.0318
 7027TIP3   OH242715   6.608   5.600   1.790 -0.9224  0.0296  0.5338
 7027TIP3    H142716   6.584   5.689   1.762  0.2538  0.5698  1.1462
 7027TIP3    H242717   6.548   5.580   1.861  0.0426  1.1761  1.7456
 7028TIP3   OH242718   0.409   5.845   8.858  0.3039 -0.1515  0.3927
 7028TIP3    H142719   0.465   5.783   8.812  0.9517 -0.6481  1.8036
 7028TIP3    H242720   0.429   5.930   8.818  0.8134 -0.5681 -0.2582
 7029TIP3   OH242721   0.265   6.253   0.612 -0.2867  0.7762 -0.0611
 7029TIP3    H142722   0.175   6.269   0.642 -0.9853 -0.0323 -1.5828
 7029TIP3    H242723   0.265   6.281   0.520  1.0628  0.8713 -0.0488
 7030TIP3   OH242724   6.203   2.824   1.610  0.2858  0.5525 -0.1026
 7030TIP3    H142725   6.263   2.891   1.575  0.5939 -0.6632 -2.1196
 7030TIP3    H242726   6.252   2.784   1.681  0.6962  1.4626  0.1524
 7031TIP3   OH242727   4.319   2.500   0.784  0.3467 -0.1431 -0.2599
 7031TIP3    H142728   4.302   2.526   0.874  0.5449  1.9807 -0.7843
 7031TIP3    H242729   4.300   2.406   0.782  1.2114 -0.4259  2.1854
 7032TIP3   OH242730   3.940   2.562   0.435  0.1487 -0.0566 -0.4274
 7032TIP3    H142731   3.980   2.489   0.482 -2.1231 -0.1761  1.5076
 7032TIP3    H242732   4.004   2.633   0.442 -0.2506  0.0882  3.4180
 7033TIP3   OH242733   2.150   5.072   1.699 -0.4406 -0.1423 -0.0476
 7033TIP3    H142734   2.111   4.989   1.726 -0.7363  0.6025  1.9582
 7033TIP3    H242735   2.208   5.097   1.772 -1.1597  1.9079 -0.1109
 7034TIP3   OH242736   4.629   2.420   1.475  0.2887  0.3785 -0.4243
 7034TIP3    H142737   4.649   2.443   1.566  0.2627 -1.3042  0.0351
 7034TIP3    H242738   4.536   2.396   1.476  0.0702  1.1457 -1.0796
 7035TIP3   OH242739   2.813   5.196   0.325  0.0979 -0.4843 -0.2919
 7035TIP3    H142740   2.746   5.132   0.301  1.7679 -2.0522 -1.0069
 7035TIP3    H242741   2.874   5.148   0.381 -0.5489  1.5311  2.3523
 7036TIP3   OH242742   4.374   5.894   0.759  0.1050 -0.1480  0.2497
 7036TIP3    H142743   4.434   5.956   0.800  0.0640 -0.2640  0.4822
 7036TIP3    H242744   4.422   5.811   0.759  0.6367  0.1271 -1.1211
 7037TIP3   OH242745   1.389   1.636   0.297  0.1134 -0.3350 -0.1998
 7037TIP3    H142746   1.483   1.627   0.307  0.1131  0.2777  0.4529
 7037TIP3    H242747   1.353   1.555   0.335  0.3211  0.0528  0.8637
 7038TIP3   OH242748   2.230   2.197   8.380  0.6719 -0.5402 -0.4298
 7038TIP3    H142749   2.170   2.193   8.305 -0.3601 -1.5023  0.4221
 7038TIP3    H242750   2.231   2.108   8.415  0.0887  0.1772  1.5155
 7039TIP3   OH242751   2.794   1.562   0.349 -0.1885 -0.2804  0.2131
 7039TIP3    H142752   2.770   1.644   0.393  1.7942 -0.0459  0.9889
 7039TIP3    H242753   2.869   1.585   0.295 -0.9095 -1.1749 -1.2169
 7040TIP3   OH242754   0.983   0.300   2.437 -0.0373 -0.2425  0.1514
 7040TIP3    H142755   0.894   0.266   2.446  0.0903 -0.5645  0.2124
 7040TIP3    H242756   0.972   0.395   2.427 -0.3598 -0.2222  0.6676
 7041TIP3   OH242757   5.845   1.928   1.173 -0.5047 -0.1638 -0.3438
 7041TIP3    H142758   5.797   1.884   1.244 -1.3092 -0.1034 -0.8425
 7041TIP3    H242759   5.937   1.920   1.199 -0.7456 -0.6691  0.4120
 7042TIP3   OH242760   3.229   1.851   7.034  0.0310  0.1405  0.6159
 7042TIP3    H142761   3.295   1.917   7.013  0.9780 -1.1248 -0.4886
 7042TIP3    H242762   3.184   1.835   6.952  0.8030 -1.6432  0.5071
 7043TIP3   OH242763   2.931   2.488   8.659 -0.6428  0.2567 -0.5040
 7043TIP3    H142764   3.002   2.535   8.703  0.0364 -0.9442 -0.2908
 7043TIP3    H242765   2.883   2.557   8.612 -0.0558  1.2477  0.2980
 7044TIP3   OH242766   4.028   5.655   0.408 -0.0979  0.0834 -0.0692
 7044TIP3    H142767   3.950   5.632   0.459 -3.2843  2.0820 -3.5849
 7044TIP3    H242768   4.059   5.737   0.447 -1.6494  0.8726 -0.4416
 7045TIP3   OH242769   0.380   0.792   8.765  0.7607 -0.4559  0.1199
 7045TIP3    H142770   0.326   0.858   8.722 -0.2776  0.0057  2.0132
 7045TIP3    H242771   0.321   0.717   8.776  0.8268 -0.3527  1.2238
 7046TIP3   OH242772   5.467   3.265   7.910 -0.2819  0.5273  0.1387
 7046TIP3    H142773   5.461   3.234   8.000 -1.0758 -1.0125 -0.4257
 7046TIP3    H242774   5.539   3.329   7.912  1.9701 -1.8580  1.2292
 7047TIP3   OH242775   6.669   3.461   2.167  0.2787 -0.3792 -0.0377
 7047TIP3    H142776   6.761   3.489   2.168  0.2128 -0.1579  1.0045
 7047TIP3    H242777   6.668   3.384   2.111  1.5715 -1.8775  1.8480
 7048TIP3   OH242778   6.338   3.031   1.519  0.2433 -0.1072  0.1160
 7048TIP3    H142779   6.402   3.034   1.448  2.5310 -1.8881  1.9534
 7048TIP3    H242780   6.332   3.122   1.549  0.8293  0.3153 -0.9862
 7049TIP3   OH242781   4.934   6.337   8.736 -0.4606  0.1818 -0.0342
 7049TIP3    H142782   4.881   6.368   8.663  0.5188  2.3750  0.1152
 7049TIP3    H242783   4.985   6.413   8.763  0.3377 -0.9778  1.9527
 7050TIP3   OH242784   0.471   2.277   6.668  0.4413 -0.3834  0.1101
 7050TIP3    H142785   0.426   2.200   6.703 -0.0711  0.3895  1.2355
 7050TIP3    H242786   0.400   2.334   6.638  0.7062  0.3123  0.7512
 7051TIP3   OH242787   4.798   2.260   1.368  0.2778  0.0497 -0.2219
 7051TIP3    H142788   4.738   2.190   1.342 -0.2999  0.7426 -0.8465
 7051TIP3    H242789   4.740   2.335   1.385  0.8535  0.2914  0.7216
 7052TIP3   OH242790   5.018   5.707   1.676 -0.6657  0.0628 -0.3911
 7052TIP3    H142791   5.006   5.711   1.771 -2.4631 -0.5186 -0.5530
 7052TIP3    H242792   4.967   5.780   1.642  0.3572  0.5641 -0.9069
 7053TIP3   OH242793   2.838   3.861   0.809  0.2127 -0.3447 -0.0334
 7053TIP3    H142794   2.823   3.884   0.900  0.6858  1.4729 -0.3793
 7053TIP3    H242795   2.750   3.859   0.770  0.0531 -0.5863  0.3314
 7054TIP3   OH242796   6.681   4.248   2.383  0.3400 -0.4149  0.2961
 7054TIP3    H142797   6.615   4.226   2.317  0.0378  0.2205  0.3687
 7054TIP3    H242798   6.690   4.169   2.436 -1.2261 -0.1639  1.0009
 7055TIP3   OH242799   3.231   1.509   0.802 -0.3255 -0.2402  0.3272
 7055TIP3    H142800   3.159   1.524   0.863  0.7082  1.7303  1.1434
 7055TIP3    H242801   3.261   1.597   0.778  0.4536 -0.9854 -1.6515
 7056TIP3   OH242802   3.522   5.630   6.409  0.2218  0.1404 -0.3620
 7056TIP3    H142803   3.593   5.567   6.400  0.2025  0.2312 -1.2587
 7056TIP3    H242804   3.496   5.625   6.501 -1.5528 -3.0981 -0.9219
 7057TIP3   OH242805   0.084   6.502   0.154  0.0239 -0.5236  0.3176
 7057TIP3    H142806   0.083   6.559   0.077  1.4524 -1.8525 -0.7361
 7057TIP3    H242807  -0.008   6.477   0.166 -0.4882  1.1957  0.2199
 7058TIP3   OH242808   5.505   3.836   8.518 -0.1381  0.0220  0.5409
 7058TIP3    H142809   5.503   3.927   8.547  0.2366  0.2435 -0.0970
 7058TIP3    H242810   5.415   3.806   8.525 -0.1439  0.2350  1.3951
 7059TIP3   OH242811   1.901   3.213   2.347  0.0015  0.5771 -0.4536
 7059TIP3    H142812   1.938   3.142   2.400 -0.5522 -0.7008 -1.7148
 7059TIP3    H242813   1.946   3.291   2.377  1.6913 -0.5165 -0.0072
 7060TIP3   OH242814   0.182   3.298   7.553  0.7010  0.3190 -0.1474
 7060TIP3    H142815   0.212   3.382   7.518  1.2860 -0.2615 -1.0915
 7060TIP3    H242816   0.257   3.264   7.601  1.8652 -1.3573 -2.9137
 7061TIP3   OH242817   6.541   0.830   0.971 -0.6347 -0.5643  0.7291
 7061TIP3    H142818   6.555   0.756   0.912 -1.7941  0.4899 -0.9342
 7061TIP3    H242819   6.598   0.899   0.937 -0.2480 -0.3811  1.7184
 7062TIP3   OH242820   1.785   3.901   6.948 -0.2013 -0.1424 -0.3033
 7062TIP3    H142821   1.838   3.969   6.990  1.8657 -1.9150  0.1217
 7062TIP3    H242822   1.815   3.899   6.857  0.8052 -1.3972  0.0242
 7063TIP3   OH242823   2.640   6.198   7.251 -0.1232  0.8687 -0.2921
 7063TIP3    H142824   2.614   6.127   7.310  1.1594  0.4084 -0.2511
 7063TIP3    H242825   2.694   6.256   7.305 -0.3432  1.3436 -0.5811
 7064TIP3   OH242826   1.899   5.961   7.818  0.9042  0.4346 -1.2765
 7064TIP3    H142827   1.900   5.877   7.863 -1.1037 -0.7400 -3.2159
 7064TIP3    H242828   1.847   6.018   7.875  0.7115 -0.1858 -0.8257
 7065TIP3   OH242829   2.104   4.682   7.544 -0.3091  0.2996 -0.2300
 7065TIP3    H142830   2.014   4.712   7.529  0.3175  1.7515 -1.3884
 7065TIP3    H242831   2.132   4.729   7.623 -0.6904 -0.4905  0.3887
 7066TIP3   OH242832   6.720   0.842   0.450 -0.1779  0.2603 -0.4196
 7066TIP3    H142833   6.771   0.841   0.370 -0.3587  2.9683 -0.6892
 7066TIP3    H242834   6.771   0.897   0.511 -1.7088  1.2947  0.0072
 7067TIP3   OH242835   5.027   1.625   7.871 -0.0936  0.0337 -0.3368
 7067TIP3    H142836   4.981   1.603   7.952  3.0062 -0.9397  1.3188
 7067TIP3    H242837   5.043   1.719   7.878 -1.6543  0.3796 -0.9176
 7068TIP3   OH242838   1.993   0.357   0.094  0.6898  0.4582 -0.4954
 7068TIP3    H142839   1.988   0.406   0.012  0.0301  0.4574 -0.4577
 7068TIP3    H242840   1.999   0.265   0.066 -0.3754  0.3937 -0.5380
 7069TIP3   OH242841   0.133   0.318   7.498 -0.2467  0.2246  0.5604
 7069TIP3    H142842   0.093   0.405   7.508  1.4363  1.1520 -0.3677
 7069TIP3    H242843   0.197   0.329   7.428  0.3885 -1.6501  0.7951
 7070TIP3   OH242844   4.752   0.341   0.527 -0.5159 -0.0001  0.3370
 7070TIP3    H142845   4.693   0.367   0.597 -1.1518 -0.6872  0.0643
 7070TIP3    H242846   4.839   0.366   0.559 -0.9460  1.1134  0.6925
 7071TIP3   OH242847   6.284   5.963   7.549 -0.0635 -0.1995  0.5431
 7071TIP3    H142848   6.231   6.031   7.507 -0.8872 -0.0023  1.8381
 7071TIP3    H242849   6.364   6.009   7.577 -0.5749  0.2478  1.3269
 7072TIP3   OH242850   5.828   4.109   0.199 -0.3854 -0.2048  0.5893
 7072TIP3    H142851   5.890   4.159   0.145 -0.2187  1.4938  2.2276
 7072TIP3    H242852   5.749   4.102   0.145  0.6023 -0.8242 -0.8339
 7073TIP3   OH242853   4.514   0.303   0.813  0.2335 -0.3764  0.6337
 7073TIP3    H142854   4.539   0.376   0.757 -0.0202 -0.0090  0.9991
 7073TIP3    H242855   4.419   0.299   0.806  0.3321 -1.5827 -0.5169
 7074TIP3   OH242856   3.032   3.766   7.000  0.2104 -0.7444  0.1764
 7074TIP3    H142857   3.048   3.762   7.095  1.8685  1.1894  0.0400
 7074TIP3    H242858   3.103   3.713   6.963 -0.4168 -1.4679 -0.0103
 7075TIP3   OH242859   2.317   0.965   6.416  0.4302  0.9530 -0.2650
 7075TIP3    H142860   2.287   1.051   6.446  1.7191  1.3676 -0.1008
 7075TIP3    H242861   2.325   0.913   6.496 -1.2168  0.3596 -0.4441
 7076TIP3   OH242862   6.246   2.136   7.925 -0.0775  0.3380  0.6419
 7076TIP3    H142863   6.303   2.161   7.852 -0.8090 -0.3632 -0.1932
 7076TIP3    H242864   6.218   2.219   7.963  1.0492  0.6993  0.7161
 7077TIP3   OH242865   1.502   1.051   7.693 -0.5303  0.0778  0.0562
 7077TIP3    H142866   1.597   1.054   7.702 -0.6267 -1.2021  2.2994
 7077TIP3    H242867   1.470   1.117   7.755 -1.1149 -0.3699  0.2394
 7078TIP3   OH242868   6.052   3.827   8.223  0.3087 -0.3320  0.1097
 7078TIP3    H142869   6.121   3.859   8.166  0.4931  1.2781  1.1655
 7078TIP3    H242870   6.008   3.759   8.172  1.3100  0.0937 -1.3870
 7079TIP3   OH242871   4.693   3.912   0.529  0.3246  0.4704 -0.0886
 7079TIP3    H142872   4.705   3.837   0.471  1.7830 -0.0065  0.7498
 7079TIP3    H242873   4.781   3.928   0.564 -0.6722 -0.0547  2.9124
 7080TIP3   OH242874   0.981   1.216   7.620 -0.2089 -0.3248  0.3830
 7080TIP3    H142875   1.008   1.241   7.708  0.9586  0.5133 -0.1936
 7080TIP3    H242876   0.890   1.187   7.630  0.0624 -0.7283  1.9338
 7081TIP3   OH242877   4.251   6.312   7.610 -0.7954 -0.3058 -0.3591
 7081TIP3    H142878   4.252   6.242   7.544 -1.2417 -1.1175  0.4609
 7081TIP3    H242879   4.333   6.301   7.659 -2.3355 -2.5249  1.9921
 7082TIP3   OH242880   0.696   4.309   1.488 -0.2067 -0.5403  0.1198
 7082TIP3    H142881   0.696   4.388   1.542  0.9747  0.1356 -0.8333
 7082TIP3    H242882   0.616   4.263   1.514 -2.5754  2.3860 -1.3697
 7083TIP3   OH242883   2.358   5.656   0.679 -0.0762 -0.1353  0.0311
 7083TIP3    H142884   2.283   5.606   0.713  0.9674 -1.8571 -0.0860
 7083TIP3    H242885   2.360   5.735   0.733 -0.7821 -1.0135  1.4148
 7084TIP3   OH242886   2.038   1.261   7.171 -0.2077  0.1738 -0.3277
 7084TIP3    H142887   2.012   1.307   7.250  1.4272  1.3098 -0.3900
 7084TIP3    H242888   2.126   1.293   7.152 -1.0266  1.0198 -3.3712
 7085TIP3   OH242889   2.799   0.740   6.611  0.2359 -0.0876 -0.3017
 7085TIP3    H142890   2.894   0.751   6.616  0.3115 -0.8580  0.1407
 7085TIP3    H242891   2.775   0.771   6.524  0.9263 -0.1089 -0.4983
 7086TIP3   OH242892   6.267   0.750   7.245 -0.0963 -0.0844  0.4136
 7086TIP3    H142893   6.223   0.701   7.314 -0.4974  0.4023  0.5075
 7086TIP3    H242894   6.360   0.729   7.256  0.2032  2.1542  2.8886
 7087TIP3   OH242895   0.745   4.087   8.692 -0.0082  0.3980 -0.2667
 7087TIP3    H142896   0.771   4.166   8.643  0.5550  2.6130  3.2498
 7087TIP3    H242897   0.823   4.062   8.741 -0.6761 -1.4115 -0.0479
 7088TIP3   OH242898   4.819   5.270   8.079 -0.0383  0.6742  0.6467
 7088TIP3    H142899   4.838   5.217   8.156 -0.3478 -1.3710 -0.6137
 7088TIP3    H242900   4.864   5.353   8.095  0.0202  0.2661  2.9378
 7089TIP3   OH242901   4.638   3.599   7.341  0.0530  0.3917 -0.5714
 7089TIP3    H142902   4.654   3.540   7.415  1.8925  0.0205 -1.2110
 7089TIP3    H242903   4.562   3.650   7.367  0.1263 -0.3295  1.1993
 7090TIP3   OH242904   3.049   6.204   7.124  0.1594  0.2122  0.1111
 7090TIP3    H142905   3.125   6.148   7.137 -0.9964 -1.4100  0.0888
 7090TIP3    H242906   2.998   6.194   7.204 -0.1934  1.0544  0.0035
 7091TIP3   OH242907   0.351   2.403   7.891  0.0701  0.3773  0.7843
 7091TIP3    H142908   0.300   2.417   7.811 -0.3944  2.0366  1.3340
 7091TIP3    H242909   0.440   2.383   7.859 -0.6519 -1.6022 -0.1568
 7092TIP3   OH242910   3.624   6.546   0.104 -0.2330  0.1370 -0.1179
 7092TIP3    H142911   3.616   6.498   0.187  0.4484  1.3952  0.6902
 7092TIP3    H242912   3.538   6.536   0.063 -0.3318 -1.1677  0.3488
 7093TIP3   OH242913   4.292   0.473   0.216  0.4546 -0.0528 -0.0495
 7093TIP3    H142914   4.360   0.484   0.149  1.5903 -1.4733  0.8111
 7093TIP3    H242915   4.341   0.457   0.297 -0.9045  0.2916  0.8609
 7094TIP3   OH242916   0.129   0.538   0.453  0.3923  0.0623 -0.0869
 7094TIP3    H142917   0.223   0.535   0.467  0.5698  1.8454 -0.7707
 7094TIP3    H242918   0.115   0.612   0.395 -1.5175  0.3528  0.6777
 7095TIP3   OH242919   4.629   3.486   8.904  0.2472 -0.0212 -0.3731
 7095TIP3    H142920   4.670   3.570   8.884 -0.3181  0.3367 -0.0392
 7095TIP3    H242921   4.535   3.503   8.898  0.1351 -0.7005 -0.5779
 7096TIP3   OH242922   5.962   5.635   8.686 -0.3440 -0.2018 -0.3857
 7096TIP3    H142923   5.930   5.685   8.761  0.5513 -0.1654 -0.0200
 7096TIP3    H242924   5.902   5.658   8.615 -0.6523  0.4743  0.0822
 7097TIP3   OH242925   3.335   0.045   6.650 -0.0502 -0.0637  0.3390
 7097TIP3    H142926   3.411   0.026   6.594 -0.0357  0.4312  0.1892
 7097TIP3    H242927   3.285   0.110   6.601  0.4691  1.1198  1.3219
 7098TIP3   OH242928   3.757   4.838   8.245 -0.4737 -0.3404 -0.4127
 7098TIP3    H142929   3.794   4.755   8.277  1.7769  1.1166  1.0745
 7098TIP3    H242930   3.760   4.831   8.150  0.7789 -1.5331 -0.3141
 7099TIP3   OH242931   4.856   0.113   1.261 -0.1759 -0.6799 -0.5090
 7099TIP3    H142932   4.880   0.165   1.184  0.4527  1.8208  1.2802
 7099TIP3    H242933   4.877   0.169   1.336  1.9276 -4.0321  1.6805
 7100TIP3   OH242934   4.336   4.205   0.386  0.1485 -0.1973  0.0810
 7100TIP3    H142935   4.364   4.181   0.298 -0.6957 -4.2203  0.7097
 7100TIP3    H242936   4.416   4.234   0.430  0.6320  1.5698 -1.8390
 7101TIP3   OH242937   2.754   3.734   7.177  0.1380 -0.2292  0.0420
 7101TIP3    H142938   2.784   3.825   7.166 -0.2783 -0.0601  0.2855
 7101TIP3    H242939   2.660   3.742   7.191 -0.3818 -0.8463 -2.4758
 7102TIP3   OH242940   2.115   5.983   8.272 -0.2751 -0.2251  0.0472
 7102TIP3    H142941   2.077   6.065   8.303 -0.2277 -0.9082  2.0628
 7102TIP3    H242942   2.040   5.934   8.237 -0.7228 -0.2545  1.0162
 7103TIP3   OH242943   4.183   3.456   8.174  0.5169 -0.1422 -0.5175
 7103TIP3    H142944   4.185   3.547   8.144 -0.1714  0.2866  0.6780
 7103TIP3    H242945   4.275   3.430   8.178  0.7245  0.5109 -0.8263
 7104TIP3   OH242946   4.202   6.169   7.984 -0.1420  0.0283 -0.4371
 7104TIP3    H142947   4.249   6.098   8.028 -0.7038  0.3337  0.7087
 7104TIP3    H242948   4.161   6.127   7.909 -1.8034 -1.2738  1.1035
 7105TIP3   OH242949   2.538   4.033   7.263 -0.3282  0.0048  0.3091
 7105TIP3    H142950   2.625   4.007   7.293 -1.1378 -0.4918  2.3921
 7105TIP3    H242951   2.516   3.968   7.196  0.5938 -0.3152  0.2954
 7106TIP3   OH242952   0.889   5.407   0.899 -0.3117  0.3103  0.3156
 7106TIP3    H142953   0.940   5.378   0.974  0.0602 -1.2520 -0.4936
 7106TIP3    H242954   0.953   5.414   0.827 -1.0993 -1.2637 -0.6045
 7107TIP3   OH242955   2.700   2.444   8.852  0.7476  0.5501  0.1194
 7107TIP3    H142956   2.783   2.469   8.813  0.7365  0.5543  0.0983
 7107TIP3    H242957   2.681   2.358   8.816  0.8985  0.4107  0.3714
 7108TIP3   OH242958   0.009   2.167   1.016  0.0227 -0.2340 -0.6105
 7108TIP3    H142959  -0.043   2.197   0.942  0.6186 -1.4117 -1.5438
 7108TIP3    H242960   0.073   2.107   0.978  0.0825 -1.1936  0.9122
 7109TIP3   OH242961   5.653   0.454   7.970  0.2165 -0.3362 -0.0960
 7109TIP3    H142962   5.660   0.369   7.928 -0.5203  0.0062 -0.9551
 7109TIP3    H242963   5.631   0.435   8.062 -1.1578 -1.0657 -0.5481
 7110TIP3   OH242964   0.516   2.688   8.799  0.0262  0.4681 -0.9361
 7110TIP3    H142965   0.477   2.686   8.887 -1.3391 -0.7503 -1.5344
 7110TIP3    H242966   0.600   2.643   8.809  0.1078  0.7699 -0.1645
 7111TIP3   OH242967   6.513   6.141   1.127 -0.7310 -0.0450  0.5657
 7111TIP3    H142968   6.482   6.053   1.106 -0.4218 -0.4342  1.6847
 7111TIP3    H242969   6.527   6.182   1.041  0.1300 -1.4335  0.0004
 7112TIP3   OH242970   1.630   5.805   2.362 -0.3462  0.1938  0.3685
 7112TIP3    H142971   1.629   5.709   2.372 -0.1586  0.1586  0.0590
 7112TIP3    H242972   1.605   5.838   2.449 -1.5793 -0.1457  0.1592
 7113TIP3   OH242973   3.004   4.110   7.130  0.3414 -0.0170 -0.1874
 7113TIP3    H142974   2.976   4.129   7.220  0.3560  0.7781 -0.3423
 7113TIP3    H242975   2.922   4.102   7.081  0.3216 -0.8733 -0.0305
 7114TIP3   OH242976   0.430   5.399   1.317 -0.7488  0.0415 -0.3119
 7114TIP3    H142977   0.501   5.413   1.255 -0.3175 -0.1667  0.1296
 7114TIP3    H242978   0.440   5.469   1.381 -0.1577 -0.7274  0.4598
 7115TIP3   OH242979   5.684   0.438   1.477 -0.1833 -0.3760  0.5255
 7115TIP3    H142980   5.648   0.436   1.565 -1.1642 -3.6966  0.1830
 7115TIP3    H242981   5.609   0.459   1.421  0.3530  1.3318  0.4063
 7116TIP3   OH242982   0.352   0.546   0.199 -0.1278  0.2492  0.2323
 7116TIP3    H142983   0.442   0.520   0.181 -0.5459 -0.2095 -1.3458
 7116TIP3    H242984   0.303   0.464   0.196 -0.8533  0.6995 -0.7367
 7117TIP3   OH242985   6.189   2.742   7.533  0.6833  0.0273  0.6959
 7117TIP3    H142986   6.282   2.751   7.553  1.2291  2.7458 -2.1270
 7117TIP3    H242987   6.181   2.655   7.494  1.4230 -1.2775  3.2286
 7118TIP3   OH242988   1.181   5.978   1.639  0.4061 -0.4057  0.1690
 7118TIP3    H142989   1.235   6.013   1.568  0.7739  0.8390  1.0109
 7118TIP3    H242990   1.101   6.031   1.636  0.8726  0.4178  1.3215
 7119TIP3   OH242991   0.113   4.035   2.436 -0.3492 -0.0507 -0.6559
 7119TIP3    H142992   0.185   4.061   2.494  0.2364 -0.5639 -1.1347
 7119TIP3    H242993   0.039   4.018   2.495  0.3189 -0.8599 -0.0267
 7120TIP3   OH242994   1.978   6.750   1.731  0.9344  0.7236 -0.8875
 7120TIP3    H142995   1.972   6.681   1.665  1.2309  1.0415 -1.2552
 7120TIP3    H242996   2.061   6.794   1.712  0.5948  1.3921 -0.8708
 7121TIP3   OH242997   0.562   6.620   7.919  0.3963 -0.4123  0.1984
 7121TIP3    H142998   0.577   6.603   7.826 -0.3817 -1.1160  0.1917
 7121TIP3    H242999   0.650   6.622   7.957  0.7131 -0.3332 -0.5099
 7122TIP3   OH243000   1.840   1.379   7.335 -0.4903  0.1165 -0.3060
 7122TIP3    H143001   1.852   1.411   7.424 -0.6041 -0.5562 -0.0419
 7122TIP3    H243002   1.846   1.284   7.343 -0.2226  0.0644 -1.0613
 7123TIP3   OH243003   6.764   5.210   0.341 -0.7423 -0.1542 -0.4142
 7123TIP3    H143004   6.855   5.182   0.346 -0.7496 -0.7273 -2.5506
 7123TIP3    H243005   6.763   5.281   0.277 -1.3185  2.3596  2.1937
 7124TIP3   OH243006   6.428   4.646   7.411  0.0966 -0.0214  0.1508
 7124TIP3    H143007   6.427   4.707   7.338 -0.7257  1.6335  1.4743
 7124TIP3    H243008   6.521   4.633   7.429  0.3405 -1.1181 -1.6592
 7125TIP3   OH243009   3.730   1.048   7.281  0.5775  0.2187  0.0011
 7125TIP3    H143010   3.702   1.088   7.199 -1.2365 -0.5144  0.2146
 7125TIP3    H243011   3.689   1.102   7.349 -2.6435 -2.2539  0.2946
 7126TIP3   OH243012   3.174   6.127   1.821 -0.2779  0.0047  0.4030
 7126TIP3    H143013   3.115   6.090   1.756 -1.3649  0.4585  1.0939
 7126TIP3    H243014   3.128   6.204   1.854  0.9046  0.6255  0.6593
 7127TIP3   OH243015   1.989   6.259   2.591 -0.3913  0.0625  0.0550
 7127TIP3    H143016   1.963   6.320   2.522  2.2253 -0.1067 -1.1810
 7127TIP3    H243017   1.923   6.189   2.585 -1.7040  1.2910 -0.5050
 7128TIP3   OH243018   3.130   4.902   1.270  0.2208 -0.1132  0.1738
 7128TIP3    H143019   3.048   4.854   1.280  0.5582 -1.2317 -1.8689
 7128TIP3    H243020   3.158   4.920   1.359 -1.5162 -0.9588  0.9404
 7129TIP3   OH243021   0.990   3.835   0.808 -0.0815  0.0873 -0.5481
 7129TIP3    H143022   1.071   3.786   0.818  0.0007  0.1979 -0.6537
 7129TIP3    H243023   0.954   3.841   0.896 -0.0404 -0.0729 -0.5203
 7130TIP3   OH243024   1.668   1.778   0.937 -0.1384  0.7712  0.9039
 7130TIP3    H143025   1.607   1.850   0.919  0.0066  0.6742 -0.0377
 7130TIP3    H243026   1.620   1.700   0.909  0.6456  0.7561 -0.4662
 7131TIP3   OH243027   2.685   3.422   0.692 -0.1739  0.4885 -0.7408
 7131TIP3    H143028   2.771   3.464   0.695 -0.2405  0.6198 -0.6395
 7131TIP3    H243029   2.660   3.425   0.600  0.5755 -0.8738 -1.0076
 7132TIP3   OH243030   3.214   6.162   0.970  0.9849 -0.1535  0.0778
 7132TIP3    H143031   3.160   6.095   0.929  1.5622 -1.5469  1.4796
 7132TIP3    H243032   3.299   6.121   0.982  1.0665  0.4395  1.8928
 7133TIP3   OH243033   4.706   4.507   8.536  0.5015  0.1368  0.1352
 7133TIP3    H143034   4.699   4.601   8.549 -1.5627  0.0368  0.0564
 7133TIP3    H243035   4.732   4.497   8.444 -0.2527  0.6221 -0.1372
 7134TIP3   OH243036   4.988   2.024   0.415  0.0794 -0.0285  0.2009
 7134TIP3    H143037   4.925   2.064   0.476 -1.6730 -2.0243 -0.1829
 7134TIP3    H243038   4.935   2.003   0.338  1.2193 -1.8136 -0.1299
 7135TIP3   OH243039   0.195   2.788   0.710  0.5724 -0.3590 -0.2200
 7135TIP3    H143040   0.217   2.878   0.730 -0.7020 -0.2781  0.8914
 7135TIP3    H243041   0.280   2.746   0.693  1.0709  1.5665 -3.2768
 7136TIP3   OH243042   5.841   0.395   8.173  0.3552  0.7929  0.1498
 7136TIP3    H143043   5.864   0.429   8.087  1.2158  0.8097  0.3813
 7136TIP3    H243044   5.923   0.361   8.209 -0.4727 -1.5687 -0.0639
 7137TIP3   OH243045   0.200   5.375   1.469 -0.1417  0.2165  0.0731
 7137TIP3    H143046   0.204   5.451   1.527  2.6402  0.1906  0.0410
 7137TIP3    H243047   0.280   5.381   1.417 -0.6234 -1.9220 -1.0053
 7138TIP3   OH243048   2.042   3.053   8.342  0.1869 -0.2817 -0.5123
 7138TIP3    H143049   2.104   3.012   8.282  0.4979 -0.2024 -0.2521
 7138TIP3    H243050   2.045   3.146   8.320  0.7743 -0.1616  0.0339
 7139TIP3   OH243051   5.188   0.019   7.406  0.0410  0.3570  0.0143
 7139TIP3    H143052   5.106   0.006   7.359  0.1193 -0.8872  0.1804
 7139TIP3    H243053   5.242  -0.057   7.381  0.3752  0.0879  1.4863
 7140TIP3   OH243054   4.015   2.537   6.341  0.1869 -0.1729 -0.3684
 7140TIP3    H143055   3.923   2.522   6.360 -0.1960 -0.6828 -2.4127
 7140TIP3    H243056   4.060   2.464   6.384 -0.3137  0.1153  0.6943
 7141TIP3   OH243057   1.843   2.515   8.798 -0.1769 -0.0688  0.0968
 7141TIP3    H143058   1.905   2.577   8.761  1.6854 -1.1490  1.2308
 7141TIP3    H243059   1.818   2.459   8.725 -1.9435  1.9607 -0.9544
 7142TIP3   OH243060   5.865   5.830   7.591 -0.5245  0.2892 -0.0479
 7142TIP3    H143061   5.889   5.837   7.683  2.1011 -1.6287 -0.4603
 7142TIP3    H243062   5.857   5.736   7.575  0.5761  0.4793 -2.0833
 7143TIP3   OH243063   3.583   1.072   8.430 -0.7250 -0.1601  0.2214
 7143TIP3    H143064   3.625   1.117   8.357 -0.4662  0.6550  0.8628
 7143TIP3    H243065   3.568   0.983   8.398  1.2519 -0.4061 -0.1154
 7144TIP3   OH243066   3.962   3.624   0.558 -0.1393 -0.5306  0.1075
 7144TIP3    H143067   3.880   3.660   0.524 -1.2075 -0.0011  2.9793
 7144TIP3    H243068   3.956   3.635   0.653  2.4854 -2.1698  0.5740
 7145TIP3   OH243069   6.446   0.966   1.230 -0.8013  0.1354  0.0823
 7145TIP3    H143070   6.385   0.931   1.165 -0.0100 -1.0321 -0.0763
 7145TIP3    H243071   6.521   0.996   1.178  1.4795 -4.0863  0.4687
 7146TIP3   OH243072   1.592   6.100   8.664  0.1898  0.4911 -0.7442
 7146TIP3    H143073   1.683   6.069   8.672 -0.0250  0.0436  0.0316
 7146TIP3    H243074   1.601   6.193   8.640  0.8485  0.3230 -1.1812
 7147TIP3   OH243075   0.974   3.789   0.535  0.2808  0.2318 -0.5655
 7147TIP3    H143076   0.983   3.815   0.627  1.2570  1.5579 -0.9979
 7147TIP3    H243077   0.894   3.833   0.506 -1.1441 -1.7627  0.1113
 7148TIP3   OH243078   3.911   4.271   1.873  0.2653 -0.0293  0.2954
 7148TIP3    H143079   3.912   4.175   1.866  0.7374  0.0954 -3.9665
 7148TIP3    H243080   3.824   4.297   1.844  0.5082  0.8668  0.3302
 7149TIP3   OH243081   2.548   1.986   7.689  0.4030 -0.6245 -0.1466
 7149TIP3    H143082   2.592   1.912   7.731  3.2053  0.4287 -0.9508
 7149TIP3    H243083   2.618   2.050   7.676 -1.6372  1.6324 -0.7062
 7150TIP3   OH243084   1.828   4.679   0.389  0.4675 -0.3711 -0.0049
 7150TIP3    H143085   1.852   4.735   0.463  0.0664 -0.1010 -0.0804
 7150TIP3    H243086   1.733   4.672   0.394  0.4295 -0.2542 -0.5733
 7151TIP3   OH243087   5.964   4.044   7.562  0.0615  0.2383  0.6711
 7151TIP3    H143088   6.019   4.018   7.488  0.4581  1.1392  0.6362
 7151TIP3    H243089   5.976   4.139   7.569 -0.7120  0.3047  1.2974
 7152TIP3   OH243090   4.493   2.331   8.834 -0.2876  0.1847  0.1923
 7152TIP3    H143091   4.528   2.325   8.745 -3.3284 -1.0417 -1.0504
 7152TIP3    H243092   4.528   2.414   8.867  0.2286  1.1307 -2.4730
 7153TIP3   OH243093   1.386   0.307   0.971  0.5474  0.4308  0.9293
 7153TIP3    H143094   1.468   0.343   1.005  1.4866  1.1921 -1.8754
 7153TIP3    H243095   1.325   0.381   0.971  0.2919  0.2254  1.6780
 7154TIP3   OH243096   2.856   0.953   8.079  0.1028  0.2304  0.0799
 7154TIP3    H143097   2.913   0.971   8.154  1.0397 -1.3602 -0.1925
 7154TIP3    H243098   2.797   1.028   8.075  1.3554  1.3394  1.1633
 7155TIP3   OH243099   2.989   3.882   8.901 -0.1453 -0.3250  0.4330
 7155TIP3    H143100   3.027   3.880   8.989 -0.6247  0.0715  0.6538
 7155TIP3    H243101   2.895   3.872   8.916 -0.3283  0.6777  0.0362
 7156TIP3   OH243102   4.610   2.992   0.489  0.0719 -0.1084 -0.1008
 7156TIP3    H143103   4.530   3.032   0.456  0.0348 -1.1863 -1.3975
 7156TIP3    H243104   4.613   3.018   0.581 -0.8847  1.3112 -0.4405
 7157TIP3   OH243105   0.764   5.026   1.716  0.5857  0.2273  0.6158
 7157TIP3    H143106   0.700   5.056   1.651  3.0772 -1.0975 -2.7222
 7157TIP3    H243107   0.752   5.085   1.791 -4.7642 -0.2199  0.5471
 7158TIP3   OH243108   1.158   3.054   2.344  0.1932 -0.4534 -0.3768
 7158TIP3    H143109   1.177   3.146   2.365  0.7874 -0.6981  0.1643
 7158TIP3    H243110   1.179   3.047   2.251 -1.7140  0.4362 -0.9180
 7159TIP3   OH243111   4.514   5.599   1.123  0.4981 -0.4311  0.2636
 7159TIP3    H143112   4.522   5.503   1.124 -0.6379 -0.5416  1.7931
 7159TIP3    H243113   4.582   5.630   1.182  0.4707 -0.3225  0.2380
 7160TIP3   OH243114   4.097   6.074   8.363  0.0693  0.0158  0.3842
 7160TIP3    H143115   4.183   6.116   8.362  0.3180 -0.4852  0.2621
 7160TIP3    H243116   4.107   5.998   8.304  0.4629 -1.8281  2.6620
 7161TIP3   OH243117   4.771   1.892   1.730 -0.8079 -0.1968 -0.2640
 7161TIP3    H143118   4.715   1.921   1.658 -1.2002 -0.8094 -0.2104
 7161TIP3    H243119   4.710   1.870   1.801 -0.3733  2.2181  0.9847
 7162TIP3   OH243120   3.037   0.403   0.496  0.3719  0.2835 -0.0116
 7162TIP3    H143121   3.010   0.442   0.413 -0.5657  0.6224  0.4369
 7162TIP3    H243122   3.069   0.478   0.548 -0.3666  0.2946  0.4377
 7163TIP3   OH243123   3.061   5.624   0.294  0.0787  0.2618 -0.9453
 7163TIP3    H143124   3.082   5.530   0.294  0.1789  0.2852 -1.4877
 7163TIP3    H243125   3.132   5.664   0.345 -0.1181  0.0112 -0.4681
 7164TIP3   OH243126   3.359   3.051   0.347  0.3196 -0.1556 -0.4519
 7164TIP3    H143127   3.293   3.120   0.344  0.2831 -0.2041 -0.8903
 7164TIP3    H243128   3.315   2.976   0.387 -0.3377 -0.6520 -2.0474
 7165TIP3   OH243129   5.243   1.280   0.977 -0.4378  0.6302  0.4718
 7165TIP3    H143130   5.274   1.289   0.887  3.3506 -2.0079  1.2427
 7165TIP3    H243131   5.294   1.344   1.027  0.9082 -0.9435  1.2289
 7166TIP3   OH243132   4.540   1.655   7.647  0.3293 -0.1909 -0.4071
 7166TIP3    H143133   4.635   1.651   7.652  0.3389  0.4772  0.0862
 7166TIP3    H243134   4.510   1.621   7.732  0.1415 -0.1079 -0.4390
 7167TIP3   OH243135   3.565   3.779   1.146  0.3446  0.4212  0.3858
 7167TIP3    H143136   3.643   3.727   1.161 -0.3559 -0.7758 -0.0186
 7167TIP3    H243137   3.498   3.741   1.202 -0.2729  0.6545 -0.1676
 7168TIP3   OH243138   2.399   0.721   1.232  0.9319  0.1663  0.3540
 7168TIP3    H143139   2.421   0.646   1.176  2.0370  1.2976 -0.7666
 7168TIP3    H243140   2.349   0.780   1.176 -0.5708 -0.0057  1.4347
 7169TIP3   OH243141   0.125   4.787   2.081 -0.3119  0.0764 -0.9003
 7169TIP3    H143142   0.094   4.830   2.002  0.1771  1.6408 -0.2710
 7169TIP3    H243143   0.060   4.809   2.148  0.6920  1.1232 -0.2258
 7170TIP3   OH243144   1.166   6.551   6.655  0.6393  0.1711  0.1782
 7170TIP3    H143145   1.239   6.589   6.605 -1.1858  3.8330 -0.0901
 7170TIP3    H243146   1.100   6.530   6.589 -0.3866  1.6426  0.6669
 7171TIP3   OH243147   3.349   1.081   1.444  0.0326  0.4895  0.3119
 7171TIP3    H143148   3.382   1.014   1.383 -1.1023  0.0474  0.1551
 7171TIP3    H243149   3.393   1.062   1.526  0.5523  0.2402 -0.0152
 7172TIP3   OH243150   0.143   5.268   1.964 -0.1519 -0.1761 -0.0235
 7172TIP3    H143151   0.236   5.282   1.949 -0.3077  0.6814 -0.2981
 7172TIP3    H243152   0.101   5.344   1.923 -1.0435 -1.0729 -0.8289
 7173TIP3   OH243153   0.578   6.199   0.476 -0.2796 -0.1854 -0.3395
 7173TIP3    H143154   0.622   6.280   0.502  0.4645 -1.1849  1.8241
 7173TIP3    H243155   0.557   6.156   0.559  1.1595 -3.1486 -1.3676
 7174TIP3   OH243156   0.109   4.312   1.048 -0.1815  0.6674 -0.3182
 7174TIP3    H143157   0.066   4.376   1.104  0.5820  2.9036 -2.1343
 7174TIP3    H243158   0.167   4.263   1.107 -1.0954  1.3406  1.1963
 7175TIP3   OH243159   2.400   1.310   0.483 -0.5002  0.0023  0.6677
 7175TIP3    H143160   2.407   1.271   0.396  0.0823 -0.5779  0.9721
 7175TIP3    H243161   2.482   1.288   0.526  0.6761  3.0557  0.2738
 7176TIP3   OH243162   5.638   4.784   1.420  0.3634  0.2042 -0.2082
 7176TIP3    H143163   5.686   4.842   1.479  0.8328  0.9439 -1.2745
 7176TIP3    H243164   5.703   4.761   1.353 -0.4539  0.2896 -1.0429
 7177TIP3   OH243165   3.062   2.417   8.341 -0.1038 -0.1962 -0.1874
 7177TIP3    H143166   2.974   2.401   8.308  0.8372 -1.1336 -2.4967
 7177TIP3    H243167   3.118   2.357   8.291  1.9528  1.0058  0.5165
 7178TIP3   OH243168   4.958   1.290   8.819  0.4131  0.1415 -0.1755
 7178TIP3    H143169   4.890   1.224   8.803  1.6629 -0.7583 -2.1068
 7178TIP3    H243170   5.026   1.272   8.754  2.4337  1.1436  1.5008
 7179TIP3   OH243171   3.400   3.597   8.344  0.3743  0.2468  0.7696
 7179TIP3    H143172   3.340   3.639   8.406  1.4394  0.4589  1.6804
 7179TIP3    H243173   3.368   3.624   8.258 -2.0374 -1.2103  1.0790
 7180TIP3   OH243174   4.560   2.110   7.758  0.1736 -0.4263 -0.1000
 7180TIP3    H143175   4.567   2.035   7.700  0.8289  0.4855 -1.2613
 7180TIP3    H243176   4.610   2.179   7.714 -1.3460  1.0421  0.3391
 7181TIP3   OH243177   1.593   3.623   1.883  0.6652 -0.3390  0.0512
 7181TIP3    H143178   1.605   3.570   1.804 -0.7258 -3.7431  1.8744
 7181TIP3    H243179   1.499   3.622   1.899  0.8974  0.3006  1.6848
 7182TIP3   OH243180   6.662   4.785   0.842 -0.1108 -0.3355  0.2051
 7182TIP3    H143181   6.574   4.799   0.808 -0.6632 -3.0251  0.3682
 7182TIP3    H243182   6.717   4.783   0.763 -0.5367 -0.9046 -0.0841
 7183TIP3   OH243183   3.148   5.566   0.588  0.0923 -0.0083  0.2949
 7183TIP3    H143184   3.148   5.513   0.667  1.7811 -0.8419 -0.2114
 7183TIP3    H243185   3.210   5.637   0.607  0.0398  0.1301 -0.0486
 7184TIP3   OH243186   5.092   6.493   8.887 -0.3465 -0.1089 -0.2891
 7184TIP3    H143187   5.124   6.422   8.943  1.8616  1.9258  1.2412
 7184TIP3    H243188   5.153   6.565   8.903 -4.6539  3.6477  1.4826
 7185TIP3   OH243189   5.850   5.211   8.074 -0.5015 -0.3458 -0.1597
 7185TIP3    H143190   5.916   5.163   8.025 -0.0787  0.3848 -0.3210
 7185TIP3    H243191   5.804   5.144   8.125  1.7118 -0.6679  1.5780
 7186TIP3   OH243192   1.537   1.892   2.833 -0.0067  0.5050 -0.0685
 7186TIP3    H143193   1.515   1.935   2.916 -0.1624 -0.4298  0.3859
 7186TIP3    H243194   1.539   1.964   2.769 -2.4022  0.9357  0.2373
 7187TIP3   OH243195   3.263   3.788   7.685 -0.0881  0.1724  0.2299
 7187TIP3    H143196   3.296   3.706   7.648 -0.6905  0.7316 -1.6591
 7187TIP3    H243197   3.301   3.792   7.773  1.1157 -1.4174 -0.1786
 7188LIG     C143198   6.404   3.780   8.303  0.5068  0.1089  0.0614
 7188LIG     C243199   6.485   3.785   8.430  0.4259 -0.0703  0.0610
 7188LIG     C343200   6.442   3.887   8.530 -0.5151 -0.5794 -0.2013
 7188LIG      O43201   6.613   3.820   8.392  0.2017 -0.0828  0.0137
 7188LIG     H143202   6.300   3.754   8.334  0.8727 -0.6902  0.6633
 7188LIG     H243203   6.433   3.700   8.233  0.6604 -2.1874  2.5835
 7188LIG     H343204   6.402   3.873   8.242 -0.1284  0.5566  0.7394
 7188LIG     H443205   6.485   3.684   8.474  0.5692  0.4227  1.2263
 7188LIG     H543206   6.502   3.884   8.623  0.3260 -0.0086 -0.7207
 7188LIG     H643207   6.337   3.875   8.565 -0.4370  0.6204  0.4724
 7188LIG     H743208   6.449   3.988   8.486 -1.0859  0.5753  2.1925
 7188LIG     H843209   6.634   3.752   8.328  3.0002 -1.8432  2.5268
   6.79488   6.79488   8.93093
