Title
43194
    1CHL1    C3    1   6.606   6.552   5.992  0.3364  1.2964  0.5264
    1CHL1    H3    2   6.648   6.453   5.963 -0.6129  0.6647  1.2729
    1CHL1    O3    3   6.627   6.586   6.132 -0.2132 -0.1137  0.1237
    1CHL1   H3'    4   6.549   6.638   6.151 -0.3061  0.4655 -1.6428
    1CHL1    C4    5   6.671   6.667   5.913 -0.5670  0.4824  0.2347
    1CHL1   H4A    6   6.632   6.768   5.938  2.2248  1.0912  2.5898
    1CHL1   H4B    7   6.774   6.689   5.949 -0.8344 -0.7090  1.8368
    1CHL1    C5    8   6.666   6.647   5.762 -0.1305  0.0106  0.2092
    1CHL1    C6    9   6.785   6.651   5.697 -0.1091 -0.5030 -0.2633
    1CHL1    H6   10   6.878   6.676   5.750 -1.6492  1.6655  1.6300
    1CHL1    C7   11   6.788   6.631   5.548  0.5846  0.0478 -0.0433
    1CHL1   H7A   12   6.856   6.704   5.500  0.4665  0.7963  0.9079
    1CHL1   H7B   13   6.833   6.530   5.535 -1.0116 -0.6870 -0.0891
    1CHL1    C8   14   6.650   6.646   5.480  0.6222  0.2853  0.1788
    1CHL1    H8   15   6.620   6.753   5.479  0.5682  0.2729  0.3815
    1CHL1   C14   16   6.665   6.577   5.345  0.7971 -0.0463  0.3514
    1CHL1   H14   17   6.688   6.474   5.380 -0.1926  0.5683  3.0655
    1CHL1   C15   18   6.785   6.614   5.252  0.4632 -0.1060 -0.2764
    1CHL1  H15A   19   6.799   6.724   5.247  0.1859 -0.0220  0.5827
    1CHL1  H15B   20   6.880   6.567   5.286 -0.4976 -0.2140  2.4896
    1CHL1   C16   21   6.739   6.562   5.110 -1.0991  0.4397 -0.7704
    1CHL1  H16A   22   6.739   6.647   5.038 -0.2784  1.0925 -0.0358
    1CHL1  H16B   23   6.814   6.488   5.077 -0.9618  0.1722  0.1141
    1CHL1   C17   24   6.600   6.508   5.132  0.2096  0.6388 -0.2323
    1CHL1   H17   25   6.608   6.397   5.143  0.1184  0.8255  2.2597
    1CHL1   C13   26   6.542   6.574   5.264  0.0322 -0.2179  0.4506
    1CHL1   C18   27   6.504   6.714   5.219 -0.1822 -0.6197  1.0376
    1CHL1  H18A   28   6.567   6.750   5.135 -1.0846  0.1893  0.6820
    1CHL1  H18B   29   6.398   6.707   5.185 -0.4859 -1.5152  2.1183
    1CHL1  H18C   30   6.513   6.791   5.298 -1.5710  0.5325  0.1342
    1CHL1   C12   31   6.427   6.511   5.341 -0.4149  0.4355  0.9294
    1CHL1  H12A   32   6.337   6.535   5.280  0.6489 -1.8949 -1.7615
    1CHL1  H12B   33   6.451   6.403   5.351  1.5653  0.7279 -0.1238
    1CHL1   C11   34   6.405   6.568   5.480 -0.8928 -0.0279  0.1664
    1CHL1  H11A   35   6.364   6.669   5.460 -0.2335  0.1146 -0.5115
    1CHL1  H11B   36   6.330   6.504   5.530  0.4601 -2.1575 -0.4085
    1CHL1    C9   37   6.541   6.567   5.551  0.0497  0.6411  0.1684
    1CHL1    H9   38   6.577   6.463   5.565  1.9350  1.4251  1.6133
    1CHL1   C10   39   6.526   6.614   5.704 -0.5869  0.1463  0.0487
    1CHL1   C19   40   6.442   6.741   5.700 -0.6033 -0.4595  0.5354
    1CHL1  H19A   41   6.487   6.815   5.631  0.5713 -0.3274  1.3971
    1CHL1  H19B   42   6.337   6.714   5.679 -0.0513 -1.8604 -0.5878
    1CHL1  H19C   43   6.442   6.795   5.797 -0.0395  0.9208 -0.2063
    1CHL1    C1   44   6.462   6.504   5.793 -0.5979 -0.1053  0.1707
    1CHL1   H1A   45   6.359   6.486   5.755 -0.3358 -0.7324 -0.2699
    1CHL1   H1B   46   6.510   6.405   5.780 -0.4947  0.3201 -4.3855
    1CHL1    C2   47   6.462   6.536   5.942  0.2305 -0.2960  0.4775
    1CHL1   H2A   48   6.407   6.461   6.003  1.8161 -0.7240  1.4420
    1CHL1   H2B   49   6.418   6.635   5.968 -0.8459 -0.5336 -0.3894
    1CHL1   C20   50   6.509   6.516   4.996  0.1485  0.6532 -1.0500
    1CHL1   H20   51   6.482   6.621   4.973  1.6847  1.2307 -0.3931
    1CHL1   C21   52   6.374   6.442   5.030 -0.6172  0.0572 -0.3715
    1CHL1  H21A   53   6.329   6.417   4.931  0.0659 -0.7256 -0.4944
    1CHL1  H21B   54   6.307   6.500   5.097  0.4679 -0.1047  0.8942
    1CHL1  H21C   55   6.398   6.348   5.084  0.7668  1.0091  0.7368
    1CHL1   C22   56   6.583   6.459   4.871 -0.4404  0.1299  0.5901
    1CHL1  H22A   57   6.680   6.513   4.868 -0.2280 -0.1930  1.4361
    1CHL1  H22B   58   6.593   6.349   4.884  2.7934  0.3629  0.8385
    1CHL1   C23   59   6.506   6.483   4.737  0.4512 -0.8270  0.7273
    1CHL1  H23A   60   6.408   6.432   4.741  0.8817 -1.8153 -0.4893
    1CHL1  H23B   61   6.491   6.587   4.701  0.0907 -1.6987 -1.9081
    1CHL1   C24   62   6.587   6.433   4.618  0.1835  0.2856  0.4008
    1CHL1  H24A   63   6.695   6.436   4.641  0.2801 -0.0051 -0.0025
    1CHL1  H24B   64   6.567   6.324   4.605  0.2990  0.2934  0.1559
    1CHL1   C25   65   6.552   6.500   4.483  0.0419 -0.0442 -0.0066
    1CHL1   H25   66   6.575   6.608   4.489 -1.4253  0.2753  0.0802
    1CHL1   C26   67   6.644   6.446   4.370  0.5057  0.1864  0.8867
    1CHL1  H26A   68   6.634   6.336   4.357 -0.9793  0.1048  2.4189
    1CHL1  H26B   69   6.610   6.496   4.277  0.3950  0.3466  1.0125
    1CHL1  H26C   70   6.749   6.480   4.383  0.1203  0.7742  2.7503
    1CHL1   C27   71   6.408   6.487   4.436  0.4743 -0.3896 -0.4682
    1CHL1  H27A   72   6.379   6.382   4.416 -1.3260 -0.0714  0.2015
    1CHL1  H27B   73   6.338   6.539   4.506 -0.6822 -1.5671 -0.7205
    1CHL1  H27C   74   6.385   6.539   4.341 -0.9651  0.0643  0.0808
    2CHL1    C3   75   0.481   5.668   6.170 -0.1548  0.6902  0.4017
    2CHL1    H3   76   0.547   5.750   6.135  0.2655 -0.1855 -0.9602
    2CHL1    O3   77   0.515   5.644   6.302 -0.1738  0.8184 -0.5158
    2CHL1   H3'   78   0.610   5.639   6.315 -0.3232 -1.1864  0.0823
    2CHL1    C4   79   0.335   5.706   6.161 -0.0284 -0.1906 -0.2204
    2CHL1   H4A   80   0.275   5.621   6.202 -0.1960  0.6263  1.3030
    2CHL1   H4B   81   0.304   5.783   6.235  1.2504  0.6635 -0.5471
    2CHL1    C5   82   0.298   5.739   6.016  0.4288 -0.0942  0.6773
    2CHL1    C6   83   0.242   5.860   5.989 -0.7212 -0.3866  0.9040
    2CHL1    H6   84   0.221   5.932   6.070 -0.4828 -0.5514  1.1152
    2CHL1    C7   85   0.203   5.904   5.852  0.5537  0.1952 -0.0549
    2CHL1   H7A   86   0.105   5.955   5.846  0.5580  0.0876 -1.3042
    2CHL1   H7B   87   0.266   5.992   5.828 -0.2189  0.5409 -0.8338
    2CHL1    C8   88   0.213   5.794   5.745  0.4943 -0.2400  0.7359
    2CHL1    H8   89   0.122   5.730   5.750 -0.0853  0.5072  0.0762
    2CHL1   C14   90   0.190   5.853   5.609  0.3535  0.5462 -0.0354
    2CHL1   H14   91   0.270   5.931   5.609  0.6640  0.2525  1.1411
    2CHL1   C15   92   0.056   5.925   5.577 -0.2292 -0.4160 -0.0984
    2CHL1  H15A   93  -0.031   5.858   5.596 -0.3832 -1.4896 -3.8384
    2CHL1  H15B   94   0.049   6.016   5.639  2.3076 -1.2045  1.4825
    2CHL1   C16   95   0.076   5.949   5.424  0.2410  0.7861  0.3410
    2CHL1  H16A   96  -0.015   5.920   5.366  0.8900 -0.5186 -0.0762
    2CHL1  H16B   97   0.090   6.057   5.400 -1.0916  0.8966 -0.0730
    2CHL1   C17   98   0.202   5.867   5.375  0.2021 -0.4659 -0.0285
    2CHL1   H17   99   0.288   5.936   5.390  0.0741 -0.5653  1.3443
    2CHL1   C13  100   0.220   5.767   5.493  0.2583  0.0095 -0.3034
    2CHL1   C18  101   0.116   5.654   5.484  0.8728 -0.4507  0.0501
    2CHL1  H18A  102   0.114   5.585   5.571  1.0730 -0.3631  0.1250
    2CHL1  H18B  103   0.015   5.693   5.460  1.3150 -0.0372 -1.2104
    2CHL1  H18C  104   0.147   5.591   5.398  1.5163  0.8795 -0.7184
    2CHL1   C12  105   0.363   5.711   5.512 -0.6366  0.5814 -0.2271
    2CHL1  H12A  106   0.406   5.636   5.443  1.4733 -0.6900  2.2743
    2CHL1  H12B  107   0.452   5.775   5.534  0.0355 -0.8322  1.3614
    2CHL1   C11  108   0.372   5.623   5.640  0.2526 -0.0647 -0.1021
    2CHL1  H11A  109   0.311   5.531   5.627  0.4455 -0.2690  0.4166
    2CHL1  H11B  110   0.477   5.594   5.656  0.2438  0.5769  1.2264
    2CHL1    C9  111   0.335   5.708   5.759  0.9960  0.4544 -0.5298
    2CHL1    H9  112   0.421   5.778   5.753 -0.4239  2.4851  1.1652
    2CHL1   C10  113   0.333   5.637   5.904  0.3161  0.2824 -0.1328
    2CHL1   C19  114   0.228   5.528   5.903 -0.1320 -0.3683 -0.1894
    2CHL1  H19A  115   0.224   5.476   6.000 -1.0247  1.3874  0.7608
    2CHL1  H19B  116   0.124   5.560   5.882  0.0343 -0.6643 -1.5748
    2CHL1  H19C  117   0.252   5.453   5.824  0.7172  0.5508 -0.8393
    2CHL1    C1  118   0.473   5.576   5.940  0.1551  0.0141  0.9808
    2CHL1   H1A  119   0.474   5.477   5.891  0.6687  0.8846 -0.8468
    2CHL1   H1B  120   0.554   5.642   5.900 -1.4040  1.0196 -0.6432
    2CHL1    C2  121   0.509   5.547   6.084  0.3151 -0.2552 -0.1836
    2CHL1   H2A  122   0.617   5.521   6.092  0.0963 -1.3622 -0.6659
    2CHL1   H2B  123   0.460   5.455   6.124 -0.0653  1.4335  3.6079
    2CHL1   C20  124   0.179   5.816   5.226 -0.1488 -0.7181  0.6974
    2CHL1   H20  125   0.098   5.739   5.228  0.4263 -1.4979 -2.2694
    2CHL1   C21  126   0.305   5.755   5.174  0.1345  0.0618 -0.2444
    2CHL1  H21A  127   0.345   5.682   5.247  0.0185 -0.2034 -0.4424
    2CHL1  H21B  128   0.392   5.823   5.182  2.3959 -2.2542 -2.7555
    2CHL1  H21C  129   0.301   5.723   5.067 -0.1994  0.2181 -0.2811
    2CHL1   C22  130   0.143   5.926   5.126  0.1882 -0.0607 -0.1452
    2CHL1  H22A  131   0.055   5.984   5.162 -0.7721 -1.3437 -0.3502
    2CHL1  H22B  132   0.234   5.988   5.111  0.1412  0.1350  0.3533
    2CHL1   C23  133   0.112   5.875   4.980  0.4620  0.2193 -0.4323
    2CHL1  H23A  134   0.207   5.843   4.932  1.2169  1.6920 -0.0079
    2CHL1  H23B  135   0.052   5.782   4.992 -3.7477  2.6287 -0.6535
    2CHL1   C24  136   0.027   5.976   4.895 -0.5331 -0.2934 -0.1693
    2CHL1  H24A  137  -0.067   5.999   4.949  0.3016 -0.1080  1.2515
    2CHL1  H24B  138   0.074   6.077   4.889 -0.7414 -0.2607 -1.7795
    2CHL1   C25  139  -0.016   5.938   4.755 -0.0734  0.1488  0.9875
    2CHL1   H25  140  -0.079   6.023   4.720 -0.6750 -1.2360 -1.6160
    2CHL1   C26  141   0.103   5.921   4.665  0.5572 -0.3539 -0.5082
    2CHL1  H26A  142   0.176   6.004   4.678  1.1542 -1.3547  4.9158
    2CHL1  H26B  143   0.156   5.825   4.688  0.1744 -0.9721 -2.1093
    2CHL1  H26C  144   0.058   5.920   4.564 -1.6006  1.6337  0.3613
    2CHL1   C27  145  -0.105   5.813   4.754  0.4026  0.2468  1.2646
    2CHL1  H27A  146  -0.198   5.826   4.814 -0.2900 -1.8719  0.7390
    2CHL1  H27B  147  -0.145   5.794   4.652 -0.3536 -0.9883  1.7644
    2CHL1  H27C  148  -0.048   5.720   4.774 -0.4859  0.0379  3.0014
    3CHL1    C3  149   4.492   4.769   6.108 -0.0700  0.6849  0.4099
    3CHL1    H3  150   4.596   4.731   6.102 -0.6223 -0.7653 -0.3960
    3CHL1    O3  151   4.450   4.738   6.239 -0.2560 -0.2379  0.2434
    3CHL1   H3'  152   4.365   4.779   6.256 -0.5443  0.0371 -1.5972
    3CHL1    C4  153   4.484   4.923   6.068  0.2339  0.4595  0.3758
    3CHL1   H4A  154   4.386   4.968   6.094 -0.8508 -2.0631  0.9970
    3CHL1   H4B  155   4.566   4.959   6.134 -1.5414 -0.3237  3.1782
    3CHL1    C5  156   4.525   4.941   5.925 -0.0559 -0.2345  0.2456
    3CHL1    C6  157   4.635   5.021   5.893 -0.5889 -0.3436  0.4148
    3CHL1    H6  158   4.695   5.073   5.969  3.5521 -1.6856 -1.6075
    3CHL1    C7  159   4.681   5.039   5.748 -0.3363 -0.6820 -0.0311
    3CHL1   H7A  160   4.700   5.146   5.725 -0.3902 -0.5559  0.5000
    3CHL1   H7B  161   4.773   4.981   5.722 -1.8850 -2.7189 -1.2669
    3CHL1    C8  162   4.586   4.985   5.639  0.7786 -0.1014  0.1210
    3CHL1    H8  163   4.499   5.053   5.635 -2.5709 -3.8951  1.5701
    3CHL1   C14  164   4.657   4.970   5.508  0.0354 -0.2400  0.1332
    3CHL1   H14  165   4.729   4.887   5.523  0.6321  0.3152  0.3927
    3CHL1   C15  166   4.737   5.092   5.459 -0.5987 -0.5190  0.4869
    3CHL1  H15A  167   4.662   5.174   5.454  0.6636  0.6027 -1.1041
    3CHL1  H15B  168   4.822   5.117   5.526  0.2622 -1.3409 -0.2684
    3CHL1   C16  169   4.766   5.054   5.311 -0.0136  0.2046 -0.3353
    3CHL1  H16A  170   4.717   5.134   5.253  0.0380  0.2537 -0.3109
    3CHL1  H16B  171   4.875   5.036   5.294  0.1485 -1.0710  1.6937
    3CHL1   C17  172   4.686   4.919   5.279 -0.0389 -0.5422 -0.2189
    3CHL1   H17  173   4.750   4.832   5.307 -0.3501  0.1641  3.1095
    3CHL1   C13  174   4.578   4.906   5.392  0.1455  0.2296 -0.1655
    3CHL1   C18  175   4.462   4.997   5.357  0.2797 -0.4611  0.0491
    3CHL1  H18A  176   4.499   5.085   5.300  1.7966 -1.5219 -0.6746
    3CHL1  H18B  177   4.393   4.944   5.288 -0.4440  1.4024 -0.7227
    3CHL1  H18C  178   4.403   5.014   5.450 -0.5378  0.4255 -0.6096
    3CHL1   C12  179   4.519   4.766   5.433 -0.3934 -0.3257 -0.2258
    3CHL1  H12A  180   4.432   4.731   5.374 -1.2316 -1.6720  1.7024
    3CHL1  H12B  181   4.604   4.694   5.429 -1.3336 -1.4318 -0.5701
    3CHL1   C11  182   4.462   4.772   5.573  0.0860 -0.2965  0.3651
    3CHL1  H11A  183   4.362   4.813   5.545  0.0738  0.2899  1.2341
    3CHL1  H11B  184   4.444   4.665   5.600 -1.3687 -0.5448 -1.3761
    3CHL1    C9  185   4.538   4.845   5.682 -0.1496 -0.2299 -0.4827
    3CHL1    H9  186   4.629   4.784   5.699 -0.9562 -0.8528  1.9159
    3CHL1   C10  187   4.456   4.850   5.816  0.2527  0.3047  0.3696
    3CHL1   C19  188   4.309   4.902   5.787 -0.3898  0.3862 -0.3968
    3CHL1  H19A  189   4.248   4.862   5.703 -1.8900  2.8185 -0.5598
    3CHL1  H19B  190   4.246   4.876   5.875 -1.7013 -1.6407 -1.8267
    3CHL1  H19C  191   4.308   5.011   5.765  1.5548  0.4588 -0.3369
    3CHL1    C1  192   4.439   4.706   5.867 -0.3463 -0.6640  0.0681
    3CHL1   H1A  193   4.354   4.656   5.816 -3.0058  3.3949  0.0458
    3CHL1   H1B  194   4.538   4.655   5.860  1.1690  2.1872 -0.7584
    3CHL1    C2  195   4.399   4.693   6.016 -0.1288 -0.0296 -0.5301
    3CHL1   H2A  196   4.398   4.584   6.037  0.0115  0.1218  0.2862
    3CHL1   H2B  197   4.295   4.730   6.027  0.6999  2.3968 -0.2744
    3CHL1   C20  198   4.647   4.895   5.124  0.4656 -0.5861  0.2035
    3CHL1   H20  199   4.587   4.985   5.102  1.6676 -0.2044 -1.7207
    3CHL1   C21  200   4.553   4.774   5.108 -0.0301  0.0170 -0.1187
    3CHL1  H21A  201   4.602   4.681   5.144 -1.1652 -0.1147  1.1840
    3CHL1  H21B  202   4.521   4.770   5.002 -2.8899  2.2612  0.5267
    3CHL1  H21C  203   4.463   4.789   5.171  0.6438  0.1551  0.8355
    3CHL1   C22  204   4.766   4.901   5.036  0.2366 -0.0224  1.1386
    3CHL1  H22A  205   4.722   4.867   4.940 -1.8174  1.0142  1.6521
    3CHL1  H22B  206   4.811   5.001   5.025  0.1109 -0.2152 -1.8301
    3CHL1   C23  207   4.870   4.797   5.080  0.5339 -0.3262 -0.4345
    3CHL1  H23A  208   4.924   4.825   5.173  2.0483 -0.2563 -1.3004
    3CHL1  H23B  209   4.822   4.698   5.095  3.3414 -1.6659  0.3679
    3CHL1   C24  210   4.987   4.772   4.982  0.1227  0.0085  0.6528
    3CHL1  H24A  211   4.952   4.752   4.879  0.8558 -0.1321  0.4236
    3CHL1  H24B  212   5.035   4.872   4.972 -1.6172  0.6998 -1.5202
    3CHL1   C25  213   5.092   4.667   5.016 -0.5561  0.1317 -0.5199
    3CHL1   H25  214   5.051   4.563   5.017  0.9944 -0.5019 -0.7853
    3CHL1   C26  215   5.197   4.656   4.908  0.0220  0.4267 -0.0589
    3CHL1  H26A  216   5.251   4.560   4.923  1.2826  0.3876 -3.8601
    3CHL1  H26B  217   5.152   4.638   4.808 -2.2874  0.6627  0.8733
    3CHL1  H26C  218   5.272   4.737   4.899 -0.0208  0.2117 -3.2979
    3CHL1   C27  219   5.160   4.678   5.153  0.5744  0.4487 -0.0149
    3CHL1  H27A  220   5.211   4.776   5.166  1.2876  0.2474 -1.1848
    3CHL1  H27B  221   5.080   4.674   5.231  1.0228  1.5714  0.5200
    3CHL1  H27C  222   5.224   4.590   5.174  0.6188  0.0570 -1.7049
    4CHL1    C3  223   5.804   6.000   6.181  0.3079 -0.1977 -0.2966
    4CHL1    H3  224   5.855   5.909   6.140 -1.6768 -0.5646 -2.1497
    4CHL1    O3  225   5.793   5.985   6.319  0.2949  0.3017 -0.3580
    4CHL1   H3'  226   5.707   5.948   6.338  1.2133 -1.2499  0.9336
    4CHL1    C4  227   5.893   6.125   6.153  0.3720  0.4894  0.8416
    4CHL1   H4A  228   5.851   6.212   6.207  1.0430  0.2633  1.7550
    4CHL1   H4B  229   5.992   6.107   6.200 -0.1529 -0.3120  1.6775
    4CHL1    C5  230   5.909   6.161   6.003 -0.7470  0.3138 -0.8564
    4CHL1    C6  231   6.033   6.185   5.957 -0.5599 -0.2835 -0.4937
    4CHL1    H6  232   6.121   6.191   6.022  0.0085  0.0984 -1.2795
    4CHL1    C7  233   6.072   6.204   5.810 -0.0376 -0.4612 -0.4449
    4CHL1   H7A  234   6.139   6.293   5.804 -1.4369  0.7110  0.6092
    4CHL1   H7B  235   6.124   6.114   5.770 -0.0586 -0.9843  0.6819
    4CHL1    C8  236   5.944   6.241   5.740  0.0742  0.2693 -0.1071
    4CHL1    H8  237   5.921   6.348   5.759 -1.4151 -0.1201  0.4703
    4CHL1   C14  238   5.974   6.223   5.594  0.1676  0.3247  0.3136
    4CHL1   H14  239   6.000   6.115   5.584  0.1588  0.2743  0.8220
    4CHL1   C15  240   6.093   6.289   5.540 -0.0893  0.0931  1.1187
    4CHL1  H15A  241   6.082   6.399   5.550 -0.8120  0.1905 -0.3828
    4CHL1  H15B  242   6.189   6.253   5.581  0.1619  0.4227  0.8259
    4CHL1   C16  243   6.077   6.261   5.388 -0.4583 -0.9182  0.3687
    4CHL1  H16A  244   6.113   6.346   5.325  0.0694 -1.9420 -0.7664
    4CHL1  H16B  245   6.143   6.180   5.350 -0.5777 -0.6837 -0.3629
    4CHL1   C17  246   5.931   6.215   5.357  0.3398 -0.3737  1.0056
    4CHL1   H17  247   5.928   6.104   5.345 -2.2884 -0.2946  0.4494
    4CHL1   C13  248   5.862   6.238   5.496 -1.1352 -0.7389  0.5903
    4CHL1   C18  249   5.820   6.388   5.508 -0.1186  0.5835  0.5712
    4CHL1  H18A  250   5.727   6.412   5.452 -0.1669 -0.8960 -0.0186
    4CHL1  H18B  251   5.800   6.419   5.613 -0.7581  0.6690  0.4268
    4CHL1  H18C  252   5.892   6.466   5.474 -0.1927  0.4904  0.1946
    4CHL1   C12  253   5.738   6.150   5.539  0.1053 -0.3250 -0.5644
    4CHL1  H12A  254   5.651   6.162   5.471 -1.5016 -1.4305  1.2097
    4CHL1  H12B  255   5.790   6.052   5.538  1.7615  0.5059 -0.0463
    4CHL1   C11  256   5.703   6.177   5.685  0.2304  0.2397  0.1585
    4CHL1  H11A  257   5.663   6.280   5.695  2.6930  1.7092 -3.2811
    4CHL1  H11B  258   5.629   6.098   5.714  0.8674 -1.0508 -1.5412
    4CHL1    C9  259   5.821   6.150   5.782 -0.1094  0.2096  0.1885
    4CHL1    H9  260   5.845   6.043   5.766 -0.4504  0.0044  1.0295
    4CHL1   C10  261   5.780   6.160   5.933 -0.5341 -0.1699 -0.4489
    4CHL1   C19  262   5.711   6.294   5.965  0.3008 -0.8388  0.0407
    4CHL1  H19A  263   5.620   6.298   5.902  2.5548 -0.3218 -3.4713
    4CHL1  H19B  264   5.683   6.296   6.073 -0.8820  0.9357 -0.2600
    4CHL1  H19C  265   5.769   6.384   5.937  0.8410 -1.9310 -2.6001
    4CHL1    C1  266   5.686   6.042   5.972  0.0687  0.1560  0.8320
    4CHL1   H1A  267   5.588   6.064   5.924  1.3664 -0.1601 -2.1181
    4CHL1   H1B  268   5.723   5.948   5.927  1.4269  1.0944 -0.0761
    4CHL1    C2  269   5.662   6.017   6.120 -0.4489  0.0497 -0.4402
    4CHL1   H2A  270   5.599   5.927   6.140  0.0469 -0.3997 -0.8599
    4CHL1   H2B  271   5.615   6.108   6.161  2.9765  0.8581  2.1752
    4CHL1   C20  272   5.866   6.270   5.235  0.3005  0.2391  0.1071
    4CHL1   H20  273   5.861   6.380   5.249  0.6679  0.3031 -0.2541
    4CHL1   C21  274   5.722   6.212   5.228  0.4718 -0.1408  0.4616
    4CHL1  H21A  275   5.693   6.222   5.122  2.3094 -2.6287 -0.3654
    4CHL1  H21B  276   5.649   6.276   5.283  1.6274  1.8524 -0.2390
    4CHL1  H21C  277   5.711   6.108   5.265 -0.8476 -0.0085  0.4698
    4CHL1   C22  278   5.946   6.239   5.102 -0.3607  0.1621 -0.0968
    4CHL1  H22A  279   6.047   6.281   5.118 -0.2290 -0.6028  1.2221
    4CHL1  H22B  280   5.956   6.130   5.080  1.1964  0.5737 -1.6688
    4CHL1   C23  281   5.901   6.313   4.970  0.2200  0.2924 -0.5145
    4CHL1  H23A  282   5.830   6.243   4.920 -0.3685 -0.6801  1.5684
    4CHL1  H23B  283   5.840   6.402   4.996 -1.8634 -0.5886 -2.0389
    4CHL1   C24  284   6.015   6.343   4.881 -0.3017  0.7993 -0.9572
    4CHL1  H24A  285   6.087   6.413   4.928  2.0055  0.5439 -3.7818
    4CHL1  H24B  286   6.059   6.246   4.849 -0.6463 -0.1712  1.3177
    4CHL1   C25  287   5.972   6.414   4.748  0.2389 -0.5608  0.2774
    4CHL1   H25  288   5.935   6.515   4.777 -2.7310 -0.3087 -3.5482
    4CHL1   C26  289   6.083   6.448   4.652 -0.0583  0.4455 -0.3586
    4CHL1  H26A  290   6.063   6.514   4.566  2.3503 -0.3514 -1.6151
    4CHL1  H26B  291   6.153   6.513   4.709 -0.0079 -0.3556  0.5212
    4CHL1  H26C  292   6.141   6.355   4.634 -0.5055  0.1165 -0.1053
    4CHL1   C27  293   5.861   6.336   4.680 -0.3704 -0.1554 -0.5042
    4CHL1  H27A  294   5.895   6.243   4.632 -1.0333 -1.5877  1.6555
    4CHL1  H27B  295   5.776   6.302   4.743  1.2897 -2.4787  0.6138
    4CHL1  H27C  296   5.830   6.399   4.594  3.0197  0.6582 -1.2760
    5CHL1    C3  297   6.042   2.494   6.290 -0.1469  0.8672  0.5928
    5CHL1    H3  298   5.953   2.436   6.256  1.2781 -0.3440 -1.3418
    5CHL1    O3  299   6.017   2.530   6.424 -0.2354 -0.3048  0.4495
    5CHL1   H3'  300   6.101   2.572   6.445 -0.6432  0.4088  0.6559
    5CHL1    C4  301   6.162   2.393   6.287  0.4661  0.3742 -0.8521
    5CHL1   H4A  302   6.246   2.440   6.342 -0.1067 -0.1796  0.5535
    5CHL1   H4B  303   6.136   2.302   6.346  0.3983 -1.3748 -3.3934
    5CHL1    C5  304   6.207   2.354   6.146  0.3198 -0.1383 -0.2873
    5CHL1    C6  305   6.219   2.227   6.113  0.5102  0.3324 -0.2488
    5CHL1    H6  306   6.191   2.155   6.192  2.1529  1.0347  1.0240
    5CHL1    C7  307   6.265   2.180   5.976  0.3369  0.3767 -0.2820
    5CHL1   H7A  308   6.347   2.106   5.982 -0.9133 -0.9713  1.8314
    5CHL1   H7B  309   6.182   2.127   5.925  0.1168  1.2771 -0.8818
    5CHL1    C8  310   6.326   2.301   5.894 -0.0884 -0.5304 -0.1932
    5CHL1    H8  311   6.425   2.333   5.934 -0.7591 -1.5044  2.4596
    5CHL1   C14  312   6.323   2.255   5.745 -0.4999 -0.0216 -0.0495
    5CHL1   H14  313   6.215   2.255   5.723 -0.1313 -1.6797 -2.1326
    5CHL1   C15  314   6.371   2.120   5.710 -0.4521  0.0575  0.5145
    5CHL1  H15A  315   6.468   2.094   5.758  0.3667 -0.6717 -1.3970
    5CHL1  H15B  316   6.298   2.042   5.739 -2.0890  0.5973 -1.8442
    5CHL1   C16  317   6.388   2.127   5.561  0.0019  0.1343 -0.3815
    5CHL1  H16A  318   6.485   2.087   5.526 -0.7973  0.6538 -3.5159
    5CHL1  H16B  319   6.310   2.073   5.503 -0.4779  1.7319 -1.2831
    5CHL1   C17  320   6.369   2.273   5.522 -0.6622 -0.0229  0.1668
    5CHL1   H17  321   6.261   2.291   5.500 -1.0003  1.2856  2.5612
    5CHL1   C13  322   6.388   2.349   5.649 -0.2254  1.1950 -0.1006
    5CHL1   C18  323   6.536   2.360   5.688  0.5857  0.0477 -0.4064
    5CHL1  H18A  324   6.585   2.412   5.603  0.9002  0.5317  0.0643
    5CHL1  H18B  325   6.545   2.427   5.776  0.1288 -1.3104  0.7194
    5CHL1  H18C  326   6.589   2.267   5.715  1.0409  1.0593  2.5432
    5CHL1   C12  327   6.301   2.479   5.654 -0.5440 -0.0412 -0.1366
    5CHL1  H12A  328   6.348   2.559   5.593  0.2045 -0.7371 -0.5087
    5CHL1  H12B  329   6.201   2.462   5.609 -1.2707  1.7144  0.7352
    5CHL1   C11  330   6.271   2.533   5.799 -0.1135  0.2046  0.2922
    5CHL1  H11A  331   6.369   2.574   5.832  0.3589 -0.8581  0.2583
    5CHL1  H11B  332   6.196   2.615   5.800 -0.8423 -0.3828  3.7427
    5CHL1    C9  333   6.230   2.427   5.901  0.6483  0.1456 -0.1503
    5CHL1    H9  334   6.131   2.396   5.861  0.7320  0.8700 -0.9418
    5CHL1   C10  335   6.221   2.478   6.053 -0.2326  0.6267  0.0127
    5CHL1   C19  336   6.356   2.540   6.093 -0.4633 -0.0505 -0.1375
    5CHL1  H19A  337   6.388   2.621   6.024 -1.4677 -1.0897 -1.8842
    5CHL1  H19B  338   6.351   2.585   6.195 -0.0253 -0.0210 -0.1289
    5CHL1  H19C  339   6.440   2.468   6.101  0.2209  0.8296  0.8360
    5CHL1    C1  340   6.101   2.571   6.063 -0.5136  0.2197  0.3790
    5CHL1   H1A  341   6.118   2.662   6.001  2.1491 -0.3658  0.1119
    5CHL1   H1B  342   6.009   2.518   6.031 -0.6845 -1.7485  3.6561
    5CHL1    C2  343   6.081   2.615   6.203  0.2934 -0.4481  0.1050
    5CHL1   H2A  344   5.989   2.678   6.211 -0.4140 -0.9707 -2.8866
    5CHL1   H2B  345   6.168   2.669   6.245 -0.4475  2.0690 -1.3764
    5CHL1   C20  346   6.444   2.310   5.392 -0.1160 -0.3891 -0.2016
    5CHL1   H20  347   6.550   2.282   5.409 -0.1099  1.2455  3.1827
    5CHL1   C21  348   6.421   2.456   5.348 -0.1053 -0.7713 -0.1148
    5CHL1  H21A  349   6.479   2.490   5.260 -0.2825  1.1450  0.4567
    5CHL1  H21B  350   6.470   2.511   5.432  1.4167 -0.6130 -1.0676
    5CHL1  H21C  351   6.316   2.485   5.328  0.6518  1.6374 -1.0680
    5CHL1   C22  352   6.396   2.224   5.271 -0.3255 -0.2932  0.6318
    5CHL1  H22A  353   6.386   2.115   5.287 -5.2529 -0.3615 -1.0611
    5CHL1  H22B  354   6.294   2.264   5.252  1.1606  2.3750 -2.9702
    5CHL1   C23  355   6.477   2.252   5.137 -0.2366  0.4479  0.6327
    5CHL1  H23A  356   6.494   2.359   5.113  0.2151  0.3261  0.3996
    5CHL1  H23B  357   6.573   2.200   5.156 -0.3191 -0.3872 -1.0852
    5CHL1   C24  358   6.418   2.186   5.006  0.1508  0.6441  0.4684
    5CHL1  H24A  359   6.398   2.081   5.035 -0.8483  0.8577  0.5794
    5CHL1  H24B  360   6.324   2.240   4.980  0.1965 -0.0659 -1.2649
    5CHL1   C25  361   6.513   2.187   4.890  0.0428  0.5124  0.3128
    5CHL1   H25  362   6.600   2.134   4.933  1.3641  1.5510 -0.9769
    5CHL1   C26  363   6.455   2.107   4.773  0.1279 -0.0116 -0.4238
    5CHL1  H26A  364   6.384   2.173   4.719  1.8056  3.3253  1.1159
    5CHL1  H26B  365   6.538   2.087   4.702 -0.3055 -0.9428 -0.6868
    5CHL1  H26C  366   6.394   2.019   4.801 -1.9716  1.9747  1.7452
    5CHL1   C27  367   6.560   2.318   4.836  0.2067 -0.5016  0.7578
    5CHL1  H27A  368   6.609   2.384   4.911  2.2346  1.8633 -2.3808
    5CHL1  H27B  369   6.618   2.297   4.743 -4.1284 -1.7713 -1.9310
    5CHL1  H27C  370   6.466   2.363   4.799  0.3879  0.0958  1.0193
    6CHL1    C3  371   5.304   5.529   6.037  0.0610 -0.0933  0.3241
    6CHL1    H3  372   5.272   5.435   5.988  1.6160 -0.7364  0.4814
    6CHL1    O3  373   5.285   5.515   6.178 -0.1768  0.0566  0.2226
    6CHL1   H3'  374   5.259   5.601   6.211 -0.0677  0.4760 -0.7415
    6CHL1    C4  375   5.450   5.560   5.994 -0.4193 -0.3478 -0.4274
    6CHL1   H4A  376   5.475   5.651   6.052  0.4729 -2.2036  2.3029
    6CHL1   H4B  377   5.513   5.488   6.051 -0.3953  0.7908  1.0274
    6CHL1    C5  378   5.475   5.565   5.847 -0.7841 -0.5297 -0.2983
    6CHL1    C6  379   5.559   5.478   5.785  0.0505 -0.1416  0.2978
    6CHL1    H6  380   5.616   5.410   5.850  1.4217 -0.5315 -1.2447
    6CHL1    C7  381   5.577   5.465   5.635 -0.3174  0.4288 -0.0721
    6CHL1   H7A  382   5.682   5.442   5.607 -0.2714  0.2146  0.2703
    6CHL1   H7B  383   5.516   5.385   5.589 -0.7288  0.4469  0.4299
    6CHL1    C8  384   5.539   5.595   5.568 -0.0178  0.8211 -0.2469
    6CHL1    H8  385   5.622   5.667   5.584 -0.9244  2.3832 -2.1392
    6CHL1   C14  386   5.535   5.580   5.417 -0.4676  0.0972 -0.3702
    6CHL1   H14  387   5.457   5.502   5.406 -0.3717  0.0786 -0.9472
    6CHL1   C15  388   5.661   5.514   5.351 -0.5420  0.4521  0.1771
    6CHL1  H15A  389   5.751   5.569   5.385  0.6147  0.0633 -2.0569
    6CHL1  H15B  390   5.679   5.405   5.364  1.5940  0.6470 -0.7720
    6CHL1   C16  391   5.648   5.552   5.206  0.7167  0.0858 -0.5200
    6CHL1  H16A  392   5.742   5.605   5.180  1.8604 -1.4482  0.3096
    6CHL1  H16B  393   5.652   5.466   5.135 -1.0130 -0.8968  0.4868
    6CHL1   C17  394   5.523   5.645   5.188 -0.3866  0.1426  0.1013
    6CHL1   H17  395   5.434   5.578   5.180  0.4656 -1.4507  2.5880
    6CHL1   C13  396   5.503   5.702   5.334  0.5192  0.3635  0.4297
    6CHL1   C18  397   5.612   5.812   5.358  0.2883 -0.1663 -0.4862
    6CHL1  H18A  398   5.711   5.782   5.319  0.2809 -1.8960  0.6963
    6CHL1  H18B  399   5.572   5.903   5.307  1.5424  0.4898 -0.3356
    6CHL1  H18C  400   5.627   5.845   5.463 -1.1810  1.2660 -0.6775
    6CHL1   C12  401   5.357   5.740   5.373 -0.1796 -0.1831  0.0941
    6CHL1  H12A  402   5.333   5.839   5.328 -0.5845 -0.1511  0.3706
    6CHL1  H12B  403   5.296   5.660   5.327  0.2498 -0.6201  0.2798
    6CHL1   C11  404   5.346   5.768   5.526 -0.3187  1.0463  0.1650
    6CHL1  H11A  405   5.403   5.860   5.551 -0.1383  0.1653  3.4030
    6CHL1  H11B  406   5.246   5.781   5.572  0.5154 -0.2832  2.4755
    6CHL1    C9  407   5.404   5.655   5.617 -0.8282  0.2516  0.7819
    6CHL1    H9  408   5.327   5.578   5.597  0.3801 -1.4379  2.2539
    6CHL1   C10  409   5.393   5.670   5.772 -0.3402  0.2802 -0.3574
    6CHL1   C19  410   5.453   5.808   5.806 -0.0988 -0.2262 -0.1498
    6CHL1  H19A  411   5.446   5.832   5.914  0.2054  0.2564 -0.2356
    6CHL1  H19B  412   5.560   5.824   5.783  0.2062  2.0793  2.3797
    6CHL1  H19C  413   5.404   5.898   5.762  1.5486 -0.0962 -1.8304
    6CHL1    C1  414   5.245   5.663   5.824  0.2775 -0.1705  0.0741
    6CHL1   H1A  415   5.196   5.758   5.792  2.0078  1.4351  1.9400
    6CHL1   H1B  416   5.190   5.578   5.777 -0.0344  0.3487 -0.5140
    6CHL1    C2  417   5.223   5.648   5.978  0.0748 -0.4056 -0.4841
    6CHL1   H2A  418   5.114   5.637   5.997 -0.6425  1.0549 -3.1784
    6CHL1   H2B  419   5.260   5.739   6.030 -1.1975  0.2278 -0.6584
    6CHL1   C20  420   5.525   5.750   5.072 -0.3420  0.3609 -1.0427
    6CHL1   H20  421   5.538   5.852   5.115 -1.5025  0.3022 -0.5181
    6CHL1   C21  422   5.382   5.744   5.001 -0.4233  0.3239  0.4607
    6CHL1  H21A  423   5.374   5.840   4.944 -0.8224 -0.1102 -0.2267
    6CHL1  H21B  424   5.304   5.739   5.079 -2.6497  2.1080 -1.4952
    6CHL1  H21C  425   5.367   5.654   4.938 -0.9098  1.2731 -0.8173
    6CHL1   C22  426   5.634   5.732   4.969  0.1874 -0.4033  0.2685
    6CHL1  H22A  427   5.733   5.765   5.007  0.4447 -1.0689  0.1786
    6CHL1  H22B  428   5.639   5.629   4.928 -1.0195 -0.3345 -0.1029
    6CHL1   C23  429   5.605   5.832   4.844  0.2110 -0.4412 -0.0792
    6CHL1  H23A  430   5.518   5.795   4.786 -0.6688  0.8980  0.3414
    6CHL1  H23B  431   5.574   5.932   4.880 -2.3553 -1.5098  0.9395
    6CHL1   C24  432   5.728   5.826   4.757  0.0837  0.4258 -0.5096
    6CHL1  H24A  433   5.817   5.862   4.813  0.0085  0.7409 -0.5900
    6CHL1  H24B  434   5.740   5.724   4.716  1.7810  1.4611 -2.8257
    6CHL1   C25  435   5.716   5.926   4.644  0.0325  0.1741  0.3090
    6CHL1   H25  436   5.705   6.023   4.698 -0.9211  0.8613 -1.0491
    6CHL1   C26  437   5.844   5.939   4.550 -0.3484  0.6982 -0.5383
    6CHL1  H26A  438   5.937   5.969   4.603  1.1261  0.0445 -2.6158
    6CHL1  H26B  439   5.864   5.839   4.505  0.8715  1.0605 -0.8545
    6CHL1  H26C  440   5.816   6.014   4.472 -2.0245 -0.9039 -1.5614
    6CHL1   C27  441   5.585   5.913   4.558  0.2810 -0.5698  0.6749
    6CHL1  H27A  442   5.573   5.822   4.496 -2.0934  0.9262 -1.2078
    6CHL1  H27B  443   5.495   5.911   4.623 -0.3922  2.7996  0.0555
    6CHL1  H27C  444   5.573   5.996   4.485  1.9910  0.1465  1.1361
    7CHL1    C3  445   1.368   6.308   6.152  0.1748 -0.2967  0.6461
    7CHL1    H3  446   1.475   6.336   6.142  0.0628  0.2509  0.9750
    7CHL1    O3  447   1.341   6.312   6.290  0.1954 -0.3638 -0.6853
    7CHL1   H3'  448   1.303   6.228   6.314  1.4430 -0.1615  2.4825
    7CHL1    C4  449   1.288   6.411   6.069  0.1480 -0.1434 -0.3522
    7CHL1   H4A  450   1.180   6.408   6.095  0.5332 -0.5820  1.3099
    7CHL1   H4B  451   1.307   6.512   6.110 -0.4431 -0.2393  0.1758
    7CHL1    C5  452   1.326   6.411   5.921  0.2538  0.6852  0.5525
    7CHL1    C6  453   1.381   6.516   5.860 -0.0861  0.0965 -1.3370
    7CHL1    H6  454   1.403   6.614   5.906 -0.2516 -0.1185 -0.7923
    7CHL1    C7  455   1.406   6.516   5.708  0.4631 -0.0813 -0.9905
    7CHL1   H7A  456   1.372   6.613   5.666  1.0438  0.8462  0.5810
    7CHL1   H7B  457   1.517   6.512   5.701  0.5217 -0.9111  0.1573
    7CHL1    C8  458   1.334   6.401   5.633  0.4728  0.0346  0.0450
    7CHL1    H8  459   1.223   6.411   5.634  0.2764 -1.8929  0.5878
    7CHL1   C14  460   1.400   6.394   5.496 -0.6515  0.4464  0.0611
    7CHL1   H14  461   1.503   6.369   5.528 -0.8744  0.0606  0.4943
    7CHL1   C15  462   1.417   6.520   5.412  0.1563  0.7116 -0.0096
    7CHL1  H15A  463   1.318   6.571   5.414 -0.5738 -0.6627  1.3262
    7CHL1  H15B  464   1.501   6.586   5.441 -0.6920  1.9959 -0.4069
    7CHL1   C16  465   1.444   6.474   5.271  0.3891  0.2171  0.7630
    7CHL1  H16A  466   1.370   6.516   5.199  0.7095 -1.8395 -0.8675
    7CHL1  H16B  467   1.551   6.494   5.250  0.3363  0.7720  1.0111
    7CHL1   C17  468   1.428   6.316   5.275  0.3973 -0.2284  0.5912
    7CHL1   H17  469   1.528   6.276   5.305  1.5389 -0.3148 -2.9156
    7CHL1   C13  470   1.335   6.290   5.402 -0.3189 -0.0873 -0.0956
    7CHL1   C18  471   1.184   6.328   5.374  0.7227 -0.0960  0.0029
    7CHL1  H18A  472   1.167   6.426   5.326  0.0934  1.1176  2.5030
    7CHL1  H18B  473   1.147   6.246   5.309 -0.1002  0.0153  0.3204
    7CHL1  H18C  474   1.119   6.318   5.464  0.2032  0.5454 -0.2965
    7CHL1   C12  475   1.349   6.153   5.473 -0.2822  0.4081  0.8285
    7CHL1  H12A  476   1.282   6.083   5.417  0.6038 -0.5601  0.9471
    7CHL1  H12B  477   1.446   6.100   5.479 -1.2597 -1.5917  0.1729
    7CHL1   C11  478   1.289   6.155   5.618 -0.4989  0.1768  0.1976
    7CHL1  H11A  479   1.180   6.171   5.609 -0.5363  0.8780  1.6063
    7CHL1  H11B  480   1.294   6.056   5.669  0.5857  0.1201  0.0030
    7CHL1    C9  481   1.350   6.266   5.707  1.0759 -0.3173  0.3251
    7CHL1    H9  482   1.457   6.238   5.697  0.8790 -1.4604  1.3117
    7CHL1   C10  483   1.303   6.267   5.855  0.2281  0.1812 -0.1219
    7CHL1   C19  484   1.153   6.245   5.856  0.3679 -0.8816  0.2533
    7CHL1  H19A  485   1.100   6.318   5.791 -0.9269 -0.7900  1.3602
    7CHL1  H19B  486   1.124   6.143   5.824  0.0655 -0.4142 -1.0607
    7CHL1  H19C  487   1.115   6.270   5.957  0.6717 -0.2954  0.2238
    7CHL1    C1  488   1.379   6.161   5.939  0.3070  0.1358 -0.1356
    7CHL1   H1A  489   1.355   6.060   5.900  0.8691  0.4659 -1.3587
    7CHL1   H1B  490   1.488   6.177   5.924  0.7416 -1.4981  1.0020
    7CHL1    C2  491   1.348   6.163   6.094  0.0396  0.3116  0.1030
    7CHL1   H2A  492   1.410   6.089   6.150 -2.8908 -2.3716  0.1187
    7CHL1   H2B  493   1.243   6.135   6.116 -0.0861  0.8756  0.2200
    7CHL1   C20  494   1.384   6.252   5.137 -0.3815  0.0918 -0.6709
    7CHL1   H20  495   1.278   6.284   5.124 -0.4711 -0.4313 -1.2492
    7CHL1   C21  496   1.399   6.100   5.143  0.2567  0.3196 -0.2945
    7CHL1  H21A  497   1.327   6.058   5.216 -1.4296  1.4516 -1.2587
    7CHL1  H21B  498   1.500   6.068   5.176 -0.9112 -3.1721  0.3498
    7CHL1  H21C  499   1.376   6.060   5.042 -1.6318  1.2257 -0.2542
    7CHL1   C22  500   1.458   6.308   5.013  0.4194  0.4236  1.1165
    7CHL1  H22A  501   1.456   6.419   5.002 -2.3269  0.2732 -1.1667
    7CHL1  H22B  502   1.563   6.273   5.017  0.8467  0.7569 -2.8683
    7CHL1   C23  503   1.388   6.273   4.871  0.1294 -0.1919 -0.5741
    7CHL1  H23A  504   1.385   6.162   4.870  0.2215 -0.1950 -1.0731
    7CHL1  H23B  505   1.282   6.302   4.862  0.5214  1.6067  0.0916
    7CHL1   C24  506   1.480   6.321   4.754 -0.0603  0.9020 -0.1346
    7CHL1  H24A  507   1.500   6.430   4.754  0.1407  0.8669  0.3266
    7CHL1  H24B  508   1.581   6.282   4.778 -0.2515 -0.4476 -1.3546
    7CHL1   C25  509   1.448   6.274   4.610  0.7480 -0.2797 -0.1224
    7CHL1   H25  510   1.452   6.163   4.609  1.2171 -0.2852  1.0111
    7CHL1   C26  511   1.305   6.313   4.563 -0.5618  0.2669 -0.3827
    7CHL1  H26A  512   1.239   6.294   4.650 -1.7657 -0.7659 -1.4703
    7CHL1  H26B  513   1.311   6.421   4.539  1.3737  0.0374 -1.0941
    7CHL1  H26C  514   1.272   6.246   4.480  1.9449 -1.1146 -0.3686
    7CHL1   C27  515   1.553   6.326   4.504  0.2215  0.1061 -0.2640
    7CHL1  H27A  516   1.531   6.434   4.486 -0.4989  0.6083  2.9967
    7CHL1  H27B  517   1.656   6.318   4.545 -0.6827  0.9395  2.4217
    7CHL1  H27C  518   1.544   6.261   4.415  2.4132  0.5912 -0.9063
    8CHL1    C3  519   3.616   1.158   5.835  0.1239 -0.6072  0.2194
    8CHL1    H3  520   3.589   1.260   5.869 -0.0360 -0.3115 -0.7662
    8CHL1    O3  521   3.698   1.094   5.933  0.4787  0.2256  0.5951
    8CHL1   H3'  522   3.722   1.009   5.894 -0.2187  0.5617 -0.6110
    8CHL1    C4  523   3.487   1.079   5.804 -0.0673 -0.3512 -0.2513
    8CHL1   H4A  524   3.511   0.974   5.775 -0.2300 -0.4261 -0.1249
    8CHL1   H4B  525   3.437   1.056   5.901 -1.3220 -0.3314 -0.8644
    8CHL1    C5  526   3.409   1.142   5.691  0.0017  0.5381  0.0836
    8CHL1    C6  527   3.280   1.184   5.702  0.3095 -0.2226  0.1117
    8CHL1    H6  528   3.219   1.164   5.791 -1.1065 -0.7555 -0.9445
    8CHL1    C7  529   3.199   1.228   5.581  0.8335  0.1595  0.2852
    8CHL1   H7A  530   3.112   1.159   5.579 -0.6551  1.5142  4.8555
    8CHL1   H7B  531   3.159   1.332   5.585 -0.2110 -0.1782 -0.9182
    8CHL1    C8  532   3.271   1.218   5.443  0.0682 -0.1287 -0.1382
    8CHL1    H8  533   3.261   1.112   5.411  0.1252 -0.4673  0.9305
    8CHL1   C14  534   3.198   1.303   5.339 -0.2405 -0.0201 -0.1195
    8CHL1   H14  535   3.219   1.403   5.383 -1.1977 -1.4298  4.0528
    8CHL1   C15  536   3.048   1.277   5.335 -0.4771  0.5958 -0.3684
    8CHL1  H15A  537   3.029   1.168   5.345  0.6069  0.5234  1.2579
    8CHL1  H15B  538   2.986   1.338   5.404 -0.2137  1.8830 -1.2343
    8CHL1   C16  539   3.020   1.328   5.197  0.4386  0.1207  0.1439
    8CHL1  H16A  540   2.967   1.257   5.130  0.1153 -1.2936  1.8520
    8CHL1  H16B  541   2.949   1.414   5.202  2.0096  1.5286 -0.7375
    8CHL1   C17  542   3.153   1.374   5.120  0.7748  0.3129  0.4699
    8CHL1   H17  543   3.160   1.481   5.150 -0.4905  0.6631 -0.4148
    8CHL1   C13  544   3.255   1.297   5.202  0.0710  0.7121  0.0016
    8CHL1   C18  545   3.255   1.149   5.151 -0.4448  0.4083  0.4554
    8CHL1  H18A  546   3.305   1.075   5.216  0.0709  0.7153  0.4161
    8CHL1  H18B  547   3.154   1.107   5.136  0.2207 -0.7525 -1.0471
    8CHL1  H18C  548   3.309   1.132   5.055 -0.6192 -1.5983  0.6738
    8CHL1   C12  549   3.403   1.360   5.206  0.5563  0.5856 -0.0247
    8CHL1  H12A  550   3.449   1.374   5.106 -0.0909 -3.5187 -1.1177
    8CHL1  H12B  551   3.390   1.460   5.251  2.1140  1.0176 -0.5032
    8CHL1   C11  552   3.480   1.269   5.304  0.1103 -0.0954 -0.8028
    8CHL1  H11A  553   3.490   1.170   5.254 -1.6629 -0.6211 -0.2001
    8CHL1  H11B  554   3.582   1.307   5.325  0.5575 -0.4357 -2.2168
    8CHL1    C9  555   3.415   1.255   5.451  0.6046 -0.3023  0.5465
    8CHL1    H9  556   3.425   1.355   5.498 -1.9163  0.5500 -0.5373
    8CHL1   C10  557   3.490   1.160   5.553 -0.0218 -0.7336 -0.1074
    8CHL1   C19  558   3.510   1.019   5.495 -0.0823  0.0022  0.5888
    8CHL1  H19A  559   3.555   0.947   5.565  3.4374 -0.0160 -1.4769
    8CHL1  H19B  560   3.413   0.976   5.461 -0.1089  1.4396 -1.3274
    8CHL1  H19C  561   3.578   1.016   5.408  0.1627 -0.3331  0.7929
    8CHL1    C1  562   3.629   1.217   5.575  0.1276 -0.0341 -0.0304
    8CHL1   H1A  563   3.682   1.199   5.480 -0.8095  0.8246 -0.7421
    8CHL1   H1B  564   3.623   1.328   5.571 -0.4113 -0.0518  0.1920
    8CHL1    C2  565   3.700   1.171   5.706  0.7561  0.2041 -0.8780
    8CHL1   H2A  566   3.781   1.240   5.736  0.7528 -0.0671 -0.2161
    8CHL1   H2B  567   3.740   1.070   5.682  1.0494 -0.3724  1.6877
    8CHL1   C20  568   3.138   1.363   4.968  0.2028  0.4405 -0.1092
    8CHL1   H20  569   3.111   1.258   4.946  0.4497  0.2817  0.3462
    8CHL1   C21  570   3.268   1.405   4.900 -0.0147 -0.6094  0.3225
    8CHL1  H21A  571   3.302   1.507   4.930 -1.4818 -0.4742  1.6911
    8CHL1  H21B  572   3.237   1.413   4.794 -2.8445 -1.1840  1.0374
    8CHL1  H21C  573   3.350   1.335   4.925 -0.3297 -0.9433  0.4245
    8CHL1   C22  574   3.023   1.454   4.907 -0.2435  0.0231 -0.2308
    8CHL1  H22A  575   2.935   1.470   4.972 -1.0491 -0.5872 -1.1378
    8CHL1  H22B  576   3.074   1.550   4.882  1.5287 -1.0235 -0.7715
    8CHL1   C23  577   2.964   1.407   4.775  0.7484  0.5710  0.0698
    8CHL1  H23A  578   3.044   1.388   4.701  0.4794  1.7856 -0.5626
    8CHL1  H23B  579   2.926   1.305   4.797  1.9942  0.1563  0.3593
    8CHL1   C24  580   2.848   1.483   4.717  0.6115  0.8797  0.5667
    8CHL1  H24A  581   2.756   1.474   4.778  0.5751  2.2640  0.7381
    8CHL1  H24B  582   2.874   1.590   4.701  1.3787  0.8790  1.7380
    8CHL1   C25  583   2.800   1.429   4.581 -0.3600  0.7150  0.1492
    8CHL1   H25  584   2.894   1.424   4.522 -0.1798 -0.6748  0.5100
    8CHL1   C26  585   2.750   1.286   4.588  0.4747  0.1763 -0.2866
    8CHL1  H26A  586   2.692   1.256   4.498  0.1660  0.3667 -0.1493
    8CHL1  H26B  587   2.827   1.210   4.615 -0.4932 -0.4694  0.7810
    8CHL1  H26C  588   2.680   1.268   4.672  0.7031  2.6753  0.4979
    8CHL1   C27  589   2.699   1.515   4.516 -0.6457  0.3113 -0.0434
    8CHL1  H27A  590   2.678   1.482   4.412  0.9453  2.0911 -1.0041
    8CHL1  H27B  591   2.601   1.507   4.566  0.3394  0.9626  2.0967
    8CHL1  H27C  592   2.729   1.622   4.503 -0.2403  0.0490 -1.4088
    9CHL1    C3  593   0.484   6.802   6.059  0.6051 -0.2549 -0.7464
    9CHL1    H3  594   0.587   6.761   6.050  0.7374 -0.0580 -0.1611
    9CHL1    O3  595   0.449   6.811   6.195 -0.1869  0.8429 -0.2045
    9CHL1   H3'  596   0.366   6.857   6.209 -0.3919  0.4760 -0.2070
    9CHL1    C4  597   0.480   6.943   6.002  0.0354  0.0987 -0.0178
    9CHL1   H4A  598   0.385   6.995   6.025 -1.0764 -1.3400 -1.1762
    9CHL1   H4B  599   0.556   7.004   6.056 -0.6909  0.2991  0.8004
    9CHL1    C5  600   0.501   6.946   5.851 -0.2921  0.6444  0.2166
    9CHL1    C6  601   0.599   7.025   5.796 -0.0847 -0.3107  1.0240
    9CHL1    H6  602   0.663   7.083   5.865  0.8445 -0.8667  0.6491
    9CHL1    C7  603   0.631   7.027   5.648  0.7821 -0.8727  0.0933
    9CHL1   H7A  604   0.645   7.128   5.604 -1.5221 -1.0164 -1.1859
    9CHL1   H7B  605   0.721   6.965   5.631  2.2022  1.3644 -0.9719
    9CHL1    C8  606   0.513   6.966   5.568  0.3599 -0.0179  0.0439
    9CHL1    H8  607   0.427   7.036   5.571  1.6417  1.5840  0.5453
    9CHL1   C14  608   0.562   6.951   5.421  0.1969 -0.5953 -0.4138
    9CHL1   H14  609   0.637   6.869   5.422  2.0568  1.0372 -0.3314
    9CHL1   C15  610   0.625   7.077   5.353 -0.2699 -0.7655 -1.0358
    9CHL1  H15A  611   0.549   7.158   5.355  0.9407  0.4682  2.5896
    9CHL1  H15B  612   0.724   7.109   5.393 -0.0871  0.3637 -2.3021
    9CHL1   C16  613   0.646   7.025   5.211 -0.1108 -0.7273 -1.1068
    9CHL1  H16A  614   0.610   7.100   5.137 -1.8196 -2.3391 -1.9859
    9CHL1  H16B  615   0.746   6.981   5.192  1.3049  2.5485 -2.0101
    9CHL1   C17  616   0.546   6.899   5.195 -0.3546  0.4459 -0.1163
    9CHL1   H17  617   0.604   6.805   5.206  1.3263  1.5306  0.7860
    9CHL1   C13  618   0.458   6.902   5.325 -0.1343 -0.3810  0.3948
    9CHL1   C18  619   0.354   6.999   5.305  0.5382  0.2352  0.2043
    9CHL1  H18A  620   0.270   6.957   5.246 -0.4455  2.5643 -0.1712
    9CHL1  H18B  621   0.310   7.036   5.401  1.7946  1.6986  0.2505
    9CHL1  H18C  622   0.383   7.092   5.252 -0.4196 -0.8127 -2.2787
    9CHL1   C12  623   0.400   6.767   5.377 -0.1029  0.7174  0.3512
    9CHL1  H12A  624   0.311   6.742   5.315  1.6804 -1.1043 -1.6477
    9CHL1  H12B  625   0.480   6.690   5.372  0.3177  1.2000 -0.6511
    9CHL1   C11  626   0.355   6.776   5.524 -0.4197 -0.1165 -0.5373
    9CHL1  H11A  627   0.263   6.837   5.527  0.0588  0.5892  0.8977
    9CHL1  H11B  628   0.316   6.677   5.557 -0.0752  0.4535  1.7459
    9CHL1    C9  629   0.456   6.834   5.626 -0.0949  0.5363  0.7711
    9CHL1    H9  630   0.551   6.777   5.617  0.5899  1.8498 -1.0197
    9CHL1   C10  631   0.413   6.849   5.769  0.2355  0.9785  0.1574
    9CHL1   C19  632   0.272   6.915   5.777 -0.5538  0.5394  0.0887
    9CHL1  H19A  633   0.250   6.997   5.705  0.0527  0.2970 -0.3825
    9CHL1  H19B  634   0.197   6.834   5.763 -0.7791  0.4757  1.4829
    9CHL1  H19C  635   0.241   6.949   5.878 -1.6778 -1.1343  0.3544
    9CHL1    C1  636   0.409   6.711   5.840  0.7238  0.3309 -0.0577
    9CHL1   H1A  637   0.326   6.644   5.808  0.4142  0.3006  0.7834
    9CHL1   H1B  638   0.510   6.665   5.830 -0.1856 -1.8751  0.4443
    9CHL1    C2  639   0.381   6.722   5.991 -0.2495 -1.0393  0.2423
    9CHL1   H2A  640   0.365   6.621   6.034 -0.5618  0.8780  5.4536
    9CHL1   H2B  641   0.281   6.769   5.999  1.0200  2.0124 -0.2703
    9CHL1   C20  642   0.477   6.895   5.057  0.6732  0.5607  0.4099
    9CHL1   H20  643   0.425   6.992   5.040  0.3671  0.3123 -0.0883
    9CHL1   C21  644   0.373   6.783   5.043 -0.7939 -0.0759 -0.2519
    9CHL1  H21A  645   0.274   6.822   5.077 -0.0630  0.4244  1.4238
    9CHL1  H21B  646   0.407   6.697   5.105  1.3986  0.0723 -1.1860
    9CHL1  H21C  647   0.360   6.737   4.943  1.1833  0.1856 -0.6678
    9CHL1   C22  648   0.569   6.889   4.934 -0.6404  0.2798 -0.1555
    9CHL1  H22A  649   0.653   6.954   4.967  0.0630 -1.9222  2.6842
    9CHL1  H22B  650   0.603   6.784   4.920  1.7425  0.8799  0.7322
    9CHL1   C23  651   0.515   6.964   4.807 -0.0327  0.2261 -0.6592
    9CHL1  H23A  652   0.442   6.890   4.768 -1.1731  0.4135  1.0181
    9CHL1  H23B  653   0.473   7.060   4.844 -0.2682  1.2970 -3.4813
    9CHL1   C24  654   0.619   6.985   4.695 -0.2148  0.3507 -0.4348
    9CHL1  H24A  655   0.711   7.031   4.738 -0.0985 -1.0623  0.9207
    9CHL1  H24B  656   0.657   6.894   4.645  3.3251  0.7370  1.2193
    9CHL1   C25  657   0.574   7.079   4.585 -0.9393 -0.2177  0.1473
    9CHL1   H25  658   0.579   7.187   4.611 -1.4700  0.2193 -1.4263
    9CHL1   C26  659   0.667   7.051   4.462 -0.0597 -0.3398 -0.6603
    9CHL1  H26A  660   0.775   7.057   4.487 -0.3679  2.9701  0.4476
    9CHL1  H26B  661   0.657   6.949   4.419  3.0399 -0.8722 -0.3727
    9CHL1  H26C  662   0.655   7.122   4.378 -1.0368  0.8517  0.4369
    9CHL1   C27  663   0.430   7.054   4.545 -0.7426 -0.0090  0.0642
    9CHL1  H27A  664   0.413   7.114   4.453 -1.1782 -0.9014 -0.4579
    9CHL1  H27B  665   0.414   6.949   4.513 -0.4613 -0.6558  1.9618
    9CHL1  H27C  666   0.361   7.091   4.624  1.0438  1.1593  1.1240
   10CHL1    C3  667   1.477   1.458   6.055  0.4213 -0.0079 -0.1607
   10CHL1    H3  668   1.556   1.533   6.077 -0.7912  1.7482 -1.5530
   10CHL1    O3  669   1.434   1.397   6.179 -0.2611  0.3052  0.2466
   10CHL1   H3'  670   1.352   1.352   6.160  1.0816 -2.8224  1.2130
   10CHL1    C4  671   1.359   1.544   5.990 -0.3403  0.4382 -0.4231
   10CHL1   H4A  672   1.283   1.471   5.955 -0.5225 -0.0772  0.9901
   10CHL1   H4B  673   1.307   1.607   6.065 -2.1212 -0.8880 -0.4685
   10CHL1    C5  674   1.405   1.622   5.868  0.4178 -0.1428 -0.7096
   10CHL1    C6  675   1.410   1.758   5.871 -0.4792 -0.1691  0.0521
   10CHL1    H6  676   1.378   1.812   5.961  0.7949  0.4030  0.1839
   10CHL1    C7  677   1.446   1.838   5.746 -0.3910 -0.3957 -0.2689
   10CHL1   H7A  678   1.374   1.921   5.731 -0.2691 -0.5385 -1.7188
   10CHL1   H7B  679   1.545   1.886   5.762 -1.2138  1.7748 -1.3817
   10CHL1    C8  680   1.449   1.753   5.619 -0.0505  0.1474  0.2053
   10CHL1    H8  681   1.348   1.733   5.576  0.4687 -1.7825 -0.2142
   10CHL1   C14  682   1.539   1.832   5.524 -0.1847 -0.9163 -0.0787
   10CHL1   H14  683   1.635   1.833   5.579 -1.3004 -0.4035  1.9838
   10CHL1   C15  684   1.505   1.979   5.495 -0.3259 -0.4544 -0.1758
   10CHL1  H15A  685   1.394   1.988   5.486 -0.4926  0.1933  1.9205
   10CHL1  H15B  686   1.527   2.049   5.578 -0.2760 -0.1694 -0.4267
   10CHL1   C16  687   1.572   2.011   5.364 -0.1441 -0.1815 -0.3873
   10CHL1  H16A  688   1.510   2.033   5.275  2.7068 -0.1745 -2.4840
   10CHL1  H16B  689   1.637   2.100   5.379  0.0989  0.0753 -2.5989
   10CHL1   C17  690   1.651   1.881   5.315  0.1459  0.9900  0.1512
   10CHL1   H17  691   1.752   1.888   5.361  0.1669  1.8543 -0.0057
   10CHL1   C13  692   1.571   1.765   5.390 -0.1055 -0.4289 -0.2524
   10CHL1   C18  693   1.433   1.737   5.331  1.1967 -0.3328 -0.6574
   10CHL1  H18A  694   1.377   1.657   5.385 -0.2105 -0.0456 -1.6205
   10CHL1  H18B  695   1.368   1.827   5.334  0.1999 -0.9515 -2.1086
   10CHL1  H18C  696   1.451   1.698   5.229  1.4611  1.2256 -1.2372
   10CHL1   C12  697   1.647   1.638   5.420 -0.2191 -0.0133 -0.1014
   10CHL1  H12A  698   1.673   1.587   5.324 -0.7007  0.2315 -0.3656
   10CHL1  H12B  699   1.739   1.671   5.473 -1.3511  2.1864  0.5988
   10CHL1   C11  700   1.574   1.547   5.520  0.9003  0.1796  0.3388
   10CHL1  H11A  701   1.482   1.514   5.466  0.0284  1.4587  0.9738
   10CHL1  H11B  702   1.639   1.462   5.549  1.6670  0.4748 -0.4476
   10CHL1    C9  703   1.526   1.622   5.654  0.4621  0.2781  0.7400
   10CHL1    H9  704   1.617   1.640   5.715 -0.2109  1.3736  1.4519
   10CHL1   C10  705   1.453   1.529   5.750 -0.9997  0.7983  0.3256
   10CHL1   C19  706   1.327   1.461   5.688 -0.6697 -0.0728 -0.3025
   10CHL1  H19A  707   1.346   1.418   5.587 -0.0001  0.7213 -0.5212
   10CHL1  H19B  708   1.290   1.379   5.754 -0.1919  0.0776  0.1631
   10CHL1  H19C  709   1.247   1.537   5.678 -0.5980 -0.1795 -1.8741
   10CHL1    C1  710   1.552   1.415   5.812  0.0594  0.3603  0.4619
   10CHL1   H1A  711   1.570   1.333   5.739 -1.7257  0.9694 -0.7398
   10CHL1   H1B  712   1.649   1.469   5.824  1.7690 -2.2018 -0.8825
   10CHL1    C2  713   1.523   1.351   5.948 -0.1279 -0.0806  0.6239
   10CHL1   H2A  714   1.614   1.301   5.989  0.7493  1.4422  0.5989
   10CHL1   H2B  715   1.449   1.268   5.940  0.9618 -1.2541  1.9899
   10CHL1   C20  716   1.669   1.877   5.163  0.0128 -0.2883  0.2113
   10CHL1   H20  717   1.564   1.880   5.125  0.0138  1.2395  0.2940
   10CHL1   C21  718   1.742   1.753   5.112  0.5172  0.1668  0.1157
   10CHL1  H21A  719   1.743   1.745   5.001  0.7096  1.2873  0.0292
   10CHL1  H21B  720   1.691   1.661   5.147 -0.4654 -0.1142 -1.8947
   10CHL1  H21C  721   1.843   1.763   5.157 -0.4872  1.7470  2.2040
   10CHL1   C22  722   1.743   2.006   5.110 -0.3641  0.5351  0.5188
   10CHL1  H22A  723   1.703   2.084   5.177 -0.0658 -0.1486  1.5117
   10CHL1  H22B  724   1.852   1.992   5.129 -0.5183 -1.4164  0.2382
   10CHL1   C23  725   1.716   2.026   4.956 -0.5567 -0.9224  0.2888
   10CHL1  H23A  726   1.756   1.944   4.893  1.1186  0.3289 -0.3523
   10CHL1  H23B  727   1.607   2.030   4.940 -0.5778 -0.1759  0.5615
   10CHL1   C24  728   1.761   2.161   4.909 -0.0619 -0.5799  0.6034
   10CHL1  H24A  729   1.705   2.191   4.818  2.0675  0.6246 -0.4049
   10CHL1  H24B  730   1.741   2.232   4.993  0.6823  1.5291 -0.9004
   10CHL1   C25  731   1.915   2.181   4.887  0.0414 -0.2147 -0.6302
   10CHL1   H25  732   1.963   2.139   4.978  0.9030 -1.1316 -1.4876
   10CHL1   C26  733   1.973   2.128   4.756 -0.1782 -0.1070  1.0162
   10CHL1  H26A  734   1.916   2.168   4.669  0.6117 -0.9005  0.1094
   10CHL1  H26B  735   2.083   2.138   4.744 -0.3574 -0.3769 -1.3481
   10CHL1  H26C  736   1.960   2.018   4.763 -0.9057 -0.2277 -1.3454
   10CHL1   C27  737   1.942   2.332   4.885 -0.5493 -0.1091  0.4319
   10CHL1  H27A  738   1.891   2.388   4.966  0.9065 -0.4558  1.6254
   10CHL1  H27B  739   2.049   2.359   4.898 -0.8536  2.0382 -1.0180
   10CHL1  H27C  740   1.924   2.378   4.786  0.4863 -3.2897 -1.3737
   11CHL1    C3  741   4.807   5.886   6.112 -0.5949 -0.1735 -0.0212
   11CHL1    H3  742   4.908   5.929   6.130 -0.5984  0.5525 -1.5668
   11CHL1    O3  743   4.742   5.860   6.232 -0.5358 -0.0577 -0.1059
   11CHL1   H3'  744   4.799   5.800   6.280 -1.1870  0.4106  1.3351
   11CHL1    C4  745   4.716   5.984   6.039 -0.0344  0.1759  0.1387
   11CHL1   H4A  746   4.618   5.935   6.022  0.3836 -1.2007  1.4830
   11CHL1   H4B  747   4.691   6.070   6.106 -1.4017 -1.0703  1.2939
   11CHL1    C5  748   4.767   6.021   5.903 -0.0886 -0.2431  0.5905
   11CHL1    C6  749   4.798   6.148   5.874 -0.5694 -1.0061  0.2992
   11CHL1    H6  750   4.772   6.232   5.941 -2.5929  0.1947 -1.8531
   11CHL1    C7  751   4.843   6.204   5.742 -0.1553 -0.5751  0.5262
   11CHL1   H7A  752   4.799   6.299   5.705  1.7404 -0.9165 -3.0794
   11CHL1   H7B  753   4.953   6.218   5.744 -0.1959  1.9355 -3.4465
   11CHL1    C8  754   4.830   6.084   5.634  0.1512 -0.0655  0.3570
   11CHL1    H8  755   4.721   6.064   5.629  0.1877 -0.1813  0.0449
   11CHL1   C14  756   4.884   6.123   5.500 -0.8392 -0.1393 -0.6967
   11CHL1   H14  757   4.994   6.139   5.511 -0.8797  2.0162 -2.5936
   11CHL1   C15  758   4.842   6.251   5.444  0.0313 -0.4487  0.3684
   11CHL1  H15A  759   4.734   6.272   5.458 -0.3347 -0.9059 -1.4412
   11CHL1  H15B  760   4.895   6.345   5.468  0.1015 -0.0558 -1.2452
   11CHL1   C16  761   4.842   6.232   5.291 -0.1401  0.0670  0.1355
   11CHL1  H16A  762   4.747   6.254   5.237 -1.0806 -0.7893  1.4160
   11CHL1  H16B  763   4.912   6.313   5.259 -0.2365  1.3102  2.8128
   11CHL1   C17  764   4.914   6.093   5.272 -0.4485 -0.1898  0.4210
   11CHL1   H17  765   5.022   6.120   5.284 -0.0608 -1.7769  0.6913
   11CHL1   C13  766   4.866   6.016   5.398 -0.4437 -0.0453 -0.0462
   11CHL1   C18  767   4.721   5.985   5.370  0.1794  1.1104 -0.1792
   11CHL1  H18A  768   4.651   6.066   5.342  0.6447  1.6020  0.0547
   11CHL1  H18B  769   4.714   5.903   5.295 -0.9455  1.9747 -1.0563
   11CHL1  H18C  770   4.691   5.942   5.467  1.0277 -0.9738 -0.7872
   11CHL1   C12  771   4.942   5.889   5.442 -0.4622  0.3777 -0.0728
   11CHL1  H12A  772   4.915   5.808   5.371 -0.0077  1.8129 -1.9850
   11CHL1  H12B  773   5.052   5.898   5.429 -0.3659 -1.4117 -0.7797
   11CHL1   C11  774   4.917   5.842   5.590  0.1402 -0.1379  0.6156
   11CHL1  H11A  775   4.819   5.792   5.576 -0.7412  1.7744 -0.3963
   11CHL1  H11B  776   4.998   5.769   5.614 -0.9733 -0.8938  2.3048
   11CHL1    C9  777   4.886   5.948   5.694  1.0383 -0.4988  0.1104
   11CHL1    H9  778   4.989   5.980   5.723  1.2102 -0.4101 -0.5934
   11CHL1   C10  779   4.808   5.895   5.818 -0.1572 -1.1227  0.4111
   11CHL1   C19  780   4.667   5.846   5.774  0.3413  0.2943 -0.0430
   11CHL1  H19A  781   4.614   5.799   5.860 -0.9173 -0.1198 -1.0160
   11CHL1  H19B  782   4.608   5.927   5.727 -2.0440 -1.5783 -0.4544
   11CHL1  H19C  783   4.668   5.759   5.706 -2.0648  1.9459 -2.3563
   11CHL1    C1  784   4.897   5.791   5.884  0.4588 -0.1365 -0.7141
   11CHL1   H1A  785   4.894   5.699   5.822  1.2475 -0.2961 -0.5230
   11CHL1   H1B  786   5.001   5.828   5.895  0.5420  0.4941 -3.0305
   11CHL1    C2  787   4.836   5.760   6.020  0.0878  0.3692 -0.0495
   11CHL1   H2A  788   4.914   5.703   6.075  1.6683  0.1152 -2.4068
   11CHL1   H2B  789   4.747   5.696   6.008 -0.4228  0.8702  0.9027
   11CHL1   C20  790   4.901   6.034   5.129 -0.0166 -0.4958  0.1469
   11CHL1   H20  791   4.793   6.014   5.115 -1.1311  2.1342  3.5502
   11CHL1   C21  792   4.999   5.912   5.122 -0.2164 -0.1730  0.6823
   11CHL1  H21A  793   4.972   5.823   5.182  2.4783 -1.2359  0.4547
   11CHL1  H21B  794   5.101   5.953   5.140  0.0688  0.2914 -1.6073
   11CHL1  H21C  795   5.004   5.877   5.017  3.4237 -0.9182  0.9829
   11CHL1   C22  796   4.938   6.149   5.025  0.2766 -0.5494 -0.1856
   11CHL1  H22A  797   4.860   6.227   5.039  0.4072 -0.5646  0.7095
   11CHL1  H22B  798   5.038   6.188   5.053  1.0681 -3.3479  1.2555
   11CHL1   C23  799   4.946   6.096   4.887 -0.0004  0.0238 -0.2691
   11CHL1  H23A  800   5.032   6.027   4.871 -0.5896 -0.8843  0.3370
   11CHL1  H23B  801   4.860   6.033   4.855  0.4383  0.0412 -1.5028
   11CHL1   C24  802   4.962   6.212   4.784 -1.0651 -0.4906 -0.4392
   11CHL1  H24A  803   4.880   6.287   4.789 -0.8950 -0.1434 -2.1618
   11CHL1  H24B  804   5.044   6.273   4.829 -0.9140 -2.0154  1.4676
   11CHL1   C25  805   5.007   6.186   4.639 -0.3191  0.1362 -0.1094
   11CHL1   H25  806   4.926   6.134   4.584 -0.2333  1.8913 -1.9958
   11CHL1   C26  807   5.027   6.322   4.581  0.5279 -0.1435  0.5112
   11CHL1  H26A  808   5.090   6.384   4.649 -2.1510  1.2109  1.8904
   11CHL1  H26B  809   5.070   6.322   4.478  1.2507  0.0810  0.8068
   11CHL1  H26C  810   4.924   6.361   4.571  0.5571 -0.5737 -2.3942
   11CHL1   C27  811   5.137   6.105   4.639 -0.8684 -0.2030 -0.2039
   11CHL1  H27A  812   5.183   6.103   4.538 -0.5570  2.1746 -0.1849
   11CHL1  H27B  813   5.216   6.154   4.700 -2.2710  1.4858  0.3601
   11CHL1  H27C  814   5.133   5.999   4.669  0.0687 -0.1290  0.2141
   12CHL1    C3  815   5.304   4.563   6.516 -0.5677  0.4343  0.4473
   12CHL1    H3  816   5.212   4.618   6.488 -0.5446  0.2323 -0.0303
   12CHL1    O3  817   5.326   4.566   6.661  0.3341  0.3057  0.6610
   12CHL1   H3'  818   5.415   4.532   6.665  0.2249 -0.0799  0.0197
   12CHL1    C4  819   5.299   4.419   6.471 -0.9134  0.5468  0.6771
   12CHL1   H4A  820   5.390   4.363   6.503 -0.7429  1.3255  1.5934
   12CHL1   H4B  821   5.221   4.366   6.529 -0.0054 -1.5294  0.0817
   12CHL1    C5  822   5.283   4.388   6.325 -0.0289 -0.0897 -0.2540
   12CHL1    C6  823   5.189   4.312   6.271  0.4780  0.1621  0.7077
   12CHL1    H6  824   5.113   4.269   6.338 -0.0128  0.0091  0.0606
   12CHL1    C7  825   5.171   4.279   6.129  0.4662  0.0900 -0.1737
   12CHL1   H7A  826   5.156   4.172   6.104  2.3470  0.0704 -1.4332
   12CHL1   H7B  827   5.073   4.325   6.104  0.9686  0.3783 -1.7178
   12CHL1    C8  828   5.293   4.313   6.043  0.3168 -0.0291 -0.1661
   12CHL1    H8  829   5.371   4.235   6.054 -0.1352 -0.3247  1.2446
   12CHL1   C14  830   5.256   4.318   5.899  0.2301 -0.7010  0.2028
   12CHL1   H14  831   5.193   4.409   5.891  3.0095  1.3618  0.4459
   12CHL1   C15  832   5.167   4.201   5.840 -0.1886 -0.3803 -0.4413
   12CHL1  H15A  833   5.212   4.104   5.870  0.6571 -0.2700 -1.3114
   12CHL1  H15B  834   5.063   4.210   5.879 -0.6783  1.6054 -2.0685
   12CHL1   C16  835   5.167   4.227   5.691 -0.6422 -0.3683  0.8995
   12CHL1  H16A  836   5.206   4.140   5.635  1.1343  1.0434 -0.1719
   12CHL1  H16B  837   5.075   4.269   5.645  0.1716 -1.3785 -1.8016
   12CHL1   C17  838   5.280   4.331   5.668 -0.1179 -0.3664  0.4342
   12CHL1   H17  839   5.233   4.431   5.656 -1.0274 -1.0527 -2.9636
   12CHL1   C13  840   5.367   4.343   5.800  0.4932 -0.3537  0.5514
   12CHL1   C18  841   5.480   4.237   5.796 -0.0431 -0.1342 -0.1025
   12CHL1  H18A  842   5.449   4.142   5.749  2.0359 -1.3281  0.8167
   12CHL1  H18B  843   5.561   4.268   5.726 -0.1357 -0.9997 -0.6126
   12CHL1  H18C  844   5.530   4.213   5.892 -0.6210  0.6574  0.4198
   12CHL1   C12  845   5.432   4.481   5.840 -0.1522 -0.3386 -0.3542
   12CHL1  H12A  846   5.519   4.515   5.781 -1.0938  2.8163 -0.1209
   12CHL1  H12B  847   5.353   4.556   5.819  0.0247 -0.9446 -3.7714
   12CHL1   C11  848   5.465   4.488   5.989  0.6521  0.0165 -0.3133
   12CHL1  H11A  849   5.547   4.415   6.007  1.9018  1.4136 -0.0779
   12CHL1  H11B  850   5.503   4.587   6.024  0.0842 -0.6662  2.4977
   12CHL1    C9  851   5.357   4.447   6.084 -0.0244  0.6031 -0.4448
   12CHL1    H9  852   5.279   4.525   6.075  0.2436  0.8063 -1.0536
   12CHL1   C10  853   5.391   4.449   6.236  0.4400 -0.0071  1.0839
   12CHL1   C19  854   5.519   4.361   6.251  0.2831  0.8553  0.1234
   12CHL1  H19A  855   5.562   4.346   6.352  0.4570  2.0116  0.2306
   12CHL1  H19B  856   5.489   4.261   6.211  1.6542  0.1632  0.7621
   12CHL1  H19C  857   5.601   4.402   6.189 -1.0528 -1.0616 -3.1965
   12CHL1    C1  858   5.422   4.593   6.288  0.4211 -0.2511 -0.4426
   12CHL1   H1A  859   5.520   4.624   6.246 -0.5078  0.2142 -2.3810
   12CHL1   H1B  860   5.343   4.658   6.245 -2.2028 -3.3969 -0.7050
   12CHL1    C2  861   5.424   4.622   6.442 -1.0452 -0.2979  0.5025
   12CHL1   H2A  862   5.411   4.732   6.450 -2.1767 -0.3542 -0.2575
   12CHL1   H2B  863   5.523   4.596   6.486 -1.2255 -0.8423  0.5893
   12CHL1   C20  864   5.346   4.319   5.536 -0.6001  0.2465  0.2182
   12CHL1   H20  865   5.417   4.234   5.541 -2.2954 -1.2007  0.8897
   12CHL1   C21  866   5.437   4.440   5.525  0.1314  0.0699 -0.1305
   12CHL1  H21A  867   5.529   4.439   5.587 -0.4872  1.1348  0.8530
   12CHL1  H21B  868   5.394   4.540   5.549 -0.9651 -0.7327  1.3879
   12CHL1  H21C  869   5.479   4.445   5.422 -0.4881  1.9783 -0.3345
   12CHL1   C22  870   5.249   4.311   5.412 -0.4261 -0.9846 -0.0688
   12CHL1  H22A  871   5.171   4.233   5.423  1.3755 -3.1961 -1.7645
   12CHL1  H22B  872   5.204   4.411   5.400  0.0804 -0.4733  2.0561
   12CHL1   C23  873   5.329   4.275   5.282  0.4244  0.4146 -0.1251
   12CHL1  H23A  874   5.383   4.370   5.259 -1.3954  1.2694 -1.0241
   12CHL1  H23B  875   5.398   4.189   5.293  0.5367  0.6472  1.2232
   12CHL1   C24  876   5.237   4.263   5.162  0.4451  0.0540 -0.3939
   12CHL1  H24A  877   5.172   4.174   5.174  1.6580 -0.8379 -0.2828
   12CHL1  H24B  878   5.181   4.357   5.143  1.0790  0.3527 -0.8138
   12CHL1   C25  879   5.304   4.243   5.024 -0.0253  1.0235  0.1025
   12CHL1   H25  880   5.351   4.143   5.025 -1.9648  0.0527  0.5570
   12CHL1   C26  881   5.191   4.245   4.920 -0.5199 -0.0865 -0.6929
   12CHL1  H26A  882   5.148   4.347   4.929  1.9848  0.9953 -0.2700
   12CHL1  H26B  883   5.225   4.238   4.814  3.0213 -1.3605  0.3836
   12CHL1  H26C  884   5.122   4.163   4.951 -1.8050  1.5503  1.0128
   12CHL1   C27  885   5.415   4.342   4.996  0.0031 -0.0809  0.2030
   12CHL1  H27A  886   5.502   4.337   5.065  2.0281  1.0526 -2.1172
   12CHL1  H27B  887   5.467   4.322   4.900 -1.8074 -0.3183 -0.7694
   12CHL1  H27C  888   5.400   4.452   5.003 -1.0570 -0.1602 -0.6221
   13CHL1    C3  889   4.536   4.394   6.290 -0.5109  0.1905 -0.0416
   13CHL1    H3  890   4.478   4.478   6.245  0.3438  0.5320 -0.5176
   13CHL1    O3  891   4.519   4.377   6.429 -0.0891 -0.7562 -0.0287
   13CHL1   H3'  892   4.490   4.287   6.447 -1.6015 -0.3801 -0.4350
   13CHL1    C4  893   4.497   4.256   6.230  0.0482 -0.5199 -0.5532
   13CHL1   H4A  894   4.555   4.182   6.290  1.2012  0.1430 -0.8302
   13CHL1   H4B  895   4.391   4.228   6.247  0.3992 -0.1249  3.2262
   13CHL1    C5  896   4.526   4.257   6.077  0.6647  0.3463 -0.2967
   13CHL1    C6  897   4.432   4.209   5.987  0.3011 -0.3356  0.4302
   13CHL1    H6  898   4.333   4.179   6.024  0.0709 -0.8156 -0.5595
   13CHL1    C7  899   4.440   4.217   5.834  0.2248  0.0912 -0.1415
   13CHL1   H7A  900   4.414   4.125   5.777  3.0282 -1.1119  0.3728
   13CHL1   H7B  901   4.379   4.304   5.802 -0.2228 -0.2358 -0.1865
   13CHL1    C8  902   4.582   4.242   5.786 -0.0808  0.1882  0.3266
   13CHL1    H8  903   4.638   4.146   5.794 -1.0897 -0.2940  2.0797
   13CHL1   C14  904   4.578   4.284   5.641 -0.3437  0.3272  0.8085
   13CHL1   H14  905   4.523   4.379   5.627 -1.7947 -0.9379 -3.5699
   13CHL1   C15  906   4.486   4.197   5.540  0.1888 -0.6435 -0.4211
   13CHL1  H15A  907   4.523   4.093   5.552 -0.0171 -0.4664  2.3361
   13CHL1  H15B  908   4.381   4.194   5.576 -0.4783  1.4161 -2.0130
   13CHL1   C16  909   4.534   4.254   5.402  0.6915  0.0758 -0.0173
   13CHL1  H16A  910   4.559   4.166   5.339  1.0686 -0.6097  1.0691
   13CHL1  H16B  911   4.456   4.325   5.365 -1.5125 -1.1721  1.9561
   13CHL1   C17  912   4.659   4.338   5.429 -0.0737  0.5116  0.0239
   13CHL1   H17  913   4.617   4.441   5.426  0.2808  0.6861  0.7423
   13CHL1   C13  914   4.711   4.301   5.571  0.2860 -0.3346 -0.4365
   13CHL1   C18  915   4.789   4.173   5.562 -0.3476 -0.3681 -0.0611
   13CHL1  H18A  916   4.838   4.144   5.658  2.6521  1.3818 -0.9160
   13CHL1  H18B  917   4.747   4.082   5.514  2.1233 -1.0248 -1.1555
   13CHL1  H18C  918   4.878   4.201   5.501  0.6243  1.2319  1.9505
   13CHL1   C12  919   4.785   4.415   5.644 -0.2848  0.3578 -0.3552
   13CHL1  H12A  920   4.888   4.409   5.603 -0.2099 -0.0868 -0.1025
   13CHL1  H12B  921   4.723   4.506   5.626 -0.6439  0.5504  1.6867
   13CHL1   C11  922   4.792   4.397   5.803 -0.1665 -0.1771 -0.1880
   13CHL1  H11A  923   4.860   4.312   5.826  0.4282 -0.0010 -1.2510
   13CHL1  H11B  924   4.820   4.494   5.850 -3.5330  0.6545  0.3841
   13CHL1    C9  925   4.652   4.354   5.862  0.1775  0.1083 -0.1575
   13CHL1    H9  926   4.597   4.450   5.851 -0.0095  0.0197 -0.0034
   13CHL1   C10  927   4.656   4.312   6.020  0.0613  0.2582  0.0339
   13CHL1   C19  928   4.761   4.199   6.039  0.2715 -0.2593  0.3054
   13CHL1  H19A  929   4.769   4.168   6.146  0.0006 -0.8542  0.1563
   13CHL1  H19B  930   4.730   4.103   5.993 -0.3988 -1.2343  2.6084
   13CHL1  H19C  931   4.867   4.230   6.026  1.2115 -1.9891  3.0185
   13CHL1    C1  932   4.703   4.442   6.095  0.1680  0.8824  0.2733
   13CHL1   H1A  933   4.812   4.462   6.080  0.6464  0.0894  2.3516
   13CHL1   H1B  934   4.647   4.524   6.046 -1.7006 -0.3786  0.1992
   13CHL1    C2  935   4.684   4.422   6.250  0.5153  0.5555  0.7106
   13CHL1   H2A  936   4.717   4.517   6.297  0.8653  0.8111 -0.0411
   13CHL1   H2B  937   4.745   4.336   6.283  0.4616  0.9789  1.9792
   13CHL1   C20  938   4.750   4.333   5.311 -0.5662  0.0989  0.2389
   13CHL1   H20  939   4.810   4.240   5.303  0.7964  0.7353  2.3158
   13CHL1   C21  940   4.855   4.448   5.317 -0.3279 -0.2956  0.4177
   13CHL1  H21A  941   4.805   4.547   5.325  0.4075  0.1627 -0.4652
   13CHL1  H21B  942   4.925   4.452   5.230  0.5148  2.2714  1.1193
   13CHL1  H21C  943   4.914   4.434   5.411 -1.6548 -2.5596  0.9759
   13CHL1   C22  944   4.669   4.351   5.180 -0.3405  0.0298  0.2307
   13CHL1  H22A  945   4.603   4.264   5.159  2.7979 -2.4154 -0.2603
   13CHL1  H22B  946   4.600   4.435   5.202 -0.8181 -0.4230  0.4982
   13CHL1   C23  947   4.750   4.374   5.049  0.1773 -0.1414  0.7201
   13CHL1  H23A  948   4.809   4.468   5.048 -1.7096  1.1281  2.4872
   13CHL1  H23B  949   4.817   4.292   5.013  0.6003  0.9544 -1.0832
   13CHL1   C24  950   4.655   4.396   4.932 -0.0687 -0.6315  0.5332
   13CHL1  H24A  951   4.580   4.316   4.913  0.1656 -0.5362 -0.9007
   13CHL1  H24B  952   4.597   4.490   4.947 -1.6152 -1.6790  1.3878
   13CHL1   C25  953   4.738   4.407   4.807  0.1991 -0.3479 -0.2945
   13CHL1   H25  954   4.826   4.472   4.828 -0.9104  0.3650  2.4726
   13CHL1   C26  955   4.787   4.271   4.756  0.2840  0.2237  0.8133
   13CHL1  H26A  956   4.850   4.280   4.665  0.1621  2.7223  0.9205
   13CHL1  H26B  957   4.835   4.209   4.835 -1.6142 -0.0641  1.7989
   13CHL1  H26C  958   4.701   4.208   4.723  1.3277 -0.7426 -0.1447
   13CHL1   C27  959   4.651   4.486   4.700  0.1656  0.9778  0.5955
   13CHL1  H27A  960   4.720   4.512   4.616  1.5950 -1.0523  1.0626
   13CHL1  H27B  961   4.568   4.423   4.660  0.8855  0.3076  0.1074
   13CHL1  H27C  962   4.615   4.583   4.739  2.7151  2.0862  0.3619
   14CHL1    C3  963   6.064   1.506   6.189 -0.0468 -0.4670  0.1387
   14CHL1    H3  964   6.163   1.556   6.187  0.4549 -1.4325 -0.4326
   14CHL1    O3  965   6.020   1.462   6.319 -0.2953  0.6454 -0.2650
   14CHL1   H3'  966   6.022   1.368   6.304 -1.4316  0.7841 -1.4964
   14CHL1    C4  967   5.965   1.618   6.141  0.1813  0.3405  0.1581
   14CHL1   H4A  968   5.862   1.576   6.149  0.6711 -1.0361 -0.5244
   14CHL1   H4B  969   5.967   1.694   6.222 -0.8715 -1.5524  2.0801
   14CHL1    C5  970   5.984   1.669   6.000 -0.9161  0.3714 -0.1881
   14CHL1    C6  971   6.010   1.791   5.952  0.5882  0.7987  0.1000
   14CHL1    H6  972   6.018   1.877   6.021 -0.7052  2.7002 -1.9913
   14CHL1    C7  973   6.029   1.832   5.815 -0.1239 -0.8101 -0.0185
   14CHL1   H7A  974   5.971   1.924   5.789 -1.7955 -1.7144  0.4099
   14CHL1   H7B  975   6.135   1.861   5.798 -0.6004 -0.5508 -3.4155
   14CHL1    C8  976   5.987   1.718   5.715  0.4248 -0.4672  0.1782
   14CHL1    H8  977   5.875   1.715   5.713  0.3634 -0.9487  2.1718
   14CHL1   C14  978   6.037   1.748   5.580 -0.4635 -0.4046  0.5021
   14CHL1   H14  979   6.148   1.751   5.586 -0.5161  0.0315  1.3629
   14CHL1   C15  980   5.998   1.890   5.521  0.6154  0.5799 -0.2160
   14CHL1  H15A  981   5.890   1.907   5.540  0.6097  1.1072 -0.6975
   14CHL1  H15B  982   6.066   1.969   5.559  2.5916 -0.8868 -0.5004
   14CHL1   C16  983   6.017   1.866   5.365  0.0537  0.9279  0.2376
   14CHL1  H16A  984   5.915   1.878   5.323  0.2480 -1.4347 -1.1228
   14CHL1  H16B  985   6.087   1.937   5.316  2.1841 -0.1940  1.5053
   14CHL1   C17  986   6.065   1.720   5.340  0.5792 -0.0972  0.0677
   14CHL1   H17  987   6.172   1.747   5.350  0.8942 -0.9943 -0.7331
   14CHL1   C13  988   6.012   1.646   5.464 -0.6391  0.5689 -0.3509
   14CHL1   C18  989   5.863   1.625   5.437  0.6074  0.0819 -0.1586
   14CHL1  H18A  990   5.817   1.701   5.371  0.6746  0.0935 -0.1923
   14CHL1  H18B  991   5.843   1.526   5.390  1.2262  0.8748 -2.2057
   14CHL1  H18C  992   5.803   1.620   5.530  2.3148 -0.9356  0.9365
   14CHL1   C12  993   6.071   1.509   5.510  0.2447  0.6534 -0.2071
   14CHL1  H12A  994   6.033   1.440   5.432  0.1018  1.6208 -1.0053
   14CHL1  H12B  995   6.182   1.508   5.506  0.2263 -0.3297 -0.8534
   14CHL1   C11  996   6.023   1.466   5.655 -0.0012  0.1887  0.2423
   14CHL1  H11A  997   5.919   1.429   5.640  0.8497 -1.6097 -1.5645
   14CHL1  H11B  998   6.078   1.378   5.694  1.6660  0.5111 -1.2805
   14CHL1    C9  999   6.037   1.583   5.767 -0.1166  0.0145 -0.2026
   14CHL1    H9 1000   6.148   1.591   5.764 -0.1793  0.7958 -1.6649
   14CHL1   C10 1001   5.986   1.545   5.906  0.4141  0.5596 -1.2047
   14CHL1   C19 1002   5.841   1.490   5.886  0.2655 -0.1597 -0.0026
   14CHL1  H19A 1003   5.789   1.499   5.984 -0.5722 -1.4083 -0.3124
   14CHL1  H19B 1004   5.783   1.540   5.805 -2.4396  0.4451  2.1677
   14CHL1  H19C 1005   5.849   1.383   5.858 -1.1687 -0.0326 -1.0226
   14CHL1    C1 1006   6.073   1.427   5.952  0.6177  0.3539  0.2504
   14CHL1   H1A 1007   6.062   1.334   5.892 -0.7764 -0.9705  2.4273
   14CHL1   H1B 1008   6.183   1.447   5.947  0.4286  1.3431 -0.2283
   14CHL1    C2 1009   6.035   1.387   6.101  0.3556 -0.1600  0.3062
   14CHL1   H2A 1010   6.108   1.310   6.134  2.2711  0.3513 -2.4036
   14CHL1   H2B 1011   5.936   1.337   6.099  1.4030 -2.3213 -0.4585
   14CHL1   C20 1012   6.037   1.669   5.194 -0.4053 -0.3861 -0.0902
   14CHL1   H20 1013   5.931   1.635   5.185 -0.9542  1.5946 -1.8054
   14CHL1   C21 1014   6.134   1.553   5.165  0.2856 -0.2326 -0.1742
   14CHL1  H21A 1015   6.096   1.501   5.074  0.1542 -2.9763  1.3635
   14CHL1  H21B 1016   6.146   1.474   5.241  0.6869  1.1815  1.2774
   14CHL1  H21C 1017   6.233   1.598   5.146 -0.6133  2.6138  1.2691
   14CHL1   C22 1018   6.035   1.778   5.084  0.1454 -0.4398  0.6193
   14CHL1  H22A 1019   5.955   1.850   5.109 -1.6284 -2.3077  0.5505
   14CHL1  H22B 1020   6.132   1.832   5.082 -0.0688 -0.0576  0.5881
   14CHL1   C23 1021   5.977   1.733   4.950  0.4159  0.3269 -0.0691
   14CHL1  H23A 1022   6.036   1.650   4.906  3.3003  1.7538  0.8935
   14CHL1  H23B 1023   5.871   1.701   4.962  0.1242  1.3129  0.1198
   14CHL1   C24 1024   5.968   1.847   4.851 -0.1463 -0.7721 -0.2333
   14CHL1  H24A 1025   5.922   1.937   4.896 -1.7474 -0.8510 -1.6197
   14CHL1  H24B 1026   6.072   1.875   4.824 -0.3961  0.1268 -0.2803
   14CHL1   C25 1027   5.896   1.817   4.720 -0.4069 -0.1870 -0.6608
   14CHL1   H25 1028   5.791   1.792   4.744 -0.7023  1.9107  0.3793
   14CHL1   C26 1029   5.909   1.951   4.643 -0.1985 -0.4028 -0.1075
   14CHL1  H26A 1030   5.882   2.034   4.713 -0.2617  0.6086 -1.3015
   14CHL1  H26B 1031   6.012   1.955   4.600 -0.2699 -2.0231 -0.5066
   14CHL1  H26C 1032   5.835   1.949   4.560 -0.7709  1.3427  0.3201
   14CHL1   C27 1033   5.954   1.696   4.633 -0.1130 -0.0292 -0.6149
   14CHL1  H27A 1034   5.944   1.606   4.697  0.6946  0.2078 -0.1291
   14CHL1  H27B 1035   5.882   1.680   4.550  0.7201 -2.0198 -0.9953
   14CHL1  H27C 1036   6.058   1.715   4.599  0.4658  0.4466  1.2911
   15CHL1    C3 1037   5.421   2.952   6.210  0.2957 -0.3757  0.5272
   15CHL1    H3 1038   5.348   2.915   6.135  0.7738  0.1505 -0.2219
   15CHL1    O3 1039   5.368   2.969   6.341  0.0412  0.9173 -0.5896
   15CHL1   H3' 1040   5.439   2.933   6.396  0.3443  1.3121 -0.7123
   15CHL1    C4 1041   5.537   2.849   6.221  0.5489  0.4822 -0.1937
   15CHL1   H4A 1042   5.611   2.887   6.295 -0.0241  1.2338  0.0012
   15CHL1   H4B 1043   5.484   2.756   6.252  0.7310  0.1153 -0.9488
   15CHL1    C5 1044   5.615   2.827   6.094  0.7330  0.5256  0.6445
   15CHL1    C6 1045   5.648   2.708   6.056 -0.3456  0.2676 -0.2800
   15CHL1    H6 1046   5.617   2.616   6.108 -2.3006  0.5877 -0.7955
   15CHL1    C7 1047   5.729   2.680   5.932  0.5425 -0.2121 -0.4024
   15CHL1   H7A 1048   5.806   2.605   5.958 -0.1846 -0.2625  1.7557
   15CHL1   H7B 1049   5.658   2.649   5.852  0.4224  0.3524 -0.5131
   15CHL1    C8 1050   5.808   2.803   5.877 -0.4767  0.2344  0.1442
   15CHL1    H8 1051   5.897   2.815   5.943 -0.6266  0.7907  0.2494
   15CHL1   C14 1052   5.844   2.793   5.730  0.9122 -0.2607  0.2246
   15CHL1   H14 1053   5.749   2.802   5.671  0.0294  0.0139  1.6460
   15CHL1   C15 1054   5.912   2.671   5.696  0.0159 -1.0051 -0.6943
   15CHL1  H15A 1055   5.987   2.659   5.777 -1.5915 -2.9963  0.6034
   15CHL1  H15B 1056   5.841   2.586   5.698 -0.0586 -0.9283  0.1506
   15CHL1   C16 1057   5.993   2.693   5.566  0.4173  0.5036 -0.1468
   15CHL1  H16A 1058   6.093   2.645   5.563 -0.0557 -0.4768 -0.8055
   15CHL1  H16B 1059   5.944   2.652   5.475  1.4617 -0.5845 -0.2278
   15CHL1   C17 1060   5.987   2.848   5.540  0.0168 -0.2597  0.0879
   15CHL1   H17 1061   5.916   2.865   5.456 -0.5380  0.9931  0.7825
   15CHL1   C13 1062   5.941   2.899   5.674  0.2773 -1.2776  1.0459
   15CHL1   C18 1063   6.063   2.919   5.764 -0.3838  0.3696 -0.4985
   15CHL1  H18A 1064   6.133   2.833   5.760 -2.0370 -1.0351  0.0089
   15CHL1  H18B 1065   6.131   3.002   5.732  1.9699 -0.1538  2.6577
   15CHL1  H18C 1066   6.051   2.942   5.872 -1.5035 -0.2047 -0.4934
   15CHL1   C12 1067   5.854   3.032   5.679  0.6376 -0.0321  0.4914
   15CHL1  H12A 1068   5.915   3.120   5.652  0.4156  0.7602  2.4016
   15CHL1  H12B 1069   5.770   3.038   5.607  0.4770  0.3960  0.7152
   15CHL1   C11 1070   5.805   3.055   5.825 -1.0798  0.1453  0.0015
   15CHL1  H11A 1071   5.886   3.093   5.891  0.9434 -0.4317 -1.9968
   15CHL1  H11B 1072   5.734   3.140   5.819 -0.7257  0.5767  1.5424
   15CHL1    C9 1073   5.727   2.932   5.880  0.3162  0.2308  0.8074
   15CHL1    H9 1074   5.631   2.921   5.826  0.1159  0.1409  1.1762
   15CHL1   C10 1075   5.667   2.959   6.022 -0.2672 -0.1106  0.2088
   15CHL1   C19 1076   5.775   3.022   6.119 -0.1728 -0.6151 -0.0107
   15CHL1  H19A 1077   5.735   3.020   6.222  0.4979 -3.9754  0.2868
   15CHL1  H19B 1078   5.862   2.953   6.110  0.3328  0.1761 -1.6093
   15CHL1  H19C 1079   5.798   3.124   6.080 -1.6849  0.0943  0.8531
   15CHL1    C1 1080   5.544   3.060   6.017  0.5448 -0.6796  0.6672
   15CHL1   H1A 1081   5.586   3.150   5.967  2.6787 -1.5573  0.7876
   15CHL1   H1B 1082   5.466   3.010   5.956  0.2418 -1.9363  2.0206
   15CHL1    C2 1083   5.475   3.085   6.149 -0.5771  0.1053  0.2097
   15CHL1   H2A 1084   5.389   3.154   6.133 -0.7626 -0.2134 -0.2028
   15CHL1   H2B 1085   5.546   3.146   6.208  0.9836 -0.4738 -1.0020
   15CHL1   C20 1086   6.127   2.892   5.485  0.1200 -0.1292 -0.2601
   15CHL1   H20 1087   6.204   2.896   5.565  2.9578  0.6881 -2.8835
   15CHL1   C21 1088   6.115   3.035   5.430 -0.0532  0.7564  0.1595
   15CHL1  H21A 1089   6.078   3.111   5.502 -0.9334  1.8889 -1.4145
   15CHL1  H21B 1090   6.054   3.037   5.337 -1.0366  0.6290  0.7897
   15CHL1  H21C 1091   6.215   3.076   5.406 -0.3795 -0.1639 -3.3366
   15CHL1   C22 1092   6.187   2.798   5.377  0.6659 -0.0869 -0.0289
   15CHL1  H22A 1093   6.282   2.850   5.352  0.6014  0.2321  0.3861
   15CHL1  H22B 1094   6.221   2.705   5.426  0.4125 -0.3313 -0.3129
   15CHL1   C23 1095   6.097   2.767   5.256 -0.6515  0.3135 -0.6430
   15CHL1  H23A 1096   6.023   2.687   5.277 -0.6190  0.7137  1.1775
   15CHL1  H23B 1097   6.041   2.858   5.228 -0.6819 -0.3398 -2.8744
   15CHL1   C24 1098   6.173   2.725   5.132 -0.3130 -0.0914  0.7092
   15CHL1  H24A 1099   6.254   2.800   5.117 -0.2277 -0.2262  0.4944
   15CHL1  H24B 1100   6.210   2.622   5.152 -0.9327  0.1630  3.5954
   15CHL1   C25 1101   6.093   2.719   4.996  0.5448  0.3464 -0.7602
   15CHL1   H25 1102   6.017   2.642   5.023 -1.9892  3.0369  0.2714
   15CHL1   C26 1103   6.022   2.848   4.947  0.1489  0.1442 -0.1860
   15CHL1  H26A 1104   5.949   2.883   5.023 -1.8945  1.5938 -2.6601
   15CHL1  H26B 1105   6.094   2.931   4.936 -0.9634  1.2458  0.5145
   15CHL1  H26C 1106   5.960   2.833   4.856  1.6615 -0.5531 -1.1413
   15CHL1   C27 1107   6.186   2.665   4.891  0.3828 -0.2687 -0.5013
   15CHL1  H27A 1108   6.226   2.567   4.924  2.1692  0.3185 -0.8039
   15CHL1  H27B 1109   6.143   2.647   4.790 -1.1941 -1.1435  0.2968
   15CHL1  H27C 1110   6.278   2.727   4.879  1.8853 -2.0006  1.2954
   16CHL1    C3 1111   4.166   6.008   5.765 -0.1951 -0.5225 -0.7427
   16CHL1    H3 1112   4.163   5.898   5.751 -0.1675 -0.6357  0.1236
   16CHL1    O3 1113   4.175   6.025   5.907  0.4707 -0.6224  0.5719
   16CHL1   H3' 1114   4.177   6.120   5.918  2.4117 -0.2662 -1.9285
   16CHL1    C4 1115   4.287   6.065   5.696  0.1096 -0.1650  0.4332
   16CHL1   H4A 1116   4.317   6.168   5.723  1.0220 -0.5877  1.0575
   16CHL1   H4B 1117   4.376   6.008   5.727 -0.7775 -1.1800  1.1794
   16CHL1    C5 1118   4.272   6.061   5.542 -0.2095  0.3826 -0.1937
   16CHL1    C6 1119   4.370   6.005   5.469  0.4706 -0.6094  0.0853
   16CHL1    H6 1120   4.464   5.969   5.514  1.1518 -0.3264 -1.0773
   16CHL1    C7 1121   4.356   5.994   5.321  0.1355 -1.0768  0.0268
   16CHL1   H7A 1122   4.452   6.023   5.271  0.7641 -1.6430  0.8803
   16CHL1   H7B 1123   4.343   5.885   5.305  0.0772 -1.3083  1.5284
   16CHL1    C8 1124   4.245   6.082   5.262 -0.6225  0.6764  0.5487
   16CHL1    H8 1125   4.285   6.185   5.271  1.7740 -0.1971  0.6488
   16CHL1   C14 1126   4.234   6.034   5.116 -0.1760 -0.2943 -1.1433
   16CHL1   H14 1127   4.205   5.928   5.131  2.6660 -1.2088 -1.6259
   16CHL1   C15 1128   4.353   6.037   5.017  0.3078 -0.6855 -0.6076
   16CHL1  H15A 1129   4.406   6.133   5.034 -0.2084 -0.3635 -0.7714
   16CHL1  H15B 1130   4.421   5.950   5.031  1.1143 -0.4405 -2.7778
   16CHL1   C16 1131   4.279   6.021   4.881 -0.3274 -0.4597 -0.6982
   16CHL1  H16A 1132   4.312   6.097   4.807  0.1950  0.2942  0.2881
   16CHL1  H16B 1133   4.312   5.926   4.834 -0.2733 -1.3750  1.0911
   16CHL1   C17 1134   4.128   6.028   4.910  0.2840  0.0089 -0.2198
   16CHL1   H17 1135   4.088   5.927   4.932  2.3410 -1.0499 -1.0685
   16CHL1   C13 1136   4.118   6.098   5.042 -0.0454 -0.4802  0.5263
   16CHL1   C18 1137   4.154   6.249   5.023 -0.1503 -0.2086  0.0851
   16CHL1  H18A 1138   4.244   6.270   4.963 -0.2496  0.5844  0.1958
   16CHL1  H18B 1139   4.084   6.316   4.968  1.0073  0.7529 -0.2398
   16CHL1  H18C 1140   4.175   6.302   5.118  1.1944  0.2880 -0.4708
   16CHL1   C12 1141   3.985   6.071   5.121 -0.7611 -0.0480 -0.6054
   16CHL1  H12A 1142   3.900   6.119   5.067 -2.3849  1.0004  2.6289
   16CHL1  H12B 1143   3.974   5.960   5.118  1.5085 -0.2943 -1.8992
   16CHL1   C11 1144   3.989   6.127   5.265  0.4184  0.5093  0.0225
   16CHL1  H11A 1145   3.985   6.238   5.266  0.4961  0.5065  0.8729
   16CHL1  H11B 1146   3.903   6.085   5.321 -0.9192  2.9679 -0.0974
   16CHL1    C9 1147   4.117   6.061   5.335 -0.2806 -0.1156 -0.1176
   16CHL1    H9 1148   4.107   5.951   5.343  1.3061 -0.3895 -1.3031
   16CHL1   C10 1149   4.137   6.105   5.481  0.6939  0.0054 -0.1339
   16CHL1   C19 1150   4.115   6.258   5.474  0.0595 -0.5622 -0.3942
   16CHL1  H19A 1151   4.008   6.286   5.466  0.1770 -0.0610 -0.2578
   16CHL1  H19B 1152   4.129   6.309   5.572 -0.0502 -0.0676 -0.6317
   16CHL1  H19C 1153   4.189   6.311   5.410  0.9082 -0.0798  0.9383
   16CHL1    C1 1154   4.024   6.035   5.558 -0.5237  0.5420 -0.0849
   16CHL1   H1A 1155   3.922   6.071   5.532 -1.6803 -2.9106 -0.8775
   16CHL1   H1B 1156   4.032   5.925   5.550 -1.3306  0.3899  0.9841
   16CHL1    C2 1157   4.040   6.067   5.708 -0.3214 -0.0297  0.2228
   16CHL1   H2A 1158   3.955   6.022   5.764  0.9001 -0.0306  2.1989
   16CHL1   H2B 1159   4.034   6.176   5.731  0.3203 -0.0797  0.6853
   16CHL1   C20 1160   4.029   6.083   4.803 -0.6762 -0.5020  0.3421
   16CHL1   H20 1161   3.940   6.133   4.848 -1.1908 -2.4402  1.5899
   16CHL1   C21 1162   3.973   5.965   4.730 -0.3231  0.0304  0.1116
   16CHL1  H21A 1163   4.044   5.926   4.654  1.4468  2.6653  0.2780
   16CHL1  H21B 1164   3.880   5.996   4.678  0.2978  1.6050 -0.1104
   16CHL1  H21C 1165   3.939   5.879   4.791 -0.1419  0.4918  0.8774
   16CHL1   C22 1166   4.094   6.174   4.703  0.2818 -1.0040  0.0107
   16CHL1  H22A 1167   4.167   6.240   4.754  1.6438 -3.9711  2.2043
   16CHL1  H22B 1168   4.147   6.110   4.629 -0.8258  0.2091 -1.8881
   16CHL1   C23 1169   3.996   6.264   4.625  0.3435 -0.3750  0.1556
   16CHL1  H23A 1170   3.923   6.203   4.568 -0.1272 -0.6406  1.0194
   16CHL1  H23B 1171   3.929   6.317   4.696  0.1982  1.3070 -1.1733
   16CHL1   C24 1172   4.062   6.375   4.544  0.3532 -0.1014 -0.2515
   16CHL1  H24A 1173   3.979   6.432   4.497 -0.6065 -1.1080  0.2009
   16CHL1  H24B 1174   4.128   6.436   4.610  1.1137 -2.6758  1.5088
   16CHL1   C25 1175   4.145   6.324   4.427 -0.8062  0.0539 -0.3133
   16CHL1   H25 1176   4.228   6.262   4.468 -0.9859  1.2079  1.9661
   16CHL1   C26 1177   4.065   6.244   4.327 -0.2418 -0.7467  0.3003
   16CHL1  H26A 1178   4.144   6.221   4.252  0.4628 -1.8126  1.3301
   16CHL1  H26B 1179   4.028   6.147   4.364 -2.1114 -0.3256 -0.3962
   16CHL1  H26C 1180   3.973   6.274   4.274 -0.8480 -1.0990  1.1329
   16CHL1   C27 1181   4.209   6.441   4.357  0.2743  1.0130  0.4731
   16CHL1  H27A 1182   4.279   6.497   4.423  0.6080 -0.0460  1.0502
   16CHL1  H27B 1183   4.275   6.404   4.276  0.3351 -0.7912  1.3065
   16CHL1  H27C 1184   4.125   6.498   4.311 -1.1142 -1.1407  0.1885
   17CHL1    C3 1185   2.722   3.579   6.214  0.3586  0.0874 -0.1060
   17CHL1    H3 1186   2.680   3.681   6.205 -0.1710 -0.2314 -1.3333
   17CHL1    O3 1187   2.719   3.551   6.353  0.0064 -0.1164 -0.1316
   17CHL1   H3' 1188   2.763   3.467   6.359  0.0894 -0.0198  0.8894
   17CHL1    C4 1189   2.632   3.486   6.142 -0.2068 -0.6925 -0.3582
   17CHL1   H4A 1190   2.673   3.383   6.155  0.6730 -0.6192 -2.2031
   17CHL1   H4B 1191   2.535   3.497   6.195  0.5099 -0.9120  1.0591
   17CHL1    C5 1192   2.627   3.503   5.994  0.0547  0.3835 -0.5302
   17CHL1    C6 1193   2.506   3.522   5.936  0.0464 -0.1752  0.0794
   17CHL1    H6 1194   2.413   3.518   5.995 -0.1504 -0.2458 -0.2302
   17CHL1    C7 1195   2.497   3.550   5.787 -0.3747 -0.2284  1.0951
   17CHL1   H7A 1196   2.412   3.489   5.749  0.4834  0.3457 -1.9573
   17CHL1   H7B 1197   2.471   3.657   5.777  0.3367 -0.0107  1.5078
   17CHL1    C8 1198   2.623   3.518   5.702 -0.3065  0.6327 -0.5756
   17CHL1    H8 1199   2.633   3.408   5.694 -1.3805  0.6379 -2.5435
   17CHL1   C14 1200   2.614   3.588   5.567  0.0708 -0.3631  0.8500
   17CHL1   H14 1201   2.618   3.697   5.591 -0.5361 -0.5865  2.0346
   17CHL1   C15 1202   2.485   3.582   5.476 -0.6385  0.1707 -0.0858
   17CHL1  H15A 1203   2.450   3.480   5.446 -0.2314  0.5022 -1.7815
   17CHL1  H15B 1204   2.404   3.629   5.535 -2.7596  0.1864 -2.8308
   17CHL1   C16 1205   2.539   3.638   5.341 -0.2396  0.7305 -0.7376
   17CHL1  H16A 1206   2.540   3.554   5.269  0.1888 -0.9795  1.1608
   17CHL1  H16B 1207   2.477   3.715   5.290 -0.1107  0.5118 -1.2199
   17CHL1   C17 1208   2.686   3.662   5.357 -0.1192  0.3827  0.4452
   17CHL1   H17 1209   2.704   3.765   5.394 -3.3555  0.5470  1.8604
   17CHL1   C13 1210   2.735   3.568   5.473  0.1028 -0.0414 -0.1455
   17CHL1   C18 1211   2.732   3.413   5.428 -0.2101 -0.4374  0.0070
   17CHL1  H18A 1212   2.711   3.342   5.511 -2.8588  0.7889  0.4754
   17CHL1  H18B 1213   2.652   3.384   5.356  0.3513 -0.9399 -0.4278
   17CHL1  H18C 1214   2.820   3.389   5.364 -0.0924 -1.1377  0.4141
   17CHL1   C12 1215   2.859   3.612   5.542  1.0510  0.6985  0.1872
   17CHL1  H12A 1216   2.943   3.578   5.477  0.4448 -1.3949  0.4138
   17CHL1  H12B 1217   2.845   3.721   5.560 -0.0088  0.3107  2.0109
   17CHL1   C11 1218   2.871   3.543   5.679  0.5618  0.3737  0.0811
   17CHL1  H11A 1219   2.886   3.434   5.664 -2.4412 -0.0798 -0.2466
   17CHL1  H11B 1220   2.964   3.579   5.729 -0.9117  1.3031  2.3034
   17CHL1    C9 1221   2.749   3.559   5.772 -0.3861 -0.2782 -1.0694
   17CHL1    H9 1222   2.739   3.669   5.787 -1.5494 -0.5458  0.3137
   17CHL1   C10 1223   2.761   3.504   5.920  0.3870 -0.2130  0.7636
   17CHL1   C19 1224   2.828   3.364   5.911 -0.3382 -0.4360  1.0221
   17CHL1  H19A 1225   2.775   3.293   5.844 -1.5812  0.5410  0.9234
   17CHL1  H19B 1226   2.935   3.368   5.878 -1.1198 -0.9265 -1.8562
   17CHL1  H19C 1227   2.824   3.307   6.006 -1.3193 -3.0493 -0.5027
   17CHL1    C1 1228   2.852   3.598   6.008 -0.3383 -0.1237  0.2450
   17CHL1   H1A 1229   2.951   3.613   5.962 -0.3141 -1.4291 -0.1570
   17CHL1   H1B 1230   2.805   3.699   6.003  0.6114  0.4479  2.0249
   17CHL1    C2 1231   2.866   3.572   6.160 -0.5623  0.1252 -0.0440
   17CHL1   H2A 1232   2.929   3.652   6.205  0.0651 -0.9627  1.0800
   17CHL1   H2B 1233   2.917   3.475   6.180  0.4293  0.5971 -0.2511
   17CHL1   C20 1234   2.759   3.655   5.219 -0.2163 -0.7744 -0.1304
   17CHL1   H20 1235   2.761   3.552   5.177 -0.5945 -0.9101  0.1849
   17CHL1   C21 1236   2.905   3.699   5.238  0.0451  0.2431  0.0521
   17CHL1  H21A 1237   2.917   3.773   5.320 -0.9681 -0.7159  1.0847
   17CHL1  H21B 1238   2.956   3.739   5.147 -1.1106  0.7417 -0.3901
   17CHL1  H21C 1239   2.960   3.608   5.270 -1.2960 -0.9561 -0.9263
   17CHL1   C22 1240   2.691   3.745   5.106  0.5600  0.1064  0.0179
   17CHL1  H22A 1241   2.583   3.727   5.123  0.7264 -1.0328 -0.0727
   17CHL1  H22B 1242   2.719   3.852   5.118  1.3875 -0.3163  2.5524
   17CHL1   C23 1243   2.739   3.704   4.968  0.4519  0.5245  0.4115
   17CHL1  H23A 1244   2.844   3.669   4.972 -0.2130 -1.9504 -1.1876
   17CHL1  H23B 1245   2.685   3.612   4.935  0.1760  0.5427  0.8048
   17CHL1   C24 1246   2.728   3.799   4.852  0.0245 -0.1019 -0.1269
   17CHL1  H24A 1247   2.623   3.829   4.830 -0.7449 -2.5939 -0.0970
   17CHL1  H24B 1248   2.791   3.884   4.887 -0.5581 -0.6638  2.4799
   17CHL1   C25 1249   2.798   3.747   4.726  0.1204 -0.3159 -0.4605
   17CHL1   H25 1250   2.774   3.827   4.652 -0.2221 -0.2129 -0.2418
   17CHL1   C26 1251   2.948   3.736   4.733 -0.8857  0.6582  0.5141
   17CHL1  H26A 1252   3.003   3.830   4.756 -1.9927  1.2115  0.9471
   17CHL1  H26B 1253   2.967   3.665   4.817  0.0313 -0.4197 -0.5584
   17CHL1  H26C 1254   2.989   3.688   4.642 -2.8072 -0.0523 -0.0303
   17CHL1   C27 1255   2.742   3.621   4.667  0.5417 -0.2233  0.1856
   17CHL1  H27A 1256   2.769   3.629   4.559 -0.8066  1.4786 -0.0789
   17CHL1  H27B 1257   2.781   3.534   4.724 -1.1802  0.2919  2.3036
   17CHL1  H27C 1258   2.631   3.617   4.674  0.5466  0.4796  0.7261
   18CHL1    C3 1259   4.040   4.540   6.131 -0.0372 -0.0009  0.0823
   18CHL1    H3 1260   4.114   4.622   6.142  0.4186 -0.4385  0.3172
   18CHL1    O3 1261   4.005   4.498   6.267 -0.6228  0.2813  1.0604
   18CHL1   H3' 1262   3.939   4.430   6.256  0.8895 -1.3455  1.5635
   18CHL1    C4 1263   3.911   4.595   6.064 -0.1610  0.5347 -0.3936
   18CHL1   H4A 1264   3.827   4.523   6.077  0.6543 -0.4664 -0.5093
   18CHL1   H4B 1265   3.886   4.691   6.113 -1.0602  0.2605 -0.3023
   18CHL1    C5 1266   3.938   4.616   5.912  0.9205  0.5035 -0.1655
   18CHL1    C6 1267   3.917   4.729   5.854  0.2648 -0.5435  0.6359
   18CHL1    H6 1268   3.876   4.818   5.904 -1.2489  0.5744 -2.3997
   18CHL1    C7 1269   3.949   4.762   5.714  0.5653  0.1472  0.3262
   18CHL1   H7A 1270   3.876   4.827   5.662 -1.6767 -2.0778  0.4795
   18CHL1   H7B 1271   4.047   4.814   5.711  1.1029 -0.9045 -1.1159
   18CHL1    C8 1272   3.980   4.630   5.618 -0.0699 -0.5284  0.6973
   18CHL1    H8 1273   3.882   4.578   5.603  0.4694 -1.3876  0.0427
   18CHL1   C14 1274   4.047   4.679   5.491 -0.2515 -0.2052  0.1794
   18CHL1   H14 1275   4.149   4.717   5.512 -0.8454  1.6357 -0.0499
   18CHL1   C15 1276   3.972   4.784   5.405 -0.2248 -0.7293 -0.0097
   18CHL1  H15A 1277   3.863   4.762   5.405 -0.1149 -1.2687 -0.0494
   18CHL1  H15B 1278   3.972   4.890   5.439  0.8204 -0.2657 -1.3589
   18CHL1   C16 1279   4.024   4.766   5.263  0.0054 -0.8500 -0.6917
   18CHL1  H16A 1280   3.940   4.761   5.190  0.2581 -0.3519 -1.0240
   18CHL1  H16B 1281   4.088   4.847   5.221 -0.4654 -0.7774 -1.2942
   18CHL1   C17 1282   4.114   4.632   5.266  0.1002  0.0711  0.5165
   18CHL1   H17 1283   4.209   4.678   5.301  0.5065 -0.6517  0.3664
   18CHL1   C13 1284   4.072   4.564   5.393 -0.7464  0.0950  0.1859
   18CHL1   C18 1285   3.943   4.495   5.342  0.1383  0.5941  0.3144
   18CHL1  H18A 1286   3.869   4.564   5.297  0.0317  1.1590  1.3234
   18CHL1  H18B 1287   3.964   4.401   5.286 -1.7401  1.3709 -1.8271
   18CHL1  H18C 1288   3.893   4.455   5.432  0.7791 -1.2228 -0.0921
   18CHL1   C12 1289   4.164   4.472   5.455  0.7238  0.2826 -0.3107
   18CHL1  H12A 1290   4.205   4.387   5.396  1.3600 -0.7404  1.5158
   18CHL1  H12B 1291   4.255   4.531   5.481  1.7175 -1.4082  0.2104
   18CHL1   C11 1292   4.111   4.422   5.597  0.2715 -0.4489  0.1991
   18CHL1  H11A 1293   4.024   4.359   5.569  0.7944 -0.6225 -1.1293
   18CHL1  H11B 1294   4.189   4.353   5.637 -0.0671 -0.2865  1.1598
   18CHL1    C9 1295   4.057   4.530   5.695  0.2125 -0.2572 -0.8249
   18CHL1    H9 1296   4.148   4.590   5.717  0.6619 -1.5880  1.2497
   18CHL1   C10 1297   4.006   4.497   5.836  0.1880  0.3263  0.0802
   18CHL1   C19 1298   3.884   4.402   5.819 -0.0380  0.7031 -0.2218
   18CHL1  H19A 1299   3.922   4.309   5.771  2.8514  0.6232  2.0137
   18CHL1  H19B 1300   3.850   4.367   5.918  0.2761  0.0402 -0.3434
   18CHL1  H19C 1301   3.812   4.451   5.750 -1.0941  0.3519  0.6062
   18CHL1    C1 1302   4.123   4.433   5.919  0.5606 -0.4889  0.4322
   18CHL1   H1A 1303   4.146   4.338   5.867  1.2138 -0.8260  1.3199
   18CHL1   H1B 1304   4.215   4.496   5.919  0.6363 -0.5989  0.1564
   18CHL1    C2 1305   4.092   4.412   6.064  0.3094 -0.4393  0.4376
   18CHL1   H2A 1306   4.190   4.387   6.109 -1.4358 -1.2621  4.2194
   18CHL1   H2B 1307   4.027   4.323   6.077 -0.6499  0.2400  0.4066
   18CHL1   C20 1308   4.145   4.555   5.133 -0.4825  0.4131  0.2224
   18CHL1   H20 1309   4.066   4.476   5.130 -1.4004  1.3013  0.2617
   18CHL1   C21 1310   4.286   4.489   5.142  0.0661  0.5326  0.1660
   18CHL1  H21A 1311   4.325   4.469   5.040  0.1097  3.7025 -0.5693
   18CHL1  H21B 1312   4.276   4.392   5.195  0.3129  0.8493  0.8071
   18CHL1  H21C 1313   4.353   4.555   5.202  0.9012 -0.8416  0.7732
   18CHL1   C22 1314   4.138   4.637   5.003 -1.1659 -0.0163 -0.3909
   18CHL1  H22A 1315   4.059   4.714   5.012 -0.1026  1.1457 -0.7125
   18CHL1  H22B 1316   4.232   4.694   4.990 -0.3746 -1.2389 -0.1218
   18CHL1   C23 1317   4.109   4.547   4.878 -0.3350 -0.3707  0.1210
   18CHL1  H23A 1318   4.204   4.495   4.857 -0.1094 -0.8911  2.1854
   18CHL1  H23B 1319   4.019   4.483   4.887 -0.5112  0.1287  3.0707
   18CHL1   C24 1320   4.099   4.637   4.754  0.8490  0.0575 -0.1460
   18CHL1  H24A 1321   4.023   4.716   4.773  0.9042  0.2221 -0.5949
   18CHL1  H24B 1322   4.198   4.681   4.729  1.7358 -1.3951  0.7235
   18CHL1   C25 1323   4.055   4.572   4.625 -0.3609  0.3200  0.1508
   18CHL1   H25 1324   3.960   4.518   4.645 -0.3695  0.0532 -0.5537
   18CHL1   C26 1325   4.035   4.689   4.536 -0.5566  0.3521 -0.2473
   18CHL1  H26A 1326   3.960   4.757   4.582 -1.2211  0.6119 -1.6550
   18CHL1  H26B 1327   4.128   4.743   4.506  0.5461 -0.7186  1.1051
   18CHL1  H26C 1328   3.982   4.665   4.441 -2.1998  2.1045  0.1641
   18CHL1   C27 1329   4.160   4.467   4.581  0.2169 -0.6607  0.1011
   18CHL1  H27A 1330   4.254   4.526   4.580  0.3714 -0.8995  0.4504
   18CHL1  H27B 1331   4.172   4.381   4.650 -1.1596 -0.4398  0.6592
   18CHL1  H27C 1332   4.133   4.426   4.481  0.4267 -1.4380  0.3580
   19CHL1    C3 1333   3.538   4.827   6.107  0.2753  0.0396  0.3580
   19CHL1    H3 1334   3.649   4.820   6.100  0.1706 -2.0847  0.2878
   19CHL1    O3 1335   3.514   4.831   6.243 -0.1665 -0.3698 -0.1264
   19CHL1   H3' 1336   3.419   4.842   6.250 -0.1992 -0.8211  0.1965
   19CHL1    C4 1337   3.469   4.944   6.030  0.0796  0.4056 -0.4612
   19CHL1   H4A 1338   3.358   4.936   6.038 -0.0388 -0.5931 -2.3431
   19CHL1   H4B 1339   3.503   5.041   6.070  1.5559  0.3164 -1.4410
   19CHL1    C5 1340   3.497   4.930   5.879  0.2849 -0.1134 -0.6735
   19CHL1    C6 1341   3.573   5.028   5.825 -0.3826 -0.8057  0.3118
   19CHL1    H6 1342   3.604   5.109   5.892 -0.8180 -2.2160  2.3246
   19CHL1    C7 1343   3.597   5.036   5.672  0.0555 -0.6506 -0.1984
   19CHL1   H7A 1344   3.573   5.133   5.623 -1.5645 -0.8456  0.1378
   19CHL1   H7B 1345   3.708   5.033   5.667  0.5760  2.7539  3.5960
   19CHL1    C8 1346   3.518   4.930   5.590  0.9597  0.1989 -0.5588
   19CHL1    H8 1347   3.418   4.972   5.568  1.0057  0.1704 -0.8255
   19CHL1   C14 1348   3.579   4.905   5.453  0.6266  0.8110 -0.1815
   19CHL1   H14 1349   3.672   4.846   5.470 -0.9532 -2.0994 -0.8728
   19CHL1   C15 1350   3.621   5.030   5.365  0.5704 -0.0331 -0.1402
   19CHL1  H15A 1351   3.543   5.110   5.374  0.9852  0.1609  2.4608
   19CHL1  H15B 1352   3.721   5.060   5.402  0.8665 -1.4947  0.3050
   19CHL1   C16 1353   3.629   4.967   5.226  0.5052  0.2366  0.1077
   19CHL1  H16A 1354   3.559   5.013   5.153  2.0393 -0.3905 -1.8526
   19CHL1  H16B 1355   3.729   4.964   5.178  1.1018  0.1927  1.3089
   19CHL1   C17 1356   3.590   4.817   5.241  0.2284  0.7804 -0.3445
   19CHL1   H17 1357   3.680   4.755   5.264 -2.0362 -2.4904  0.4755
   19CHL1   C13 1358   3.503   4.809   5.367 -0.5026  0.2925 -0.3091
   19CHL1   C18 1359   3.361   4.848   5.334  0.3707  0.0563 -0.0334
   19CHL1  H18A 1360   3.303   4.842   5.429  0.0447  1.0968 -0.1579
   19CHL1  H18B 1361   3.361   4.952   5.296  1.1055  0.1543  0.2111
   19CHL1  H18C 1362   3.316   4.773   5.266  2.0633 -2.2454  1.2206
   19CHL1   C12 1363   3.512   4.672   5.434  0.3438  1.0332  0.1332
   19CHL1  H12A 1364   3.451   4.618   5.358 -0.7125  1.9978  0.2556
   19CHL1  H12B 1365   3.612   4.625   5.433 -0.1218 -0.0943 -2.5179
   19CHL1   C11 1366   3.461   4.670   5.588  0.2558 -0.2653  1.1927
   19CHL1  H11A 1367   3.351   4.679   5.579  0.2016 -0.5424  1.5626
   19CHL1  H11B 1368   3.485   4.577   5.644  1.9998 -1.3803 -1.2202
   19CHL1    C9 1369   3.506   4.795   5.670 -0.1782  0.1927  0.3286
   19CHL1    H9 1370   3.612   4.760   5.675 -0.3567 -0.4672 -0.3359
   19CHL1   C10 1371   3.448   4.801   5.816  0.0118  0.0743  0.4836
   19CHL1   C19 1372   3.297   4.795   5.812  0.1721 -0.2666 -0.1063
   19CHL1  H19A 1373   3.264   4.692   5.787 -2.7714  0.4095  0.5145
   19CHL1  H19B 1374   3.254   4.825   5.910 -1.5124 -0.0354 -0.8799
   19CHL1  H19C 1375   3.252   4.858   5.732 -1.6764 -1.6820 -0.2788
   19CHL1    C1 1376   3.501   4.684   5.902 -0.2805 -0.4204 -0.3906
   19CHL1   H1A 1377   3.460   4.585   5.875 -1.5229 -0.0679  0.1516
   19CHL1   H1B 1378   3.611   4.671   5.892 -0.5450 -3.2770 -0.3515
   19CHL1    C2 1379   3.482   4.697   6.052  0.1810  0.0300 -0.6142
   19CHL1   H2A 1380   3.540   4.615   6.098  1.5021  0.3673 -1.5921
   19CHL1   H2B 1381   3.374   4.681   6.075  0.8135 -1.3012  1.7004
   19CHL1   C20 1382   3.549   4.739   5.110 -0.0859  0.1835 -0.5345
   19CHL1   H20 1383   3.487   4.651   5.137 -1.3747  1.0808 -0.4639
   19CHL1   C21 1384   3.679   4.695   5.043 -0.0640 -0.3194 -0.7743
   19CHL1  H21A 1385   3.746   4.644   5.116  3.5293  3.3778 -1.1638
   19CHL1  H21B 1386   3.730   4.788   5.012 -0.1830  0.8824  2.2598
   19CHL1  H21C 1387   3.652   4.629   4.958  1.1515 -1.5794 -0.2180
   19CHL1   C22 1388   3.450   4.817   5.017 -0.9973  0.3629 -0.0389
   19CHL1  H22A 1389   3.359   4.854   5.069 -0.5639  2.2026 -0.5257
   19CHL1  H22B 1390   3.498   4.900   4.962  1.3934  1.5296  3.4587
   19CHL1   C23 1391   3.390   4.711   4.925 -0.1844  0.6201  0.9682
   19CHL1  H23A 1392   3.472   4.656   4.874  1.0122  1.2007  2.1700
   19CHL1  H23B 1393   3.328   4.641   4.985  0.1163  1.3169  2.1397
   19CHL1   C24 1394   3.297   4.776   4.823 -0.2991 -0.4688  0.2225
   19CHL1  H24A 1395   3.210   4.822   4.874  0.0056 -0.7454  1.0092
   19CHL1  H24B 1396   3.342   4.863   4.771 -1.2541  0.9630  1.6765
   19CHL1   C25 1397   3.226   4.678   4.735  0.4695  0.3039  0.5823
   19CHL1   H25 1398   3.173   4.601   4.795 -1.7313  2.0209  0.9588
   19CHL1   C26 1399   3.117   4.747   4.655  0.2441 -0.0387 -0.6687
   19CHL1  H26A 1400   3.161   4.843   4.619  1.1130 -0.2891 -0.3110
   19CHL1  H26B 1401   3.062   4.691   4.576 -0.7654  1.9717 -1.4761
   19CHL1  H26C 1402   3.038   4.781   4.724 -0.7215 -0.4210 -1.5594
   19CHL1   C27 1403   3.324   4.608   4.635  0.8943  0.2842 -0.5547
   19CHL1  H27A 1404   3.393   4.543   4.695 -1.5101  1.1427  3.5542
   19CHL1  H27B 1405   3.270   4.553   4.556  1.4776 -0.6014 -0.3515
   19CHL1  H27C 1406   3.376   4.696   4.592  0.5313  1.0017  0.4475
   20CHL1    C3 1407   3.111   6.293   5.824 -0.6969 -0.8331  0.0943
   20CHL1    H3 1408   3.004   6.271   5.804 -0.6895 -0.7280 -0.0617
   20CHL1    O3 1409   3.144   6.258   5.954 -0.4036  0.3137  0.0583
   20CHL1   H3' 1410   3.109   6.334   6.001 -0.8526  0.7857 -0.9807
   20CHL1    C4 1411   3.205   6.209   5.729 -0.0415  0.0690 -0.0650
   20CHL1   H4A 1412   3.314   6.228   5.739  0.3227 -0.2121 -2.9102
   20CHL1   H4B 1413   3.201   6.101   5.757  3.3213  0.3045  1.8990
   20CHL1    C5 1414   3.176   6.245   5.591 -0.2816 -0.1182  0.8449
   20CHL1    C6 1415   3.122   6.158   5.506 -0.5443 -0.2634  0.0885
   20CHL1    H6 1416   3.105   6.052   5.532 -3.2862 -0.6171 -2.6535
   20CHL1    C7 1417   3.106   6.180   5.356  0.0127 -0.3917  0.4207
   20CHL1   H7A 1418   3.154   6.098   5.298  0.6624 -0.8550  1.5791
   20CHL1   H7B 1419   2.998   6.191   5.335  0.0618 -2.1317 -0.9028
   20CHL1    C8 1420   3.180   6.311   5.307  0.5417 -0.0810 -0.3979
   20CHL1    H8 1421   3.288   6.289   5.295  0.6423  0.2046 -0.0362
   20CHL1   C14 1422   3.119   6.351   5.169  0.4874 -0.2637  0.5151
   20CHL1   H14 1423   3.011   6.366   5.194  0.3215  0.4811 -0.5757
   20CHL1   C15 1424   3.121   6.253   5.050  0.5274 -0.1617  0.4900
   20CHL1  H15A 1425   3.218   6.198   5.056 -0.3856 -1.8587  0.3865
   20CHL1  H15B 1426   3.042   6.175   5.051 -0.1135  0.4798  0.4091
   20CHL1   C16 1427   3.125   6.332   4.922  1.2033  0.2332  0.5508
   20CHL1  H16A 1428   3.212   6.310   4.856  0.0939  0.6575 -1.1128
   20CHL1  H16B 1429   3.034   6.316   4.860  1.4979  0.9220 -0.0574
   20CHL1   C17 1430   3.115   6.480   4.965  0.5398 -0.1775  0.0453
   20CHL1   H17 1431   3.007   6.505   4.980 -0.4615 -3.1614 -1.2747
   20CHL1   C13 1432   3.177   6.482   5.109  0.6022  0.1108  0.8549
   20CHL1   C18 1433   3.327   6.472   5.087 -0.1100 -0.2042  0.7657
   20CHL1  H18A 1434   3.359   6.388   5.021 -0.6948 -0.5486  0.9147
   20CHL1  H18B 1435   3.380   6.559   5.043 -0.2162 -0.1166  0.8142
   20CHL1  H18C 1436   3.386   6.462   5.180 -0.1647 -1.4465  0.6913
   20CHL1   C12 1437   3.156   6.598   5.205 -0.4996 -0.7755  0.3946
   20CHL1  H12A 1438   3.205   6.690   5.169 -1.3824 -0.6741 -0.5922
   20CHL1  H12B 1439   3.048   6.622   5.211 -0.2068  0.3233  1.6176
   20CHL1   C11 1440   3.208   6.567   5.345 -0.3142 -0.3060  0.1371
   20CHL1  H11A 1441   3.318   6.559   5.330 -0.2628  0.1791  0.2345
   20CHL1  H11B 1442   3.191   6.653   5.413  1.3940  0.5786 -0.5031
   20CHL1    C9 1443   3.160   6.429   5.405 -0.2648 -0.0230 -0.1037
   20CHL1    H9 1444   3.050   6.428   5.421 -0.1685 -0.4514  0.5371
   20CHL1   C10 1445   3.209   6.392   5.551  0.2762 -0.3146  0.3124
   20CHL1   C19 1446   3.354   6.411   5.553  0.7481  0.3275 -0.3353
   20CHL1  H19A 1447   3.397   6.370   5.647  0.7412 -0.2976 -0.5967
   20CHL1  H19B 1448   3.402   6.368   5.462  0.3722 -0.1248 -0.3245
   20CHL1  H19C 1449   3.384   6.518   5.550  0.1354  0.5389  0.6594
   20CHL1    C1 1450   3.132   6.483   5.652 -0.3423  0.3361  0.0102
   20CHL1   H1A 1451   3.160   6.588   5.629  0.1102  0.0234 -0.9080
   20CHL1   H1B 1452   3.026   6.458   5.630  0.2474 -2.5484  0.0470
   20CHL1    C2 1453   3.141   6.439   5.800  0.3951  0.0333  0.0692
   20CHL1   H2A 1454   3.058   6.493   5.849  0.6467 -1.2946  2.0600
   20CHL1   H2B 1455   3.239   6.470   5.842  0.0272 -1.7366  2.4100
   20CHL1   C20 1456   3.160   6.586   4.860  0.7966  0.7977 -0.1010
   20CHL1   H20 1457   3.271   6.586   4.854  0.9531 -1.5026  1.4788
   20CHL1   C21 1458   3.105   6.721   4.901 -0.0617 -0.1206  0.2450
   20CHL1  H21A 1459   3.139   6.756   5.001  0.6513  1.0675 -0.4091
   20CHL1  H21B 1460   2.995   6.705   4.912  0.0943 -1.8538 -0.3388
   20CHL1  H21C 1461   3.110   6.810   4.835 -1.4724  1.0358  1.6149
   20CHL1   C22 1462   3.113   6.546   4.714  0.6960 -0.1762  0.7431
   20CHL1  H22A 1463   3.160   6.449   4.690  0.6617  0.1011 -0.5007
   20CHL1  H22B 1464   3.004   6.529   4.717  0.9816 -2.5118 -0.2908
   20CHL1   C23 1465   3.159   6.645   4.596 -0.7824  0.1060 -0.1124
   20CHL1  H23A 1466   3.126   6.596   4.502  0.1921  0.4770 -0.6604
   20CHL1  H23B 1467   3.108   6.743   4.598  1.5693  1.3841  0.7560
   20CHL1   C24 1468   3.309   6.663   4.588 -0.5183 -0.9854 -0.1512
   20CHL1  H24A 1469   3.347   6.703   4.685  0.5738 -0.3094 -0.8419
   20CHL1  H24B 1470   3.360   6.565   4.579  2.9024  0.7006 -0.5269
   20CHL1   C25 1471   3.343   6.753   4.462 -0.6397  0.6222  0.3146
   20CHL1   H25 1472   3.261   6.827   4.457 -0.0824  1.2608  0.4719
   20CHL1   C26 1473   3.479   6.815   4.498 -0.0755 -0.0181 -0.6335
   20CHL1  H26A 1474   3.498   6.882   4.411  1.9805  1.1883  0.6698
   20CHL1  H26B 1475   3.469   6.880   4.588  2.0140 -0.7422  0.1710
   20CHL1  H26C 1476   3.558   6.739   4.514 -0.4298 -0.0702  1.0625
   20CHL1   C27 1477   3.340   6.684   4.325  0.3189  0.2501  0.0577
   20CHL1  H27A 1478   3.381   6.744   4.241  2.2674 -1.6801 -0.4717
   20CHL1  H27B 1479   3.409   6.596   4.330  0.2374  0.0406 -1.9084
   20CHL1  H27C 1480   3.234   6.656   4.307  0.2937 -0.5937  1.3337
   21CHL1    C3 1481   2.227   4.969   5.763  0.2851 -0.1531 -0.7692
   21CHL1    H3 1482   2.337   4.973   5.748  1.0683  0.3400  3.5978
   21CHL1    O3 1483   2.208   4.954   5.904 -0.4247 -0.4016 -0.3141
   21CHL1   H3' 1484   2.251   4.873   5.933 -0.3629 -0.5463 -0.7904
   21CHL1    C4 1485   2.154   5.092   5.720  0.1752  0.0529  0.3764
   21CHL1   H4A 1486   2.047   5.075   5.745 -0.4100  2.4419 -0.2886
   21CHL1   H4B 1487   2.177   5.188   5.770 -1.3731 -0.3231  1.9004
   21CHL1    C5 1488   2.166   5.111   5.571  0.2192  0.9610 -0.4920
   21CHL1    C6 1489   2.201   5.226   5.517  0.2355 -0.0563 -0.7738
   21CHL1    H6 1490   2.213   5.309   5.588  2.3078  0.3214 -1.4700
   21CHL1    C7 1491   2.216   5.259   5.377  0.9932  0.1529  0.6078
   21CHL1   H7A 1492   2.173   5.359   5.353  1.0683  0.0067 -0.1791
   21CHL1   H7B 1493   2.320   5.281   5.344  0.6033 -0.6467 -1.3049
   21CHL1    C8 1494   2.166   5.148   5.282 -0.6267  0.3695 -0.4213
   21CHL1    H8 1495   2.055   5.149   5.285 -0.6925 -1.7335 -0.6186
   21CHL1   C14 1496   2.225   5.161   5.143  0.8211  0.7316 -0.4571
   21CHL1   H14 1497   2.332   5.133   5.153  0.3187 -2.6586 -2.8555
   21CHL1   C15 1498   2.194   5.294   5.078 -0.6293 -0.2972  0.5662
   21CHL1  H15A 1499   2.085   5.312   5.090 -0.1645  2.7080  1.1181
   21CHL1  H15B 1500   2.250   5.385   5.107  2.2447 -1.0698 -2.0798
   21CHL1   C16 1501   2.219   5.263   4.934  0.4634 -0.5102 -0.1314
   21CHL1  H16A 1502   2.137   5.317   4.881  0.2811  1.1127  1.7138
   21CHL1  H16B 1503   2.312   5.306   4.893 -1.7725  4.4356 -0.7203
   21CHL1   C17 1504   2.220   5.108   4.914  0.7309 -0.0823 -0.1783
   21CHL1   H17 1505   2.329   5.090   4.902  0.8411 -0.2947  1.0400
   21CHL1   C13 1506   2.166   5.055   5.049  0.4210 -0.2466 -0.0622
   21CHL1   C18 1507   2.007   5.063   5.045  0.4188 -0.5529 -1.0690
   21CHL1  H18A 1508   1.956   5.049   5.142  0.6011  2.1179 -0.5112
   21CHL1  H18B 1509   1.974   5.163   5.009 -1.2607  0.2332  2.2422
   21CHL1  H18C 1510   1.960   4.988   4.979 -0.9875  1.5813 -2.6324
   21CHL1   C12 1511   2.207   4.919   5.091 -0.0519  0.4343  0.0688
   21CHL1  H12A 1512   2.147   4.849   5.029 -0.1686  1.0062 -0.4723
   21CHL1  H12B 1513   2.315   4.899   5.072 -0.2749  0.2707 -1.0970
   21CHL1   C11 1514   2.156   4.893   5.233 -0.3341  0.5264 -0.4960
   21CHL1  H11A 1515   2.045   4.884   5.232 -0.5530  2.6788 -1.0888
   21CHL1  H11B 1516   2.198   4.795   5.264 -2.0377  0.0916  0.5894
   21CHL1    C9 1517   2.198   5.004   5.335  0.7443 -0.1965  0.5890
   21CHL1    H9 1518   2.309   5.010   5.344  0.6106 -0.7981  3.5558
   21CHL1   C10 1519   2.152   4.982   5.481  0.2400  0.4304 -0.5862
   21CHL1   C19 1520   1.997   4.971   5.481 -0.0427 -0.3137 -0.4652
   21CHL1  H19A 1521   1.954   5.069   5.452  0.5806  1.5031  4.0126
   21CHL1  H19B 1522   1.961   4.891   5.412  0.9329 -0.9088 -0.3024
   21CHL1  H19C 1523   1.943   4.946   5.575  1.1407  0.6699  0.5069
   21CHL1    C1 1524   2.219   4.859   5.547  0.2802  0.1595  0.0208
   21CHL1   H1A 1525   2.195   4.767   5.489 -0.6926 -0.1090  0.8031
   21CHL1   H1B 1526   2.328   4.870   5.530  0.1068  3.1849  0.3645
   21CHL1    C2 1527   2.180   4.845   5.693 -0.0045 -0.3983  0.1439
   21CHL1   H2A 1528   2.237   4.755   5.726  0.0901 -0.8551 -1.2146
   21CHL1   H2B 1529   2.073   4.815   5.697  0.0778 -0.8187 -0.5277
   21CHL1   C20 1530   2.171   5.055   4.778  0.1994 -0.1304 -0.4342
   21CHL1   H20 1531   2.066   5.082   4.753 -1.4805 -2.3161  3.4319
   21CHL1   C21 1532   2.186   4.896   4.783 -0.3319 -0.3164  0.6326
   21CHL1  H21A 1533   2.100   4.849   4.836  0.0943 -0.0580  1.5800
   21CHL1  H21B 1534   2.282   4.863   4.828 -1.1903 -2.5529  0.9477
   21CHL1  H21C 1535   2.186   4.854   4.681 -0.2077  0.1629  0.4362
   21CHL1   C22 1536   2.259   5.111   4.657  0.3953  0.8522  0.1643
   21CHL1  H22A 1537   2.366   5.109   4.688  0.0636  0.1744  1.3637
   21CHL1  H22B 1538   2.243   5.037   4.575 -1.4012 -1.8168  2.7169
   21CHL1   C23 1539   2.223   5.258   4.617 -0.5657 -0.3481 -0.1266
   21CHL1  H23A 1540   2.115   5.283   4.624 -0.5811 -0.1814 -0.8418
   21CHL1  H23B 1541   2.258   5.334   4.690 -0.8326  0.3611 -0.7219
   21CHL1   C24 1542   2.261   5.299   4.473  0.0165  0.1930  0.0721
   21CHL1  H24A 1543   2.270   5.410   4.464 -3.8489  0.5735 -1.0032
   21CHL1  H24B 1544   2.364   5.270   4.444 -1.0246 -2.9879 -0.8362
   21CHL1   C25 1545   2.176   5.237   4.357 -0.1860  0.1942  0.0686
   21CHL1   H25 1546   2.168   5.128   4.378 -0.0622 -0.1802 -1.6928
   21CHL1   C26 1547   2.033   5.305   4.349 -0.6263  0.0195  0.2203
   21CHL1  H26A 1548   1.969   5.276   4.263  0.5411 -1.0227 -0.3306
   21CHL1  H26B 1549   1.982   5.299   4.447 -1.9382  0.4654 -0.4052
   21CHL1  H26C 1550   2.061   5.412   4.334  1.8334 -0.6122 -0.2292
   21CHL1   C27 1551   2.250   5.251   4.219 -0.0000  0.2741  0.1270
   21CHL1  H27A 1552   2.351   5.206   4.224 -0.5124 -0.8565  0.6074
   21CHL1  H27B 1553   2.184   5.198   4.146 -0.1096 -0.2736  0.6145
   21CHL1  H27C 1554   2.250   5.359   4.196  3.7071  0.3990  0.1514
   22CHL1    C3 1555   3.892   3.594   6.342 -0.5293 -0.3076 -0.4656
   22CHL1    H3 1556   3.956   3.684   6.332 -2.4899  1.2122 -0.0259
   22CHL1    O3 1557   3.812   3.607   6.458  0.6334 -0.2711 -0.5112
   22CHL1   H3' 1558   3.769   3.522   6.461 -0.5088  0.2963 -0.1481
   22CHL1    C4 1559   3.808   3.583   6.218 -0.1155  0.3715  0.4938
   22CHL1   H4A 1560   3.733   3.502   6.226  0.8759 -0.8536 -1.8876
   22CHL1   H4B 1561   3.763   3.683   6.200 -1.3639 -0.1274  0.7741
   22CHL1    C5 1562   3.891   3.547   6.092 -0.3467  0.2451 -0.0618
   22CHL1    C6 1563   3.891   3.622   5.983 -0.2881  0.2596  0.4612
   22CHL1    H6 1564   3.827   3.711   5.973 -0.7261 -0.2692 -2.1658
   22CHL1    C7 1565   3.980   3.601   5.863  0.4822 -0.2134  0.0691
   22CHL1   H7A 1566   3.925   3.626   5.770  2.0602  1.3910 -0.4921
   22CHL1   H7B 1567   4.065   3.673   5.870  0.9309 -0.6175 -0.9757
   22CHL1    C8 1568   4.036   3.456   5.860  0.3093  0.1225  0.0694
   22CHL1    H8 1569   3.955   3.383   5.835  1.2798 -0.1429 -2.6988
   22CHL1   C14 1570   4.124   3.435   5.749 -0.7417  0.6115 -0.4886
   22CHL1   H14 1571   4.207   3.503   5.777  0.0603 -0.5505  0.0503
   22CHL1   C15 1572   4.093   3.488   5.609  0.1588 -0.2068 -0.3559
   22CHL1  H15A 1573   3.996   3.441   5.583  0.2047  0.5938 -2.1563
   22CHL1  H15B 1574   4.085   3.599   5.600 -0.8941 -0.0255  2.0093
   22CHL1   C16 1575   4.201   3.420   5.525  0.2088 -0.2034 -0.3439
   22CHL1  H16A 1576   4.147   3.361   5.447 -0.0674 -1.3447  0.6761
   22CHL1  H16B 1577   4.267   3.491   5.471 -1.2978  0.1037 -1.8686
   22CHL1   C17 1578   4.275   3.309   5.611  0.1039  0.1109 -0.3517
   22CHL1   H17 1579   4.365   3.358   5.655 -0.5453  0.4874  0.6005
   22CHL1   C13 1580   4.186   3.294   5.734  0.1968 -0.5153 -0.3765
   22CHL1   C18 1581   4.083   3.185   5.710 -0.1296 -0.3123  0.2694
   22CHL1  H18A 1582   4.121   3.082   5.724  0.4274 -0.1938 -0.3449
   22CHL1  H18B 1583   3.990   3.198   5.770 -0.0239  0.9283  0.1902
   22CHL1  H18C 1584   4.046   3.196   5.606  0.6992  1.0354  0.0937
   22CHL1   C12 1585   4.262   3.267   5.864 -0.2426 -0.2887  0.3637
   22CHL1  H12A 1586   4.321   3.173   5.868  0.4648  0.1782  1.3785
   22CHL1  H12B 1587   4.332   3.353   5.866 -0.1137 -0.2742 -1.9426
   22CHL1   C11 1588   4.163   3.268   5.982 -0.7294  0.3642  0.0324
   22CHL1  H11A 1589   4.087   3.189   5.964  0.3632 -0.7514  0.1437
   22CHL1  H11B 1590   4.211   3.247   6.080 -0.8365  0.7431  0.1680
   22CHL1    C9 1591   4.096   3.412   5.993 -0.2547 -0.5786  0.0038
   22CHL1    H9 1592   4.168   3.492   6.023 -3.2501  2.6075 -0.5911
   22CHL1   C10 1593   3.997   3.426   6.109  0.6472 -0.1019 -0.6263
   22CHL1   C19 1594   3.912   3.303   6.112 -0.5511  0.1917 -0.3430
   22CHL1  H19A 1595   3.968   3.215   6.150  1.4722  2.4212  2.2436
   22CHL1  H19B 1596   3.832   3.315   6.188 -1.6246  1.4281 -1.6086
   22CHL1  H19C 1597   3.859   3.280   6.017  1.3506  0.0718 -1.4161
   22CHL1    C1 1598   4.072   3.449   6.238 -0.3069 -0.3887  0.6089
   22CHL1   H1A 1599   4.131   3.357   6.256 -2.8685 -2.0115  1.2723
   22CHL1   H1B 1600   4.143   3.533   6.220  1.7887 -1.7503  2.1106
   22CHL1    C2 1601   3.987   3.476   6.362 -0.3629  0.5804  1.0992
   22CHL1   H2A 1602   4.060   3.492   6.444  0.6367 -0.9181  0.5474
   22CHL1   H2B 1603   3.937   3.380   6.385  0.1588  0.1215  0.3654
   22CHL1   C20 1604   4.317   3.179   5.531  0.3388  0.1358 -0.9489
   22CHL1   H20 1605   4.224   3.139   5.484  0.3134  0.6924 -1.3811
   22CHL1   C21 1606   4.391   3.075   5.622 -0.0569 -0.0846  0.2196
   22CHL1  H21A 1607   4.324   3.022   5.693 -0.5732  0.0510 -0.1597
   22CHL1  H21B 1608   4.466   3.134   5.679  0.7768  1.1321 -1.9913
   22CHL1  H21C 1609   4.431   2.990   5.564 -2.2529 -1.4501  0.5881
   22CHL1   C22 1610   4.410   3.218   5.417 -0.7742  0.8138  0.6495
   22CHL1  H22A 1611   4.370   3.302   5.357 -1.2248  0.6099  0.6637
   22CHL1  H22B 1612   4.501   3.265   5.461 -0.0174  0.8614 -0.9037
   22CHL1   C23 1613   4.443   3.104   5.324  0.3315 -0.1410 -0.3943
   22CHL1  H23A 1614   4.539   3.058   5.355  0.2162  0.9230  1.6978
   22CHL1  H23B 1615   4.365   3.025   5.331 -0.5049  0.6759 -0.2567
   22CHL1   C24 1616   4.464   3.157   5.180  0.2575  0.6707 -0.5264
   22CHL1  H24A 1617   4.378   3.195   5.121  0.9121  0.8823 -1.3696
   22CHL1  H24B 1618   4.532   3.244   5.176  0.4272  0.9768  3.9341
   22CHL1   C25 1619   4.537   3.041   5.102 -0.3974  0.7588 -0.2456
   22CHL1   H25 1620   4.630   3.003   5.149 -0.9175 -1.0938 -0.6126
   22CHL1   C26 1621   4.456   2.910   5.073 -0.5056 -0.1579 -0.8189
   22CHL1  H26A 1622   4.518   2.830   5.028 -1.5152  0.5829 -3.7162
   22CHL1  H26B 1623   4.414   2.874   5.170  0.4931  0.1205 -0.2671
   22CHL1  H26C 1624   4.368   2.927   5.008 -0.4625  0.3902 -0.7314
   22CHL1   C27 1625   4.582   3.104   4.964 -0.2541 -0.1418  0.3298
   22CHL1  H27A 1626   4.673   3.168   4.967 -1.6949  2.0220  0.5040
   22CHL1  H27B 1627   4.599   3.021   4.893 -0.5003  1.0815 -1.1997
   22CHL1  H27C 1628   4.502   3.171   4.926  0.0350 -0.3639 -0.6840
   23CHL1    C3 1629   2.988   0.729   5.654 -0.0992 -0.0156  0.1164
   23CHL1    H3 1630   3.067   0.659   5.617 -1.2124  0.0402 -2.5701
   23CHL1    O3 1631   3.000   0.759   5.792 -0.4888 -0.6241  0.0867
   23CHL1   H3' 1632   2.917   0.797   5.820 -0.1910 -0.9085  1.4365
   23CHL1    C4 1633   2.988   0.850   5.559 -0.5853 -0.4586  0.0034
   23CHL1   H4A 1634   2.911   0.919   5.600 -0.3134 -0.4991  0.6028
   23CHL1   H4B 1635   3.083   0.907   5.573  0.3828 -0.6785 -4.2675
   23CHL1    C5 1636   2.960   0.816   5.409 -0.4286  0.5020 -0.3554
   23CHL1    C6 1637   3.038   0.861   5.311 -0.3233 -0.2843  0.1897
   23CHL1    H6 1638   3.126   0.922   5.332 -0.1862 -0.3822 -0.0950
   23CHL1    C7 1639   3.000   0.831   5.170  0.0526 -0.0000 -0.9407
   23CHL1   H7A 1640   3.024   0.923   5.112  1.8933 -0.4780 -0.9852
   23CHL1   H7B 1641   3.054   0.745   5.126  0.0689  0.7450 -2.4446
   23CHL1    C8 1642   2.849   0.795   5.150 -0.2275  0.8120 -0.4051
   23CHL1    H8 1643   2.794   0.891   5.161 -0.3173  0.6994  0.1493
   23CHL1   C14 1644   2.829   0.757   5.008  0.2445  0.4211 -0.1157
   23CHL1   H14 1645   2.886   0.664   4.985  0.1681  0.0322  1.2176
   23CHL1   C15 1646   2.854   0.861   4.906 -0.1554  0.3488  0.5130
   23CHL1  H15A 1647   2.811   0.959   4.936 -3.4894 -1.1382  1.0479
   23CHL1  H15B 1648   2.957   0.886   4.876 -0.9419  1.2192 -1.6620
   23CHL1   C16 1649   2.784   0.809   4.782 -0.1950 -0.7277  0.1197
   23CHL1  H16A 1650   2.720   0.890   4.741  0.8884  1.3968  2.4194
   23CHL1  H16B 1651   2.852   0.771   4.703 -0.0948  0.0696 -0.1824
   23CHL1   C17 1652   2.699   0.686   4.820  0.0847  0.3440 -0.2588
   23CHL1   H17 1653   2.764   0.596   4.809 -0.0895  0.0125  1.2305
   23CHL1   C13 1654   2.683   0.699   4.975 -0.0586  0.7046 -0.6078
   23CHL1   C18 1655   2.574   0.803   5.010  0.1790 -0.6163 -0.1905
   23CHL1  H18A 1656   2.590   0.894   4.947  3.8084 -2.2822 -2.0341
   23CHL1  H18B 1657   2.468   0.779   4.988  0.1875 -0.7156 -0.1255
   23CHL1  H18C 1658   2.583   0.836   5.116 -2.0639 -2.6177  0.7070
   23CHL1   C12 1659   2.661   0.573   5.061  1.0396  0.4803  0.8005
   23CHL1  H12A 1660   2.554   0.541   5.058  0.2588  2.9588  0.1305
   23CHL1  H12B 1661   2.722   0.483   5.040 -1.8197 -1.2837 -0.5985
   23CHL1   C11 1662   2.688   0.604   5.214  0.1558 -0.4090  0.2397
   23CHL1  H11A 1663   2.596   0.653   5.252  0.2606 -1.1230  1.4714
   23CHL1  H11B 1664   2.679   0.509   5.272  0.3643  0.7970  2.3525
   23CHL1    C9 1665   2.812   0.680   5.246 -0.2598  0.2470 -0.0722
   23CHL1    H9 1666   2.892   0.605   5.231 -0.0495  0.5551 -0.5295
   23CHL1   C10 1667   2.824   0.729   5.397 -0.1170  0.3176  0.0528
   23CHL1   C19 1668   2.698   0.816   5.414 -0.1699 -0.4989 -0.0174
   23CHL1  H19A 1669   2.678   0.891   5.335 -2.6121  0.0262  0.9916
   23CHL1  H19B 1670   2.604   0.757   5.427  0.0699 -0.8921 -0.0442
   23CHL1  H19C 1671   2.711   0.872   5.509  1.2252 -0.2088 -0.3637
   23CHL1    C1 1672   2.818   0.615   5.497 -0.0198  1.0217  0.2112
   23CHL1   H1A 1673   2.713   0.582   5.511  0.6084 -0.1747  2.9021
   23CHL1   H1B 1674   2.881   0.532   5.457 -0.9577 -0.3140  1.3924
   23CHL1    C2 1675   2.857   0.645   5.640  0.3810 -0.1536  0.4736
   23CHL1   H2A 1676   2.882   0.552   5.696 -0.1887 -0.9961 -0.6257
   23CHL1   H2B 1677   2.776   0.703   5.687  1.2314  2.3574 -0.9306
   23CHL1   C20 1678   2.571   0.676   4.732 -0.2001  1.3333  0.1263
   23CHL1   H20 1679   2.496   0.753   4.759 -2.7054 -1.5309  1.8658
   23CHL1   C21 1680   2.503   0.537   4.759  0.3689 -0.4795  0.5088
   23CHL1  H21A 1681   2.460   0.540   4.862 -2.5843 -0.0570 -0.6452
   23CHL1  H21B 1682   2.581   0.458   4.752 -0.0638 -0.7902 -1.1092
   23CHL1  H21C 1683   2.424   0.512   4.686 -0.4359 -1.0552  1.5558
   23CHL1   C22 1684   2.613   0.692   4.582 -0.2619  0.2945 -0.9100
   23CHL1  H22A 1685   2.517   0.671   4.530 -1.2155 -0.2678  0.9816
   23CHL1  H22B 1686   2.644   0.796   4.561 -1.1931  0.5730 -0.9559
   23CHL1   C23 1687   2.726   0.604   4.531  0.9416  0.3404  0.0585
   23CHL1  H23A 1688   2.823   0.624   4.581  1.5964 -0.6573 -0.7689
   23CHL1  H23B 1689   2.694   0.500   4.553 -0.9866  1.2563  2.0292
   23CHL1   C24 1690   2.756   0.622   4.380 -0.2458 -0.1759 -0.1451
   23CHL1  H24A 1691   2.664   0.579   4.337 -1.3426  2.3327 -0.4999
   23CHL1  H24B 1692   2.763   0.728   4.345  0.2207  0.1207  0.7976
   23CHL1   C25 1693   2.878   0.544   4.326 -0.1124  0.6491  0.9081
   23CHL1   H25 1694   2.862   0.435   4.336 -0.0662  0.5324 -0.1355
   23CHL1   C26 1695   2.892   0.568   4.181 -0.2872  0.1256 -0.0476
   23CHL1  H26A 1696   2.795   0.556   4.130  1.1067 -1.2738 -2.5640
   23CHL1  H26B 1697   2.923   0.674   4.177 -0.0807  0.2186  2.3955
   23CHL1  H26C 1698   2.970   0.506   4.130 -0.7938 -0.0464 -0.6179
   23CHL1   C27 1699   3.009   0.582   4.390  0.4303  0.1684 -0.8961
   23CHL1  H27A 1700   3.037   0.690   4.387  1.3894 -0.0707 -0.7300
   23CHL1  H27B 1701   2.995   0.563   4.498 -1.5912  0.8900 -0.9876
   23CHL1  H27C 1702   3.098   0.525   4.357  0.9627 -0.6571  1.7437
   24CHL1    C3 1703   5.481   0.658   5.664  0.1667  0.0214 -0.5502
   24CHL1    H3 1704   5.479   0.562   5.607 -0.0093  1.1900 -2.5889
   24CHL1    O3 1705   5.504   0.632   5.805 -0.7806  0.1305  0.4191
   24CHL1   H3' 1706   5.425   0.646   5.858 -1.0821 -0.8986  0.2536
   24CHL1    C4 1707   5.596   0.740   5.609  0.7949 -0.0848  0.3443
   24CHL1   H4A 1708   5.592   0.828   5.677 -2.6133 -0.2149  0.4869
   24CHL1   H4B 1709   5.696   0.696   5.626 -0.5127 -2.5679  2.4199
   24CHL1    C5 1710   5.572   0.785   5.468  1.2381 -0.3471 -0.3813
   24CHL1    C6 1711   5.671   0.777   5.379 -0.4187 -0.8643 -0.5040
   24CHL1    H6 1712   5.771   0.738   5.406  0.0741 -1.5202 -3.0475
   24CHL1    C7 1713   5.656   0.807   5.238  0.5027 -0.1111 -0.3552
   24CHL1   H7A 1714   5.748   0.853   5.197  1.0585 -0.2594  0.6775
   24CHL1   H7B 1715   5.648   0.703   5.201 -1.4622 -0.6001  1.2292
   24CHL1    C8 1716   5.530   0.873   5.190  0.5233  0.5044  0.0039
   24CHL1    H8 1717   5.528   0.983   5.199 -2.1940  0.4368  1.4153
   24CHL1   C14 1718   5.503   0.844   5.039  0.1478  0.2057 -0.1135
   24CHL1   H14 1719   5.489   0.735   5.023 -1.4986 -0.0282  2.3872
   24CHL1   C15 1720   5.617   0.872   4.949 -0.5250 -0.1998  0.3937
   24CHL1  H15A 1721   5.654   0.974   4.974 -0.2752  0.4406 -2.2481
   24CHL1  H15B 1722   5.699   0.798   4.958  0.1481  0.4072 -0.5182
   24CHL1   C16 1723   5.558   0.884   4.804  0.4993 -0.3016 -0.5786
   24CHL1  H16A 1724   5.582   0.988   4.772  0.6548 -0.2458 -0.2849
   24CHL1  H16B 1725   5.600   0.808   4.735 -1.1038 -2.0503  0.2586
   24CHL1   C17 1726   5.407   0.871   4.837  0.0463  0.8402  0.2667
   24CHL1   H17 1727   5.381   0.762   4.840 -1.0583  1.1115  2.4233
   24CHL1   C13 1728   5.379   0.908   4.981  0.1060 -0.0036 -0.3010
   24CHL1   C18 1729   5.386   1.061   4.999  0.8420 -0.3748  0.7815
   24CHL1  H18A 1730   5.364   1.085   5.105 -0.8425  1.3051  0.1027
   24CHL1  H18B 1731   5.490   1.098   4.984 -0.1657  2.4496  0.0128
   24CHL1  H18C 1732   5.310   1.109   4.933  0.9488  0.7973  1.4789
   24CHL1   C12 1733   5.258   0.851   5.064 -0.1806 -0.2538 -0.3931
   24CHL1  H12A 1734   5.156   0.889   5.041 -0.1103  1.4447  1.6963
   24CHL1  H12B 1735   5.256   0.741   5.048 -0.5724 -0.0610 -1.7698
   24CHL1   C11 1736   5.272   0.874   5.221  0.6033 -0.0935 -0.1621
   24CHL1  H11A 1737   5.257   0.982   5.243 -0.7981  0.0019 -1.3961
   24CHL1  H11B 1738   5.183   0.819   5.259 -0.6901  2.8474  1.3681
   24CHL1    C9 1739   5.410   0.816   5.273 -0.6624  0.5666 -0.1214
   24CHL1    H9 1740   5.403   0.706   5.259 -1.1966  0.7467 -1.3499
   24CHL1   C10 1741   5.427   0.833   5.425  0.0301 -0.2349  0.1834
   24CHL1   C19 1742   5.399   0.986   5.460 -0.0305 -0.1947 -0.3116
   24CHL1  H19A 1743   5.452   1.053   5.390 -0.6008  1.2430  0.5835
   24CHL1  H19B 1744   5.288   1.000   5.462 -0.0765 -0.4283  2.2107
   24CHL1  H19C 1745   5.431   0.998   5.566 -0.6330 -1.9177  0.1167
   24CHL1    C1 1746   5.320   0.736   5.501 -0.2153  0.5438  0.2217
   24CHL1   H1A 1747   5.221   0.784   5.485  0.0847  0.2943 -3.1737
   24CHL1   H1B 1748   5.324   0.636   5.454 -1.4228  0.6696 -0.1810
   24CHL1    C2 1749   5.348   0.721   5.650  0.9906  0.3397 -0.1871
   24CHL1   H2A 1750   5.270   0.658   5.698  1.1902 -0.0192 -0.3313
   24CHL1   H2B 1751   5.354   0.814   5.711 -0.1750 -1.2719  2.5849
   24CHL1   C20 1752   5.295   0.931   4.741 -0.6028 -0.4243  0.0964
   24CHL1   H20 1753   5.206   0.939   4.806 -0.3281 -0.7839  0.5210
   24CHL1   C21 1754   5.241   0.824   4.641 -0.5007  0.3513 -0.7523
   24CHL1  H21A 1755   5.213   0.727   4.689 -0.1644 -1.3625 -3.7718
   24CHL1  H21B 1756   5.317   0.794   4.566  0.3662  0.7984 -0.0827
   24CHL1  H21C 1757   5.148   0.852   4.587  0.6709  0.0478 -3.0576
   24CHL1   C22 1758   5.335   1.055   4.670  0.2972 -0.8058  0.3417
   24CHL1  H22A 1759   5.405   1.122   4.724  0.0301  1.4619 -1.9103
   24CHL1  H22B 1760   5.376   1.038   4.568  0.3120  1.3201 -0.0476
   24CHL1   C23 1761   5.205   1.139   4.642  0.4080 -0.1594  0.2186
   24CHL1  H23A 1762   5.128   1.070   4.601  0.7734  0.1354 -0.9867
   24CHL1  H23B 1763   5.163   1.168   4.741 -0.7092 -0.9000 -0.0141
   24CHL1   C24 1764   5.235   1.254   4.544 -0.0281  0.3998  0.2489
   24CHL1  H24A 1765   5.318   1.317   4.585  1.6093 -1.5629  0.1268
   24CHL1  H24B 1766   5.271   1.209   4.449  0.0425 -1.1174  0.9639
   24CHL1   C25 1767   5.114   1.337   4.504 -0.1042 -0.6943 -0.1010
   24CHL1   H25 1768   5.037   1.277   4.451 -0.4062  0.1650 -0.6531
   24CHL1   C26 1769   5.062   1.412   4.630 -0.0664 -0.3472  0.4960
   24CHL1  H26A 1770   5.129   1.493   4.665  1.2169 -0.2247 -2.0567
   24CHL1  H26B 1771   4.973   1.473   4.601  0.0008 -0.3891  0.1972
   24CHL1  H26C 1772   5.034   1.347   4.715  1.7543 -1.2235  0.4683
   24CHL1   C27 1773   5.147   1.438   4.395  0.7071  0.2963 -0.2612
   24CHL1  H27A 1774   5.253   1.470   4.409  0.2827  0.8907  1.9413
   24CHL1  H27B 1775   5.125   1.400   4.293  0.4583  0.6630 -0.3456
   24CHL1  H27C 1776   5.078   1.523   4.414  2.7074  1.4987  2.2992
   25CHL1    C3 1777   1.368   4.833   6.221  0.0641 -0.2792  0.5385
   25CHL1    H3 1778   1.475   4.842   6.192 -0.0268 -2.8259 -0.7688
   25CHL1    O3 1779   1.358   4.804   6.361  0.5654 -0.3176 -0.1144
   25CHL1   H3' 1780   1.345   4.895   6.390 -3.6755 -1.5017  2.5960
   25CHL1    C4 1781   1.314   4.976   6.203  0.0740  0.0684 -0.0957
   25CHL1   H4A 1782   1.210   4.969   6.242  0.2326 -1.4034  0.1294
   25CHL1   H4B 1783   1.379   5.043   6.264 -0.5891  0.8555 -0.2383
   25CHL1    C5 1784   1.311   5.011   6.051  0.1607 -0.8068  0.5687
   25CHL1    C6 1785   1.380   5.117   6.000  0.2019  0.2512 -0.1962
   25CHL1    H6 1786   1.416   5.193   6.072  0.6360 -1.3119  1.3089
   25CHL1    C7 1787   1.376   5.151   5.854  0.2215  0.3472  0.5352
   25CHL1   H7A 1788   1.364   5.261   5.838 -1.8598  0.2102  0.9245
   25CHL1   H7B 1789   1.478   5.127   5.818  0.2797  2.2533 -0.7490
   25CHL1    C8 1790   1.276   5.078   5.762 -0.2849  0.7865 -0.0286
   25CHL1    H8 1791   1.174   5.121   5.772 -0.4554  0.4625 -0.3703
   25CHL1   C14 1792   1.317   5.086   5.617 -0.1971 -0.0041 -0.0110
   25CHL1   H14 1793   1.416   5.036   5.613  0.5249  1.4823 -1.2290
   25CHL1   C15 1794   1.324   5.224   5.547  0.2236  0.3564 -0.8678
   25CHL1  H15A 1795   1.240   5.292   5.571  1.3768  1.0630  1.4135
   25CHL1  H15B 1796   1.423   5.259   5.583 -0.0497  0.4188 -0.1615
   25CHL1   C16 1797   1.331   5.191   5.396  1.1083 -0.8412  0.1910
   25CHL1  H16A 1798   1.268   5.262   5.338 -0.7444 -1.2024  1.6676
   25CHL1  H16B 1799   1.437   5.217   5.375  0.8138  1.8600  1.6541
   25CHL1   C17 1800   1.294   5.040   5.382  0.0075 -0.4811 -0.4527
   25CHL1   H17 1801   1.390   4.984   5.378 -0.5902 -1.5334 -0.3027
   25CHL1   C13 1802   1.229   4.995   5.516  0.0144  0.0804 -0.2539
   25CHL1   C18 1803   1.091   5.053   5.530 -0.2461  0.2811 -0.0668
   25CHL1  H18A 1804   1.047   5.046   5.632 -0.0063  3.8191  0.4133
   25CHL1  H18B 1805   1.065   5.153   5.489 -3.6000  0.2801  1.7543
   25CHL1  H18C 1806   1.019   4.989   5.475  1.0492  0.7304 -2.4447
   25CHL1   C12 1807   1.243   4.842   5.564 -0.0402  0.0882  0.0260
   25CHL1  H12A 1808   1.176   4.773   5.508 -0.6042  0.4215  0.2689
   25CHL1  H12B 1809   1.343   4.796   5.551 -0.4788 -0.5049 -1.4762
   25CHL1   C11 1810   1.198   4.843   5.708  0.4567 -0.4730  0.5788
   25CHL1  H11A 1811   1.091   4.870   5.720  0.5263  0.1835 -0.1877
   25CHL1  H11B 1812   1.214   4.736   5.734  3.1271  0.2469  2.3435
   25CHL1    C9 1813   1.278   4.931   5.807  0.3348 -0.7369  1.5063
   25CHL1    H9 1814   1.382   4.899   5.787  1.1538  3.2292 -2.0045
   25CHL1   C10 1815   1.242   4.912   5.958  0.1613  0.0973 -0.2410
   25CHL1   C19 1816   1.095   4.934   5.976  0.4968 -0.5899 -0.5108
   25CHL1  H19A 1817   1.027   4.877   5.910  1.4187  1.0599 -3.0358
   25CHL1  H19B 1818   1.058   4.944   6.081  0.5254  2.2146 -0.6818
   25CHL1  H19C 1819   1.064   5.037   5.949 -1.1354 -1.1495 -0.8707
   25CHL1    C1 1820   1.296   4.773   5.999  0.1224  0.9059  0.0765
   25CHL1   H1A 1821   1.246   4.683   5.957 -1.3932 -0.1264  3.6845
   25CHL1   H1B 1822   1.404   4.766   5.974  0.5247  0.7974  1.7310
   25CHL1    C2 1823   1.291   4.728   6.146  0.7467 -0.6173  0.0483
   25CHL1   H2A 1824   1.335   4.627   6.153 -2.0011 -1.8738  0.6415
   25CHL1   H2B 1825   1.186   4.712   6.179  0.7986 -0.3623  0.3416
   25CHL1   C20 1826   1.232   5.003   5.243  0.5535  0.7586 -0.8081
   25CHL1   H20 1827   1.123   5.025   5.242  0.8924  2.7355  0.1625
   25CHL1   C21 1828   1.245   4.847   5.226  0.0487  0.0853  0.6584
   25CHL1  H21A 1829   1.193   4.816   5.133 -0.7874 -0.8074  1.4043
   25CHL1  H21B 1830   1.191   4.783   5.299 -2.0494  0.9598 -0.0219
   25CHL1  H21C 1831   1.350   4.817   5.209 -0.1179  0.4102 -1.2632
   25CHL1   C22 1832   1.305   5.075   5.130  0.0465 -0.1114  0.7391
   25CHL1  H22A 1833   1.310   5.185   5.146 -0.2258  0.1047 -0.5499
   25CHL1  H22B 1834   1.407   5.034   5.112 -0.3267 -0.2061 -1.5564
   25CHL1   C23 1835   1.230   5.060   4.991 -0.5788  0.0281  0.3856
   25CHL1  H23A 1836   1.190   4.957   4.992 -1.5022  0.3676  2.1717
   25CHL1  H23B 1837   1.145   5.132   4.985 -0.4279  0.2471  0.8349
   25CHL1   C24 1838   1.314   5.089   4.859  0.4432 -0.2920  0.0153
   25CHL1  H24A 1839   1.373   5.182   4.873  1.1001 -0.7177  0.1447
   25CHL1  H24B 1840   1.382   5.002   4.846  0.1285 -0.5071 -0.2075
   25CHL1   C25 1841   1.234   5.090   4.723 -0.0681 -0.1419 -0.5614
   25CHL1   H25 1842   1.154   5.167   4.731 -0.7531 -0.9625  1.0390
   25CHL1   C26 1843   1.330   5.132   4.609  1.0024  0.0229  0.2409
   25CHL1  H26A 1844   1.265   5.153   4.521  1.8041  2.7825  0.1908
   25CHL1  H26B 1845   1.379   5.231   4.622  0.2941  0.3210  0.6682
   25CHL1  H26C 1846   1.404   5.054   4.581 -0.0227 -1.0016  0.3419
   25CHL1   C27 1847   1.174   4.952   4.692  0.0351  0.3717  0.6554
   25CHL1  H27A 1848   1.098   4.918   4.766 -0.1340  1.6847  1.1124
   25CHL1  H27B 1849   1.130   4.948   4.590 -0.9336  0.4416  1.0555
   25CHL1  H27C 1850   1.257   4.880   4.709 -0.8828 -0.7812  0.3819
   26CHL1    C3 1851   3.225   3.789   6.584  0.1421 -0.1054 -0.7012
   26CHL1    H3 1852   3.123   3.823   6.558 -0.2453 -0.6667  0.0560
   26CHL1    O3 1853   3.237   3.803   6.723 -0.3993  0.8604  0.3766
   26CHL1   H3' 1854   3.181   3.878   6.744 -1.8619 -0.6700  2.2156
   26CHL1    C4 1855   3.262   3.650   6.537  0.4247  0.3780 -1.0632
   26CHL1   H4A 1856   3.363   3.620   6.571 -0.3986 -0.9070  0.3222
   26CHL1   H4B 1857   3.190   3.580   6.583 -1.4960  2.1485 -1.1810
   26CHL1    C5 1858   3.265   3.643   6.387 -0.5955 -0.2623 -0.4354
   26CHL1    C6 1859   3.193   3.559   6.323  0.2012  0.4819 -0.5347
   26CHL1    H6 1860   3.136   3.490   6.386 -0.3391  0.7630 -0.7153
   26CHL1    C7 1861   3.201   3.539   6.174  0.1274 -0.0697 -0.1223
   26CHL1   H7A 1862   3.197   3.433   6.141  2.0923 -0.2451  0.1375
   26CHL1   H7B 1863   3.112   3.590   6.130  0.1716 -0.7284 -1.0188
   26CHL1    C8 1864   3.314   3.609   6.100  0.0738 -1.4688 -0.0484
   26CHL1    H8 1865   3.406   3.547   6.111  1.4233  0.3066 -0.9390
   26CHL1   C14 1866   3.287   3.622   5.950  0.2295 -1.0365 -0.6421
   26CHL1   H14 1867   3.202   3.692   5.935  0.7663 -0.7151 -2.4939
   26CHL1   C15 1868   3.250   3.499   5.871 -0.3034  0.3248 -0.2820
   26CHL1  H15A 1869   3.319   3.413   5.887 -0.8733  0.1400  1.3284
   26CHL1  H15B 1870   3.144   3.467   5.880  0.4301 -1.9137  1.3180
   26CHL1   C16 1871   3.265   3.541   5.725  0.2352  0.0761 -0.1344
   26CHL1  H16A 1872   3.341   3.481   5.671  2.5141  3.2714 -0.7228
   26CHL1  H16B 1873   3.171   3.523   5.668  1.2251 -2.3093 -1.1448
   26CHL1   C17 1874   3.325   3.685   5.730  0.3104 -0.2690 -0.4290
   26CHL1   H17 1875   3.236   3.750   5.742  0.9418  0.2477  1.9639
   26CHL1   C13 1876   3.392   3.701   5.873 -0.6781  0.2415  0.7317
   26CHL1   C18 1877   3.527   3.634   5.879 -0.4935  0.3694  0.5258
   26CHL1  H18A 1878   3.608   3.696   5.836  0.1318 -0.1640  0.9140
   26CHL1  H18B 1879   3.568   3.621   5.982  2.1237  0.2668 -0.4578
   26CHL1  H18C 1880   3.538   3.535   5.830 -0.2149  1.0459 -0.8053
   26CHL1   C12 1881   3.405   3.844   5.935 -0.0885 -0.1188  0.2427
   26CHL1  H12A 1882   3.485   3.900   5.882  0.2362 -0.4481  0.3848
   26CHL1  H12B 1883   3.310   3.903   5.930 -0.0449 -0.0341  0.4028
   26CHL1   C11 1884   3.432   3.833   6.087 -0.6609  0.1482 -0.1533
   26CHL1  H11A 1885   3.536   3.795   6.097 -0.5352  0.8336  1.5745
   26CHL1  H11B 1886   3.426   3.938   6.125 -0.2018 -0.1620  0.8032
   26CHL1    C9 1887   3.331   3.746   6.160 -0.0798 -0.9143  0.0969
   26CHL1    H9 1888   3.234   3.798   6.147 -0.6272 -1.7407  0.7599
   26CHL1   C10 1889   3.357   3.744   6.316  1.0513  0.0211 -0.2063
   26CHL1   C19 1890   3.502   3.712   6.338  0.2450  0.5805 -0.7464
   26CHL1  H19A 1891   3.552   3.621   6.300 -0.2049 -0.8430  1.8189
   26CHL1  H19B 1892   3.566   3.799   6.313 -1.1575  1.4435 -1.4524
   26CHL1  H19C 1893   3.532   3.709   6.445  0.9768  3.2552 -0.8208
   26CHL1    C1 1894   3.319   3.889   6.370  0.0465 -0.5667 -0.1406
   26CHL1   H1A 1895   3.394   3.958   6.327 -0.1348 -1.9187 -2.8342
   26CHL1   H1B 1896   3.217   3.913   6.333  0.5395  1.0487 -0.5244
   26CHL1    C2 1897   3.316   3.898   6.523 -0.3684  0.2544 -0.1019
   26CHL1   H2A 1898   3.289   4.000   6.558  0.2926  0.7334 -0.9452
   26CHL1   H2B 1899   3.419   3.886   6.565 -0.9081 -1.0903  0.9326
   26CHL1   C20 1900   3.399   3.743   5.610 -0.4660  0.2094  0.6840
   26CHL1   H20 1901   3.449   3.837   5.639  2.2095 -0.6984 -0.6873
   26CHL1   C21 1902   3.296   3.802   5.496 -0.4130  0.3869  0.0530
   26CHL1  H21A 1903   3.223   3.855   5.562 -2.4504 -0.8477 -1.1093
   26CHL1  H21B 1904   3.261   3.719   5.431 -0.5974 -0.7953  1.5991
   26CHL1  H21C 1905   3.345   3.877   5.430 -0.1710  0.1015 -0.0915
   26CHL1   C22 1906   3.512   3.662   5.546 -0.5101 -0.0748 -0.0481
   26CHL1  H22A 1907   3.577   3.640   5.634 -0.4466 -2.5562 -0.6271
   26CHL1  H22B 1908   3.471   3.571   5.498 -1.1431  0.2559 -0.1463
   26CHL1   C23 1909   3.597   3.745   5.449  0.0930  0.5815  0.0368
   26CHL1  H23A 1910   3.549   3.763   5.350  1.0891 -0.0802 -0.5805
   26CHL1  H23B 1911   3.622   3.844   5.492  0.9421  0.9713 -1.2948
   26CHL1   C24 1912   3.733   3.681   5.419  0.0049  0.0319  0.1823
   26CHL1  H24A 1913   3.798   3.699   5.508 -1.9934  1.5174  1.4246
   26CHL1  H24B 1914   3.711   3.573   5.406 -1.5779  0.1203  1.7157
   26CHL1   C25 1915   3.813   3.747   5.300  0.2253 -0.2113 -0.2384
   26CHL1   H25 1916   3.808   3.855   5.327 -0.5084 -0.1921 -0.4319
   26CHL1   C26 1917   3.965   3.711   5.316 -0.3559 -0.7375  0.5531
   26CHL1  H26A 1918   4.029   3.771   5.247 -0.3563 -2.4655 -1.0440
   26CHL1  H26B 1919   4.006   3.733   5.417 -0.0775 -0.5483  0.4017
   26CHL1  H26C 1920   3.970   3.603   5.291  0.5448 -0.5258 -0.2327
   26CHL1   C27 1921   3.749   3.731   5.163 -0.4772  0.7180  0.0730
   26CHL1  H27A 1922   3.822   3.770   5.089 -0.0491 -1.3203 -0.6546
   26CHL1  H27B 1923   3.745   3.624   5.135  1.0723  0.3302  1.2284
   26CHL1  H27C 1924   3.643   3.766   5.163 -0.7076  0.0423 -0.8379
   27CHL1    C3 1925   3.172   2.032   5.860  0.3912 -0.0620 -0.5414
   27CHL1    H3 1926   3.232   1.940   5.842  1.5118  0.2148  1.4890
   27CHL1    O3 1927   3.147   2.029   6.001 -0.2083  0.1878  0.2682
   27CHL1   H3' 1928   3.068   1.974   6.006  0.3289 -0.4916  2.5358
   27CHL1    C4 1929   3.264   2.148   5.832  0.2407  0.2939  0.1717
   27CHL1   H4A 1930   3.223   2.240   5.879  0.6846  0.2083  0.7309
   27CHL1   H4B 1931   3.363   2.147   5.883 -0.3156  0.0146  1.2683
   27CHL1    C5 1932   3.293   2.181   5.685 -0.2816 -0.1032  0.8651
   27CHL1    C6 1933   3.420   2.181   5.630 -0.2323  0.4503 -1.5778
   27CHL1    H6 1934   3.506   2.183   5.698 -1.3605 -1.7749  0.0326
   27CHL1    C7 1935   3.444   2.207   5.484 -0.2611 -0.8163  0.4607
   27CHL1   H7A 1936   3.507   2.298   5.477 -1.8126  0.2315 -0.6808
   27CHL1   H7B 1937   3.490   2.121   5.431 -0.9250 -0.7803 -0.1900
   27CHL1    C8 1938   3.317   2.250   5.399 -0.0964 -0.1003  0.4536
   27CHL1    H8 1939   3.307   2.359   5.417  0.4051 -0.1224  0.8699
   27CHL1   C14 1940   3.344   2.242   5.250 -0.3082  0.0267  0.4795
   27CHL1   H14 1941   3.361   2.135   5.228 -1.7328 -0.6416  2.2903
   27CHL1   C15 1942   3.459   2.325   5.198 -0.1650  0.0805 -0.4867
   27CHL1  H15A 1943   3.454   2.428   5.239  1.5439 -0.4392  1.1720
   27CHL1  H15B 1944   3.552   2.270   5.222 -0.2219  0.1628 -0.0797
   27CHL1   C16 1945   3.437   2.321   5.044 -0.6298 -0.1666  0.2600
   27CHL1  H16A 1946   3.435   2.428   5.013 -2.2005  0.3328  1.8864
   27CHL1  H16B 1947   3.512   2.263   4.986  0.5161 -1.1993  2.6102
   27CHL1   C17 1948   3.290   2.268   5.017  0.2032  0.7297 -0.0815
   27CHL1   H17 1949   3.311   2.159   5.006 -0.7389  0.3978  1.1776
   27CHL1   C13 1950   3.225   2.280   5.156  0.6960 -1.0902  0.0823
   27CHL1   C18 1951   3.188   2.428   5.169  0.3010 -0.2003  0.0973
   27CHL1  H18A 1952   3.098   2.453   5.110  0.1817  0.6493  0.6126
   27CHL1  H18B 1953   3.169   2.452   5.276  3.1848  1.2842  0.3974
   27CHL1  H18C 1954   3.268   2.499   5.136  0.0839  0.0870  0.1834
   27CHL1   C12 1955   3.113   2.191   5.193  0.1444  0.4660  0.0433
   27CHL1  H12A 1956   3.021   2.225   5.141  0.7926  0.7099 -0.9745
   27CHL1  H12B 1957   3.144   2.088   5.164 -1.6464 -0.1915  0.3220
   27CHL1   C11 1958   3.079   2.197   5.345 -0.3164 -0.3445  0.8058
   27CHL1  H11A 1959   3.043   2.299   5.373  1.0895  1.1704 -2.3914
   27CHL1  H11B 1960   2.993   2.132   5.372 -1.2717 -0.4992 -2.2215
   27CHL1    C9 1961   3.196   2.167   5.439  0.0588 -0.0666  0.1406
   27CHL1    H9 1962   3.224   2.062   5.417 -0.4475 -0.3914  0.9884
   27CHL1   C10 1963   3.165   2.181   5.598  0.3476  0.0673  0.7769
   27CHL1   C19 1964   3.089   2.311   5.627 -0.0764 -0.4997  0.0587
   27CHL1  H19A 1965   3.071   2.326   5.735 -1.1749 -1.8524  0.0889
   27CHL1  H19B 1966   3.146   2.396   5.583 -0.9633 -0.2658 -0.6522
   27CHL1  H19C 1967   2.993   2.311   5.572 -0.0532 -4.6920 -0.3059
   27CHL1    C1 1968   3.075   2.063   5.631 -0.2621  0.0515  0.1252
   27CHL1   H1A 1969   2.976   2.078   5.583  0.1542  1.1258 -0.4272
   27CHL1   H1B 1970   3.116   1.963   5.606  1.7929  0.6701  0.7661
   27CHL1    C2 1971   3.044   2.038   5.779 -0.5753  0.7764 -0.7067
   27CHL1   H2A 1972   2.976   1.951   5.791  0.9334 -0.1342  2.1669
   27CHL1   H2B 1973   2.972   2.118   5.805 -1.8850 -0.7110  0.4003
   27CHL1   C20 1974   3.219   2.326   4.898 -0.3190  0.1196  1.0757
   27CHL1   H20 1975   3.187   2.431   4.914  2.0555  0.7697  2.0969
   27CHL1   C21 1976   3.090   2.243   4.869  0.0288 -0.8148 -0.2574
   27CHL1  H21A 1977   3.013   2.285   4.936 -0.5434 -0.9227 -0.8371
   27CHL1  H21B 1978   3.105   2.137   4.897 -2.0185 -1.3905 -1.1411
   27CHL1  H21C 1979   3.071   2.242   4.759  1.4381 -2.6425 -0.5378
   27CHL1   C22 1980   3.300   2.331   4.768 -0.4418 -0.2290  0.0631
   27CHL1  H22A 1981   3.239   2.369   4.684  0.6160 -0.8107 -1.0025
   27CHL1  H22B 1982   3.391   2.396   4.772 -1.1975  1.0492 -2.0315
   27CHL1   C23 1983   3.358   2.196   4.725  0.2472  0.3051 -0.3241
   27CHL1  H23A 1984   3.429   2.161   4.802 -0.7717 -0.0808  0.4644
   27CHL1  H23B 1985   3.286   2.113   4.705  1.2371 -0.9448  1.0353
   27CHL1   C24 1986   3.438   2.207   4.592  0.1291  0.1348 -0.0011
   27CHL1  H24A 1987   3.385   2.269   4.516  2.3670 -0.7101 -2.4031
   27CHL1  H24B 1988   3.534   2.263   4.599  1.0216 -1.2307 -0.9780
   27CHL1   C25 1989   3.464   2.069   4.531 -0.4572  0.4826  0.5885
   27CHL1   H25 1990   3.369   2.014   4.514  1.4951 -2.9820 -0.1452
   27CHL1   C26 1991   3.538   2.092   4.399  0.1957  0.3890  0.2908
   27CHL1  H26A 1992   3.557   2.004   4.333  2.0543  1.3100 -0.4784
   27CHL1  H26B 1993   3.477   2.164   4.340  2.6036  1.4469 -1.0747
   27CHL1  H26C 1994   3.639   2.136   4.414  1.0707 -1.8149  1.2418
   27CHL1   C27 1995   3.546   1.978   4.620 -0.7074 -0.6224 -0.2540
   27CHL1  H27A 1996   3.488   1.956   4.712 -2.3833 -0.8045 -1.2875
   27CHL1  H27B 1997   3.578   1.889   4.561  1.4186  0.5133 -0.9218
   27CHL1  H27C 1998   3.636   2.032   4.654 -0.7237 -1.4193  1.1477
   28CHL1    C3 1999   1.488   3.412   6.133 -0.1150 -0.7403 -0.1169
   28CHL1    H3 2000   1.491   3.301   6.142  1.2103 -0.5541  2.9628
   28CHL1    O3 2001   1.483   3.452   6.267 -0.0213 -0.0151 -0.8575
   28CHL1   H3' 2002   1.494   3.547   6.267  1.0522 -0.1039  0.3079
   28CHL1    C4 2003   1.613   3.459   6.058  0.1295  0.2711  0.1708
   28CHL1   H4A 2004   1.625   3.569   6.069  0.1295  0.1974  1.0180
   28CHL1   H4B 2005   1.695   3.418   6.121  0.0660  1.0161  0.7525
   28CHL1    C5 2006   1.607   3.418   5.912 -0.3925 -0.1938 -0.2376
   28CHL1    C6 2007   1.712   3.341   5.865  0.0877 -0.3250 -0.2897
   28CHL1    H6 2008   1.794   3.313   5.933 -1.8034 -0.4131  2.0532
   28CHL1    C7 2009   1.731   3.301   5.722  0.1870 -0.5919  0.4744
   28CHL1   H7A 2010   1.831   3.314   5.676 -0.7179  1.3616 -1.1122
   28CHL1   H7B 2011   1.697   3.196   5.713  1.3960 -1.6083  5.0370
   28CHL1    C8 2012   1.634   3.384   5.631 -0.1588 -0.1068  0.2734
   28CHL1    H8 2013   1.673   3.488   5.621 -1.3499  0.4728  1.3380
   28CHL1   C14 2014   1.617   3.307   5.497  0.1599  0.7764 -0.1164
   28CHL1   H14 2015   1.566   3.212   5.521 -0.7544  1.4549  0.7075
   28CHL1   C15 2016   1.740   3.249   5.427  0.8493 -0.2315  0.4952
   28CHL1  H15A 2017   1.810   3.335   5.425  2.1897 -1.2964 -0.4286
   28CHL1  H15B 2018   1.783   3.163   5.483 -0.5154 -2.8969 -2.2570
   28CHL1   C16 2019   1.695   3.232   5.280  0.3175  1.1226 -0.4974
   28CHL1  H16A 2020   1.755   3.299   5.215  2.3224 -0.7745 -0.7277
   28CHL1  H16B 2021   1.700   3.123   5.257 -0.1283  0.2627  2.9228
   28CHL1   C17 2022   1.553   3.283   5.265  0.1730 -0.3598 -0.7865
   28CHL1   H17 2023   1.485   3.196   5.276  0.9767 -0.8699  0.3742
   28CHL1   C13 2024   1.536   3.379   5.388  0.1143 -0.3078  0.1903
   28CHL1   C18 2025   1.593   3.518   5.344 -0.4666 -0.1861 -0.6545
   28CHL1  H18A 2026   1.589   3.597   5.423 -0.9581 -2.1260  1.3649
   28CHL1  H18B 2027   1.695   3.509   5.303 -0.4560  0.7230 -0.8562
   28CHL1  H18C 2028   1.531   3.562   5.262 -1.9897 -1.0662 -0.0148
   28CHL1   C12 2029   1.392   3.402   5.445 -0.2061 -0.6186  0.0885
   28CHL1  H12A 2030   1.334   3.470   5.380  2.1198 -0.7065 -2.2411
   28CHL1  H12B 2031   1.346   3.300   5.441  1.2636 -1.2787 -1.8898
   28CHL1   C11 2032   1.390   3.457   5.591 -0.5051  0.5345 -0.0710
   28CHL1  H11A 2033   1.402   3.566   5.573 -1.9299  0.7340  0.0871
   28CHL1  H11B 2034   1.284   3.449   5.623 -0.3259  0.1239  0.4294
   28CHL1    C9 2035   1.491   3.396   5.692  0.4396  0.1300 -0.5254
   28CHL1    H9 2036   1.451   3.293   5.706 -1.4024  0.7443 -0.8950
   28CHL1   C10 2037   1.492   3.457   5.835 -0.4472 -0.2326 -0.2302
   28CHL1   C19 2038   1.492   3.613   5.820  0.2734  0.2029 -0.1134
   28CHL1  H19A 2039   1.481   3.668   5.916  0.1614  2.9513 -1.5956
   28CHL1  H19B 2040   1.585   3.649   5.769  1.4471 -0.2031  1.6631
   28CHL1  H19C 2041   1.399   3.646   5.770  0.5414  1.3925  0.1523
   28CHL1    C1 2042   1.366   3.418   5.921  0.4098 -0.1588 -0.3412
   28CHL1   H1A 2043   1.287   3.454   5.852 -0.1175 -3.1794 -1.5035
   28CHL1   H1B 2044   1.362   3.307   5.914 -1.6120 -0.2148  1.1588
   28CHL1    C2 2045   1.357   3.464   6.060 -0.2181 -0.4354 -0.0571
   28CHL1   H2A 2046   1.268   3.430   6.117 -0.5815  1.8449  0.8559
   28CHL1   H2B 2047   1.352   3.575   6.068  1.2458 -0.3767  0.4507
   28CHL1   C20 2048   1.528   3.331   5.115  0.1013  0.0647 -0.6591
   28CHL1   H20 2049   1.598   3.416   5.097 -0.5373  1.1374  1.5720
   28CHL1   C21 2050   1.375   3.370   5.099 -0.3073  0.3812 -0.6102
   28CHL1  H21A 2051   1.347   3.443   5.177 -1.0689 -3.9745  3.7158
   28CHL1  H21B 2052   1.328   3.270   5.109  0.3111  0.1381 -0.0066
   28CHL1  H21C 2053   1.354   3.404   4.996 -0.6783  0.0044 -0.6592
   28CHL1   C22 2054   1.563   3.225   5.011 -0.1869  0.7001 -0.4438
   28CHL1  H22A 2055   1.669   3.192   5.015 -0.5625 -0.4718  0.4894
   28CHL1  H22B 2056   1.503   3.131   5.013  1.1330 -0.1586  1.6226
   28CHL1   C23 2057   1.551   3.265   4.864  0.0663 -0.8951  0.1097
   28CHL1  H23A 2058   1.444   3.282   4.839 -0.4490  0.0242  2.6566
   28CHL1  H23B 2059   1.596   3.366   4.864  0.6983 -1.1589  1.5392
   28CHL1   C24 2060   1.619   3.176   4.761  0.0114 -0.1884  0.4994
   28CHL1  H24A 2061   1.712   3.125   4.796 -2.0250 -3.4316  1.6628
   28CHL1  H24B 2062   1.554   3.086   4.751 -0.3876  0.3074 -1.8999
   28CHL1   C25 2063   1.622   3.237   4.616  0.3127  1.0782  0.1003
   28CHL1   H25 2064   1.518   3.269   4.596  1.7284  3.7966 -4.4803
   28CHL1   C26 2065   1.726   3.348   4.601 -0.2699 -0.0745 -0.4708
   28CHL1  H26A 2066   1.819   3.292   4.620 -1.4614 -2.1377 -0.4359
   28CHL1  H26B 2067   1.721   3.400   4.503 -0.2882  0.1789 -0.3359
   28CHL1  H26C 2068   1.718   3.430   4.675  0.9095  0.1449 -0.5720
   28CHL1   C27 2069   1.658   3.131   4.507 -0.0211  0.8559 -0.2696
   28CHL1  H27A 2070   1.587   3.047   4.521  0.2699  0.6381 -0.1029
   28CHL1  H27B 2071   1.636   3.175   4.407 -4.1371  0.9221  0.4635
   28CHL1  H27C 2072   1.765   3.104   4.505 -0.3389 -0.4522 -0.7936
   29CHL1    C3 2073   3.928   1.256   2.759  0.1656  0.2281  0.5599
   29CHL1    H3 2074   4.029   1.233   2.799  0.5919  2.5399  0.9304
   29CHL1    O3 2075   3.904   1.172   2.648  0.2273  0.1399 -0.0928
   29CHL1   H3' 2076   3.813   1.191   2.621 -0.9898 -1.6816  2.3102
   29CHL1    C4 2077   3.826   1.250   2.872  0.6305  0.2106  0.0162
   29CHL1   H4A 2078   3.728   1.275   2.826  0.1021 -1.9532 -0.1061
   29CHL1   H4B 2079   3.815   1.144   2.901 -3.9900  0.3864 -0.3755
   29CHL1    C5 2080   3.858   1.342   2.995 -0.1238  0.2603 -0.0358
   29CHL1    C6 2081   3.858   1.302   3.121  0.5346 -0.0858  0.2158
   29CHL1    H6 2082   3.838   1.195   3.138  1.5846 -0.6214 -1.5450
   29CHL1    C7 2083   3.894   1.383   3.243  0.0920 -0.1280  0.0830
   29CHL1   H7A 2084   3.817   1.375   3.322  1.3126  0.3400  1.3706
   29CHL1   H7B 2085   3.993   1.348   3.281 -0.7074 -3.1979 -0.3637
   29CHL1    C8 2086   3.898   1.538   3.217 -0.5549  0.9923  0.3292
   29CHL1    H8 2087   3.789   1.559   3.208 -0.3495  1.3880 -1.9104
   29CHL1   C14 2088   3.967   1.613   3.336 -0.0546 -0.1006 -0.0565
   29CHL1   H14 2089   4.070   1.571   3.346  0.9502  1.4313 -2.7888
   29CHL1   C15 2090   3.900   1.606   3.477 -0.1031  0.4484  0.1430
   29CHL1  H15A 2091   3.792   1.626   3.460  0.4190  2.2276 -1.4771
   29CHL1  H15B 2092   3.920   1.511   3.530  3.2052  0.9875  0.0739
   29CHL1   C16 2093   3.965   1.721   3.557  0.5348  0.4723  0.4821
   29CHL1  H16A 2094   3.880   1.767   3.612 -0.5867 -1.6842  0.6832
   29CHL1  H16B 2095   4.031   1.677   3.635 -0.9568  0.8337  2.0073
   29CHL1   C17 2096   4.036   1.814   3.448  0.5053  0.7145 -0.5719
   29CHL1   H17 2097   4.139   1.772   3.444 -0.3274 -1.4869 -0.5168
   29CHL1   C13 2098   3.978   1.767   3.310  0.1113 -0.4744  0.2964
   29CHL1   C18 2099   3.838   1.834   3.292 -0.0891  0.0238 -1.0681
   29CHL1  H18A 2100   3.775   1.762   3.236 -1.0030  1.5466 -2.0579
   29CHL1  H18B 2101   3.787   1.830   3.390 -1.1550  0.8381 -1.5638
   29CHL1  H18C 2102   3.838   1.940   3.258  0.1624 -0.0083 -1.1762
   29CHL1   C12 2103   4.059   1.787   3.186 -0.3941  0.3465 -0.0931
   29CHL1  H12A 2104   4.069   1.890   3.145  0.6556  0.1437 -0.3567
   29CHL1  H12B 2105   4.163   1.756   3.208 -0.8928 -1.2267  0.1781
   29CHL1   C11 2106   3.995   1.710   3.064 -0.3293  0.0986 -0.4875
   29CHL1  H11A 2107   3.896   1.759   3.048 -0.2333  0.6937  0.6590
   29CHL1  H11B 2108   4.057   1.730   2.974 -0.3988  0.9893 -0.3536
   29CHL1    C9 2109   3.974   1.558   3.084  0.1785 -0.0011  0.4504
   29CHL1    H9 2110   4.077   1.516   3.081 -0.6331 -2.0317 -0.8498
   29CHL1   C10 2111   3.906   1.479   2.958 -0.5833  0.4481 -0.0962
   29CHL1   C19 2112   3.773   1.556   2.937 -0.2113  0.7381  0.0656
   29CHL1  H19A 2113   3.780   1.666   2.921  2.4232  0.4482 -1.2962
   29CHL1  H19B 2114   3.720   1.518   2.847  0.8362  1.7157 -0.9967
   29CHL1  H19C 2115   3.705   1.550   3.026 -0.5079 -0.9095 -0.2529
   29CHL1    C1 2116   3.994   1.485   2.829  0.4475 -0.1011 -0.3074
   29CHL1   H1A 2117   4.004   1.593   2.807  1.3119 -0.7144 -3.3902
   29CHL1   H1B 2118   4.099   1.460   2.856  0.4712 -0.3925 -0.6485
   29CHL1    C2 2119   3.940   1.403   2.713 -0.6897 -0.3848  0.1972
   29CHL1   H2A 2120   4.012   1.396   2.628 -0.5898  0.9109  0.1588
   29CHL1   H2B 2121   3.843   1.441   2.676 -0.2916 -1.7970 -2.5751
   29CHL1   C20 2122   4.041   1.958   3.487  0.5969  0.7080  0.3548
   29CHL1   H20 2123   3.939   1.999   3.474  0.9410  1.3140 -0.5615
   29CHL1   C21 2124   4.118   2.037   3.384 -0.0921  0.3193  0.1002
   29CHL1  H21A 2125   4.066   2.043   3.286 -0.7131 -2.2846  0.1783
   29CHL1  H21B 2126   4.208   1.973   3.377 -0.2814  0.2149 -1.7479
   29CHL1  H21C 2127   4.139   2.143   3.408 -0.3209  0.6717 -1.2115
   29CHL1   C22 2128   4.093   1.984   3.633  0.1323 -0.1882 -0.0733
   29CHL1  H22A 2129   4.094   2.095   3.635 -1.1646 -0.1557 -0.3011
   29CHL1  H22B 2130   4.020   1.961   3.714 -0.2906 -1.5079 -0.8046
   29CHL1   C23 2131   4.237   1.941   3.662  0.2211 -0.2148  0.6317
   29CHL1  H23A 2132   4.253   1.834   3.639 -2.5973 -0.7674  0.9084
   29CHL1  H23B 2133   4.298   1.999   3.590  1.2805 -3.5589 -1.3598
   29CHL1   C24 2134   4.283   1.965   3.812 -0.5278 -0.2316 -0.1747
   29CHL1  H24A 2135   4.203   1.922   3.876 -0.9886 -1.9451 -1.8153
   29CHL1  H24B 2136   4.379   1.911   3.827  0.9557  1.8139 -1.7259
   29CHL1   C25 2137   4.297   2.109   3.872 -0.3708  0.0156  0.1795
   29CHL1   H25 2138   4.204   2.166   3.849  0.1179  1.1585  0.9680
   29CHL1   C26 2139   4.306   2.100   4.020 -0.1587 -0.0178 -0.2233
   29CHL1  H26A 2140   4.387   2.036   4.062 -0.3108 -1.9772 -2.6969
   29CHL1  H26B 2141   4.332   2.203   4.054 -0.3634 -0.1041  0.1971
   29CHL1  H26C 2142   4.207   2.060   4.051 -0.0638 -1.2998 -1.5088
   29CHL1   C27 2143   4.409   2.189   3.793  0.5462 -0.0416 -0.0715
   29CHL1  H27A 2144   4.388   2.218   3.688  1.9631 -0.1326 -0.4057
   29CHL1  H27B 2145   4.429   2.282   3.851 -1.1822  0.5008 -0.2887
   29CHL1  H27C 2146   4.502   2.128   3.794 -0.1613 -1.1648  1.1511
   30CHL1    C3 2147   2.725   2.352   2.880  0.0204  0.5272  0.1075
   30CHL1    H3 2148   2.772   2.253   2.894  0.0460  0.5948  0.4994
   30CHL1    O3 2149   2.740   2.393   2.748  0.1570 -0.0909  0.2761
   30CHL1   H3' 2150   2.674   2.462   2.745  0.8720  0.7724  2.4911
   30CHL1    C4 2151   2.575   2.343   2.914 -0.4925 -0.6066 -0.3103
   30CHL1   H4A 2152   2.524   2.435   2.880 -0.7108 -0.5945  0.0489
   30CHL1   H4B 2153   2.539   2.255   2.856  0.9843 -0.1803 -1.9590
   30CHL1    C5 2154   2.545   2.327   3.062  0.8017  0.4660  0.1567
   30CHL1    C6 2155   2.476   2.221   3.110 -0.1998 -0.4372  0.5438
   30CHL1    H6 2156   2.445   2.139   3.043  0.1814  0.6929 -1.0864
   30CHL1    C7 2157   2.448   2.197   3.254 -0.0227  0.0308  0.2404
   30CHL1   H7A 2158   2.342   2.166   3.264 -0.4414  1.0838 -0.6457
   30CHL1   H7B 2159   2.508   2.113   3.295  2.9232  0.9013 -1.9573
   30CHL1    C8 2160   2.488   2.306   3.351 -0.7207 -0.2987 -0.7392
   30CHL1    H8 2161   2.409   2.384   3.352 -0.0667  0.3746 -0.7421
   30CHL1   C14 2162   2.498   2.253   3.499 -0.3957  0.7224 -0.8597
   30CHL1   H14 2163   2.583   2.182   3.499 -1.3152 -0.4137 -0.7591
   30CHL1   C15 2164   2.377   2.177   3.558 -0.0347  0.2381  0.3296
   30CHL1  H15A 2165   2.284   2.227   3.524  0.1750 -1.3863 -3.1011
   30CHL1  H15B 2166   2.374   2.072   3.521 -0.6131 -1.2479  4.0961
   30CHL1   C16 2167   2.399   2.174   3.706  0.9299 -0.3694 -0.1617
   30CHL1  H16A 2168   2.313   2.214   3.764  2.2169  3.4830 -0.6204
   30CHL1  H16B 2169   2.418   2.067   3.728 -0.8196 -0.9136 -1.1183
   30CHL1   C17 2170   2.526   2.259   3.736  0.2525  0.2646  0.3038
   30CHL1   H17 2171   2.604   2.179   3.734 -0.3768 -0.3444 -0.6938
   30CHL1   C13 2172   2.546   2.350   3.608 -0.4547 -0.4163 -0.2653
   30CHL1   C18 2173   2.447   2.467   3.621 -0.9392 -0.2260  0.0169
   30CHL1  H18A 2174   2.449   2.530   3.529  3.2155  1.9493  1.3589
   30CHL1  H18B 2175   2.345   2.425   3.632 -0.8185 -0.7333 -0.7076
   30CHL1  H18C 2176   2.483   2.535   3.701  1.0055  0.8614 -1.6896
   30CHL1   C12 2177   2.689   2.397   3.566 -0.2917  0.0990 -0.0569
   30CHL1  H12A 2178   2.728   2.475   3.636  1.9096 -0.2312 -0.8352
   30CHL1  H12B 2179   2.761   2.313   3.575 -0.3003  0.2256  1.5664
   30CHL1   C11 2180   2.683   2.461   3.425  0.5005  0.0323  0.6631
   30CHL1  H11A 2181   2.625   2.556   3.418  1.1231  0.3001 -2.1934
   30CHL1  H11B 2182   2.788   2.487   3.398  0.0319  1.1219 -0.1713
   30CHL1    C9 2183   2.623   2.367   3.312 -0.0040  0.0998  0.1323
   30CHL1    H9 2184   2.690   2.279   3.309  1.0053  0.8824 -0.8499
   30CHL1   C10 2185   2.622   2.422   3.162 -0.4190 -0.1238 -0.3392
   30CHL1   C19 2186   2.550   2.554   3.143 -0.1829 -0.4687 -0.2192
   30CHL1  H19A 2187   2.629   2.626   3.172  0.1606 -1.4943  1.5522
   30CHL1  H19B 2188   2.524   2.572   3.036 -3.1871 -1.6995  0.2126
   30CHL1  H19C 2189   2.457   2.559   3.203 -0.3326  0.3848 -0.5144
   30CHL1    C1 2190   2.777   2.426   3.116  0.4880 -0.1698 -0.1926
   30CHL1   H1A 2191   2.825   2.504   3.179  1.1378 -0.9766  0.3341
   30CHL1   H1B 2192   2.820   2.325   3.136 -0.8950 -1.0100 -1.2993
   30CHL1    C2 2193   2.796   2.459   2.964  0.1000 -0.3537  0.1523
   30CHL1   H2A 2194   2.902   2.471   2.933 -0.1745  1.4390 -0.1777
   30CHL1   H2B 2195   2.751   2.555   2.931  0.0425 -1.1198 -2.1449
   30CHL1   C20 2196   2.523   2.325   3.876  0.1104 -0.9461 -0.0948
   30CHL1   H20 2197   2.439   2.398   3.882  0.8350 -0.0930 -0.0605
   30CHL1   C21 2198   2.654   2.406   3.898 -1.0890 -0.0031 -0.4491
   30CHL1  H21A 2199   2.662   2.492   3.830 -1.7587  1.3131  1.0766
   30CHL1  H21B 2200   2.742   2.338   3.888 -2.5670 -2.5271  2.2379
   30CHL1  H21C 2201   2.661   2.431   4.006 -1.6897  1.4149 -0.7325
   30CHL1   C22 2202   2.513   2.223   3.994  0.0162 -0.2556 -0.2852
   30CHL1  H22A 2203   2.432   2.152   3.966 -0.5693  0.5891 -0.7693
   30CHL1  H22B 2204   2.611   2.172   3.995  1.0798  1.6400 -2.0346
   30CHL1   C23 2205   2.484   2.283   4.129  0.0210  0.2973 -0.0098
   30CHL1  H23A 2206   2.565   2.351   4.162 -0.0066  0.6045 -0.5626
   30CHL1  H23B 2207   2.393   2.344   4.113  0.1508  0.9670  1.6412
   30CHL1   C24 2208   2.455   2.165   4.241  0.1152 -0.3368  0.4315
   30CHL1  H24A 2209   2.406   2.078   4.192 -0.6675  0.2865  0.0813
   30CHL1  H24B 2210   2.560   2.131   4.255  0.7588  1.0182 -0.7920
   30CHL1   C25 2211   2.398   2.200   4.385 -0.2035 -0.4843 -0.2115
   30CHL1   H25 2212   2.288   2.216   4.383 -0.5647 -2.6958 -0.2518
   30CHL1   C26 2213   2.413   2.083   4.480 -0.0442 -0.2526 -0.2528
   30CHL1  H26A 2214   2.363   2.111   4.575 -0.3325  2.4752 -1.1135
   30CHL1  H26B 2215   2.378   1.985   4.442 -1.6586  0.2964 -0.2257
   30CHL1  H26C 2216   2.522   2.069   4.495  0.3035 -0.1400 -2.3443
   30CHL1   C27 2217   2.458   2.329   4.460  0.3002  0.0812  0.5476
   30CHL1  H27A 2218   2.489   2.415   4.398  0.1420  0.3034  0.7774
   30CHL1  H27B 2219   2.386   2.370   4.534 -0.9108 -0.9417 -0.0324
   30CHL1  H27C 2220   2.547   2.287   4.513 -0.4778  0.5174  2.2902
   31CHL1    C3 2221   4.253   0.143   2.753  0.4179  1.0546 -0.4745
   31CHL1    H3 2222   4.147   0.148   2.787  0.4092  1.9274 -0.5994
   31CHL1    O3 2223   4.242   0.100   2.622  0.4818  0.9912  0.5230
   31CHL1   H3' 2224   4.330   0.100   2.583 -0.1515 -2.7274 -1.2904
   31CHL1    C4 2225   4.316   0.281   2.768 -0.4313 -0.1540  0.6780
   31CHL1   H4A 2226   4.410   0.283   2.710 -0.9211 -1.0760 -0.1654
   31CHL1   H4B 2227   4.244   0.348   2.715  0.3409 -0.9018 -1.3791
   31CHL1    C5 2228   4.337   0.313   2.913 -0.2974 -0.2280 -0.0744
   31CHL1    C6 2229   4.288   0.424   2.961 -0.1433 -0.1787  0.2875
   31CHL1    H6 2230   4.246   0.496   2.889 -1.2622  0.3066  1.3769
   31CHL1    C7 2231   4.304   0.470   3.104  0.6458 -0.3900 -0.6725
   31CHL1   H7A 2232   4.344   0.573   3.113  2.1672 -0.8657 -1.6460
   31CHL1   H7B 2233   4.205   0.451   3.151  0.4416 -1.6558 -1.5825
   31CHL1    C8 2234   4.398   0.384   3.192 -0.0214  0.1129  0.8397
   31CHL1    H8 2235   4.500   0.415   3.163  0.6856 -1.3068  1.7348
   31CHL1   C14 2236   4.383   0.406   3.338  1.1072  0.4708  0.4857
   31CHL1   H14 2237   4.282   0.375   3.372  1.2075  0.6329  0.9408
   31CHL1   C15 2238   4.389   0.544   3.397  0.0712 -1.0163  0.0812
   31CHL1  H15A 2239   4.487   0.585   3.364  1.5000 -3.1996  1.3194
   31CHL1  H15B 2240   4.309   0.614   3.369  1.5782  0.6757 -0.1685
   31CHL1   C16 2241   4.398   0.520   3.550  0.4853 -0.7045 -0.1076
   31CHL1  H16A 2242   4.475   0.590   3.586 -0.4242 -0.8781  2.3696
   31CHL1  H16B 2243   4.300   0.547   3.595  1.2634  1.7034  0.2775
   31CHL1   C17 2244   4.422   0.370   3.563 -0.7395  0.0922 -0.0979
   31CHL1   H17 2245   4.325   0.321   3.588 -0.9879  0.5692 -0.1016
   31CHL1   C13 2246   4.473   0.313   3.426 -0.3052  1.0582 -0.0582
   31CHL1   C18 2247   4.626   0.334   3.411 -0.2909 -0.3560 -0.5817
   31CHL1  H18A 2248   4.655   0.426   3.466 -0.1422  0.0518 -1.3389
   31CHL1  H18B 2249   4.685   0.252   3.457 -0.5939  0.4270  1.2852
   31CHL1  H18C 2250   4.656   0.338   3.304  1.1111 -0.7178 -0.2202
   31CHL1   C12 2251   4.438   0.167   3.389 -0.0092 -0.3175 -0.7755
   31CHL1  H12A 2252   4.484   0.085   3.449 -0.2883 -1.2225 -1.7572
   31CHL1  H12B 2253   4.331   0.149   3.410  0.4943 -2.3066  0.3914
   31CHL1   C11 2254   4.460   0.135   3.246  0.3146 -0.0657  0.1818
   31CHL1  H11A 2255   4.568   0.143   3.219  0.1082  3.0412 -0.1627
   31CHL1  H11B 2256   4.423   0.032   3.228  0.6962 -0.3099  0.7685
   31CHL1    C9 2257   4.375   0.236   3.156 -0.6462 -0.6452  0.3776
   31CHL1    H9 2258   4.267   0.214   3.173 -1.3404  1.8884 -0.3277
   31CHL1   C10 2259   4.403   0.207   3.005 -0.3110 -0.2038  0.2812
   31CHL1   C19 2260   4.566   0.205   2.973  0.8917 -0.4758 -0.2088
   31CHL1  H19A 2261   4.621   0.122   3.024  1.9077  0.4955  0.3262
   31CHL1  H19B 2262   4.575   0.215   2.862  1.3982  2.7869  0.0226
   31CHL1  H19C 2263   4.607   0.299   3.016 -0.9952 -0.2738  1.2304
   31CHL1    C1 2264   4.349   0.061   2.972  0.7555  0.5446  0.6192
   31CHL1   H1A 2265   4.401  -0.020   3.027  0.5472 -0.7477 -1.0001
   31CHL1   H1B 2266   4.246   0.065   3.012  0.7915 -0.2897  0.8175
   31CHL1    C2 2267   4.332   0.036   2.826 -0.3880  0.2764 -0.5130
   31CHL1   H2A 2268   4.269  -0.055   2.823 -1.0675  0.7341 -0.5355
   31CHL1   H2B 2269   4.432   0.022   2.778 -0.6314  1.5487 -1.4572
   31CHL1   C20 2270   4.508   0.339   3.689  0.2824 -0.1829  0.5380
   31CHL1   H20 2271   4.606   0.392   3.680  0.5648 -1.0452 -3.1342
   31CHL1   C21 2272   4.547   0.190   3.695 -0.0346  0.0065  0.2180
   31CHL1  H21A 2273   4.586   0.157   3.793 -0.0836 -2.5272 -0.5399
   31CHL1  H21B 2274   4.606   0.150   3.609 -0.7615  0.7954 -0.6686
   31CHL1  H21C 2275   4.452   0.132   3.698  0.2004 -0.4217 -0.3773
   31CHL1   C22 2276   4.451   0.384   3.820  0.3771 -0.2427  0.1813
   31CHL1  H22A 2277   4.416   0.489   3.809  0.8983  0.1296  1.9043
   31CHL1  H22B 2278   4.354   0.332   3.839  0.1991  0.3841  1.0541
   31CHL1   C23 2279   4.553   0.391   3.933 -0.4146  0.4384 -0.2188
   31CHL1  H23A 2280   4.590   0.293   3.970 -1.0083  0.3724  0.2236
   31CHL1  H23B 2281   4.646   0.441   3.899  0.7316 -0.7953  0.9848
   31CHL1   C24 2282   4.502   0.486   4.053 -0.0615 -0.4719  0.2104
   31CHL1  H24A 2283   4.492   0.593   4.026 -0.8465  0.8411  4.7887
   31CHL1  H24B 2284   4.404   0.437   4.073  0.0468 -1.1927 -0.9580
   31CHL1   C25 2285   4.592   0.489   4.184 -0.0137  0.3012 -0.1341
   31CHL1   H25 2286   4.699   0.498   4.155 -0.4171  0.4957 -1.6549
   31CHL1   C26 2287   4.558   0.613   4.268 -0.0814 -0.1576  0.1301
   31CHL1  H26A 2288   4.630   0.638   4.348 -0.7892  0.0233  0.7186
   31CHL1  H26B 2289   4.538   0.705   4.208  3.7185 -0.1345 -1.3998
   31CHL1  H26C 2290   4.459   0.596   4.315 -0.2192  1.8076  0.6630
   31CHL1   C27 2291   4.579   0.353   4.252 -0.3183  0.3019  0.0859
   31CHL1  H27A 2292   4.473   0.344   4.286 -0.7193 -1.0816 -1.4454
   31CHL1  H27B 2293   4.604   0.274   4.178 -0.1544  0.0863  0.3688
   31CHL1  H27C 2294   4.642   0.338   4.342  1.5164  2.5998 -0.6874
   32CHL1    C3 2295   1.595   0.585   2.921 -0.3720  0.6623 -0.0589
   32CHL1    H3 2296   1.579   0.487   2.972 -0.5168  0.7716  0.1068
   32CHL1    O3 2297   1.585   0.556   2.785  0.3253 -0.5335  0.1330
   32CHL1   H3' 2298   1.575   0.646   2.752 -0.7902 -0.4007  0.7791
   32CHL1    C4 2299   1.492   0.687   2.969  0.3004 -0.7386  0.2459
   32CHL1   H4A 2300   1.511   0.779   2.911  0.2111 -0.4775  0.6280
   32CHL1   H4B 2301   1.390   0.654   2.940 -0.0085  0.8056 -0.5046
   32CHL1    C5 2302   1.500   0.722   3.115  0.3627 -0.2933 -0.2546
   32CHL1    C6 2303   1.393   0.708   3.195 -0.4462 -0.1007 -0.3541
   32CHL1    H6 2304   1.303   0.659   3.154  1.1389 -1.6474 -2.1833
   32CHL1    C7 2305   1.388   0.735   3.340 -0.8364 -0.4001  0.2570
   32CHL1   H7A 2306   1.286   0.774   3.362 -0.0701  1.6932  0.2380
   32CHL1   H7B 2307   1.402   0.636   3.390  2.1233  0.4720  1.3137
   32CHL1    C8 2308   1.511   0.823   3.375 -0.2242  0.6248  0.0810
   32CHL1    H8 2309   1.489   0.925   3.338  2.7881  1.3886  0.1139
   32CHL1   C14 2310   1.509   0.822   3.524 -0.2326  0.6601 -0.3333
   32CHL1   H14 2311   1.522   0.716   3.554 -0.5595  1.1340  1.6988
   32CHL1   C15 2312   1.390   0.871   3.602  0.1627  0.0258 -0.6503
   32CHL1  H15A 2313   1.335   0.955   3.555 -1.9306  0.6402  2.5795
   32CHL1  H15B 2314   1.323   0.786   3.623 -0.5942  0.3103 -1.8411
   32CHL1   C16 2315   1.445   0.917   3.744 -0.4702 -0.0565  0.1939
   32CHL1  H16A 2316   1.417   1.024   3.742  0.6285  0.2375 -1.3644
   32CHL1  H16B 2317   1.395   0.865   3.829 -0.3390  1.1825  1.0504
   32CHL1   C17 2318   1.590   0.882   3.740 -0.1218 -0.2790  0.4391
   32CHL1   H17 2319   1.582   0.773   3.762  0.2170 -0.5359 -0.6620
   32CHL1   C13 2320   1.631   0.891   3.589 -0.2680  0.1106 -0.3937
   32CHL1   C18 2321   1.638   1.037   3.550  0.4643 -0.5436  0.4081
   32CHL1  H18A 2322   1.701   1.084   3.629  1.0524 -1.8384  0.7279
   32CHL1  H18B 2323   1.664   1.052   3.443 -2.0394 -0.8437 -0.3223
   32CHL1  H18C 2324   1.539   1.086   3.565  0.6022 -0.6024  1.6486
   32CHL1   C12 2325   1.754   0.805   3.543  0.0583  0.4427  0.4762
   32CHL1  H12A 2326   1.851   0.837   3.585  2.4349 -2.2059 -2.4897
   32CHL1  H12B 2327   1.734   0.700   3.572  0.0725  0.4891  0.6542
   32CHL1   C11 2328   1.769   0.805   3.389 -0.9280 -0.1440  0.8760
   32CHL1  H11A 2329   1.787   0.911   3.358 -0.9452  0.2296  2.0669
   32CHL1  H11B 2330   1.853   0.742   3.353 -1.0438  0.9402 -1.5111
   32CHL1    C9 2331   1.640   0.753   3.318  0.5642  0.3357 -0.4486
   32CHL1    H9 2332   1.631   0.644   3.339  0.6097  0.6269  1.2301
   32CHL1   C10 2333   1.642   0.762   3.163  0.4507 -0.2034  0.1388
   32CHL1   C19 2334   1.679   0.905   3.124 -1.0254 -0.9233 -0.0495
   32CHL1  H19A 2335   1.596   0.974   3.152 -2.3618 -2.2247 -0.6684
   32CHL1  H19B 2336   1.779   0.937   3.160 -0.6959  0.9857 -2.3524
   32CHL1  H19C 2337   1.680   0.916   3.013 -0.3273 -0.5441 -0.0117
   32CHL1    C1 2338   1.743   0.656   3.102  0.3903 -0.6149  0.1374
   32CHL1   H1A 2339   1.845   0.685   3.134  0.2724 -0.4526  0.3663
   32CHL1   H1B 2340   1.717   0.554   3.135 -3.0077  1.1584  3.7919
   32CHL1    C2 2341   1.733   0.640   2.950 -0.0649  0.1675  0.2080
   32CHL1   H2A 2342   1.807   0.565   2.914  1.7013  1.0353  1.8558
   32CHL1   H2B 2343   1.735   0.733   2.890 -0.7505 -0.8513 -1.4734
   32CHL1   C20 2344   1.675   0.956   3.849 -0.4503  0.3005 -0.2067
   32CHL1   H20 2345   1.669   1.066   3.835  0.0580  0.3749  0.1369
   32CHL1   C21 2346   1.822   0.910   3.837  0.1744  0.6915  0.4921
   32CHL1  H21A 2347   1.880   0.959   3.918  4.1181 -0.6303 -1.2553
   32CHL1  H21B 2348   1.870   0.944   3.743  0.4064  0.1653  0.4133
   32CHL1  H21C 2349   1.824   0.799   3.838 -0.4102  0.6504 -0.8321
   32CHL1   C22 2350   1.620   0.920   3.996  0.6717 -0.7450 -0.3654
   32CHL1  H22A 2351   1.510   0.931   4.004  0.6070 -1.3284 -0.4076
   32CHL1  H22B 2352   1.647   0.813   3.998  2.8172 -0.2521  0.7442
   32CHL1   C23 2353   1.694   0.984   4.109 -0.1405  0.7488 -0.4707
   32CHL1  H23A 2354   1.803   0.962   4.106 -0.2511 -0.1063  0.7998
   32CHL1  H23B 2355   1.695   1.094   4.098  0.7627  1.1192  2.4327
   32CHL1   C24 2356   1.642   0.953   4.248 -0.3594  0.3079  0.2832
   32CHL1  H24A 2357   1.534   0.977   4.257 -0.2576  0.4944  1.0113
   32CHL1  H24B 2358   1.659   0.846   4.273  1.4442  0.2517 -0.9776
   32CHL1   C25 2359   1.712   1.031   4.362  0.2645 -0.1863  0.2820
   32CHL1   H25 2360   1.691   1.137   4.337 -1.2844 -0.7087 -0.8005
   32CHL1   C26 2361   1.645   1.012   4.499 -0.0684  0.8867 -0.3529
   32CHL1  H26A 2362   1.701   0.948   4.570 -0.2617  1.1951  0.0748
   32CHL1  H26B 2363   1.609   1.110   4.537  0.3717  1.0744 -0.4149
   32CHL1  H26C 2364   1.547   0.962   4.481  0.6926 -0.8163  0.0020
   32CHL1   C27 2365   1.867   1.006   4.366  0.0534 -0.4056 -0.1364
   32CHL1  H27A 2366   1.909   1.019   4.264  0.3791 -2.0182 -0.2353
   32CHL1  H27B 2367   1.927   1.070   4.435  1.1661 -0.8920 -0.6232
   32CHL1  H27C 2368   1.885   0.903   4.404 -0.0651  0.0154  1.1151
   33CHL1    C3 2369   6.254   2.488   2.862  0.1948 -0.2305 -0.9641
   33CHL1    H3 2370   6.321   2.400   2.863 -1.2745 -1.4027 -0.8565
   33CHL1    O3 2371   6.224   2.520   2.721 -0.0816 -0.5103 -0.3167
   33CHL1   H3' 2372   6.161   2.592   2.721  1.4448  0.9133  0.7417
   33CHL1    C4 2373   6.121   2.448   2.941 -0.0677  0.4949  0.6587
   33CHL1   H4A 2374   6.039   2.521   2.922 -0.8459 -0.2958  0.9122
   33CHL1   H4B 2375   6.096   2.351   2.894 -1.4908  1.5344 -0.8568
   33CHL1    C5 2376   6.142   2.435   3.091 -0.3400 -0.1551  1.2158
   33CHL1    C6 2377   6.095   2.330   3.159  1.0842 -0.6083  0.3146
   33CHL1    H6 2378   6.042   2.248   3.108  0.3449  1.2589 -2.0566
   33CHL1    C7 2379   6.115   2.315   3.305 -0.1524 -0.2553  0.1920
   33CHL1   H7A 2380   6.016   2.281   3.342 -1.1263 -0.8932 -2.7237
   33CHL1   H7B 2381   6.196   2.240   3.324  0.1279 -0.2555 -0.9492
   33CHL1    C8 2382   6.149   2.440   3.376 -0.2334  0.0453 -0.3866
   33CHL1    H8 2383   6.062   2.510   3.381 -0.5498 -0.3844  2.8618
   33CHL1   C14 2384   6.202   2.414   3.518 -0.1160 -0.5130  0.4763
   33CHL1   H14 2385   6.287   2.344   3.499  0.7894  1.0278 -1.5945
   33CHL1   C15 2386   6.104   2.341   3.608  0.1595  0.3278  0.4648
   33CHL1  H15A 2387   6.010   2.400   3.612  0.5044  0.8252  2.3891
   33CHL1  H15B 2388   6.095   2.239   3.566  2.7693 -0.0095  0.5380
   33CHL1   C16 2389   6.167   2.350   3.745  0.0960 -0.1868  0.2166
   33CHL1  H16A 2390   6.083   2.377   3.813  0.0009 -2.9706  1.3300
   33CHL1  H16B 2391   6.198   2.251   3.785 -0.3055  0.6007  2.6996
   33CHL1   C17 2392   6.285   2.452   3.736  0.2639 -0.6211 -0.3162
   33CHL1   H17 2393   6.370   2.384   3.716 -0.9009 -2.0397 -0.6379
   33CHL1   C13 2394   6.259   2.530   3.609  0.6362  0.9121  0.2675
   33CHL1   C18 2395   6.149   2.634   3.625 -0.9754 -0.0930  0.1948
   33CHL1  H18A 2396   6.186   2.734   3.656 -2.5864  0.0325  1.9036
   33CHL1  H18B 2397   6.097   2.651   3.528 -1.3322 -0.1750  0.3687
   33CHL1  H18C 2398   6.077   2.601   3.703 -1.2566 -0.5761 -0.2646
   33CHL1   C12 2399   6.376   2.586   3.525 -0.1944 -0.0354  0.2393
   33CHL1  H12A 2400   6.429   2.677   3.560 -0.5892  1.0409 -1.8029
   33CHL1  H12B 2401   6.450   2.504   3.512  0.5377  0.7104 -0.4229
   33CHL1   C11 2402   6.330   2.621   3.385  0.7285 -0.3852 -0.3926
   33CHL1  H11A 2403   6.273   2.716   3.389  1.3983 -0.0291  1.4403
   33CHL1  H11B 2404   6.424   2.646   3.332  0.2221 -0.1015 -1.1762
   33CHL1    C9 2405   6.263   2.509   3.300  0.5628  0.6194 -0.7274
   33CHL1    H9 2406   6.346   2.439   3.278 -0.2107 -0.1383 -1.2667
   33CHL1   C10 2407   6.218   2.546   3.158  0.5010 -0.5874 -0.1038
   33CHL1   C19 2408   6.118   2.671   3.164  0.0009 -0.8301  0.1694
   33CHL1  H19A 2409   6.097   2.695   3.058  2.0567 -1.9627 -0.5561
   33CHL1  H19B 2410   6.021   2.649   3.212 -0.6457  1.5655  0.0913
   33CHL1  H19C 2411   6.154   2.763   3.214 -2.5891  1.3631 -1.7097
   33CHL1    C1 2412   6.343   2.587   3.082  0.0714 -0.2002  0.0547
   33CHL1   H1A 2413   6.386   2.684   3.116  0.5701  0.1026 -1.3709
   33CHL1   H1B 2414   6.416   2.504   3.084 -0.0457 -0.3724 -1.3670
   33CHL1    C2 2415   6.309   2.609   2.929 -0.4589 -0.0524 -0.0367
   33CHL1   H2A 2416   6.392   2.657   2.873 -0.3255  1.3889  1.3185
   33CHL1   H2B 2417   6.235   2.690   2.911 -1.7519 -1.1232  0.3487
   33CHL1   C20 2418   6.315   2.539   3.860 -0.4895  0.4145 -0.2759
   33CHL1   H20 2419   6.241   2.620   3.877 -0.2139  0.4828  0.6223
   33CHL1   C21 2420   6.454   2.601   3.852  0.4015  0.4404  0.4292
   33CHL1  H21A 2421   6.488   2.623   3.955 -0.1669 -0.1454  0.7538
   33CHL1  H21B 2422   6.451   2.696   3.795 -0.6921  0.5222  0.5973
   33CHL1  H21C 2423   6.535   2.542   3.804  1.2147  2.8065 -1.3073
   33CHL1   C22 2424   6.288   2.454   3.987  0.1222  0.5254 -0.1771
   33CHL1  H22A 2425   6.199   2.387   3.983 -0.2217  0.9952 -0.4824
   33CHL1  H22B 2426   6.360   2.373   4.011 -1.2547 -0.2299  1.5861
   33CHL1   C23 2427   6.268   2.546   4.109  0.0367  0.4334  0.9332
   33CHL1  H23A 2428   6.359   2.608   4.114 -0.1416  0.7508  0.3366
   33CHL1  H23B 2429   6.184   2.613   4.081  2.2681  2.5030 -1.2343
   33CHL1   C24 2430   6.241   2.463   4.230  0.8321 -0.2025 -0.1163
   33CHL1  H24A 2431   6.136   2.429   4.242  1.0840 -0.7355  0.6408
   33CHL1  H24B 2432   6.305   2.375   4.210  1.7024  0.4615 -0.3051
   33CHL1   C25 2433   6.284   2.519   4.370 -0.2480  0.4544 -0.6513
   33CHL1   H25 2434   6.375   2.578   4.347  1.1113 -1.3202 -0.0689
   33CHL1   C26 2435   6.186   2.626   4.432 -0.0691 -0.0830  0.2659
   33CHL1  H26A 2436   6.228   2.692   4.510  1.9574 -1.3599  0.3207
   33CHL1  H26B 2437   6.148   2.694   4.352 -0.1294  0.4436  0.7401
   33CHL1  H26C 2438   6.098   2.576   4.478 -0.4717  0.6178  0.2798
   33CHL1   C27 2439   6.317   2.402   4.472  0.1800 -0.6434  0.0932
   33CHL1  H27A 2440   6.222   2.351   4.500  0.7615 -0.7809  1.9240
   33CHL1  H27B 2441   6.396   2.330   4.442  0.4729  0.0672 -0.8914
   33CHL1  H27C 2442   6.362   2.455   4.558  0.8847  0.0086 -0.6615
   34CHL1    C3 2443   5.772   3.228   2.913 -0.2885  0.8479  0.4971
   34CHL1    H3 2444   5.875   3.270   2.906 -0.1023  0.2943 -0.1714
   34CHL1    O3 2445   5.744   3.176   2.784  0.2346  0.5356  0.4693
   34CHL1   H3' 2446   5.654   3.144   2.789  0.3142  0.4804  1.9858
   34CHL1    C4 2447   5.779   3.110   3.007  0.5367  0.7887 -0.5083
   34CHL1   H4A 2448   5.685   3.050   3.007  0.4944  0.8000 -2.5422
   34CHL1   H4B 2449   5.845   3.031   2.966  1.1735  2.3410 -2.6443
   34CHL1    C5 2450   5.811   3.154   3.152  0.1244  0.4302 -0.2543
   34CHL1    C6 2451   5.912   3.104   3.229  0.2117  0.3126 -0.3315
   34CHL1    H6 2452   5.976   3.021   3.196 -0.7510  0.1993 -2.0292
   34CHL1    C7 2453   5.919   3.130   3.373 -0.1415 -0.1649  0.2788
   34CHL1   H7A 2454   5.937   3.036   3.429  2.3399  1.7196  2.9318
   34CHL1   H7B 2455   6.011   3.190   3.390  0.0356 -0.2905 -0.2305
   34CHL1    C8 2456   5.798   3.208   3.431  0.6117  0.3431 -0.1596
   34CHL1    H8 2457   5.711   3.143   3.456  1.0646  0.4522  1.8621
   34CHL1   C14 2458   5.836   3.282   3.562  0.1861 -0.1160  0.1209
   34CHL1   H14 2459   5.908   3.361   3.531  0.2641 -0.5012 -0.6832
   34CHL1   C15 2460   5.915   3.203   3.672  0.7974 -0.3677  0.1498
   34CHL1  H15A 2461   5.866   3.104   3.685  0.5413 -0.1255  1.1080
   34CHL1  H15B 2462   6.024   3.206   3.651  0.3943  1.1037 -2.0817
   34CHL1   C16 2463   5.881   3.274   3.802  0.3020 -0.4319  0.5473
   34CHL1  H16A 2464   5.837   3.196   3.868 -0.3372 -0.6702 -0.1483
   34CHL1  H16B 2465   5.978   3.306   3.846 -0.3404  1.0599  0.9194
   34CHL1   C17 2466   5.800   3.398   3.765 -0.0865  0.2348  0.1141
   34CHL1   H17 2467   5.873   3.475   3.729  0.9915 -0.9968 -0.4121
   34CHL1   C13 2468   5.721   3.354   3.638 -0.1706  0.7393  0.4629
   34CHL1   C18 2469   5.609   3.259   3.683  0.5048 -0.0867 -0.0347
   34CHL1  H18A 2470   5.644   3.192   3.765 -1.1060 -2.2468 -1.0080
   34CHL1  H18B 2471   5.523   3.317   3.725 -0.2852 -1.7904  0.7865
   34CHL1  H18C 2472   5.569   3.201   3.597  1.4865  1.4244 -1.5703
   34CHL1   C12 2473   5.676   3.462   3.537  0.3805 -0.1992  0.5180
   34CHL1  H12A 2474   5.609   3.543   3.574  1.1623  0.5645  0.2898
   34CHL1  H12B 2475   5.762   3.525   3.505 -1.1929  1.1041 -1.4271
   34CHL1   C11 2476   5.631   3.415   3.396  0.4731 -0.7486  0.1104
   34CHL1  H11A 2477   5.525   3.380   3.391 -0.2955  1.1706  1.5159
   34CHL1  H11B 2478   5.642   3.494   3.318  0.6922 -0.4854  0.4043
   34CHL1    C9 2479   5.738   3.318   3.337  0.5189 -0.6886 -0.7223
   34CHL1    H9 2480   5.825   3.384   3.315 -0.1567  0.0240 -1.3215
   34CHL1   C10 2481   5.705   3.255   3.198 -0.0371 -0.6817 -0.5579
   34CHL1   C19 2482   5.573   3.187   3.218  0.3095 -0.3040  0.7720
   34CHL1  H19A 2483   5.571   3.126   3.311 -0.6799  1.5795  2.0705
   34CHL1  H19B 2484   5.495   3.266   3.221  0.4420  0.0822 -2.4216
   34CHL1  H19C 2485   5.547   3.115   3.138  0.8182  0.9805 -0.5901
   34CHL1    C1 2486   5.685   3.372   3.098 -0.8785 -0.6591 -0.7780
   34CHL1   H1A 2487   5.596   3.434   3.123 -1.6673 -1.4086 -1.6215
   34CHL1   H1B 2488   5.777   3.435   3.097 -0.7354 -0.8645 -0.4874
   34CHL1    C2 2489   5.665   3.325   2.953  0.1329 -0.1302 -0.0173
   34CHL1   H2A 2490   5.651   3.407   2.879 -0.4127 -0.6478 -0.4934
   34CHL1   H2B 2491   5.567   3.272   2.945  1.4452 -2.3895 -2.7579
   34CHL1   C20 2492   5.728   3.460   3.884  0.4107 -0.0842  0.1093
   34CHL1   H20 2493   5.654   3.387   3.921 -0.4093 -1.4579 -3.7393
   34CHL1   C21 2494   5.647   3.586   3.835  0.2053  0.5791 -0.1217
   34CHL1  H21A 2495   5.599   3.635   3.923  0.6792  2.0508 -0.6551
   34CHL1  H21B 2496   5.573   3.549   3.761 -0.2333 -1.0536  1.0595
   34CHL1  H21C 2497   5.717   3.656   3.785  1.3096 -0.5417 -0.1760
   34CHL1   C22 2498   5.833   3.495   3.997 -0.2126  0.0527  0.4916
   34CHL1  H22A 2499   5.866   3.393   4.028  1.1424  0.3952  0.2343
   34CHL1  H22B 2500   5.924   3.541   3.953 -0.9273 -0.0682 -1.1823
   34CHL1   C23 2501   5.771   3.545   4.124 -0.2507  0.1527 -1.0252
   34CHL1  H23A 2502   5.733   3.649   4.111  1.3889  1.5149  3.3048
   34CHL1  H23B 2503   5.687   3.482   4.158 -0.4451  1.8764  2.0196
   34CHL1   C24 2504   5.873   3.557   4.240 -0.1886 -0.1429  0.6270
   34CHL1  H24A 2505   5.921   3.460   4.263  3.1754  0.8114 -1.7178
   34CHL1  H24B 2506   5.959   3.620   4.209 -1.4028  2.6924  2.5475
   34CHL1   C25 2507   5.828   3.622   4.369  0.3802  0.4354  0.9296
   34CHL1   H25 2508   5.778   3.720   4.359  1.1081  0.6730 -0.7023
   34CHL1   C26 2509   5.714   3.532   4.420  0.1823 -0.2077  0.5033
   34CHL1  H26A 2510   5.666   3.590   4.501  0.5392  1.6506 -0.5627
   34CHL1  H26B 2511   5.634   3.538   4.343 -1.0419  2.2299  1.8616
   34CHL1  H26C 2512   5.730   3.424   4.441  0.5820  0.2268  2.6434
   34CHL1   C27 2513   5.939   3.636   4.477 -0.6513 -0.4825  0.6685
   34CHL1  H27A 2514   5.974   3.534   4.502 -1.5802 -0.9899 -0.0163
   34CHL1  H27B 2515   6.016   3.707   4.441 -1.5404 -0.5372 -1.5089
   34CHL1  H27C 2516   5.884   3.686   4.560  0.2963  1.0256  0.4374
   35CHL1    C3 2517   2.156   3.801   3.100 -1.3197 -0.1911  0.5466
   35CHL1    H3 2518   2.103   3.711   3.136 -0.6517 -0.9952 -0.4413
   35CHL1    O3 2519   2.154   3.821   2.956  0.0440  0.5192  0.7654
   35CHL1   H3' 2520   2.210   3.749   2.925 -0.2624 -0.0884  1.5707
   35CHL1    C4 2521   2.112   3.927   3.167  0.4257 -0.0813 -0.2624
   35CHL1   H4A 2522   2.168   4.017   3.132 -1.7464  0.3374 -2.9965
   35CHL1   H4B 2523   2.006   3.954   3.149  0.4438 -0.2649 -0.6519
   35CHL1    C5 2524   2.128   3.922   3.320  0.5297  0.3041  0.2614
   35CHL1    C6 2525   2.016   3.938   3.400 -0.3768  0.0433 -0.4938
   35CHL1    H6 2526   1.915   3.956   3.358 -0.1066  3.0576 -0.0903
   35CHL1    C7 2527   2.036   3.940   3.551  0.0076  0.5444 -0.5267
   35CHL1   H7A 2528   1.967   4.015   3.596 -2.3076 -1.0721 -1.1824
   35CHL1   H7B 2529   2.014   3.837   3.586  0.1121  0.3667 -0.9654
   35CHL1    C8 2530   2.181   3.945   3.610 -0.6826  0.0236 -0.3646
   35CHL1    H8 2531   2.223   4.048   3.606  0.7594 -0.5474 -0.5809
   35CHL1   C14 2532   2.185   3.897   3.755 -0.3693 -0.2386 -0.3041
   35CHL1   H14 2533   2.153   3.791   3.756  1.0098 -0.6861  1.0369
   35CHL1   C15 2534   2.093   3.968   3.859 -0.2833  0.5056  0.0797
   35CHL1  H15A 2535   2.107   4.075   3.834 -2.4201  0.5458 -1.2578
   35CHL1  H15B 2536   1.990   3.931   3.835 -0.7970  0.8913  1.5893
   35CHL1   C16 2537   2.150   3.936   3.995  0.5227 -0.3618 -0.2054
   35CHL1  H16A 2538   2.146   4.026   4.061 -0.4503 -1.0973  0.7791
   35CHL1  H16B 2539   2.091   3.853   4.039  0.5500  0.7363  2.0883
   35CHL1   C17 2540   2.296   3.886   3.970  0.3702 -0.2743 -0.3779
   35CHL1   H17 2541   2.274   3.777   3.973 -3.5316  0.3823  0.9763
   35CHL1   C13 2542   2.327   3.915   3.817  0.2485  0.0755  0.0411
   35CHL1   C18 2543   2.386   4.056   3.803 -0.7554 -0.0108  0.0346
   35CHL1  H18A 2544   2.395   4.096   3.700  0.8834 -1.4639 -0.4425
   35CHL1  H18B 2545   2.337   4.131   3.868  1.0126 -0.3547  1.8914
   35CHL1  H18C 2546   2.486   4.051   3.852 -0.4932  1.5576 -0.2911
   35CHL1   C12 2547   2.413   3.808   3.745 -0.3184 -0.4620  0.2566
   35CHL1  H12A 2548   2.514   3.804   3.791  0.4986  0.4900 -1.3170
   35CHL1  H12B 2549   2.360   3.713   3.762 -1.4401 -0.0673 -0.8245
   35CHL1   C11 2550   2.413   3.832   3.590  0.4811 -0.1888 -0.3585
   35CHL1  H11A 2551   2.478   3.922   3.585  1.5198 -0.9957 -2.8105
   35CHL1  H11B 2552   2.457   3.750   3.530  0.8425 -0.8307  0.7412
   35CHL1    C9 2553   2.267   3.857   3.522 -0.4759 -0.1221 -0.2288
   35CHL1    H9 2554   2.220   3.757   3.527  2.0301 -1.3502  2.9739
   35CHL1   C10 2555   2.268   3.891   3.370  0.1040 -0.5383 -0.0083
   35CHL1   C19 2556   2.360   4.009   3.347 -1.0350  0.0070  0.3232
   35CHL1  H19A 2557   2.350   4.053   3.246  1.1857  0.6143  0.3192
   35CHL1  H19B 2558   2.352   4.084   3.429 -2.1976  0.5433 -0.2494
   35CHL1  H19C 2559   2.465   3.973   3.357 -1.1768 -0.7466 -0.7099
   35CHL1    C1 2560   2.324   3.769   3.289  0.3402  0.0214  0.0584
   35CHL1   H1A 2561   2.432   3.752   3.304  0.6995 -1.4503 -3.2733
   35CHL1   H1B 2562   2.267   3.678   3.315 -1.4357  1.1635  0.3756
   35CHL1    C2 2563   2.307   3.778   3.137  0.7289 -0.0553 -0.9307
   35CHL1   H2A 2564   2.346   3.691   3.081  0.1687  0.7425 -2.6179
   35CHL1   H2B 2565   2.373   3.856   3.093  0.6168 -0.2179 -1.3912
   35CHL1   C20 2566   2.399   3.918   4.084  0.2513 -0.6427  0.1496
   35CHL1   H20 2567   2.418   4.027   4.080  1.9439 -0.9413 -0.5120
   35CHL1   C21 2568   2.543   3.863   4.066  0.4932 -0.2927  0.3882
   35CHL1  H21A 2569   2.540   3.757   4.098  0.3318 -0.5378 -0.4216
   35CHL1  H21B 2570   2.607   3.916   4.140  0.0092 -1.4405  1.6862
   35CHL1  H21C 2571   2.586   3.875   3.965  1.9277 -1.5237  0.8178
   35CHL1   C22 2572   2.346   3.887   4.220  0.3403  0.1390 -0.1399
   35CHL1  H22A 2573   2.423   3.915   4.296 -0.5831 -1.4423  1.4421
   35CHL1  H22B 2574   2.265   3.960   4.240  1.2022  1.2705 -0.6337
   35CHL1   C23 2575   2.309   3.742   4.246 -0.2701 -0.3990  0.5836
   35CHL1  H23A 2576   2.234   3.722   4.167 -0.8443  0.4237  0.9052
   35CHL1  H23B 2577   2.398   3.684   4.214  0.0690  0.3648  0.1155
   35CHL1   C24 2578   2.260   3.708   4.386  0.0223  0.1020  0.0567
   35CHL1  H24A 2579   2.344   3.648   4.426  1.9640  1.2899 -1.9872
   35CHL1  H24B 2580   2.250   3.796   4.454  0.3281  1.8991 -2.1187
   35CHL1   C25 2581   2.138   3.626   4.379 -0.2307 -0.5114  0.4565
   35CHL1   H25 2582   2.158   3.537   4.315 -1.2984 -1.7392  1.7642
   35CHL1   C26 2583   2.125   3.556   4.514  0.3725 -0.1796  1.0604
   35CHL1  H26A 2584   2.106   3.642   4.581 -0.6269  0.5499 -0.1107
   35CHL1  H26B 2585   2.042   3.482   4.517  0.3524 -0.1409  1.4977
   35CHL1  H26C 2586   2.219   3.511   4.554  0.9327  0.2794  0.2901
   35CHL1   C27 2587   2.011   3.700   4.347 -0.2292  1.4436 -0.3702
   35CHL1  H27A 2588   1.927   3.628   4.358  0.1925  0.7364 -1.5154
   35CHL1  H27B 2589   1.979   3.790   4.403 -2.2955  0.6022 -0.1184
   35CHL1  H27C 2590   2.006   3.716   4.237 -0.1977 -0.8908 -0.7725
   36CHL1    C3 2591   4.916   3.771   2.526  0.0463 -0.7040  0.7273
   36CHL1    H3 2592   4.831   3.701   2.542 -0.4532 -0.3149 -0.1307
   36CHL1    O3 2593   4.947   3.760   2.388 -0.3574 -0.6374 -0.1930
   36CHL1   H3' 2594   4.995   3.842   2.373 -1.3278 -0.3086 -1.7121
   36CHL1    C4 2595   4.873   3.916   2.556  0.6049  0.0477  0.2233
   36CHL1   H4A 2596   4.955   3.984   2.524  0.0793  0.4091 -0.3911
   36CHL1   H4B 2597   4.774   3.929   2.506 -0.2348  0.7932  1.9893
   36CHL1    C5 2598   4.847   3.918   2.711  0.5169 -0.4143  0.5563
   36CHL1    C6 2599   4.733   3.967   2.761  0.7145 -0.9507 -0.5056
   36CHL1    H6 2600   4.658   3.997   2.687 -1.9825 -1.2243  1.9298
   36CHL1    C7 2601   4.699   3.985   2.909  0.9393  0.2966 -0.0271
   36CHL1   H7A 2602   4.652   4.081   2.940 -3.0129 -1.7249  0.7348
   36CHL1   H7B 2603   4.623   3.908   2.931  3.3732 -2.1588  0.3443
   36CHL1    C8 2604   4.824   3.969   2.996  0.1667 -0.3656  0.8238
   36CHL1    H8 2605   4.891   4.058   2.989  1.0536 -1.0667 -0.0004
   36CHL1   C14 2606   4.790   3.937   3.141  0.8263 -0.3228 -0.4292
   36CHL1   H14 2607   4.731   3.843   3.150 -1.1960  1.0150  1.1534
   36CHL1   C15 2608   4.686   4.026   3.212  0.3893  0.1167  0.6493
   36CHL1  H15A 2609   4.698   4.133   3.188 -3.2812  0.5548  0.1855
   36CHL1  H15B 2610   4.582   4.006   3.177  0.3271  1.3993  0.0690
   36CHL1   C16 2611   4.697   3.986   3.362 -0.5172  0.2200 -0.7651
   36CHL1  H16A 2612   4.711   4.080   3.418 -2.1653  0.5330 -0.8224
   36CHL1  H16B 2613   4.606   3.937   3.402 -1.6190  1.7798 -1.2771
   36CHL1   C17 2614   4.818   3.881   3.372 -0.0792 -0.1541 -1.0579
   36CHL1   H17 2615   4.767   3.782   3.369 -1.4351  0.1913  3.4689
   36CHL1   C13 2616   4.900   3.914   3.246  0.1605 -0.0100  0.3193
   36CHL1   C18 2617   4.984   4.041   3.273  0.0861 -0.0697  0.0822
   36CHL1  H18A 2618   5.083   4.015   3.318  0.3082 -0.5586 -0.6720
   36CHL1  H18B 2619   5.009   4.097   3.181  0.4646 -1.3381 -0.6172
   36CHL1  H18C 2620   4.940   4.102   3.354  0.5580 -1.4854  1.4566
   36CHL1   C12 2621   4.999   3.808   3.187  0.4491  0.4459  0.2251
   36CHL1  H12A 2622   5.089   3.804   3.252  1.7171  0.5905 -1.4595
   36CHL1  H12B 2623   4.948   3.710   3.192  0.1327  0.5946 -0.0439
   36CHL1   C11 2624   5.034   3.838   3.041  0.1768 -0.1895 -0.4448
   36CHL1  H11A 2625   5.108   3.921   3.037 -1.4713  1.3424 -0.1925
   36CHL1  H11B 2626   5.086   3.747   3.003  0.8371 -0.7669  1.7312
   36CHL1    C9 2627   4.914   3.856   2.947 -0.2553 -0.4004 -0.2578
   36CHL1    H9 2628   4.861   3.759   2.949 -1.8201  0.4093 -0.8599
   36CHL1   C10 2629   4.961   3.867   2.795 -0.1192 -0.3337  0.2934
   36CHL1   C19 2630   5.086   3.968   2.785  0.5886 -0.8003 -0.1187
   36CHL1  H19A 2631   5.109   3.990   2.678  1.7963  2.4793  0.6971
   36CHL1  H19B 2632   5.058   4.065   2.832  1.1046 -0.1690 -1.0737
   36CHL1  H19C 2633   5.177   3.936   2.839  0.2716 -0.0197  0.9080
   36CHL1    C1 2634   5.009   3.729   2.743  0.0431 -0.6821 -0.3371
   36CHL1   H1A 2635   5.104   3.711   2.796 -1.1185  2.0673  3.0517
   36CHL1   H1B 2636   4.936   3.646   2.756  0.3420 -0.8806  0.0744
   36CHL1    C2 2637   5.045   3.729   2.596 -0.2772  0.1382 -0.1933
   36CHL1   H2A 2638   5.093   3.638   2.552  0.2658 -0.4695  1.5777
   36CHL1   H2B 2639   5.127   3.801   2.579  1.0147 -1.3167 -0.3512
   36CHL1   C20 2640   4.887   3.888   3.513  0.8178 -0.0702 -0.1376
   36CHL1   H20 2641   4.914   3.994   3.536 -2.4253  0.3959  2.2088
   36CHL1   C21 2642   5.011   3.795   3.504 -0.3985 -0.7450 -0.4813
   36CHL1  H21A 2643   5.103   3.843   3.463  0.4428 -2.0764 -0.2149
   36CHL1  H21B 2644   4.984   3.721   3.426 -2.3621  0.0796 -0.6387
   36CHL1  H21C 2645   5.039   3.740   3.596 -1.3312  1.9530  1.5684
   36CHL1   C22 2646   4.782   3.847   3.623  0.6839  0.2213 -0.1702
   36CHL1  H22A 2647   4.720   3.938   3.638  1.5717  0.5517  1.8025
   36CHL1  H22B 2648   4.725   3.757   3.591  1.7535 -0.0663 -1.3735
   36CHL1   C23 2649   4.852   3.808   3.752 -0.5778 -0.2819 -0.2993
   36CHL1  H23A 2650   4.893   3.707   3.734  0.2994 -0.0588  0.3720
   36CHL1  H23B 2651   4.937   3.877   3.771 -0.5777 -0.1355 -0.8278
   36CHL1   C24 2652   4.758   3.799   3.873 -0.2802  0.4994  0.5635
   36CHL1  H24A 2653   4.684   3.724   3.838  0.9065 -0.6304  0.4012
   36CHL1  H24B 2654   4.802   3.744   3.958 -0.5905  0.0198  0.4148
   36CHL1   C25 2655   4.687   3.923   3.927  0.0846 -0.2750 -0.2883
   36CHL1   H25 2656   4.640   3.968   3.837 -0.3412  0.5865  0.3511
   36CHL1   C26 2657   4.566   3.877   4.011  0.2770 -0.2280  0.2891
   36CHL1  H26A 2658   4.603   3.856   4.114  1.8076 -0.2275 -0.2397
   36CHL1  H26B 2659   4.480   3.947   4.014 -0.1468 -0.6183 -1.4971
   36CHL1  H26C 2660   4.528   3.783   3.967 -2.4825 -0.0768  2.1161
   36CHL1   C27 2661   4.779   4.022   3.997  0.3319  0.0152  0.4445
   36CHL1  H27A 2662   4.836   3.971   4.078 -0.0630 -2.7871 -0.9066
   36CHL1  H27B 2663   4.847   4.072   3.924  0.0121  1.1137  0.8833
   36CHL1  H27C 2664   4.716   4.101   4.043 -2.5166 -0.9859 -1.4616
   37CHL1    C3 2665   0.907   3.665   2.729 -0.3989 -0.0061  0.6479
   37CHL1    H3 2666   0.987   3.710   2.667  0.1207 -2.6690 -0.7568
   37CHL1    O3 2667   0.788   3.650   2.654 -0.3006 -0.1344  0.3078
   37CHL1   H3' 2668   0.722   3.616   2.715 -0.5049 -1.1720 -0.4621
   37CHL1    C4 2669   0.962   3.529   2.776  0.0325 -0.4896 -0.3007
   37CHL1   H4A 2670   0.880   3.467   2.819 -0.5868  0.7144  0.3174
   37CHL1   H4B 2671   1.017   3.489   2.689  1.3663  2.0881 -0.7523
   37CHL1    C5 2672   1.054   3.538   2.895 -0.2358  0.1253 -0.4012
   37CHL1    C6 2673   1.168   3.465   2.898 -0.5199 -0.5420  0.1421
   37CHL1    H6 2674   1.198   3.409   2.808  0.0747  0.6706 -0.4369
   37CHL1    C7 2675   1.270   3.459   3.018 -0.0076 -0.4832  0.0015
   37CHL1   H7A 2676   1.285   3.353   3.048 -1.2524 -0.8197 -0.4773
   37CHL1   H7B 2677   1.363   3.509   2.985 -0.4681  0.6978  0.4407
   37CHL1    C8 2678   1.209   3.522   3.150  0.7132 -0.2094  0.4685
   37CHL1    H8 2679   1.128   3.453   3.180  0.5589 -0.1225  0.2602
   37CHL1   C14 2680   1.313   3.539   3.267  0.4982  0.5666  0.4530
   37CHL1   H14 2681   1.395   3.601   3.226  0.1491 -1.0969 -3.1428
   37CHL1   C15 2682   1.373   3.406   3.313  0.2347 -0.0557 -0.7291
   37CHL1  H15A 2683   1.298   3.324   3.316  1.1669 -1.0248 -2.3139
   37CHL1  H15B 2684   1.447   3.380   3.234 -0.0964 -1.5876 -0.5676
   37CHL1   C16 2685   1.427   3.438   3.454  0.1974 -0.4925 -0.5019
   37CHL1  H16A 2686   1.370   3.376   3.526 -0.6007  0.0444 -0.6558
   37CHL1  H16B 2687   1.536   3.424   3.470 -0.0744 -0.2144  1.8412
   37CHL1   C17 2688   1.370   3.582   3.491 -0.1125 -0.1942  0.9706
   37CHL1   H17 2689   1.448   3.653   3.455  1.7583 -3.1898 -1.4089
   37CHL1   C13 2690   1.247   3.601   3.394  0.6204  0.2022  0.1634
   37CHL1   C18 2691   1.121   3.518   3.446 -1.6833 -0.2172 -0.3251
   37CHL1  H18A 2692   1.081   3.583   3.526 -0.9819  0.4272 -0.4905
   37CHL1  H18B 2693   1.039   3.521   3.371 -1.5446  2.1765 -0.4543
   37CHL1  H18C 2694   1.147   3.415   3.479  2.2382  1.2742  2.0406
   37CHL1   C12 2695   1.227   3.748   3.349 -0.9426 -0.2306 -0.7436
   37CHL1  H12A 2696   1.180   3.799   3.436 -0.6962  0.1395 -0.8268
   37CHL1  H12B 2697   1.332   3.782   3.341 -0.2969 -1.8841  0.2205
   37CHL1   C11 2698   1.124   3.753   3.233  0.5583  0.1731 -0.3590
   37CHL1  H11A 2699   1.024   3.720   3.267  0.3743 -0.9070 -1.8236
   37CHL1  H11B 2700   1.107   3.862   3.217  0.0256  0.4059  1.6057
   37CHL1    C9 2701   1.155   3.658   3.109  0.0259 -0.0064  0.3714
   37CHL1    H9 2702   1.224   3.723   3.051 -1.5423  2.2732  0.9073
   37CHL1   C10 2703   1.027   3.632   3.014  0.2074  0.9864 -0.2332
   37CHL1   C19 2704   0.900   3.568   3.090 -0.1397 -0.3531 -0.1443
   37CHL1  H19A 2705   0.921   3.481   3.156 -1.4283 -0.4213  0.2082
   37CHL1  H19B 2706   0.854   3.647   3.154  1.9932  1.5002 -0.7594
   37CHL1  H19C 2707   0.825   3.526   3.021  1.5526 -1.7316 -1.2047
   37CHL1    C1 2708   0.990   3.764   2.943  0.1355 -0.1708  0.2867
   37CHL1   H1A 2709   0.958   3.848   3.008  1.1243  0.8226 -0.4800
   37CHL1   H1B 2710   1.083   3.796   2.891  1.6839 -0.5537  2.6820
   37CHL1    C2 2711   0.874   3.756   2.844 -0.5449 -0.6503 -0.3028
   37CHL1   H2A 2712   0.870   3.853   2.788  2.3361 -1.7688 -2.7155
   37CHL1   H2B 2713   0.782   3.725   2.897  0.6126  0.1247  2.3646
   37CHL1   C20 2714   1.343   3.604   3.637  0.1662  0.0602 -0.6756
   37CHL1   H20 2715   1.260   3.533   3.660  0.9032 -1.7343 -3.1925
   37CHL1   C21 2716   1.286   3.747   3.662 -0.3618 -0.4374  0.3894
   37CHL1  H21A 2717   1.342   3.820   3.600  2.5550 -2.1438  0.8154
   37CHL1  H21B 2718   1.287   3.782   3.767  0.6308  1.1474 -0.1032
   37CHL1  H21C 2719   1.178   3.753   3.637 -0.4723  1.6607  1.1942
   37CHL1   C22 2720   1.461   3.566   3.732 -0.1937  0.2431  0.1904
   37CHL1  H22A 2721   1.426   3.555   3.837 -0.6621 -2.7618 -0.1787
   37CHL1  H22B 2722   1.504   3.467   3.707  0.2734  0.6039 -0.4595
   37CHL1   C23 2723   1.581   3.671   3.722  0.4686  0.3314 -0.0110
   37CHL1  H23A 2724   1.626   3.670   3.620  0.3915 -0.2914 -0.0436
   37CHL1  H23B 2725   1.546   3.772   3.751 -2.9624 -0.8859  0.5068
   37CHL1   C24 2726   1.702   3.638   3.811  0.7248 -0.3554  0.1234
   37CHL1  H24A 2727   1.737   3.541   3.769 -2.1710 -1.6698  0.4551
   37CHL1  H24B 2728   1.779   3.717   3.805  2.2012 -1.8497 -2.4554
   37CHL1   C25 2729   1.665   3.620   3.961  0.3459  0.1582 -0.8373
   37CHL1   H25 2730   1.595   3.535   3.973 -2.0621  2.0826 -0.3247
   37CHL1   C26 2731   1.784   3.595   4.048  0.3790  0.2797 -0.0471
   37CHL1  H26A 2732   1.840   3.690   4.055  2.8322 -0.9015 -2.1352
   37CHL1  H26B 2733   1.764   3.555   4.150  0.9245 -1.5307 -0.6029
   37CHL1  H26C 2734   1.863   3.529   4.006  1.0785  2.0144 -1.5898
   37CHL1   C27 2735   1.589   3.740   4.014 -0.8637  0.3856 -0.2213
   37CHL1  H27A 2736   1.490   3.760   3.968 -2.3492  1.4874  3.1983
   37CHL1  H27B 2737   1.567   3.719   4.120 -0.4832 -0.4279 -0.2965
   37CHL1  H27C 2738   1.658   3.827   4.004  2.3554 -1.8692  0.4723
   38CHL1    C3 2739   2.630   3.727   2.937  0.4703  0.2257 -0.6538
   38CHL1    H3 2740   2.529   3.764   2.967  0.2528  0.0321 -1.1450
   38CHL1    O3 2741   2.633   3.746   2.799  0.1773  0.8284  0.3649
   38CHL1   H3' 2742   2.580   3.676   2.759 -0.9769  2.2673 -0.7644
   38CHL1    C4 2743   2.739   3.813   2.990  0.6434 -0.2733  1.1610
   38CHL1   H4A 2744   2.834   3.772   2.949 -0.3516 -4.1557  2.2747
   38CHL1   H4B 2745   2.726   3.918   2.955 -0.0533 -0.6334  0.3160
   38CHL1    C5 2746   2.746   3.799   3.140  0.0481  0.5554 -0.0356
   38CHL1    C6 2747   2.741   3.901   3.230  0.3601 -0.0053  0.4764
   38CHL1    H6 2748   2.741   4.007   3.202 -0.7637  0.0454  0.6107
   38CHL1    C7 2749   2.748   3.880   3.382 -1.0141 -0.7884 -0.1343
   38CHL1   H7A 2750   2.804   3.966   3.424 -0.9010 -0.5285 -0.8018
   38CHL1   H7B 2751   2.649   3.885   3.432 -0.6674  1.9797  0.4118
   38CHL1    C8 2752   2.814   3.746   3.419 -0.8823 -0.2554  0.0178
   38CHL1    H8 2753   2.923   3.750   3.397 -0.3418 -2.2319  1.9462
   38CHL1   C14 2754   2.787   3.722   3.571 -0.2176  1.4610 -0.0607
   38CHL1   H14 2755   2.677   3.713   3.578 -0.1799  0.5485 -0.5107
   38CHL1   C15 2756   2.827   3.836   3.665 -0.5455  0.4981 -0.0370
   38CHL1  H15A 2757   2.923   3.872   3.624 -0.1853 -1.7594 -1.3231
   38CHL1  H15B 2758   2.753   3.919   3.659 -0.0535  1.0321  1.0263
   38CHL1   C16 2759   2.834   3.769   3.803 -0.3326 -0.1753 -0.0789
   38CHL1  H16A 2760   2.935   3.792   3.845 -2.3152  0.5635  4.9561
   38CHL1  H16B 2761   2.757   3.803   3.876 -0.7259  0.0552 -0.5963
   38CHL1   C17 2762   2.806   3.618   3.776 -0.7872 -0.3895  0.4778
   38CHL1   H17 2763   2.695   3.606   3.774 -1.0508  1.6228  0.5047
   38CHL1   C13 2764   2.847   3.586   3.627 -0.4944  0.6797 -0.3761
   38CHL1   C18 2765   2.998   3.572   3.612 -0.8429  0.5091  0.3165
   38CHL1  H18A 2766   3.041   3.470   3.614  2.1611  1.5747 -2.1225
   38CHL1  H18B 2767   3.034   3.603   3.511  0.0490  1.0732  0.7893
   38CHL1  H18C 2768   3.058   3.638   3.679  0.8876 -1.2696  0.6040
   38CHL1   C12 2769   2.780   3.476   3.540  0.3572 -0.1547 -0.4092
   38CHL1  H12A 2770   2.810   3.372   3.566 -2.4743 -0.8703  0.2779
   38CHL1  H12B 2771   2.673   3.474   3.568  0.8753 -1.9757  1.6816
   38CHL1   C11 2772   2.803   3.492   3.393  0.2267 -0.5698  0.6660
   38CHL1  H11A 2773   2.912   3.476   3.382  0.2982  0.0428  0.4380
   38CHL1  H11B 2774   2.746   3.408   3.349 -1.4889  0.6322  0.4992
   38CHL1    C9 2775   2.750   3.632   3.340 -0.3518 -0.1032 -0.3425
   38CHL1    H9 2776   2.645   3.632   3.374  0.1382  2.0793  1.4174
   38CHL1   C10 2777   2.763   3.654   3.192 -0.0878  0.1473 -0.1278
   38CHL1   C19 2778   2.905   3.603   3.150 -0.2704  0.4453 -0.2833
   38CHL1  H19A 2779   2.929   3.495   3.161  0.5089  0.1538 -3.7601
   38CHL1  H19B 2780   2.926   3.613   3.041  2.7239  1.1260  0.2838
   38CHL1  H19C 2781   2.989   3.653   3.203 -0.2438  1.0174 -0.8570
   38CHL1    C1 2782   2.656   3.568   3.128 -0.1438 -0.3998  0.0589
   38CHL1   H1A 2783   2.681   3.465   3.162  0.4898 -0.7054 -1.2846
   38CHL1   H1B 2784   2.558   3.594   3.174 -1.4573  0.1135 -2.7798
   38CHL1    C2 2785   2.644   3.578   2.976  0.4224 -0.0765 -0.6888
   38CHL1   H2A 2786   2.560   3.511   2.947  0.1264 -0.6213  1.3350
   38CHL1   H2B 2787   2.736   3.533   2.933  0.0742 -1.2030 -0.3034
   38CHL1   C20 2788   2.860   3.534   3.888 -0.3549 -0.1570  0.6405
   38CHL1   H20 2789   2.970   3.539   3.878 -0.3693 -2.3708 -1.7639
   38CHL1   C21 2790   2.804   3.391   3.876 -0.1464 -0.5059 -0.7607
   38CHL1  H21A 2791   2.824   3.339   3.779  1.6026  0.3126 -0.8773
   38CHL1  H21B 2792   2.693   3.392   3.881 -0.2374 -2.3762 -1.5664
   38CHL1  H21C 2793   2.848   3.323   3.952 -1.2891  1.8076  2.1394
   38CHL1   C22 2794   2.828   3.583   4.035 -0.0916  0.1223 -0.4765
   38CHL1  H22A 2795   2.874   3.684   4.038 -0.8176  0.4805 -1.1612
   38CHL1  H22B 2796   2.719   3.595   4.057  0.2864  0.1622  1.6459
   38CHL1   C23 2797   2.891   3.509   4.159 -0.5051  0.5608 -0.2933
   38CHL1  H23A 2798   2.823   3.424   4.177 -1.6210  1.5789  0.4570
   38CHL1  H23B 2799   2.999   3.491   4.136  0.2274  1.0936  2.3764
   38CHL1   C24 2800   2.894   3.592   4.292 -0.3202 -0.0672 -0.8460
   38CHL1  H24A 2801   2.793   3.638   4.295 -0.1667  0.2433 -0.2798
   38CHL1  H24B 2802   2.907   3.527   4.381 -1.1361 -2.3755 -2.3128
   38CHL1   C25 2803   3.000   3.698   4.282 -0.3618 -0.1981 -0.1354
   38CHL1   H25 2804   3.017   3.712   4.173  2.4415  2.4390  0.4851
   38CHL1   C26 2805   2.961   3.830   4.353  0.2331  0.3887 -0.3502
   38CHL1  H26A 2806   3.033   3.913   4.340 -0.6256  0.8760 -2.4091
   38CHL1  H26B 2807   2.861   3.864   4.319 -0.1043  0.6041  0.8246
   38CHL1  H26C 2808   2.949   3.822   4.463  0.3051  0.5112 -0.3335
   38CHL1   C27 2809   3.127   3.640   4.341 -0.3837 -0.5135 -0.1660
   38CHL1  H27A 2810   3.219   3.701   4.331 -0.8265  0.2952  0.5206
   38CHL1  H27B 2811   3.097   3.620   4.447  2.1781 -1.4672  0.4608
   38CHL1  H27C 2812   3.141   3.540   4.294 -1.4304 -1.4431  1.3541
   39CHL1    C3 2813   6.754   2.556   2.733  0.0743 -0.1337 -0.3571
   39CHL1    H3 2814   6.753   2.656   2.781  0.2176 -0.7101  0.8889
   39CHL1    O3 2815   6.736   2.567   2.595 -0.0669 -0.4518  0.6984
   39CHL1   H3' 2816   6.760   2.480   2.562  1.1312 -0.4285  1.4360
   39CHL1    C4 2817   6.888   2.489   2.766  0.3269 -0.0397  0.3514
   39CHL1   H4A 2818   6.884   2.393   2.709 -3.0624  1.0435 -1.5193
   39CHL1   H4B 2819   6.973   2.543   2.719  1.6915 -0.8336  1.7990
   39CHL1    C5 2820   6.905   2.473   2.915 -0.4407  0.7389 -0.3371
   39CHL1    C6 2821   7.012   2.533   2.977 -0.3293 -0.4199 -0.0507
   39CHL1    H6 2822   7.093   2.575   2.915  0.3965 -2.1326 -0.3084
   39CHL1    C7 2823   7.036   2.540   3.125 -0.2752 -0.0593  0.0267
   39CHL1   H7A 2824   7.143   2.529   3.154  0.0665  3.0826  0.3211
   39CHL1   H7B 2825   7.014   2.642   3.163 -0.8085  0.0738 -0.6229
   39CHL1    C8 2826   6.950   2.436   3.197 -0.1413 -0.7926 -0.4520
   39CHL1    H8 2827   6.993   2.334   3.199 -1.6121 -1.4607 -1.3701
   39CHL1   C14 2828   6.949   2.478   3.347 -0.0501 -0.0327 -0.1054
   39CHL1   H14 2829   6.904   2.579   3.355  0.2639  0.1094 -0.1477
   39CHL1   C15 2830   7.084   2.493   3.425 -0.1096 -0.3218  0.7490
   39CHL1  H15A 2831   7.147   2.407   3.393 -1.0435  0.2343 -3.0709
   39CHL1  H15B 2832   7.142   2.584   3.397  0.9302 -2.1419 -3.8835
   39CHL1   C16 2833   7.052   2.484   3.571  0.0932 -0.3168 -0.2073
   39CHL1  H16A 2834   7.115   2.404   3.615  1.2130  0.0318 -1.1237
   39CHL1  H16B 2835   7.071   2.581   3.620  0.4676  0.1047 -1.1531
   39CHL1   C17 2836   6.899   2.447   3.577 -0.8289 -0.4029 -0.1422
   39CHL1   H17 2837   6.843   2.543   3.580 -0.7119 -0.3654  1.2136
   39CHL1   C13 2838   6.867   2.382   3.436  0.0552 -0.6981 -0.7432
   39CHL1   C18 2839   6.918   2.234   3.436  0.2221  0.3234 -0.0622
   39CHL1  H18A 2840   7.027   2.240   3.455 -0.0572  4.0183  1.3408
   39CHL1  H18B 2841   6.861   2.177   3.512 -1.9593  0.0098 -1.8242
   39CHL1  H18C 2842   6.898   2.174   3.345 -0.1887 -3.6018  2.4091
   39CHL1   C12 2843   6.722   2.389   3.385 -0.4237  0.3749  0.6947
   39CHL1  H12A 2844   6.665   2.321   3.451 -1.2696 -1.5747 -1.8437
   39CHL1  H12B 2845   6.678   2.491   3.394 -0.6703  0.4729 -1.1494
   39CHL1   C11 2846   6.718   2.352   3.241  0.1018 -0.0284 -0.0281
   39CHL1  H11A 2847   6.752   2.247   3.230  1.4135  0.4989 -1.2473
   39CHL1  H11B 2848   6.610   2.366   3.217 -0.0553  0.9585  1.1458
   39CHL1    C9 2849   6.808   2.444   3.148 -0.6333  0.6975  0.0082
   39CHL1    H9 2850   6.780   2.550   3.161  0.8429  0.9010  2.0525
   39CHL1   C10 2851   6.795   2.406   2.997 -0.2125 -0.2575 -0.0155
   39CHL1   C19 2852   6.806   2.255   2.983  0.2916 -0.3726  0.4181
   39CHL1  H19A 2853   6.727   2.192   3.031  1.1923 -2.4894 -0.7498
   39CHL1  H19B 2854   6.770   2.235   2.880 -3.2182 -1.4264  1.6896
   39CHL1  H19C 2855   6.906   2.211   3.004  0.5137 -0.6247 -1.0874
   39CHL1    C1 2856   6.661   2.459   2.945 -0.7860 -0.0940  0.6840
   39CHL1   H1A 2857   6.591   2.384   2.987 -0.2939 -0.3789  1.0076
   39CHL1   H1B 2858   6.636   2.560   2.984 -0.4668  0.2271  0.0721
   39CHL1    C2 2859   6.646   2.475   2.796  0.9298  0.0463  0.7115
   39CHL1   H2A 2860   6.542   2.511   2.781  0.4710 -0.0996  3.1861
   39CHL1   H2B 2861   6.646   2.375   2.748 -0.6323 -0.5764  1.8982
   39CHL1   C20 2862   6.862   2.375   3.708  0.1181  0.0866 -0.4887
   39CHL1   H20 2863   6.909   2.274   3.707 -1.7887 -0.8655  0.0220
   39CHL1   C21 2864   6.711   2.335   3.722  0.2240 -0.3190 -0.2398
   39CHL1  H21A 2865   6.691   2.250   3.654  0.6694 -1.1694  0.6674
   39CHL1  H21B 2866   6.658   2.429   3.693 -0.0628  0.5681  2.7289
   39CHL1  H21C 2867   6.690   2.308   3.828  1.7825 -1.3110 -0.1682
   39CHL1   C22 2868   6.904   2.458   3.830 -0.2446  0.1173  0.0329
   39CHL1  H22A 2869   7.014   2.471   3.828 -0.3471  1.2372  0.8538
   39CHL1  H22B 2870   6.869   2.563   3.832  0.2059  0.2718  2.0179
   39CHL1   C23 2871   6.885   2.389   3.967 -0.0247 -0.5435  0.6329
   39CHL1  H23A 2872   6.775   2.389   3.983 -0.0513 -0.4224  0.4558
   39CHL1  H23B 2873   6.909   2.281   3.980 -0.5830 -1.1363 -2.4747
   39CHL1   C24 2874   6.952   2.469   4.083  0.2959  0.5033  0.1495
   39CHL1  H24A 2875   7.060   2.444   4.073 -0.0382 -1.5288  1.1177
   39CHL1  H24B 2876   6.922   2.575   4.071 -0.1390  0.2442 -1.2599
   39CHL1   C25 2877   6.917   2.418   4.222 -0.2351 -0.3123  0.1670
   39CHL1   H25 2878   6.942   2.310   4.228  3.3796  0.2087 -2.3212
   39CHL1   C26 2879   7.006   2.498   4.324 -0.2270 -0.5268 -0.9792
   39CHL1  H26A 2880   6.982   2.456   4.425  0.9831 -1.4376 -1.0548
   39CHL1  H26B 2881   7.114   2.477   4.314  0.1679 -0.3651  1.9878
   39CHL1  H26C 2882   6.983   2.606   4.315  1.5944  0.0807  0.8421
   39CHL1   C27 2883   6.764   2.427   4.262  0.3424  0.5076  0.0380
   39CHL1  H27A 2884   6.715   2.351   4.197  0.2922  1.2751 -0.8477
   39CHL1  H27B 2885   6.753   2.406   4.371 -0.5313  0.7840  0.0137
   39CHL1  H27C 2886   6.716   2.525   4.243 -1.4312 -0.0918  1.1574
   40CHL1    C3 2887   0.403   0.577   2.871  0.0440  0.3648  0.3530
   40CHL1    H3 2888   0.477   0.660   2.875  0.2473  0.3634 -1.8824
   40CHL1    O3 2889   0.392   0.531   2.738 -0.0826 -0.1636  0.1525
   40CHL1   H3' 2890   0.403   0.436   2.745  0.8063 -0.0543  0.3950
   40CHL1    C4 2891   0.431   0.458   2.960 -0.2802  0.0387 -0.7796
   40CHL1   H4A 2892   0.339   0.397   2.949 -0.1085 -0.0834 -1.5748
   40CHL1   H4B 2893   0.515   0.397   2.920  0.6615  0.6267  0.2512
   40CHL1    C5 2894   0.454   0.496   3.107  0.2152 -0.0537 -1.4769
   40CHL1    C6 2895   0.565   0.479   3.184  0.4005  0.1307  0.4888
   40CHL1    H6 2896   0.656   0.429   3.146 -0.3798  0.8186 -2.6389
   40CHL1    C7 2897   0.578   0.503   3.327  0.0482  0.8087 -0.2509
   40CHL1   H7A 2898   0.603   0.409   3.382  0.4812 -0.0152 -1.8072
   40CHL1   H7B 2899   0.659   0.576   3.346  1.9247 -1.3019  0.3418
   40CHL1    C8 2900   0.443   0.544   3.390 -0.4019 -0.0136 -0.0651
   40CHL1    H8 2901   0.396   0.447   3.418 -1.0153 -0.7355 -3.2212
   40CHL1   C14 2902   0.476   0.608   3.519  1.0742 -1.3337  0.2001
   40CHL1   H14 2903   0.527   0.703   3.495 -1.0409  0.1979  1.4038
   40CHL1   C15 2904   0.563   0.524   3.619 -0.4291  0.0209  0.0830
   40CHL1  H15A 2905   0.536   0.416   3.625  0.7704 -0.2412  1.2978
   40CHL1  H15B 2906   0.672   0.531   3.599 -0.3052  1.6979  1.1115
   40CHL1   C16 2907   0.526   0.593   3.749 -0.1391  0.2597  0.0591
   40CHL1  H16A 2908   0.498   0.527   3.834  0.9974  1.8888  1.7848
   40CHL1  H16B 2909   0.620   0.645   3.777  0.6302  0.1707 -2.1405
   40CHL1   C17 2910   0.412   0.695   3.727  0.5333 -0.0131 -0.3200
   40CHL1   H17 2911   0.460   0.794   3.714 -1.4417  1.0533  0.2200
   40CHL1   C13 2912   0.349   0.658   3.598  0.2440  0.0234  0.5567
   40CHL1   C18 2913   0.243   0.547   3.623 -0.3161 -0.4612  0.3954
   40CHL1  H18A 2914   0.289   0.471   3.690 -0.0736 -0.5607  0.1141
   40CHL1  H18B 2915   0.153   0.571   3.684 -0.5000 -0.2365  0.0402
   40CHL1  H18C 2916   0.213   0.495   3.530  1.0313  0.6271 -0.6892
   40CHL1   C12 2917   0.281   0.763   3.506  0.3876  0.0222  0.2002
   40CHL1  H12A 2918   0.186   0.792   3.556  0.5544 -0.4410  0.8055
   40CHL1  H12B 2919   0.343   0.853   3.487  0.6535 -0.0362  0.7546
   40CHL1   C11 2920   0.238   0.699   3.368 -0.2767 -0.8281 -0.2529
   40CHL1  H11A 2921   0.153   0.629   3.371 -1.4872  0.6085  0.1793
   40CHL1  H11B 2922   0.198   0.787   3.313 -0.7821 -1.2053 -0.4904
   40CHL1    C9 2923   0.363   0.636   3.298  0.9738 -0.3373 -0.0516
   40CHL1    H9 2924   0.430   0.722   3.277 -0.7072  0.8179 -0.9184
   40CHL1   C10 2925   0.330   0.572   3.166  0.2374 -0.4105 -0.1317
   40CHL1   C19 2926   0.228   0.466   3.178  0.6051 -0.0483 -0.0240
   40CHL1  H19A 2927   0.208   0.406   3.086  0.1687  1.2245 -0.7823
   40CHL1  H19B 2928   0.251   0.396   3.261 -1.3928 -1.6414 -0.7315
   40CHL1  H19C 2929   0.123   0.502   3.185 -0.4934 -2.6659 -1.4268
   40CHL1    C1 2930   0.285   0.683   3.066 -0.0614 -0.0799  0.6230
   40CHL1   H1A 2931   0.184   0.717   3.098  0.4953  1.5813  0.7227
   40CHL1   H1B 2932   0.355   0.769   3.061 -1.0853  0.7091 -0.7941
   40CHL1    C2 2933   0.268   0.642   2.920  0.7128 -0.0679  1.0698
   40CHL1   H2A 2934   0.239   0.719   2.846  1.1810 -1.8602 -1.0917
   40CHL1   H2B 2935   0.184   0.569   2.922 -1.0074  1.8210  2.0430
   40CHL1   C20 2936   0.330   0.712   3.859 -0.0005  0.8037 -0.2005
   40CHL1   H20 2937   0.275   0.616   3.870  1.2320  0.2377  1.3026
   40CHL1   C21 2938   0.221   0.815   3.838  0.3402  0.0328 -0.0159
   40CHL1  H21A 2939   0.151   0.835   3.922 -1.1583 -1.1249 -0.9407
   40CHL1  H21B 2940   0.159   0.778   3.753  1.4835  0.5197 -1.0854
   40CHL1  H21C 2941   0.273   0.907   3.805  2.5859 -1.7832 -1.9374
   40CHL1   C22 2942   0.405   0.742   3.985 -0.5893  0.0792 -0.8830
   40CHL1  H22A 2943   0.327   0.762   4.062 -0.4614  0.3504 -0.8213
   40CHL1  H22B 2944   0.464   0.651   4.008 -1.5062 -0.5737 -1.0691
   40CHL1   C23 2945   0.488   0.872   3.996  0.3321  0.3192 -0.1457
   40CHL1  H23A 2946   0.564   0.874   3.915 -1.5034  1.6396 -1.9388
   40CHL1  H23B 2947   0.418   0.955   3.973  0.3979  0.7216  1.0471
   40CHL1   C24 2948   0.542   0.903   4.136  0.2812  0.0053 -0.1463
   40CHL1  H24A 2949   0.463   0.918   4.214 -0.2808  1.7505 -1.0005
   40CHL1  H24B 2950   0.611   0.821   4.166  1.4202 -0.0140 -2.6385
   40CHL1   C25 2951   0.637   1.026   4.132 -0.1815  0.0421  0.4475
   40CHL1   H25 2952   0.681   1.035   4.030 -2.1580 -1.0251 -0.5658
   40CHL1   C26 2953   0.567   1.160   4.161  0.0799 -0.0821 -0.2778
   40CHL1  H26A 2954   0.469   1.170   4.109 -0.9093  1.2279  1.6993
   40CHL1  H26B 2955   0.558   1.174   4.271  0.0057 -3.2947  0.2343
   40CHL1  H26C 2956   0.630   1.244   4.124 -2.0808  0.5964 -2.7187
   40CHL1   C27 2957   0.759   1.004   4.233  0.8599  0.4562 -0.1443
   40CHL1  H27A 2958   0.719   0.972   4.332 -0.1541  0.3502 -0.5814
   40CHL1  H27B 2959   0.830   0.926   4.199 -0.3257 -0.6447 -0.1846
   40CHL1  H27C 2960   0.814   1.100   4.239  0.8965  0.5437 -1.6158
   41CHL1    C3 2961   4.610   3.495   2.812 -0.2779 -0.4402  0.4493
   41CHL1    H3 2962   4.720   3.498   2.800 -0.2259 -2.1293  0.2079
   41CHL1    O3 2963   4.545   3.530   2.692  1.0419  0.2647 -0.4955
   41CHL1   H3' 2964   4.579   3.470   2.626  0.8124 -0.0544 -0.3231
   41CHL1    C4 2965   4.587   3.351   2.833 -0.2879  0.0623 -0.2944
   41CHL1   H4A 2966   4.477   3.341   2.822 -0.2981 -0.8589  0.4756
   41CHL1   H4B 2967   4.612   3.295   2.741 -2.3359  1.2367 -1.6535
   41CHL1    C5 2968   4.645   3.301   2.965  0.1886 -0.0420 -0.7288
   41CHL1    C6 2969   4.721   3.199   2.962 -0.5770  0.5415 -0.8500
   41CHL1    H6 2970   4.722   3.146   2.866 -2.8158  1.3923 -1.4113
   41CHL1    C7 2971   4.760   3.135   3.088  1.1215 -0.1564 -0.2334
   41CHL1   H7A 2972   4.748   3.026   3.075  1.6455 -0.5773  2.2170
   41CHL1   H7B 2973   4.870   3.141   3.098  1.0240 -0.3066  1.2330
   41CHL1    C8 2974   4.691   3.192   3.218 -0.2726  1.1707  0.3177
   41CHL1    H8 2975   4.590   3.145   3.216  0.3162 -0.1080 -1.2909
   41CHL1   C14 2976   4.785   3.153   3.336  0.6273 -0.6730 -0.3182
   41CHL1   H14 2977   4.880   3.207   3.320  1.4125 -1.0681  2.4514
   41CHL1   C15 2978   4.837   3.007   3.352  0.2270 -0.7499 -0.1837
   41CHL1  H15A 2979   4.774   2.928   3.306 -0.5812 -0.2177 -0.0192
   41CHL1  H15B 2980   4.941   3.000   3.315  0.3165 -0.1697 -0.0487
   41CHL1   C16 2981   4.835   2.984   3.507  0.4302  0.0684  0.2849
   41CHL1  H16A 2982   4.746   2.924   3.536 -0.0771  0.3834 -0.5852
   41CHL1  H16B 2983   4.931   2.938   3.540  0.3169 -0.6767 -0.4159
   41CHL1   C17 2984   4.821   3.124   3.572  0.4417  0.5295  0.3235
   41CHL1   H17 2985   4.923   3.165   3.555  0.0430  1.3780 -0.0903
   41CHL1   C13 2986   4.723   3.190   3.472  0.1651 -0.0601 -0.5813
   41CHL1   C18 2987   4.585   3.135   3.476  0.3006 -0.1916 -0.1927
   41CHL1  H18A 2988   4.542   3.153   3.577  2.0874  1.6024  0.3175
   41CHL1  H18B 2989   4.505   3.165   3.404 -0.1887 -0.2856  0.3010
   41CHL1  H18C 2990   4.587   3.024   3.469 -1.4756 -0.3864  1.4578
   41CHL1   C12 2991   4.717   3.347   3.474 -0.0352  0.5131 -0.1215
   41CHL1  H12A 2992   4.674   3.387   3.568  1.4351  1.4749  0.1837
   41CHL1  H12B 2993   4.822   3.382   3.469  0.7656 -1.8883 -2.7271
   41CHL1   C11 2994   4.640   3.401   3.347 -0.7369 -0.4731 -0.2423
   41CHL1  H11A 2995   4.530   3.390   3.358 -0.7964 -1.2365 -1.4225
   41CHL1  H11B 2996   4.659   3.510   3.341 -0.3831 -0.5839 -1.2574
   41CHL1    C9 2997   4.688   3.339   3.216  0.0730 -0.4061 -0.3114
   41CHL1    H9 2998   4.794   3.370   3.200  0.1369 -0.3037  0.2983
   41CHL1   C10 2999   4.608   3.386   3.085 -0.9251 -1.0894 -0.2723
   41CHL1   C19 3000   4.451   3.359   3.105  0.3259 -0.2941  0.5211
   41CHL1  H19A 3001   4.435   3.258   3.149 -2.8105  0.2625  0.8361
   41CHL1  H19B 3002   4.411   3.428   3.182 -2.0300 -1.0794  0.0633
   41CHL1  H19C 3003   4.380   3.359   3.021  0.0868  0.9392  0.7107
   41CHL1    C1 3004   4.641   3.537   3.062 -0.3171  0.2973  0.6783
   41CHL1   H1A 3005   4.602   3.603   3.142  0.3117  0.8449  0.5418
   41CHL1   H1B 3006   4.749   3.552   3.041 -0.1254 -1.1361  0.5191
   41CHL1    C2 3007   4.569   3.581   2.932  0.4107 -0.0396 -0.0399
   41CHL1   H2A 3008   4.611   3.680   2.909  3.2432 -1.1264  0.1357
   41CHL1   H2B 3009   4.458   3.585   2.929  0.3909 -0.9416 -1.1177
   41CHL1   C20 3010   4.793   3.122   3.721  0.5612  0.3764 -0.1754
   41CHL1   H20 3011   4.685   3.099   3.733  0.6844 -0.7791 -1.1412
   41CHL1   C21 3012   4.814   3.266   3.777 -0.1632 -0.2847 -0.1081
   41CHL1  H21A 3013   4.733   3.309   3.840  0.1843  0.5108 -0.2055
   41CHL1  H21B 3014   4.849   3.335   3.698  1.1714 -1.1779 -0.3489
   41CHL1  H21C 3015   4.901   3.266   3.846 -0.6136 -0.2314  0.4733
   41CHL1   C22 3016   4.868   3.014   3.797  0.6605 -0.0505 -0.7844
   41CHL1  H22A 3017   4.822   2.915   3.776  0.6354 -0.1391 -0.3191
   41CHL1  H22B 3018   4.979   3.016   3.783  0.5097 -0.4705 -2.1514
   41CHL1   C23 3019   4.839   3.022   3.951  0.0844 -0.2623 -0.1324
   41CHL1  H23A 3020   4.883   3.113   3.997  0.3758 -1.8915  3.0871
   41CHL1  H23B 3021   4.731   3.017   3.975  0.4214 -0.0739  1.6058
   41CHL1   C24 3022   4.901   2.898   4.022  0.3333  0.7121  0.2601
   41CHL1  H24A 3023   4.858   2.804   3.981 -0.7087  1.1091  0.3989
   41CHL1  H24B 3024   5.011   2.889   4.007  0.3738  1.5732 -0.0040
   41CHL1   C25 3025   4.885   2.903   4.183  0.3302 -0.2199  0.0380
   41CHL1   H25 3026   4.928   2.810   4.227 -0.4651  0.3868  2.2497
   41CHL1   C26 3027   4.947   3.033   4.241  0.2492  0.2128  0.5775
   41CHL1  H26A 3028   5.053   3.048   4.214 -0.4701  0.7282 -2.3455
   41CHL1  H26B 3029   4.882   3.121   4.220 -1.0259 -0.4779  1.4415
   41CHL1  H26C 3030   4.935   3.021   4.350 -7.2132  0.2373  0.2990
   41CHL1   C27 3031   4.735   2.888   4.227  0.1162 -0.1515  0.7459
   41CHL1  H27A 3032   4.733   2.894   4.338  1.7499  0.6674  0.7605
   41CHL1  H27B 3033   4.674   2.975   4.194  0.2220 -0.0850  0.7246
   41CHL1  H27C 3034   4.678   2.799   4.193  1.2084 -0.1293 -1.2720
   42CHL1    C3 3035   0.038   4.896   2.854 -0.5288  0.6947 -0.0348
   42CHL1    H3 3036   0.046   4.785   2.862 -0.1591  0.8515  2.8684
   42CHL1    O3 3037   0.026   4.929   2.718 -0.2318  0.3425  0.6569
   42CHL1   H3' 3038   0.018   5.024   2.717 -0.0567  0.3575 -0.5058
   42CHL1    C4 3039  -0.096   4.923   2.925 -0.7225 -0.3958  0.5097
   42CHL1   H4A 3040  -0.111   5.033   2.922  2.7480  0.2142  0.8179
   42CHL1   H4B 3041  -0.183   4.883   2.869  0.6041  0.2345 -2.1781
   42CHL1    C5 3042  -0.096   4.885   3.075  0.4302 -0.1909 -0.4976
   42CHL1    C6 3043  -0.196   4.825   3.130  0.4137  0.1221  0.0706
   42CHL1    H6 3044  -0.283   4.796   3.069  1.3259 -1.1388 -0.6806
   42CHL1    C7 3045  -0.215   4.800   3.278 -0.1392 -0.3326 -0.2369
   42CHL1   H7A 3046  -0.312   4.849   3.303 -0.2218 -0.4587 -0.3112
   42CHL1   H7B 3047  -0.220   4.690   3.288  2.9857 -0.7566 -2.2362
   42CHL1    C8 3048  -0.093   4.860   3.364 -0.0683  0.0009 -1.0907
   42CHL1    H8 3049  -0.121   4.967   3.376  0.1217 -0.0214 -0.4473
   42CHL1   C14 3050  -0.082   4.795   3.501 -0.0211  0.0252  0.4204
   42CHL1   H14 3051  -0.041   4.694   3.483  1.4996  0.6188  0.4730
   42CHL1   C15 3052  -0.219   4.781   3.576  0.0882 -0.4431  0.6391
   42CHL1  H15A 3053  -0.269   4.881   3.576  1.9992  0.5601  0.1211
   42CHL1  H15B 3054  -0.287   4.704   3.533 -2.1554  0.9307  1.5289
   42CHL1   C16 3055  -0.169   4.753   3.717 -0.2286 -0.5330 -0.5883
   42CHL1  H16A 3056  -0.207   4.829   3.788  1.3770  1.3475 -1.6593
   42CHL1  H16B 3057  -0.204   4.651   3.745 -0.4093 -0.9604 -2.2561
   42CHL1   C17 3058  -0.012   4.768   3.718 -0.9469  0.1586  0.4195
   42CHL1   H17 3059   0.026   4.668   3.689  2.3853  1.6366 -0.8039
   42CHL1   C13 3060   0.021   4.857   3.592  0.0505  0.3437 -0.2691
   42CHL1   C18 3061  -0.009   5.002   3.629 -0.1094 -0.1343 -0.8361
   42CHL1  H18A 3062  -0.105   5.014   3.683 -0.2891 -1.1742 -0.9198
   42CHL1  H18B 3063   0.073   5.045   3.691 -1.5131 -1.2004  1.8876
   42CHL1  H18C 3064  -0.016   5.059   3.533 -1.5247 -0.2194 -0.7940
   42CHL1   C12 3065   0.158   4.843   3.529 -0.0192 -0.2311 -0.1333
   42CHL1  H12A 3066   0.230   4.890   3.599 -0.4452 -0.3822  0.4167
   42CHL1  H12B 3067   0.182   4.734   3.526 -4.4153 -1.4712  0.9835
   42CHL1   C11 3068   0.162   4.899   3.382 -0.1938 -0.1390  0.0074
   42CHL1  H11A 3069   0.177   5.009   3.386 -0.6124 -0.1190  1.6582
   42CHL1  H11B 3070   0.260   4.874   3.336 -0.4489  1.5617 -1.5920
   42CHL1    C9 3071   0.041   4.854   3.292 -0.3870 -0.4211 -0.3345
   42CHL1    H9 3072   0.060   4.747   3.269  1.7888 -1.2695  4.2751
   42CHL1   C10 3073   0.028   4.930   3.152 -0.8093  0.9003  0.6170
   42CHL1   C19 3074   0.025   5.081   3.169  0.1977 -0.8153  0.0022
   42CHL1  H19A 3075  -0.026   5.124   3.080 -0.6056 -1.1599  0.2881
   42CHL1  H19B 3076  -0.021   5.102   3.267  1.4122 -1.0686  0.6471
   42CHL1  H19C 3077   0.126   5.126   3.165 -0.8837  1.7251 -0.6952
   42CHL1    C1 3078   0.161   4.903   3.067 -0.0978  0.1081 -0.1028
   42CHL1   H1A 3079   0.247   4.942   3.126 -1.0256  2.5972 -0.2534
   42CHL1   H1B 3080   0.161   4.794   3.049 -0.0978  0.1818 -0.5508
   42CHL1    C2 3081   0.153   4.965   2.923 -0.1526  0.4795 -0.0728
   42CHL1   H2A 3082   0.247   4.940   2.869 -1.3587 -1.0890 -1.5543
   42CHL1   H2B 3083   0.132   5.074   2.927 -1.5285  0.2089  0.5234
   42CHL1   C20 3084   0.049   4.811   3.854 -0.7353  0.1605 -0.8140
   42CHL1   H20 3085   0.038   4.919   3.879 -1.2630 -0.4196  1.7488
   42CHL1   C21 3086   0.207   4.781   3.865  0.3091 -0.8934  0.1102
   42CHL1  H21A 3087   0.261   4.860   3.809  0.9138 -0.5946  1.0938
   42CHL1  H21B 3088   0.231   4.680   3.827  2.4185 -0.6565  0.6907
   42CHL1  H21C 3089   0.235   4.788   3.973 -2.6110  1.8279  0.8444
   42CHL1   C22 3090  -0.027   4.737   3.968 -0.1084 -0.6954  0.6856
   42CHL1  H22A 3091  -0.138   4.737   3.962 -0.1052 -1.8763  0.1774
   42CHL1  H22B 3092   0.006   4.630   3.965  1.6840 -0.1836  0.9034
   42CHL1   C23 3093  -0.001   4.791   4.109  0.2194 -0.0072 -0.5134
   42CHL1  H23A 3094   0.108   4.787   4.131 -0.0990  0.7788  1.4859
   42CHL1  H23B 3095  -0.021   4.900   4.107  0.9356  0.1459  0.0761
   42CHL1   C24 3096  -0.091   4.720   4.210 -0.0030  0.7402 -0.6454
   42CHL1  H24A 3097  -0.184   4.780   4.215 -0.0713  0.6219 -0.4943
   42CHL1  H24B 3098  -0.118   4.615   4.192 -1.8812  1.2983 -1.2430
   42CHL1   C25 3099  -0.044   4.733   4.354  0.3533 -0.1476 -0.9169
   42CHL1   H25 3100   0.061   4.697   4.356  0.3601 -0.0982  0.1403
   42CHL1   C26 3101  -0.031   4.880   4.396  0.0316  0.0581  0.7831
   42CHL1  H26A 3102  -0.133   4.924   4.405 -0.4041 -0.0552 -2.3249
   42CHL1  H26B 3103   0.015   4.890   4.496 -2.1201  0.1127  1.8253
   42CHL1  H26C 3104   0.030   4.942   4.327  0.2938  0.6571  1.5449
   42CHL1   C27 3105  -0.135   4.653   4.449 -0.2623  0.6946 -0.3033
   42CHL1  H27A 3106  -0.244   4.677   4.450  0.0389  2.1815  1.2427
   42CHL1  H27B 3107  -0.135   4.545   4.423  0.1743  1.0853 -2.0954
   42CHL1  H27C 3108  -0.108   4.667   4.556  0.0241  2.6316 -0.5786
   43CHL1    C3 3109   1.574   6.007   2.712 -0.4101  0.3693  0.3772
   43CHL1    H3 3110   1.574   6.118   2.713 -1.8240  0.3902  0.5511
   43CHL1    O3 3111   1.587   5.949   2.586  0.0374 -0.1108  0.4281
   43CHL1   H3' 3112   1.520   5.991   2.531 -1.3770 -0.3109  1.9376
   43CHL1    C4 3113   1.691   5.963   2.807  0.2239  0.4511 -0.4578
   43CHL1   H4A 3114   1.686   5.852   2.812  0.8819  0.4672  2.4797
   43CHL1   H4B 3115   1.783   5.988   2.749  1.0017 -2.0620 -0.4296
   43CHL1    C5 3116   1.674   6.026   2.943  0.0713  0.5938 -0.3062
   43CHL1    C6 3117   1.774   6.097   2.998  0.2463  0.4362 -0.3285
   43CHL1    H6 3118   1.873   6.099   2.949  0.2855 -1.7001 -0.4689
   43CHL1    C7 3119   1.774   6.145   3.145  0.3518  0.0243 -0.6469
   43CHL1   H7A 3120   1.869   6.115   3.194 -0.0171 -1.9846 -1.0363
   43CHL1   H7B 3121   1.762   6.254   3.131 -2.0508  0.0649  1.0808
   43CHL1    C8 3122   1.654   6.090   3.222 -0.4930 -0.0383 -1.1482
   43CHL1    H8 3123   1.683   5.990   3.260  1.2191  0.5619 -0.7803
   43CHL1   C14 3124   1.626   6.179   3.344  0.0301 -0.0508 -0.5380
   43CHL1   H14 3125   1.575   6.269   3.304  1.1947  0.4381 -0.9733
   43CHL1   C15 3126   1.747   6.235   3.423  0.2828 -0.2996 -0.1571
   43CHL1  H15A 3127   1.807   6.145   3.447 -1.5617 -1.0522  2.0245
   43CHL1  H15B 3128   1.803   6.320   3.377  0.1970  0.6912  1.5070
   43CHL1   C16 3129   1.690   6.291   3.550 -0.0903 -0.3345  0.2108
   43CHL1  H16A 3130   1.739   6.231   3.630 -0.2877  0.2452  0.7802
   43CHL1  H16B 3131   1.694   6.401   3.565 -2.3800  0.0834 -1.6319
   43CHL1   C17 3132   1.533   6.248   3.545 -0.0253  0.0426 -0.0886
   43CHL1   H17 3133   1.481   6.331   3.493  1.1720  1.6829  1.2079
   43CHL1   C13 3134   1.531   6.133   3.446  0.3955  0.5762 -1.0815
   43CHL1   C18 3135   1.570   6.004   3.518  0.0814  0.1082  0.1773
   43CHL1  H18A 3136   1.576   5.917   3.449 -3.4097 -0.4215  0.3592
   43CHL1  H18B 3137   1.663   6.011   3.580 -0.8772  0.4074  1.6348
   43CHL1  H18C 3138   1.498   5.975   3.598  2.0770 -1.5801  1.4719
   43CHL1   C12 3139   1.400   6.117   3.368  0.2653 -0.1863  0.1136
   43CHL1  H12A 3140   1.320   6.082   3.436 -0.8687  2.2959  0.1709
   43CHL1  H12B 3141   1.358   6.215   3.339 -4.3273 -2.4579 -1.8291
   43CHL1   C11 3142   1.413   6.026   3.244  0.7754  0.4479 -0.2252
   43CHL1  H11A 3143   1.424   5.924   3.287 -0.3846  0.3851 -0.0435
   43CHL1  H11B 3144   1.325   6.013   3.177  2.5950 -0.6616 -2.5682
   43CHL1    C9 3145   1.525   6.071   3.144 -0.4397  0.0432 -0.5892
   43CHL1    H9 3146   1.504   6.177   3.118  0.3430 -0.3626 -3.1645
   43CHL1   C10 3147   1.543   5.996   3.014 -0.6238 -0.8960  0.6559
   43CHL1   C19 3148   1.544   5.844   3.047 -0.4766  0.1458  0.1992
   43CHL1  H19A 3149   1.439   5.813   3.068 -0.3389 -0.3079  0.2386
   43CHL1  H19B 3150   1.583   5.787   2.960 -1.0513  1.2255 -0.7899
   43CHL1  H19C 3151   1.603   5.832   3.141 -1.4550 -0.0849  0.7972
   43CHL1    C1 3152   1.425   6.032   2.917 -0.5718  0.1045 -0.0117
   43CHL1   H1A 3153   1.324   6.014   2.959 -1.0795 -0.0902 -1.2513
   43CHL1   H1B 3154   1.425   6.141   2.898 -0.3742  0.2384  0.7301
   43CHL1    C2 3155   1.438   5.970   2.778 -0.3060 -0.0411  0.9144
   43CHL1   H2A 3156   1.371   6.010   2.700  1.8391  0.1945 -0.9232
   43CHL1   H2B 3157   1.423   5.860   2.792 -0.2531 -0.2923 -0.8382
   43CHL1   C20 3158   1.481   6.240   3.685  0.3379  0.0919  0.2808
   43CHL1   H20 3159   1.541   6.161   3.736  0.5169  0.6460  0.9431
   43CHL1   C21 3160   1.335   6.191   3.688 -0.1199  0.7069 -0.0175
   43CHL1  H21A 3161   1.274   6.240   3.609  0.2670 -1.4283 -1.7417
   43CHL1  H21B 3162   1.289   6.208   3.788 -0.0532  0.3491  0.0760
   43CHL1  H21C 3163   1.323   6.082   3.667 -4.3906  1.1374 -0.7896
   43CHL1   C22 3164   1.475   6.378   3.748  0.2352 -1.3224  0.2448
   43CHL1  H22A 3165   1.578   6.417   3.764  0.0339 -0.8880  0.4909
   43CHL1  H22B 3166   1.419   6.447   3.681  1.6840 -1.7006 -1.4309
   43CHL1   C23 3167   1.418   6.392   3.890  0.4563 -0.1040 -0.1589
   43CHL1  H23A 3168   1.439   6.500   3.909 -1.3476  0.2860 -0.1968
   43CHL1  H23B 3169   1.309   6.373   3.887  0.4985 -0.3004 -1.7093
   43CHL1   C24 3170   1.489   6.305   3.999  0.6456  0.1185  0.5505
   43CHL1  H24A 3171   1.489   6.201   3.960  1.0093  0.7834 -1.3169
   43CHL1  H24B 3172   1.594   6.340   4.007  0.4241  0.4343  3.2656
   43CHL1   C25 3173   1.434   6.289   4.142  0.4328 -0.1306  0.1104
   43CHL1   H25 3174   1.519   6.269   4.210  0.1277  1.3672  0.9676
   43CHL1   C26 3175   1.361   6.418   4.194  0.2112  0.3514 -0.2356
   43CHL1  H26A 3176   1.432   6.504   4.198  0.0937  0.4864 -0.8870
   43CHL1  H26B 3177   1.269   6.448   4.139  0.0820 -0.7007 -0.6233
   43CHL1  H26C 3178   1.340   6.391   4.299  1.1835 -3.1258 -0.8164
   43CHL1   C27 3179   1.326   6.174   4.151 -0.2595 -0.1798  0.0890
   43CHL1  H27A 3180   1.284   6.161   4.253  0.9148 -0.2789  0.5744
   43CHL1  H27B 3181   1.239   6.197   4.085  0.1389 -2.2670 -1.2550
   43CHL1  H27C 3182   1.370   6.077   4.121 -1.7154  0.1197 -3.5072
   44CHL1    C3 3183   5.947   3.997   3.113  0.4351 -0.9705 -0.2328
   44CHL1    H3 3184   6.045   3.946   3.128  1.3038  0.2906 -1.2748
   44CHL1    O3 3185   5.920   3.981   2.975 -0.5365 -0.0400  0.1738
   44CHL1   H3' 3186   5.964   4.053   2.928  0.0381 -0.7769 -0.4283
   44CHL1    C4 3187   5.842   3.923   3.196  0.6056  0.1697  0.5594
   44CHL1   H4A 3188   5.746   3.978   3.193 -1.4074 -3.1203  0.5553
   44CHL1   H4B 3189   5.817   3.822   3.159  1.0622  0.1100  0.4106
   44CHL1    C5 3190   5.873   3.922   3.338 -0.3825  0.3791 -0.8054
   44CHL1    C6 3191   5.896   3.808   3.403 -0.5740 -0.1698  0.5885
   44CHL1    H6 3192   5.894   3.715   3.346 -0.3807  1.1306 -1.6721
   44CHL1    C7 3193   5.916   3.807   3.554 -0.7073  0.2043  0.1725
   44CHL1   H7A 3194   5.851   3.729   3.599 -0.8105  0.5366  0.6094
   44CHL1   H7B 3195   6.018   3.772   3.580 -1.1403 -0.4132  1.1098
   44CHL1    C8 3196   5.897   3.953   3.623  0.0156  0.1062 -0.6274
   44CHL1    H8 3197   5.787   3.955   3.630 -0.0524  1.1979 -1.6145
   44CHL1   C14 3198   5.963   3.944   3.761  0.6237 -0.4714  0.0822
   44CHL1   H14 3199   6.069   3.913   3.751  1.5243  1.8600  1.5039
   44CHL1   C15 3200   5.905   3.836   3.863 -0.4334  0.5536  0.4414
   44CHL1  H15A 3201   5.797   3.849   3.882 -0.3564  3.7184 -0.6912
   44CHL1  H15B 3202   5.938   3.732   3.842  0.4376  0.8573  0.2322
   44CHL1   C16 3203   5.961   3.888   3.992  0.5491  0.3488  0.0324
   44CHL1  H16A 3204   5.886   3.902   4.073 -0.3278 -1.2621 -0.4677
   44CHL1  H16B 3205   6.046   3.828   4.031  2.3431  0.8517 -2.8046
   44CHL1   C17 3206   6.030   4.027   3.964 -0.0309 -0.0464 -0.3108
   44CHL1   H17 3207   6.135   4.009   3.935  0.3982  0.1508  1.0689
   44CHL1   C13 3208   5.971   4.078   3.833 -0.2781  0.1682  0.5114
   44CHL1   C18 3209   5.826   4.132   3.855 -0.2162  0.9904  0.0575
   44CHL1  H18A 3210   5.827   4.236   3.895  2.7069  0.8420  0.5880
   44CHL1  H18B 3211   5.774   4.137   3.757 -0.7371  0.4716  0.3089
   44CHL1  H18C 3212   5.769   4.063   3.920  0.1505  0.2786 -0.3662
   44CHL1   C12 3213   6.065   4.158   3.747  0.1456 -0.4625  0.5156
   44CHL1  H12A 3214   6.084   4.257   3.794 -2.0449 -0.4685  1.5288
   44CHL1  H12B 3215   6.158   4.105   3.717 -0.1809 -0.2585 -0.9504
   44CHL1   C11 3216   6.005   4.185   3.609  0.2789 -0.2496  0.4097
   44CHL1  H11A 3217   5.916   4.251   3.621  0.2526 -0.5043  1.8502
   44CHL1  H11B 3218   6.065   4.244   3.537 -0.8178  0.5375  0.1193
   44CHL1    C9 3219   5.968   4.054   3.537 -0.6554  0.6573 -1.0407
   44CHL1    H9 3220   6.070   4.012   3.521 -0.7150 -0.6961  1.5367
   44CHL1   C10 3221   5.894   4.064   3.398 -0.4788 -0.4968 -0.3249
   44CHL1   C19 3222   5.758   4.134   3.424  0.3582  0.1168  0.6272
   44CHL1  H19A 3223   5.701   4.070   3.495  2.0331  1.0577  2.9352
   44CHL1  H19B 3224   5.782   4.231   3.473  0.0225  0.5182  0.0134
   44CHL1  H19C 3225   5.698   4.150   3.332  0.4164  0.1250  0.5908
   44CHL1    C1 3226   5.993   4.155   3.307 -0.1759 -0.3491  0.1984
   44CHL1   H1A 3227   5.999   4.261   3.340 -1.2356  0.1063 -1.0066
   44CHL1   H1B 3228   6.097   4.117   3.319 -0.1763 -0.3759  0.1184
   44CHL1    C2 3229   5.959   4.144   3.159 -0.3772 -0.1214 -0.0545
   44CHL1   H2A 3230   6.036   4.194   3.097  0.5730 -2.2353 -0.6696
   44CHL1   H2B 3231   5.864   4.200   3.153 -0.3424 -0.1613 -1.2042
   44CHL1   C20 3232   6.025   4.106   4.091  0.7307 -0.4968 -0.7618
   44CHL1   H20 3233   5.929   4.098   4.147  0.2089  0.2634 -1.5290
   44CHL1   C21 3234   6.064   4.251   4.068  0.3493  0.1051 -0.3918
   44CHL1  H21A 3235   6.169   4.267   4.036 -0.6667  0.8970 -3.7769
   44CHL1  H21B 3236   6.044   4.302   4.165  0.2533  0.8335 -0.7860
   44CHL1  H21C 3237   5.996   4.286   3.987  0.9815  2.9607  0.2046
   44CHL1   C22 3238   6.117   4.044   4.205  0.7262 -0.0127  0.7903
   44CHL1  H22A 3239   6.111   3.933   4.213  3.0539 -0.3777 -1.5053
   44CHL1  H22B 3240   6.223   4.067   4.183  0.4581  3.3093  2.3468
   44CHL1   C23 3241   6.096   4.112   4.338  0.3053  0.5106 -0.2135
   44CHL1  H23A 3242   6.107   4.223   4.335  1.3579  0.3929 -1.6485
   44CHL1  H23B 3243   5.989   4.091   4.363 -0.6407  2.3540 -2.3617
   44CHL1   C24 3244   6.190   4.062   4.455  0.8619 -0.0866  0.1296
   44CHL1  H24A 3245   6.170   3.954   4.472 -2.5389  0.2442 -1.1378
   44CHL1  H24B 3246   6.297   4.073   4.424  0.7045  0.0240 -0.3763
   44CHL1   C25 3247   6.168   4.143   4.590 -0.7530  0.4908 -0.6808
   44CHL1   H25 3248   6.061   4.153   4.617 -0.2378 -0.5261  2.0813
   44CHL1   C26 3249   6.238   4.079   4.708 -0.5208 -0.6825  0.7752
   44CHL1  H26A 3250   6.348   4.084   4.693 -0.5333  0.5061  0.9818
   44CHL1  H26B 3251   6.209   4.133   4.800  0.2469 -0.3691  0.8419
   44CHL1  H26C 3252   6.204   3.975   4.727  1.7678 -1.4688  0.9120
   44CHL1   C27 3253   6.219   4.287   4.585  0.0121  0.0965  0.4450
   44CHL1  H27A 3254   6.140   4.338   4.526  0.3238  0.2125  0.1201
   44CHL1  H27B 3255   6.209   4.343   4.680  0.4967 -1.0037  1.1680
   44CHL1  H27C 3256   6.318   4.299   4.536 -0.6720  1.5369 -0.6502
   45CHL1    C3 3257   1.768   3.601   3.049 -0.0145  0.6247  0.4784
   45CHL1    H3 3258   1.844   3.680   3.028  0.9654 -0.3864  0.1344
   45CHL1    O3 3259   1.665   3.601   2.953 -0.3946  0.2539 -0.6281
   45CHL1   H3' 3260   1.675   3.523   2.898  1.1517  1.0253 -1.5001
   45CHL1    C4 3261   1.844   3.470   3.061 -0.8383  0.0006  0.3904
   45CHL1   H4A 3262   1.762   3.397   3.077  0.0262 -0.7261  1.5952
   45CHL1   H4B 3263   1.898   3.456   2.964 -0.7209 -0.3250  0.5011
   45CHL1    C5 3264   1.944   3.459   3.174 -0.0331 -0.5871 -0.1954
   45CHL1    C6 3265   2.072   3.412   3.154  0.4888  0.1221  0.3919
   45CHL1    H6 3266   2.106   3.398   3.050  0.4445  1.0670  0.2432
   45CHL1    C7 3267   2.170   3.389   3.269  0.6903 -0.7779 -0.1527
   45CHL1   H7A 3268   2.236   3.301   3.254  0.8304 -1.4587  3.5060
   45CHL1   H7B 3269   2.249   3.467   3.271  1.9559 -1.8833  4.2157
   45CHL1    C8 3270   2.108   3.392   3.412  0.4819  0.4635 -0.7336
   45CHL1    H8 3271   2.050   3.297   3.415 -0.7715  1.2341  0.1671
   45CHL1   C14 3272   2.203   3.396   3.529 -1.0584 -0.7742 -0.6737
   45CHL1   H14 3273   2.246   3.498   3.528 -1.6626 -0.5214 -0.9235
   45CHL1   C15 3274   2.319   3.295   3.523  0.0872 -0.3003  0.3124
   45CHL1  H15A 3275   2.288   3.190   3.505 -0.1903  0.0540 -1.5159
   45CHL1  H15B 3276   2.382   3.318   3.434 -1.2083 -0.8521 -0.7809
   45CHL1   C16 3277   2.394   3.325   3.659  0.6005 -0.4319 -0.2881
   45CHL1  H16A 3278   2.429   3.232   3.708  0.1217 -0.7935 -0.6267
   45CHL1  H16B 3279   2.471   3.404   3.650 -1.1452  1.4575  0.5807
   45CHL1   C17 3280   2.285   3.392   3.744 -0.6389  0.0980 -1.0671
   45CHL1   H17 3281   2.309   3.500   3.746  0.7326 -0.1690  1.3976
   45CHL1   C13 3282   2.148   3.389   3.668  0.5749  0.3253 -0.7775
   45CHL1   C18 3283   2.081   3.252   3.697  0.1769  0.2453  0.3031
   45CHL1  H18A 3284   2.021   3.207   3.614  1.1037  1.0733 -0.8484
   45CHL1  H18B 3285   2.155   3.176   3.727  1.2538  1.9703  2.2300
   45CHL1  H18C 3286   2.016   3.269   3.785  0.7884 -1.0540  1.0290
   45CHL1   C12 3287   2.039   3.496   3.678  0.6389 -0.1693  0.0097
   45CHL1  H12A 3288   1.983   3.495   3.775 -0.7381  0.6277 -0.7343
   45CHL1  H12B 3289   2.092   3.593   3.666  0.0228 -0.0528 -2.1832
   45CHL1   C11 3290   1.935   3.485   3.566  0.4524 -0.6069 -0.2217
   45CHL1  H11A 3291   1.879   3.394   3.596 -0.5563  0.7171  2.2245
   45CHL1  H11B 3292   1.859   3.566   3.570  0.4778 -0.5942  0.0219
   45CHL1    C9 3293   1.999   3.492   3.425  0.4412  0.1554  0.0917
   45CHL1    H9 3294   2.037   3.596   3.424  0.7481  0.0495 -1.4174
   45CHL1   C10 3295   1.884   3.489   3.317  0.6435  0.1138 -0.7985
   45CHL1   C19 3296   1.777   3.383   3.345 -0.0251 -0.0837 -0.1152
   45CHL1  H19A 3297   1.815   3.278   3.345 -0.3375 -0.2055  0.5811
   45CHL1  H19B 3298   1.729   3.412   3.441 -1.1996 -0.5201 -0.5572
   45CHL1  H19C 3299   1.696   3.402   3.272  0.3490 -1.0539 -0.8072
   45CHL1    C1 3300   1.812   3.628   3.305 -0.3472  0.3988  1.0529
   45CHL1   H1A 3301   1.761   3.663   3.397 -0.3978  0.3674  1.0372
   45CHL1   H1B 3302   1.896   3.696   3.281 -1.9350  1.2756 -2.7573
   45CHL1    C2 3303   1.711   3.637   3.188 -0.4376  0.1755 -0.1136
   45CHL1   H2A 3304   1.686   3.745   3.181 -1.8248 -0.1517 -0.6295
   45CHL1   H2B 3305   1.618   3.576   3.194 -0.2201 -0.1376  0.1011
   45CHL1   C20 3306   2.284   3.364   3.898 -0.6175  0.5854 -0.2755
   45CHL1   H20 3307   2.230   3.268   3.914  0.0858 -0.0497 -1.5480
   45CHL1   C21 3308   2.202   3.472   3.982 -0.5201  0.2675  0.3956
   45CHL1  H21A 3309   2.093   3.472   3.960 -0.8808 -0.1464  2.0952
   45CHL1  H21B 3310   2.246   3.574   3.972 -1.3790  0.4575 -2.3240
   45CHL1  H21C 3311   2.199   3.457   4.092 -1.3171 -0.9223  0.2317
   45CHL1   C22 3312   2.430   3.338   3.961  0.2745 -0.1903  0.8688
   45CHL1  H22A 3313   2.481   3.257   3.905 -1.5638 -0.6370 -0.2412
   45CHL1  H22B 3314   2.492   3.431   3.957 -0.4944  0.3006  0.0517
   45CHL1   C23 3315   2.424   3.285   4.110 -0.2771 -0.1054  0.6287
   45CHL1  H23A 3316   2.339   3.319   4.173 -0.8236 -0.0482 -0.1244
   45CHL1  H23B 3317   2.412   3.175   4.110  0.4980 -0.2076  1.7203
   45CHL1   C24 3318   2.561   3.304   4.177  0.6034 -0.3875  0.0247
   45CHL1  H24A 3319   2.636   3.267   4.103  0.1424  0.2922 -0.7933
   45CHL1  H24B 3320   2.564   3.414   4.191 -2.4199 -0.3350  0.9213
   45CHL1   C25 3321   2.571   3.233   4.315  0.6100  0.0882  0.4396
   45CHL1   H25 3322   2.528   3.132   4.298  0.5424  0.3451 -1.1257
   45CHL1   C26 3323   2.716   3.216   4.365 -0.7839  0.1177  0.4572
   45CHL1  H26A 3324   2.705   3.151   4.454 -0.0253  0.2475  0.6525
   45CHL1  H26B 3325   2.781   3.162   4.291  0.8997  2.2464  0.2827
   45CHL1  H26C 3326   2.750   3.321   4.379  2.8215 -1.1304  2.3974
   45CHL1   C27 3327   2.478   3.296   4.419 -0.1796 -0.6597 -0.2835
   45CHL1  H27A 3328   2.518   3.396   4.446  2.0149 -1.5348 -0.0392
   45CHL1  H27B 3329   2.370   3.311   4.396  0.2097  3.3048 -0.1873
   45CHL1  H27C 3330   2.484   3.232   4.509  0.6318 -1.4273 -0.8604
   46CHL1    C3 3331   5.757   2.600   2.976  0.5298 -0.4547 -0.7489
   46CHL1    H3 3332   5.860   2.595   3.017 -0.0566 -0.0948  0.8666
   46CHL1    O3 3333   5.751   2.582   2.838 -0.2958  0.4445  0.1806
   46CHL1   H3' 3334   5.662   2.598   2.806  0.1714 -0.5435 -1.7421
   46CHL1    C4 3335   5.669   2.494   3.053  0.7083 -0.5777  0.1424
   46CHL1   H4A 3336   5.562   2.512   3.028  1.3583  0.3468 -2.2110
   46CHL1   H4B 3337   5.693   2.391   3.021 -4.0859 -1.9702  0.3023
   46CHL1    C5 3338   5.677   2.510   3.204  0.0673  0.5421  1.0142
   46CHL1    C6 3339   5.737   2.415   3.270 -0.3312 -0.3760  0.0112
   46CHL1    H6 3340   5.770   2.328   3.212  3.3928 -1.0294  2.7508
   46CHL1    C7 3341   5.762   2.426   3.416 -1.0622  0.1580  0.4102
   46CHL1   H7A 3342   5.742   2.328   3.464  0.9446 -1.5230 -1.9373
   46CHL1   H7B 3343   5.871   2.436   3.435 -1.0947 -0.9476  1.3016
   46CHL1    C8 3344   5.679   2.549   3.477  0.2105  0.1677 -0.4110
   46CHL1    H8 3345   5.571   2.525   3.473  0.0286  1.0657 -1.1671
   46CHL1   C14 3346   5.727   2.575   3.617  0.1868  0.5100 -0.3417
   46CHL1   H14 3347   5.836   2.598   3.611  0.6329 -1.1116  0.7448
   46CHL1   C15 3348   5.732   2.454   3.726  0.4736 -0.1890 -0.0004
   46CHL1  H15A 3349   5.638   2.397   3.718 -0.8975  1.8884  0.6001
   46CHL1  H15B 3350   5.813   2.379   3.713  1.6222  1.1001 -0.6678
   46CHL1   C16 3351   5.738   2.538   3.859 -0.7326  0.7075  0.0431
   46CHL1  H16A 3352   5.649   2.515   3.922 -0.3595 -1.6954 -0.2012
   46CHL1  H16B 3353   5.818   2.490   3.919 -0.2224 -0.1371 -1.2776
   46CHL1   C17 3354   5.764   2.689   3.830  0.2828  0.6023 -0.2234
   46CHL1   H17 3355   5.871   2.703   3.805  0.1962 -0.1475 -1.0767
   46CHL1   C13 3356   5.676   2.701   3.694 -0.7065 -0.2049 -1.0356
   46CHL1   C18 3357   5.524   2.679   3.711 -0.4637  0.4093 -0.7856
   46CHL1  H18A 3358   5.510   2.592   3.779 -0.0870  0.4913 -0.5999
   46CHL1  H18B 3359   5.484   2.772   3.755 -1.9368  0.1426 -1.4799
   46CHL1  H18C 3360   5.466   2.657   3.619 -0.1766 -0.0733 -0.8560
   46CHL1   C12 3361   5.698   2.822   3.606 -0.3293  0.5225  0.3941
   46CHL1  H12A 3362   5.644   2.911   3.645  0.0338  1.3061 -0.8248
   46CHL1  H12B 3363   5.806   2.846   3.599  0.0721 -1.4494 -0.7643
   46CHL1   C11 3364   5.641   2.801   3.456  0.6093 -0.4673 -0.3645
   46CHL1  H11A 3365   5.532   2.794   3.471  0.4556 -0.2849 -1.3288
   46CHL1  H11B 3366   5.654   2.886   3.386 -1.4710  1.1985  1.1803
   46CHL1    C9 3367   5.697   2.670   3.395 -0.4693 -0.9422 -0.2435
   46CHL1    H9 3368   5.804   2.700   3.386 -0.8576  0.8344  0.5466
   46CHL1   C10 3369   5.640   2.654   3.253  0.3578  0.8523  0.6271
   46CHL1   C19 3370   5.482   2.674   3.249  0.2606 -0.0926 -0.6304
   46CHL1  H19A 3371   5.450   2.778   3.267  1.9281  0.3936 -0.3170
   46CHL1  H19B 3372   5.455   2.664   3.141 -1.7914  2.5064 -0.4444
   46CHL1  H19C 3373   5.411   2.607   3.303 -1.4439 -0.0542 -2.6755
   46CHL1    C1 3374   5.700   2.762   3.161 -0.8659 -0.1519 -0.2013
   46CHL1   H1A 3375   5.663   2.864   3.183 -2.7841 -0.7061 -0.6923
   46CHL1   H1B 3376   5.811   2.764   3.174 -0.8432  1.2284 -0.5029
   46CHL1    C2 3377   5.694   2.735   3.008 -0.4340 -0.2574  0.2749
   46CHL1   H2A 3378   5.759   2.807   2.953 -1.0582 -0.0163 -0.1566
   46CHL1   H2B 3379   5.592   2.754   2.968 -0.7243  1.2734  1.6401
   46CHL1   C20 3380   5.736   2.779   3.949 -0.1308  1.0274 -0.7204
   46CHL1   H20 3381   5.632   2.764   3.985  0.1593 -0.6729 -0.4708
   46CHL1   C21 3382   5.786   2.919   3.929  1.0111 -0.1853 -0.7730
   46CHL1  H21A 3383   5.897   2.909   3.930  1.1870  0.7785  2.8055
   46CHL1  H21B 3384   5.762   2.991   4.010  3.9180 -0.4124  0.4011
   46CHL1  H21C 3385   5.753   2.947   3.826  1.5362  1.2577 -0.5693
   46CHL1   C22 3386   5.807   2.718   4.081  0.3728  0.1425 -0.1782
   46CHL1  H22A 3387   5.773   2.613   4.090  1.5527 -0.1424  1.2764
   46CHL1  H22B 3388   5.918   2.729   4.082  0.1579  3.1603 -0.4130
   46CHL1   C23 3389   5.747   2.773   4.219  0.0634  0.7471  0.2435
   46CHL1  H23A 3390   5.766   2.882   4.224  4.1482  0.1979  0.2648
   46CHL1  H23B 3391   5.637   2.761   4.230  0.2585 -0.3531  1.1922
   46CHL1   C24 3392   5.804   2.720   4.348 -0.1189  0.0445 -0.3140
   46CHL1  H24A 3393   5.781   2.612   4.340  1.2417 -0.2052 -1.0834
   46CHL1  H24B 3394   5.913   2.740   4.359 -0.0988  1.2528 -2.2975
   46CHL1   C25 3395   5.738   2.767   4.483 -0.7689 -0.1651 -0.4364
   46CHL1   H25 3396   5.726   2.877   4.472 -2.9004 -0.3695 -0.4093
   46CHL1   C26 3397   5.603   2.715   4.512  0.7331 -0.1214 -0.0461
   46CHL1  H26A 3398   5.530   2.751   4.437  1.9303 -0.5898 -1.4871
   46CHL1  H26B 3399   5.603   2.604   4.508  0.4720 -0.1240 -0.0118
   46CHL1  H26C 3400   5.551   2.746   4.606 -3.9809 -1.3836 -1.9831
   46CHL1   C27 3401   5.846   2.741   4.587 -0.4949 -0.5627 -0.4090
   46CHL1  H27A 3402   5.929   2.814   4.573  0.4146 -1.4792  0.0574
   46CHL1  H27B 3403   5.798   2.768   4.684  0.0375 -3.1035  0.6523
   46CHL1  H27C 3404   5.881   2.636   4.598 -2.0885 -0.9333  1.7066
   47CHL1    C3 3405   3.194   5.874   2.934  0.9250  0.4172 -0.2379
   47CHL1    H3 3406   3.180   5.984   2.930 -2.0794  0.2617  2.2604
   47CHL1    O3 3407   3.180   5.816   2.804 -0.3091  0.0481  0.1302
   47CHL1   H3' 3408   3.256   5.855   2.759 -2.1303  1.2017 -2.1728
   47CHL1    C4 3409   3.337   5.845   2.986 -0.4628 -0.0053  0.2250
   47CHL1   H4A 3410   3.350   5.736   2.973  2.2328  0.1633  0.8623
   47CHL1   H4B 3411   3.408   5.886   2.911 -0.8549 -0.5788 -0.4715
   47CHL1    C5 3412   3.368   5.893   3.122  0.1349  0.4130  0.1799
   47CHL1    C6 3413   3.469   5.977   3.153 -0.4846 -0.3241  0.2991
   47CHL1    H6 3414   3.530   6.020   3.072 -2.4407  1.6682 -0.2371
   47CHL1    C7 3415   3.514   6.025   3.286 -0.7193 -0.0649 -0.1372
   47CHL1   H7A 3416   3.621   6.002   3.302 -0.7184 -0.0650 -0.1438
   47CHL1   H7B 3417   3.505   6.136   3.295 -1.5946 -0.1539  0.1944
   47CHL1    C8 3418   3.429   5.955   3.395 -0.1830  1.3160 -0.8508
   47CHL1    H8 3419   3.479   5.859   3.418  2.4642  2.6729 -0.5607
   47CHL1   C14 3420   3.433   6.031   3.526  0.3486  0.7415  0.1993
   47CHL1   H14 3421   3.389   6.131   3.504 -1.0141  0.6031  2.1166
   47CHL1   C15 3422   3.581   6.052   3.579  0.3976 -0.3853  0.5907
   47CHL1  H15A 3423   3.627   5.952   3.564  0.0566 -0.1758 -2.4025
   47CHL1  H15B 3424   3.640   6.131   3.527 -0.3224  1.0053  1.8265
   47CHL1   C16 3425   3.560   6.081   3.728  0.2411  0.1419 -0.4596
   47CHL1  H16A 3426   3.614   6.000   3.782 -0.5472 -1.1222 -1.5049
   47CHL1  H16B 3427   3.601   6.182   3.750  0.5940  0.2049 -1.3947
   47CHL1   C17 3428   3.401   6.066   3.757  0.1427 -0.3830 -0.5030
   47CHL1   H17 3429   3.348   6.161   3.733 -0.1915 -1.2763 -3.8106
   47CHL1   C13 3430   3.353   5.972   3.646  0.0628  0.3068  0.7906
   47CHL1   C18 3431   3.393   5.823   3.685  0.1949 -0.2537  0.2804
   47CHL1  H18A 3432   3.376   5.743   3.610  0.9502  0.6052 -0.8367
   47CHL1  H18B 3433   3.502   5.818   3.705  0.3222 -0.1180 -0.3591
   47CHL1  H18C 3434   3.344   5.801   3.783 -2.7061  2.6152 -0.3406
   47CHL1   C12 3435   3.208   5.983   3.605 -0.5066  0.1865  0.3936
   47CHL1  H12A 3436   3.130   5.944   3.675 -3.2940 -0.1973 -2.6845
   47CHL1  H12B 3437   3.170   6.083   3.578  0.1002 -0.0146 -1.3507
   47CHL1   C11 3438   3.196   5.896   3.483  0.1956 -0.0581  0.2091
   47CHL1  H11A 3439   3.209   5.788   3.508  1.6453  0.0125 -0.1813
   47CHL1  H11B 3440   3.089   5.894   3.452  0.3166 -2.6351 -0.3091
   47CHL1    C9 3441   3.280   5.933   3.360 -0.8588 -0.8460 -0.2147
   47CHL1    H9 3442   3.243   6.034   3.333  2.3996  0.6373  0.3197
   47CHL1   C10 3443   3.267   5.848   3.230  0.5671 -0.1902  0.5572
   47CHL1   C19 3444   3.302   5.700   3.260 -0.5352  0.4670 -0.1856
   47CHL1  H19A 3445   3.233   5.657   3.335 -0.2775 -0.8089 -0.6627
   47CHL1  H19B 3446   3.285   5.639   3.169 -1.3173  0.5084 -0.0694
   47CHL1  H19C 3447   3.408   5.686   3.292 -0.5944  1.8878  0.7112
   47CHL1    C1 3448   3.121   5.861   3.177  0.3250  0.2918 -0.3223
   47CHL1   H1A 3449   3.049   5.835   3.258 -0.1878  0.6458 -0.6536
   47CHL1   H1B 3450   3.102   5.970   3.167 -3.8673 -0.3078 -0.7566
   47CHL1    C2 3451   3.092   5.801   3.032 -0.3048  0.3925 -0.0507
   47CHL1   H2A 3452   2.988   5.819   2.999 -0.7921 -1.1245  0.5788
   47CHL1   H2B 3453   3.113   5.692   3.037 -2.6047 -0.1713 -1.4415
   47CHL1   C20 3454   3.355   6.030   3.901 -1.0840 -0.3057  0.2228
   47CHL1   H20 3455   3.411   5.941   3.936  0.3818  0.5191  0.0405
   47CHL1   C21 3456   3.203   6.012   3.929 -0.2362  0.0034 -0.6150
   47CHL1  H21A 3457   3.144   6.101   3.899  0.0816  0.4909  0.1593
   47CHL1  H21B 3458   3.196   6.003   4.040 -0.3329 -3.2520 -0.7897
   47CHL1  H21C 3459   3.163   5.916   3.892  0.5794 -0.4761 -0.2703
   47CHL1   C22 3460   3.392   6.153   3.992  0.5383 -0.5438 -0.2449
   47CHL1  H22A 3461   3.492   6.183   3.954 -0.0462  3.0283  0.6789
   47CHL1  H22B 3462   3.329   6.244   3.986  1.7769  0.2482 -2.1999
   47CHL1   C23 3463   3.402   6.134   4.147 -0.5765 -0.7164  0.3175
   47CHL1  H23A 3464   3.305   6.143   4.200 -0.4585  2.0814  0.2079
   47CHL1  H23B 3465   3.438   6.032   4.171  1.7524 -0.0858 -0.2524
   47CHL1   C24 3466   3.502   6.224   4.218  0.6547 -0.8027  1.2956
   47CHL1  H24A 3467   3.585   6.234   4.145 -2.5114 -2.8626 -3.0655
   47CHL1  H24B 3468   3.456   6.324   4.231 -0.9792 -1.3271 -0.0942
   47CHL1   C25 3469   3.548   6.179   4.357  0.1721  0.4618 -0.4391
   47CHL1   H25 3470   3.560   6.068   4.358 -3.2045  0.0067 -1.0962
   47CHL1   C26 3471   3.687   6.240   4.389 -0.4379  0.2140 -0.0857
   47CHL1  H26A 3472   3.763   6.197   4.321 -2.4179 -0.7559 -1.8206
   47CHL1  H26B 3473   3.684   6.351   4.391  2.9247  0.3846  1.2033
   47CHL1  H26C 3474   3.717   6.198   4.487 -1.1701 -0.7108 -0.2405
   47CHL1   C27 3475   3.432   6.211   4.452  0.4619  0.4103 -0.7409
   47CHL1  H27A 3476   3.452   6.155   4.546  1.0140  1.4188 -0.2464
   47CHL1  H27B 3477   3.410   6.317   4.478  0.5330 -0.4010  3.3453
   47CHL1  H27C 3478   3.340   6.166   4.410  1.0665 -0.6982 -0.9091
   48CHL1    C3 3479   6.720   3.405   2.890  0.1917  0.0869 -0.6486
   48CHL1    H3 3480   6.818   3.458   2.889  0.3536 -0.2106 -0.5636
   48CHL1    O3 3481   6.689   3.389   2.755 -0.3919 -0.6610  0.5652
   48CHL1   H3' 3482   6.605   3.343   2.753 -1.0108  0.2463 -3.8810
   48CHL1    C4 3483   6.728   3.274   2.968  0.2543 -0.2950  0.4777
   48CHL1   H4A 3484   6.637   3.213   2.955 -0.0295  0.4593 -1.4023
   48CHL1   H4B 3485   6.813   3.224   2.917 -0.3142 -0.0191 -0.7801
   48CHL1    C5 3486   6.762   3.295   3.110  0.7754 -0.3189 -0.6746
   48CHL1    C6 3487   6.873   3.246   3.167 -0.1326  0.3845  0.0058
   48CHL1    H6 3488   6.933   3.178   3.104 -0.1176  1.5528 -1.2837
   48CHL1    C7 3489   6.918   3.259   3.311 -0.1959 -0.6923  0.6582
   48CHL1   H7A 3490   6.949   3.161   3.353  1.2633  0.4244  2.3127
   48CHL1   H7B 3491   6.990   3.343   3.311  0.8114 -1.5340  0.5509
   48CHL1    C8 3492   6.794   3.307   3.393  0.4741 -0.4236  0.0886
   48CHL1    H8 3493   6.724   3.221   3.395  0.6446 -0.6732 -2.2037
   48CHL1   C14 3494   6.848   3.343   3.533  0.4250  0.7002 -0.3529
   48CHL1   H14 3495   6.936   3.410   3.522  0.9351 -0.1634 -1.7188
   48CHL1   C15 3496   6.905   3.223   3.612  0.0969 -0.1883 -0.7248
   48CHL1  H15A 3497   6.855   3.127   3.587 -0.9216 -0.6306  2.4972
   48CHL1  H15B 3498   7.012   3.210   3.588 -0.1376 -2.4871 -0.7562
   48CHL1   C16 3499   6.878   3.252   3.765 -0.2653  0.0416 -0.2301
   48CHL1  H16A 3500   6.827   3.164   3.811  0.6755 -0.4702 -0.1462
   48CHL1  H16B 3501   6.974   3.273   3.817 -0.1980  0.6493 -0.5916
   48CHL1   C17 3502   6.798   3.390   3.765 -0.4646 -0.1660 -0.1844
   48CHL1   H17 3503   6.881   3.464   3.763 -1.4745  0.9669 -1.3256
   48CHL1   C13 3504   6.736   3.400   3.622 -0.6886  0.1518 -0.2315
   48CHL1   C18 3505   6.614   3.307   3.632 -0.3114 -0.0446  0.2053
   48CHL1  H18A 3506   6.642   3.208   3.674 -0.1030  1.0162  2.7473
   48CHL1  H18B 3507   6.533   3.348   3.696 -0.8326 -0.2045 -0.3310
   48CHL1  H18C 3508   6.554   3.290   3.539 -1.6637  3.1279  0.3874
   48CHL1   C12 3509   6.698   3.535   3.566  0.1851 -0.3080 -0.0498
   48CHL1  H12A 3510   6.612   3.578   3.622 -0.0808  0.6879 -1.1988
   48CHL1  H12B 3511   6.778   3.612   3.568 -0.4883  0.4030  0.7576
   48CHL1   C11 3512   6.649   3.528   3.421 -0.4471 -0.0227  0.3556
   48CHL1  H11A 3513   6.544   3.492   3.427 -0.2141 -1.2822 -2.1054
   48CHL1  H11B 3514   6.644   3.625   3.367 -2.9802  0.4199  1.2171
   48CHL1    C9 3515   6.735   3.433   3.328  0.3004 -0.2406 -0.2633
   48CHL1    H9 3516   6.824   3.499   3.315  1.5527 -0.8058  3.7799
   48CHL1   C10 3517   6.673   3.396   3.186  0.6566  0.2904 -0.4396
   48CHL1   C19 3518   6.538   3.321   3.207  0.7259 -0.0438  0.0022
   48CHL1  H19A 3519   6.482   3.288   3.117 -2.3953  1.1975  1.3150
   48CHL1  H19B 3520   6.546   3.231   3.272  1.0656 -1.0962 -1.4426
   48CHL1  H19C 3521   6.468   3.394   3.253  0.2119 -0.1088 -0.6638
   48CHL1    C1 3522   6.655   3.521   3.107  0.2429 -0.0917  0.5264
   48CHL1   H1A 3523   6.574   3.580   3.156  1.7823  3.3118 -0.7474
   48CHL1   H1B 3524   6.755   3.568   3.109  0.7215 -0.8575 -1.9622
   48CHL1    C2 3525   6.623   3.498   2.958  0.2820  0.0352  0.6536
   48CHL1   H2A 3526   6.625   3.596   2.906  2.8077  0.1480  0.8100
   48CHL1   H2B 3527   6.522   3.452   2.959 -0.1228  0.9228  0.8615
   48CHL1   C20 3528   6.715   3.409   3.892 -0.0229 -0.0825 -0.6541
   48CHL1   H20 3529   6.625   3.344   3.902  1.3535 -1.7653  2.2015
   48CHL1   C21 3530   6.672   3.553   3.897  0.1316  0.5471  0.2831
   48CHL1  H21A 3531   6.622   3.572   3.994 -0.4929 -3.3325  0.9101
   48CHL1  H21B 3532   6.602   3.581   3.816 -1.9022  1.1719  2.1616
   48CHL1  H21C 3533   6.764   3.614   3.885 -0.2343  0.5598 -3.8907
   48CHL1   C22 3534   6.812   3.379   4.011  0.0297  0.0729 -0.8312
   48CHL1  H22A 3535   6.843   3.272   4.006 -1.5573 -0.5838  1.6649
   48CHL1  H22B 3536   6.900   3.445   3.997 -0.8438  1.2541 -0.8713
   48CHL1   C23 3537   6.750   3.386   4.153 -0.2796 -0.3299  0.2925
   48CHL1  H23A 3538   6.739   3.495   4.176 -1.5329 -0.2661 -0.5042
   48CHL1  H23B 3539   6.646   3.348   4.162 -0.5595  0.8243  2.5902
   48CHL1   C24 3540   6.845   3.335   4.262  0.5673 -0.0060  0.2692
   48CHL1  H24A 3541   6.883   3.234   4.236  0.3660 -0.5091  1.8566
   48CHL1  H24B 3542   6.938   3.394   4.281  0.4460 -0.0550  1.0164
   48CHL1   C25 3543   6.775   3.313   4.396 -0.2289  0.7847  0.2606
   48CHL1   H25 3544   6.677   3.265   4.378 -1.0062  2.6121 -0.6345
   48CHL1   C26 3545   6.860   3.219   4.488  0.1054  0.3132 -0.6733
   48CHL1  H26A 3546   6.961   3.265   4.496  1.0926 -1.6929 -1.0040
   48CHL1  H26B 3547   6.798   3.206   4.579  1.0966  2.6077  0.4197
   48CHL1  H26C 3548   6.885   3.127   4.431  2.5119  0.6959 -0.3320
   48CHL1   C27 3549   6.753   3.450   4.467  0.2788  0.0451 -0.4307
   48CHL1  H27A 3550   6.708   3.422   4.564 -0.1656  1.7172 -0.1184
   48CHL1  H27B 3551   6.848   3.507   4.477  1.1237 -1.2811 -0.7386
   48CHL1  H27C 3552   6.678   3.502   4.404  0.0588 -0.8025 -0.8724
   49CHL1    C3 3553   0.074   6.072   2.818 -0.4148  0.8213 -0.3180
   49CHL1    H3 3554   0.160   6.005   2.795 -0.8297  0.9540 -2.4108
   49CHL1    O3 3555   0.032   6.111   2.688 -0.5396  0.5222 -0.2331
   49CHL1   H3' 3556   0.042   6.032   2.633 -0.5856  0.2968  0.0791
   49CHL1    C4 3557  -0.030   5.985   2.897  0.4755  0.3727  0.1891
   49CHL1   H4A 3558  -0.131   6.031   2.890  0.0557 -0.6371 -0.7575
   49CHL1   H4B 3559  -0.047   5.891   2.841  0.7994  0.0458  0.6333
   49CHL1    C5 3560   0.018   5.950   3.037 -0.4181  0.1353 -0.5743
   49CHL1    C6 3561   0.031   5.822   3.080  0.3995 -0.6192 -0.4437
   49CHL1    H6 3562  -0.006   5.741   3.015  1.7346 -1.6179 -0.0066
   49CHL1    C7 3563   0.078   5.775   3.214  0.4738  0.2290 -0.2161
   49CHL1   H7A 3564   0.018   5.689   3.252 -2.4572  2.1583 -0.1178
   49CHL1   H7B 3565   0.186   5.751   3.208  0.3307 -0.7541  0.7623
   49CHL1    C8 3566   0.079   5.889   3.320  0.4293  0.0226  0.3497
   49CHL1    H8 3567  -0.027   5.911   3.345  0.0696  1.1846 -1.9191
   49CHL1   C14 3568   0.142   5.839   3.443  0.0424  0.9959  0.2918
   49CHL1   H14 3569   0.247   5.810   3.422  0.0826 -0.2484  2.0080
   49CHL1   C15 3570   0.079   5.712   3.501  0.1261  0.4141 -0.1169
   49CHL1  H15A 3571  -0.030   5.730   3.512  0.5276  3.5282 -0.2940
   49CHL1  H15B 3572   0.099   5.614   3.452 -0.5885 -0.1879  0.7611
   49CHL1   C16 3573   0.143   5.718   3.644 -0.1509  0.1349  0.2178
   49CHL1  H16A 3574   0.058   5.726   3.715  1.6680  1.2482  2.3795
   49CHL1  H16B 3575   0.200   5.630   3.682  0.0294  1.0894  2.2386
   49CHL1   C17 3576   0.229   5.854   3.661 -0.4069 -0.3208  0.1751
   49CHL1   H17 3577   0.336   5.842   3.635  0.6076  3.2240  2.1146
   49CHL1   C13 3578   0.167   5.948   3.551  0.2692  0.7538  0.3326
   49CHL1   C18 3579   0.034   6.007   3.610  0.7972 -0.6452  0.0686
   49CHL1  H18A 3580   0.057   6.084   3.687  2.3080 -0.0117 -0.9549
   49CHL1  H18B 3581  -0.029   6.057   3.534 -0.8038 -0.9533  1.1615
   49CHL1  H18C 3582  -0.034   5.927   3.646  1.1106 -0.4510  1.1353
   49CHL1   C12 3583   0.255   6.058   3.484  0.6583  0.7303  0.0223
   49CHL1  H12A 3584   0.284   6.139   3.554  3.1318 -0.1211  0.0694
   49CHL1  H12B 3585   0.345   6.014   3.435 -0.7590 -1.7224 -0.5716
   49CHL1   C11 3586   0.183   6.120   3.358  0.0099  0.6397 -0.0822
   49CHL1  H11A 3587   0.090   6.172   3.389  0.2628  0.9223  0.1992
   49CHL1  H11B 3588   0.252   6.194   3.312 -1.4509  0.8377 -2.0832
   49CHL1    C9 3589   0.145   6.012   3.256  0.3902 -0.2543  0.3276
   49CHL1    H9 3590   0.242   5.979   3.212  1.1706  2.8617 -0.5846
   49CHL1   C10 3591   0.069   6.069   3.127 -0.5234 -0.1617  0.4241
   49CHL1   C19 3592  -0.051   6.158   3.169  0.0048  0.2680  0.7201
   49CHL1  H19A 3593  -0.116   6.180   3.081  1.0976 -0.3278 -0.2693
   49CHL1  H19B 3594  -0.112   6.108   3.247  1.1747 -1.6411  0.4758
   49CHL1  H19C 3595  -0.022   6.257   3.209 -0.3012  1.5918 -2.0730
   49CHL1    C1 3596   0.162   6.159   3.038 -0.0125  0.8235  0.6011
   49CHL1   H1A 3597   0.199   6.242   3.101  0.8910  0.3483  0.7038
   49CHL1   H1B 3598   0.255   6.102   3.019 -0.4660  0.3269 -0.2356
   49CHL1    C2 3599   0.099   6.198   2.902 -0.3740 -0.2879  0.3544
   49CHL1   H2A 3600   0.161   6.272   2.846 -1.5131 -1.2127 -2.2853
   49CHL1   H2B 3601  -0.000   6.247   2.914 -1.9446 -3.0710 -0.5257
   49CHL1   C20 3602   0.240   5.906   3.801 -0.9903 -0.1343 -0.7673
   49CHL1   H20 3603   0.143   5.944   3.841  0.0256  0.3677  1.3932
   49CHL1   C21 3604   0.336   6.028   3.803 -0.4468 -0.0556  0.2333
   49CHL1  H21A 3605   0.366   6.051   3.908  0.6704  0.7654 -0.2509
   49CHL1  H21B 3606   0.292   6.110   3.743 -0.8192 -0.4700 -0.0703
   49CHL1  H21C 3607   0.435   5.997   3.763 -0.3334 -1.3257  1.3926
   49CHL1   C22 3608   0.275   5.794   3.911  0.6923  0.0504 -0.5663
   49CHL1  H22A 3609   0.263   5.687   3.882  0.9895 -0.0754 -0.2326
   49CHL1  H22B 3610   0.378   5.812   3.949  0.7343 -2.2560  0.5904
   49CHL1   C23 3611   0.191   5.797   4.035  0.5424 -0.0864  0.2290
   49CHL1  H23A 3612   0.190   5.902   4.073 -2.1376  0.3501 -0.7709
   49CHL1  H23B 3613   0.086   5.764   4.020  0.5293 -0.3349  0.8250
   49CHL1   C24 3614   0.244   5.706   4.151  0.0120  0.2950 -0.4059
   49CHL1  H24A 3615   0.225   5.598   4.134 -0.8191 -0.1816  2.8090
   49CHL1  H24B 3616   0.353   5.718   4.170  0.0412 -1.8390  1.0835
   49CHL1   C25 3617   0.188   5.740   4.288  0.3550 -0.7474  0.6457
   49CHL1   H25 3618   0.218   5.844   4.316  0.5048 -0.8247  0.7724
   49CHL1   C26 3619   0.034   5.752   4.288  0.1349 -0.5362  0.3612
   49CHL1  H26A 3620  -0.001   5.852   4.252 -2.8117 -1.7789 -0.5310
   49CHL1  H26B 3621  -0.007   5.674   4.221 -1.2776 -0.5276  1.1672
   49CHL1  H26C 3622  -0.011   5.751   4.390 -0.2960  2.8732  0.3422
   49CHL1   C27 3623   0.242   5.643   4.392  0.7934  0.3979 -0.0211
   49CHL1  H27A 3624   0.353   5.641   4.381  0.5628 -1.7038 -3.7618
   49CHL1  H27B 3625   0.226   5.697   4.488 -0.1705 -0.6681  0.4430
   49CHL1  H27C 3626   0.195   5.542   4.388  1.3064  0.1570 -0.1052
   50CHL1    C3 3627   6.414   0.255   2.721 -0.1579 -0.0725  0.2590
   50CHL1    H3 3628   6.321   0.308   2.749 -0.9516 -1.9854  1.4463
   50CHL1    O3 3629   6.415   0.235   2.580  0.2957  0.0735  0.3635
   50CHL1   H3' 3630   6.480   0.289   2.535 -0.8703  1.1591 -0.1036
   50CHL1    C4 3631   6.537   0.334   2.757 -0.7468 -0.6501 -0.4226
   50CHL1   H4A 3632   6.621   0.268   2.726 -0.5842 -1.0270  0.7915
   50CHL1   H4B 3633   6.559   0.425   2.698 -0.4115  0.4012  1.2822
   50CHL1    C5 3634   6.538   0.344   2.907  0.4523 -0.3791  0.2370
   50CHL1    C6 3635   6.539   0.476   2.951  0.8873  0.7148 -0.4844
   50CHL1    H6 3636   6.533   0.566   2.888  1.9469  0.7936 -0.5020
   50CHL1    C7 3637   6.564   0.498   3.098  0.0218  0.1448  0.2974
   50CHL1   H7A 3638   6.653   0.564   3.107  1.8846 -2.1879  0.1645
   50CHL1   H7B 3639   6.482   0.555   3.146  0.4644  1.0134  0.0329
   50CHL1    C8 3640   6.602   0.368   3.179 -0.6212  0.7985  0.2497
   50CHL1    H8 3641   6.712   0.353   3.167 -0.6395 -0.3780  1.3768
   50CHL1   C14 3642   6.586   0.385   3.332 -0.5314 -1.2497  0.3937
   50CHL1   H14 3643   6.476   0.397   3.340 -0.7104 -0.8968 -1.9428
   50CHL1   C15 3644   6.637   0.516   3.401 -0.3704  0.1342  0.1454
   50CHL1  H15A 3645   6.732   0.551   3.356 -1.6501  0.9681 -2.0398
   50CHL1  H15B 3646   6.561   0.594   3.380 -0.2045  0.2869  0.1169
   50CHL1   C16 3647   6.646   0.480   3.544 -0.5144 -0.5118 -0.4757
   50CHL1  H16A 3648   6.751   0.491   3.579 -0.7297  0.3513 -0.0657
   50CHL1  H16B 3649   6.585   0.542   3.614  0.7940 -0.1183  0.3542
   50CHL1   C17 3650   6.597   0.327   3.553 -0.3887  0.2450 -0.0848
   50CHL1   H17 3651   6.488   0.338   3.570 -0.3099  0.6970  0.1515
   50CHL1   C13 3652   6.627   0.269   3.414 -0.5882  0.0958  0.7617
   50CHL1   C18 3653   6.782   0.239   3.397  0.4531 -0.1186 -0.3951
   50CHL1  H18A 3654   6.810   0.203   3.296 -0.1529  0.5202 -0.8054
   50CHL1  H18B 3655   6.850   0.321   3.429  0.0265  0.3818 -0.7408
   50CHL1  H18C 3656   6.816   0.158   3.465  1.8276  1.3065  0.6778
   50CHL1   C12 3657   6.544   0.154   3.380  0.6183  0.2652  0.3610
   50CHL1  H12A 3658   6.581   0.057   3.422  1.6281  1.3088  1.9914
   50CHL1  H12B 3659   6.445   0.174   3.426 -0.7864 -2.9462 -0.9165
   50CHL1   C11 3660   6.537   0.123   3.228  0.0189  0.0557  0.8596
   50CHL1  H11A 3661   6.631   0.068   3.207 -0.4612 -0.3977 -0.1750
   50CHL1  H11B 3662   6.441   0.071   3.207 -0.8515  2.3667 -1.4565
   50CHL1    C9 3663   6.529   0.247   3.135 -0.4778  0.3288  0.7256
   50CHL1    H9 3664   6.424   0.278   3.150 -0.3084  0.6760  1.2297
   50CHL1   C10 3665   6.549   0.212   2.988  0.3817  0.3921  0.0781
   50CHL1   C19 3666   6.687   0.143   2.956  0.1841 -0.3676  0.1354
   50CHL1  H19A 3667   6.767   0.209   2.996  1.7577 -2.3941  0.4928
   50CHL1  H19B 3668   6.692   0.050   3.016 -1.7038 -0.4137  0.2735
   50CHL1  H19C 3669   6.709   0.124   2.849  0.8498  1.5189 -0.0972
   50CHL1    C1 3670   6.442   0.116   2.930  0.2761  0.7582 -0.5449
   50CHL1   H1A 3671   6.465   0.011   2.960 -0.6852  0.7718  0.2955
   50CHL1   H1B 3672   6.343   0.139   2.973 -0.3629  0.0478 -1.5943
   50CHL1    C2 3673   6.423   0.115   2.779 -0.1800 -0.0568  0.2082
   50CHL1   H2A 3674   6.336   0.051   2.752 -0.1617  0.4228 -1.0239
   50CHL1   H2B 3675   6.510   0.059   2.739 -0.1943  0.4246 -0.5158
   50CHL1   C20 3676   6.654   0.252   3.671  0.0140 -0.0426 -0.6094
   50CHL1   H20 3677   6.763   0.229   3.658  0.0045 -1.2332  1.0665
   50CHL1   C21 3678   6.581   0.128   3.698  0.0273  0.1287  0.5287
   50CHL1  H21A 3679   6.611   0.054   3.621 -0.8381  1.1891 -0.8760
   50CHL1  H21B 3680   6.470   0.134   3.695  0.0717  0.8345  0.0753
   50CHL1  H21C 3681   6.598   0.088   3.800 -0.8935  0.5519  0.8494
   50CHL1   C22 3682   6.662   0.321   3.811  0.4194  0.3788 -0.2361
   50CHL1  H22A 3683   6.674   0.430   3.794 -1.4382  1.1173  2.4612
   50CHL1  H22B 3684   6.568   0.303   3.867  1.0831 -0.1320  0.7381
   50CHL1   C23 3685   6.792   0.274   3.894  0.2641  0.4750 -0.2117
   50CHL1  H23A 3686   6.770   0.171   3.930 -2.6387  2.1830  3.5845
   50CHL1  H23B 3687   6.879   0.267   3.826  0.5152 -1.1419  0.2233
   50CHL1   C24 3688   6.828   0.369   4.010 -0.5045  0.2971  0.0801
   50CHL1  H24A 3689   6.867   0.462   3.962  1.2226 -0.4076  0.0622
   50CHL1  H24B 3690   6.734   0.392   4.065  1.8253  1.2017  4.0185
   50CHL1   C25 3691   6.946   0.332   4.104 -0.2783 -0.0759  0.5853
   50CHL1   H25 3692   7.023   0.297   4.033 -1.8421 -1.6158 -0.4270
   50CHL1   C26 3693   7.008   0.456   4.176  0.2314  0.5308 -1.0293
   50CHL1  H26A 3694   6.944   0.525   4.236  0.5206 -0.9003  1.0532
   50CHL1  H26B 3695   7.089   0.423   4.245  0.0451  2.1915  0.0395
   50CHL1  H26C 3696   7.053   0.516   4.094 -0.9711 -0.3253 -2.3510
   50CHL1   C27 3697   6.919   0.217   4.202  0.0474 -0.4446  0.3486
   50CHL1  H27A 3698   6.894   0.124   4.147 -0.1503 -0.9736  1.3072
   50CHL1  H27B 3699   7.014   0.201   4.258 -0.3065 -0.2382  1.0144
   50CHL1  H27C 3700   6.835   0.243   4.269  1.3813  0.7252  1.6229
   51CHL1    C3 3701   1.659   0.152   2.703  0.0566 -0.3777 -0.6606
   51CHL1    H3 3702   1.674   0.262   2.698  0.7315 -0.5237 -2.2401
   51CHL1    O3 3703   1.736   0.084   2.601 -0.0677 -0.5646 -0.4646
   51CHL1   H3' 3704   1.725  -0.011   2.612  0.4261 -0.6064 -0.3044
   51CHL1    C4 3705   1.705   0.091   2.841 -0.4810 -0.7056  0.1244
   51CHL1   H4A 3706   1.697  -0.019   2.832  2.1676 -1.0623  1.2328
   51CHL1   H4B 3707   1.813   0.110   2.857 -0.5817  2.1233 -1.7820
   51CHL1    C5 3708   1.611   0.155   2.947  0.5987  0.4469 -0.3794
   51CHL1    C6 3709   1.667   0.204   3.056  0.1208 -0.4050 -0.1743
   51CHL1    H6 3710   1.777   0.210   3.053  0.0623  0.2145 -1.6799
   51CHL1    C7 3711   1.595   0.249   3.175 -0.8774 -0.1089 -0.3773
   51CHL1   H7A 3712   1.633   0.198   3.266 -2.3125  0.3065  0.4764
   51CHL1   H7B 3713   1.603   0.359   3.190 -0.4080 -0.2694  0.6257
   51CHL1    C8 3714   1.442   0.212   3.167 -0.2707 -0.1368  0.3344
   51CHL1    H8 3715   1.437   0.102   3.181  0.5446 -0.0814  1.1797
   51CHL1   C14 3716   1.370   0.300   3.266  0.8208  0.3232  0.2774
   51CHL1   H14 3717   1.381   0.406   3.236 -1.3996  0.0620 -1.7435
   51CHL1   C15 3718   1.407   0.297   3.418 -0.2570 -0.4259  0.4735
   51CHL1  H15A 3719   1.414   0.186   3.428 -2.9190 -0.8051 -1.0331
   51CHL1  H15B 3720   1.496   0.356   3.448 -0.5793  1.4895 -2.0827
   51CHL1   C16 3721   1.278   0.352   3.488  0.1100 -0.2305 -0.0873
   51CHL1  H16A 3722   1.262   0.290   3.579  1.4851  0.0017  0.3352
   51CHL1  H16B 3723   1.294   0.454   3.529 -1.6078  0.2700 -0.5724
   51CHL1   C17 3724   1.161   0.367   3.382  0.7734  0.3395 -0.6683
   51CHL1   H17 3725   1.166   0.468   3.337 -1.8789  0.3670 -1.0260
   51CHL1   C13 3726   1.213   0.280   3.263 -0.3953  0.0781 -0.5894
   51CHL1   C18 3727   1.185   0.128   3.312  0.8701 -0.0502 -0.0117
   51CHL1  H18A 3728   1.202   0.117   3.422  0.8628  2.1493  0.2610
   51CHL1  H18B 3729   1.076   0.112   3.295  0.2955  2.0461  1.3590
   51CHL1  H18C 3730   1.246   0.047   3.268 -1.4676 -0.7352 -2.2457
   51CHL1   C12 3731   1.164   0.314   3.120  0.1614  0.3303 -0.5852
   51CHL1  H12A 3732   1.053   0.316   3.122  0.0029 -1.3162  3.8133
   51CHL1  H12B 3733   1.191   0.422   3.122  0.1669  0.4503  4.3159
   51CHL1   C11 3734   1.227   0.231   3.013 -0.4102 -0.6015  0.0748
   51CHL1  H11A 3735   1.191   0.127   3.029  0.4270 -0.9112  0.0210
   51CHL1  H11B 3736   1.208   0.265   2.909  3.1548 -0.4905 -0.6785
   51CHL1    C9 3737   1.384   0.239   3.026  0.7409 -0.5785  0.4505
   51CHL1    H9 3738   1.405   0.346   3.003 -1.0270 -0.7212 -2.3709
   51CHL1   C10 3739   1.461   0.150   2.917 -0.5432  0.1739 -0.2193
   51CHL1   C19 3740   1.415   0.001   2.924  0.3305 -0.2016 -0.5243
   51CHL1  H19A 3741   1.443  -0.027   3.028 -1.4069 -2.2304 -0.5461
   51CHL1  H19B 3742   1.305  -0.001   2.909  0.0771 -0.9505  1.1861
   51CHL1  H19C 3743   1.455  -0.071   2.849 -0.6616 -0.8535 -0.4491
   51CHL1    C1 3744   1.433   0.202   2.780  0.2819  0.3151  0.2145
   51CHL1   H1A 3745   1.323   0.201   2.764  0.2425 -2.7889  0.1258
   51CHL1   H1B 3746   1.460   0.310   2.779  0.6875  0.2177 -1.3573
   51CHL1    C2 3747   1.512   0.136   2.672  0.1127  1.0148  0.0879
   51CHL1   H2A 3748   1.483   0.181   2.575  1.7292  0.2622 -0.7742
   51CHL1   H2B 3749   1.485   0.028   2.671 -2.2905  1.5753 -0.4034
   51CHL1   C20 3750   1.026   0.329   3.455 -0.1177 -0.1296 -0.0933
   51CHL1   H20 3751   1.021   0.221   3.478 -3.0127 -0.9082 -3.5532
   51CHL1   C21 3752   0.902   0.348   3.363  0.6676  0.2331 -0.4513
   51CHL1  H21A 3753   0.890   0.270   3.284 -0.0922  0.9292 -1.0459
   51CHL1  H21B 3754   0.896   0.450   3.320 -0.8483 -0.4188 -1.9144
   51CHL1  H21C 3755   0.815   0.340   3.432  0.3418 -0.8090 -0.9554
   51CHL1   C22 3756   1.008   0.410   3.585 -0.8767  0.2093 -0.1768
   51CHL1  H22A 3757   0.917   0.378   3.640 -0.0648  1.7556  2.2107
   51CHL1  H22B 3758   1.091   0.393   3.657 -0.4531  0.8934 -0.5004
   51CHL1   C23 3759   1.003   0.561   3.577 -0.8714  0.1352  0.1551
   51CHL1  H23A 3760   1.101   0.589   3.534 -1.5647  0.1548 -1.4752
   51CHL1  H23B 3761   0.918   0.597   3.515  0.8589  0.6778 -2.0061
   51CHL1   C24 3762   0.977   0.633   3.711  0.9966 -0.1320  0.4039
   51CHL1  H24A 3763   0.876   0.601   3.747 -0.9435  2.1830 -2.4956
   51CHL1  H24B 3764   1.069   0.595   3.760  1.8616  1.3109 -0.0486
   51CHL1   C25 3765   0.963   0.783   3.700 -0.2657 -0.5902  0.1666
   51CHL1   H25 3766   1.028   0.810   3.614 -1.8431  1.3291 -0.4876
   51CHL1   C26 3767   0.816   0.837   3.674 -1.2533 -0.3747 -0.1202
   51CHL1  H26A 3768   0.744   0.833   3.759 -1.2563  0.0694 -0.0970
   51CHL1  H26B 3769   0.822   0.947   3.661  0.9510 -0.2576  1.3132
   51CHL1  H26C 3770   0.762   0.778   3.597 -3.4993  0.4176  0.7566
   51CHL1   C27 3771   1.013   0.851   3.826  0.1242  0.3980  0.8018
   51CHL1  H27A 3772   1.023   0.960   3.807 -1.7078  0.6549  1.1102
   51CHL1  H27B 3773   0.948   0.821   3.911  0.3462  0.0213  0.8414
   51CHL1  H27C 3774   1.116   0.818   3.852  0.3543  0.9237  0.5693
   52CHL1    C3 3775   0.674   1.695   2.481 -0.0848  0.2168 -0.9019
   52CHL1    H3 3776   0.784   1.685   2.491 -0.4825 -2.2197  3.3249
   52CHL1    O3 3777   0.631   1.714   2.350 -0.3750 -0.1444 -0.4898
   52CHL1   H3' 3778   0.661   1.635   2.303  1.4559  0.0091  0.3421
   52CHL1    C4 3779   0.615   1.562   2.540  0.6664 -0.9617  0.2119
   52CHL1   H4A 3780   0.505   1.565   2.525  0.8110 -0.6068 -0.8357
   52CHL1   H4B 3781   0.640   1.485   2.464  2.3755 -0.8034  0.5778
   52CHL1    C5 3782   0.660   1.542   2.683 -0.2916 -0.2988  0.0763
   52CHL1    C6 3783   0.733   1.433   2.715 -0.0008 -0.2306  0.0838
   52CHL1    H6 3784   0.762   1.357   2.642  0.5854 -0.2484  0.3276
   52CHL1    C7 3785   0.771   1.408   2.862 -0.2264 -0.3830  0.3113
   52CHL1   H7A 3786   0.755   1.301   2.887  2.0083 -0.9379 -0.3721
   52CHL1   H7B 3787   0.879   1.431   2.873 -0.2599 -0.1502  0.1489
   52CHL1    C8 3788   0.693   1.497   2.969  0.0274 -0.4847  0.2747
   52CHL1    H8 3789   0.592   1.451   2.971 -0.0842 -0.2279  0.6679
   52CHL1   C14 3790   0.754   1.508   3.105 -0.1649  0.0194  0.6608
   52CHL1   H14 3791   0.854   1.555   3.112  0.0978  0.0826 -2.3041
   52CHL1   C15 3792   0.769   1.369   3.172 -0.3776 -0.6755 -0.0275
   52CHL1  H15A 3793   0.678   1.308   3.153 -0.4186 -0.6213 -0.0039
   52CHL1  H15B 3794   0.856   1.305   3.145 -0.0547 -0.8885  1.4431
   52CHL1   C16 3795   0.792   1.410   3.323  0.6276  0.6921  0.5813
   52CHL1  H16A 3796   0.758   1.330   3.392 -0.8996 -1.1868 -2.1512
   52CHL1  H16B 3797   0.900   1.427   3.339  0.5041  1.8595  0.2494
   52CHL1   C17 3798   0.723   1.552   3.345  0.1291  0.5466 -0.4513
   52CHL1   H17 3799   0.799   1.629   3.370 -0.5521  0.7753  1.0580
   52CHL1   C13 3800   0.672   1.589   3.205  0.6208  0.3797 -0.0843
   52CHL1   C18 3801   0.524   1.533   3.201 -0.1139 -0.4740 -0.3237
   52CHL1  H18A 3802   0.447   1.592   3.256 -0.6618  0.0475 -1.5755
   52CHL1  H18B 3803   0.477   1.550   3.101  0.8705 -1.2129 -0.9308
   52CHL1  H18C 3804   0.516   1.426   3.225  1.5134 -0.5955 -0.2181
   52CHL1   C12 3805   0.677   1.740   3.175 -0.1391 -0.4160  0.2213
   52CHL1  H12A 3806   0.606   1.793   3.242 -0.7231 -1.4442  0.4433
   52CHL1  H12B 3807   0.781   1.779   3.185  0.2087 -1.8348  3.0811
   52CHL1   C11 3808   0.628   1.753   3.029  0.0535  0.8593 -0.2484
   52CHL1  H11A 3809   0.517   1.751   3.025  0.0738 -0.7179 -4.4735
   52CHL1  H11B 3810   0.658   1.852   2.988  0.8125  0.6502 -0.2161
   52CHL1    C9 3811   0.683   1.641   2.926 -0.4638 -0.6745 -0.0448
   52CHL1    H9 3812   0.787   1.681   2.927  0.1616 -2.2074  2.1760
   52CHL1   C10 3813   0.627   1.654   2.785  0.3654 -0.5539 -0.6825
   52CHL1   C19 3814   0.478   1.648   2.804 -0.0543 -0.1222  0.1372
   52CHL1  H19A 3815   0.415   1.643   2.713 -0.0251 -1.7166  0.1817
   52CHL1  H19B 3816   0.448   1.565   2.871  0.0600 -0.4634 -0.2306
   52CHL1  H19C 3817   0.448   1.750   2.838  0.1300  0.6587 -1.8911
   52CHL1    C1 3818   0.674   1.787   2.716 -0.8648  0.0527 -0.3287
   52CHL1   H1A 3819   0.647   1.869   2.785 -0.5973  0.3094 -0.5302
   52CHL1   H1B 3820   0.782   1.774   2.738 -1.1912  0.0730  1.4813
   52CHL1    C2 3821   0.634   1.818   2.571 -0.0092  0.1213  1.0835
   52CHL1   H2A 3822   0.677   1.915   2.539  2.3669 -1.3984 -0.6817
   52CHL1   H2B 3823   0.523   1.823   2.568  0.0149  0.5129 -0.9996
   52CHL1   C20 3824   0.629   1.545   3.474  0.3394 -0.6444  0.9521
   52CHL1   H20 3825   0.537   1.486   3.458  0.6450 -1.4410  1.9793
   52CHL1   C21 3826   0.577   1.694   3.500 -0.1084 -0.5504 -0.3203
   52CHL1  H21A 3827   0.531   1.704   3.601 -0.4123  2.3962 -0.6440
   52CHL1  H21B 3828   0.506   1.739   3.428 -0.2906 -0.4943 -0.1054
   52CHL1  H21C 3829   0.662   1.766   3.497 -1.5110  1.1573 -1.2887
   52CHL1   C22 3830   0.703   1.496   3.597 -0.0943 -0.4123  0.4814
   52CHL1  H22A 3831   0.759   1.400   3.582  1.8935  0.8582 -0.6595
   52CHL1  H22B 3832   0.785   1.564   3.627 -0.6069  0.3343  0.2040
   52CHL1   C23 3833   0.610   1.474   3.718 -0.0397  0.2730  0.1999
   52CHL1  H23A 3834   0.551   1.564   3.746 -0.3175 -0.3055  1.5737
   52CHL1  H23B 3835   0.554   1.383   3.687 -0.3475  0.4766  0.1524
   52CHL1   C24 3836   0.686   1.428   3.847  0.1404  0.3356  0.4422
   52CHL1  H24A 3837   0.756   1.510   3.873  0.1092  0.8609 -1.0266
   52CHL1  H24B 3838   0.611   1.412   3.928  0.4812  1.4531  0.9931
   52CHL1   C25 3839   0.774   1.299   3.835  0.0619  0.4726 -0.0749
   52CHL1   H25 3840   0.848   1.322   3.756 -0.4318  0.6152 -0.4968
   52CHL1   C26 3841   0.868   1.272   3.959 -0.1695  0.3407  0.3088
   52CHL1  H26A 3842   0.932   1.184   3.938  0.0144  0.5674 -0.0687
   52CHL1  H26B 3843   0.929   1.362   3.979 -0.5608  0.4692  0.9726
   52CHL1  H26C 3844   0.798   1.261   4.046 -1.3527  0.1886 -0.6341
   52CHL1   C27 3845   0.692   1.178   3.788 -0.2522 -0.2919 -0.0881
   52CHL1  H27A 3846   0.601   1.171   3.851  1.1310 -0.8208  1.9448
   52CHL1  H27B 3847   0.653   1.189   3.685  0.0200  0.3574 -0.1199
   52CHL1  H27C 3848   0.755   1.087   3.799 -0.9434 -0.7018  0.6470
   53CHL1    C3 3849   1.032   5.742   2.635 -0.2397 -0.5812 -0.0637
   53CHL1    H3 3850   1.025   5.848   2.668  0.9988 -0.5805  0.2389
   53CHL1    O3 3851   1.056   5.742   2.494  0.3062 -0.5740 -0.2787
   53CHL1   H3' 3852   0.973   5.717   2.453  0.5815  0.9875 -1.9691
   53CHL1    C4 3853   1.151   5.672   2.704 -0.2890  0.7372 -0.5870
   53CHL1   H4A 3854   1.171   5.573   2.659 -2.6591  0.7698 -1.8387
   53CHL1   H4B 3855   1.250   5.723   2.698  1.7774 -2.7583  0.9158
   53CHL1    C5 3856   1.124   5.661   2.854 -0.1754  0.1765  0.1562
   53CHL1    C6 3857   1.201   5.722   2.952  0.3049  0.2864 -0.4597
   53CHL1    H6 3858   1.284   5.788   2.922  0.7063  0.3911  0.8195
   53CHL1    C7 3859   1.179   5.702   3.104 -1.0188 -0.3207 -0.2156
   53CHL1   H7A 3860   1.273   5.700   3.163 -1.5067  0.7702  0.6545
   53CHL1   H7B 3861   1.130   5.793   3.145 -0.2808 -0.2812  0.6080
   53CHL1    C8 3862   1.100   5.575   3.136 -0.5766 -0.0778 -0.0855
   53CHL1    H8 3863   1.166   5.487   3.124  0.9523  0.7052  1.9555
   53CHL1   C14 3864   1.068   5.582   3.281 -0.0867  0.6365 -0.4596
   53CHL1   H14 3865   1.014   5.676   3.304 -1.4500 -0.6572  2.0583
   53CHL1   C15 3866   1.194   5.579   3.367 -0.2231 -0.0380 -0.2911
   53CHL1  H15A 3867   1.265   5.502   3.331 -0.0280 -0.4093  0.8319
   53CHL1  H15B 3868   1.246   5.677   3.361  1.7143 -0.9385  0.5941
   53CHL1   C16 3869   1.129   5.544   3.502 -0.0016 -0.5687 -0.2587
   53CHL1  H16A 3870   1.184   5.458   3.546  0.0826 -0.5046 -0.2401
   53CHL1  H16B 3871   1.136   5.634   3.567  1.9660 -0.7030 -0.2305
   53CHL1   C17 3872   0.985   5.506   3.481  0.2131 -0.3163 -0.4071
   53CHL1   H17 3873   0.919   5.589   3.513 -0.9564 -1.2807 -0.2231
   53CHL1   C13 3874   0.973   5.479   3.333  0.8329 -0.2635 -0.0514
   53CHL1   C18 3875   1.038   5.343   3.306  0.2939  0.6743 -0.1738
   53CHL1  H18A 3876   1.139   5.341   3.352  1.0644 -1.1754 -1.8131
   53CHL1  H18B 3877   0.973   5.259   3.339  1.0536 -0.4317 -1.4040
   53CHL1  H18C 3878   1.044   5.321   3.197 -2.6902  0.0503 -0.2850
   53CHL1   C12 3879   0.838   5.499   3.263  1.1820 -0.1111  0.3125
   53CHL1  H12A 3880   0.768   5.415   3.281  1.6946 -0.9951 -1.5521
   53CHL1  H12B 3881   0.794   5.600   3.280 -0.9424 -1.1321  1.3038
   53CHL1   C11 3882   0.866   5.482   3.110 -0.8830  0.4096  0.1427
   53CHL1  H11A 3883   0.886   5.375   3.085  0.6102  0.6411  0.2433
   53CHL1  H11B 3884   0.778   5.518   3.053  0.0797  0.6025 -1.2549
   53CHL1    C9 3885   0.971   5.585   3.055  0.3505  0.9909 -0.5166
   53CHL1    H9 3886   0.920   5.683   3.072 -0.4457  0.5511 -0.3392
   53CHL1   C10 3887   0.996   5.580   2.900  0.0849  0.3328 -0.3567
   53CHL1   C19 3888   1.019   5.431   2.861  0.1301  0.8632 -0.1834
   53CHL1  H19A 3889   1.041   5.423   2.752  1.3217 -1.4155  0.1646
   53CHL1  H19B 3890   1.091   5.377   2.926 -0.4490 -0.8336 -0.8951
   53CHL1  H19C 3891   0.916   5.389   2.865 -0.2802  1.8128 -0.2772
   53CHL1    C1 3892   0.880   5.646   2.824  0.2246  0.6992 -0.3340
   53CHL1   H1A 3893   0.780   5.599   2.832  0.8957 -0.9813 -1.3694
   53CHL1   H1B 3894   0.872   5.753   2.853  0.9430  0.0509  2.5685
   53CHL1    C2 3895   0.903   5.667   2.665 -0.3995 -0.4940 -0.4621
   53CHL1   H2A 3896   0.817   5.727   2.627 -0.4929 -0.1187  0.3185
   53CHL1   H2B 3897   0.918   5.566   2.622 -0.5770 -0.6065 -0.2600
   53CHL1   C20 3898   0.948   5.396   3.587  0.1585  0.8390 -0.3290
   53CHL1   H20 3899   0.997   5.297   3.568 -0.2600  0.8355 -1.4344
   53CHL1   C21 3900   0.798   5.358   3.582 -0.0992 -0.0293  0.6591
   53CHL1  H21A 3901   0.790   5.309   3.483  0.9458 -1.8675  1.4500
   53CHL1  H21B 3902   0.745   5.453   3.605  0.1629 -0.1814  1.9831
   53CHL1  H21C 3903   0.769   5.291   3.665  1.5457  0.2811  1.5314
   53CHL1   C22 3904   0.972   5.440   3.739  0.5435  0.7910  0.4539
   53CHL1  H22A 3905   0.959   5.548   3.757 -0.5478  0.6146  0.7687
   53CHL1  H22B 3906   0.887   5.407   3.802 -0.5845 -1.2788 -1.9695
   53CHL1   C23 3907   1.091   5.365   3.809 -0.5838  0.2018  0.6000
   53CHL1  H23A 3908   1.089   5.259   3.776  2.7476  0.4508 -0.6905
   53CHL1  H23B 3909   1.181   5.410   3.763 -0.2166  0.0358  1.1451
   53CHL1   C24 3910   1.083   5.396   3.955  0.0025 -0.6299  0.4793
   53CHL1  H24A 3911   1.067   5.504   3.978  0.1662 -0.2069 -1.2702
   53CHL1  H24B 3912   0.985   5.363   3.997 -0.0411 -0.9306  0.1399
   53CHL1   C25 3913   1.199   5.337   4.043 -0.1109 -0.1750  0.0782
   53CHL1   H25 3914   1.291   5.356   3.983  0.1689  0.2411  0.6316
   53CHL1   C26 3915   1.208   5.410   4.181  0.4031  0.3249 -0.2574
   53CHL1  H26A 3916   1.236   5.512   4.146  0.7790 -0.8670 -3.7972
   53CHL1  H26B 3917   1.115   5.400   4.240  0.6774 -2.0848 -0.1170
   53CHL1  H26C 3918   1.287   5.362   4.242 -0.9458  0.1102  1.3927
   53CHL1   C27 3919   1.181   5.185   4.060  0.1655  0.4267 -0.2351
   53CHL1  H27A 3920   1.122   5.130   3.984 -1.1228  0.1998  0.8910
   53CHL1  H27B 3921   1.280   5.135   4.071 -1.2109 -2.0335  2.0883
   53CHL1  H27C 3922   1.124   5.163   4.153  0.8292 -0.9704 -0.1279
   54CHL1    C3 3923   1.145   4.903   2.812  0.3975 -0.0168  0.0980
   54CHL1    H3 3924   1.145   4.799   2.851 -0.9884 -0.4070 -0.8688
   54CHL1    O3 3925   1.082   4.904   2.685  0.1595  0.1241  0.2422
   54CHL1   H3' 3926   1.057   4.996   2.677 -0.7575 -0.0702  0.7784
   54CHL1    C4 3927   1.070   5.001   2.905 -0.5059  1.0329  0.3636
   54CHL1   H4A 3928   1.062   5.097   2.850  0.0745  0.8300 -0.0738
   54CHL1   H4B 3929   0.964   4.966   2.904  0.0895 -0.9263  0.6267
   54CHL1    C5 3930   1.123   5.010   3.048  0.5177 -0.4648  0.1656
   54CHL1    C6 3931   1.054   4.968   3.163  0.4689 -0.3780  0.4966
   54CHL1    H6 3932   0.948   4.940   3.150  0.2541 -0.2733  1.8782
   54CHL1    C7 3933   1.107   4.964   3.300 -0.8041 -0.1138 -0.0364
   54CHL1   H7A 3934   1.034   5.022   3.361 -0.3746  0.7134 -0.2942
   54CHL1   H7B 3935   1.127   4.861   3.336  0.5446 -0.4815 -1.7017
   54CHL1    C8 3936   1.239   5.039   3.306 -0.3642 -0.5042 -0.1042
   54CHL1    H8 3937   1.211   5.146   3.297 -0.4891 -0.2839  2.1144
   54CHL1   C14 3938   1.310   5.010   3.441  0.2397  0.2757  0.5023
   54CHL1   H14 3939   1.352   4.908   3.429 -0.2293  0.3819 -3.2035
   54CHL1   C15 3940   1.222   5.015   3.565 -0.3031  0.1479  0.6890
   54CHL1  H15A 3941   1.152   5.098   3.542 -0.9507  0.1026  2.3795
   54CHL1  H15B 3942   1.169   4.919   3.584  1.4912 -0.6599  1.8033
   54CHL1   C16 3943   1.313   5.048   3.677  0.2746 -0.4330  0.5784
   54CHL1  H16A 3944   1.289   5.150   3.712 -0.7799  0.3366 -2.1537
   54CHL1  H16B 3945   1.317   4.977   3.763 -1.5086 -1.2406  0.0300
   54CHL1   C17 3946   1.456   5.059   3.610  0.6767 -0.3537 -0.9836
   54CHL1   H17 3947   1.491   4.953   3.609  0.5540 -0.4700  1.7222
   54CHL1   C13 3948   1.427   5.099   3.464 -0.1589  0.2085  0.9377
   54CHL1   C18 3949   1.392   5.246   3.473 -0.1758  0.0628  0.6253
   54CHL1  H18A 3950   1.360   5.284   3.374 -0.0317 -0.9675  0.1799
   54CHL1  H18B 3951   1.302   5.259   3.537  0.0471 -0.5312  1.0728
   54CHL1  H18C 3952   1.469   5.317   3.510 -0.8296  0.5692  1.0442
   54CHL1   C12 3953   1.526   5.066   3.349  0.0986 -0.3722  0.1029
   54CHL1  H12A 3954   1.618   5.129   3.359 -0.3873  0.2376  0.9104
   54CHL1  H12B 3955   1.559   4.961   3.364 -0.6175 -0.7975 -1.1959
   54CHL1   C11 3956   1.475   5.083   3.211  0.3157  0.0280 -0.5645
   54CHL1  H11A 3957   1.458   5.192   3.195 -0.6273  0.2417  1.5210
   54CHL1  H11B 3958   1.540   5.042   3.131 -2.7983 -1.7736 -2.4109
   54CHL1    C9 3959   1.338   5.012   3.193 -0.4613  0.2990  0.4417
   54CHL1    H9 3960   1.362   4.905   3.207 -1.4188  0.0121 -0.0335
   54CHL1   C10 3961   1.274   5.034   3.049 -0.6290 -0.2477 -0.1598
   54CHL1   C19 3962   1.294   5.186   3.011  0.3218 -0.2245 -0.6308
   54CHL1  H19A 3963   1.253   5.246   3.095 -0.8839 -2.6187  0.5651
   54CHL1  H19B 3964   1.399   5.219   2.994 -0.0998  1.8303  0.4627
   54CHL1  H19C 3965   1.237   5.214   2.919 -0.2451 -4.1153 -1.6489
   54CHL1    C1 3966   1.347   4.945   2.948  0.6227 -0.1044 -0.5589
   54CHL1   H1A 3967   1.446   4.996   2.944  0.3051  0.5908  0.0262
   54CHL1   H1B 3968   1.358   4.839   2.980 -1.4067 -0.2612 -0.2387
   54CHL1    C2 3969   1.289   4.947   2.804 -0.2090 -0.5627 -0.1334
   54CHL1   H2A 3970   1.342   4.891   2.724 -2.4596 -1.2972 -1.2020
   54CHL1   H2B 3971   1.273   5.047   2.759 -1.8933 -0.5630  0.4012
   54CHL1   C20 3972   1.560   5.138   3.698 -0.6634 -0.0301  0.3774
   54CHL1   H20 3973   1.505   5.230   3.726  0.4098  0.5345  0.6997
   54CHL1   C21 3974   1.684   5.168   3.618 -0.3110 -0.0073  0.3596
   54CHL1  H21A 3975   1.671   5.247   3.541 -3.2614  1.1392  1.8844
   54CHL1  H21B 3976   1.719   5.074   3.569 -0.2156  0.9937 -1.6226
   54CHL1  H21C 3977   1.763   5.212   3.681 -0.6597  1.8979 -0.4747
   54CHL1   C22 3978   1.580   5.070   3.838  0.1382 -0.2411  0.1153
   54CHL1  H22A 3979   1.478   5.072   3.880 -0.3549 -0.6754 -1.0149
   54CHL1  H22B 3980   1.620   4.967   3.824  3.0959  1.2200 -4.5366
   54CHL1   C23 3981   1.668   5.157   3.929  0.4587  0.2375 -1.1217
   54CHL1  H23A 3982   1.769   5.154   3.883  0.9576 -0.1649 -0.0337
   54CHL1  H23B 3983   1.639   5.263   3.941  1.3917  0.5362 -1.3920
   54CHL1   C24 3984   1.687   5.107   4.075 -0.3458  0.3447 -0.0304
   54CHL1  H24A 3985   1.697   4.997   4.089  1.2273  0.2133 -1.8088
   54CHL1  H24B 3986   1.782   5.148   4.115 -0.4432 -0.1640  0.7492
   54CHL1   C25 3987   1.570   5.159   4.169 -0.0557  0.9484 -0.7347
   54CHL1   H25 3988   1.480   5.176   4.105 -1.2454 -0.9826  0.3491
   54CHL1   C26 3989   1.539   5.049   4.274  0.8256  0.1652  0.5432
   54CHL1  H26A 3990   1.528   4.947   4.232  2.1512 -0.3250  1.3115
   54CHL1  H26B 3991   1.612   5.053   4.358 -0.8411  0.3187  2.0514
   54CHL1  H26C 3992   1.444   5.052   4.332  0.7040 -2.0918  0.5455
   54CHL1   C27 3993   1.608   5.294   4.248 -0.3937  0.6097  0.3877
   54CHL1  H27A 3994   1.590   5.384   4.186 -0.3271 -0.3889 -1.1536
   54CHL1  H27B 3995   1.522   5.299   4.319 -0.1798 -1.4175  0.8632
   54CHL1  H27C 3996   1.707   5.277   4.296 -0.3173  0.8847  0.3290
   55CHL1    C3 3997   3.168   6.399   2.977 -0.0474 -0.0270  0.8270
   55CHL1    H3 3998   3.244   6.480   2.977  1.9738 -1.8287  0.0276
   55CHL1    O3 3999   3.164   6.323   2.853 -0.5657  0.0196  0.2558
   55CHL1   H3' 4000   3.103   6.251   2.872 -0.3613 -0.4682 -0.9084
   55CHL1    C4 4001   3.204   6.295   3.085  0.4850  0.1771 -0.4161
   55CHL1   H4A 4002   3.142   6.204   3.068  0.5607 -0.4051  2.0296
   55CHL1   H4B 4003   3.306   6.259   3.060  0.4040  0.7804 -1.7474
   55CHL1    C5 4004   3.182   6.343   3.228  0.8437  0.0428 -0.5251
   55CHL1    C6 4005   3.283   6.349   3.313 -0.3916  0.0336 -0.6163
   55CHL1    H6 4006   3.380   6.306   3.282 -0.3921 -0.6138  0.2512
   55CHL1    C7 4007   3.279   6.412   3.451  0.5761 -0.3325  0.2548
   55CHL1   H7A 4008   3.337   6.361   3.531 -0.4684 -0.4580  0.9502
   55CHL1   H7B 4009   3.310   6.518   3.438  1.1113 -0.6662 -1.3902
   55CHL1    C8 4010   3.128   6.399   3.496 -0.7176 -0.8272 -0.4806
   55CHL1    H8 4011   3.090   6.298   3.523  0.5932 -1.1151  0.3734
   55CHL1   C14 4012   3.111   6.481   3.631  0.4088  0.4806  0.7379
   55CHL1   H14 4013   3.141   6.583   3.600 -0.0237  0.5620  0.5754
   55CHL1   C15 4014   3.204   6.451   3.757  0.2795 -0.0599 -0.6389
   55CHL1  H15A 4015   3.197   6.348   3.797  0.1715 -0.7753 -2.4127
   55CHL1  H15B 4016   3.307   6.489   3.741  0.5723  0.5445  2.1537
   55CHL1   C16 4017   3.144   6.552   3.863 -0.3926 -0.1362 -0.1154
   55CHL1  H16A 4018   3.141   6.489   3.954  0.0997 -1.2578 -0.8511
   55CHL1  H16B 4019   3.217   6.634   3.880 -1.8965  1.2738 -0.2121
   55CHL1   C17 4020   3.001   6.600   3.806  0.5413 -0.3482  0.2902
   55CHL1   H17 4021   3.011   6.707   3.777  1.2146 -0.2416  0.8708
   55CHL1   C13 4022   2.974   6.502   3.690  0.5832  0.0680  0.2286
   55CHL1   C18 4023   2.918   6.374   3.749  0.0058  0.0423 -0.0461
   55CHL1  H18A 4024   2.937   6.288   3.681  0.6327  0.6198 -0.6168
   55CHL1  H18B 4025   2.968   6.332   3.839  0.1005 -0.4100 -0.3043
   55CHL1  H18C 4026   2.809   6.390   3.758  0.4354  2.4971  2.1551
   55CHL1   C12 4027   2.886   6.559   3.579  0.5875  0.1285 -0.4177
   55CHL1  H12A 4028   2.781   6.552   3.614  0.1327  0.9913 -1.5514
   55CHL1  H12B 4029   2.921   6.664   3.572  2.3928 -0.4121 -0.1849
   55CHL1   C11 4030   2.886   6.481   3.447  0.0115  0.2550 -0.4304
   55CHL1  H11A 4031   2.846   6.379   3.465  0.6686  0.2109  0.9212
   55CHL1  H11B 4032   2.820   6.540   3.380 -1.0427 -1.4975 -0.9903
   55CHL1    C9 4033   3.035   6.463   3.396  0.0256  0.1167  0.5540
   55CHL1    H9 4034   3.073   6.567   3.386  0.3812  0.1683  2.1629
   55CHL1   C10 4035   3.041   6.399   3.256 -0.0844  0.5809 -0.3222
   55CHL1   C19 4036   2.927   6.290   3.252 -0.2190  0.3034 -0.3350
   55CHL1  H19A 4037   2.953   6.212   3.327  0.5410  0.5526 -0.3288
   55CHL1  H19B 4038   2.820   6.319   3.262 -0.8876 -2.2782  0.9598
   55CHL1  H19C 4039   2.917   6.236   3.155 -0.6137  0.8323 -0.5980
   55CHL1    C1 4040   3.008   6.507   3.152 -0.3627  0.4046 -0.6268
   55CHL1   H1A 4041   2.911   6.557   3.169 -0.3953 -0.3570  1.8157
   55CHL1   H1B 4042   3.082   6.589   3.164  0.0520 -0.0552  0.0832
   55CHL1    C2 4043   3.029   6.457   3.008  0.3856  0.1895  0.3429
   55CHL1   H2A 4044   3.005   6.530   2.927  0.2053 -1.4315 -1.1400
   55CHL1   H2B 4045   2.957   6.373   2.997  2.6675 -2.0365  1.3432
   55CHL1   C20 4046   2.891   6.607   3.918 -0.3448 -0.4198 -0.3272
   55CHL1   H20 4047   2.884   6.510   3.970  3.8160 -0.5316  0.4080
   55CHL1   C21 4048   2.754   6.647   3.864  0.1943 -0.0168 -0.7168
   55CHL1  H21A 4049   2.714   6.553   3.820 -0.0650  0.6842 -2.0342
   55CHL1  H21B 4050   2.784   6.715   3.781  1.3605 -1.5403 -1.6040
   55CHL1  H21C 4051   2.681   6.696   3.932 -0.6294  0.2154 -1.7524
   55CHL1   C22 4052   2.940   6.697   4.041 -0.0040  0.3940 -0.3971
   55CHL1  H22A 4053   3.032   6.651   4.082  0.4574  1.4438 -0.2408
   55CHL1  H22B 4054   2.957   6.794   3.990  1.0691 -0.8512 -2.5524
   55CHL1   C23 4055   2.841   6.723   4.151  0.0225 -0.4703  0.2561
   55CHL1  H23A 4056   2.898   6.776   4.231  2.6280 -0.1161 -1.7111
   55CHL1  H23B 4057   2.754   6.783   4.119 -0.6077 -1.8229 -0.6691
   55CHL1   C24 4058   2.778   6.591   4.214  0.1674 -0.2021  0.1188
   55CHL1  H24A 4059   2.701   6.550   4.145  1.3769 -1.4306 -0.5679
   55CHL1  H24B 4060   2.856   6.519   4.248  0.1348 -0.9996 -1.3913
   55CHL1   C25 4061   2.702   6.630   4.342  0.8265  0.4364 -0.5268
   55CHL1   H25 4062   2.653   6.728   4.327 -1.9988 -0.6124  1.0974
   55CHL1   C26 4063   2.601   6.520   4.365 -0.0065  0.0725 -0.4860
   55CHL1  H26A 4064   2.553   6.520   4.465 -1.2010 -0.5967 -1.0335
   55CHL1  H26B 4065   2.520   6.532   4.290  0.7361  0.4995 -1.2409
   55CHL1  H26C 4066   2.658   6.426   4.348 -1.0101 -0.2090 -2.6990
   55CHL1   C27 4067   2.796   6.647   4.464 -0.3862 -0.4685  0.1700
   55CHL1  H27A 4068   2.876   6.723   4.449 -0.3410  0.1301  2.9165
   55CHL1  H27B 4069   2.741   6.685   4.553 -3.6263  0.5221 -2.0590
   55CHL1  H27C 4070   2.836   6.544   4.475 -2.7591 -1.4460  0.2099
   56CHL1    C3 4071   6.206   6.447   2.828  0.0357 -0.2903  0.5178
   56CHL1    H3 4072   6.106   6.491   2.845  0.1010 -0.4326  1.3041
   56CHL1    O3 4073   6.218   6.451   2.685 -0.5689  0.0593 -0.3226
   56CHL1   H3' 4074   6.310   6.471   2.666 -0.2673 -0.6908  0.3078
   56CHL1    C4 4075   6.312   6.534   2.889 -0.3239 -0.0098 -0.4490
   56CHL1   H4A 4076   6.399   6.478   2.850  2.2792  1.3987  2.8643
   56CHL1   H4B 4077   6.313   6.636   2.846  0.3413 -0.1460 -0.7568
   56CHL1    C5 4078   6.298   6.522   3.042  0.1784 -0.3826  0.1243
   56CHL1    C6 4079   6.285   6.634   3.113 -0.2151  0.5294 -0.1788
   56CHL1    H6 4080   6.277   6.727   3.055  0.2737  0.0626 -1.0312
   56CHL1    C7 4081   6.283   6.641   3.259 -0.1879 -0.2049  0.2109
   56CHL1   H7A 4082   6.356   6.710   3.307  1.5942 -1.1386 -1.0802
   56CHL1   H7B 4083   6.179   6.670   3.288 -0.3684  0.3613 -0.9327
   56CHL1    C8 4084   6.324   6.506   3.332  0.0416  0.2778  0.2403
   56CHL1    H8 4085   6.432   6.479   3.322  0.1126  0.9775 -1.0197
   56CHL1   C14 4086   6.276   6.509   3.475 -0.2356 -0.4091 -0.6833
   56CHL1   H14 4087   6.165   6.508   3.473 -0.3681 -1.2703  2.2977
   56CHL1   C15 4088   6.322   6.621   3.568  0.3178 -0.1885  0.2447
   56CHL1  H15A 4089   6.427   6.654   3.552  0.7727 -0.3264  2.6314
   56CHL1  H15B 4090   6.266   6.715   3.549  1.5066  0.1359 -1.9744
   56CHL1   C16 4091   6.315   6.571   3.717 -0.0470  0.1801 -0.1738
   56CHL1  H16A 4092   6.414   6.587   3.765 -0.1034  1.1390 -0.3427
   56CHL1  H16B 4093   6.239   6.619   3.782 -1.2509 -0.9309 -0.7352
   56CHL1   C17 4094   6.254   6.428   3.696 -0.0879 -0.4004 -0.2424
   56CHL1   H17 4095   6.144   6.439   3.685  0.0213 -0.5299 -1.7146
   56CHL1   C13 4096   6.299   6.380   3.553  0.3885  0.0701 -0.6379
   56CHL1   C18 4097   6.445   6.339   3.567  0.1025  0.8312  0.3278
   56CHL1  H18A 4098   6.445   6.234   3.604 -0.2474  1.1599  1.2973
   56CHL1  H18B 4099   6.502   6.334   3.472 -1.9114 -2.1671 -0.8680
   56CHL1  H18C 4100   6.500   6.409   3.635  3.9977  0.9023 -2.5563
   56CHL1   C12 4101   6.228   6.266   3.481  0.3766 -0.2274  0.2663
   56CHL1  H12A 4102   6.252   6.171   3.532  1.6253 -0.2379 -0.3131
   56CHL1  H12B 4103   6.117   6.271   3.488  0.3701  0.0439 -0.0097
   56CHL1   C11 4104   6.271   6.258   3.334 -0.2250  0.7463  0.0206
   56CHL1  H11A 4105   6.375   6.220   3.335 -0.6665 -0.5086  0.5213
   56CHL1  H11B 4106   6.201   6.179   3.299 -1.7886  2.1139 -0.0851
   56CHL1    C9 4107   6.253   6.390   3.260  0.5486  0.1157 -0.0816
   56CHL1    H9 4108   6.143   6.404   3.264  0.2558 -0.0173 -4.0772
   56CHL1   C10 4109   6.294   6.381   3.107  0.0740 -0.6371 -0.3445
   56CHL1   C19 4110   6.443   6.331   3.096  0.5613 -0.7458 -0.1587
   56CHL1  H19A 4111   6.440   6.222   3.113  2.6605 -0.4854  2.4535
   56CHL1  H19B 4112   6.484   6.346   2.993  0.4187 -3.3048 -0.6490
   56CHL1  H19C 4113   6.512   6.383   3.165 -0.4147  1.9968 -1.0896
   56CHL1    C1 4114   6.199   6.295   3.024  0.5011  0.3825 -0.5536
   56CHL1   H1A 4115   6.195   6.195   3.073  1.3534  1.3425  1.5877
   56CHL1   H1B 4116   6.095   6.334   3.030  0.5379  0.4751 -0.5303
   56CHL1    C2 4117   6.227   6.306   2.878  0.5128  0.5488  0.1640
   56CHL1   H2A 4118   6.160   6.238   2.821 -0.7539  0.5163  1.6084
   56CHL1   H2B 4119   6.332   6.275   2.861  0.1708 -0.1058 -0.7991
   56CHL1   C20 4120   6.285   6.334   3.810  0.3125 -0.8024 -0.1414
   56CHL1   H20 4121   6.389   6.298   3.801  1.0970  0.8456  1.5680
   56CHL1   C21 4122   6.190   6.213   3.798  0.1279 -0.1177  0.0145
   56CHL1  H21A 4123   6.237   6.136   3.733 -1.0467 -1.8436  1.0890
   56CHL1  H21B 4124   6.095   6.254   3.758  0.4907  2.6099  1.6826
   56CHL1  H21C 4125   6.178   6.147   3.887  3.8608 -1.8007 -0.5291
   56CHL1   C22 4126   6.269   6.396   3.951 -1.0549  0.9393 -0.0988
   56CHL1  H22A 4127   6.295   6.313   4.019 -1.6596 -1.7073 -2.8569
   56CHL1  H22B 4128   6.349   6.471   3.970  1.7096 -1.4163 -1.6095
   56CHL1   C23 4129   6.129   6.444   3.986 -0.2564 -0.0684  0.1460
   56CHL1  H23A 4130   6.097   6.526   3.918  1.5151 -0.8630 -1.7488
   56CHL1  H23B 4131   6.056   6.363   3.962 -1.1475  0.6509  0.3449
   56CHL1   C24 4132   6.111   6.486   4.131  0.2439 -0.5584 -0.0636
   56CHL1  H24A 4133   6.144   6.398   4.190 -0.8341 -0.6626  0.3965
   56CHL1  H24B 4134   6.180   6.570   4.153  1.1813 -1.0260 -1.0988
   56CHL1   C25 4135   5.967   6.534   4.161  0.2058  0.0569  0.0927
   56CHL1   H25 4136   5.923   6.605   4.088  0.8084  1.7273  1.3107
   56CHL1   C26 4137   5.868   6.418   4.146 -0.5503 -0.1118 -0.2531
   56CHL1  H26A 4138   5.853   6.399   4.038 -1.3162 -1.4110  0.0648
   56CHL1  H26B 4139   5.908   6.333   4.205  0.5073  0.1887 -0.5198
   56CHL1  H26C 4140   5.767   6.445   4.184 -0.0992 -0.0493  0.9446
   56CHL1   C27 4141   5.953   6.604   4.300  0.4144 -0.7220  0.1374
   56CHL1  H27A 4142   5.846   6.632   4.311 -0.2152 -2.5722 -0.8824
   56CHL1  H27B 4143   5.989   6.540   4.383  0.7063  0.3565  0.8571
   56CHL1  H27C 4144   6.002   6.704   4.305 -0.8541 -0.0930  0.2663
   57SAPC     N 4145   0.312   4.138   7.120  0.2546  0.2704 -0.4864
   57SAPC   C12 4146   0.326   4.216   6.997 -0.0571 -0.0064  0.1122
   57SAPC  H12A 4147   0.391   4.301   7.017 -0.4212  0.1283  0.7501
   57SAPC  H12B 4148   0.228   4.254   6.975  0.5484  0.9737 -1.0728
   57SAPC   C13 4149   0.212   4.040   7.110 -0.2781  0.0305 -0.1688
   57SAPC  H13A 4150   0.117   4.085   7.084  0.5885  0.6927 -2.4603
   57SAPC  H13B 4151   0.233   3.978   7.024  0.1401  1.7995 -1.3956
   57SAPC  H13C 4152   0.211   3.969   7.191  1.3959 -0.3838 -0.4679
   57SAPC   C14 4153   0.446   4.071   7.159  1.0331 -0.1913  0.0485
   57SAPC  H14A 4154   0.521   4.146   7.180 -1.0611  1.5287  1.9548
   57SAPC  H14B 4155   0.439   4.014   7.250  1.4300  2.5123  1.9082
   57SAPC  H14C 4156   0.480   4.000   7.085  0.7488 -1.5051  1.1418
   57SAPC   C15 4157   0.270   4.219   7.233 -0.1157 -0.3373  0.4779
   57SAPC  H15A 4158   0.264   4.157   7.322 -0.6733  2.6911  2.7286
   57SAPC  H15B 4159   0.339   4.295   7.265  1.2542 -1.7427  1.0363
   57SAPC  H15C 4160   0.169   4.254   7.227 -0.3652 -1.0598  0.3566
   57SAPC   C11 4161   0.366   4.154   6.866 -0.3719 -0.6543 -0.1355
   57SAPC  H11A 4162   0.471   4.117   6.863  0.1250  0.6246  0.7426
   57SAPC  H11B 4163   0.367   4.243   6.799  3.2444  0.0301  0.6175
   57SAPC     P 4164   0.141   4.094   6.748 -0.2860  0.1322 -0.2430
   57SAPC   O13 4165   0.082   3.971   6.689  0.3156 -0.0723  0.1349
   57SAPC   O14 4166   0.066   4.158   6.860 -0.2006  0.3881  0.4223
   57SAPC   O12 4167   0.278   4.051   6.823  0.6237 -0.1266 -0.2741
   57SAPC   O11 4168   0.189   4.206   6.647  0.1742  0.2996  0.4191
   57SAPC    C1 4169   0.287   4.169   6.549 -0.7772  0.1267 -0.7125
   57SAPC    HA 4170   0.391   4.190   6.580 -0.5958 -2.3972  0.6447
   57SAPC    HB 4171   0.289   4.058   6.539  0.9306 -0.1203  1.5879
   57SAPC    C2 4172   0.249   4.219   6.402 -0.1147 -0.0754 -0.3320
   57SAPC    HS 4173   0.320   4.169   6.333  1.5953  2.9922 -0.9476
   57SAPC   O21 4174   0.257   4.363   6.398 -0.1799 -0.3525  0.2117
   57SAPC   C21 4175   0.388   4.408   6.397  0.6843 -0.0594 -0.3618
   57SAPC   O22 4176   0.488   4.341   6.408 -0.0732 -0.6170 -0.2948
   57SAPC   C22 4177   0.388   4.556   6.373 -0.6248 -0.5027 -0.1578
   57SAPC   H2R 4178   0.345   4.602   6.464 -0.0422  1.1159 -0.6667
   57SAPC   H2S 4179   0.492   4.597   6.366 -0.9955  0.7869  1.3334
   57SAPC    C3 4180   0.098   4.192   6.367  0.3118  0.0590  0.2492
   57SAPC    HX 4181   0.022   4.232   6.437  0.3562  0.7260 -0.0810
   57SAPC    HY 4182   0.084   4.082   6.379  1.0353  0.1837  2.6353
   57SAPC   O31 4183   0.070   4.242   6.232 -0.5216 -0.1906  0.7606
   57SAPC   C31 4184   0.122   4.183   6.127  0.0485 -0.0077 -0.0158
   57SAPC   O32 4185   0.217   4.102   6.123  0.3665 -1.1183  0.5979
   57SAPC   C32 4186   0.029   4.219   6.005 -0.1013  0.1592 -0.1055
   57SAPC   H2X 4187   0.018   4.326   5.980 -2.7949  0.0551  0.3235
   57SAPC   H2Y 4188  -0.073   4.178   6.019  0.2273 -0.1208  1.7618
   57SAPC   C23 4189   0.298   4.610   6.262  0.0147  0.2701 -0.4476
   57SAPC   H3R 4190   0.322   4.718   6.249  2.3627 -0.3016 -1.5166
   57SAPC   H3S 4191   0.194   4.602   6.297  0.2862 -0.0495  0.2934
   57SAPC   C24 4192   0.315   4.548   6.123 -0.3627  0.4298 -0.3827
   57SAPC   H4R 4193   0.228   4.573   6.058 -2.3567  0.3974  2.1004
   57SAPC   H4S 4194   0.323   4.438   6.134 -0.2765  0.4551 -0.1855
   57SAPC   C25 4195   0.445   4.589   6.063  0.0104 -0.0921  0.1338
   57SAPC   H5R 4196   0.533   4.605   6.127 -1.0843  0.3568  1.6062
   57SAPC   C26 4197   0.453   4.634   5.938 -0.5835  0.1389 -0.1727
   57SAPC   H6R 4198   0.555   4.665   5.912 -0.0735 -0.9639  0.4598
   57SAPC   C27 4199   0.348   4.640   5.830  0.4461 -0.3148  0.0446
   57SAPC   H7R 4200   0.258   4.684   5.876 -0.0870  0.2247 -1.4381
   57SAPC   H7S 4201   0.321   4.534   5.812  0.3281 -0.8662  3.0248
   57SAPC   C28 4202   0.394   4.715   5.717  0.3012  0.7428  0.8055
   57SAPC   H8R 4203   0.446   4.810   5.737 -1.4710  2.0165 -0.3143
   57SAPC   C29 4204   0.372   4.683   5.585 -0.1720  0.2094 -0.3186
   57SAPC   H9R 4205   0.421   4.736   5.502  0.4081 -1.7942 -1.3018
   57SAPC  C210 4206   0.298   4.563   5.535  0.3145 -0.1828  0.3381
   57SAPC  H10R 4207   0.230   4.593   5.453  0.4489  2.6110  1.1400
   57SAPC  H10S 4208   0.235   4.521   5.617 -0.5215  0.0215 -0.1872
   57SAPC  C211 4209   0.398   4.461   5.487  0.6099  0.3346  0.2164
   57SAPC  H11R 4210   0.434   4.388   5.560 -0.6440  0.1095  0.6386
   57SAPC  C212 4211   0.461   4.455   5.364  0.7086  0.2612 -0.5875
   57SAPC  H12R 4212   0.525   4.369   5.338  0.2771  0.1549 -1.3172
   57SAPC  C213 4213   0.433   4.553   5.252  0.8549  0.1811 -0.3692
   57SAPC  H13R 4214   0.331   4.598   5.255 -0.1845 -1.6948 -2.8427
   57SAPC  H13S 4215   0.428   4.490   5.160  1.5870  0.1061 -0.3600
   57SAPC  C214 4216   0.538   4.646   5.227 -0.1245 -0.0159  0.3829
   57SAPC  H14R 4217   0.630   4.601   5.187 -0.0897  0.4814 -0.1206
   57SAPC  C215 4218   0.535   4.783   5.241  0.1049 -0.7584  0.0691
   57SAPC  H15R 4219   0.634   4.830   5.250  0.4347 -1.0000 -1.7513
   57SAPC  C216 4220   0.417   4.871   5.271 -0.1745  0.0663  0.7741
   57SAPC  H16R 4221   0.440   4.959   5.335 -0.8015  0.5968  0.2759
   57SAPC  H16S 4222   0.347   4.805   5.327  0.5685 -1.0576  0.4203
   57SAPC  C217 4223   0.354   4.910   5.134 -0.5082  0.2003 -0.0607
   57SAPC  H17R 4224   0.278   4.983   5.168  0.5542  1.5934 -0.5653
   57SAPC  H17S 4225   0.308   4.825   5.079  0.2239  1.4741 -2.8367
   57SAPC  C218 4226   0.450   4.976   5.028  0.3145 -0.2069  0.7997
   57SAPC  H18R 4227   0.512   4.901   4.974  0.4817  0.1954  0.4284
   57SAPC  H18S 4228   0.519   5.047   5.078  0.9387 -2.1592  2.8880
   57SAPC  C219 4229   0.369   5.056   4.917  0.0881 -0.9615 -0.3331
   57SAPC  H19R 4230   0.307   5.137   4.961 -1.2794 -1.4281 -1.3130
   57SAPC  H19S 4231   0.293   4.993   4.865 -0.0201  0.2261 -1.6831
   57SAPC  C220 4232   0.461   5.120   4.811 -0.4717  0.0536 -0.2804
   57SAPC  H20R 4233   0.407   5.174   4.730  1.3534  1.2820 -0.7343
   57SAPC  H20S 4234   0.523   5.039   4.766  0.7735  0.2748  0.9751
   57SAPC  H20T 4235   0.541   5.183   4.856 -1.0610  0.1846  0.6057
   57SAPC   C33 4236   0.086   4.152   5.883  0.4188 -0.0445 -0.1338
   57SAPC   H3X 4237   0.054   4.046   5.886 -1.4219  0.4840 -0.1413
   57SAPC   H3Y 4238   0.196   4.144   5.867  0.8245 -0.4576  2.4382
   57SAPC   C34 4239   0.033   4.220   5.762  0.9836  0.4050  0.3452
   57SAPC   H4X 4240   0.094   4.310   5.741  0.6699  1.1813  2.5905
   57SAPC   H4Y 4241  -0.070   4.254   5.784  2.1916  2.6935  3.0943
   57SAPC   C35 4242   0.024   4.132   5.639 -0.8404 -0.0885  0.2096
   57SAPC   H5X 4243  -0.051   4.050   5.649 -1.4065  0.5558  1.5584
   57SAPC   H5Y 4244   0.122   4.080   5.632  0.0347  1.3491  1.1655
   57SAPC   C36 4245  -0.002   4.221   5.520 -0.9813 -0.1737 -1.1883
   57SAPC   H6X 4246   0.075   4.301   5.520 -2.4033  1.3042  0.3989
   57SAPC   H6Y 4247  -0.100   4.269   5.542 -0.7921  0.9067 -2.5416
   57SAPC   C37 4248  -0.010   4.146   5.386  0.1909 -0.1810  0.5776
   57SAPC   H7X 4249  -0.057   4.222   5.321  2.7297 -0.2203 -1.4898
   57SAPC   H7Y 4250  -0.089   4.068   5.395  0.3761 -0.4319  0.0375
   57SAPC   C38 4251   0.122   4.086   5.334  0.2941  0.5287  0.0731
   57SAPC   H8X 4252   0.149   4.003   5.402 -0.4288  0.3364  0.1330
   57SAPC   H8Y 4253   0.202   4.162   5.332 -0.7133  1.6193 -1.0085
   57SAPC   C39 4254   0.090   4.028   5.208  0.4311 -0.1929  0.2685
   57SAPC   H9X 4255   0.031   4.094   5.140 -1.7312 -1.7021  0.5938
   57SAPC   H9Y 4256   0.018   3.948   5.233 -0.0220 -0.3701 -1.4857
   57SAPC  C310 4257   0.218   3.997   5.127  0.0491 -0.0993  1.0176
   57SAPC  H10X 4258   0.193   3.928   5.044  1.2115 -0.0340  0.5866
   57SAPC  H10Y 4259   0.284   3.946   5.201  0.6163 -1.3678 -0.3256
   57SAPC  C311 4260   0.291   4.118   5.065 -0.2482  0.4728  0.0303
   57SAPC  H11X 4261   0.265   4.215   5.114 -0.7171  0.5465 -0.3543
   57SAPC  H11Y 4262   0.274   4.131   4.956  1.2588  2.7449 -0.0142
   57SAPC  C312 4263   0.443   4.100   5.076  0.0335 -0.6409 -0.0797
   57SAPC  H12X 4264   0.473   4.034   4.992 -0.9465  1.4951 -2.2500
   57SAPC  H12Y 4265   0.470   4.055   5.174 -1.0567 -0.7051  0.2016
   57SAPC  C313 4266   0.523   4.225   5.060  0.4616 -0.3662  0.6139
   57SAPC  H13X 4267   0.629   4.205   5.086  0.5864 -1.1412 -0.4371
   57SAPC  H13Y 4268   0.481   4.304   5.127  0.1851  0.5006 -0.5418
   57SAPC  C314 4269   0.526   4.286   4.915  0.4254  0.4240  0.0562
   57SAPC  H14X 4270   0.423   4.315   4.886  0.2730  1.1693  1.2623
   57SAPC  H14Y 4271   0.564   4.206   4.848 -2.9355 -3.1722  2.0569
   57SAPC  C315 4272   0.607   4.420   4.915  0.1168  0.1804  0.5707
   57SAPC  H15X 4273   0.710   4.395   4.949  0.9142 -1.6835 -2.7282
   57SAPC  H15Y 4274   0.559   4.500   4.974 -0.5064 -0.1621  0.5457
   57SAPC  C316 4275   0.636   4.485   4.772 -0.0528 -0.2014 -0.2199
   57SAPC  H16X 4276   0.547   4.483   4.706  0.0745 -1.4819 -0.3930
   57SAPC  H16Y 4277   0.716   4.427   4.720  0.2667  0.6253 -0.6835
   57SAPC  C317 4278   0.693   4.622   4.798 -0.1175 -0.7244 -0.0174
   57SAPC  H17X 4279   0.754   4.610   4.890  1.3379  0.9792 -0.7011
   57SAPC  H17Y 4280   0.611   4.695   4.818 -0.5330 -1.2255  0.1710
   57SAPC  C318 4281   0.771   4.677   4.688 -0.6361 -0.2019  0.9460
   57SAPC  H18X 4282   0.850   4.608   4.649 -1.2617  0.0464 -0.8354
   57SAPC  H18Y 4283   0.812   4.776   4.715  0.0412 -0.3976  0.6620
   57SAPC  H18Z 4284   0.714   4.682   4.592  2.4958 -1.4465 -1.1509
   58SAPC     N 4285   4.410   4.677   6.650  0.0423  0.3414  0.5251
   58SAPC   C12 4286   4.448   4.636   6.788  0.9003  0.4894 -1.0748
   58SAPC  H12A 4287   4.462   4.530   6.804 -1.4237  0.3142  0.3522
   58SAPC  H12B 4288   4.372   4.651   6.864  0.5495 -3.3578 -0.4680
   58SAPC   C13 4289   4.513   4.663   6.538  0.2028  0.3492  0.0434
   58SAPC  H13A 4290   4.608   4.711   6.560 -0.5708  1.5846  0.8178
   58SAPC  H13B 4291   4.523   4.561   6.504  0.3443  0.4852 -0.3287
   58SAPC  H13C 4292   4.481   4.707   6.445  0.4786 -0.7787 -0.6017
   58SAPC   C14 4293   4.298   4.592   6.602  0.5512 -0.0177 -0.5944
   58SAPC  H14A 4294   4.316   4.489   6.625 -0.4867 -0.5984 -2.2288
   58SAPC  H14B 4295   4.211   4.618   6.662  1.1153 -0.5051  0.4561
   58SAPC  H14C 4296   4.277   4.606   6.497 -1.0782  0.1235 -0.2886
   58SAPC   C15 4297   4.363   4.822   6.649  0.1611  0.0128  0.6107
   58SAPC  H15A 4298   4.269   4.832   6.701 -1.3486 -2.1815 -1.4808
   58SAPC  H15B 4299   4.441   4.887   6.684 -0.2532  0.5742  0.4958
   58SAPC  H15C 4300   4.338   4.849   6.548 -0.1261 -1.1008  0.3624
   58SAPC   C11 4301   4.584   4.679   6.844 -0.5246  0.4614  1.0773
   58SAPC  H11A 4302   4.658   4.649   6.767 -3.3033  1.0924 -2.0413
   58SAPC  H11B 4303   4.605   4.630   6.941 -1.3255  0.8697  1.4719
   58SAPC     P 4304   4.688   4.919   6.817  0.2411 -0.3027 -0.2036
   58SAPC   O13 4305   4.692   5.038   6.909 -0.1293  0.6735 -0.5926
   58SAPC   O14 4306   4.815   4.851   6.800  0.3992  0.6461 -0.4116
   58SAPC   O12 4307   4.579   4.822   6.866 -0.4828  0.5918 -0.0960
   58SAPC   O11 4308   4.631   4.970   6.680 -0.9349  0.6819  0.0548
   58SAPC    C1 4309   4.680   5.100   6.638  0.0934 -0.2631  0.0381
   58SAPC    HA 4310   4.605   5.176   6.668 -1.0427 -2.0615  2.0629
   58SAPC    HB 4311   4.782   5.129   6.670  0.2681  0.2088 -0.9022
   58SAPC    C2 4312   4.712   5.110   6.486  0.5044 -0.2253 -0.2431
   58SAPC    HS 4313   4.763   5.206   6.465  1.7680 -1.0848 -1.2466
   58SAPC   O21 4314   4.591   5.103   6.406 -0.7452 -0.3058 -0.1945
   58SAPC   C21 4315   4.531   5.221   6.400 -0.0411  0.2988 -0.5120
   58SAPC   O22 4316   4.569   5.323   6.459  0.0848  0.0344 -0.0632
   58SAPC   C22 4317   4.415   5.201   6.306  0.2539 -0.7701  0.8923
   58SAPC   H2R 4318   4.434   5.141   6.214 -2.4845 -1.8771  0.9756
   58SAPC   H2S 4319   4.338   5.147   6.364 -3.0391 -1.0461 -3.2954
   58SAPC    C3 4320   4.808   4.990   6.454 -0.4049 -0.6022  0.0319
   58SAPC    HX 4321   4.753   4.896   6.478 -2.3533  0.6008  0.4064
   58SAPC    HY 4322   4.903   5.004   6.511 -0.0691  1.0150 -0.8715
   58SAPC   O31 4323   4.849   4.994   6.311  0.1967 -0.4695 -0.5293
   58SAPC   C31 4324   4.926   4.896   6.273  0.1534 -0.2052  0.5812
   58SAPC   O32 4325   4.963   4.806   6.344  0.3648  0.3680 -0.1982
   58SAPC   C32 4326   4.944   4.901   6.117  0.0784  0.5240 -1.2964
   58SAPC   H2X 4327   5.015   4.985   6.108  2.0274 -0.9624 -0.5959
   58SAPC   H2Y 4328   4.843   4.914   6.074 -0.6045 -0.1234  0.0404
   58SAPC   C23 4329   4.350   5.336   6.260  0.0427 -0.3973 -0.0877
   58SAPC   H3R 4330   4.343   5.408   6.344 -1.7990  1.6006 -1.8156
   58SAPC   H3S 4331   4.247   5.322   6.219  0.6557 -0.7404 -1.5773
   58SAPC   C24 4332   4.419   5.406   6.134  0.0103 -1.0197  0.0870
   58SAPC   H4R 4333   4.527   5.413   6.160  0.0005  0.4215 -0.1971
   58SAPC   H4S 4334   4.376   5.508   6.133 -1.2828 -1.5076  1.3436
   58SAPC   C25 4335   4.410   5.339   6.000  0.6281  0.4055 -0.0168
   58SAPC   H5R 4336   4.366   5.238   5.998  1.6176 -0.0296 -1.7876
   58SAPC   C26 4337   4.452   5.394   5.887 -0.1662  0.8321  0.6297
   58SAPC   H6R 4338   4.432   5.339   5.794 -2.2522 -1.6853  2.4260
   58SAPC   C27 4339   4.499   5.532   5.857  0.4866  0.5858 -0.0656
   58SAPC   H7R 4340   4.582   5.524   5.782 -0.8877 -0.9938 -1.5021
   58SAPC   H7S 4341   4.545   5.583   5.945  2.0809 -2.4284  0.9703
   58SAPC   C28 4342   4.380   5.615   5.810  0.0271 -0.1969  0.3864
   58SAPC   H8R 4343   4.329   5.671   5.888 -0.6898 -0.3379  0.0251
   58SAPC   C29 4344   4.351   5.648   5.682 -0.2255  0.2328 -0.4150
   58SAPC   H9R 4345   4.260   5.708   5.669 -1.0724 -1.1463 -1.1549
   58SAPC  C210 4346   4.435   5.619   5.557  0.5980 -0.9125 -0.6795
   58SAPC  H10R 4347   4.533   5.570   5.577 -0.1479 -1.8225  0.9966
   58SAPC  H10S 4348   4.465   5.716   5.513  1.1162 -0.8223 -0.1524
   58SAPC  C211 4349   4.354   5.538   5.459  0.1528 -0.2124 -0.6673
   58SAPC  H11R 4350   4.261   5.498   5.502 -0.7375  1.0526 -1.3609
   58SAPC  C212 4351   4.392   5.519   5.332  0.1268 -0.2613 -0.0689
   58SAPC  H12R 4352   4.322   5.470   5.263 -0.7310  3.1074 -1.7980
   58SAPC  C213 4353   4.519   5.566   5.266  0.4060  0.0038  0.0259
   58SAPC  H13R 4354   4.582   5.476   5.252  3.6642  2.2709 -1.1782
   58SAPC  H13S 4355   4.577   5.625   5.339  0.4199 -1.1222  0.9506
   58SAPC  C214 4356   4.494   5.642   5.139  0.2111  0.0322  0.3273
   58SAPC  H14R 4357   4.437   5.737   5.142 -1.4307 -0.9169  0.7680
   58SAPC  C215 4358   4.525   5.596   5.017  0.1703  0.0486 -0.5399
   58SAPC  H15R 4359   4.486   5.649   4.930  2.4755  1.5511 -0.7323
   58SAPC  C216 4360   4.599   5.468   4.976  0.3222  0.1145  0.5185
   58SAPC  H16R 4361   4.562   5.375   5.024  0.5762 -1.1131 -1.5091
   58SAPC  H16S 4362   4.710   5.472   4.988  0.1622 -1.6086  3.3849
   58SAPC  C217 4363   4.578   5.439   4.822  0.4800 -0.0303 -0.6022
   58SAPC  H17R 4364   4.626   5.524   4.770  4.0223 -3.3109 -3.3264
   58SAPC  H17S 4365   4.474   5.433   4.784  0.6976  0.4693 -1.2943
   58SAPC  C218 4366   4.645   5.313   4.769 -0.5964 -0.2554  0.4037
   58SAPC  H18R 4367   4.596   5.221   4.808 -2.4712  0.0553 -1.0350
   58SAPC  H18S 4368   4.752   5.305   4.796 -0.1606  0.6629 -0.9751
   58SAPC  C219 4369   4.642   5.290   4.615  0.5251  0.3502 -0.3750
   58SAPC  H19R 4370   4.532   5.280   4.598  0.2543 -0.7895  1.8052
   58SAPC  H19S 4371   4.685   5.192   4.586  0.9807 -0.0331  1.5047
   58SAPC  C220 4372   4.706   5.397   4.532  0.1104 -0.0449  0.5198
   58SAPC  H20R 4373   4.816   5.395   4.545 -0.0824 -2.0723  2.3906
   58SAPC  H20S 4374   4.668   5.500   4.554 -1.3523 -0.9062  2.3129
   58SAPC  H20T 4375   4.685   5.381   4.424  1.5508  0.2488  0.1816
   58SAPC   C33 4376   5.014   4.785   6.047 -0.0489 -0.7128 -0.2154
   58SAPC   H3X 4377   4.972   4.692   6.090 -3.1896  0.8000  0.2866
   58SAPC   H3Y 4378   5.123   4.793   6.069 -0.7059  0.0221  3.4029
   58SAPC   C34 4379   4.991   4.805   5.894  0.0549  0.0894  0.2904
   58SAPC   H4X 4380   5.036   4.898   5.853  2.3649 -1.3738 -0.6550
   58SAPC   H4Y 4381   4.882   4.813   5.875  0.5659  2.1417 -2.3227
   58SAPC   C35 4382   5.071   4.702   5.809  0.0572 -0.5725  0.5336
   58SAPC   H5X 4383   5.036   4.601   5.839 -0.6431  0.3930  3.2862
   58SAPC   H5Y 4384   5.177   4.698   5.841  0.6570 -0.6545 -1.3698
   58SAPC   C36 4385   5.049   4.737   5.659 -0.3678 -0.6743  0.5328
   58SAPC   H6X 4386   4.940   4.755   5.651 -0.8011 -2.2112  2.1209
   58SAPC   H6Y 4387   5.067   4.640   5.608 -2.6345 -1.9291  1.9495
   58SAPC   C37 4388   5.142   4.858   5.616 -0.7483 -0.2266  0.4858
   58SAPC   H7X 4389   5.252   4.842   5.628 -0.5464  0.0825 -0.7214
   58SAPC   H7Y 4390   5.126   4.945   5.683  1.5705  3.0101 -2.6925
   58SAPC   C38 4391   5.126   4.903   5.472 -0.5340 -0.4644  0.3014
   58SAPC   H8X 4392   5.029   4.952   5.450  0.6241  1.1809 -1.5334
   58SAPC   H8Y 4393   5.141   4.811   5.411  1.5006  0.1789 -0.2751
   58SAPC   C39 4394   5.237   5.008   5.431 -0.3008  0.3125  0.0759
   58SAPC   H9X 4395   5.289   4.975   5.338 -1.9970 -0.0077 -0.8024
   58SAPC   H9Y 4396   5.319   5.013   5.506 -0.6191  0.6110  0.4068
   58SAPC  C310 4397   5.185   5.149   5.402  0.0032  0.1616  0.2937
   58SAPC  H10X 4398   5.122   5.179   5.487 -1.2154  1.2427 -0.9460
   58SAPC  H10Y 4399   5.126   5.141   5.308  0.6244  1.4111 -0.2233
   58SAPC  C311 4400   5.300   5.252   5.392  0.1834  0.2877  0.2718
   58SAPC  H11X 4401   5.363   5.235   5.482  0.7081 -2.2901 -0.4907
   58SAPC  H11Y 4402   5.248   5.349   5.398  0.2822  0.6142 -2.5151
   58SAPC  C312 4403   5.385   5.235   5.268 -0.0140  0.1658 -0.7315
   58SAPC  H12X 4404   5.449   5.145   5.270 -1.7468 -1.1190 -0.1221
   58SAPC  H12Y 4405   5.460   5.316   5.278  0.1899 -0.1472  0.4498
   58SAPC  C313 4406   5.311   5.238   5.136 -0.8218 -0.2253 -0.2680
   58SAPC  H13X 4407   5.260   5.337   5.127  0.9734  0.6995 -0.5775
   58SAPC  H13Y 4408   5.228   5.164   5.128 -0.7359 -0.2683 -0.7813
   58SAPC  C314 4409   5.416   5.218   5.030  0.2545 -0.0892  0.3252
   58SAPC  H14X 4410   5.436   5.111   5.008 -0.1596  0.2376 -1.8720
   58SAPC  H14Y 4411   5.509   5.273   5.055 -0.7359  1.8628 -0.0986
   58SAPC  C315 4412   5.367   5.269   4.893 -0.1836  0.6717  0.4196
   58SAPC  H15X 4413   5.452   5.297   4.828 -1.0998  5.5746  0.9847
   58SAPC  H15Y 4414   5.308   5.361   4.913 -1.0965 -0.1556  1.6935
   58SAPC  C316 4415   5.290   5.161   4.810  0.0003 -0.2385  0.6645
   58SAPC  H16X 4416   5.251   5.220   4.724 -0.0954 -0.9791  0.1939
   58SAPC  H16Y 4417   5.201   5.127   4.867 -0.5129  0.9804  0.6388
   58SAPC  C317 4418   5.379   5.052   4.749  0.1655 -0.0578  0.0329
   58SAPC  H17X 4419   5.415   5.003   4.843 -1.4049  0.0755  0.7287
   58SAPC  H17Y 4420   5.472   5.089   4.701  0.5230 -1.1048 -0.0930
   58SAPC  C318 4421   5.307   4.944   4.664  0.7252  0.4601 -0.3318
   58SAPC  H18X 4422   5.363   4.849   4.648 -0.6277 -0.4593  0.2477
   58SAPC  H18Y 4423   5.280   4.985   4.564  4.6032  0.8263 -1.4059
   58SAPC  H18Z 4424   5.214   4.918   4.718  1.9364 -0.1798  1.5389
   59SAPC     N 4425   3.048   1.187   6.466  0.1250  0.2819  0.8605
   59SAPC   C12 4426   3.103   1.296   6.553 -0.7684  0.2688 -0.6606
   59SAPC  H12A 4427   3.186   1.255   6.608 -1.8500 -0.5458  0.4106
   59SAPC  H12B 4428   3.030   1.318   6.630 -0.5983 -1.6091  0.0985
   59SAPC   C13 4429   3.159   1.146   6.376  0.4957 -0.2273  0.2941
   59SAPC  H13A 4430   3.186   1.234   6.321 -1.5327 -0.8773 -1.9351
   59SAPC  H13B 4431   3.240   1.114   6.440 -0.1181 -0.2972  1.0607
   59SAPC  H13C 4432   3.134   1.076   6.297 -0.1322  0.4267 -0.1025
   59SAPC   C14 4433   3.028   1.069   6.559  0.3903 -0.1311  0.3250
   59SAPC  H14A 4434   2.999   0.978   6.509  0.4059  0.3131 -0.5090
   59SAPC  H14B 4435   3.116   1.054   6.621  0.5432  1.5397  0.5794
   59SAPC  H14C 4436   2.947   1.094   6.626  0.5399 -2.0527  1.2898
   59SAPC   C15 4437   2.921   1.229   6.398 -0.1230  0.9613 -0.1293
   59SAPC  H15A 4438   2.889   1.162   6.320 -1.7870 -1.0784  2.1489
   59SAPC  H15B 4439   2.836   1.228   6.465 -0.7935  0.3798 -0.9746
   59SAPC  H15C 4440   2.933   1.329   6.359  2.6693  0.4490 -0.8134
   59SAPC   C11 4441   3.140   1.435   6.491 -0.3629 -0.0879  0.4091
   59SAPC  H11A 4442   3.173   1.493   6.580 -1.6469  2.8483 -0.8974
   59SAPC  H11B 4443   3.055   1.496   6.453 -0.8778  1.2961  3.4741
   59SAPC     P 4444   3.385   1.433   6.412 -0.3109 -1.2299 -0.0403
   59SAPC   O13 4445   3.409   1.394   6.554  0.3183  0.4575  0.4021
   59SAPC   O14 4446   3.456   1.357   6.310  0.0111 -0.0416  0.0328
   59SAPC   O12 4447   3.237   1.424   6.388 -0.5277 -0.1457 -0.4864
   59SAPC   O11 4448   3.422   1.587   6.401  0.3119  0.5814  0.5899
   59SAPC    C1 4449   3.340   1.668   6.309 -0.0903  0.0475  0.0207
   59SAPC    HA 4450   3.232   1.655   6.333 -0.1874  0.1322 -0.3524
   59SAPC    HB 4451   3.360   1.777   6.321  0.4237  0.0493 -0.7678
   59SAPC    C2 4452   3.365   1.634   6.156  0.1152  0.0429 -0.6594
   59SAPC    HS 4453   3.347   1.524   6.153  0.1186  0.0051  0.3909
   59SAPC   O21 4454   3.504   1.679   6.137  0.4173 -0.0321 -0.5121
   59SAPC   C21 4455   3.564   1.596   6.047 -0.4026 -0.2156 -0.8785
   59SAPC   O22 4456   3.514   1.506   5.988  0.2289 -0.1301  0.4822
   59SAPC   C22 4457   3.714   1.615   6.045  0.9616 -0.4229 -0.5915
   59SAPC   H2R 4458   3.753   1.642   6.145 -0.0059  1.4031 -0.6782
   59SAPC   H2S 4459   3.756   1.514   6.024  1.5413 -0.7689  1.9193
   59SAPC    C3 4460   3.262   1.707   6.073  0.3807  0.1992 -0.0738
   59SAPC    HX 4461   3.284   1.814   6.094 -1.8452  0.3961  1.7128
   59SAPC    HY 4462   3.156   1.693   6.104  0.3043 -0.1655 -0.4973
   59SAPC   O31 4463   3.270   1.690   5.929  0.1315 -0.0881  0.6520
   59SAPC   C31 4464   3.197   1.590   5.876  0.3245 -0.5142 -0.0704
   59SAPC   O32 4465   3.129   1.515   5.944  0.5246 -0.1139  0.4301
   59SAPC   C32 4466   3.212   1.580   5.723  0.6660  0.2187 -0.2932
   59SAPC   H2X 4467   3.253   1.478   5.708  1.6729  0.6639 -0.6169
   59SAPC   H2Y 4468   3.284   1.660   5.694  0.7861  0.1192 -0.2692
   59SAPC   C23 4469   3.769   1.710   5.937  0.9199  0.1455  0.2688
   59SAPC   H3R 4470   3.750   1.655   5.842 -1.3664  3.8562 -1.6310
   59SAPC   H3S 4471   3.879   1.718   5.948  0.9465  0.3371 -0.1383
   59SAPC   C24 4472   3.705   1.844   5.932  0.5624 -0.0994  0.1381
   59SAPC   H4R 4473   3.764   1.889   5.849  0.5304 -0.4493 -0.0765
   59SAPC   H4S 4474   3.750   1.889   6.022  1.5907 -0.7924 -0.0115
   59SAPC   C25 4475   3.562   1.876   5.891 -0.0285  0.1099  0.8919
   59SAPC   H5R 4476   3.493   1.887   5.976  0.3597 -1.4447  1.4563
   59SAPC   C26 4477   3.516   1.873   5.762 -0.6021  0.2759 -0.0505
   59SAPC   H6R 4478   3.410   1.899   5.746 -0.6290  1.5242  1.8823
   59SAPC   C27 4479   3.595   1.849   5.632  0.3146  0.4303  0.1579
   59SAPC   H7R 4480   3.702   1.835   5.660  0.8023 -1.9201 -2.3737
   59SAPC   H7S 4481   3.603   1.941   5.570 -0.1355  0.1848 -0.2676
   59SAPC   C28 4482   3.559   1.724   5.549 -0.2291 -0.2093 -0.1490
   59SAPC   H8R 4483   3.542   1.631   5.605  1.7139 -0.5618 -0.0754
   59SAPC   C29 4484   3.543   1.718   5.420 -0.5521 -0.4922  0.4433
   59SAPC   H9R 4485   3.515   1.622   5.376 -2.7861 -0.9645  2.6625
   59SAPC  C210 4486   3.557   1.830   5.321  0.1901  0.3303  0.0777
   59SAPC  H10R 4487   3.655   1.824   5.269 -0.0474  1.0408 -0.4769
   59SAPC  H10S 4488   3.558   1.929   5.373 -1.0055 -0.5029  1.7848
   59SAPC  C211 4489   3.447   1.838   5.220 -0.3350 -0.6964 -0.2672
   59SAPC  H11R 4490   3.352   1.886   5.251 -0.7644  0.3351 -2.9494
   59SAPC  C212 4491   3.463   1.788   5.098  0.9630  0.3455  0.9705
   59SAPC  H12R 4492   3.386   1.803   5.022  2.4889  1.1431 -0.4964
   59SAPC  C213 4493   3.569   1.691   5.043 -0.0723  0.9084 -0.7034
   59SAPC  H13R 4494   3.534   1.597   4.995  0.6922 -0.7404  1.7996
   59SAPC  H13S 4495   3.640   1.661   5.122 -0.5779  2.4556  0.3777
   59SAPC  C214 4496   3.649   1.751   4.938 -1.1469 -0.3368 -0.3089
   59SAPC  H14R 4497   3.714   1.837   4.964 -1.4963 -1.0599  3.6329
   59SAPC  C215 4498   3.636   1.713   4.811 -0.2586 -0.3977  0.0996
   59SAPC  H15R 4499   3.702   1.748   4.731  1.7273 -0.8358  1.4642
   59SAPC  C216 4500   3.558   1.598   4.755 -0.6041  0.4616  0.1770
   59SAPC  H16R 4501   3.456   1.635   4.732 -0.1047  1.3257 -0.6907
   59SAPC  H16S 4502   3.550   1.509   4.822  1.7111  1.2807  1.6527
   59SAPC  C217 4503   3.634   1.561   4.621 -0.0181  0.6597  0.5009
   59SAPC  H17R 4504   3.735   1.533   4.658  0.7127  2.3680 -0.0901
   59SAPC  H17S 4505   3.643   1.645   4.549  2.1039  0.8427  0.9036
   59SAPC  C218 4506   3.557   1.455   4.561  0.7975  0.7081  0.4398
   59SAPC  H18R 4507   3.450   1.485   4.562  1.1159  2.0582 -1.3052
   59SAPC  H18S 4508   3.560   1.373   4.636 -0.6189 -0.7265 -0.9914
   59SAPC  C219 4509   3.599   1.397   4.427 -0.0572 -0.2991 -0.2057
   59SAPC  H19R 4510   3.705   1.371   4.447  0.1578  0.1470 -0.7525
   59SAPC  H19S 4511   3.591   1.474   4.348  0.0201  0.4255  0.4783
   59SAPC  C220 4512   3.530   1.270   4.389  0.0303 -0.0299 -0.0672
   59SAPC  H20R 4513   3.583   1.217   4.307 -0.6068 -1.1575  0.2264
   59SAPC  H20S 4514   3.426   1.286   4.356  0.3787  0.1414 -1.0934
   59SAPC  H20T 4515   3.522   1.209   4.482 -3.8639 -2.5143 -1.8106
   59SAPC   C33 4516   3.081   1.608   5.643 -0.3996  0.2139  0.2500
   59SAPC   H3X 4517   3.013   1.678   5.696 -1.2832  0.8264 -1.5871
   59SAPC   H3Y 4518   3.020   1.516   5.629 -1.6399  0.9770  0.4288
   59SAPC   C34 4519   3.123   1.668   5.507  0.3244  0.6235 -0.2089
   59SAPC   H4X 4520   3.194   1.601   5.455  1.0669  0.6263  0.7824
   59SAPC   H4Y 4521   3.172   1.765   5.531  0.1771  1.0896 -1.6511
   59SAPC   C35 4522   3.000   1.686   5.422  0.3576 -0.2758  0.3223
   59SAPC   H5X 4523   2.926   1.736   5.488 -0.9132 -0.7024 -0.7420
   59SAPC   H5Y 4524   2.966   1.585   5.390  0.8746  0.1003 -1.5450
   59SAPC   C36 4525   3.038   1.770   5.295  0.0695  0.2462  0.3837
   59SAPC   H6X 4526   3.135   1.736   5.252 -1.7297 -4.1106 -0.7220
   59SAPC   H6Y 4527   3.047   1.879   5.316 -1.2733  0.6392 -0.9429
   59SAPC   C37 4528   2.922   1.765   5.191 -0.5159 -0.4196 -0.0755
   59SAPC   H7X 4529   2.826   1.753   5.246  0.1728  1.4657  1.6960
   59SAPC   H7Y 4530   2.938   1.680   5.121  0.3983  1.0079 -1.6839
   59SAPC   C38 4531   2.916   1.898   5.124 -0.1489 -0.5414 -0.3179
   59SAPC   H8X 4532   3.017   1.920   5.083  0.0351  0.8810  0.7858
   59SAPC   H8Y 4533   2.898   1.982   5.195 -1.8930 -0.0947 -1.2199
   59SAPC   C39 4534   2.800   1.907   5.026  0.5626 -0.2734  0.3706
   59SAPC   H9X 4535   2.711   1.879   5.087 -1.2869  2.2024 -1.0376
   59SAPC   H9Y 4536   2.810   1.833   4.944 -1.1667 -0.9692  0.7389
   59SAPC  C310 4537   2.769   2.045   4.978  0.3856 -0.0080 -0.3526
   59SAPC  H10X 4538   2.866   2.096   4.956 -0.1517  0.3357 -2.0324
   59SAPC  H10Y 4539   2.732   2.105   5.064  1.1556  0.8931 -0.6260
   59SAPC  C311 4540   2.675   2.058   4.859 -0.1015 -0.5055 -0.1222
   59SAPC  H11X 4541   2.583   2.002   4.885 -1.8195  2.5267  0.8091
   59SAPC  H11Y 4542   2.722   2.009   4.771 -0.3630  0.3464 -0.7525
   59SAPC  C312 4543   2.619   2.193   4.826 -0.2753 -0.2004 -0.4671
   59SAPC  H12X 4544   2.541   2.216   4.902  0.5525  0.5431  0.1838
   59SAPC  H12Y 4545   2.558   2.187   4.734 -0.3275 -2.5767 -0.3418
   59SAPC  C313 4546   2.719   2.307   4.820  0.4292 -0.7113 -0.2972
   59SAPC  H13X 4547   2.786   2.281   4.736 -0.4227 -2.8171 -0.4117
   59SAPC  H13Y 4548   2.782   2.314   4.912  0.2233 -2.1802 -0.0145
   59SAPC  C314 4549   2.640   2.436   4.787  0.0657  0.1892 -1.0572
   59SAPC  H14X 4550   2.582   2.466   4.877  2.2159  0.4334  0.3280
   59SAPC  H14Y 4551   2.562   2.412   4.713 -1.3946  1.8221 -0.1208
   59SAPC  C315 4552   2.723   2.553   4.740 -0.1663 -0.5937 -0.6123
   59SAPC  H15X 4553   2.758   2.528   4.638 -1.2061 -0.5937 -0.9780
   59SAPC  H15Y 4554   2.809   2.554   4.811 -1.1011  0.8453  0.5671
   59SAPC  C316 4555   2.672   2.694   4.731  0.6758 -0.4365  0.0893
   59SAPC  H16X 4556   2.746   2.760   4.681  1.2597 -0.8694  0.3679
   59SAPC  H16Y 4557   2.657   2.722   4.838  0.3228  0.0741 -0.0931
   59SAPC  C317 4558   2.546   2.716   4.653 -0.2663 -0.4506  0.2051
   59SAPC  H17X 4559   2.466   2.655   4.700 -2.0385 -0.6086 -2.7385
   59SAPC  H17Y 4560   2.565   2.663   4.558  2.5643 -2.1363  1.5701
   59SAPC  C318 4561   2.499   2.865   4.630 -0.2004 -0.3281 -0.3066
   59SAPC  H18X 4562   2.458   2.923   4.715  0.8948  1.3896 -0.9129
   59SAPC  H18Y 4563   2.422   2.854   4.551  0.2075  2.6006 -1.2454
   59SAPC  H18Z 4564   2.583   2.923   4.585 -0.6781  2.0634  1.6625
   60SAPC     N 4565   3.396   1.817   7.031 -0.2212  0.4449 -0.3767
   60SAPC   C12 4566   3.437   1.944   6.954  0.0164 -0.1047 -0.0036
   60SAPC  H12A 4567   3.344   1.997   6.941 -0.5640 -0.8510  0.9355
   60SAPC  H12B 4568   3.481   1.921   6.858 -1.0683 -0.0085 -0.5402
   60SAPC   C13 4569   3.349   1.862   7.166  0.3025 -0.4037  0.4800
   60SAPC  H13A 4570   3.257   1.920   7.160  0.1817 -0.3068  2.5249
   60SAPC  H13B 4571   3.324   1.771   7.218  1.5476 -1.0148  0.0517
   60SAPC  H13C 4572   3.430   1.917   7.210 -0.7626  2.3601 -0.7709
   60SAPC   C14 4573   3.297   1.740   6.949  0.0197  0.1260  0.6075
   60SAPC  H14A 4574   3.192   1.760   6.963  0.0462 -0.4385  1.7984
   60SAPC  H14B 4575   3.329   1.749   6.847  0.0187 -1.0839  0.4910
   60SAPC  H14C 4576   3.307   1.637   6.979 -0.3946 -0.1670 -0.2205
   60SAPC   C15 4577   3.501   1.713   7.057  0.5773  0.8149 -0.3924
   60SAPC  H15A 4578   3.531   1.662   6.967 -0.6196  1.7129 -1.3476
   60SAPC  H15B 4579   3.589   1.764   7.093  1.7623 -1.9962  0.9369
   60SAPC  H15C 4580   3.470   1.640   7.130 -0.9700  2.3256  0.5520
   60SAPC   C11 4581   3.534   2.035   7.025  0.1961  0.1506 -0.2661
   60SAPC  H11A 4582   3.491   2.061   7.124 -2.4369 -4.9937  0.2267
   60SAPC  H11B 4583   3.548   2.127   6.964  1.1909 -0.5365 -1.1047
   60SAPC     P 4584   3.794   1.994   6.952 -0.1224 -1.1727  0.0620
   60SAPC   O13 4585   3.859   2.111   7.017 -0.4000 -0.2936  0.5904
   60SAPC   O14 4586   3.865   1.868   6.935  0.0275 -0.5661 -0.0003
   60SAPC   O12 4587   3.661   1.970   7.038  0.2464  0.5514 -0.0312
   60SAPC   O11 4588   3.735   2.039   6.810 -0.5098  0.5519 -0.1370
   60SAPC    C1 4589   3.688   1.929   6.727  0.4289 -0.3444  0.0217
   60SAPC    HA 4590   3.671   1.833   6.779 -0.4505 -0.0276  0.3206
   60SAPC    HB 4591   3.596   1.969   6.680 -1.5974 -2.5047  1.9314
   60SAPC    C2 4592   3.789   1.903   6.614 -0.8883 -0.2629  0.2482
   60SAPC    HS 4593   3.880   1.876   6.671 -1.1982  1.7608  1.8307
   60SAPC   O21 4594   3.818   2.027   6.538 -0.2296 -0.3463  0.0481
   60SAPC   C21 4595   3.940   2.070   6.520  0.8220 -0.2963  0.8014
   60SAPC   O22 4596   4.038   2.008   6.546  0.4692 -0.2119  0.9402
   60SAPC   C22 4597   3.931   2.209   6.461 -0.1768  0.9520 -1.0537
   60SAPC   H2R 4598   3.839   2.254   6.503  0.0481  1.4492 -1.0889
   60SAPC   H2S 4599   4.016   2.262   6.508 -0.3787 -1.1668  2.0412
   60SAPC    C3 4600   3.745   1.779   6.525  0.5787 -0.2977 -0.0389
   60SAPC    HX 4601   3.661   1.827   6.472  0.5428  1.5213  1.5567
   60SAPC    HY 4602   3.689   1.706   6.588 -2.2858  1.0456 -0.8535
   60SAPC   O31 4603   3.838   1.721   6.429 -0.2988  0.4539  0.3848
   60SAPC   C31 4604   3.925   1.633   6.480 -0.2189  0.4619  0.2957
   60SAPC   O32 4605   3.948   1.614   6.598  0.3115 -0.5397 -0.2923
   60SAPC   C32 4606   3.977   1.555   6.356  0.3438  0.2033  0.3120
   60SAPC   H2X 4607   3.912   1.577   6.269  0.0930  0.9356  0.6794
   60SAPC   H2Y 4608   3.970   1.445   6.371  0.9564  0.0287 -0.5838
   60SAPC   C23 4609   3.945   2.224   6.311  0.3785  0.3974  0.1325
   60SAPC   H3R 4610   3.843   2.198   6.274 -0.3893  0.2310  2.1881
   60SAPC   H3S 4611   4.025   2.170   6.257 -0.0516  1.9560 -2.2155
   60SAPC   C24 4612   3.955   2.377   6.271 -0.4568  0.1615 -0.2917
   60SAPC   H4R 4613   3.873   2.439   6.315  1.1411  0.9241  1.7763
   60SAPC   H4S 4614   3.952   2.383   6.160 -1.7222 -0.4931 -0.3085
   60SAPC   C25 4615   4.081   2.443   6.325 -0.8458  0.2111 -0.3134
   60SAPC   H5R 4616   4.061   2.485   6.425 -1.7498  0.7542 -0.7108
   60SAPC   C26 4617   4.200   2.467   6.261  0.0847 -0.0172  0.1996
   60SAPC   H6R 4618   4.286   2.497   6.324  0.0761 -1.0901  0.7423
   60SAPC   C27 4619   4.237   2.422   6.122  0.4728  0.7290 -0.2144
   60SAPC   H7R 4620   4.240   2.312   6.106  0.8822  0.8683 -1.1760
   60SAPC   H7S 4621   4.342   2.454   6.111  0.8438  0.0635  1.1481
   60SAPC   C28 4622   4.158   2.499   6.023  0.0407 -0.1267 -0.5308
   60SAPC   H8R 4623   4.060   2.539   6.050 -0.6909 -2.0601 -0.1147
   60SAPC   C29 4624   4.178   2.489   5.892 -0.5592 -0.0309  0.3256
   60SAPC   H9R 4625   4.104   2.533   5.825 -1.0043  0.2347  0.9792
   60SAPC  C210 4626   4.289   2.424   5.816 -0.2723 -0.3744  0.2194
   60SAPC  H10R 4627   4.335   2.350   5.885  2.6297 -1.7918 -2.9267
   60SAPC  H10S 4628   4.366   2.499   5.787 -0.3315 -0.6383 -0.6726
   60SAPC  C211 4629   4.251   2.354   5.685  0.8814  0.2517 -0.1566
   60SAPC  H11R 4630   4.190   2.266   5.714  0.2905  1.0086  0.9917
   60SAPC  C212 4631   4.291   2.366   5.558 -0.1328  0.0283  0.0139
   60SAPC  H12R 4632   4.246   2.302   5.481  1.6119  0.3704 -1.3623
   60SAPC  C213 4633   4.367   2.484   5.498  0.5003 -0.2526 -0.3321
   60SAPC  H13R 4634   4.407   2.559   5.569 -1.4938  3.5323 -2.8969
   60SAPC  H13S 4635   4.296   2.546   5.440  0.0586 -0.6337 -0.2078
   60SAPC  C214 4636   4.466   2.431   5.402 -0.0654  0.0519 -0.0122
   60SAPC  H14R 4637   4.567   2.446   5.443  0.5131 -3.8155  0.4123
   60SAPC  C215 4638   4.456   2.397   5.269  0.3287 -0.3383  0.2873
   60SAPC  H15R 4639   4.537   2.349   5.213  0.6413 -0.5063  0.8707
   60SAPC  C216 4640   4.329   2.411   5.183  0.1112 -0.2799 -0.0594
   60SAPC  H16R 4641   4.248   2.445   5.251  2.0824  2.3937  1.1048
   60SAPC  H16S 4642   4.297   2.309   5.152  0.0190 -0.5491  0.9172
   60SAPC  C217 4643   4.341   2.503   5.056  0.4416 -0.2223  0.6658
   60SAPC  H17R 4644   4.429   2.469   4.998  0.1178 -0.4556  0.3092
   60SAPC  H17S 4645   4.371   2.605   5.087  0.3926  0.4789 -1.4448
   60SAPC  C218 4646   4.219   2.502   4.964 -0.3587 -0.9668  0.1070
   60SAPC  H18R 4647   4.134   2.554   5.013 -1.2457 -0.8436 -1.5256
   60SAPC  H18S 4648   4.186   2.398   4.945 -2.8002  0.1372 -2.1910
   60SAPC  C219 4649   4.254   2.569   4.828 -0.0974 -0.2492  0.1697
   60SAPC  H19R 4650   4.333   2.512   4.774 -2.5035 -1.7143 -2.0663
   60SAPC  H19S 4651   4.302   2.668   4.846 -0.6875 -0.3428  2.5754
   60SAPC  C220 4652   4.134   2.582   4.728 -0.3563 -0.1886 -0.2264
   60SAPC  H20R 4653   4.160   2.650   4.645 -0.8647 -0.2481 -0.4444
   60SAPC  H20S 4654   4.042   2.626   4.771  1.4097  0.4893  3.1668
   60SAPC  H20T 4655   4.100   2.485   4.685 -1.3152 -0.5547  1.2737
   60SAPC   C33 4656   4.129   1.594   6.311 -0.1746  0.6316  0.7538
   60SAPC   H3X 4657   4.153   1.567   6.206 -1.4315  0.3694  0.5168
   60SAPC   H3Y 4658   4.190   1.529   6.377 -2.3376  0.2540  2.5088
   60SAPC   C34 4659   4.158   1.745   6.333 -0.3810  0.0876  0.0326
   60SAPC   H4X 4660   4.266   1.771   6.334 -0.6964  1.5101  0.5063
   60SAPC   H4Y 4661   4.126   1.778   6.434 -2.1001  0.6717 -0.6584
   60SAPC   C35 4662   4.092   1.838   6.232 -0.6207  0.4273  0.8083
   60SAPC   H5X 4663   4.110   1.944   6.257 -0.5656  0.6422 -0.1360
   60SAPC   H5Y 4664   3.985   1.813   6.223 -0.4526 -0.0894  0.1267
   60SAPC   C36 4665   4.144   1.816   6.088 -0.1348 -0.7966  0.3074
   60SAPC   H6X 4666   4.126   1.709   6.061  0.2931 -0.8462  0.2159
   60SAPC   H6Y 4667   4.253   1.836   6.095  0.0822  0.5051 -3.8041
   60SAPC   C37 4668   4.091   1.912   5.975  0.5046  0.1604 -0.0051
   60SAPC   H7X 4669   4.075   2.016   6.012  1.0445  1.0192 -2.0360
   60SAPC   H7Y 4670   3.986   1.887   5.949  0.6408  0.6196 -1.0310
   60SAPC   C38 4671   4.172   1.901   5.844 -0.1004  0.1393  0.6354
   60SAPC   H8X 4672   4.167   1.794   5.813 -3.0650  0.0971  0.9254
   60SAPC   H8Y 4673   4.277   1.932   5.858  0.2139 -0.7200  0.2503
   60SAPC   C39 4674   4.098   1.970   5.725  1.3479  0.1776 -0.6837
   60SAPC   H9X 4675   4.086   2.076   5.757 -1.3849  0.3006 -1.8872
   60SAPC   H9Y 4676   3.997   1.928   5.710  0.4894  1.0195  2.0987
   60SAPC  C310 4677   4.176   1.965   5.591 -0.1670 -0.1469  0.4213
   60SAPC  H10X 4678   4.214   1.863   5.569  2.4076  0.9927 -0.8287
   60SAPC  H10Y 4679   4.269   2.025   5.597 -0.5394  0.3716  1.0653
   60SAPC  C311 4680   4.099   2.016   5.471  0.2469 -0.9421 -0.2200
   60SAPC  H11X 4681   4.088   2.123   5.496  1.5945 -1.0133  0.7627
   60SAPC  H11Y 4682   4.000   1.970   5.450  0.8946 -1.9119 -1.2548
   60SAPC  C312 4683   4.188   1.994   5.344 -0.0062  0.2316  0.1263
   60SAPC  H12X 4684   4.208   1.884   5.346 -0.4537  0.1647  1.3669
   60SAPC  H12Y 4685   4.279   2.058   5.341 -0.1517  0.5227  1.4687
   60SAPC  C313 4686   4.117   2.025   5.205 -0.5530 -0.0123  0.1350
   60SAPC  H13X 4687   4.184   1.978   5.130 -1.9067 -0.5895 -0.7524
   60SAPC  H13Y 4688   4.128   2.135   5.191 -0.3355  0.0070  0.4458
   60SAPC  C314 4689   3.972   1.987   5.181  0.2602 -0.3885  0.5354
   60SAPC  H14X 4690   3.901   2.016   5.261 -1.0122 -2.1651  0.1457
   60SAPC  H14Y 4691   3.974   1.876   5.177 -2.9200 -0.5448  0.7411
   60SAPC  C315 4692   3.908   2.034   5.053 -0.5530  1.1241  0.0749
   60SAPC  H15X 4693   3.922   2.140   5.020  1.0509  0.9053 -0.0442
   60SAPC  H15Y 4694   3.800   2.010   5.058 -0.5217  0.8613 -0.4765
   60SAPC  C316 4695   3.970   1.962   4.933 -0.0248  0.1124  0.1744
   60SAPC  H16X 4696   3.941   1.856   4.949 -2.3289  0.5448 -0.6621
   60SAPC  H16Y 4697   4.080   1.974   4.929  0.4978 -2.6482  2.7308
   60SAPC  C317 4698   3.905   2.002   4.799 -0.7243 -0.5551  0.4212
   60SAPC  H17X 4699   3.931   2.109   4.786 -0.7974 -0.2180  2.6788
   60SAPC  H17Y 4700   3.795   1.992   4.793 -0.7328  0.1547 -1.6821
   60SAPC  C318 4701   3.965   1.936   4.667  0.1189  0.5302 -0.0157
   60SAPC  H18X 4702   3.945   1.826   4.663 -0.5356  0.6393  0.2236
   60SAPC  H18Y 4703   4.073   1.962   4.664  0.6425 -1.4426  0.2684
   60SAPC  H18Z 4704   3.922   1.982   4.575 -1.2749  1.0471  0.8686
   61SAPC     N 4705   2.452   0.956   6.292 -0.0508  0.1688 -0.0007
   61SAPC   C12 4706   2.565   1.047   6.227  0.1301 -0.9141 -0.3493
   61SAPC  H12A 4707   2.662   1.002   6.238  0.5969  0.4738  1.6179
   61SAPC  H12B 4708   2.579   1.136   6.286  0.8045 -4.1672  5.0926
   61SAPC   C13 4709   2.326   1.032   6.302  0.4234 -0.1415 -0.3450
   61SAPC  H13A 4710   2.328   1.123   6.361  0.7930 -1.3555  1.6217
   61SAPC  H13B 4711   2.315   1.068   6.201 -1.4437  0.0836 -0.1032
   61SAPC  H13C 4712   2.240   0.977   6.339 -1.2345  0.8970 -2.4417
   61SAPC   C14 4713   2.438   0.831   6.218  1.0799 -0.5122 -1.3199
   61SAPC  H14A 4714   2.392   0.851   6.122 -1.0752  0.1945 -0.2090
   61SAPC  H14B 4715   2.530   0.775   6.213  1.2109 -0.4229 -0.1144
   61SAPC  H14C 4716   2.371   0.770   6.276  1.4936  1.7708  1.8207
   61SAPC   C15 4717   2.498   0.928   6.427 -0.2809 -0.2782  0.3603
   61SAPC  H15A 4718   2.530   1.014   6.484  1.2773  0.3791 -1.4160
   61SAPC  H15B 4719   2.424   0.876   6.486  1.1982  0.6107  3.2266
   61SAPC  H15C 4720   2.587   0.867   6.423 -2.4141 -3.7151  1.0533
   61SAPC   C11 4721   2.559   1.084   6.082  0.2110 -0.2442 -0.1419
   61SAPC  H11A 4722   2.521   0.996   6.025 -1.5004  2.0342 -2.8443
   61SAPC  H11B 4723   2.654   1.114   6.033 -0.1288  0.2518 -0.5168
   61SAPC     P 4724   2.502   1.336   6.104  0.0997  0.3182 -0.0684
   61SAPC   O13 4725   2.383   1.418   6.077 -0.3728  0.0208  0.0963
   61SAPC   O14 4726   2.537   1.331   6.248  0.1390 -0.1354  0.1904
   61SAPC   O12 4727   2.468   1.192   6.054  0.3660 -0.1329 -0.3689
   61SAPC   O11 4728   2.625   1.390   6.015 -0.0330 -0.1967  0.5584
   61SAPC    C1 4729   2.607   1.437   5.882 -0.1427 -0.5238  0.6204
   61SAPC    HA 4730   2.704   1.435   5.829 -0.0590  2.8841  0.4062
   61SAPC    HB 4731   2.531   1.381   5.823 -1.3806  0.8898  0.8204
   61SAPC    C2 4732   2.574   1.586   5.869 -0.8278  0.0827 -0.2743
   61SAPC    HS 4733   2.483   1.596   5.932 -0.5994  1.3426 -0.1203
   61SAPC   O21 4734   2.548   1.610   5.724  0.4094 -0.0173 -0.8403
   61SAPC   C21 4735   2.424   1.595   5.681 -0.2166 -0.2880 -0.0486
   61SAPC   O22 4736   2.325   1.562   5.744 -0.5484 -0.0922 -0.2757
   61SAPC   C22 4737   2.414   1.629   5.530 -0.0073 -0.3398 -0.8441
   61SAPC   H2R 4738   2.346   1.557   5.480  0.3559 -0.1724 -1.6057
   61SAPC   H2S 4739   2.361   1.727   5.533  0.6978  0.0240  1.2560
   61SAPC    C3 4740   2.680   1.694   5.919  0.0461  0.5168  0.4173
   61SAPC    HX 4741   2.769   1.703   5.854 -1.3090 -1.4194 -1.8961
   61SAPC    HY 4742   2.729   1.649   6.009  0.1228  2.4901  1.4012
   61SAPC   O31 4743   2.615   1.818   5.942 -0.2207  0.0522 -0.3119
   61SAPC   C31 4744   2.603   1.897   5.832 -0.3127 -0.7055  0.1978
   61SAPC   O32 4745   2.668   1.874   5.734 -0.0766 -0.3403 -0.7365
   61SAPC   C32 4746   2.517   2.023   5.856  0.4947  0.4110 -0.0798
   61SAPC   H2X 4747   2.586   2.095   5.905 -0.4455 -0.4875  2.7286
   61SAPC   H2Y 4748   2.444   1.983   5.930  0.1290 -0.0617 -0.6859
   61SAPC   C23 4749   2.542   1.659   5.453 -0.2867  0.0919  0.3464
   61SAPC   H3R 4750   2.622   1.709   5.512 -0.4668  0.4152  0.3180
   61SAPC   H3S 4751   2.515   1.731   5.373 -2.1854  1.7802  2.3645
   61SAPC   C24 4752   2.597   1.537   5.371 -0.4499  0.3720  0.4211
   61SAPC   H4R 4753   2.671   1.569   5.295 -1.2877  0.4729 -0.3700
   61SAPC   H4S 4754   2.515   1.486   5.316 -0.7695 -1.2293  2.2658
   61SAPC   C25 4755   2.665   1.429   5.458  1.2265 -1.0507 -0.2694
   61SAPC   H5R 4756   2.751   1.463   5.518 -0.1261  0.7265  0.7840
   61SAPC   C26 4757   2.621   1.303   5.476  0.1999 -0.5243 -0.9217
   61SAPC   H6R 4758   2.675   1.241   5.549 -0.0225 -2.8046 -2.5595
   61SAPC   C27 4759   2.510   1.220   5.412  0.7608 -0.0036  0.0229
   61SAPC   H7R 4760   2.552   1.121   5.384  0.5563 -0.5585  1.6017
   61SAPC   H7S 4761   2.465   1.280   5.330  0.2002 -0.9352 -0.3661
   61SAPC   C28 4762   2.404   1.205   5.520 -0.0092  0.5201  0.4418
   61SAPC   H8R 4763   2.375   1.297   5.572 -0.3117  0.6168  0.1042
   61SAPC   C29 4764   2.352   1.091   5.565 -0.7328  0.4889 -0.0708
   61SAPC   H9R 4765   2.295   1.096   5.659  0.4783  0.8887  0.6801
   61SAPC  C210 4766   2.393   0.952   5.509 -0.0853 -0.3913 -0.4191
   61SAPC  H10R 4767   2.458   0.915   5.591  2.3934  0.4519 -1.9048
   61SAPC  H10S 4768   2.457   0.956   5.418 -1.5423  0.0814 -1.4635
   61SAPC  C211 4769   2.264   0.864   5.497 -0.1914  0.1273  0.2971
   61SAPC  H11R 4770   2.217   0.830   5.590 -0.8353 -0.4827 -0.2313
   61SAPC  C212 4771   2.194   0.831   5.383 -0.3716  0.2335  0.1791
   61SAPC  H12R 4772   2.094   0.785   5.379 -1.0211  1.6151 -0.0529
   61SAPC  C213 4773   2.232   0.878   5.245  0.4366  1.1652  0.0836
   61SAPC  H13R 4774   2.244   0.791   5.178  3.3756  0.9037  0.8315
   61SAPC  H13S 4775   2.336   0.915   5.250  0.4022  1.2721  0.0127
   61SAPC  C214 4776   2.136   0.974   5.177 -0.1017  0.3016  0.0647
   61SAPC  H14R 4777   2.048   0.990   5.241  0.0289 -0.5585  0.4748
   61SAPC  C215 4778   2.156   1.035   5.064 -0.2317 -0.8916  0.4535
   61SAPC  H15R 4779   2.084   1.112   5.032  2.2396  1.3637  0.0267
   61SAPC  C216 4780   2.284   1.018   4.981  0.6336 -0.2523  0.0478
   61SAPC  H16R 4781   2.253   0.984   4.880 -0.9717  0.6707  0.1851
   61SAPC  H16S 4782   2.357   0.943   5.017  2.6948 -0.9581 -4.7913
   61SAPC  C217 4783   2.363   1.142   4.981 -0.6399 -0.2326  0.0777
   61SAPC  H17R 4784   2.451   1.123   4.916 -0.9551 -1.7866  0.0672
   61SAPC  H17S 4785   2.390   1.158   5.088 -1.4795  0.1269  0.2454
   61SAPC  C218 4786   2.299   1.273   4.923  0.3803  0.2454 -0.0452
   61SAPC  H18R 4787   2.226   1.313   4.996 -1.6296 -0.6744 -1.4328
   61SAPC  H18S 4788   2.255   1.255   4.823 -0.0472  2.5114 -0.3252
   61SAPC  C219 4789   2.408   1.383   4.901  0.8915  0.1616 -0.1365
   61SAPC  H19R 4790   2.472   1.351   4.817 -0.5213 -0.4378 -1.0195
   61SAPC  H19S 4791   2.466   1.389   4.996 -0.6460 -0.4667  0.8718
   61SAPC  C220 4792   2.343   1.520   4.874  0.6164  0.0520  0.6179
   61SAPC  H20R 4793   2.413   1.602   4.904  2.7581 -0.9737 -1.2235
   61SAPC  H20S 4794   2.246   1.532   4.926  0.0339 -1.4351 -0.0674
   61SAPC  H20T 4795   2.328   1.528   4.764 -2.2656 -0.9666  0.8674
   61SAPC   C33 4796   2.456   2.084   5.730 -0.0714  0.3665  1.4648
   61SAPC   H3X 4797   2.368   2.147   5.752 -0.1233 -0.4419  3.7780
   61SAPC   H3Y 4798   2.427   1.999   5.665 -2.5262 -0.2070  3.1876
   61SAPC   C34 4799   2.558   2.176   5.645  0.1565  0.8429 -0.2139
   61SAPC   H4X 4800   2.663   2.139   5.643 -0.2559 -0.7477  2.5083
   61SAPC   H4Y 4801   2.562   2.270   5.704 -0.1465 -0.3838  1.8453
   61SAPC   C35 4802   2.520   2.212   5.503 -0.1142 -0.1297 -0.7646
   61SAPC   H5X 4803   2.413   2.241   5.496 -0.5432 -1.7237 -1.0831
   61SAPC   H5Y 4804   2.544   2.122   5.443 -0.4233 -0.6929 -0.0649
   61SAPC   C36 4805   2.601   2.334   5.442  0.6328 -0.3554 -0.4504
   61SAPC   H6X 4806   2.704   2.343   5.484  0.1236  0.3181  0.7056
   61SAPC   H6Y 4807   2.564   2.434   5.475 -0.1949 -1.1967  1.2843
   61SAPC   C37 4808   2.626   2.304   5.297  0.6878  0.0987  0.1780
   61SAPC   H7X 4809   2.543   2.283   5.227  2.8550  0.2090 -2.5720
   61SAPC   H7Y 4810   2.675   2.204   5.303 -0.0998 -0.2222  2.5192
   61SAPC   C38 4811   2.707   2.404   5.210 -0.0945 -0.0169  0.0214
   61SAPC   H8X 4812   2.702   2.358   5.109 -0.7636  0.7120 -0.2850
   61SAPC   H8Y 4813   2.815   2.400   5.238  0.1772 -2.1841 -1.1386
   61SAPC   C39 4814   2.654   2.550   5.215  0.9023  1.0498  0.5444
   61SAPC   H9X 4815   2.732   2.609   5.163 -0.5117  2.4710 -0.0458
   61SAPC   H9Y 4816   2.665   2.573   5.323  2.1508 -2.2313  1.2170
   61SAPC  C310 4817   2.514   2.582   5.159  0.4002  0.2567  0.5415
   61SAPC  H10X 4818   2.434   2.539   5.223 -0.2689  0.3659 -0.2022
   61SAPC  H10Y 4819   2.493   2.536   5.060  0.9110  1.5691 -0.2065
   61SAPC  C311 4820   2.498   2.732   5.135 -0.1230 -0.1970  0.3855
   61SAPC  H11X 4821   2.593   2.759   5.085 -0.6129  2.0230  0.5846
   61SAPC  H11Y 4822   2.481   2.790   5.228 -0.1211  1.4865 -0.6327
   61SAPC  C312 4823   2.382   2.772   5.039 -0.1163 -0.1386  0.0079
   61SAPC  H12X 4824   2.406   2.747   4.934 -0.6768 -1.5641  0.1969
   61SAPC  H12Y 4825   2.360   2.881   5.043 -0.2008 -0.1198 -0.8916
   61SAPC  C313 4826   2.245   2.701   5.059  0.0401 -0.0053  0.0283
   61SAPC  H13X 4827   2.207   2.706   5.163  0.4481  0.5010  0.1497
   61SAPC  H13Y 4828   2.279   2.595   5.051  1.8784  0.4917  0.8058
   61SAPC  C314 4829   2.139   2.728   4.957  0.1001  0.3610  0.8374
   61SAPC  H14X 4830   2.106   2.834   4.967 -2.3369 -0.4317  2.0060
   61SAPC  H14Y 4831   2.049   2.666   4.979  0.6186 -1.7040 -2.3005
   61SAPC  C315 4832   2.188   2.695   4.812  0.8034 -1.0191  0.0188
   61SAPC  H15X 4833   2.254   2.606   4.823 -0.4939 -2.1564 -1.0042
   61SAPC  H15Y 4834   2.251   2.775   4.769  1.3547 -2.6439 -2.3965
   61SAPC  C316 4835   2.062   2.660   4.725  0.1431 -0.1217 -0.0499
   61SAPC  H16X 4836   2.010   2.751   4.689 -0.0078 -0.4254 -0.6077
   61SAPC  H16Y 4837   1.986   2.601   4.781  0.2361 -1.6973 -1.5284
   61SAPC  C317 4838   2.099   2.572   4.605 -0.1540 -0.6693 -0.0826
   61SAPC  H17X 4839   2.004   2.565   4.548 -0.7838 -2.2977  1.1064
   61SAPC  H17Y 4840   2.127   2.472   4.644  3.3265  0.4837  0.7800
   61SAPC  C318 4841   2.218   2.630   4.517  0.1916 -0.7403  0.3838
   61SAPC  H18X 4842   2.320   2.604   4.553  1.8309  1.3838 -2.3090
   61SAPC  H18Y 4843   2.200   2.739   4.505 -3.3245 -1.2578 -0.0563
   61SAPC  H18Z 4844   2.202   2.585   4.417  1.5963  0.9229 -0.6266
   62SAPC     N 4845   5.199   1.042   7.188  0.1381 -0.5880  0.1235
   62SAPC   C12 4846   5.291   0.921   7.157  0.3534 -0.6885  0.4153
   62SAPC  H12A 4847   5.260   0.835   7.214 -0.9608 -0.7684 -0.3776
   62SAPC  H12B 4848   5.393   0.955   7.165 -0.5732  2.4907  0.1128
   62SAPC   C13 4849   5.062   0.995   7.162  0.3215 -0.2473  0.3136
   62SAPC  H13A 4850   5.040   0.900   7.207 -0.9562 -1.9318 -3.5170
   62SAPC  H13B 4851   4.989   1.067   7.195  1.4252  1.9163 -1.6681
   62SAPC  H13C 4852   5.042   0.987   7.056  1.4247  0.4456  0.0298
   62SAPC   C14 4853   5.219   1.087   7.334  0.3471 -0.6009  0.1045
   62SAPC  H14A 4854   5.139   1.153   7.364 -0.1993 -0.1706 -2.1078
   62SAPC  H14B 4855   5.220   1.004   7.404  2.3196 -1.9594 -1.4137
   62SAPC  H14C 4856   5.311   1.144   7.332 -0.0316  0.0114  0.1767
   62SAPC   C15 4857   5.232   1.163   7.107  0.0814 -0.2953 -0.3223
   62SAPC  H15A 4858   5.209   1.147   7.002 -1.3825  0.1246 -0.0870
   62SAPC  H15B 4859   5.169   1.244   7.138 -1.9863 -1.0765 -2.2289
   62SAPC  H15C 4860   5.338   1.185   7.114 -0.1545  0.5702  0.7489
   62SAPC   C11 4861   5.278   0.862   7.012  0.4479  0.3988 -0.5136
   62SAPC  H11A 4862   5.179   0.817   6.992  1.0922 -0.9110 -0.8861
   62SAPC  H11B 4863   5.343   0.772   7.021  1.1022  0.8421 -0.7519
   62SAPC     P 4864   5.349   0.925   6.769  0.0288  0.1119  0.3175
   62SAPC   O13 4865   5.419   1.043   6.718  0.3217  0.3500  0.2691
   62SAPC   O14 4866   5.414   0.791   6.752  0.2628 -0.5616 -0.3344
   62SAPC   O12 4867   5.332   0.951   6.919  0.0055  0.3390  0.2920
   62SAPC   O11 4868   5.204   0.927   6.705  0.2346 -0.2406 -0.5307
   62SAPC    C1 4869   5.094   1.017   6.733 -0.0344  0.4472  0.2091
   62SAPC    HA 4870   5.013   0.956   6.780  0.5775 -2.1736 -1.9050
   62SAPC    HB 4871   5.130   1.104   6.792  0.9118  0.3153 -0.1684
   62SAPC    C2 4872   5.038   1.083   6.606  0.4069 -0.3611  0.2921
   62SAPC    HS 4873   4.969   1.152   6.657 -0.0878 -1.7162  1.5222
   62SAPC   O21 4874   4.961   0.992   6.526 -0.0676  0.0606  0.2334
   62SAPC   C21 4875   4.869   1.043   6.446 -0.6394 -0.2747 -0.4960
   62SAPC   O22 4876   4.826   1.154   6.446  1.0694 -0.6235  0.5686
   62SAPC   C22 4877   4.816   0.936   6.352 -0.4424 -0.2781  0.6397
   62SAPC   H2R 4878   4.759   0.865   6.417 -0.2392 -0.7822  0.2727
   62SAPC   H2S 4879   4.759   1.006   6.287  0.9815  0.3337  0.0062
   62SAPC    C3 4880   5.153   1.152   6.525 -0.5480 -0.2647  0.4226
   62SAPC    HX 4881   5.228   1.071   6.511 -1.0018 -0.8896  1.4781
   62SAPC    HY 4882   5.212   1.216   6.594 -0.2538 -1.7404  1.5887
   62SAPC   O31 4883   5.104   1.210   6.400 -0.4015  0.6511 -0.2496
   62SAPC   C31 4884   5.059   1.340   6.415 -1.0167 -0.1791 -1.2647
   62SAPC   O32 4885   5.029   1.396   6.522  0.1019  0.2799  0.2329
   62SAPC   C32 4886   5.068   1.407   6.281  0.2216  0.2014 -0.5830
   62SAPC   H2X 4887   5.094   1.327   6.208  3.1168  0.6272 -0.1482
   62SAPC   H2Y 4888   5.161   1.467   6.289 -0.0605  0.5216  0.4087
   62SAPC   C23 4889   4.920   0.852   6.266  0.0510 -0.2511 -0.5794
   62SAPC   H3R 4890   4.876   0.755   6.235 -0.0861 -1.0805  1.9828
   62SAPC   H3S 4891   5.005   0.820   6.330  1.5025 -0.1618 -2.3633
   62SAPC   C24 4892   4.983   0.940   6.160 -0.0915  0.3718 -0.1721
   62SAPC   H4R 4893   5.043   1.015   6.216  0.2513 -1.1711  1.6625
   62SAPC   H4S 4894   4.905   0.988   6.097  1.6134 -0.0159 -2.6958
   62SAPC   C25 4895   5.070   0.865   6.064  0.7028  0.3016  0.4007
   62SAPC   H5R 4896   5.155   0.815   6.113 -0.6166 -2.1528  0.3448
   62SAPC   C26 4897   5.058   0.860   5.929  0.3400  0.0947 -0.9724
   62SAPC   H6R 4898   5.143   0.806   5.886  1.8680 -2.0859  3.9604
   62SAPC   C27 4899   4.948   0.904   5.840  0.3705  0.0031  0.5711
   62SAPC   H7R 4900   4.847   0.914   5.885 -0.8335 -1.5354 -1.5999
   62SAPC   H7S 4901   4.938   0.824   5.763  0.1535  0.8362 -0.2785
   62SAPC   C28 4902   4.980   1.038   5.779 -0.9006 -0.5863 -0.2204
   62SAPC   H8R 4903   4.992   1.114   5.857  1.4612 -0.4267 -0.6415
   62SAPC   C29 4904   4.985   1.067   5.646 -0.5977 -0.0188 -0.0845
   62SAPC   H9R 4905   5.005   1.171   5.617  2.8212 -0.8110 -0.9554
   62SAPC  C210 4906   4.958   0.964   5.538  0.8056  0.5596  0.2080
   62SAPC  H10R 4907   4.982   0.862   5.576 -4.2463 -0.3768  1.6793
   62SAPC  H10S 4908   5.016   0.977   5.444 -0.9622 -0.1679 -1.0370
   62SAPC  C211 4909   4.811   0.960   5.501 -0.9550  0.3477  0.0010
   62SAPC  H11R 4910   4.742   1.035   5.540 -0.0928  0.9421  0.4110
   62SAPC  C212 4911   4.767   0.901   5.382 -0.9229 -0.0529 -0.6279
   62SAPC  H12R 4912   4.659   0.909   5.364 -1.1094  0.6731  0.7496
   62SAPC  C213 4913   4.845   0.817   5.285  0.4000  0.0061 -0.2040
   62SAPC  H13R 4914   4.940   0.783   5.332 -0.2713 -1.8329 -0.0759
   62SAPC  H13S 4915   4.883   0.872   5.196  2.1036 -2.1717 -0.8998
   62SAPC  C214 4916   4.763   0.694   5.239 -0.9525  0.0280  0.3871
   62SAPC  H14R 4917   4.735   0.704   5.133  2.6859  1.3718 -0.5810
   62SAPC  C215 4918   4.732   0.580   5.308  0.0729 -0.1047 -0.0395
   62SAPC  H15R 4919   4.682   0.500   5.252  0.9798  0.3383 -1.5419
   62SAPC  C216 4920   4.770   0.558   5.454  0.4187 -0.2012  0.2200
   62SAPC  H16R 4921   4.775   0.659   5.501 -2.7605 -0.2000  0.8262
   62SAPC  H16S 4922   4.871   0.517   5.476  1.3058  0.2992 -2.5600
   62SAPC  C217 4923   4.668   0.497   5.547  0.1083 -0.5142 -0.7614
   62SAPC  H17R 4924   4.625   0.406   5.501 -0.3353  0.8803 -3.2417
   62SAPC  H17S 4925   4.592   0.577   5.558 -1.7205 -2.4163  1.7491
   62SAPC  C218 4926   4.721   0.455   5.689 -0.2320  0.1069 -0.5099
   62SAPC  H18R 4927   4.793   0.373   5.672 -0.5544  0.0855 -1.8633
   62SAPC  H18S 4928   4.641   0.400   5.743 -0.7345  1.2724 -0.0472
   62SAPC  C219 4929   4.783   0.572   5.772 -0.4869 -0.0307 -0.4139
   62SAPC  H19R 4930   4.722   0.664   5.773  0.8853  0.9070 -0.8623
   62SAPC  H19S 4931   4.880   0.606   5.731  0.7474 -0.0902  2.1945
   62SAPC  C220 4932   4.815   0.535   5.920  0.2072  0.2062  0.3386
   62SAPC  H20R 4933   4.878   0.614   5.966  0.1677 -0.7291  2.0439
   62SAPC  H20S 4934   4.863   0.435   5.930  0.4989  0.0782 -1.7875
   62SAPC  H20T 4935   4.727   0.535   5.988  0.1221  0.0584  0.2306
   62SAPC   C33 4936   4.939   1.482   6.238 -0.4614  0.2752 -0.5385
   62SAPC   H3X 4937   4.924   1.558   6.318  0.5597 -1.1569  1.1041
   62SAPC   H3Y 4938   4.849   1.417   6.238 -0.6137  0.4812 -1.0406
   62SAPC   C34 4939   4.960   1.545   6.098  0.1946  0.1462 -1.2546
   62SAPC   H4X 4940   5.050   1.610   6.101  0.4623 -0.2759  0.5867
   62SAPC   H4Y 4941   4.869   1.604   6.073 -0.8567 -0.5956  0.6452
   62SAPC   C35 4942   4.985   1.439   5.988 -1.2385 -0.1211  0.2660
   62SAPC   H5X 4943   4.885   1.392   5.976 -0.8957 -0.9686  0.6082
   62SAPC   H5Y 4944   5.061   1.366   6.023 -0.7525 -0.7032 -1.8611
   62SAPC   C36 4945   5.036   1.517   5.864  0.1284 -0.5073 -0.4192
   62SAPC   H6X 4946   5.140   1.555   5.872 -0.1751  0.5612 -1.2300
   62SAPC   H6Y 4947   4.976   1.610   5.851  1.2196  0.4828  1.2291
   62SAPC   C37 4948   5.039   1.428   5.735 -0.2425 -0.3547  0.6286
   62SAPC   H7X 4949   4.950   1.363   5.748 -0.9433  0.7907  1.7062
   62SAPC   H7Y 4950   5.134   1.370   5.733  0.9724  1.5698 -0.0629
   62SAPC   C38 4951   5.014   1.506   5.606 -0.2860 -0.3287  0.1719
   62SAPC   H8X 4952   5.116   1.515   5.561 -0.5156  3.4810  0.0176
   62SAPC   H8Y 4953   4.973   1.609   5.617  1.4314  0.2908  1.1394
   62SAPC   C39 4954   4.931   1.426   5.501  0.4716  0.3677  0.4163
   62SAPC   H9X 4955   4.833   1.394   5.541 -1.3360  3.2844 -1.3023
   62SAPC   H9Y 4956   4.986   1.334   5.471 -0.7055  0.2483 -1.4888
   62SAPC  C310 4957   4.900   1.511   5.373  0.0838  0.5133 -0.3901
   62SAPC  H10X 4958   5.000   1.536   5.331  0.6270 -2.0504 -0.7928
   62SAPC  H10Y 4959   4.841   1.602   5.399 -3.1234 -1.6836  0.6821
   62SAPC  C311 4960   4.823   1.430   5.265 -0.6454  0.1834 -0.3507
   62SAPC  H11X 4961   4.804   1.509   5.190  2.3254  1.5669  0.1975
   62SAPC  H11Y 4962   4.738   1.364   5.294  0.4235 -2.1754 -2.2062
   62SAPC  C312 4963   4.911   1.325   5.201  0.3935 -0.7176  0.5681
   62SAPC  H12X 4964   4.946   1.250   5.275  2.7403 -0.2179  0.0427
   62SAPC  H12Y 4965   5.007   1.369   5.165  1.1771 -0.5461  2.7133
   62SAPC  C313 4966   4.830   1.253   5.091 -0.1379 -0.0282  0.0743
   62SAPC  H13X 4967   4.795   1.330   5.019  4.7099 -0.9275 -3.8221
   62SAPC  H13Y 4968   4.747   1.205   5.147 -0.5114 -1.4751 -1.6352
   62SAPC  C314 4969   4.904   1.138   5.014  0.0977 -0.5789  0.1227
   62SAPC  H14X 4970   4.916   1.050   5.081  1.0937 -0.5054  0.0628
   62SAPC  H14Y 4971   5.008   1.171   4.995 -0.2215  0.1249 -0.4503
   62SAPC  C315 4972   4.830   1.110   4.890  0.3696 -0.3666  0.1155
   62SAPC  H15X 4973   4.839   1.200   4.825  0.0481 -1.5229 -1.5792
   62SAPC  H15Y 4974   4.724   1.094   4.920  0.3213 -2.9577 -1.1822
   62SAPC  C316 4975   4.867   0.984   4.809  0.1063 -0.4527 -0.2212
   62SAPC  H16X 4976   4.973   0.991   4.775  0.0503  0.3923 -0.2347
   62SAPC  H16Y 4977   4.800   0.980   4.720 -0.6206  1.0660  0.2290
   62SAPC  C317 4978   4.849   0.853   4.881  0.2675 -0.2304 -0.5425
   62SAPC  H17X 4979   4.744   0.828   4.906  0.3599 -3.4876 -2.7296
   62SAPC  H17Y 4980   4.912   0.850   4.972  0.8458  0.7754 -0.8967
   62SAPC  C318 4981   4.882   0.736   4.786  0.2049 -0.2918 -0.4789
   62SAPC  H18X 4982   4.806   0.730   4.706  2.3022 -3.1743 -2.4285
   62SAPC  H18Y 4983   4.868   0.645   4.848 -0.7972  0.4526  0.4405
   62SAPC  H18Z 4984   4.982   0.737   4.737 -0.0359 -2.5394 -1.1264
   63SAPC     N 4985   4.531   2.819   6.610  0.2722  0.1792  0.2618
   63SAPC   C12 4986   4.488   2.949   6.675  0.8209  0.3889  0.4799
   63SAPC  H12A 4987   4.404   2.992   6.622 -0.4733 -2.4198  0.0899
   63SAPC  H12B 4988   4.568   3.022   6.671 -2.0142  3.7664 -0.2493
   63SAPC   C13 4989   4.629   2.750   6.698 -0.0803  0.6109 -0.2279
   63SAPC  H13A 4990   4.677   2.667   6.650  0.4687  1.5625 -1.3981
   63SAPC  H13B 4991   4.709   2.819   6.718  1.2812 -1.0868  0.4015
   63SAPC  H13C 4992   4.580   2.727   6.792  2.3001 -0.9299  0.7026
   63SAPC   C14 4993   4.416   2.723   6.599 -0.4130  0.6761  0.0841
   63SAPC  H14A 4994   4.337   2.760   6.535 -0.1500  0.6046 -0.2853
   63SAPC  H14B 4995   4.443   2.627   6.558  1.1327  0.5353  1.3628
   63SAPC  H14C 4996   4.386   2.708   6.702  1.4759  1.3719  0.7782
   63SAPC   C15 4997   4.595   2.850   6.471 -0.1093  0.0580 -0.1463
   63SAPC  H15A 4998   4.636   2.762   6.425  0.0894 -0.2734  0.6431
   63SAPC  H15B 4999   4.510   2.895   6.421 -1.0686 -0.5481  0.8748
   63SAPC  H15C 5000   4.680   2.916   6.469  0.9424 -1.2807 -2.0278
   63SAPC   C11 5001   4.436   2.954   6.820 -0.1804  0.3108  0.4064
   63SAPC  H11A 5002   4.428   3.062   6.841  1.0600  1.2014 -3.0193
   63SAPC  H11B 5003   4.512   2.917   6.892  0.7711  1.8546  0.2312
   63SAPC     P 5004   4.178   2.936   6.778  0.1131 -0.1423 -0.7050
   63SAPC   O13 5005   4.116   2.809   6.727 -0.3511  0.0591  0.1740
   63SAPC   O14 5006   4.112   3.024   6.878  0.1970 -0.0188 -0.5467
   63SAPC   O12 5007   4.316   2.886   6.843  0.0331  0.6120 -0.6762
   63SAPC   O11 5008   4.214   3.026   6.660  0.0344  0.3731 -1.0177
   63SAPC    C1 5009   4.128   3.084   6.566  0.5333  0.0812 -0.3020
   63SAPC    HA 5010   4.054   3.012   6.526 -1.9258  1.7100  1.0401
   63SAPC    HB 5011   4.065   3.163   6.612  1.0863  0.8129 -0.7729
   63SAPC    C2 5012   4.208   3.135   6.445  0.1268  0.5636  0.5138
   63SAPC    HS 5013   4.141   3.200   6.387 -1.5808 -2.3174 -0.9617
   63SAPC   O21 5014   4.261   3.024   6.375  1.1121  0.1227 -0.2612
   63SAPC   C21 5015   4.196   2.981   6.274  0.5392 -0.3472 -0.9946
   63SAPC   O22 5016   4.088   3.014   6.234  0.2382  0.1635  0.1569
   63SAPC   C22 5017   4.281   2.881   6.204 -0.2702  0.0893 -0.6448
   63SAPC   H2R 5018   4.369   2.843   6.261 -1.5854  0.2760  1.5844
   63SAPC   H2S 5019   4.218   2.790   6.192 -0.8174  0.2510  0.8253
   63SAPC    C3 5020   4.327   3.224   6.486  0.0299  0.2118  0.6142
   63SAPC    HX 5021   4.393   3.184   6.566  2.3645  1.8305 -0.4044
   63SAPC    HY 5022   4.272   3.305   6.538  0.6425  0.5065  0.8018
   63SAPC   O31 5023   4.388   3.290   6.376 -0.7459 -0.3049 -0.3071
   63SAPC   C31 5024   4.508   3.245   6.338 -0.5902 -0.3293 -0.0455
   63SAPC   O32 5025   4.572   3.149   6.380 -0.0323 -0.2979  0.7108
   63SAPC   C32 5026   4.567   3.342   6.237  0.9691 -0.7200 -0.8251
   63SAPC   H2X 5027   4.649   3.393   6.294 -0.6860 -0.0749  1.1302
   63SAPC   H2Y 5028   4.494   3.415   6.197  0.0109 -0.6589  0.9387
   63SAPC   C23 5029   4.332   2.928   6.063  1.2070  0.4413 -0.4579
   63SAPC   H3R 5030   4.394   3.018   6.082 -0.4113  1.6577 -0.7230
   63SAPC   H3S 5031   4.249   2.972   6.004 -0.7512 -1.8457  0.4173
   63SAPC   C24 5032   4.402   2.808   5.996 -0.0669 -0.4218  0.6477
   63SAPC   H4R 5033   4.388   2.825   5.887  0.5052 -0.4650  0.5640
   63SAPC   H4S 5034   4.339   2.720   6.021 -1.5051  1.3429  3.7995
   63SAPC   C25 5035   4.548   2.784   6.028 -0.6744 -0.2291 -0.1007
   63SAPC   H5R 5036   4.565   2.803   6.135 -1.7856  0.7867 -0.0839
   63SAPC   C26 5037   4.647   2.772   5.937  0.6726  0.2459  0.3273
   63SAPC   H6R 5038   4.742   2.728   5.969 -0.5089 -1.2109  2.0187
   63SAPC   C27 5039   4.622   2.763   5.790  0.2056 -0.6192 -0.1879
   63SAPC   H7R 5040   4.577   2.858   5.754  0.0933 -1.0728 -1.2900
   63SAPC   H7S 5041   4.556   2.674   5.776 -1.8051  0.5142  1.4746
   63SAPC   C28 5042   4.744   2.725   5.709  0.0691 -0.2846  0.1735
   63SAPC   H8R 5043   4.815   2.664   5.767 -0.3599  0.2730  1.3310
   63SAPC   C29 5044   4.776   2.753   5.580 -0.3366 -0.0858 -0.5232
   63SAPC   H9R 5045   4.867   2.701   5.548 -0.9654 -0.7443 -1.2626
   63SAPC  C210 5046   4.683   2.826   5.487  0.5175 -0.4725 -0.1909
   63SAPC  H10R 5047   4.710   2.933   5.494 -3.1668  0.5404  0.4632
   63SAPC  H10S 5048   4.575   2.830   5.515  0.4710 -2.7903  0.1932
   63SAPC  C211 5049   4.695   2.783   5.345 -0.4113  0.0535 -0.4037
   63SAPC  H11R 5050   4.606   2.737   5.299 -1.8873  2.4901 -0.1640
   63SAPC  C212 5051   4.807   2.799   5.271 -0.4868 -0.1310  0.3398
   63SAPC  H12R 5052   4.807   2.781   5.163  1.9378  0.0559  0.2511
   63SAPC  C213 5053   4.947   2.854   5.317 -0.0384 -0.0952  0.3410
   63SAPC  H13R 5054   4.947   2.879   5.426  1.1693 -1.4236  0.6657
   63SAPC  H13S 5055   4.973   2.952   5.273 -0.7222 -0.2766 -0.4908
   63SAPC  C214 5056   5.051   2.757   5.306 -0.1460  0.6283 -0.3165
   63SAPC  H14R 5057   5.035   2.668   5.368  1.9395 -1.4354 -2.4899
   63SAPC  C215 5058   5.158   2.756   5.222  0.1657 -0.7586  0.6247
   63SAPC  H15R 5059   5.241   2.685   5.227  1.4079  0.6423  0.5554
   63SAPC  C216 5060   5.194   2.864   5.119  0.4641  0.1453 -0.3254
   63SAPC  H16R 5061   5.305   2.871   5.117  0.4512  0.5637  0.2164
   63SAPC  H16S 5062   5.151   2.960   5.155 -0.7287  0.4581 -2.3914
   63SAPC  C217 5063   5.130   2.841   4.980  0.2837  0.5439  0.1590
   63SAPC  H17R 5064   5.026   2.804   4.991  0.3715  0.8880  2.9573
   63SAPC  H17S 5065   5.172   2.747   4.939 -1.1964  0.7290 -1.9003
   63SAPC  C218 5066   5.137   2.961   4.884 -0.3180 -0.1341  0.2257
   63SAPC  H18R 5067   5.088   3.045   4.938  0.9542  1.2106 -0.6362
   63SAPC  H18S 5068   5.080   2.944   4.791  0.4472  1.8823 -0.6723
   63SAPC  C219 5069   5.281   2.996   4.840  0.0596 -0.8794 -0.4064
   63SAPC  H19R 5070   5.346   3.008   4.929  0.8784 -1.5711 -0.8926
   63SAPC  H19S 5071   5.272   3.095   4.790  2.2568  0.1991  1.1828
   63SAPC  C220 5072   5.348   2.905   4.740 -0.2559 -0.5068  0.6753
   63SAPC  H20R 5073   5.379   2.811   4.791 -0.5363 -0.4559  0.9422
   63SAPC  H20S 5074   5.437   2.954   4.696 -1.9217  0.1909 -2.1702
   63SAPC  H20T 5075   5.271   2.878   4.664 -1.6969  1.3984  1.3760
   63SAPC   C33 5076   4.634   3.264   6.122  0.7980  0.3958  0.3858
   63SAPC   H3X 5077   4.560   3.210   6.060 -1.3046  3.6442 -0.1689
   63SAPC   H3Y 5078   4.704   3.192   6.170  0.6848 -1.3723 -1.9414
   63SAPC   C34 5079   4.710   3.361   6.024  0.4288  0.1884  0.3261
   63SAPC   H4X 5080   4.785   3.416   6.084  0.9523  0.4498 -0.5538
   63SAPC   H4Y 5081   4.643   3.433   5.972  0.7701 -0.3613 -0.9197
   63SAPC   C35 5082   4.784   3.282   5.915  0.2083 -0.2736  0.2225
   63SAPC   H5X 5083   4.734   3.184   5.902  1.7895 -1.0718 -0.1854
   63SAPC   H5Y 5084   4.889   3.265   5.949  0.0845 -1.0071  0.2383
   63SAPC   C36 5085   4.783   3.352   5.775 -0.0406 -0.1106 -0.4952
   63SAPC   H6X 5086   4.846   3.443   5.768  1.2104 -0.9661 -0.5813
   63SAPC   H6Y 5087   4.678   3.389   5.782 -0.3641 -0.9794 -0.5323
   63SAPC   C37 5088   4.815   3.252   5.665  0.5745 -0.2363 -1.1224
   63SAPC   H7X 5089   4.746   3.167   5.685  1.4200 -0.2972  2.2207
   63SAPC   H7Y 5090   4.916   3.213   5.685  0.2578  0.6834  3.4120
   63SAPC   C38 5091   4.794   3.311   5.524 -0.9301 -0.0300 -0.4867
   63SAPC   H8X 5092   4.857   3.402   5.529 -2.8969  1.3527  1.6861
   63SAPC   H8Y 5093   4.687   3.336   5.506 -1.0901 -0.4954 -0.2232
   63SAPC   C39 5094   4.837   3.221   5.413  0.3584 -0.0162 -0.0557
   63SAPC   H9X 5095   4.763   3.138   5.420 -1.1383  1.2964  0.3734
   63SAPC   H9Y 5096   4.944   3.197   5.426  0.1152 -0.2838  1.6631
   63SAPC  C310 5097   4.816   3.276   5.270 -1.0281 -0.1613 -0.3208
   63SAPC  H10X 5098   4.707   3.288   5.250 -0.8633 -0.1153 -1.2109
   63SAPC  H10Y 5099   4.853   3.193   5.205  1.1688  0.4512  0.0685
   63SAPC  C311 5100   4.901   3.399   5.243 -0.0515 -0.5177  0.3307
   63SAPC  H11X 5101   5.000   3.385   5.291 -0.0728 -0.7137  0.3207
   63SAPC  H11Y 5102   4.851   3.488   5.286  0.9449 -0.8001  2.1979
   63SAPC  C312 5103   4.919   3.429   5.095  1.1284 -0.1950  0.3865
   63SAPC  H12X 5104   4.935   3.329   5.048 -0.2837  0.2893 -1.2259
   63SAPC  H12Y 5105   5.003   3.495   5.063 -0.3686  1.6569  0.1125
   63SAPC  C313 5106   4.790   3.475   5.023 -0.5014 -0.5297  0.2428
   63SAPC  H13X 5107   4.780   3.582   5.050 -1.1214 -0.1283 -1.4528
   63SAPC  H13Y 5108   4.705   3.421   5.071 -0.1464  1.0500  2.7988
   63SAPC  C314 5109   4.794   3.456   4.871 -0.0979  0.0149 -0.3164
   63SAPC  H14X 5110   4.799   3.346   4.861 -1.6315 -0.0528 -0.6434
   63SAPC  H14Y 5111   4.887   3.503   4.834 -0.3132  0.0003 -0.8944
   63SAPC  C315 5112   4.668   3.516   4.803 -0.0909  0.2067  0.5550
   63SAPC  H15X 5113   4.668   3.622   4.838 -2.1312 -0.8002  4.0765
   63SAPC  H15Y 5114   4.573   3.470   4.837  0.6898 -2.0460 -0.1609
   63SAPC  C316 5115   4.680   3.521   4.650  0.2036  0.4065  0.3337
   63SAPC  H16X 5116   4.785   3.547   4.624 -0.3852 -0.5169 -3.7726
   63SAPC  H16Y 5117   4.605   3.594   4.613 -2.7530 -0.8995  3.2178
   63SAPC  C317 5118   4.674   3.379   4.579 -0.9098  0.2985 -0.4281
   63SAPC  H17X 5119   4.746   3.312   4.631 -0.5152 -1.5562 -3.1566
   63SAPC  H17Y 5120   4.717   3.401   4.479  0.0169  0.2762 -0.0401
   63SAPC  C318 5121   4.530   3.323   4.560 -0.1074 -0.2574  0.1951
   63SAPC  H18X 5122   4.497   3.253   4.640 -2.4097 -1.2170 -1.4683
   63SAPC  H18Y 5123   4.533   3.258   4.470  0.8894 -2.3805  1.6707
   63SAPC  H18Z 5124   4.456   3.406   4.552  1.0757  1.1003  2.4204
   64SAPC     N 5125   3.728   5.044   7.128 -0.8435 -0.2701  0.3529
   64SAPC   C12 5126   3.782   5.085   6.996 -0.0859  0.1716 -1.1571
   64SAPC  H12A 5127   3.859   5.013   6.972  0.9170  0.6697  0.4592
   64SAPC  H12B 5128   3.827   5.183   6.999 -0.8752  0.6144 -2.6526
   64SAPC   C13 5129   3.830   5.063   7.239  0.8109  0.1390 -0.4206
   64SAPC  H13A 5130   3.864   5.165   7.242  1.0572  0.0850 -1.1595
   64SAPC  H13B 5131   3.786   5.042   7.335  0.0594  1.0609 -0.5522
   64SAPC  H13C 5132   3.918   5.000   7.240 -0.2556 -1.4973  2.2809
   64SAPC   C14 5133   3.604   5.127   7.154 -0.7374  0.0078 -0.0668
   64SAPC  H14A 5134   3.594   5.213   7.090  1.3223  0.9039  0.7457
   64SAPC  H14B 5135   3.517   5.066   7.134  0.7507 -3.1187  2.1269
   64SAPC  H14C 5136   3.593   5.154   7.258  1.1069 -0.9167  0.4073
   64SAPC   C15 5137   3.673   4.904   7.135 -0.3265  0.5248 -0.0345
   64SAPC  H15A 5138   3.761   4.842   7.137  0.5053  1.3867 -3.0837
   64SAPC  H15B 5139   3.620   4.902   7.229  1.0800 -2.2576  0.8058
   64SAPC  H15C 5140   3.606   4.877   7.055 -1.1007 -1.8919  1.3304
   64SAPC   C11 5141   3.682   5.084   6.875 -0.0689 -0.0535 -0.2596
   64SAPC  H11A 5142   3.607   5.002   6.866 -0.6771  0.3320  1.0033
   64SAPC  H11B 5143   3.752   5.073   6.790  0.9236  1.3450  0.3563
   64SAPC     P 5144   3.688   5.335   6.813  0.3882  0.2939 -0.0759
   64SAPC   O13 5145   3.621   5.459   6.861 -0.3908 -0.8772  0.2767
   64SAPC   O14 5146   3.831   5.326   6.844  0.2385  0.1299  0.1396
   64SAPC   O12 5147   3.616   5.209   6.868  0.4610  0.3017 -0.2298
   64SAPC   O11 5148   3.667   5.318   6.654 -0.3253  0.1105  0.2072
   64SAPC    C1 5149   3.530   5.332   6.598 -0.1908 -0.8037 -0.2829
   64SAPC    HA 5150   3.447   5.352   6.669 -0.5683 -0.1893 -0.8933
   64SAPC    HB 5151   3.529   5.423   6.535 -1.8584 -1.3679 -1.1190
   64SAPC    C2 5152   3.493   5.197   6.524  0.4039  0.2786  0.9738
   64SAPC    HS 5153   3.510   5.112   6.593 -0.7457  1.7306  3.1799
   64SAPC   O21 5154   3.573   5.197   6.408  0.2006 -0.2055  0.2125
   64SAPC   C21 5155   3.675   5.109   6.403 -0.0339  1.1451 -0.3473
   64SAPC   O22 5156   3.700   5.034   6.500 -0.2830 -0.6589  0.1703
   64SAPC   C22 5157   3.744   5.113   6.268  0.2288  0.7217 -0.2001
   64SAPC   H2R 5158   3.663   5.108   6.193  0.7331  2.2321 -0.8773
   64SAPC   H2S 5159   3.784   5.216   6.258 -0.6945  1.2637  1.3761
   64SAPC    C3 5160   3.343   5.192   6.468  0.1930  0.4907 -0.4064
   64SAPC    HX 5161   3.277   5.191   6.557  1.7746 -1.6393  0.8337
   64SAPC    HY 5162   3.328   5.094   6.418  1.7684  0.0613 -0.0933
   64SAPC   O31 5163   3.321   5.306   6.389 -0.3459 -0.2038  0.3839
   64SAPC   C31 5164   3.330   5.290   6.258  0.3801 -0.7213 -0.2716
   64SAPC   O32 5165   3.347   5.186   6.201  0.3451 -0.5328 -0.0587
   64SAPC   C32 5166   3.318   5.425   6.188  0.6103  0.6000 -0.2264
   64SAPC   H2X 5167   3.236   5.486   6.232  0.8700 -0.1662  1.3890
   64SAPC   H2Y 5168   3.291   5.400   6.083 -3.7576 -1.3109  1.1282
   64SAPC   C23 5169   3.852   4.997   6.257  0.5499 -0.2248 -0.1323
   64SAPC   H3R 5170   3.799   4.902   6.235  1.7701 -0.8566 -0.4646
   64SAPC   H3S 5171   3.913   4.991   6.349  0.4900  1.5639  0.0559
   64SAPC   C24 5172   3.940   5.013   6.131  0.0473  0.8752 -0.2885
   64SAPC   H4R 5173   3.873   5.004   6.043  1.5352  0.4122 -1.4086
   64SAPC   H4S 5174   4.005   4.923   6.134 -1.0926  0.0253 -0.5224
   64SAPC   C25 5175   4.026   5.133   6.123  0.0363  0.2763 -0.6579
   64SAPC   H5R 5176   4.076   5.154   6.219  2.4155  0.0848 -1.7835
   64SAPC   C26 5177   4.060   5.208   6.016 -0.1891 -0.6985  0.3765
   64SAPC   H6R 5178   4.125   5.296   6.031 -0.5555 -0.3014 -0.3350
   64SAPC   C27 5179   4.028   5.192   5.870 -0.4992  0.2080  0.4944
   64SAPC   H7R 5180   3.927   5.237   5.855 -1.4048 -1.3081  1.6984
   64SAPC   H7S 5181   4.014   5.084   5.848 -1.0117  0.3458  0.1211
   64SAPC   C28 5182   4.123   5.253   5.771 -0.4973 -0.4593  0.7933
   64SAPC   H8R 5183   4.176   5.338   5.816 -0.9823 -1.2068  2.8657
   64SAPC   C29 5184   4.133   5.227   5.641 -0.1192 -0.2323  0.2913
   64SAPC   H9R 5185   4.192   5.308   5.594  0.4240 -1.0531 -0.4748
   64SAPC  C210 5186   4.042   5.129   5.562 -0.7140  0.2057 -0.7448
   64SAPC  H10R 5187   3.980   5.070   5.632  2.2553  0.2102  2.0880
   64SAPC  H10S 5188   4.111   5.061   5.507 -0.8691 -0.9388  0.4433
   64SAPC  C211 5189   3.954   5.199   5.464 -0.2435  0.6699  0.1966
   64SAPC  H11R 5190   3.872   5.257   5.509 -1.9175  0.0033 -1.8098
   64SAPC  C212 5191   3.985   5.207   5.337  0.6640 -0.0179  0.4632
   64SAPC  H12R 5192   3.935   5.282   5.275  0.0435 -1.8321 -1.3404
   64SAPC  C213 5193   4.094   5.140   5.268 -0.5980 -0.0326 -0.2794
   64SAPC  H13R 5194   4.060   5.040   5.234 -0.7176 -0.3629  0.7624
   64SAPC  H13S 5195   4.182   5.128   5.334  1.6876  1.1881 -2.9098
   64SAPC  C214 5196   4.142   5.217   5.146 -0.2915 -0.6198 -0.2926
   64SAPC  H14R 5197   4.196   5.305   5.185  0.4110 -2.0873  2.3381
   64SAPC  C215 5198   4.136   5.193   5.022  0.4361  0.7211  0.8552
   64SAPC  H15R 5199   4.186   5.264   4.954  0.7777  0.3545  0.7172
   64SAPC  C216 5200   4.069   5.079   4.951  0.3643 -0.5298 -0.5153
   64SAPC  H16R 5201   4.040   5.000   5.024 -0.7949  1.0373  0.8078
   64SAPC  H16S 5202   4.149   5.048   4.881  0.0158 -0.4913 -0.9335
   64SAPC  C217 5203   3.951   5.124   4.858  0.0357  0.2139 -0.0028
   64SAPC  H17R 5204   3.995   5.198   4.789 -1.1570  0.7619 -0.2087
   64SAPC  H17S 5205   3.888   5.188   4.924 -0.9104 -0.5212 -0.1599
   64SAPC  C218 5206   3.891   5.000   4.789 -0.2016  0.8620  0.7294
   64SAPC  H18R 5207   3.896   4.909   4.854 -0.6821  0.8664  0.7742
   64SAPC  H18S 5208   3.955   4.961   4.707 -0.8660  0.6854  0.2916
   64SAPC  C219 5209   3.752   5.028   4.751 -0.7008 -0.0187  0.3101
   64SAPC  H19R 5210   3.745   5.120   4.690  3.0278 -0.3849 -0.9032
   64SAPC  H19S 5211   3.697   5.040   4.847 -0.6094  2.7359  0.0771
   64SAPC  C220 5212   3.679   4.919   4.665  0.1199 -0.0832 -0.3027
   64SAPC  H20R 5213   3.665   4.827   4.725  0.5964 -0.2047 -0.3673
   64SAPC  H20S 5214   3.741   4.889   4.577  1.6075  0.7361  0.4124
   64SAPC  H20T 5215   3.585   4.964   4.627 -0.5263  0.6928  2.0670
   64SAPC   C33 5216   3.440   5.523   6.166 -0.1152  0.4691  0.4706
   64SAPC   H3X 5217   3.453   5.587   6.256  1.9427 -0.1863  0.6866
   64SAPC   H3Y 5218   3.422   5.589   6.078  0.2316 -0.5707 -0.3989
   64SAPC   C34 5219   3.569   5.454   6.135 -0.2621 -0.3229  0.1179
   64SAPC   H4X 5220   3.612   5.389   6.215 -2.4866 -1.3636  0.5413
   64SAPC   H4Y 5221   3.646   5.534   6.131  1.1470 -1.6032  0.3513
   64SAPC   C35 5222   3.564   5.389   5.993  0.5185 -0.3731 -0.8468
   64SAPC   H5X 5223   3.474   5.323   5.988 -0.9932  1.2632  2.1362
   64SAPC   H5Y 5224   3.658   5.330   5.985  1.0801 -0.0759  2.3741
   64SAPC   C36 5225   3.548   5.479   5.869 -0.6089 -0.0486 -0.6374
   64SAPC   H6X 5226   3.646   5.531   5.857 -1.2835  1.1470 -1.0705
   64SAPC   H6Y 5227   3.488   5.568   5.898  1.1414  0.9664  0.0513
   64SAPC   C37 5228   3.503   5.410   5.745  0.0239  0.2567 -0.1101
   64SAPC   H7X 5229   3.400   5.382   5.773  0.1281  0.4027  0.4343
   64SAPC   H7Y 5230   3.563   5.318   5.732 -0.6764 -0.2811  0.3822
   64SAPC   C38 5231   3.505   5.496   5.612  0.2640  0.2322  0.2353
   64SAPC   H8X 5232   3.603   5.548   5.605 -0.7071  2.0190 -0.9857
   64SAPC   H8Y 5233   3.430   5.578   5.612 -0.1697 -0.1649 -0.1716
   64SAPC   C39 5234   3.480   5.400   5.487 -0.0613 -1.0077 -0.1667
   64SAPC   H9X 5235   3.375   5.366   5.499 -0.3311  0.0452  0.5525
   64SAPC   H9Y 5236   3.559   5.322   5.499 -1.1455 -2.4111 -1.6267
   64SAPC  C310 5237   3.499   5.484   5.356  0.5228  0.4558  0.0520
   64SAPC  H10X 5238   3.576   5.563   5.366 -1.7286  2.6147  1.3337
   64SAPC  H10Y 5239   3.405   5.535   5.326  1.1823  0.4125 -2.3201
   64SAPC  C311 5240   3.541   5.395   5.237 -0.7462 -0.5697  0.0504
   64SAPC  H11X 5241   3.466   5.313   5.244 -0.7430 -0.4814  1.5713
   64SAPC  H11Y 5242   3.645   5.357   5.243  0.4273  1.5827 -3.5405
   64SAPC  C312 5243   3.527   5.478   5.106  0.4614 -0.4592 -0.5338
   64SAPC  H12X 5244   3.584   5.574   5.108  0.3445 -0.3654 -1.2013
   64SAPC  H12Y 5245   3.421   5.512   5.102  0.0549 -1.5525  0.6057
   64SAPC  C313 5246   3.565   5.391   4.986 -0.9413  0.0675 -0.2621
   64SAPC  H13X 5247   3.513   5.293   4.995  0.2001 -0.7976 -2.2863
   64SAPC  H13Y 5248   3.675   5.381   4.998 -0.9381 -2.2103 -1.6216
   64SAPC  C314 5249   3.542   5.453   4.852  0.1094 -0.2434  0.4043
   64SAPC  H14X 5250   3.433   5.470   4.848  0.0807 -0.1889  1.2417
   64SAPC  H14Y 5251   3.562   5.375   4.775 -1.3601 -1.5404  1.2840
   64SAPC  C315 5252   3.619   5.593   4.833  0.1904  0.4356  0.4093
   64SAPC  H15X 5253   3.721   5.582   4.874 -0.6518  1.0531  2.8352
   64SAPC  H15Y 5254   3.569   5.666   4.900  0.4756  0.1234  0.9657
   64SAPC  C316 5255   3.614   5.641   4.689 -0.0798 -0.8172 -0.4809
   64SAPC  H16X 5256   3.511   5.620   4.653 -0.0940 -1.0253 -0.3201
   64SAPC  H16Y 5257   3.672   5.576   4.620  2.1732 -0.1770  0.7358
   64SAPC  C317 5258   3.635   5.793   4.666 -0.0752  0.3957 -0.0139
   64SAPC  H17X 5259   3.743   5.818   4.660 -0.3732  1.6988 -0.2853
   64SAPC  H17Y 5260   3.599   5.844   4.758  0.0142 -0.4985  0.5217
   64SAPC  C318 5261   3.583   5.844   4.535 -0.4803  0.0439  0.3732
   64SAPC  H18X 5262   3.476   5.813   4.532  0.2714 -2.7227 -0.9377
   64SAPC  H18Y 5263   3.626   5.784   4.452  1.1380  1.6116  0.0299
   64SAPC  H18Z 5264   3.598   5.950   4.506  1.2451 -0.7742 -2.0499
   65SAPC     N 5265   3.315   6.457   1.962  0.2484  0.2728  0.4530
   65SAPC   C12 5266   3.356   6.377   2.083  0.1621  0.1690 -0.3733
   65SAPC  H12A 5267   3.285   6.394   2.163 -1.1879 -0.3673 -1.4067
   65SAPC  H12B 5268   3.447   6.421   2.122 -0.2772  0.3471  0.4840
   65SAPC   C13 5269   3.391   6.434   1.842 -0.1648  0.3659 -0.4676
   65SAPC  H13A 5270   3.378   6.328   1.825 -2.7503  0.2176  1.6393
   65SAPC  H13B 5271   3.351   6.484   1.756  0.2590 -0.5765 -1.2339
   65SAPC  H13C 5272   3.496   6.445   1.863 -0.5587 -0.1882  2.2815
   65SAPC   C14 5273   3.169   6.426   1.931  0.0924  0.1526 -0.3906
   65SAPC  H14A 5274   3.160   6.322   1.958  1.6892  0.0190 -0.2664
   65SAPC  H14B 5275   3.105   6.482   1.997  0.0710  0.2889 -0.5241
   65SAPC  H14C 5276   3.138   6.447   1.829 -0.3277  1.0784 -0.0887
   65SAPC   C15 5277   3.320   6.608   1.987  0.1297  0.0171 -0.2931
   65SAPC  H15A 5278   3.258   6.625   2.074 -2.4462 -0.7036 -1.8888
   65SAPC  H15B 5279   3.423   6.636   2.005  1.0645 -2.8985 -0.5486
   65SAPC  H15C 5280   3.279   6.674   1.913  0.4168  0.3581 -0.1503
   65SAPC   C11 5281   3.370   6.223   2.071  0.5797 -0.5935  0.2011
   65SAPC  H11A 5282   3.426   6.187   2.160  0.5640 -2.0646 -0.3553
   65SAPC  H11B 5283   3.433   6.205   1.981  0.5524 -0.4135  0.1439
   65SAPC     P 5284   3.145   6.123   2.163  0.2393 -0.0273  0.0447
   65SAPC   O13 5285   3.006   6.140   2.115  0.2204  0.0548  0.1224
   65SAPC   O14 5286   3.189   5.994   2.217 -0.2102  0.0050  0.1301
   65SAPC   O12 5287   3.241   6.163   2.046  0.1047  0.0236 -0.1621
   65SAPC   O11 5288   3.166   6.234   2.269  0.3292 -0.2311  0.5333
   65SAPC    C1 5289   3.153   6.218   2.404 -0.1915 -0.3523  0.0511
   65SAPC    HA 5290   3.234   6.150   2.437  0.8209  0.7868 -0.0210
   65SAPC    HB 5291   3.180   6.312   2.456 -3.2611  0.1517  0.9606
   65SAPC    C2 5292   3.016   6.179   2.454 -0.2449  0.3172 -0.2871
   65SAPC    HS 5293   2.995   6.074   2.424  1.4324  0.2018 -1.1807
   65SAPC   O21 5294   2.913   6.274   2.409 -0.4839 -0.0627 -0.0697
   65SAPC   C21 5295   2.787   6.249   2.434 -0.1386  0.4052  0.5959
   65SAPC   O22 5296   2.743   6.142   2.477 -0.0968 -0.2366  0.3824
   65SAPC   C22 5297   2.688   6.364   2.383 -0.1176  1.2827  0.2415
   65SAPC   H2R 5298   2.757   6.450   2.369 -1.0714  1.7458 -2.0507
   65SAPC   H2S 5299   2.653   6.326   2.284  1.6501 -3.9653  1.3160
   65SAPC    C3 5300   3.029   6.159   2.606  0.2247  0.1741  0.1635
   65SAPC    HX 5301   3.034   6.259   2.655  1.8286 -0.6427  1.7898
   65SAPC    HY 5302   3.129   6.116   2.627 -0.6146 -2.2477 -0.5238
   65SAPC   O31 5303   2.934   6.063   2.657 -0.2580 -0.0723  0.7800
   65SAPC   C31 5304   2.906   6.071   2.781  0.3122  0.0621  0.3439
   65SAPC   O32 5305   2.955   6.154   2.854 -0.0911 -0.7790 -0.3512
   65SAPC   C32 5306   2.790   5.979   2.820 -0.5586  0.0416  0.5451
   65SAPC   H2X 5307   2.838   5.880   2.836 -2.1534 -0.9810 -0.6878
   65SAPC   H2Y 5308   2.717   5.973   2.737 -0.7290 -0.1207  0.7051
   65SAPC   C23 5309   2.572   6.394   2.481  0.1009  0.8852 -0.0581
   65SAPC   H3R 5310   2.541   6.305   2.540 -0.9795  1.7608  0.7450
   65SAPC   H3S 5311   2.476   6.426   2.434 -0.3066 -0.8529 -0.4669
   65SAPC   C24 5312   2.621   6.507   2.585 -0.5929 -0.0873 -0.3210
   65SAPC   H4R 5313   2.540   6.557   2.642  1.2667  3.4141 -0.4956
   65SAPC   H4S 5314   2.671   6.585   2.523 -0.5397 -0.7737 -1.1689
   65SAPC   C25 5315   2.727   6.445   2.676 -0.2095 -0.3085  0.5099
   65SAPC   H5R 5316   2.823   6.429   2.625 -0.4024  0.5078 -0.1234
   65SAPC   C26 5317   2.724   6.423   2.806  0.9263  0.4154 -0.1434
   65SAPC   H6R 5318   2.808   6.372   2.854 -0.5076 -1.9348 -0.0035
   65SAPC   C27 5319   2.613   6.459   2.898  0.9306 -0.5192  0.3528
   65SAPC   H7R 5320   2.524   6.430   2.838 -0.6794 -2.0297  3.2528
   65SAPC   H7S 5321   2.608   6.569   2.912  0.1994 -0.4334 -0.5065
   65SAPC   C28 5322   2.607   6.388   3.029  0.5626  0.0779  0.2030
   65SAPC   H8R 5323   2.673   6.301   3.042 -1.4850 -1.4988  0.4851
   65SAPC   C29 5324   2.536   6.429   3.135  0.4144  0.3999  0.3587
   65SAPC   H9R 5325   2.532   6.361   3.222 -0.8445  0.5351  0.4277
   65SAPC  C210 5326   2.423   6.530   3.141 -0.7506 -0.0564  0.0502
   65SAPC  H10R 5327   2.361   6.512   3.231 -1.5861 -0.2158 -0.5484
   65SAPC  H10S 5328   2.368   6.504   3.048  0.7331  0.8860 -1.1510
   65SAPC  C211 5329   2.486   6.665   3.149 -0.2528 -0.1766  0.1531
   65SAPC  H11R 5330   2.566   6.685   3.077  1.3602  1.3890  2.2118
   65SAPC  C212 5331   2.469   6.760   3.246 -1.0524 -0.6189 -0.5379
   65SAPC  H12R 5332   2.516   6.858   3.233 -0.0195 -1.0956 -0.5268
   65SAPC  C213 5333   2.384   6.755   3.374  0.2695  0.7642 -0.0499
   65SAPC  H13R 5334   2.336   6.657   3.391  1.7078 -0.3974 -2.1733
   65SAPC  H13S 5335   2.299   6.825   3.356 -0.9904 -0.9969 -1.3496
   65SAPC  C214 5336   2.459   6.775   3.499  0.0130 -0.2937  0.3235
   65SAPC  H14R 5337   2.562   6.747   3.475 -0.4019 -2.3977  0.7976
   65SAPC  C215 5338   2.423   6.832   3.611 -0.2731  0.7199  0.2631
   65SAPC  H15R 5339   2.480   6.818   3.704 -2.5681 -2.1472  1.3900
   65SAPC  C216 5340   2.295   6.893   3.640  0.5356 -0.6526 -1.2330
   65SAPC  H16R 5341   2.222   6.870   3.559 -1.1415  1.7438 -0.5299
   65SAPC  H16S 5342   2.303   7.003   3.631  1.4195 -0.5715  0.1676
   65SAPC  C217 5343   2.225   6.864   3.779 -0.0340 -0.3268  0.4345
   65SAPC  H17R 5344   2.280   6.905   3.866 -0.2937  0.0954  0.4031
   65SAPC  H17S 5345   2.198   6.756   3.787  0.0605 -0.3135  1.0003
   65SAPC  C218 5346   2.095   6.947   3.791  0.1829 -0.1493  0.4611
   65SAPC  H18R 5347   2.021   6.897   3.726  0.9424 -0.2693 -0.3295
   65SAPC  H18S 5348   2.109   7.056   3.770  0.5444 -0.2015  0.4334
   65SAPC  C219 5349   2.039   6.939   3.935  0.3024  0.0506  0.6627
   65SAPC  H19R 5350   2.092   7.009   4.003 -0.5800 -0.2549  1.7062
   65SAPC  H19S 5351   2.062   6.838   3.975  1.8662 -0.5869 -1.6606
   65SAPC  C220 5352   1.890   6.976   3.944 -0.2511  0.4332  0.0468
   65SAPC  H20R 5353   1.848   6.979   4.047  0.2945 -2.2953  0.3991
   65SAPC  H20S 5354   1.839   6.899   3.882  0.3309 -0.4477  0.6461
   65SAPC  H20T 5355   1.876   7.077   3.899 -0.9842 -0.4535 -1.8400
   65SAPC   C33 5356   2.706   6.003   2.950  0.5434  0.9283  0.1334
   65SAPC   H3X 5357   2.625   6.078   2.934 -1.0622 -1.0558 -1.9081
   65SAPC   H3Y 5358   2.785   6.041   3.017  0.0224  3.9317 -0.8263
   65SAPC   C34 5359   2.643   5.885   3.021 -0.3275  0.2209  0.1585
   65SAPC   H4X 5360   2.712   5.801   3.044 -0.3667  0.1517  0.0283
   65SAPC   H4Y 5361   2.573   5.843   2.945 -0.6387 -0.8227  0.9996
   65SAPC   C35 5362   2.554   5.941   3.136  0.2822 -0.4551  0.2066
   65SAPC   H5X 5363   2.483   5.862   3.169 -0.1011  0.0911  0.7074
   65SAPC   H5Y 5364   2.492   6.024   3.097  0.4717 -0.2841  0.2681
   65SAPC   C36 5365   2.635   5.981   3.264 -0.3166 -0.1781  0.0111
   65SAPC   H6X 5366   2.562   6.001   3.346 -0.2963 -1.6684  0.4287
   65SAPC   H6Y 5367   2.677   6.084   3.255 -1.4617  0.1712 -1.8134
   65SAPC   C37 5368   2.758   5.891   3.300 -0.3370 -0.4020 -0.7176
   65SAPC   H7X 5369   2.827   5.895   3.213  0.9660 -0.5115  0.2917
   65SAPC   H7Y 5370   2.720   5.787   3.297  0.0588 -0.5492 -0.6883
   65SAPC   C38 5371   2.825   5.912   3.430 -0.1104 -0.0891 -0.3786
   65SAPC   H8X 5372   2.888   6.003   3.427 -0.8722  0.4321 -1.4107
   65SAPC   H8Y 5373   2.895   5.829   3.450 -0.0444  0.2451  0.8991
   65SAPC   C39 5374   2.735   5.940   3.547 -0.1042 -0.3925  0.3035
   65SAPC   H9X 5375   2.657   5.861   3.549 -1.6671  1.1064  0.3926
   65SAPC   H9Y 5376   2.671   6.030   3.539 -2.8038 -2.1930  0.3636
   65SAPC  C310 5377   2.809   5.939   3.677 -0.1406  0.5302  0.0569
   65SAPC  H10X 5378   2.885   6.020   3.682 -1.0573  1.5267 -1.4141
   65SAPC  H10Y 5379   2.872   5.847   3.678 -1.2636 -0.2570  0.1734
   65SAPC  C311 5380   2.714   5.937   3.800 -0.4824 -0.3366 -0.1690
   65SAPC  H11X 5381   2.702   5.832   3.834 -0.5044 -0.4051 -0.3869
   65SAPC  H11Y 5382   2.619   5.981   3.765  0.2472  0.7001 -0.9255
   65SAPC  C312 5383   2.765   6.037   3.908 -0.2894  0.1111 -0.9278
   65SAPC  H12X 5384   2.773   6.140   3.867  1.5033  0.1788 -0.4744
   65SAPC  H12Y 5385   2.867   6.002   3.936 -1.8961 -3.3859  1.1958
   65SAPC  C313 5386   2.669   6.050   4.032 -0.8742 -0.0675  0.2511
   65SAPC  H13X 5387   2.655   5.947   4.072  1.5992 -0.3450  0.5508
   65SAPC  H13Y 5388   2.567   6.077   3.996 -0.3458  0.7076 -0.6931
   65SAPC  C314 5389   2.723   6.149   4.140 -0.3410 -0.7570 -0.4142
   65SAPC  H14X 5390   2.648   6.186   4.212  1.0282  0.6028  0.3531
   65SAPC  H14Y 5391   2.762   6.243   4.095 -0.8141 -0.6030 -0.5139
   65SAPC  C315 5392   2.825   6.080   4.235 -0.3346 -0.2704  1.0600
   65SAPC  H15X 5393   2.904   6.045   4.165 -2.7118 -1.3631 -1.2731
   65SAPC  H15Y 5394   2.771   5.989   4.268 -1.4028 -1.1784 -2.6751
   65SAPC  C316 5395   2.878   6.150   4.368  0.3019 -0.1638  0.9174
   65SAPC  H16X 5396   2.863   6.078   4.451 -2.5398  3.0935  3.5654
   65SAPC  H16Y 5397   2.815   6.240   4.387 -1.0677 -0.1599 -2.7854
   65SAPC  C317 5398   3.025   6.192   4.346  0.6025  0.9609 -0.6059
   65SAPC  H17X 5399   3.089   6.102   4.330 -1.6408 -1.0764  1.1018
   65SAPC  H17Y 5400   3.056   6.238   4.443  0.1681 -2.9706  1.6150
   65SAPC  C318 5401   3.049   6.281   4.223  0.6522  0.0009 -0.1630
   65SAPC  H18X 5402   2.968   6.357   4.217 -0.0261 -0.7047 -0.0843
   65SAPC  H18Y 5403   3.054   6.227   4.126 -0.6278 -0.1912 -0.1392
   65SAPC  H18Z 5404   3.145   6.336   4.234  0.8213 -0.2397 -0.4312
   66SAPC     N 5405   5.097   5.288   2.099  0.3664 -0.4118  0.3629
   66SAPC   C12 5406   5.048   5.302   2.243 -0.5575  0.9342  0.1037
   66SAPC  H12A 5407   5.061   5.402   2.281 -0.6645  0.4141  1.5591
   66SAPC  H12B 5408   5.120   5.250   2.305  1.2681 -0.2608 -2.7609
   66SAPC   C13 5409   5.128   5.149   2.064 -0.2828  0.5159  0.0818
   66SAPC  H13A 5410   5.032   5.100   2.070 -0.3847  0.7230  0.1501
   66SAPC  H13B 5411   5.174   5.127   1.969  0.6789 -0.7158  0.8000
   66SAPC  H13C 5412   5.194   5.090   2.126 -0.6846 -0.0599 -0.0253
   66SAPC   C14 5413   4.996   5.346   2.001  0.2011  0.3621  0.1840
   66SAPC  H14A 5414   4.907   5.286   1.999 -0.5462  1.4501  0.4164
   66SAPC  H14B 5415   4.981   5.449   2.027  1.3231  0.6681 -0.3009
   66SAPC  H14C 5416   5.043   5.337   1.904 -1.5925 -1.0471 -0.6136
   66SAPC   C15 5417   5.223   5.370   2.076 -0.2783  0.1674 -0.6600
   66SAPC  H15A 5418   5.289   5.350   2.159 -0.9206  0.2056 -0.1328
   66SAPC  H15B 5419   5.276   5.351   1.984  2.0190 -0.1105  0.6528
   66SAPC  H15C 5420   5.195   5.474   2.079  1.0491  0.5716 -1.4209
   66SAPC   C11 5421   4.905   5.250   2.263 -0.3199  0.4813 -0.5555
   66SAPC  H11A 5422   4.887   5.244   2.373  1.0839  1.0395 -0.2752
   66SAPC  H11B 5423   4.899   5.148   2.219 -0.1097  0.4188 -0.4423
   66SAPC     P 5424   4.749   5.457   2.269  0.2128  0.1106 -0.3023
   66SAPC   O13 5425   4.797   5.578   2.205  0.1064 -0.9680  0.5245
   66SAPC   O14 5426   4.602   5.443   2.276 -0.3065  0.9516  0.2364
   66SAPC   O12 5427   4.808   5.335   2.195 -0.2491 -0.2254 -0.0694
   66SAPC   O11 5428   4.822   5.448   2.410 -0.1079 -0.1469  0.4855
   66SAPC    C1 5429   4.825   5.560   2.492  0.1064  0.1386 -0.0849
   66SAPC    HA 5430   4.922   5.612   2.476 -0.4748  1.1629 -0.3809
   66SAPC    HB 5431   4.736   5.622   2.469 -1.2543 -1.7557 -0.2198
   66SAPC    C2 5432   4.816   5.511   2.633 -0.1288  0.8884 -0.0388
   66SAPC    HS 5433   4.727   5.445   2.633 -1.0044  1.9320  2.6991
   66SAPC   O21 5434   4.820   5.622   2.718  0.0484  0.6015 -0.2112
   66SAPC   C21 5435   4.708   5.686   2.739  1.1963 -0.1445  0.5076
   66SAPC   O22 5436   4.601   5.658   2.687  0.1949  0.4494 -0.3272
   66SAPC   C22 5437   4.730   5.810   2.834 -0.0180 -0.3189  0.2242
   66SAPC   H2R 5438   4.809   5.774   2.903  1.7189  0.6471 -1.1753
   66SAPC   H2S 5439   4.766   5.886   2.762 -2.1532 -2.1731 -3.0583
   66SAPC    C3 5440   4.928   5.415   2.674  0.0103  0.6812  0.7987
   66SAPC    HX 5441   5.024   5.467   2.657 -0.5177  0.8596 -1.9909
   66SAPC    HY 5442   4.933   5.334   2.598 -1.3187  1.7134 -0.4440
   66SAPC   O31 5443   4.916   5.369   2.810 -0.2202  0.4483 -0.2432
   66SAPC   C31 5444   5.017   5.283   2.844 -0.2871 -0.3148  0.4311
   66SAPC   O32 5445   5.085   5.226   2.761  0.8121 -0.3182 -0.1820
   66SAPC   C32 5446   5.024   5.264   2.995  0.5756  0.0813  0.0874
   66SAPC   H2X 5447   5.056   5.160   3.018  2.6450  1.0625  2.0398
   66SAPC   H2Y 5448   4.923   5.275   3.040 -0.0270  1.3634 -1.5109
   66SAPC   C23 5449   4.610   5.854   2.921  0.2331 -1.0163  0.5166
   66SAPC   H3R 5450   4.653   5.944   2.971  0.8453 -0.1992 -1.4058
   66SAPC   H3S 5451   4.590   5.777   2.999 -1.5759  0.6667  1.8230
   66SAPC   C24 5452   4.491   5.903   2.838  0.1330  0.6829  0.7196
   66SAPC   H4R 5453   4.432   5.819   2.797 -1.3299  0.5615  2.8955
   66SAPC   H4S 5454   4.515   5.973   2.755 -1.4375  2.2417  1.5155
   66SAPC   C25 5455   4.406   5.981   2.937 -0.4270  0.2550 -0.0674
   66SAPC   H5R 5456   4.322   5.927   2.985  0.5281 -1.4370 -0.2173
   66SAPC   C26 5457   4.412   6.117   2.959  0.7325 -0.4576  0.2271
   66SAPC   H6R 5458   4.333   6.169   3.015 -1.5138 -0.9381 -2.2471
   66SAPC   C27 5459   4.499   6.216   2.877 -0.0917  0.1852 -0.0369
   66SAPC   H7R 5460   4.571   6.159   2.815  0.0879 -0.9244  1.1625
   66SAPC   H7S 5461   4.558   6.275   2.949 -0.2223  2.0096 -1.3329
   66SAPC   C28 5462   4.409   6.312   2.799 -0.1487 -0.1010 -0.1258
   66SAPC   H8R 5463   4.392   6.274   2.697 -2.2557  0.9947 -0.2300
   66SAPC   C29 5464   4.340   6.419   2.835 -0.1414 -0.8044 -0.4804
   66SAPC   H9R 5465   4.281   6.477   2.762  3.3910  2.1583 -1.2937
   66SAPC  C210 5466   4.322   6.476   2.980  0.0987  0.8978  0.4341
   66SAPC  H10R 5467   4.391   6.560   3.003  2.1801 -0.4450 -0.6170
   66SAPC  H10S 5468   4.342   6.403   3.061 -0.1676  1.1586  0.7411
   66SAPC  C211 5469   4.180   6.528   2.996  0.1427  0.8448  0.1637
   66SAPC  H11R 5470   4.119   6.510   2.906  0.7609  0.6248 -0.2144
   66SAPC  C212 5471   4.136   6.596   3.104 -0.5761 -0.2056 -0.1257
   66SAPC  H12R 5472   4.034   6.637   3.111 -1.4570 -1.8368 -2.2093
   66SAPC  C213 5473   4.230   6.625   3.220  0.2804  0.5849 -0.9842
   66SAPC  H13R 5474   4.203   6.721   3.268  0.3322 -0.0776  0.4371
   66SAPC  H13S 5475   4.334   6.638   3.183 -0.1127  1.0220 -1.9547
   66SAPC  C214 5476   4.218   6.521   3.329  0.1983 -0.1545 -0.1612
   66SAPC  H14R 5477   4.123   6.526   3.384  1.7478  0.2325  2.7223
   66SAPC  C215 5478   4.312   6.433   3.376 -0.1539  0.0304 -0.6296
   66SAPC  H15R 5479   4.272   6.352   3.439 -3.3946  0.9389 -1.3131
   66SAPC  C216 5480   4.447   6.400   3.317 -0.4861  0.5549  0.1390
   66SAPC  H16R 5481   4.530   6.441   3.378  1.2386 -0.7440 -1.2302
   66SAPC  H16S 5482   4.463   6.438   3.213 -0.2046 -1.1607 -0.4767
   66SAPC  C217 5483   4.463   6.246   3.311 -0.4530 -0.6465  0.2956
   66SAPC  H17R 5484   4.563   6.217   3.271 -0.5280 -2.3713  1.2529
   66SAPC  H17S 5485   4.378   6.212   3.247 -0.9675  0.9259  0.1043
   66SAPC  C218 5486   4.462   6.178   3.453  0.4501 -0.0581  0.5794
   66SAPC  H18R 5487   4.359   6.188   3.493 -0.0456  3.0246 -1.1930
   66SAPC  H18S 5488   4.530   6.227   3.526  1.3986 -1.3935  0.6369
   66SAPC  C219 5489   4.503   6.027   3.440  0.6970  0.0903 -0.7559
   66SAPC  H19R 5490   4.483   5.986   3.542 -1.2347  0.3979 -0.9772
   66SAPC  H19S 5491   4.613   6.018   3.426  0.9281  3.9503 -2.7699
   66SAPC  C220 5492   4.425   5.944   3.346  0.2472 -0.0528 -0.5329
   66SAPC  H20R 5493   4.425   5.989   3.244 -1.5539 -0.1180 -0.5952
   66SAPC  H20S 5494   4.323   5.941   3.389  0.7172 -0.4783  0.5994
   66SAPC  H20T 5495   4.462   5.840   3.333 -1.9792 -1.0892  0.8760
   66SAPC   C33 5496   5.133   5.359   3.053  0.7677 -0.0343  0.3499
   66SAPC   H3X 5497   5.098   5.464   3.055 -1.2713 -0.6428 -0.8115
   66SAPC   H3Y 5498   5.231   5.357   3.001  0.6963  0.4101  0.1940
   66SAPC   C34 5499   5.159   5.342   3.211  0.0510  0.5787  0.8552
   66SAPC   H4X 5500   5.065   5.310   3.260 -0.7303 -0.7690 -1.3975
   66SAPC   H4Y 5501   5.181   5.445   3.248  1.9478  0.9054 -0.9634
   66SAPC   C35 5502   5.262   5.244   3.263 -0.3467  0.2048  0.3681
   66SAPC   H5X 5503   5.326   5.229   3.173 -1.8989 -3.8670 -0.2747
   66SAPC   H5Y 5504   5.210   5.146   3.268  1.2139 -0.7812 -1.2274
   66SAPC   C36 5505   5.322   5.278   3.400 -0.0309 -0.7131 -0.0560
   66SAPC   H6X 5506   5.376   5.375   3.394  1.4560 -1.2682  2.6608
   66SAPC   H6Y 5507   5.405   5.206   3.416  0.6295  0.2303  0.8786
   66SAPC   C37 5508   5.218   5.260   3.514 -0.6129  0.9278  1.0792
   66SAPC   H7X 5509   5.185   5.154   3.519  1.0953  0.0885 -2.1585
   66SAPC   H7Y 5510   5.129   5.325   3.501 -0.8530  0.2575 -0.9844
   66SAPC   C38 5511   5.290   5.298   3.640  0.4704  0.3808 -0.4564
   66SAPC   H8X 5512   5.317   5.406   3.637  2.0145  0.1335  1.9035
   66SAPC   H8Y 5513   5.386   5.245   3.653  0.1983 -0.7233 -2.5996
   66SAPC   C39 5514   5.195   5.260   3.764  0.1076 -0.6593 -0.2458
   66SAPC   H9X 5515   5.172   5.152   3.751  2.3252 -1.6941  3.1793
   66SAPC   H9Y 5516   5.104   5.323   3.754  0.8697  0.6053  0.4673
   66SAPC  C310 5517   5.272   5.272   3.901  0.4159 -0.3894 -0.6332
   66SAPC  H10X 5518   5.317   5.374   3.900 -1.0271  0.2925  0.4457
   66SAPC  H10Y 5519   5.356   5.200   3.907  3.2504  2.7210  0.5413
   66SAPC  C311 5520   5.173   5.265   4.024 -0.3830 -0.4758 -0.1559
   66SAPC  H11X 5521   5.104   5.178   4.023  1.1189 -1.6937 -0.1916
   66SAPC  H11Y 5522   5.102   5.351   4.023 -1.1550 -1.0958  0.1529
   66SAPC  C312 5523   5.241   5.281   4.159  0.3085  0.2573  0.6940
   66SAPC  H12X 5524   5.160   5.288   4.234  0.6592 -0.8588  1.1923
   66SAPC  H12Y 5525   5.293   5.379   4.168 -0.3734  0.5064  2.1429
   66SAPC  C313 5526   5.333   5.162   4.184  0.4792 -0.0861 -0.4503
   66SAPC  H13X 5527   5.413   5.177   4.109  1.9247  2.9444  1.4615
   66SAPC  H13Y 5528   5.267   5.074   4.165  0.4744  0.3941 -2.8505
   66SAPC  C314 5529   5.390   5.165   4.327 -0.1344 -0.1608 -0.2433
   66SAPC  H14X 5530   5.438   5.070   4.358 -2.5218 -1.9853 -1.7619
   66SAPC  H14Y 5531   5.306   5.186   4.397  0.5748  0.5493  0.4161
   66SAPC  C315 5532   5.484   5.281   4.346  0.5298  0.1503  0.0060
   66SAPC  H15X 5533   5.412   5.366   4.345  1.0276  0.5706 -0.4390
   66SAPC  H15Y 5534   5.566   5.301   4.273  0.0713 -1.1888 -0.9090
   66SAPC  C316 5535   5.551   5.277   4.487  0.1609 -0.3175 -0.4791
   66SAPC  H16X 5536   5.471   5.260   4.562  0.0059  0.8536 -0.3645
   66SAPC  H16Y 5537   5.584   5.381   4.507 -1.2084  0.3257 -1.3699
   66SAPC  C317 5538   5.660   5.169   4.501 -0.5609 -0.7898 -0.4400
   66SAPC  H17X 5539   5.703   5.159   4.399  0.6621  0.5116 -0.0757
   66SAPC  H17Y 5540   5.604   5.074   4.516  1.0332 -1.3282  3.1477
   66SAPC  C318 5541   5.757   5.194   4.620 -0.2706  0.1571 -0.0641
   66SAPC  H18X 5542   5.844   5.130   4.592 -0.1404 -0.0225  0.7491
   66SAPC  H18Y 5543   5.716   5.158   4.716  1.3534 -1.1520  0.1818
   66SAPC  H18Z 5544   5.774   5.303   4.628 -0.7384  0.3769 -1.6014
   67SAPC     N 5545   3.485   1.146   1.921 -0.2151 -0.6317  0.1630
   67SAPC   C12 5546   3.451   1.072   2.043  0.0098  0.4263 -0.0992
   67SAPC  H12A 5547   3.347   1.088   2.068 -0.1185  0.0231 -0.3613
   67SAPC  H12B 5548   3.496   1.125   2.126 -0.5469  0.6895  0.0422
   67SAPC   C13 5549   3.414   1.102   1.793  0.0398  0.3609 -0.8071
   67SAPC  H13A 5550   3.411   1.182   1.720 -1.4262 -0.5458 -1.7819
   67SAPC  H13B 5551   3.468   1.019   1.749 -0.3970 -1.0151  1.1548
   67SAPC  H13C 5552   3.317   1.062   1.816  1.0135 -0.9543  1.3005
   67SAPC   C14 5553   3.442   1.291   1.936 -0.3214 -0.1903 -0.2439
   67SAPC  H14A 5554   3.458   1.342   1.842 -1.4404  2.0778  0.7232
   67SAPC  H14B 5555   3.336   1.305   1.948 -0.7573 -2.8052 -0.4619
   67SAPC  H14C 5556   3.499   1.341   2.013 -0.8058  2.1283 -1.3043
   67SAPC   C15 5557   3.629   1.151   1.892  0.1363  0.5524  0.0636
   67SAPC  H15A 5558   3.648   1.182   1.790 -3.4171  2.0356 -0.2971
   67SAPC  H15B 5559   3.694   1.205   1.959  0.6943 -0.8602  0.7034
   67SAPC  H15C 5560   3.659   1.050   1.915 -2.2747 -0.0553  0.8008
   67SAPC   C11 5561   3.496   0.926   2.057  0.0636  0.2041  0.8200
   67SAPC  H11A 5562   3.493   0.897   2.164 -0.1666 -0.1917  0.7106
   67SAPC  H11B 5563   3.599   0.910   2.017 -0.1871 -1.1637  0.6506
   67SAPC     P 5564   3.262   0.812   2.009  0.1404  0.5604  0.3112
   67SAPC   O13 5565   3.205   0.948   2.005 -0.5114  0.6980  0.2387
   67SAPC   O14 5566   3.211   0.706   1.915  0.3520 -0.3600 -0.0540
   67SAPC   O12 5567   3.411   0.835   1.980  0.0594 -0.0110  0.4608
   67SAPC   O11 5568   3.273   0.760   2.162  0.2384  0.0017  0.1294
   67SAPC    C1 5569   3.343   0.638   2.171 -0.4052 -0.3483 -0.0068
   67SAPC    HA 5570   3.288   0.546   2.140 -2.6563  0.8096  0.3149
   67SAPC    HB 5571   3.445   0.648   2.128 -0.9952 -0.5499 -1.4857
   67SAPC    C2 5572   3.371   0.594   2.322  0.2750 -0.2347 -0.5448
   67SAPC    HS 5573   3.425   0.497   2.320 -2.6841 -2.0208  0.4652
   67SAPC   O21 5574   3.248   0.587   2.392  0.8221 -0.1771 -0.4244
   67SAPC   C21 5575   3.232   0.489   2.483 -0.1291 -0.1365 -0.4697
   67SAPC   O22 5576   3.319   0.412   2.516 -0.1332  0.1838  0.8163
   67SAPC   C22 5577   3.101   0.502   2.552 -0.0501 -0.3854 -0.6146
   67SAPC   H2R 5578   3.030   0.552   2.483 -1.6669 -2.3002 -0.4294
   67SAPC   H2S 5579   3.056   0.403   2.576  0.9434 -1.0398 -1.3539
   67SAPC    C3 5580   3.465   0.689   2.396  0.3738  0.5370  0.0268
   67SAPC    HX 5581   3.413   0.787   2.387 -1.1754 -0.2549 -0.0756
   67SAPC    HY 5582   3.559   0.701   2.339 -0.2554 -0.7501 -1.3297
   67SAPC   O31 5583   3.488   0.666   2.538 -0.1561  0.5569 -0.6485
   67SAPC   C31 5584   3.587   0.591   2.559  0.2194 -0.2198  0.0265
   67SAPC   O32 5585   3.667   0.542   2.478  0.0945 -0.1277  0.1309
   67SAPC   C32 5586   3.612   0.567   2.710 -0.3624  0.8995 -0.3423
   67SAPC   H2X 5587   3.529   0.606   2.772 -0.4178 -1.7533  1.4045
   67SAPC   H2Y 5588   3.699   0.627   2.746  0.0647  0.3213 -0.3996
   67SAPC   C23 5589   3.108   0.591   2.684  0.1091  0.0846 -0.2059
   67SAPC   H3R 5590   3.004   0.617   2.711  0.5305  2.7043 -0.7821
   67SAPC   H3S 5591   3.148   0.690   2.653 -1.4802 -0.6081 -5.4621
   67SAPC   C24 5592   3.189   0.523   2.796  0.1496  0.4190 -0.0239
   67SAPC   H4R 5593   3.209   0.598   2.876 -0.6690  2.7333 -1.8409
   67SAPC   H4S 5594   3.285   0.489   2.751 -0.6717  1.7607 -3.1294
   67SAPC   C25 5595   3.100   0.420   2.854  0.1955 -0.0044  0.1291
   67SAPC   H5R 5596   3.034   0.366   2.783 -2.1496 -1.0147  2.8798
   67SAPC   C26 5597   3.084   0.396   2.983  1.2257  0.1643  0.5790
   67SAPC   H6R 5598   3.012   0.316   3.006  2.0018 -0.6857  0.0930
   67SAPC   C27 5599   3.148   0.459   3.105  0.4489  0.2079 -0.0762
   67SAPC   H7R 5600   3.195   0.558   3.083  0.5258  0.0266 -0.7376
   67SAPC   H7S 5601   3.222   0.390   3.152 -0.3129 -0.0713  0.7354
   67SAPC   C28 5602   3.036   0.492   3.204  0.3042  0.0035  0.1260
   67SAPC   H8R 5603   2.941   0.513   3.153  0.0163  0.3318  0.7754
   67SAPC   C29 5604   3.047   0.487   3.339  0.2432 -0.7533 -0.6726
   67SAPC   H9R 5605   2.957   0.513   3.396  2.0716  2.5846  1.0171
   67SAPC  C210 5606   3.156   0.447   3.439  0.0477 -0.4062  0.1112
   67SAPC  H10R 5607   3.230   0.378   3.394 -1.1905 -0.4313 -2.0364
   67SAPC  H10S 5608   3.118   0.396   3.530  1.2538  1.3155  1.6546
   67SAPC  C211 5609   3.236   0.570   3.484  0.2376 -0.2920 -0.1065
   67SAPC  H11R 5610   3.225   0.664   3.428 -1.0827  0.0678  0.7378
   67SAPC  C212 5611   3.324   0.579   3.586 -0.0986 -0.2953 -0.5838
   67SAPC  H12R 5612   3.374   0.676   3.598 -0.2280  0.0655 -2.5544
   67SAPC  C213 5613   3.360   0.468   3.673  0.4291 -1.1740  0.0747
   67SAPC  H13R 5614   3.426   0.413   3.603  0.2369  1.1409 -2.0699
   67SAPC  H13S 5615   3.269   0.406   3.690 -1.0401 -0.0104 -2.8771
   67SAPC  C214 5616   3.421   0.508   3.801  0.0705  0.3111 -0.8463
   67SAPC  H14R 5617   3.527   0.539   3.811 -0.1797  0.6984  1.0763
   67SAPC  C215 5618   3.357   0.511   3.920  0.8234 -0.6740  0.5183
   67SAPC  H15R 5619   3.411   0.539   4.011 -0.6317 -0.3461  1.3096
   67SAPC  C216 5620   3.208   0.492   3.939 -0.2461  0.2253 -0.4266
   67SAPC  H16R 5621   3.154   0.505   3.843  1.2678  0.3181 -1.2869
   67SAPC  H16S 5622   3.167   0.568   4.009 -1.1399  0.0043 -0.6946
   67SAPC  C217 5623   3.173   0.352   3.995  0.6078  0.0583 -0.0332
   67SAPC  H17R 5624   3.228   0.283   3.928  0.8675  0.2681 -0.0355
   67SAPC  H17S 5625   3.063   0.334   3.988 -0.0103  3.2501 -0.4796
   67SAPC  C218 5626   3.223   0.326   4.135 -0.6727  0.0556 -0.0893
   67SAPC  H18R 5627   3.187   0.403   4.206  0.9987  0.0917  0.7565
   67SAPC  H18S 5628   3.334   0.335   4.136 -0.5031 -1.7636  0.2712
   67SAPC  C219 5629   3.180   0.183   4.168 -0.5177 -0.1908 -0.1110
   67SAPC  H19R 5630   3.267   0.115   4.160 -1.0011 -1.1407  1.9750
   67SAPC  H19S 5631   3.115   0.148   4.086  1.6841 -1.9044 -1.2314
   67SAPC  C220 5632   3.102   0.169   4.297 -0.4457 -0.5810  0.0167
   67SAPC  H20R 5633   3.159   0.217   4.379 -1.8156  1.5498 -0.1953
   67SAPC  H20S 5634   3.071   0.069   4.332  0.2525 -0.5084  0.8699
   67SAPC  H20T 5635   3.008   0.228   4.287 -0.9608 -1.4749 -0.5031
   67SAPC   C33 5636   3.645   0.414   2.740 -0.4354 -0.4909  0.1115
   67SAPC   H3X 5637   3.717   0.383   2.661  0.0898 -2.7110  1.3984
   67SAPC   H3Y 5638   3.561   0.344   2.724 -0.6495 -0.3462  0.5911
   67SAPC   C34 5639   3.711   0.405   2.878  0.9624  0.4042  0.3075
   67SAPC   H4X 5640   3.794   0.477   2.891  0.6534  1.1089 -1.3116
   67SAPC   H4Y 5641   3.765   0.308   2.869  1.7599  0.9740 -1.5862
   67SAPC   C35 5642   3.614   0.402   3.002 -0.1904  0.3012 -0.0021
   67SAPC   H5X 5643   3.552   0.310   3.007 -0.1384 -0.2085 -4.5566
   67SAPC   H5Y 5644   3.541   0.483   2.985  0.1703  0.9727  1.4765
   67SAPC   C36 5645   3.685   0.416   3.143  0.3102  0.3018  0.3329
   67SAPC   H6X 5646   3.739   0.513   3.141 -1.1089  1.1040 -1.3482
   67SAPC   H6Y 5647   3.763   0.337   3.153  0.1190  0.2848  1.9381
   67SAPC   C37 5648   3.586   0.400   3.260  0.3644  0.3657  0.3890
   67SAPC   H7X 5649   3.529   0.305   3.257  1.3084 -0.1936 -0.2569
   67SAPC   H7Y 5650   3.515   0.486   3.268  0.3729  0.2983  1.2580
   67SAPC   C38 5651   3.664   0.412   3.389  0.2659 -0.0170  0.5037
   67SAPC   H8X 5652   3.737   0.329   3.400  1.4401  1.1308  1.9312
   67SAPC   H8Y 5653   3.595   0.402   3.476 -0.1423 -0.3174  0.1443
   67SAPC   C39 5654   3.735   0.552   3.399 -0.7567  0.1017  0.2978
   67SAPC   H9X 5655   3.663   0.621   3.350 -0.9195 -0.1673  0.1579
   67SAPC   H9Y 5656   3.835   0.558   3.351 -0.2317  0.9516  1.4400
   67SAPC  C310 5657   3.758   0.599   3.545 -0.0534  0.1924 -0.1378
   67SAPC  H10X 5658   3.669   0.587   3.609  0.2937 -0.4098  0.2520
   67SAPC  H10Y 5659   3.776   0.708   3.550 -0.0194  0.2272 -0.8548
   67SAPC  C311 5660   3.867   0.518   3.604  0.4456  0.4634 -0.0999
   67SAPC  H11X 5661   3.964   0.546   3.556  1.3979 -1.5351  0.5558
   67SAPC  H11Y 5662   3.845   0.412   3.580 -1.0858  0.2261  2.1173
   67SAPC  C312 5663   3.870   0.533   3.757 -0.3613  0.2624 -0.3838
   67SAPC  H12X 5664   3.786   0.492   3.817 -0.1644  1.3714  0.7028
   67SAPC  H12Y 5665   3.874   0.641   3.784 -0.4086  0.2669 -0.3951
   67SAPC  C313 5666   4.003   0.482   3.817  0.6738  0.9276 -0.2844
   67SAPC  H13X 5667   4.098   0.516   3.770  1.0215  1.0143  0.4699
   67SAPC  H13Y 5668   4.005   0.372   3.810 -1.0441  0.7329  1.5667
   67SAPC  C314 5669   3.999   0.512   3.978 -0.0863 -0.0453 -0.0188
   67SAPC  H14X 5670   3.893   0.515   4.011  0.3258  0.1469  1.3680
   67SAPC  H14Y 5671   4.044   0.613   3.989 -0.4898  0.4336 -2.3115
   67SAPC  C315 5672   4.081   0.402   4.051  0.4646  0.0647 -0.3269
   67SAPC  H15X 5673   4.180   0.393   4.001  1.1531 -0.1799  1.0331
   67SAPC  H15Y 5674   4.032   0.302   4.063 -0.4965  0.5501 -0.1232
   67SAPC  C316 5675   4.101   0.446   4.197  0.0173 -0.3168 -0.6210
   67SAPC  H16X 5676   3.999   0.476   4.230  0.8314  3.5692 -1.0842
   67SAPC  H16Y 5677   4.152   0.545   4.191 -0.7473  0.3374  2.2753
   67SAPC  C317 5678   4.166   0.349   4.292  0.3104  0.2022  0.4119
   67SAPC  H17X 5679   4.252   0.305   4.238 -1.0058  0.5160 -2.1037
   67SAPC  H17Y 5680   4.094   0.266   4.310  0.5505 -0.6675 -2.2089
   67SAPC  C318 5681   4.209   0.414   4.424 -0.2490 -0.6185  0.2859
   67SAPC  H18X 5682   4.120   0.438   4.486  0.1608  0.9221  0.3193
   67SAPC  H18Y 5683   4.271   0.502   4.396 -1.7043  0.5118  0.5347
   67SAPC  H18Z 5684   4.277   0.348   4.481 -0.2881 -0.4406  0.5364
   68SAPC     N 5685   3.193   5.649   2.069 -0.2545  0.6534  0.2148
   68SAPC   C12 5686   3.319   5.725   2.116  0.2922 -0.4642 -0.2064
   68SAPC  H12A 5687   3.290   5.811   2.174  0.3438 -0.6411  0.0833
   68SAPC  H12B 5688   3.371   5.760   2.028 -0.4765  3.3929  0.6711
   68SAPC   C13 5689   3.091   5.737   2.000  0.2719  0.6994  0.3601
   68SAPC  H13A 5690   3.067   5.813   2.073  0.0922 -0.7234  1.8444
   68SAPC  H13B 5691   3.136   5.780   1.912  1.0108 -1.4585 -0.3845
   68SAPC  H13C 5692   3.002   5.684   1.970 -0.8053  0.5189  3.5084
   68SAPC   C14 5693   3.231   5.529   1.981 -0.2838  0.7619 -0.7459
   68SAPC  H14A 5694   3.286   5.454   2.038  1.0441  0.1051 -2.7902
   68SAPC  H14B 5695   3.145   5.482   1.936  0.4334  0.3115 -1.6784
   68SAPC  H14C 5696   3.300   5.557   1.903 -0.1193  1.5190 -0.3353
   68SAPC   C15 5697   3.118   5.589   2.178  0.5897 -0.0326 -0.4040
   68SAPC  H15A 5698   3.037   5.531   2.135 -0.0083  0.8699 -0.5396
   68SAPC  H15B 5699   3.174   5.525   2.244 -0.6628 -1.1516 -0.3833
   68SAPC  H15C 5700   3.063   5.664   2.233  0.5192 -0.0434 -0.4592
   68SAPC   C11 5701   3.429   5.645   2.206 -0.1144  0.6954 -0.0878
   68SAPC  H11A 5702   3.373   5.608   2.294 -0.6726 -0.5161 -0.9137
   68SAPC  H11B 5703   3.513   5.715   2.225  1.2366  0.1201 -3.2454
   68SAPC     P 5704   3.560   5.415   2.218  0.2500  0.1110 -0.1116
   68SAPC   O13 5705   3.506   5.278   2.211  0.1964  0.1035  0.4454
   68SAPC   O14 5706   3.698   5.436   2.177  0.1248  0.0009  0.3206
   68SAPC   O12 5707   3.474   5.523   2.137  0.2184  0.3298 -0.2369
   68SAPC   O11 5708   3.554   5.457   2.366  0.8570 -0.3394 -0.4114
   68SAPC    C1 5709   3.635   5.405   2.476  0.2626 -0.2347  0.2765
   68SAPC    HA 5710   3.716   5.335   2.445  0.6535 -0.2786  1.3377
   68SAPC    HB 5711   3.681   5.489   2.533  0.0269 -1.0824  1.7677
   68SAPC    C2 5712   3.551   5.319   2.571  0.5292 -0.1188  0.0982
   68SAPC    HS 5713   3.483   5.261   2.504  0.6193 -0.9738  0.7300
   68SAPC   O21 5714   3.481   5.413   2.650 -0.1861  0.0489 -0.2638
   68SAPC   C21 5715   3.386   5.361   2.730 -1.4917 -0.4227  0.4768
   68SAPC   O22 5716   3.330   5.261   2.717 -0.0921 -0.5143  0.4148
   68SAPC   C22 5717   3.366   5.456   2.849  0.2254  0.2206  0.0247
   68SAPC   H2R 5718   3.458   5.516   2.864  0.8591 -0.9140  0.8827
   68SAPC   H2S 5719   3.278   5.521   2.835  0.9385  0.9692 -1.1692
   68SAPC    C3 5720   3.623   5.216   2.658  0.2434  0.0780 -0.3979
   68SAPC    HX 5721   3.699   5.167   2.593  1.0349  0.5735  0.1347
   68SAPC    HY 5722   3.554   5.137   2.695 -0.8275  0.4546 -1.5406
   68SAPC   O31 5723   3.699   5.275   2.768 -0.7035  0.0110  0.4280
   68SAPC   C31 5724   3.755   5.191   2.851  0.4744 -0.4884 -0.4371
   68SAPC   O32 5725   3.755   5.071   2.839 -0.0932  0.3022  0.9066
   68SAPC   C32 5726   3.825   5.273   2.957  0.3397  0.3439 -0.5572
   68SAPC   H2X 5727   3.751   5.338   3.007 -1.3325 -1.6671 -0.2793
   68SAPC   H2Y 5728   3.890   5.347   2.906  0.8810  0.1263 -0.1967
   68SAPC   C23 5729   3.320   5.379   2.976 -0.3088  0.6740  0.1030
   68SAPC   H3R 5730   3.240   5.306   2.954  1.4844 -0.9581 -1.2798
   68SAPC   H3S 5731   3.270   5.460   3.033 -0.9723  1.0213 -0.9415
   68SAPC   C24 5732   3.445   5.325   3.053  0.9411 -0.8469 -0.1276
   68SAPC   H4R 5733   3.435   5.347   3.161  0.4221 -0.5237 -0.2385
   68SAPC   H4S 5734   3.534   5.387   3.029 -1.7167  4.2160  1.7486
   68SAPC   C25 5735   3.465   5.177   3.027 -0.5347  0.0759 -0.2781
   68SAPC   H5R 5736   3.436   5.165   2.921 -0.4670  0.6144 -0.3626
   68SAPC   C26 5737   3.497   5.075   3.110 -0.3816  0.0992 -0.3548
   68SAPC   H6R 5738   3.500   4.977   3.059  1.5789  0.4019 -0.9032
   68SAPC   C27 5739   3.524   5.081   3.265  0.0218 -0.2916 -0.9887
   68SAPC   H7R 5740   3.427   5.072   3.319  1.1261 -3.8707  0.7573
   68SAPC   H7S 5741   3.577   5.173   3.295 -1.0931  0.1894 -0.4521
   68SAPC   C28 5742   3.611   4.960   3.300 -0.1709 -0.7541 -0.3311
   68SAPC   H8R 5743   3.691   4.933   3.229  1.2753  1.2485  0.4400
   68SAPC   C29 5744   3.596   4.875   3.397 -0.2102  0.3163  0.1137
   68SAPC   H9R 5745   3.663   4.789   3.407  0.2202  0.7941  1.5755
   68SAPC  C210 5746   3.503   4.892   3.513  0.1404  0.4153  0.1661
   68SAPC  H10R 5747   3.396   4.899   3.486  0.2240  2.9810  0.2392
   68SAPC  H10S 5748   3.521   4.992   3.558 -0.7949 -0.3892  2.4946
   68SAPC  C211 5749   3.521   4.782   3.615  0.3654  1.1681 -0.3978
   68SAPC  H11R 5750   3.489   4.681   3.585 -0.3524  1.0124  0.8289
   68SAPC  C212 5751   3.563   4.790   3.742 -0.2767 -1.1892 -0.4545
   68SAPC  H12R 5752   3.558   4.703   3.809 -0.8556  0.4324  1.7328
   68SAPC  C213 5753   3.625   4.919   3.804  0.0446  0.1953  0.1729
   68SAPC  H13R 5754   3.622   5.006   3.736 -0.7812 -1.5775 -2.1933
   68SAPC  H13S 5755   3.728   4.881   3.821 -1.2174 -3.2264  0.9950
   68SAPC  C214 5756   3.565   4.950   3.938 -0.2579  0.4346 -0.0243
   68SAPC  H14R 5757   3.459   4.927   3.953  0.2178 -1.8235  0.2846
   68SAPC  C215 5758   3.629   4.982   4.050  0.0051 -1.0197 -0.5783
   68SAPC  H15R 5759   3.571   5.010   4.139 -1.2573  2.1809 -2.2712
   68SAPC  C216 5760   3.773   5.037   4.060 -0.5507 -0.2856  0.1938
   68SAPC  H16R 5761   3.836   5.014   3.972  1.7552  0.7844  1.4521
   68SAPC  H16S 5762   3.823   4.982   4.143  1.7677  1.3415 -0.0257
   68SAPC  C217 5763   3.779   5.190   4.070 -0.7524 -0.2243 -0.8334
   68SAPC  H17R 5764   3.742   5.238   3.977 -3.5501  0.1724  0.3772
   68SAPC  H17S 5765   3.886   5.217   4.061 -0.2683 -2.3324 -1.9477
   68SAPC  C218 5766   3.716   5.250   4.204 -0.4872 -0.2368 -0.3514
   68SAPC  H18R 5767   3.610   5.225   4.224 -0.2497 -0.6246  0.4994
   68SAPC  H18S 5768   3.710   5.361   4.193  0.3939 -0.1134  0.2835
   68SAPC  C219 5769   3.790   5.215   4.338 -0.6502 -0.3162  0.3339
   68SAPC  H19R 5770   3.901   5.208   4.336 -0.6116 -1.7089  2.8964
   68SAPC  H19S 5771   3.773   5.110   4.371  0.4695 -0.3762  0.7700
   68SAPC  C220 5772   3.749   5.308   4.452  0.1811 -0.1366  0.3964
   68SAPC  H20R 5773   3.769   5.413   4.422  1.8644 -0.2350  1.0481
   68SAPC  H20S 5774   3.809   5.278   4.540  1.1244 -2.4908 -0.9397
   68SAPC  H20T 5775   3.640   5.294   4.467  0.6593 -3.4393  1.6547
   68SAPC   C33 5776   3.899   5.180   3.054 -0.3513  0.0982  0.1575
   68SAPC   H3X 5777   3.971   5.128   2.988 -1.8118 -2.3973  0.3921
   68SAPC   H3Y 5778   3.831   5.104   3.097 -1.9697 -0.1656 -2.6375
   68SAPC   C34 5779   3.971   5.257   3.165  0.7155 -0.6573 -0.4311
   68SAPC   H4X 5780   3.959   5.364   3.140  1.1397 -0.5895 -0.3445
   68SAPC   H4Y 5781   4.077   5.229   3.148  1.1314 -0.4143  1.5390
   68SAPC   C35 5782   3.939   5.217   3.305  0.1743  0.6214  0.6111
   68SAPC   H5X 5783   3.862   5.140   3.325  0.4262  0.5389  1.2857
   68SAPC   H5Y 5784   3.904   5.312   3.350  1.4912  0.4074  2.2036
   68SAPC   C36 5785   4.057   5.173   3.382 -0.2596 -0.1982  0.1160
   68SAPC   H6X 5786   4.134   5.253   3.394  0.0115 -0.2158 -1.2943
   68SAPC   H6Y 5787   4.107   5.090   3.328 -2.6713 -1.1468 -0.7719
   68SAPC   C37 5788   4.014   5.125   3.521  0.4896 -0.2255  0.4521
   68SAPC   H7X 5789   3.941   5.042   3.522  1.0040 -0.6839  0.6138
   68SAPC   H7Y 5790   3.982   5.204   3.593 -1.8221 -1.3294  0.7249
   68SAPC   C38 5791   4.139   5.075   3.593  0.0610  0.2864  0.1165
   68SAPC   H8X 5792   4.203   5.165   3.602  0.8225 -0.3864  2.0543
   68SAPC   H8Y 5793   4.195   4.996   3.538  0.1474 -0.0048  0.6146
   68SAPC   C39 5794   4.106   5.007   3.726  0.8296 -0.4098 -0.0191
   68SAPC   H9X 5795   4.038   4.922   3.704 -2.1359  1.3296  1.7422
   68SAPC   H9Y 5796   4.065   5.078   3.802  0.4403 -1.9207  1.2364
   68SAPC  C310 5797   4.239   4.957   3.787 -0.4123  0.6831 -0.1152
   68SAPC  H10X 5798   4.304   5.044   3.811 -1.2381  1.0597  0.8516
   68SAPC  H10Y 5799   4.292   4.892   3.714 -4.4243 -1.3653 -1.5181
   68SAPC  C311 5800   4.232   4.864   3.906 -0.0035 -0.1233  0.1610
   68SAPC  H11X 5801   4.170   4.775   3.880  1.7945 -1.3399 -0.0908
   68SAPC  H11Y 5802   4.178   4.915   3.989  0.3536 -1.6935  1.4242
   68SAPC  C312 5803   4.362   4.815   3.964 -0.3633 -0.1544  0.9449
   68SAPC  H12X 5804   4.431   4.902   3.970  0.2817 -0.6588  0.9345
   68SAPC  H12Y 5805   4.404   4.739   3.896 -1.5141  0.4864 -0.5440
   68SAPC  C313 5806   4.360   4.751   4.103 -0.2113  0.2734 -1.0384
   68SAPC  H13X 5807   4.457   4.704   4.127 -0.6904 -1.2719 -1.9715
   68SAPC  H13Y 5808   4.283   4.671   4.115 -0.1863  0.2719 -0.8918
   68SAPC  C314 5809   4.322   4.861   4.202 -0.2045  0.0481 -0.1367
   68SAPC  H14X 5810   4.219   4.897   4.179  0.7588  1.3074 -2.9316
   68SAPC  H14Y 5811   4.392   4.946   4.196  1.9997 -1.4675  2.2997
   68SAPC  C315 5812   4.339   4.822   4.349 -0.1020 -0.5870 -0.2786
   68SAPC  H15X 5813   4.308   4.717   4.370 -2.1358  0.1895  0.8752
   68SAPC  H15Y 5814   4.263   4.885   4.399 -0.4334 -0.8819 -0.4072
   68SAPC  C316 5815   4.473   4.862   4.415 -0.0149 -0.0168  0.4117
   68SAPC  H16X 5816   4.494   4.971   4.408 -0.5830  0.0226 -1.1990
   68SAPC  H16Y 5817   4.557   4.816   4.358  0.3408  0.1176  0.8206
   68SAPC  C317 5818   4.466   4.824   4.565 -0.2174  0.0780  0.5935
   68SAPC  H17X 5819   4.438   4.717   4.582 -2.3311  0.5986  0.6849
   68SAPC  H17Y 5820   4.381   4.881   4.609  0.3082  1.1830  0.2017
   68SAPC  C318 5821   4.587   4.853   4.652  0.6827  0.7545 -0.6506
   68SAPC  H18X 5822   4.621   4.959   4.655  2.4566  0.3592 -3.2042
   68SAPC  H18Y 5823   4.670   4.794   4.605  0.2371 -2.3645  2.1015
   68SAPC  H18Z 5824   4.564   4.824   4.756 -2.3971  3.0593 -0.5626
   69SAPC     N 5825   5.031   2.337   2.064  0.2015 -0.1780 -0.2384
   69SAPC   C12 5826   5.022   2.229   2.174  0.1132 -0.0109  0.1477
   69SAPC  H12A 5827   5.122   2.216   2.213 -0.3283 -0.7159  1.1103
   69SAPC  H12B 5828   5.000   2.134   2.129 -2.2140  1.4346 -1.9692
   69SAPC   C13 5829   4.907   2.326   1.978 -0.2735 -0.2735  0.4017
   69SAPC  H13A 5830   4.896   2.419   1.924 -1.2110 -0.4289  0.3047
   69SAPC  H13B 5831   4.914   2.240   1.913 -1.1296 -0.0278 -0.0223
   69SAPC  H13C 5832   4.828   2.314   2.050  0.2358  1.0444  1.2260
   69SAPC   C14 5833   5.052   2.475   2.118 -0.1783 -1.2254 -0.1861
   69SAPC  H14A 5834   5.072   2.544   2.037 -3.6885  1.2476  0.7845
   69SAPC  H14B 5835   4.964   2.514   2.167  0.0771  0.6722 -1.1498
   69SAPC  H14C 5836   5.124   2.483   2.198 -0.0598 -0.1825 -0.3783
   69SAPC   C15 5837   5.147   2.300   1.977 -0.3946  0.4747 -0.5314
   69SAPC  H15A 5838   5.130   2.205   1.928 -0.1029  0.5468 -0.7758
   69SAPC  H15B 5839   5.169   2.388   1.919  1.1446  1.8264  1.9210
   69SAPC  H15C 5840   5.235   2.291   2.039 -1.9580  2.0814  2.0821
   69SAPC   C11 5841   4.928   2.255   2.289 -0.0860  0.1448 -0.1614
   69SAPC  H11A 5842   4.918   2.157   2.340 -0.4889 -0.3197 -1.1149
   69SAPC  H11B 5843   4.822   2.268   2.258 -0.6849 -3.6800 -0.2461
   69SAPC     P 5844   5.088   2.310   2.474 -0.3221 -0.7022  0.3396
   69SAPC   O13 5845   5.190   2.231   2.397  0.2996  0.0354  0.3598
   69SAPC   O14 5846   5.138   2.425   2.546 -0.2793  0.4212  0.0892
   69SAPC   O12 5847   4.979   2.356   2.371 -0.2121 -0.7057  0.1256
   69SAPC   O11 5848   5.014   2.224   2.576 -0.7065  0.5834 -0.2610
   69SAPC    C1 5849   4.891   2.285   2.630  0.2201  0.2127 -0.5545
   69SAPC    HA 5850   4.847   2.370   2.573  1.5089  0.7025 -0.8555
   69SAPC    HB 5851   4.815   2.204   2.642  0.5455 -0.2216 -1.3661
   69SAPC    C2 5852   4.912   2.343   2.773 -0.0832  0.3456  0.2155
   69SAPC    HS 5853   4.999   2.411   2.780 -0.1610  0.4662  0.0159
   69SAPC   O21 5854   4.934   2.239   2.872  0.2023 -0.2593 -0.7771
   69SAPC   C21 5855   4.841   2.149   2.899  0.5945  0.7780  0.6237
   69SAPC   O22 5856   4.729   2.150   2.850  0.2311  0.3345 -0.4701
   69SAPC   C22 5857   4.889   2.028   2.980  0.3481  0.3430 -0.4340
   69SAPC   H2R 5858   4.940   2.058   3.074  0.9451 -1.1502 -0.2639
   69SAPC   H2S 5859   4.801   1.964   3.001 -1.4267  2.3455 -1.2951
   69SAPC    C3 5860   4.792   2.443   2.808  0.2790 -0.1162  0.0755
   69SAPC    HX 5861   4.698   2.390   2.785  0.6899 -0.3491 -1.1387
   69SAPC    HY 5862   4.792   2.532   2.741  0.5972 -0.2900 -0.1598
   69SAPC   O31 5863   4.784   2.494   2.944  0.2434  0.4304 -0.2199
   69SAPC   C31 5864   4.894   2.555   2.991  0.5002  0.1934  0.6146
   69SAPC   O32 5865   4.991   2.583   2.926 -0.4503  0.0426  0.7192
   69SAPC   C32 5866   4.869   2.590   3.135  0.8308  0.0419 -0.0049
   69SAPC   H2X 5867   4.776   2.536   3.163 -0.0418  0.6300 -1.6626
   69SAPC   H2Y 5868   4.854   2.699   3.150  0.6436  0.0180 -0.0159
   69SAPC   C23 5869   4.992   1.951   2.889 -0.2468  0.2523  0.0635
   69SAPC   H3R 5870   5.072   2.018   2.851  0.2747 -0.0470  0.6118
   69SAPC   H3S 5871   4.947   1.895   2.804  1.4066  0.2180 -0.8181
   69SAPC   C24 5872   5.075   1.846   2.974 -0.0825  0.4985  0.1678
   69SAPC   H4R 5873   5.147   1.893   3.044  1.5914  0.9540 -1.7435
   69SAPC   H4S 5874   5.137   1.790   2.901 -1.0843  0.3137 -0.5671
   69SAPC   C25 5875   4.989   1.742   3.038 -0.3171 -0.3083 -0.1532
   69SAPC   H5R 5876   4.939   1.683   2.960 -1.6319  2.7027 -1.7650
   69SAPC   C26 5877   4.973   1.706   3.168 -0.5348  0.6238 -0.3724
   69SAPC   H6R 5878   4.909   1.621   3.195  1.4373 -0.2944  1.7213
   69SAPC   C27 5879   5.047   1.771   3.280 -0.6457 -0.3453 -0.2411
   69SAPC   H7R 5880   5.110   1.856   3.245  1.3413 -0.7256  2.1154
   69SAPC   H7S 5881   5.116   1.692   3.315  1.7211  1.6502 -0.0757
   69SAPC   C28 5882   4.956   1.816   3.389 -0.0732  0.2719  0.1927
   69SAPC   H8R 5883   4.863   1.869   3.364 -0.6862  0.0084  1.8100
   69SAPC   C29 5884   4.985   1.810   3.525  0.5103 -0.4202  0.4193
   69SAPC   H9R 5885   4.915   1.862   3.592  0.8044  0.9014 -0.2635
   69SAPC  C210 5886   5.110   1.759   3.579 -0.7654  0.2884 -0.1518
   69SAPC  H10R 5887   5.190   1.760   3.501  0.8003 -0.5017  1.3728
   69SAPC  H10S 5888   5.103   1.651   3.602 -0.1307  0.5402  1.3630
   69SAPC  C211 5889   5.160   1.840   3.700  0.5439  0.0903 -0.7726
   69SAPC  H11R 5890   5.188   1.946   3.686  2.1027 -0.1090  0.5634
   69SAPC  C212 5891   5.157   1.802   3.834 -0.6273  0.0226  0.1928
   69SAPC  H12R 5892   5.202   1.865   3.912 -1.6793  0.1265  0.7364
   69SAPC  C213 5893   5.099   1.675   3.884  0.8184  1.1743 -0.0662
   69SAPC  H13R 5894   5.078   1.599   3.805  0.8322  0.1608  0.8877
   69SAPC  H13S 5895   4.996   1.688   3.922 -0.0899 -0.8157 -1.6339
   69SAPC  C214 5896   5.174   1.612   4.005 -0.4968 -0.9617 -0.4009
   69SAPC  H14R 5897   5.218   1.694   4.063  0.8647 -0.4946 -2.0074
   69SAPC  C215 5898   5.225   1.488   4.013  0.0632 -0.3690 -0.2552
   69SAPC  H15R 5899   5.281   1.457   4.102  0.7377  0.6100 -0.3237
   69SAPC  C216 5900   5.213   1.374   3.919  0.3618 -0.1017 -0.3249
   69SAPC  H16R 5901   5.309   1.319   3.904  0.6242  0.4797 -0.8183
   69SAPC  H16S 5902   5.191   1.420   3.820  3.0994  2.8924  0.2668
   69SAPC  C217 5903   5.116   1.264   3.978  0.4427  0.2823 -0.0114
   69SAPC  H17R 5904   5.012   1.300   3.992 -0.2806 -1.4113 -0.7066
   69SAPC  H17S 5905   5.142   1.222   4.078 -1.8460  1.0911  1.0064
   69SAPC  C218 5906   5.120   1.137   3.884 -0.2739 -0.1411 -0.6869
   69SAPC  H18R 5907   5.226   1.102   3.875 -1.0287 -2.8632  0.1366
   69SAPC  H18S 5908   5.077   1.170   3.787 -1.8809  2.4719  0.8117
   69SAPC  C219 5909   5.027   1.032   3.936  0.5387 -0.0155 -0.5097
   69SAPC  H19R 5910   4.921   1.061   3.946  0.1894 -0.6947 -1.8895
   69SAPC  H19S 5911   5.061   0.986   4.031 -1.5924 -1.5335 -0.4134
   69SAPC  C220 5912   5.024   0.917   3.830 -0.2804 -0.1852 -0.3699
   69SAPC  H20R 5913   5.019   0.820   3.885  2.1355  1.1240  2.4042
   69SAPC  H20S 5914   5.119   0.923   3.773  0.7361  1.4879  1.4052
   69SAPC  H20T 5915   4.939   0.931   3.760 -0.9693 -1.3636  0.1832
   69SAPC   C33 5916   4.985   2.543   3.233  0.1088  0.3131 -0.6410
   69SAPC   H3X 5917   5.084   2.579   3.198  0.8343 -0.5804  0.4415
   69SAPC   H3Y 5918   4.990   2.433   3.247 -0.1641  0.3772 -0.0132
   69SAPC   C34 5919   4.977   2.626   3.362 -0.2529  0.3921  1.3930
   69SAPC   H4X 5920   4.883   2.612   3.418 -2.2096 -1.1691 -1.9655
   69SAPC   H4Y 5921   4.966   2.733   3.333 -2.3467  0.0644  0.7957
   69SAPC   C35 5922   5.091   2.600   3.454 -0.4742  0.5403  0.0161
   69SAPC   H5X 5923   5.176   2.658   3.415 -0.8618  1.1739  0.1023
   69SAPC   H5Y 5924   5.117   2.492   3.459 -0.7540  0.4819  0.3428
   69SAPC   C36 5925   5.054   2.645   3.595  0.0187  0.0748  0.3800
   69SAPC   H6X 5926   4.961   2.602   3.636 -0.0688 -2.3912 -2.1223
   69SAPC   H6Y 5927   5.031   2.753   3.588 -2.7341 -0.2761  2.5695
   69SAPC   C37 5928   5.161   2.609   3.704 -0.0393 -0.7281  0.1687
   69SAPC   H7X 5929   5.257   2.654   3.669 -1.3581  0.5997 -1.8833
   69SAPC   H7Y 5930   5.175   2.499   3.709  2.7597 -0.5998 -2.1686
   69SAPC   C38 5931   5.150   2.667   3.845  0.0752 -0.6557  1.1166
   69SAPC   H8X 5932   5.052   2.624   3.875 -1.9476  2.7727 -0.1003
   69SAPC   H8Y 5933   5.160   2.777   3.845  0.0250 -0.6347  2.3274
   69SAPC   C39 5934   5.263   2.620   3.943  0.6677  0.3147  0.2679
   69SAPC   H9X 5935   5.355   2.681   3.927  0.1829  0.8478 -0.5870
   69SAPC   H9Y 5936   5.280   2.516   3.908  0.2114  1.2471 -3.0238
   69SAPC  C310 5937   5.219   2.614   4.091  0.1851 -0.2114  0.7617
   69SAPC  H10X 5938   5.136   2.540   4.086 -0.1877  0.0832  2.0910
   69SAPC  H10Y 5939   5.187   2.708   4.141  0.5809  0.4075 -0.1360
   69SAPC  C311 5940   5.321   2.544   4.189 -0.9693  0.7668  0.6438
   69SAPC  H11X 5941   5.279   2.447   4.225  2.7986 -0.3569  2.5983
   69SAPC  H11Y 5942   5.333   2.606   4.280 -0.3084  2.3823 -0.5076
   69SAPC  C312 5943   5.460   2.504   4.124  0.0078  0.4970 -0.5763
   69SAPC  H12X 5944   5.506   2.601   4.095 -0.0038  0.6370 -0.1221
   69SAPC  H12Y 5945   5.442   2.442   4.033  0.8591 -0.0286 -0.3889
   69SAPC  C313 5946   5.542   2.418   4.215  0.8158  0.9076 -0.7420
   69SAPC  H13X 5947   5.568   2.470   4.310  0.4114 -0.5471  0.2041
   69SAPC  H13Y 5948   5.641   2.399   4.168  0.3275 -0.2757 -1.3250
   69SAPC  C314 5949   5.483   2.271   4.241  0.1928  0.3134 -0.1762
   69SAPC  H14X 5950   5.458   2.224   4.144  0.8211 -0.0284 -0.1790
   69SAPC  H14Y 5951   5.397   2.303   4.302  0.8248  1.6409  0.0620
   69SAPC  C315 5952   5.570   2.167   4.317  0.0664  0.3815 -0.5949
   69SAPC  H15X 5953   5.588   2.208   4.418 -1.6930  0.3505 -0.2375
   69SAPC  H15Y 5954   5.664   2.166   4.257  1.5460 -0.0095  1.5948
   69SAPC  C316 5955   5.500   2.030   4.328  0.6778 -0.4398  0.2138
   69SAPC  H16X 5956   5.565   1.973   4.398  0.9340 -0.4522 -0.0337
   69SAPC  H16Y 5957   5.489   1.976   4.231 -0.9510 -1.0681  0.7084
   69SAPC  C317 5958   5.350   2.033   4.378  0.5392  0.1963  0.6773
   69SAPC  H17X 5959   5.285   2.069   4.295 -2.2838 -0.4971  2.4269
   69SAPC  H17Y 5960   5.340   2.093   4.472 -2.2774 -0.6087  0.9876
   69SAPC  C318 5961   5.299   1.895   4.429 -0.2428 -0.5315 -0.0663
   69SAPC  H18X 5962   5.195   1.900   4.467  0.0928  0.2960  0.7638
   69SAPC  H18Y 5963   5.357   1.853   4.514  1.2571 -0.5189 -1.0491
   69SAPC  H18Z 5964   5.305   1.821   4.346 -0.7993 -0.8328  0.1528
   70SAPC     N 5965   5.741   1.244   2.035  0.5586  0.2761 -0.0082
   70SAPC   C12 5966   5.684   1.256   2.174  0.0314 -0.2710 -0.4097
   70SAPC  H12A 5967   5.640   1.354   2.187  3.1682  1.6503 -2.7467
   70SAPC  H12B 5968   5.770   1.255   2.240 -1.0837  2.4685  1.2835
   70SAPC   C13 5969   5.866   1.324   2.007  0.0174  0.5460 -0.4765
   70SAPC  H13A 5970   5.861   1.416   2.063 -1.3416 -0.9797  2.1290
   70SAPC  H13B 5971   5.948   1.257   2.032 -0.9187 -0.7686 -0.7931
   70SAPC  H13C 5972   5.869   1.341   1.901 -0.7313  0.1839 -0.5665
   70SAPC   C14 5973   5.789   1.096   2.008  1.0028  0.1209 -0.3262
   70SAPC  H14A 5974   5.855   1.067   2.088 -2.1774 -2.3190  1.6563
   70SAPC  H14B 5975   5.707   1.025   2.010  1.5585 -0.5207  0.8362
   70SAPC  H14C 5976   5.853   1.084   1.921  1.4496 -1.7974  0.2189
   70SAPC   C15 5977   5.635   1.268   1.931 -0.4697  0.0009 -0.0446
   70SAPC  H15A 5978   5.549   1.205   1.947  0.1106 -0.3835  1.8693
   70SAPC  H15B 5979   5.612   1.372   1.918  1.4345  0.5696  0.7659
   70SAPC  H15C 5980   5.673   1.245   1.833  1.9533 -0.6213  0.9456
   70SAPC   C11 5981   5.572   1.158   2.226  0.6541 -0.5956  0.0581
   70SAPC  H11A 5982   5.545   1.209   2.321  3.0836  0.4768  0.2745
   70SAPC  H11B 5983   5.616   1.062   2.259  0.8192 -0.0117  1.6520
   70SAPC     P 5984   5.317   1.109   2.188 -0.1121  0.0055  0.4175
   70SAPC   O13 5985   5.272   1.217   2.283  0.0435 -0.2499 -0.8917
   70SAPC   O14 5986   5.224   1.062   2.083  0.1498 -0.2651  0.5759
   70SAPC   O12 5987   5.461   1.150   2.136  0.4633 -0.1011 -0.3620
   70SAPC   O11 5988   5.344   0.984   2.278  0.7613 -0.3391  0.1533
   70SAPC    C1 5989   5.235   0.904   2.336  0.0597 -0.1784 -0.1378
   70SAPC    HA 5990   5.161   0.871   2.261 -1.0790  0.6418  0.5940
   70SAPC    HB 5991   5.281   0.811   2.375 -0.2960  0.4773  1.9434
   70SAPC    C2 5992   5.171   0.975   2.467 -0.3025  0.3245 -0.1009
   70SAPC    HS 5993   5.083   1.025   2.421 -0.4600 -1.2807 -1.6907
   70SAPC   O21 5994   5.266   1.065   2.524  0.1170 -0.3465  0.4133
   70SAPC   C21 5995   5.216   1.175   2.577 -0.1246  0.0684  0.5359
   70SAPC   O22 5996   5.096   1.199   2.590 -0.0781  0.1977  0.4436
   70SAPC   C22 5997   5.333   1.255   2.640  0.2282  0.3012  0.0191
   70SAPC   H2R 5998   5.376   1.187   2.717 -2.0939 -0.4991  0.6943
   70SAPC   H2S 5999   5.408   1.273   2.560 -0.9875 -2.7911 -2.0207
   70SAPC    C3 6000   5.119   0.876   2.581 -0.1726 -0.0990  0.0107
   70SAPC    HX 6001   5.020   0.834   2.554 -0.3201  0.2662 -0.0268
   70SAPC    HY 6002   5.123   0.934   2.675  0.4087  0.6072 -0.4313
   70SAPC   O31 6003   5.207   0.768   2.595 -0.0011 -0.1522  0.3101
   70SAPC   C31 6004   5.171   0.637   2.595 -0.3093  0.4319  0.1876
   70SAPC   O32 6005   5.064   0.596   2.555 -0.1639 -0.0265 -0.5016
   70SAPC   C32 6006   5.283   0.552   2.655 -0.3458  0.3302  0.5503
   70SAPC   H2X 6007   5.320   0.605   2.745  0.6851 -0.9797  0.9288
   70SAPC   H2Y 6008   5.363   0.548   2.579 -1.4541  1.0742 -0.6855
   70SAPC   C23 6009   5.282   1.386   2.695  0.6073 -0.2107  0.1920
   70SAPC   H3R 6010   5.202   1.418   2.625 -0.0991 -1.3108  0.4801
   70SAPC   H3S 6011   5.371   1.453   2.699  1.2197 -0.9974  0.0408
   70SAPC   C24 6012   5.225   1.369   2.835 -0.3179  0.2545  0.0974
   70SAPC   H4R 6013   5.267   1.275   2.875 -2.9141 -0.6649  0.8657
   70SAPC   H4S 6014   5.116   1.348   2.839  0.0036 -1.5776  0.0168
   70SAPC   C25 6015   5.225   1.494   2.923  0.1841  0.0164 -0.1823
   70SAPC   H5R 6016   5.195   1.585   2.870 -1.0485  0.2147  0.7968
   70SAPC   C26 6017   5.256   1.486   3.050  0.9076 -0.6932 -0.0546
   70SAPC   H6R 6018   5.258   1.582   3.103  0.5262  0.0015 -1.2637
   70SAPC   C27 6019   5.273   1.369   3.145  0.0659 -0.2489 -0.1785
   70SAPC   H7R 6020   5.350   1.299   3.106 -0.9411 -1.6288  0.2153
   70SAPC   H7S 6021   5.188   1.299   3.127 -1.0331  0.8683  0.5012
   70SAPC   C28 6022   5.278   1.396   3.294 -0.3704  0.2653 -0.3486
   70SAPC   H8R 6023   5.287   1.502   3.323  0.0042  0.0135  0.5076
   70SAPC   C29 6024   5.286   1.300   3.392 -0.0645  0.3647 -0.1332
   70SAPC   H9R 6025   5.279   1.335   3.497  1.5252 -2.2678  0.9417
   70SAPC  C210 6026   5.286   1.152   3.374  0.1795  0.3453 -0.4509
   70SAPC  H10R 6027   5.326   1.118   3.276  0.6682  4.1953 -1.7546
   70SAPC  H10S 6028   5.180   1.120   3.374 -0.3309  1.9323  0.6596
   70SAPC  C211 6029   5.353   1.086   3.492  0.0692 -0.1019 -0.5838
   70SAPC  H11R 6030   5.348   1.139   3.588  2.4627 -0.2854 -0.3136
   70SAPC  C212 6031   5.444   0.989   3.499 -0.1680  0.2052 -0.3439
   70SAPC  H12R 6032   5.483   0.952   3.595  1.6978  0.1875 -1.0704
   70SAPC  C213 6033   5.496   0.905   3.381 -0.0538  0.0864 -0.4673
   70SAPC  H13R 6034   5.602   0.884   3.405  0.2199 -2.2536 -3.1750
   70SAPC  H13S 6035   5.506   0.976   3.297  0.7269 -0.1463 -0.5757
   70SAPC  C214 6036   5.423   0.774   3.347 -0.3794  0.2337  0.3035
   70SAPC  H14R 6037   5.371   0.768   3.250 -0.8582 -1.3835  0.6304
   70SAPC  C215 6038   5.429   0.658   3.416 -0.4087 -0.0737 -0.6880
   70SAPC  H15R 6039   5.371   0.579   3.367 -0.0078 -0.2853 -0.8194
   70SAPC  C216 6040   5.519   0.629   3.534 -0.0584  0.7624  0.1058
   70SAPC  H16R 6041   5.495   0.689   3.624  1.0493 -0.9455  1.6178
   70SAPC  H16S 6042   5.626   0.649   3.511  0.2603 -0.5755  0.3238
   70SAPC  C217 6043   5.508   0.481   3.582 -0.0459 -0.0374 -0.2630
   70SAPC  H17R 6044   5.543   0.411   3.503  1.1946  0.0487  0.1912
   70SAPC  H17S 6045   5.400   0.464   3.599  0.2423 -0.3476  1.3913
   70SAPC  C218 6046   5.582   0.468   3.718 -0.2839  0.0437 -0.4502
   70SAPC  H18R 6047   5.550   0.542   3.795  1.8450 -0.7850  1.3688
   70SAPC  H18S 6048   5.693   0.476   3.707  0.0251 -1.9651  0.6991
   70SAPC  C219 6049   5.548   0.339   3.786 -0.1957 -0.8908 -0.4051
   70SAPC  H19R 6050   5.599   0.331   3.884  0.2763  0.1792 -0.5461
   70SAPC  H19S 6051   5.580   0.258   3.717 -1.1681 -1.3957 -0.2792
   70SAPC  C220 6052   5.391   0.330   3.812 -0.0888 -0.3658  0.9469
   70SAPC  H20R 6053   5.372   0.268   3.903  1.0936  1.2592  2.3545
   70SAPC  H20S 6054   5.341   0.292   3.720 -0.9159  3.1737 -0.2050
   70SAPC  H20T 6055   5.346   0.430   3.830  0.9879  0.6649 -1.7057
   70SAPC   C33 6056   5.227   0.413   2.693  0.2830 -0.7147  0.5087
   70SAPC   H3X 6057   5.312   0.343   2.710  2.0089  0.8035 -1.3377
   70SAPC   H3Y 6058   5.159   0.375   2.614  0.0130  1.5858 -0.4280
   70SAPC   C34 6059   5.137   0.433   2.817  0.0391 -0.8540 -1.1737
   70SAPC   H4X 6060   5.052   0.503   2.801  0.2036 -0.5926 -0.9245
   70SAPC   H4Y 6061   5.186   0.488   2.900 -1.0659 -0.2138 -0.9305
   70SAPC   C35 6062   5.088   0.301   2.876  0.1971 -0.8267  0.0825
   70SAPC   H5X 6063   5.178   0.239   2.895  0.5990 -0.5490 -0.8694
   70SAPC   H5Y 6064   5.022   0.255   2.799 -1.7214  1.8079  0.0136
   70SAPC   C36 6065   5.001   0.294   3.005  0.5487 -0.1814  0.2538
   70SAPC   H6X 6066   4.938   0.204   3.022 -0.8035  0.7157  0.1387
   70SAPC   H6Y 6067   4.925   0.374   2.991  0.6802 -0.2509 -1.0038
   70SAPC   C37 6068   5.073   0.327   3.137 -0.6992  0.0957 -0.3733
   70SAPC   H7X 6069   5.136   0.238   3.159 -2.5873 -1.2456 -0.1350
   70SAPC   H7Y 6070   5.132   0.420   3.122 -1.9039  0.8783 -0.4253
   70SAPC   C38 6071   4.988   0.324   3.266  1.0167 -0.7543  0.2101
   70SAPC   H8X 6072   4.908   0.247   3.264  1.3964 -1.1612  0.4340
   70SAPC   H8Y 6073   4.925   0.415   3.257 -0.3615 -1.5802  1.1926
   70SAPC   C39 6074   5.060   0.336   3.405 -0.4425 -0.0449  0.3492
   70SAPC   H9X 6075   5.138   0.415   3.400 -1.8992  1.4388 -0.0543
   70SAPC   H9Y 6076   5.103   0.234   3.408  0.6201  0.3934  0.5359
   70SAPC  C310 6077   4.966   0.370   3.516 -0.1918  0.0547  0.0659
   70SAPC  H10X 6078   4.888   0.293   3.536 -1.0130  0.5559 -1.0800
   70SAPC  H10Y 6079   4.911   0.462   3.486  0.1967  0.3529  0.2626
   70SAPC  C311 6080   5.048   0.380   3.647  0.1403  0.0745  0.1319
   70SAPC  H11X 6081   5.120   0.465   3.640  0.1166  0.0520 -0.3673
   70SAPC  H11Y 6082   5.104   0.287   3.672  0.2414 -0.0911 -0.6900
   70SAPC  C312 6083   4.962   0.400   3.778 -0.7198  0.2615 -0.6227
   70SAPC  H12X 6084   4.882   0.323   3.790 -1.7409  1.0919 -1.8608
   70SAPC  H12Y 6085   4.909   0.497   3.772  0.1958  0.7880 -0.2476
   70SAPC  C313 6086   5.041   0.398   3.910  0.2634 -0.1049  1.4102
   70SAPC  H13X 6087   5.111   0.483   3.927 -0.3055  0.8239 -0.5888
   70SAPC  H13Y 6088   5.107   0.309   3.906  0.7612  0.2953  0.2256
   70SAPC  C314 6089   4.949   0.393   4.029 -0.2159  0.1235 -0.1589
   70SAPC  H14X 6090   4.899   0.293   4.031 -0.9073  0.4451 -0.9631
   70SAPC  H14Y 6091   4.869   0.469   4.018 -1.5147 -1.0906  0.4884
   70SAPC  C315 6092   5.014   0.421   4.164  0.0193  0.2803  0.3009
   70SAPC  H15X 6093   5.021   0.532   4.168 -0.1135  0.4912 -2.7661
   70SAPC  H15Y 6094   5.119   0.384   4.160  0.4691  1.2512  2.0512
   70SAPC  C316 6095   4.940   0.364   4.280  0.5453 -0.1110  0.1574
   70SAPC  H16X 6096   4.920   0.257   4.262  0.5898  0.0617 -0.9839
   70SAPC  H16Y 6097   4.849   0.426   4.287  0.6712  0.1389 -0.3297
   70SAPC  C317 6098   5.007   0.380   4.415 -0.6134  0.1543 -0.3415
   70SAPC  H17X 6099   5.106   0.330   4.410 -0.4845 -0.0645  2.6632
   70SAPC  H17Y 6100   4.943   0.335   4.494 -1.6174 -0.4473 -1.4628
   70SAPC  C318 6101   5.035   0.525   4.452  0.6267 -0.1525  0.2809
   70SAPC  H18X 6102   5.085   0.535   4.551  0.3164  0.9267  0.3445
   70SAPC  H18Y 6103   4.936   0.575   4.450 -0.6333 -2.5026 -0.3527
   70SAPC  H18Z 6104   5.107   0.568   4.379  0.4640 -0.8646 -0.3173
   71SAPC     N 6105   4.933   6.471   1.906 -0.2317 -0.6390  0.0283
   71SAPC   C12 6106   4.957   6.458   2.061  0.5412 -0.2218 -0.0040
   71SAPC  H12A 6107   4.976   6.555   2.105 -0.0249 -0.9298  1.9258
   71SAPC  H12B 6108   5.044   6.395   2.068  1.5613  1.2164  0.8856
   71SAPC   C13 6109   4.894   6.341   1.842  0.5054 -0.3213 -0.1106
   71SAPC  H13A 6110   4.893   6.356   1.735 -2.2163  1.3312  0.0456
   71SAPC  H13B 6111   4.976   6.276   1.868  0.4187 -0.2708  0.2892
   71SAPC  H13C 6112   4.800   6.303   1.879  0.4076 -3.1239 -2.7951
   71SAPC   C14 6113   4.822   6.561   1.878 -0.2544  0.2999 -0.6372
   71SAPC  H14A 6114   4.848   6.659   1.914  0.6218  0.0089 -0.4525
   71SAPC  H14B 6115   4.804   6.571   1.772 -1.7757 -0.0979 -0.4418
   71SAPC  H14C 6116   4.728   6.526   1.918 -0.1927  0.1610 -0.6118
   71SAPC   C15 6117   5.056   6.523   1.847 -0.8464  0.1500  0.0249
   71SAPC  H15A 6118   5.039   6.529   1.740  0.8049 -0.2631 -0.2826
   71SAPC  H15B 6119   5.091   6.621   1.876  0.7624 -0.2117 -0.5613
   71SAPC  H15C 6120   5.142   6.458   1.854  0.8989  2.3587  0.5100
   71SAPC   C11 6121   4.844   6.410   2.149  0.0921 -0.5338 -0.1179
   71SAPC  H11A 6122   4.754   6.473   2.131  0.2915  0.3066  1.6343
   71SAPC  H11B 6123   4.873   6.427   2.254 -0.5190 -0.7590  0.0901
   71SAPC     P 6124   4.900   6.147   2.161 -0.1542  0.1056  0.3853
   71SAPC   O13 6125   4.822   6.040   2.220  0.2758  0.1518 -0.1292
   71SAPC   O14 6126   4.973   6.113   2.036  0.0572  0.5431 -0.0816
   71SAPC   O12 6127   4.805   6.274   2.133 -0.4064  1.0919  0.3657
   71SAPC   O11 6128   4.998   6.209   2.269 -0.4238 -0.3026 -0.1346
   71SAPC    C1 6129   4.971   6.221   2.406  0.0373 -0.4247  0.3167
   71SAPC    HA 6130   4.905   6.306   2.430 -1.2523 -1.6732  1.3786
   71SAPC    HB 6131   4.915   6.133   2.445 -0.6459 -1.5304 -2.8728
   71SAPC    C2 6132   5.103   6.252   2.485 -0.5009 -0.2184 -0.2640
   71SAPC    HS 6133   5.165   6.161   2.492 -1.7353 -1.0170  0.6512
   71SAPC   O21 6134   5.068   6.303   2.614  0.5873 -0.8555 -0.6656
   71SAPC   C21 6135   5.027   6.215   2.704 -0.5231 -0.1242 -0.0314
   71SAPC   O22 6136   5.009   6.095   2.682  0.4339 -0.0892  0.0246
   71SAPC   C22 6137   5.009   6.271   2.848  0.6645  0.0485  0.3683
   71SAPC   H2R 6138   4.915   6.329   2.837  1.2011  0.6767 -1.1569
   71SAPC   H2S 6139   4.976   6.182   2.906 -1.6061 -0.7682 -1.9669
   71SAPC    C3 6140   5.187   6.359   2.409  0.8762  0.1741  0.2591
   71SAPC    HX 6141   5.125   6.444   2.374  1.1372 -0.0940 -0.9155
   71SAPC    HY 6142   5.233   6.318   2.316  1.7341 -0.1413  0.8089
   71SAPC   O31 6143   5.282   6.419   2.495  0.4349 -0.0161 -0.7630
   71SAPC   C31 6144   5.406   6.381   2.484 -0.5245 -1.1725  0.6855
   71SAPC   O32 6145   5.460   6.324   2.389 -0.2433 -0.4932 -0.6256
   71SAPC   C32 6146   5.479   6.415   2.621 -0.2893 -0.5023 -1.1345
   71SAPC   H2X 6147   5.534   6.323   2.651  0.3930 -0.4721 -2.2457
   71SAPC   H2Y 6148   5.405   6.423   2.704  0.6941 -0.6622 -0.2179
   71SAPC   C23 6149   5.131   6.353   2.895  0.0508  0.2427  0.2661
   71SAPC   H3R 6150   5.107   6.391   2.996 -1.7957 -0.7446  0.2431
   71SAPC   H3S 6151   5.140   6.438   2.825  1.4857 -2.5006 -3.1907
   71SAPC   C24 6152   5.260   6.264   2.916 -0.2366 -0.4242 -0.7285
   71SAPC   H4R 6153   5.302   6.238   2.816  0.3203 -0.5333 -0.4640
   71SAPC   H4S 6154   5.218   6.174   2.964  0.8575  0.1476  1.3866
   71SAPC   C25 6155   5.371   6.336   2.998  0.3270  0.2762  0.0314
   71SAPC   H5R 6156   5.420   6.419   2.945  1.5955 -0.4542  0.0231
   71SAPC   C26 6157   5.400   6.297   3.121 -0.1958 -0.0327  0.6436
   71SAPC   H6R 6158   5.482   6.345   3.176 -1.5445  0.3977  2.3545
   71SAPC   C27 6159   5.337   6.193   3.211  0.6629  0.0954  0.2079
   71SAPC   H7R 6160   5.264   6.136   3.149  0.8851 -1.4179  1.2963
   71SAPC   H7S 6161   5.285   6.233   3.301  1.2689 -1.6493  1.3897
   71SAPC   C28 6162   5.433   6.083   3.255 -0.3029  0.0496 -0.0842
   71SAPC   H8R 6163   5.447   6.007   3.177  0.3160 -1.5371  1.5056
   71SAPC   C29 6164   5.505   6.085   3.366 -0.3150 -1.0927  0.0961
   71SAPC   H9R 6165   5.585   6.010   3.378  1.0709  0.5038  1.3739
   71SAPC  C210 6166   5.498   6.194   3.475  0.3196  0.2373 -0.4017
   71SAPC  H10R 6167   5.467   6.294   3.439  1.6440 -0.1408 -2.8170
   71SAPC  H10S 6168   5.600   6.213   3.516  0.1859  0.9474 -0.3948
   71SAPC  C211 6169   5.413   6.150   3.595  0.2189 -0.2187  0.3751
   71SAPC  H11R 6170   5.308   6.141   3.565  0.7783 -2.4829 -1.2053
   71SAPC  C212 6171   5.449   6.112   3.716  0.4689 -0.4027 -0.7874
   71SAPC  H12R 6172   5.381   6.093   3.801 -1.7499  0.5281 -2.2531
   71SAPC  C213 6173   5.590   6.110   3.760  0.2590  0.7535  0.5269
   71SAPC  H13R 6174   5.673   6.113   3.686 -0.8152 -1.3240 -0.8668
   71SAPC  H13S 6175   5.614   6.015   3.813  0.9968  1.2104  1.0373
   71SAPC  C214 6176   5.621   6.223   3.853 -0.4901  0.2682  0.0522
   71SAPC  H14R 6177   5.658   6.312   3.801 -1.6724 -0.4769 -2.2057
   71SAPC  C215 6178   5.610   6.215   3.990  0.8090  0.4129  0.0660
   71SAPC  H15R 6179   5.634   6.302   4.054  0.6631 -0.0372  0.7368
   71SAPC  C216 6180   5.562   6.103   4.081 -0.8880  0.0015 -0.1191
   71SAPC  H16R 6181   5.639   6.069   4.153 -1.4582 -0.9450  0.0576
   71SAPC  H16S 6182   5.554   6.011   4.019  1.3534 -1.1497  1.1698
   71SAPC  C217 6183   5.446   6.137   4.165  0.2692 -0.3884 -0.3542
   71SAPC  H17R 6184   5.424   6.038   4.210  1.0129 -0.1893  0.4734
   71SAPC  H17S 6185   5.359   6.179   4.111  0.5659  0.8621  0.1061
   71SAPC  C218 6186   5.494   6.233   4.282  0.2235 -0.2503  0.1731
   71SAPC  H18R 6187   5.525   6.332   4.242 -2.4237  0.4214 -0.4518
   71SAPC  H18S 6188   5.572   6.178   4.338  1.8874  1.1321 -0.6895
   71SAPC  C219 6189   5.376   6.265   4.368 -0.1580 -0.4948 -0.0969
   71SAPC  H19R 6190   5.350   6.167   4.412 -1.3442  0.5476  1.6496
   71SAPC  H19S 6191   5.285   6.301   4.315 -1.2829 -0.1707  1.9412
   71SAPC  C220 6192   5.412   6.371   4.476  0.2815  0.1578 -0.0912
   71SAPC  H20R 6193   5.442   6.469   4.433 -0.1958 -0.1329 -1.1169
   71SAPC  H20S 6194   5.501   6.326   4.526 -1.1205 -1.3441  1.1846
   71SAPC  H20T 6195   5.338   6.393   4.556  1.3302 -1.1068  1.2860
   71SAPC   C33 6196   5.572   6.540   2.623  0.3453 -0.2644 -0.5466
   71SAPC   H3X 6197   5.506   6.614   2.673 -0.1578  0.0944 -1.7105
   71SAPC   H3Y 6198   5.583   6.566   2.516  2.7513 -0.8205 -0.4903
   71SAPC   C34 6199   5.708   6.520   2.699 -0.0947  0.3596  0.0838
   71SAPC   H4X 6200   5.765   6.615   2.692  0.4368 -0.0459 -1.5169
   71SAPC   H4Y 6201   5.770   6.441   2.651 -0.0289  0.2721  0.3117
   71SAPC   C35 6202   5.691   6.495   2.845 -0.7743 -0.0887  0.1136
   71SAPC   H5X 6203   5.660   6.392   2.872  0.6332 -0.9682 -1.3834
   71SAPC   H5Y 6204   5.619   6.564   2.894  1.8532  1.8495  1.5219
   71SAPC   C36 6205   5.822   6.525   2.920 -0.6901  0.1851 -0.9382
   71SAPC   H6X 6206   5.878   6.616   2.891 -1.8169  2.4142  3.0405
   71SAPC   H6Y 6207   5.896   6.444   2.903  0.1524 -0.1429  3.2004
   71SAPC   C37 6208   5.802   6.540   3.073  0.1573  0.2208  0.0361
   71SAPC   H7X 6209   5.712   6.602   3.088  1.0333  1.0818  2.1523
   71SAPC   H7Y 6210   5.889   6.595   3.117  1.1965 -0.7538 -0.7319
   71SAPC   C38 6211   5.792   6.405   3.156 -0.5559  0.6110  0.3556
   71SAPC   H8X 6212   5.898   6.373   3.158 -1.3525 -2.8630 -2.7587
   71SAPC   H8Y 6213   5.728   6.339   3.094 -2.0062  1.8559  0.4587
   71SAPC   C39 6214   5.739   6.432   3.299 -0.4444  0.3810 -0.3682
   71SAPC   H9X 6215   5.694   6.344   3.350  2.2999 -0.4305  0.8763
   71SAPC   H9Y 6216   5.671   6.519   3.293 -2.1155 -0.9908 -2.6962
   71SAPC  C310 6217   5.859   6.468   3.398  0.3891 -0.3006  0.4354
   71SAPC  H10X 6218   5.930   6.529   3.338  0.1395  1.0218  1.4591
   71SAPC  H10Y 6219   5.911   6.378   3.437  0.9426  0.1568  0.7669
   71SAPC  C311 6220   5.809   6.563   3.508 -0.5815 -0.3596 -0.4918
   71SAPC  H11X 6221   5.754   6.497   3.578 -2.0937 -0.5567 -1.8076
   71SAPC  H11Y 6222   5.734   6.629   3.460 -1.6915 -0.9310  0.4242
   71SAPC  C312 6223   5.915   6.647   3.582 -0.1518 -0.3818 -0.4318
   71SAPC  H12X 6224   5.978   6.709   3.515  1.0157  0.3774  1.3096
   71SAPC  H12Y 6225   5.979   6.562   3.616 -1.1456 -0.9025  0.1999
   71SAPC  C313 6226   5.856   6.729   3.698  0.3577 -0.1721  0.0671
   71SAPC  H13X 6227   5.793   6.668   3.765  1.0477 -1.3984 -0.3603
   71SAPC  H13Y 6228   5.787   6.800   3.648  0.2028  0.3179  0.9591
   71SAPC  C314 6229   5.964   6.816   3.767 -0.4626 -0.2029 -0.8276
   71SAPC  H14X 6230   6.013   6.880   3.692  1.8475 -1.1308 -0.2005
   71SAPC  H14Y 6231   6.036   6.736   3.795 -0.1646 -0.8089 -3.1490
   71SAPC  C315 6232   5.911   6.883   3.901  0.6959  0.0557 -0.2150
   71SAPC  H15X 6233   5.871   6.798   3.960 -0.4423  1.1874  0.7123
   71SAPC  H15Y 6234   5.827   6.954   3.882  1.7486  1.4846  0.2586
   71SAPC  C316 6235   6.005   6.961   3.988 -0.1750 -0.4609  0.7695
   71SAPC  H16X 6236   6.027   7.053   3.930 -0.6877 -1.3121 -0.8041
   71SAPC  H16Y 6237   6.104   6.918   4.010  1.0040  1.3245 -0.7749
   71SAPC  C317 6238   5.938   7.022   4.117 -0.3294 -0.2109 -0.0840
   71SAPC  H17X 6239   6.011   7.099   4.149  0.2360 -0.9178  0.3512
   71SAPC  H17Y 6240   5.926   6.945   4.196 -2.7736  0.4883  0.3368
   71SAPC  C318 6241   5.808   7.101   4.091  0.0810  0.3383 -0.0586
   71SAPC  H18X 6242   5.823   7.177   4.012  1.6809 -0.7510 -0.8394
   71SAPC  H18Y 6243   5.767   7.139   4.187 -0.2734  2.0215 -0.8371
   71SAPC  H18Z 6244   5.737   7.022   4.056  1.4180 -0.9653  0.1010
   72SAPC     N 6245   4.244   3.758   2.397  0.6196  0.2055  1.1201
   72SAPC   C12 6246   4.171   3.887   2.407  0.8295 -0.6260  0.1751
   72SAPC  H12A 6247   4.219   3.969   2.356  0.9177 -2.1893 -2.4621
   72SAPC  H12B 6248   4.164   3.913   2.512 -1.9398 -0.5398  0.0427
   72SAPC   C13 6249   4.167   3.633   2.434 -0.3329 -0.4377  0.0261
   72SAPC  H13A 6250   4.146   3.639   2.540  0.1964  1.6219  0.0454
   72SAPC  H13B 6251   4.078   3.624   2.372  0.4576  0.2413 -1.2409
   72SAPC  H13C 6252   4.224   3.544   2.411  0.6865  0.2278 -0.0668
   72SAPC   C14 6253   4.288   3.726   2.257  0.5096  0.1980 -0.1740
   72SAPC  H14A 6254   4.360   3.803   2.231  0.7161 -0.1350 -0.6043
   72SAPC  H14B 6255   4.335   3.630   2.245  0.6958  0.3973 -1.1341
   72SAPC  H14C 6256   4.213   3.730   2.180 -2.4937  0.6779  2.5457
   72SAPC   C15 6257   4.368   3.763   2.477  0.5139  0.0640 -0.4174
   72SAPC  H15A 6258   4.430   3.846   2.449 -3.7446  3.8283  0.1303
   72SAPC  H15B 6259   4.339   3.799   2.575  1.1389  3.5420 -1.3938
   72SAPC  H15C 6260   4.422   3.669   2.472  1.2225  0.2445  2.1069
   72SAPC   C11 6261   4.031   3.885   2.346 -0.5960  0.7880 -0.1369
   72SAPC  H11A 6262   3.966   3.808   2.393  1.0941  0.2292  1.3993
   72SAPC  H11B 6263   4.034   3.877   2.235 -0.0663 -1.8767  0.0164
   72SAPC     P 6264   3.810   4.020   2.385  0.0608 -0.4444  0.2688
   72SAPC   O13 6265   3.780   4.159   2.423  0.3082 -0.3703 -0.3599
   72SAPC   O14 6266   3.752   3.967   2.258  0.2826  0.2116  0.3653
   72SAPC   O12 6267   3.971   4.010   2.375  0.2229  0.0914  0.0665
   72SAPC   O11 6268   3.783   3.921   2.509  0.1832  0.1449 -0.1570
   72SAPC    C1 6269   3.804   3.970   2.642 -0.5834  0.3967  0.3467
   72SAPC    HA 6270   3.914   3.965   2.658 -0.2922  1.1058 -1.2224
   72SAPC    HB 6271   3.777   4.076   2.662 -0.1622  0.7519 -0.8324
   72SAPC    C2 6272   3.712   3.891   2.741 -0.1451  1.0351  0.1405
   72SAPC    HS 6273   3.606   3.921   2.726 -0.6149 -0.9997 -0.9861
   72SAPC   O21 6274   3.752   3.925   2.879  0.2885  0.5646 -0.9053
   72SAPC   C21 6275   3.712   4.044   2.921 -0.0836  0.0963  0.4785
   72SAPC   O22 6276   3.617   4.103   2.875  0.4923 -0.6721 -0.1009
   72SAPC   C22 6277   3.786   4.080   3.052  0.4493  0.4510 -0.3273
   72SAPC   H2R 6278   3.801   3.991   3.115 -2.3964  0.0772 -0.0685
   72SAPC   H2S 6279   3.878   4.131   3.016 -1.1962  2.6686 -1.6992
   72SAPC    C3 6280   3.726   3.734   2.719  0.9145 -0.4271 -0.2735
   72SAPC    HX 6281   3.833   3.706   2.722  0.8549 -0.6438 -0.1320
   72SAPC    HY 6282   3.694   3.711   2.615  0.5978  0.8480 -0.4700
   72SAPC   O31 6283   3.647   3.664   2.820 -0.1205 -0.3168  0.3180
   72SAPC   C31 6284   3.524   3.646   2.794 -0.4938  0.0696 -0.5964
   72SAPC   O32 6285   3.465   3.662   2.688  0.4822  0.7308 -0.0195
   72SAPC   C32 6286   3.450   3.589   2.914  0.1451  0.4666 -0.0647
   72SAPC   H2X 6287   3.493   3.491   2.943  0.4926  0.7809  0.4937
   72SAPC   H2Y 6288   3.341   3.572   2.898  0.7100 -2.7703 -1.2216
   72SAPC   C23 6289   3.720   4.194   3.130  0.1408 -0.8349 -0.1805
   72SAPC   H3R 6290   3.720   4.287   3.069 -0.5988  0.1063  1.2123
   72SAPC   H3S 6291   3.783   4.228   3.215 -1.4701 -2.2409  1.6777
   72SAPC   C24 6292   3.573   4.177   3.182 -0.2958 -0.2927  0.2173
   72SAPC   H4R 6293   3.503   4.137   3.105 -1.0668  0.7119  0.3756
   72SAPC   H4S 6294   3.528   4.276   3.205  0.0051 -0.4420  1.4910
   72SAPC   C25 6295   3.565   4.084   3.296  0.5463 -0.4092  0.1717
   72SAPC   H5R 6296   3.583   3.978   3.271 -1.1783 -0.7324  0.2033
   72SAPC   C26 6297   3.545   4.115   3.430 -0.0480  0.1975 -0.2962
   72SAPC   H6R 6298   3.554   4.034   3.504 -4.6477  0.6765  1.0854
   72SAPC   C27 6299   3.526   4.250   3.495 -0.6905 -0.2627 -0.5410
   72SAPC   H7R 6300   3.447   4.301   3.435 -0.6196 -0.8457 -1.1411
   72SAPC   H7S 6301   3.623   4.301   3.480 -1.6792  2.5257  1.7671
   72SAPC   C28 6302   3.475   4.267   3.637  0.4322 -0.5019  0.0568
   72SAPC   H8R 6303   3.390   4.335   3.650 -0.1249 -1.2102  0.2027
   72SAPC   C29 6304   3.535   4.220   3.752  0.6949  0.0922  0.6552
   72SAPC   H9R 6305   3.502   4.247   3.854  1.3848 -3.0086  1.7846
   72SAPC  C210 6306   3.668   4.149   3.762 -0.6000 -0.5743 -0.0307
   72SAPC  H10R 6307   3.731   4.206   3.833 -0.9546  0.5197 -0.5657
   72SAPC  H10S 6308   3.722   4.171   3.667 -1.0783  1.2100  0.0690
   72SAPC  C211 6309   3.667   4.002   3.784  0.6192 -0.4486  0.0697
   72SAPC  H11R 6310   3.640   3.938   3.699 -1.0029  1.9025 -1.3122
   72SAPC  C212 6311   3.690   3.944   3.906  0.6713 -0.6889  0.6940
   72SAPC  H12R 6312   3.687   3.835   3.913  0.3719 -0.6040  2.6806
   72SAPC  C213 6313   3.720   4.028   4.033  0.1521 -0.3590  0.2835
   72SAPC  H13R 6314   3.633   4.093   4.057  1.1130  0.1513  2.7039
   72SAPC  H13S 6315   3.795   4.108   4.019  0.1598  0.0668  2.3972
   72SAPC  C214 6316   3.751   3.934   4.148 -0.0099 -0.4711  0.0936
   72SAPC  H14R 6317   3.694   3.840   4.144 -0.7781 -0.0252  0.3219
   72SAPC  C215 6318   3.797   3.973   4.268  0.3537 -0.0691 -0.5199
   72SAPC  H15R 6319   3.792   3.909   4.357 -1.9320  2.4425  1.3566
   72SAPC  C216 6320   3.845   4.111   4.299  0.2574  0.2180  0.1826
   72SAPC  H16R 6321   3.794   4.182   4.231 -0.2374  0.2178  0.5490
   72SAPC  H16S 6322   3.953   4.115   4.273 -0.1148 -0.5279 -1.5830
   72SAPC  C217 6323   3.822   4.132   4.450 -0.4841  0.2059 -0.4624
   72SAPC  H17R 6324   3.718   4.108   4.480  0.5851 -1.9722  1.7957
   72SAPC  H17S 6325   3.838   4.239   4.475 -2.1852  0.2114  0.6986
   72SAPC  C218 6326   3.920   4.056   4.545 -0.6202  0.5915  0.9768
   72SAPC  H18R 6327   4.023   4.075   4.507 -0.1986 -0.1003  1.7257
   72SAPC  H18S 6328   3.896   3.949   4.528  0.4310  0.4860  0.0082
   72SAPC  C219 6329   3.909   4.094   4.689 -0.4659 -0.1331 -1.3439
   72SAPC  H19R 6330   3.803   4.098   4.722  0.7501  1.2828  3.1657
   72SAPC  H19S 6331   3.969   4.182   4.721  0.7642 -1.9812  1.9113
   72SAPC  C220 6332   3.967   3.983   4.781  0.4383 -0.7127  0.2137
   72SAPC  H20R 6333   3.926   3.882   4.759 -1.1541  0.0645 -0.5298
   72SAPC  H20S 6334   3.945   4.009   4.887  0.1474 -0.4332  0.0852
   72SAPC  H20T 6335   4.077   3.981   4.764  0.4961 -1.6746  0.6414
   72SAPC   C33 6336   3.468   3.688   3.034 -0.0531 -0.3237  0.0184
   72SAPC   H3X 6337   3.421   3.787   3.014 -0.0960 -0.5529 -1.1055
   72SAPC   H3Y 6338   3.576   3.699   3.055  0.9246 -3.1269 -2.7166
   72SAPC   C34 6339   3.400   3.626   3.160  0.0062  0.2256  0.3087
   72SAPC   H4X 6340   3.451   3.528   3.172 -1.4034 -0.5170  0.4296
   72SAPC   H4Y 6341   3.293   3.605   3.140  0.3072  0.3724 -1.6085
   72SAPC   C35 6342   3.395   3.710   3.284 -0.2810  0.3658  0.3876
   72SAPC   H5X 6343   3.321   3.789   3.261 -1.9391 -0.9290  1.0569
   72SAPC   H5Y 6344   3.494   3.758   3.299 -0.7546  1.5012 -0.0679
   72SAPC   C36 6345   3.357   3.625   3.407  0.3937 -0.4202 -0.7729
   72SAPC   H6X 6346   3.428   3.540   3.407 -1.4493 -2.0731  0.7850
   72SAPC   H6Y 6347   3.254   3.585   3.393  1.4277 -3.4424 -0.4741
   72SAPC   C37 6348   3.363   3.712   3.539 -0.6752 -0.0236  0.9484
   72SAPC   H7X 6349   3.263   3.758   3.553 -1.4267 -0.1590 -2.9803
   72SAPC   H7Y 6350   3.430   3.798   3.521 -0.7685 -0.1787 -0.1690
   72SAPC   C38 6351   3.417   3.637   3.666  0.3950 -0.2777  0.3991
   72SAPC   H8X 6352   3.527   3.637   3.654  0.2548 -0.0102 -0.9992
   72SAPC   H8Y 6353   3.376   3.537   3.639 -1.6618  0.3784  0.9377
   72SAPC   C39 6354   3.380   3.690   3.800 -0.4208 -0.0219 -0.5440
   72SAPC   H9X 6355   3.270   3.704   3.803 -0.4344 -0.0599 -0.7711
   72SAPC   H9Y 6356   3.435   3.785   3.811 -0.4896 -0.1829  1.6192
   72SAPC  C310 6357   3.429   3.591   3.907  0.4132  0.2963  0.4619
   72SAPC  H10X 6358   3.533   3.560   3.879  0.1040 -0.8038  0.4541
   72SAPC  H10Y 6359   3.376   3.493   3.912  3.2538 -1.4302 -0.3962
   72SAPC  C311 6360   3.435   3.655   4.044  0.4610 -0.0775 -0.2797
   72SAPC  H11X 6361   3.330   3.665   4.079  0.2108 -1.9058 -0.4332
   72SAPC  H11Y 6362   3.474   3.759   4.034 -0.0074  0.2015  0.6341
   72SAPC  C312 6363   3.532   3.583   4.138 -0.5625  0.3408 -0.2413
   72SAPC  H12X 6364   3.637   3.593   4.104 -0.9389 -0.7871 -1.8884
   72SAPC  H12Y 6365   3.499   3.477   4.143  0.4725 -0.0938 -1.6866
   72SAPC  C313 6366   3.520   3.631   4.284 -0.3750 -0.0703  0.7595
   72SAPC  H13X 6367   3.428   3.593   4.334 -0.4475 -0.4315  0.3629
   72SAPC  H13Y 6368   3.504   3.741   4.288 -1.3917 -0.2328  1.6397
   72SAPC  C314 6369   3.650   3.595   4.365  0.2483  0.7275 -0.3008
   72SAPC  H14X 6370   3.740   3.651   4.333  0.2973 -0.2214 -1.8910
   72SAPC  H14Y 6371   3.668   3.488   4.340 -0.6148  0.6349 -0.5378
   72SAPC  C315 6372   3.643   3.585   4.519  0.8145 -0.2037 -0.4108
   72SAPC  H15X 6373   3.733   3.533   4.557  1.4701  1.1892  0.0082
   72SAPC  H15Y 6374   3.551   3.530   4.551  1.0095  0.7678  2.0749
   72SAPC  C316 6375   3.660   3.728   4.575 -0.0275  0.1671 -0.1546
   72SAPC  H16X 6376   3.566   3.785   4.556 -0.5969 -0.1445  1.5895
   72SAPC  H16Y 6377   3.746   3.768   4.517 -2.1360  0.9982 -2.9523
   72SAPC  C317 6378   3.678   3.735   4.724 -0.0860  0.6788  0.2239
   72SAPC  H17X 6379   3.667   3.840   4.757  0.8633  1.3844 -1.6020
   72SAPC  H17Y 6380   3.781   3.709   4.757  0.5094  2.1559 -0.4215
   72SAPC  C318 6381   3.578   3.653   4.807 -0.1922  0.3289  0.8646
   72SAPC  H18X 6382   3.595   3.544   4.791 -0.6208  0.5428 -1.3804
   72SAPC  H18Y 6383   3.471   3.657   4.777 -0.0954  1.8620  0.6659
   72SAPC  H18Z 6384   3.591   3.663   4.917  0.5661  0.5752  0.7546
   73SLPC     N 6385   1.227   0.818   6.960 -0.0221  0.3744  0.4971
   73SLPC   C13 6386   1.274   0.938   6.886 -0.7138  0.0530 -0.1686
   73SLPC  H13A 6387   1.197   1.003   6.849  0.3566  3.1959  2.6083
   73SLPC  H13B 6388   1.320   0.999   6.963 -0.5533 -0.1596 -0.0938
   73SLPC  H13C 6389   1.350   0.905   6.816 -0.6403 -2.4904  0.9812
   73SLPC   C14 6390   1.151   0.875   7.076  0.3288  0.6110  0.3957
   73SLPC  H14A 6391   1.077   0.942   7.035  0.2272 -0.0621 -0.5611
   73SLPC  H14B 6392   1.092   0.808   7.136  0.5994  0.3290  0.3454
   73SLPC  H14C 6393   1.214   0.933   7.141 -2.0478  1.7863  1.7881
   73SLPC   C15 6394   1.345   0.755   7.022 -0.6195  0.2146  0.2544
   73SLPC  H15A 6395   1.319   0.673   7.088 -1.3777  1.5874  1.7312
   73SLPC  H15B 6396   1.405   0.711   6.944 -0.3053 -0.2615  0.7515
   73SLPC  H15C 6397   1.396   0.834   7.074  1.3021 -1.1524  0.5667
   73SLPC   C12 6398   1.140   0.736   6.874 -0.1275 -0.4112  0.2711
   73SLPC  H12A 6399   1.051   0.794   6.853  0.6170  0.5225 -0.3598
   73SLPC  H12B 6400   1.106   0.649   6.927 -2.8216 -0.7815 -1.8451
   73SLPC   C11 6401   1.199   0.697   6.735 -0.0882 -0.1488 -0.2702
   73SLPC  H11A 6402   1.245   0.790   6.694  3.2900 -1.5669 -0.0240
   73SLPC  H11B 6403   1.122   0.653   6.669 -0.4986 -1.2133  0.8915
   73SLPC     P 6404   1.278   0.452   6.771 -0.0066 -0.1812 -0.0052
   73SLPC   O13 6405   1.410   0.382   6.780  0.6814 -1.0617  0.0619
   73SLPC   O14 6406   1.173   0.420   6.874  0.8587  0.2697  0.5992
   73SLPC   O12 6407   1.304   0.607   6.759  0.3750  0.0770  0.1169
   73SLPC   O11 6408   1.221   0.411   6.618  0.5139  0.2278 -0.1499
   73SLPC    C1 6409   1.257   0.479   6.499  0.2850 -0.5077 -0.8628
   73SLPC    HA 6410   1.170   0.526   6.449 -0.2476  1.7956  1.9667
   73SLPC    HB 6411   1.351   0.538   6.503  0.7697 -1.3016  0.0171
   73SLPC    C2 6412   1.299   0.369   6.399 -0.4741 -0.1366 -0.6680
   73SLPC    HS 6413   1.341   0.433   6.319 -1.9623  1.1938 -0.4334
   73SLPC   O21 6414   1.197   0.288   6.333  0.6168  0.0040  0.4314
   73SLPC   C21 6415   1.112   0.353   6.261  0.6352 -0.1126  0.3805
   73SLPC   O22 6416   1.123   0.470   6.226  0.5884  0.4235  0.3038
   73SLPC   C22 6417   0.995   0.256   6.226 -0.4289  0.6989 -0.1093
   73SLPC   H2R 6418   1.034   0.158   6.190 -0.8270  0.5609 -0.1736
   73SLPC   H2S 6419   0.933   0.247   6.317  1.4223 -3.0116  0.9795
   73SLPC    C3 6420   1.413   0.278   6.460 -1.0110 -0.4050  0.5188
   73SLPC    HX 6421   1.391   0.239   6.562  0.0927 -0.0663  0.8985
   73SLPC    HY 6422   1.507   0.338   6.469 -2.0933  1.9234 -2.1387
   73SLPC   O31 6423   1.438   0.178   6.362  0.4929 -0.0550  0.4467
   73SLPC   C31 6424   1.367   0.056   6.388 -0.5233  0.3788 -0.3117
   73SLPC   O32 6425   1.316   0.029   6.498  0.2038 -0.4607  0.1265
   73SLPC   C32 6426   1.383  -0.042   6.274  0.6355 -0.2575 -0.2643
   73SLPC   H2X 6427   1.285  -0.093   6.262 -0.1194  1.2639 -0.7102
   73SLPC   H2Y 6428   1.461  -0.116   6.303  1.6030  0.4596 -0.9832
   73SLPC   C23 6429   0.886   0.318   6.125  0.1838  0.3572 -0.2488
   73SLPC   H3R 6430   0.848   0.413   6.169  1.2058  1.4973 -1.7163
   73SLPC   H3S 6431   0.809   0.238   6.117 -0.2829  0.8830 -1.1075
   73SLPC   C24 6432   0.942   0.355   5.990  0.1402 -0.3534  0.2694
   73SLPC   H4R 6433   1.036   0.413   5.995  0.5489 -1.0291  0.6489
   73SLPC   H4S 6434   0.862   0.409   5.936  0.1723  1.0421  1.5764
   73SLPC   C25 6435   0.968   0.236   5.901 -0.9337 -0.3548 -0.0391
   73SLPC   H5R 6436   0.886   0.162   5.895  0.2667 -1.6532 -1.0563
   73SLPC   H5S 6437   1.052   0.179   5.947  0.3682 -0.7478 -2.7415
   73SLPC   C26 6438   0.997   0.281   5.755 -0.6567 -0.2321 -0.1289
   73SLPC   H6R 6439   1.071   0.363   5.741 -2.6820  1.5203 -1.2520
   73SLPC   H6S 6440   0.908   0.329   5.708 -0.3941  0.0956 -0.3001
   73SLPC   C27 6441   1.038   0.160   5.668  0.8780 -0.6946  0.0119
   73SLPC   H7R 6442   0.967   0.076   5.657 -0.6590  0.7234 -1.4038
   73SLPC   H7S 6443   1.133   0.118   5.706  1.6018  0.5755 -0.3275
   73SLPC   C28 6444   1.069   0.204   5.522  0.9234  0.2473  0.0660
   73SLPC   H8R 6445   1.157   0.271   5.507  1.3562 -0.6644 -1.7794
   73SLPC   H8S 6446   0.972   0.253   5.501 -0.7340 -1.8824  2.1935
   73SLPC   C29 6447   1.083   0.087   5.435  0.2467  0.1789  0.5258
   73SLPC   H9R 6448   1.081  -0.012   5.481 -0.4853  0.5967  1.4288
   73SLPC  C210 6449   1.107   0.103   5.300  0.1255  0.3668 -0.3863
   73SLPC  H10R 6450   1.129   0.020   5.232  1.4683  1.9793 -2.0502
   73SLPC  C211 6451   1.133   0.239   5.232 -0.4614  0.8544  0.2500
   73SLPC  H11R 6452   1.186   0.224   5.136  0.4274 -1.7549  1.0840
   73SLPC  H11S 6453   1.207   0.293   5.295  0.6898 -0.5363  0.1330
   73SLPC  C212 6454   1.017   0.333   5.222  0.0021  0.1670  0.4904
   73SLPC  H12R 6455   0.996   0.374   5.322  0.8801  1.0495  0.3381
   73SLPC  C213 6456   0.940   0.369   5.111  0.1393  0.8065 -0.3100
   73SLPC  H13R 6457   0.855   0.437   5.132  0.5850  1.1402  0.4922
   73SLPC  C214 6458   0.956   0.331   4.968 -0.4405  0.2649 -0.0245
   73SLPC  H14R 6459   0.856   0.321   4.920  0.1791  0.1001 -1.3410
   73SLPC  H14S 6460   1.019   0.239   4.961  1.8434  1.8474 -2.4221
   73SLPC  C215 6461   1.023   0.448   4.892 -0.5776 -0.3504 -0.3528
   73SLPC  H15R 6462   1.131   0.456   4.915 -0.7449  0.2627  0.2505
   73SLPC  H15S 6463   0.976   0.545   4.918  1.1411  0.1165  1.2099
   73SLPC  C216 6464   0.992   0.449   4.743 -0.6037 -0.1014  0.4627
   73SLPC  H16R 6465   0.886   0.473   4.720 -0.3101  0.3763 -0.4755
   73SLPC  H16S 6466   1.020   0.351   4.699 -0.0520  0.5210 -0.6273
   73SLPC  C217 6467   1.070   0.559   4.668  0.0952 -0.0678  0.8735
   73SLPC  H17R 6468   1.174   0.574   4.705  0.7664  0.4897 -1.1547
   73SLPC  H17S 6469   1.024   0.660   4.671  0.8035  0.4542 -2.5997
   73SLPC  C218 6470   1.069   0.534   4.511 -0.3916 -0.3680 -0.1747
   73SLPC  H18R 6471   0.963   0.525   4.478 -0.8968  1.4263  0.8577
   73SLPC  H18S 6472   1.121   0.437   4.492  2.3460  0.5452  2.1032
   73SLPC  H18T 6473   1.108   0.627   4.464 -0.7187  0.9467  2.0540
   73SLPC   C33 6474   1.432   0.019   6.144 -0.2037 -0.0181 -0.5332
   73SLPC   H3X 6475   1.477  -0.061   6.082 -0.3214  0.7606 -1.6617
   73SLPC   H3Y 6476   1.519   0.082   6.172 -0.6036 -0.6256  2.4000
   73SLPC   C34 6477   1.322   0.098   6.079  0.4075 -0.3585  0.6755
   73SLPC   H4X 6478   1.291   0.177   6.150 -2.6822 -1.0718  0.2642
   73SLPC   H4Y 6479   1.235   0.034   6.054  2.0084 -2.4733  0.2112
   73SLPC   C35 6480   1.364   0.171   5.950  0.1304  0.5985 -0.1241
   73SLPC   H5X 6481   1.456   0.230   5.969  0.5849 -0.2395  0.3646
   73SLPC   H5Y 6482   1.276   0.228   5.913  0.2838  1.9206  1.4113
   73SLPC   C36 6483   1.377   0.071   5.828 -0.5900  0.9009 -0.0543
   73SLPC   H6X 6484   1.275   0.028   5.818 -0.5983  0.7792  0.5155
   73SLPC   H6Y 6485   1.444  -0.014   5.852 -0.9870  0.4046 -0.6642
   73SLPC   C37 6486   1.420   0.145   5.705 -0.8323 -0.4293  0.3812
   73SLPC   H7X 6487   1.520   0.187   5.727 -0.1306 -0.5453 -2.2635
   73SLPC   H7Y 6488   1.350   0.229   5.685  0.8322  1.1042  0.7270
   73SLPC   C38 6489   1.426   0.070   5.568  0.0882  0.5582 -0.7908
   73SLPC   H8X 6490   1.339   0.004   5.549 -0.2232  0.2350  1.5253
   73SLPC   H8Y 6491   1.503  -0.005   5.593  1.5441  1.8830 -1.1152
   73SLPC   C39 6492   1.472   0.154   5.449 -0.0041 -0.3237 -0.0853
   73SLPC   H9X 6493   1.549   0.219   5.495 -1.3293 -0.0564  1.8891
   73SLPC   H9Y 6494   1.393   0.229   5.426  1.3413  1.0246 -0.4102
   73SLPC  C310 6495   1.524   0.076   5.327 -0.1773  0.2280  0.2085
   73SLPC  H10X 6496   1.436   0.030   5.278  0.1938 -0.5021  0.2159
   73SLPC  H10Y 6497   1.592  -0.006   5.359 -1.6859  0.0080  3.1660
   73SLPC  C311 6498   1.613   0.157   5.227 -0.4607  0.2248 -0.0806
   73SLPC  H11X 6499   1.656   0.090   5.150 -0.1366  1.2461 -0.8019
   73SLPC  H11Y 6500   1.700   0.193   5.287 -1.2834  1.1525  0.5870
   73SLPC  C312 6501   1.547   0.279   5.155 -0.0988  0.1632  0.3781
   73SLPC  H12X 6502   1.552   0.366   5.224  0.0580  0.0749  0.4794
   73SLPC  H12Y 6503   1.446   0.242   5.128  0.5842 -1.6815  0.2145
   73SLPC  C313 6504   1.637   0.310   5.039  0.5101  0.1846 -0.1488
   73SLPC  H13X 6505   1.652   0.222   4.973 -0.7866  0.6615 -1.1025
   73SLPC  H13Y 6506   1.732   0.351   5.081 -0.2641 -0.9650  3.0022
   73SLPC  C314 6507   1.573   0.424   4.962 -0.5336  0.6943 -0.5551
   73SLPC  H14X 6508   1.561   0.517   5.021  2.4244  1.7120 -1.3599
   73SLPC  H14Y 6509   1.470   0.394   4.933 -0.9575  0.8124  0.7476
   73SLPC  C315 6510   1.646   0.459   4.832 -0.3195  0.5307  0.0738
   73SLPC  H15X 6511   1.669   0.362   4.783 -0.6826 -0.6325  2.0942
   73SLPC  H15Y 6512   1.744   0.502   4.862 -1.9572  2.2842  3.4386
   73SLPC  C316 6513   1.562   0.543   4.740 -0.8555 -0.3555 -0.1730
   73SLPC  H16X 6514   1.557   0.647   4.778  0.4552 -0.7773  1.2851
   73SLPC  H16Y 6515   1.461   0.498   4.734 -0.3364 -1.3511 -3.4747
   73SLPC  C317 6516   1.622   0.558   4.597 -0.1633  0.3850  0.0930
   73SLPC  H17X 6517   1.646   0.460   4.550  0.2503  0.2200  0.6387
   73SLPC  H17Y 6518   1.724   0.602   4.603 -0.9010  2.2060  0.0694
   73SLPC  C318 6519   1.561   0.650   4.495  1.7207 -0.6064 -0.1089
   73SLPC  H18X 6520   1.451   0.636   4.484  1.7802  0.0201 -1.7107
   73SLPC  H18Y 6521   1.599   0.632   4.393 -0.5244  0.0100 -1.1298
   73SLPC  H18Z 6522   1.572   0.755   4.531 -1.0479 -0.9377  2.1311
   74SLPC     N 6523   4.483   6.077   6.520  0.5714  1.4102  0.4683
   74SLPC   C13 6524   4.556   5.953   6.482  0.1180 -0.3147 -0.4293
   74SLPC  H13A 6525   4.493   5.868   6.460 -1.2006  0.0150  1.8066
   74SLPC  H13B 6526   4.613   5.964   6.390 -0.6240  0.7318 -0.7745
   74SLPC  H13C 6527   4.630   5.932   6.557 -0.8527 -2.0435  0.0926
   74SLPC   C14 6528   4.580   6.186   6.557  0.1744  0.1424 -0.2191
   74SLPC  H14A 6529   4.643   6.165   6.643  0.1995  0.3705 -0.1781
   74SLPC  H14B 6530   4.652   6.199   6.477 -0.7479 -3.5955 -1.8343
   74SLPC  H14C 6531   4.536   6.284   6.575  0.7281  0.2712  0.5173
   74SLPC   C15 6532   4.399   6.051   6.639 -0.3410 -0.2685 -0.2215
   74SLPC  H15A 6533   4.323   5.975   6.627 -2.0415  1.1580  0.8955
   74SLPC  H15B 6534   4.464   6.039   6.724 -1.4241  1.6726  0.9678
   74SLPC  H15C 6535   4.338   6.131   6.678 -1.5520 -1.1847 -0.1645
   74SLPC   C12 6536   4.402   6.114   6.402 -0.2491 -0.0672  1.1161
   74SLPC  H12A 6537   4.337   6.196   6.424 -1.1115 -0.9358  1.9078
   74SLPC  H12B 6538   4.344   6.024   6.389  2.0101 -1.6020  0.8828
   74SLPC   C11 6539   4.493   6.145   6.278  0.8108 -0.0856 -0.4525
   74SLPC  H11A 6540   4.435   6.159   6.184  0.5319  0.7691 -0.1631
   74SLPC  H11B 6541   4.556   6.057   6.251  1.0478 -0.2654  0.6365
   74SLPC     P 6542   4.509   6.408   6.311  0.3029  0.3006  0.3923
   74SLPC   O13 6543   4.364   6.387   6.304  0.0599  0.3063  0.0008
   74SLPC   O14 6544   4.556   6.478   6.433  0.9362  0.0329  0.2002
   74SLPC   O12 6545   4.576   6.266   6.294 -0.0640 -0.5998 -0.1630
   74SLPC   O11 6546   4.559   6.486   6.188 -0.5080  0.2859  0.9552
   74SLPC    C1 6547   4.536   6.434   6.059  0.1262  0.5965  0.6570
   74SLPC    HA 6548   4.622   6.371   6.027 -1.7258 -0.5521 -2.4574
   74SLPC    HB 6549   4.448   6.367   6.061 -1.0436  2.1065  1.2053
   74SLPC    C2 6550   4.508   6.531   5.944  0.0876 -0.1939 -0.3353
   74SLPC    HS 6551   4.405   6.572   5.940 -0.0892 -0.6107 -0.1436
   74SLPC   O21 6552   4.538   6.468   5.814  0.1238  0.3810 -0.4447
   74SLPC   C21 6553   4.442   6.448   5.738  0.2621  0.7291 -0.3086
   74SLPC   O22 6554   4.321   6.458   5.773 -0.3241  0.2932  0.1259
   74SLPC   C22 6555   4.494   6.377   5.603  0.4136  0.0079  0.2738
   74SLPC   H2R 6556   4.604   6.358   5.606  0.3775 -0.3988 -0.6638
   74SLPC   H2S 6557   4.454   6.275   5.580 -0.4875  0.4480 -0.1729
   74SLPC    C3 6558   4.599   6.654   5.961  0.9976  0.0446 -0.0468
   74SLPC    HX 6559   4.696   6.613   5.996  0.8513 -1.1346 -0.9355
   74SLPC    HY 6560   4.547   6.706   6.044 -0.6799 -1.0634 -0.3335
   74SLPC   O31 6561   4.613   6.725   5.832 -0.1598 -0.4343  0.5947
   74SLPC   C31 6562   4.525   6.818   5.805 -0.3438 -0.0653  0.6829
   74SLPC   O32 6563   4.436   6.844   5.882 -0.2870 -0.0836  0.3896
   74SLPC   C32 6564   4.527   6.878   5.660 -0.1501 -0.6447  0.4530
   74SLPC   H2X 6565   4.587   6.823   5.584 -0.1704 -0.2000  0.1164
   74SLPC   H2Y 6566   4.575   6.977   5.674  1.6377 -1.4077  0.0046
   74SLPC   C23 6567   4.443   6.472   5.486  0.7882  0.2609 -0.2499
   74SLPC   H3R 6568   4.462   6.579   5.506 -0.2252 -0.1581  4.0888
   74SLPC   H3S 6569   4.333   6.452   5.488  0.6365  1.1266  0.7361
   74SLPC   C24 6570   4.500   6.424   5.353  0.4260 -0.2379 -0.0187
   74SLPC   H4R 6571   4.514   6.314   5.352 -2.1879 -0.6415 -2.0530
   74SLPC   H4S 6572   4.603   6.463   5.339 -0.3725  1.8510 -0.5500
   74SLPC   C25 6573   4.403   6.473   5.238  0.5052 -0.2579 -0.6821
   74SLPC   H5R 6574   4.386   6.582   5.248 -0.4833 -0.4296 -0.4696
   74SLPC   H5S 6575   4.306   6.420   5.247  1.4616 -1.7163  2.3267
   74SLPC   C26 6576   4.455   6.436   5.092 -0.0659 -0.2572 -0.2138
   74SLPC   H6R 6577   4.383   6.465   5.012  0.1759  0.1524 -0.2863
   74SLPC   H6S 6578   4.460   6.326   5.099 -0.1755 -0.5567 -3.4175
   74SLPC   C27 6579   4.591   6.497   5.053  0.6279  0.8762 -0.1611
   74SLPC   H7R 6580   4.660   6.464   5.133 -0.0320  0.2221  0.1536
   74SLPC   H7S 6581   4.595   6.607   5.063  1.7259  0.6591  2.3729
   74SLPC   C28 6582   4.651   6.448   4.917  0.9503  0.5545 -0.6936
   74SLPC   H8R 6583   4.679   6.341   4.924 -1.8408 -0.2034  0.3444
   74SLPC   H8S 6584   4.740   6.512   4.900  1.5390 -0.2698 -0.7231
   74SLPC   C29 6585   4.558   6.479   4.804  0.8585  0.2976 -0.3035
   74SLPC   H9R 6586   4.508   6.576   4.818 -0.3135 -0.3391  0.0817
   74SLPC  C210 6587   4.540   6.402   4.699  0.7065  0.8061  0.6946
   74SLPC  H10R 6588   4.462   6.440   4.631  1.0275  1.7995  0.8781
   74SLPC  C211 6589   4.589   6.260   4.676 -0.6469  0.2182 -0.2862
   74SLPC  H11R 6590   4.588   6.208   4.774  0.9115  1.2270  0.3144
   74SLPC  H11S 6591   4.694   6.269   4.639 -1.2984  1.3843 -1.9887
   74SLPC  C212 6592   4.508   6.182   4.579  0.1128  0.1861 -0.1156
   74SLPC  H12R 6593   4.457   6.242   4.502 -0.5341  4.5025  3.3251
   74SLPC  C213 6594   4.496   6.049   4.581  0.1521 -0.7399  0.5703
   74SLPC  H13R 6595   4.446   6.005   4.493  2.2145  0.4351 -1.2749
   74SLPC  C214 6596   4.568   5.954   4.675  0.1571 -0.4858 -0.2606
   74SLPC  H14R 6597   4.513   5.858   4.679 -2.1334  0.7888  0.5673
   74SLPC  H14S 6598   4.574   5.994   4.778  2.0317 -1.2895  0.0033
   74SLPC  C215 6599   4.714   5.934   4.631  0.1613 -0.5230 -0.1507
   74SLPC  H15R 6600   4.778   5.897   4.713  1.2943  1.9201  0.1357
   74SLPC  H15S 6601   4.753   6.033   4.599 -1.5567  0.9694  2.0779
   74SLPC  C216 6602   4.745   5.837   4.509 -0.4169 -0.1105  0.0730
   74SLPC  H16R 6603   4.711   5.882   4.414 -0.6400 -0.2692  0.0791
   74SLPC  H16S 6604   4.699   5.746   4.553  1.1494 -0.8816  0.2012
   74SLPC  C217 6605   4.893   5.810   4.490 -0.4639  0.9395 -0.1321
   74SLPC  H17R 6606   4.942   5.767   4.580  0.1289  0.2831 -0.7616
   74SLPC  H17S 6607   4.948   5.905   4.477 -1.0642  1.2338 -0.5779
   74SLPC  C218 6608   4.912   5.712   4.375  0.5435  0.6887 -0.0813
   74SLPC  H18R 6609   5.017   5.676   4.368  0.7714  1.4066 -0.4172
   74SLPC  H18S 6610   4.889   5.758   4.277 -0.2271  0.9207  0.2070
   74SLPC  H18T 6611   4.845   5.627   4.398  0.6325  0.1755 -1.5869
   74SLPC   C33 6612   4.389   6.894   5.601  0.2846  0.0718 -0.0854
   74SLPC   H3X 6613   4.332   6.959   5.671  0.5326 -0.7436  0.8963
   74SLPC   H3Y 6614   4.342   6.795   5.583  1.2323 -0.4669  0.3552
   74SLPC   C34 6615   4.380   6.964   5.470  0.0647 -0.5704 -0.1247
   74SLPC   H4X 6616   4.399   7.073   5.471  1.1012 -0.6295 -2.8010
   74SLPC   H4Y 6617   4.279   6.952   5.425 -0.2732  1.4068  0.0322
   74SLPC   C35 6618   4.477   6.909   5.364  0.3973  0.5191  0.5511
   74SLPC   H5X 6619   4.497   6.801   5.353  2.3381  1.0460 -2.1074
   74SLPC   H5Y 6620   4.570   6.960   5.396  1.1335  0.1165 -0.8718
   74SLPC   C36 6621   4.449   6.967   5.225  0.2767  0.1594 -0.2711
   74SLPC   H6X 6622   4.427   7.076   5.226 -3.3857 -0.3633 -2.8459
   74SLPC   H6Y 6623   4.363   6.914   5.178 -0.0127 -0.1149  0.5457
   74SLPC   C37 6624   4.558   6.931   5.124 -0.3146 -0.1734  0.6809
   74SLPC   H7X 6625   4.575   6.821   5.118  2.4396  0.2326 -1.3074
   74SLPC   H7Y 6626   4.650   6.989   5.147  1.6309 -1.0779 -3.6646
   74SLPC   C38 6627   4.513   6.956   4.985  0.0657 -0.3717 -0.4567
   74SLPC   H8X 6628   4.488   7.063   4.971  3.7922  1.2241  2.9974
   74SLPC   H8Y 6629   4.422   6.893   4.975  1.8049 -3.4698  1.4272
   74SLPC   C39 6630   4.609   6.910   4.882  0.7997 -0.2383  0.5210
   74SLPC   H9X 6631   4.657   6.818   4.922  0.6558 -1.1113 -1.2224
   74SLPC   H9Y 6632   4.688   6.987   4.870  0.0830  0.8243  2.2372
   74SLPC  C310 6633   4.531   6.886   4.750  0.0019  0.0388  0.5581
   74SLPC  H10X 6634   4.479   6.983   4.731 -0.3463 -0.5023 -1.5314
   74SLPC  H10Y 6635   4.452   6.810   4.765  0.1368 -0.1021  0.5488
   74SLPC  C311 6636   4.616   6.855   4.628 -0.2964 -0.2177 -0.7450
   74SLPC  H11X 6637   4.685   6.777   4.664  0.7108  1.2940  0.7502
   74SLPC  H11Y 6638   4.680   6.937   4.590 -0.8231  0.0978 -0.9595
   74SLPC  C312 6639   4.536   6.790   4.520 -0.6999  0.1626 -0.1621
   74SLPC  H12X 6640   4.479   6.873   4.472  0.9258  0.1960 -2.1831
   74SLPC  H12Y 6641   4.467   6.711   4.556  1.5915 -1.4840  0.8620
   74SLPC  C313 6642   4.625   6.716   4.421 -0.2464 -0.3901  0.2052
   74SLPC  H13X 6643   4.566   6.655   4.348 -0.8635 -0.4129  0.7144
   74SLPC  H13Y 6644   4.686   6.635   4.466 -0.1120 -1.1132 -1.1977
   74SLPC  C314 6645   4.713   6.805   4.333 -0.0290 -0.9857  0.1982
   74SLPC  H14X 6646   4.792   6.858   4.391  0.1289 -1.3825  0.3470
   74SLPC  H14Y 6647   4.653   6.873   4.270 -0.6960 -2.4636 -0.8119
   74SLPC  C315 6648   4.782   6.726   4.222 -0.9168 -0.1174 -0.0594
   74SLPC  H15X 6649   4.699   6.664   4.181 -1.6874 -0.3170  1.7003
   74SLPC  H15Y 6650   4.865   6.664   4.263 -0.9226 -0.5607 -0.7026
   74SLPC  C316 6651   4.849   6.805   4.102 -0.0194  0.4544 -0.1996
   74SLPC  H16X 6652   4.928   6.870   4.144  1.9510 -2.2806  0.6695
   74SLPC  H16Y 6653   4.773   6.864   4.046  0.5377  1.3081 -0.0657
   74SLPC  C317 6654   4.910   6.708   4.006 -0.1781  0.1213  0.0876
   74SLPC  H17X 6655   4.836   6.642   3.955  0.9090 -1.4968  0.5173
   74SLPC  H17Y 6656   4.979   6.649   4.070  0.7931  2.3122  1.1535
   74SLPC  C318 6657   5.001   6.772   3.906 -0.1096 -0.0465 -0.0269
   74SLPC  H18X 6658   5.041   6.694   3.839  1.4372  1.6058 -1.1087
   74SLPC  H18Y 6659   5.096   6.807   3.951 -0.6334 -0.1091  1.1920
   74SLPC  H18Z 6660   4.947   6.854   3.854 -0.7581 -1.8081 -2.2522
   75SLPC     N 6661   2.304   5.572   6.732 -0.1010 -0.0900  0.5162
   75SLPC   C13 6662   2.387   5.597   6.849 -0.1963  0.0610 -0.3634
   75SLPC  H13A 6663   2.487   5.627   6.821 -0.1937  2.6779  2.0334
   75SLPC  H13B 6664   2.340   5.677   6.904 -2.1217  1.1286 -3.3223
   75SLPC  H13C 6665   2.396   5.515   6.919  3.4606  2.1371  1.9541
   75SLPC   C14 6666   2.166   5.538   6.780  0.5377  0.2606 -0.3505
   75SLPC  H14A 6667   2.101   5.621   6.804 -0.3816  0.2796 -2.6570
   75SLPC  H14B 6668   2.118   5.478   6.704  0.2890  0.6312 -0.4870
   75SLPC  H14C 6669   2.177   5.477   6.869 -0.4731 -1.5610 -1.4189
   75SLPC   C15 6670   2.355   5.453   6.656  0.5205  0.7783 -0.4769
   75SLPC  H15A 6671   2.454   5.469   6.616  0.8294  0.1031 -0.0080
   75SLPC  H15B 6672   2.352   5.366   6.720 -2.5160  0.8858 -0.3352
   75SLPC  H15C 6673   2.293   5.446   6.569 -1.5281 -0.7711  1.0207
   75SLPC   C12 6674   2.300   5.692   6.647 -0.2672  0.0916  0.3085
   75SLPC  H12A 6675   2.244   5.668   6.558 -1.2856  1.5134  0.5227
   75SLPC  H12B 6676   2.404   5.709   6.623 -0.8607  2.5819 -0.7675
   75SLPC   C11 6677   2.246   5.823   6.700  0.6270  0.4397 -0.6354
   75SLPC  H11A 6678   2.254   5.903   6.623 -0.2561 -0.2805 -1.5102
   75SLPC  H11B 6679   2.302   5.863   6.786  1.1816  0.6128 -1.0703
   75SLPC     P 6680   1.982   5.818   6.647 -0.1596  0.1746 -0.1583
   75SLPC   O13 6681   1.976   5.682   6.584  0.2449  0.1901 -0.6022
   75SLPC   O14 6682   1.855   5.855   6.714 -0.4332  0.2089 -0.1735
   75SLPC   O12 6683   2.107   5.822   6.745 -0.1496 -0.4724 -0.1006
   75SLPC   O11 6684   2.025   5.921   6.535 -0.9303 -0.0922 -0.1508
   75SLPC    C1 6685   1.951   6.042   6.503 -0.4605 -0.2633 -0.1956
   75SLPC    HA 6686   1.912   6.099   6.590 -1.9290 -0.4417 -0.7134
   75SLPC    HB 6687   2.012   6.116   6.446 -0.2637 -0.8844 -0.8078
   75SLPC    C2 6688   1.838   6.006   6.408 -0.2429  0.2109 -0.2369
   75SLPC    HS 6689   1.796   5.911   6.446 -0.9105  0.9961  1.0492
   75SLPC   O21 6690   1.885   5.995   6.269 -0.4745 -1.0454 -0.2694
   75SLPC   C21 6691   1.806   5.934   6.182  0.0141 -0.6728  0.0997
   75SLPC   O22 6692   1.705   5.875   6.211  0.3885 -0.4975 -0.1548
   75SLPC   C22 6693   1.875   5.942   6.049 -0.1179  0.6968 -0.5015
   75SLPC   H2R 6694   1.948   6.025   6.060 -2.4453  2.5161  3.4083
   75SLPC   H2S 6695   1.919   5.842   6.027 -2.8127 -0.6046 -0.4074
   75SLPC    C3 6696   1.724   6.114   6.414 -0.0433  0.0298  0.3959
   75SLPC    HX 6697   1.704   6.113   6.524  2.6649 -0.2197  0.9531
   75SLPC    HY 6698   1.627   6.084   6.368 -0.4923  1.6069  0.2794
   75SLPC   O31 6699   1.768   6.244   6.384  0.0433  0.4280 -0.3128
   75SLPC   C31 6700   1.730   6.289   6.271 -0.5517 -0.7072  0.1723
   75SLPC   O32 6701   1.681   6.225   6.183  0.1873  0.6413 -0.1328
   75SLPC   C32 6702   1.751   6.438   6.264  0.8607 -0.0391 -0.3397
   75SLPC   H2X 6703   1.811   6.474   6.350 -0.2128 -0.8332  0.7673
   75SLPC   H2Y 6704   1.651   6.486   6.248  0.3939 -0.3726  1.4438
   75SLPC   C23 6705   1.768   5.978   5.942  0.6233  1.1544 -0.0874
   75SLPC   H3R 6706   1.775   6.087   5.919 -0.9950  0.9760 -1.5982
   75SLPC   H3S 6707   1.660   5.968   5.967  1.0162  0.9536  1.6400
   75SLPC   C24 6708   1.780   5.897   5.811  0.1091  0.1560 -0.1546
   75SLPC   H4R 6709   1.728   5.799   5.812  0.5495 -0.1159 -1.4303
   75SLPC   H4S 6710   1.888   5.886   5.786  0.0252  0.1461 -0.5147
   75SLPC   C25 6711   1.725   5.975   5.691  0.5156  1.0226  0.6147
   75SLPC   H5R 6712   1.763   6.079   5.693  1.2034  0.8263  3.5751
   75SLPC   H5S 6713   1.614   5.968   5.688  0.4745  1.5665  0.8233
   75SLPC   C26 6714   1.773   5.914   5.555 -0.4045 -0.0208 -0.5612
   75SLPC   H6R 6715   1.734   5.810   5.545  1.3216 -0.5756 -1.9580
   75SLPC   H6S 6716   1.884   5.912   5.562 -0.4080 -0.9301 -0.6617
   75SLPC   C27 6717   1.730   6.002   5.436  0.0427  0.0700 -0.5388
   75SLPC   H7R 6718   1.727   6.106   5.478 -2.2907  0.2990 -1.1117
   75SLPC   H7S 6719   1.621   5.984   5.424 -0.2789  0.0489  1.8133
   75SLPC   C28 6720   1.826   5.994   5.313 -0.5672  0.2563  0.1507
   75SLPC   H8R 6721   1.933   6.013   5.339  0.2578 -0.7129 -2.2402
   75SLPC   H8S 6722   1.799   6.072   5.237  2.4121  0.0140 -1.3445
   75SLPC   C29 6723   1.820   5.863   5.237 -0.6001  0.3561 -0.2644
   75SLPC   H9R 6724   1.867   5.778   5.289  1.4610  1.6508  0.0784
   75SLPC  C210 6725   1.778   5.839   5.113  0.0594 -0.8513 -0.2799
   75SLPC  H10R 6726   1.776   5.736   5.074 -1.6795 -1.2972  0.8862
   75SLPC  C211 6727   1.748   5.944   5.018 -0.1449 -0.2325  0.0465
   75SLPC  H11R 6728   1.816   6.029   5.040 -0.0380 -0.5024  0.7954
   75SLPC  H11S 6729   1.652   5.998   5.033  0.1985  0.2362  0.6131
   75SLPC  C212 6730   1.770   5.894   4.878  0.3535  0.1285  0.4109
   75SLPC  H12R 6731   1.865   5.839   4.868 -0.5024 -1.4194  0.3878
   75SLPC  C213 6732   1.689   5.870   4.780  1.0168 -0.5420 -0.6689
   75SLPC  H13R 6733   1.734   5.831   4.688  3.5134  1.5101 -0.4289
   75SLPC  C214 6734   1.540   5.906   4.766 -0.7143  0.3546  0.0307
   75SLPC  H14R 6735   1.523   5.958   4.669  0.5177  0.2955 -0.2273
   75SLPC  H14S 6736   1.502   5.963   4.854 -1.3502 -0.8979  0.5978
   75SLPC  C215 6737   1.461   5.774   4.775  0.2320 -0.1475  0.6812
   75SLPC  H15R 6738   1.355   5.798   4.798  0.3872  2.0436 -0.6121
   75SLPC  H15S 6739   1.490   5.718   4.867  1.2019 -0.0968  0.4199
   75SLPC  C216 6740   1.466   5.696   4.640 -0.3095 -0.1639 -0.4562
   75SLPC  H16R 6741   1.564   5.647   4.623  0.2965  0.8180  0.0988
   75SLPC  H16S 6742   1.429   5.759   4.557 -0.3707  0.7661  0.2593
   75SLPC  C217 6743   1.356   5.593   4.627  0.1589  0.6309  0.0564
   75SLPC  H17R 6744   1.256   5.638   4.647 -0.1190 -0.1452  0.4691
   75SLPC  H17S 6745   1.359   5.519   4.710  1.4764  0.8284  0.1988
   75SLPC  C218 6746   1.340   5.524   4.487 -0.0150 -0.7585  0.3513
   75SLPC  H18R 6747   1.245   5.466   4.479 -0.2360 -0.1957 -1.8370
   75SLPC  H18S 6748   1.426   5.456   4.471  0.6266  0.3015 -0.8551
   75SLPC  H18T 6749   1.337   5.592   4.400 -1.2088 -1.0159  0.1737
   75SLPC   C33 6750   1.835   6.474   6.133 -0.0651 -0.2512  0.3355
   75SLPC   H3X 6751   1.938   6.437   6.153  0.4288  0.5381 -0.6471
   75SLPC   H3Y 6752   1.827   6.584   6.139  0.5131 -0.1832 -0.0721
   75SLPC   C34 6753   1.781   6.432   6.001  0.3413 -1.1333  0.1218
   75SLPC   H4X 6754   1.674   6.462   5.987  0.4947 -0.4800  0.3172
   75SLPC   H4Y 6755   1.790   6.321   5.997  1.2000 -1.0577 -0.1221
   75SLPC   C35 6756   1.844   6.468   5.876  0.1530  0.4326 -0.2550
   75SLPC   H5X 6757   1.954   6.462   5.883  0.0584 -0.4018  0.5574
   75SLPC   H5Y 6758   1.824   6.574   5.849 -3.0335 -0.1743 -0.7044
   75SLPC   C36 6759   1.803   6.393   5.747 -0.2058  0.0222 -0.4479
   75SLPC   H6X 6760   1.692   6.389   5.741 -0.5814  2.5262  2.3231
   75SLPC   H6Y 6761   1.840   6.289   5.761 -1.2142 -0.5697 -1.9511
   75SLPC   C37 6762   1.868   6.451   5.621  1.1332  0.2429 -0.4315
   75SLPC   H7X 6763   1.977   6.473   5.625  0.7140  2.5282 -0.2735
   75SLPC   H7Y 6764   1.820   6.551   5.613  1.7636  0.4626 -1.7691
   75SLPC   C38 6765   1.847   6.364   5.495  0.1965 -0.2909  0.0994
   75SLPC   H8X 6766   1.742   6.332   5.479 -0.5212  1.3971  1.1226
   75SLPC   H8Y 6767   1.895   6.265   5.512 -3.4525 -2.2427  0.0406
   75SLPC   C39 6768   1.900   6.438   5.373  0.3620  0.1602  0.4103
   75SLPC   H9X 6769   1.863   6.382   5.284  2.5383 -2.1718  0.8687
   75SLPC   H9Y 6770   2.010   6.423   5.368  0.1374 -1.2165 -1.9214
   75SLPC  C310 6771   1.858   6.580   5.355  0.7201  0.5185 -0.2741
   75SLPC  H10X 6772   1.911   6.646   5.427 -0.5532  0.3531  0.8428
   75SLPC  H10Y 6773   1.750   6.594   5.373  0.4281 -0.7622 -0.9091
   75SLPC  C311 6774   1.890   6.632   5.218  0.2371  0.7694  0.2495
   75SLPC  H11X 6775   1.981   6.582   5.176 -1.2558 -0.1146 -2.1648
   75SLPC  H11Y 6776   1.902   6.742   5.223  0.0075  0.7318  2.0814
   75SLPC  C312 6777   1.774   6.600   5.123 -0.0125  0.3814 -0.3430
   75SLPC  H12X 6778   1.679   6.635   5.171 -0.3640 -1.0330  0.0484
   75SLPC  H12Y 6779   1.759   6.490   5.122  1.5591  0.1070  1.4685
   75SLPC  C313 6780   1.783   6.650   4.972 -0.2846 -0.2420 -0.4499
   75SLPC  H13X 6781   1.862   6.588   4.924  1.2907  2.1596 -1.0953
   75SLPC  H13Y 6782   1.823   6.753   4.970  2.2682 -1.1818 -1.8925
   75SLPC  C314 6783   1.648   6.645   4.905 -0.1531 -0.0537 -0.1295
   75SLPC  H14X 6784   1.580   6.715   4.958 -0.0595 -1.0541  1.3857
   75SLPC  H14Y 6785   1.597   6.547   4.919 -1.8636  0.5842 -1.6121
   75SLPC  C315 6786   1.628   6.674   4.759 -0.2771  0.7133  0.6547
   75SLPC  H15X 6787   1.523   6.660   4.725  0.3522  0.3399 -1.2651
   75SLPC  H15Y 6788   1.691   6.607   4.697  0.4435  1.7411  0.2392
   75SLPC  C316 6789   1.672   6.812   4.711  0.4564 -0.7601 -0.2831
   75SLPC  H16X 6790   1.774   6.839   4.747  0.9558  1.2484 -2.8633
   75SLPC  H16Y 6791   1.598   6.881   4.757  1.4491  0.4100 -0.3496
   75SLPC  C317 6792   1.677   6.821   4.554  0.2766  0.7818 -0.2114
   75SLPC  H17X 6793   1.578   6.801   4.506  1.6836  0.3253 -3.1853
   75SLPC  H17Y 6794   1.733   6.732   4.517 -0.7558  1.5033 -3.9374
   75SLPC  C318 6795   1.734   6.941   4.486  0.5182  0.2617 -0.2666
   75SLPC  H18X 6796   1.818   6.928   4.413 -0.2328 -1.2186 -0.9161
   75SLPC  H18Y 6797   1.777   7.005   4.566  2.2836  1.4678 -2.0637
   75SLPC  H18Z 6798   1.655   6.996   4.430  0.1941 -1.7865 -1.9480
   76SLPC     N 6799   3.402   2.863   7.336 -0.5462  0.4141  0.2989
   76SLPC   C13 6800   3.516   2.799   7.405  0.0034  0.1696  0.3690
   76SLPC  H13A 6801   3.555   2.714   7.350 -0.1435  1.2737 -1.5444
   76SLPC  H13B 6802   3.600   2.867   7.405 -0.0489  0.2525  1.4472
   76SLPC  H13C 6803   3.480   2.759   7.498 -1.5853  1.7138  0.4450
   76SLPC   C14 6804   3.390   2.999   7.399  0.6207 -0.6337  0.2280
   76SLPC  H14A 6805   3.302   3.053   7.367  2.1525  1.8057 -0.0398
   76SLPC  H14B 6806   3.402   2.983   7.505  0.9578 -2.1472 -0.0086
   76SLPC  H14C 6807   3.473   3.063   7.377 -0.9620  2.1162  1.6983
   76SLPC   C15 6808   3.275   2.786   7.364 -0.5446 -0.7356  0.6830
   76SLPC  H15A 6809   3.285   2.684   7.330 -0.8026 -1.0358  1.4961
   76SLPC  H15B 6810   3.233   2.787   7.463  0.2846  2.4158  1.1203
   76SLPC  H15C 6811   3.193   2.832   7.310  1.3837 -0.8579 -2.6662
   76SLPC   C12 6812   3.418   2.870   7.188 -0.7633 -0.2021 -0.1318
   76SLPC  H12A 6813   3.498   2.940   7.167 -1.8218  1.4960  1.2122
   76SLPC  H12B 6814   3.337   2.927   7.147 -0.2515 -0.3139 -1.3517
   76SLPC   C11 6815   3.443   2.743   7.101 -0.4835  0.4239 -1.0521
   76SLPC  H11A 6816   3.413   2.746   6.994 -0.9701 -0.8364 -0.9726
   76SLPC  H11B 6817   3.382   2.658   7.139  2.1775 -0.5927  1.2292
   76SLPC     P 6818   3.688   2.788   7.021 -0.2522  0.2184  0.0080
   76SLPC   O13 6819   3.678   2.925   7.060 -0.2828 -0.0877 -0.3505
   76SLPC   O14 6820   3.817   2.730   7.049  0.1985 -0.2793  0.6477
   76SLPC   O12 6821   3.583   2.710   7.113 -0.2619 -0.2435 -0.2218
   76SLPC   O11 6822   3.653   2.750   6.870  0.6554  0.4782  0.0457
   76SLPC    C1 6823   3.641   2.612   6.831  0.5609 -0.1799  0.1799
   76SLPC    HA 6824   3.735   2.556   6.852  2.1163  2.4725  0.6680
   76SLPC    HB 6825   3.557   2.565   6.886  0.4023  0.0072  0.0975
   76SLPC    C2 6826   3.606   2.598   6.680 -0.2583  0.1975  0.5024
   76SLPC    HS 6827   3.623   2.491   6.654  1.1513  0.8019 -1.3340
   76SLPC   O21 6828   3.687   2.677   6.590  0.1841 -0.0747 -0.5085
   76SLPC   C21 6829   3.813   2.647   6.580  0.1014 -0.2555 -0.2599
   76SLPC   O22 6830   3.864   2.545   6.624 -0.4249 -0.2578 -0.2542
   76SLPC   C22 6831   3.899   2.763   6.517  0.0965  0.5462  0.9403
   76SLPC   H2R 6832   3.922   2.838   6.596 -0.9515 -0.0432  1.8156
   76SLPC   H2S 6833   3.996   2.718   6.485 -1.3248 -0.7986 -1.8424
   76SLPC    C3 6834   3.463   2.638   6.658 -0.4213  0.8228 -0.3237
   76SLPC    HX 6835   3.455   2.739   6.703  1.4934  0.9188 -0.1089
   76SLPC    HY 6836   3.404   2.566   6.719 -0.0296 -0.8744 -1.8552
   76SLPC   O31 6837   3.413   2.620   6.525 -0.0997 -0.4249 -0.4984
   76SLPC   C31 6838   3.416   2.720   6.439 -0.0202  0.0988 -0.0545
   76SLPC   O32 6839   3.456   2.832   6.463  0.2206  0.0150  0.0847
   76SLPC   C32 6840   3.335   2.678   6.312 -0.4241 -0.0553 -0.2385
   76SLPC   H2X 6841   3.232   2.710   6.339  0.2168  0.6694  1.4531
   76SLPC   H2Y 6842   3.326   2.569   6.291 -2.1610  0.1437 -0.6780
   76SLPC   C23 6843   3.837   2.833   6.386  0.0571  0.4878  0.2874
   76SLPC   H3R 6844   3.901   2.924   6.376 -0.9295  1.1220 -0.4907
   76SLPC   H3S 6845   3.734   2.869   6.404  0.7974  2.3903  0.9448
   76SLPC   C24 6846   3.856   2.754   6.257 -0.8145  0.3655 -0.1730
   76SLPC   H4R 6847   3.788   2.666   6.267  0.0731 -0.1765  1.3752
   76SLPC   H4S 6848   3.960   2.716   6.249  0.4042  2.7868  2.5441
   76SLPC   C25 6849   3.808   2.820   6.125 -0.2890  0.0798  0.1127
   76SLPC   H5R 6850   3.887   2.895   6.107  0.9594 -1.1556  0.2987
   76SLPC   H5S 6851   3.720   2.887   6.129 -0.7591 -0.3853 -1.4387
   76SLPC   C26 6852   3.786   2.719   6.012  0.8178 -0.1875  0.0052
   76SLPC   H6R 6853   3.702   2.649   6.033 -0.9166  1.7248 -0.2070
   76SLPC   H6S 6854   3.874   2.653   5.998  0.5011 -0.6115  0.0066
   76SLPC   C27 6855   3.766   2.788   5.878 -0.7114 -0.2222  0.0974
   76SLPC   H7R 6856   3.679   2.857   5.875  0.0919  0.8933  1.1902
   76SLPC   H7S 6857   3.764   2.708   5.801  1.3910 -0.6471  0.4135
   76SLPC   C28 6858   3.883   2.885   5.841  0.2680 -0.1890 -0.5111
   76SLPC   H8R 6859   3.899   2.961   5.921  0.3824  0.4834 -1.1639
   76SLPC   H8S 6860   3.857   2.942   5.749  1.4188  1.0668 -0.1006
   76SLPC   C29 6861   4.014   2.812   5.831 -0.6725 -0.9006 -0.0340
   76SLPC   H9R 6862   4.057   2.786   5.929 -0.0521 -0.2888 -0.1424
   76SLPC  C210 6863   4.065   2.772   5.719 -0.5638 -0.1897 -0.0679
   76SLPC  H10R 6864   4.157   2.713   5.709 -1.2236 -1.1277 -0.8212
   76SLPC  C211 6865   4.024   2.816   5.584  0.6055  0.4088  0.1274
   76SLPC  H11R 6866   4.057   2.922   5.576  0.8660  0.1733 -2.9125
   76SLPC  H11S 6867   3.914   2.820   5.574  0.6089 -1.2514 -0.7917
   76SLPC  C212 6868   4.073   2.723   5.480  0.0477  0.3693  0.5800
   76SLPC  H12R 6869   4.056   2.615   5.495 -0.3680 -0.0797 -2.3729
   76SLPC  C213 6870   4.126   2.755   5.361  0.4045 -0.2624 -0.6941
   76SLPC  H13R 6871   4.158   2.675   5.292 -2.5251 -2.1602 -0.0301
   76SLPC  C214 6872   4.140   2.887   5.306  0.1208 -0.0082  0.2282
   76SLPC  H14R 6873   4.205   2.891   5.216  2.1174  0.6130  1.6127
   76SLPC  H14S 6874   4.187   2.951   5.385 -0.6676  2.1325 -0.9471
   76SLPC  C215 6875   4.001   2.960   5.264 -0.3327 -0.7579 -0.8036
   76SLPC  H15R 6876   3.948   2.958   5.362  0.7386 -0.2749 -0.1916
   76SLPC  H15S 6877   3.944   2.892   5.198 -0.9416 -0.1025 -0.9650
   76SLPC  C216 6878   4.026   3.097   5.202  1.0763 -0.6542  0.0542
   76SLPC  H16R 6879   4.101   3.149   5.266 -1.5218  3.0072  0.4640
   76SLPC  H16S 6880   3.929   3.153   5.207  0.3012 -1.6711 -2.3174
   76SLPC  C217 6881   4.069   3.084   5.058  0.6291 -0.2471 -0.3735
   76SLPC  H17R 6882   4.004   3.013   5.003 -2.4245  1.4207  0.8175
   76SLPC  H17S 6883   4.167   3.033   5.062 -0.0907 -1.8518 -1.8075
   76SLPC  C218 6884   4.069   3.215   4.978  0.1540 -0.1561  0.6302
   76SLPC  H18R 6885   3.971   3.268   4.975  0.8900  1.2091 -1.6214
   76SLPC  H18S 6886   4.095   3.193   4.872  2.3713 -0.7360  1.2390
   76SLPC  H18T 6887   4.145   3.288   5.012 -0.0110 -0.3314  1.4095
   76SLPC   C33 6888   3.401   2.747   6.182 -0.1190  0.1277 -0.4868
   76SLPC   H3X 6889   3.503   2.707   6.167 -0.1043 -0.0408  0.0518
   76SLPC   H3Y 6890   3.403   2.857   6.196 -1.6742  0.1845 -0.4558
   76SLPC   C34 6891   3.338   2.690   6.047  0.1995 -0.3157  0.2732
   76SLPC   H4X 6892   3.231   2.720   6.042  0.6415  1.2255 -0.3566
   76SLPC   H4Y 6893   3.332   2.579   6.050  0.6075 -0.5018 -2.4703
   76SLPC   C35 6894   3.414   2.734   5.927 -0.4119  0.2026 -0.2127
   76SLPC   H5X 6895   3.519   2.700   5.941 -0.2932  0.6900  0.1035
   76SLPC   H5Y 6896   3.409   2.844   5.915  0.0081  0.2105 -0.3296
   76SLPC   C36 6897   3.359   2.675   5.792 -0.2117 -0.1041  0.3352
   76SLPC   H6X 6898   3.252   2.704   5.789 -0.2844 -0.3494  0.5265
   76SLPC   H6Y 6899   3.374   2.567   5.811 -0.0560  0.1153  1.5512
   76SLPC   C37 6900   3.434   2.721   5.665 -0.4046  0.0227 -0.0741
   76SLPC   H7X 6901   3.543   2.698   5.662  0.8376  4.8841 -1.1657
   76SLPC   H7Y 6902   3.429   2.831   5.678 -1.4662 -0.1266  0.8478
   76SLPC   C38 6903   3.365   2.664   5.539  0.2880 -0.4627  0.2466
   76SLPC   H8X 6904   3.269   2.715   5.516 -0.0561 -1.8303 -1.5496
   76SLPC   H8Y 6905   3.339   2.560   5.568 -1.2925  0.4387  2.3863
   76SLPC   C39 6906   3.456   2.675   5.410 -0.1285  0.1368 -0.4761
   76SLPC   H9X 6907   3.392   2.620   5.338 -0.7029  0.9804 -0.6225
   76SLPC   H9Y 6908   3.556   2.631   5.431  0.0846 -0.5246 -2.6668
   76SLPC  C310 6909   3.468   2.816   5.363 -0.9522 -0.6469 -0.0862
   76SLPC  H10X 6910   3.500   2.872   5.453 -2.4680  1.1453 -0.5857
   76SLPC  H10Y 6911   3.368   2.854   5.331 -0.8150 -2.5704 -3.2901
   76SLPC  C311 6912   3.562   2.830   5.243 -0.7748 -0.5288  0.6874
   76SLPC  H11X 6913   3.663   2.789   5.267  0.0366 -0.7407 -2.6779
   76SLPC  H11Y 6914   3.591   2.936   5.229  1.2571 -0.9544  1.3405
   76SLPC  C312 6915   3.498   2.775   5.120  0.3384 -0.3367 -0.6817
   76SLPC  H12X 6916   3.442   2.682   5.145 -0.3679 -0.0844 -1.2778
   76SLPC  H12Y 6917   3.574   2.757   5.041  0.6663 -0.6202 -0.3051
   76SLPC  C313 6918   3.385   2.866   5.067 -0.3838 -0.0106 -0.5109
   76SLPC  H13X 6919   3.423   2.971   5.059 -0.4813 -0.0447 -1.5672
   76SLPC  H13Y 6920   3.285   2.853   5.114 -0.0346  0.2156  0.3135
   76SLPC  C314 6921   3.352   2.820   4.920 -0.7910 -0.0143 -0.5037
   76SLPC  H14X 6922   3.336   2.711   4.911 -0.6869  0.0432 -1.5543
   76SLPC  H14Y 6923   3.432   2.857   4.852 -0.5104  0.9340  0.3072
   76SLPC  C315 6924   3.221   2.888   4.878  0.0672 -0.0124  0.2634
   76SLPC  H15X 6925   3.237   2.997   4.863  0.1816 -0.0941 -0.1944
   76SLPC  H15Y 6926   3.147   2.867   4.958  0.3404 -1.4810  0.1578
   76SLPC  C316 6927   3.169   2.840   4.739 -0.2657  0.0224 -0.2181
   76SLPC  H16X 6928   3.147   2.731   4.739  1.9539 -0.4855  1.3703
   76SLPC  H16Y 6929   3.250   2.847   4.663  0.4268 -0.9073  0.4127
   76SLPC  C317 6930   3.044   2.920   4.690 -0.7339  0.6273 -0.0235
   76SLPC  H17X 6931   3.065   3.028   4.674 -1.2819  0.5092 -1.6769
   76SLPC  H17Y 6932   2.959   2.895   4.757  0.5844  0.9499  1.8605
   76SLPC  C318 6933   3.010   2.877   4.547 -0.5290  0.2690 -0.2092
   76SLPC  H18X 6934   2.985   2.769   4.551 -0.4606  0.2839  1.1237
   76SLPC  H18Y 6935   3.084   2.892   4.466 -1.0231 -2.7898 -1.3766
   76SLPC  H18Z 6936   2.909   2.922   4.533 -0.9301  0.0215  1.5614
   77SLPC     N 6937   3.114   0.522   6.104  0.1724  0.5742 -0.2888
   77SLPC   C13 6938   3.249   0.480   6.050  0.2146  0.0218 -0.1517
   77SLPC  H13A 6939   3.323   0.523   6.116 -2.2963  1.5475  1.9133
   77SLPC  H13B 6940   3.264   0.373   6.046 -0.3824 -0.0323 -1.4007
   77SLPC  H13C 6941   3.267   0.512   5.948  0.4903  0.6627  0.0893
   77SLPC   C14 6942   3.104   0.671   6.129 -0.6092 -0.7209 -0.4006
   77SLPC  H14A 6943   3.175   0.704   6.204 -1.4211  0.9699 -0.3186
   77SLPC  H14B 6944   3.136   0.708   6.033 -0.3130  1.3837  0.4417
   77SLPC  H14C 6945   3.003   0.701   6.151 -1.4388 -3.5207 -0.0299
   77SLPC   C15 6946   3.115   0.459   6.241  0.3757 -1.1808 -0.1846
   77SLPC  H15A 6947   3.138   0.354   6.231  1.0457 -1.1232  0.6352
   77SLPC  H15B 6948   3.187   0.506   6.306 -0.8153 -0.5926  0.7401
   77SLPC  H15C 6949   3.016   0.469   6.282  1.3360  1.7721  1.6869
   77SLPC   C12 6950   3.014   0.456   6.020 -0.2429 -0.4448  0.6797
   77SLPC  H12A 6951   3.027   0.349   6.028  0.7063 -0.3801  0.0908
   77SLPC  H12B 6952   3.035   0.469   5.915 -0.6961 -0.6725  0.5602
   77SLPC   C11 6953   2.871   0.489   6.045  0.3188 -0.4854 -0.6066
   77SLPC  H11A 6954   2.804   0.444   5.968 -3.6598 -1.6305  3.1527
   77SLPC  H11B 6955   2.862   0.599   6.031  2.0555 -0.5231 -2.3552
   77SLPC     P 6956   2.706   0.541   6.245  0.0053 -0.0106  0.4995
   77SLPC   O13 6957   2.666   0.497   6.377 -0.1844 -0.4495 -0.2701
   77SLPC   O14 6958   2.767   0.675   6.232 -0.5279 -0.3214  0.1602
   77SLPC   O12 6959   2.812   0.449   6.173  0.2183 -0.5706 -0.0390
   77SLPC   O11 6960   2.581   0.534   6.149  0.1435 -0.0872  0.4837
   77SLPC    C1 6961   2.535   0.401   6.120  0.5004  0.5234  0.0032
   77SLPC    HA 6962   2.597   0.346   6.045 -2.4907 -1.1485 -1.4336
   77SLPC    HB 6963   2.518   0.349   6.216 -1.0210  1.6177  0.3608
   77SLPC    C2 6964   2.402   0.407   6.037  0.4770  0.2345 -0.3102
   77SLPC    HS 6965   2.353   0.308   6.026 -2.9113  1.2050  3.4143
   77SLPC   O21 6966   2.437   0.466   5.910 -0.4650 -0.0976 -0.3266
   77SLPC   C21 6967   2.377   0.428   5.796  0.5928  0.1382  0.1463
   77SLPC   O22 6968   2.302   0.333   5.788  0.1420 -0.0731  0.0527
   77SLPC   C22 6969   2.420   0.522   5.687  0.4730 -0.3499 -0.3775
   77SLPC   H2R 6970   2.400   0.625   5.723  0.8035  0.0272 -1.2339
   77SLPC   H2S 6971   2.530   0.512   5.679  1.0065  2.6659  1.5865
   77SLPC    C3 6972   2.294   0.493   6.112 -0.1573 -0.2100  0.1557
   77SLPC    HX 6973   2.346   0.590   6.122 -1.8742  0.6674  1.0447
   77SLPC    HY 6974   2.284   0.450   6.214  1.3013 -0.4675  0.2006
   77SLPC   O31 6975   2.173   0.503   6.041  0.5913 -0.2134 -0.3342
   77SLPC   C31 6976   2.108   0.618   6.019 -0.0161 -0.5313 -0.9037
   77SLPC   O32 6977   2.124   0.717   6.082  0.1158 -0.4799  0.0034
   77SLPC   C32 6978   2.003   0.604   5.911  0.3640  0.1426 -0.8565
   77SLPC   H2X 6979   1.902   0.588   5.953  0.6250  0.6491 -0.0245
   77SLPC   H2Y 6980   2.037   0.527   5.838 -0.2219 -0.6037 -0.3630
   77SLPC   C23 6981   2.356   0.498   5.550  0.2094  0.3305 -0.3010
   77SLPC   H3R 6982   2.384   0.582   5.483  1.0335 -0.2246 -0.6645
   77SLPC   H3S 6983   2.245   0.485   5.553 -0.6065  5.1301 -0.8159
   77SLPC   C24 6984   2.425   0.380   5.487  0.0441  0.0242  0.6910
   77SLPC   H4R 6985   2.381   0.288   5.533 -2.0516  0.6544  0.0590
   77SLPC   H4S 6986   2.535   0.387   5.500  0.3715 -2.4355 -0.0524
   77SLPC   C25 6987   2.401   0.375   5.335 -0.1904  0.3909 -0.5829
   77SLPC   H5R 6988   2.456   0.292   5.285 -0.8778  0.1006 -0.8707
   77SLPC   H5S 6989   2.451   0.462   5.288  0.5740  0.5587  0.5037
   77SLPC   C26 6990   2.245   0.376   5.310  0.2553  0.0819 -0.0246
   77SLPC   H6R 6991   2.206   0.478   5.324  1.9864  0.8497 -0.5050
   77SLPC   H6S 6992   2.188   0.295   5.361  0.7018  0.1120  0.5323
   77SLPC   C27 6993   2.229   0.341   5.151  0.2826 -0.0010 -0.0693
   77SLPC   H7R 6994   2.284   0.245   5.134 -0.7820 -0.6791  0.2325
   77SLPC   H7S 6995   2.279   0.421   5.093 -0.4209 -1.6654 -3.2341
   77SLPC   C28 6996   2.078   0.337   5.124  0.3569 -0.5605  0.1079
   77SLPC   H8R 6997   2.034   0.438   5.133  1.0380 -0.3398  1.1907
   77SLPC   H8S 6998   2.029   0.267   5.195 -0.1370  1.0446  1.3926
   77SLPC   C29 6999   2.073   0.292   4.977  0.1226  0.2794  0.1920
   77SLPC   H9R 7000   2.106   0.188   4.961  1.2843  0.6536 -0.0074
   77SLPC  C210 7001   2.042   0.362   4.865  0.3357  0.7201 -0.7741
   77SLPC  H10R 7002   2.049   0.316   4.765 -0.2808  0.2580 -0.6119
   77SLPC  C211 7003   2.020   0.509   4.860  0.6907  0.7741  0.0763
   77SLPC  H11R 7004   1.977   0.536   4.959 -1.8999 -1.5960 -0.2922
   77SLPC  H11S 7005   1.932   0.531   4.796  0.7935  0.8914 -0.0247
   77SLPC  C212 7006   2.145   0.583   4.823 -0.8032 -0.8153 -0.2127
   77SLPC  H12R 7007   2.226   0.586   4.898 -1.0124 -0.4092  0.0023
   77SLPC  C213 7008   2.164   0.628   4.695 -0.5737 -0.1270 -0.5474
   77SLPC  H13R 7009   2.265   0.669   4.682 -0.0545 -1.5990 -1.5196
   77SLPC  C214 7010   2.076   0.620   4.571  0.2336  0.1897 -0.2813
   77SLPC  H14R 7011   2.083   0.720   4.523  1.2016  0.4704  0.4047
   77SLPC  H14S 7012   1.973   0.597   4.605  0.9631 -1.4728  0.9886
   77SLPC  C215 7013   2.127   0.527   4.463  0.4101  0.0723  0.2234
   77SLPC  H15R 7014   2.139   0.426   4.507 -0.1177  0.2503  0.7809
   77SLPC  H15S 7015   2.229   0.556   4.433  0.2773 -0.7005 -1.0737
   77SLPC  C216 7016   2.053   0.500   4.327  0.9742 -0.0889 -0.4363
   77SLPC  H16R 7017   1.966   0.435   4.350  1.9226 -0.6007  2.0372
   77SLPC  H16S 7018   2.119   0.446   4.256  1.0029  2.3227 -2.4056
   77SLPC  C217 7019   2.008   0.627   4.261  0.7870 -0.0915  0.4779
   77SLPC  H17R 7020   2.096   0.695   4.255 -0.3132  1.2780 -1.3561
   77SLPC  H17S 7021   1.939   0.682   4.329 -0.4870 -0.8574 -0.1542
   77SLPC  C218 7022   1.930   0.599   4.132  0.1230 -0.2273  0.6717
   77SLPC  H18R 7023   1.883   0.688   4.085 -2.8707 -2.1388 -0.1691
   77SLPC  H18S 7024   1.843   0.536   4.158  1.0132 -1.3913  0.9229
   77SLPC  H18T 7025   1.991   0.545   4.057 -0.3680 -0.7282  0.6308
   77SLPC   C33 7026   1.988   0.737   5.837  0.6204  0.1488 -0.3920
   77SLPC   H3X 7027   2.081   0.753   5.778 -0.2983  0.8572 -1.7076
   77SLPC   H3Y 7028   1.981   0.822   5.909 -0.9760 -1.6729  1.7481
   77SLPC   C34 7029   1.857   0.748   5.752  0.3249 -0.4760 -0.1450
   77SLPC   H4X 7030   1.778   0.692   5.806  2.2533 -1.7642  1.4964
   77SLPC   H4Y 7031   1.868   0.693   5.656  3.2800 -1.1486  0.4966
   77SLPC   C35 7032   1.818   0.888   5.723 -0.1013 -0.4084  0.0529
   77SLPC   H5X 7033   1.780   0.921   5.822 -1.5008 -3.2895  0.5643
   77SLPC   H5Y 7034   1.728   0.884   5.658 -1.2595  1.1644  1.4697
   77SLPC   C36 7035   1.923   0.984   5.655 -0.5587  0.2871  0.3780
   77SLPC   H6X 7036   1.922   0.955   5.548 -0.0576  0.3820  0.3483
   77SLPC   H6Y 7037   2.025   0.965   5.694 -0.6668 -1.9369 -0.2928
   77SLPC   C37 7038   1.884   1.134   5.668 -0.6884  0.0158  0.3592
   77SLPC   H7X 7039   1.888   1.168   5.774  3.3986  2.8737 -0.4695
   77SLPC   H7Y 7040   1.776   1.135   5.640 -0.2860 -0.0797 -1.2991
   77SLPC   C38 7041   1.970   1.244   5.592  0.3225  0.1704 -0.5207
   77SLPC   H8X 7042   2.076   1.229   5.622  0.8853 -0.9788 -2.8003
   77SLPC   H8Y 7043   1.940   1.345   5.625 -0.8580 -0.6163  0.9254
   77SLPC   C39 7044   1.963   1.243   5.442 -0.4398  0.6102  0.5181
   77SLPC   H9X 7045   2.000   1.143   5.413  0.9327  1.5695 -1.2190
   77SLPC   H9Y 7046   2.038   1.315   5.402 -0.7869  1.0661  0.6748
   77SLPC  C310 7047   1.826   1.271   5.389 -0.4246  0.1995 -0.1249
   77SLPC  H10X 7048   1.800   1.378   5.408 -1.2748 -0.2370  1.3680
   77SLPC  H10Y 7049   1.759   1.211   5.454  0.1813 -0.6301 -0.2540
   77SLPC  C311 7050   1.816   1.238   5.243  0.1617  0.2924  0.8545
   77SLPC  H11X 7051   1.711   1.214   5.213  0.0922  0.3548  1.0443
   77SLPC  H11Y 7052   1.868   1.145   5.210  0.9968  0.7645  0.8256
   77SLPC  C312 7053   1.858   1.356   5.142 -0.2564 -0.0286 -0.0322
   77SLPC  H12X 7054   1.968   1.348   5.141 -0.4100 -4.4473 -0.2626
   77SLPC  H12Y 7055   1.809   1.451   5.173 -3.4783 -1.7037  0.5408
   77SLPC  C313 7056   1.811   1.348   4.999 -0.0126  0.0661 -0.0219
   77SLPC  H13X 7057   1.703   1.374   5.002 -0.4857 -1.7927  1.2257
   77SLPC  H13Y 7058   1.823   1.244   4.962  0.3099  0.6310 -1.5667
   77SLPC  C314 7059   1.883   1.454   4.921  0.0778  0.1877  0.3685
   77SLPC  H14X 7060   1.990   1.429   4.933 -0.6146 -2.7525  1.0321
   77SLPC  H14Y 7061   1.871   1.551   4.974  1.2268  0.7183 -0.3057
   77SLPC  C315 7062   1.863   1.463   4.766 -0.2450  0.0501  0.0568
   77SLPC  H15X 7063   1.763   1.512   4.755  0.5746  2.2003  1.5010
   77SLPC  H15Y 7064   1.849   1.362   4.721 -0.0354 -0.0471  0.2111
   77SLPC  C316 7065   1.973   1.536   4.694  0.9637 -0.3545  0.3619
   77SLPC  H16X 7066   1.940   1.531   4.588 -0.2356 -0.3343  0.7266
   77SLPC  H16Y 7067   2.064   1.473   4.708  0.6527 -0.9284 -0.1322
   77SLPC  C317 7068   1.999   1.684   4.731  0.0569  0.2121 -0.1461
   77SLPC  H17X 7069   2.038   1.685   4.835  0.0835  2.1582 -0.1354
   77SLPC  H17Y 7070   1.906   1.743   4.717  0.2931  0.4109 -0.9173
   77SLPC  C318 7071   2.113   1.745   4.653 -0.3656  0.0926 -0.1922
   77SLPC  H18X 7072   2.133   1.852   4.680 -1.8049  0.5911 -1.0429
   77SLPC  H18Y 7073   2.080   1.749   4.547 -2.6113 -1.1692  0.3966
   77SLPC  H18Z 7074   2.211   1.693   4.656 -1.2403 -1.5528  0.9841
   78SLPC     N 7075   3.365   4.071   7.043  0.0638  0.6561 -0.5360
   78SLPC   C13 7076   3.265   4.189   7.036 -0.2603  0.2030  0.9379
   78SLPC  H13A 7077   3.199   4.176   7.121 -1.0593 -0.8566  0.1713
   78SLPC  H13B 7078   3.316   4.284   7.040  1.9766 -0.8120 -1.1180
   78SLPC  H13C 7079   3.212   4.171   6.944  0.0371  0.0935  0.7838
   78SLPC   C14 7080   3.276   3.953   7.082  0.4701 -0.2729  0.3007
   78SLPC  H14A 7081   3.210   3.952   6.996  0.8311  1.2610 -0.0111
   78SLPC  H14B 7082   3.334   3.863   7.094 -2.2799 -2.1604  0.5962
   78SLPC  H14C 7083   3.220   3.968   7.174  0.8762 -1.8098  0.8316
   78SLPC   C15 7084   3.470   4.103   7.141 -0.1528 -0.2964 -0.0028
   78SLPC  H15A 7085   3.523   4.012   7.167 -0.9572 -1.4588 -2.1565
   78SLPC  H15B 7086   3.547   4.165   7.097 -1.4900  0.9938 -0.5872
   78SLPC  H15C 7087   3.438   4.154   7.230 -1.5388  0.3368 -0.8363
   78SLPC   C12 7088   3.420   4.038   6.905  0.1970 -0.1314  0.4799
   78SLPC  H12A 7089   3.343   3.995   6.843 -0.2528 -1.0924  1.6599
   78SLPC  H12B 7090   3.487   3.955   6.919 -1.7064 -1.3427  3.3756
   78SLPC   C11 7091   3.480   4.159   6.822  0.0833 -0.6768  1.1548
   78SLPC  H11A 7092   3.406   4.241   6.814 -1.0303 -1.7493  0.1072
   78SLPC  H11B 7093   3.498   4.122   6.718  0.4093  1.0934  0.5499
   78SLPC     P 7094   3.725   4.120   6.881 -0.5048 -0.0391 -0.5878
   78SLPC   O13 7095   3.836   4.196   6.928 -0.1817  0.0546 -0.0288
   78SLPC   O14 7096   3.700   3.991   6.943 -0.4616  0.3108 -0.0569
   78SLPC   O12 7097   3.596   4.207   6.883  0.1301 -0.4921  0.0351
   78SLPC   O11 7098   3.750   4.088   6.729 -0.7035  0.1148 -0.1884
   78SLPC    C1 7099   3.837   4.173   6.655 -0.2002  0.0261 -0.4073
   78SLPC    HA 7100   3.833   4.281   6.680  0.4411  0.0021 -0.1862
   78SLPC    HB 7101   3.941   4.137   6.674  0.3453  2.2178  1.1320
   78SLPC    C2 7102   3.799   4.175   6.508 -0.1745 -0.1676  0.0629
   78SLPC    HS 7103   3.890   4.215   6.457 -0.7795  0.2222 -0.7422
   78SLPC   O21 7104   3.677   4.240   6.481  0.2099 -0.1171 -0.4207
   78SLPC   C21 7105   3.670   4.321   6.375 -0.3628 -0.0658  0.5106
   78SLPC   O22 7106   3.765   4.334   6.296  0.2734 -0.3516 -0.3350
   78SLPC   C22 7107   3.524   4.374   6.369 -0.4899 -0.1242 -0.3008
   78SLPC   H2R 7108   3.501   4.403   6.473 -1.1751  1.3368 -0.8347
   78SLPC   H2S 7109   3.529   4.465   6.305  2.4123 -0.1395 -0.2578
   78SLPC    C3 7110   3.788   4.024   6.455  0.7060 -0.6820  0.4908
   78SLPC    HX 7111   3.694   3.991   6.505  0.4981  0.2418  0.7444
   78SLPC    HY 7112   3.871   3.958   6.486  2.7583  0.8345 -1.4487
   78SLPC   O31 7113   3.765   4.015   6.316  0.5832 -0.1110  0.4445
   78SLPC   C31 7114   3.873   4.014   6.241  0.2665 -0.0622  0.2150
   78SLPC   O32 7115   3.988   4.024   6.280  0.1530 -0.3070 -0.5014
   78SLPC   C32 7116   3.829   4.019   6.096 -0.2848 -0.2326 -0.4955
   78SLPC   H2X 7117   3.788   4.121   6.080 -0.7863 -0.3902 -0.2483
   78SLPC   H2Y 7118   3.746   3.951   6.067 -0.8909  0.6448 -0.8631
   78SLPC   C23 7119   3.412   4.269   6.345 -0.0407  0.5816  0.9892
   78SLPC   H3R 7120   3.317   4.324   6.360 -0.2034  0.1486  1.5809
   78SLPC   H3S 7121   3.424   4.180   6.411  1.5786 -0.2039 -0.2670
   78SLPC   C24 7122   3.429   4.219   6.201 -0.2174  0.3780  0.6049
   78SLPC   H4R 7123   3.342   4.150   6.188 -0.8094  1.3317 -0.6775
   78SLPC   H4S 7124   3.520   4.154   6.201 -0.6864 -0.3557 -1.5220
   78SLPC   C25 7125   3.407   4.317   6.087 -0.4943 -0.1497 -0.1218
   78SLPC   H5R 7126   3.483   4.397   6.072 -1.4476  0.4205 -2.4056
   78SLPC   H5S 7127   3.316   4.372   6.119 -0.1342  1.2235 -1.3309
   78SLPC   C26 7128   3.374   4.260   5.950 -0.0699  1.1625  0.0250
   78SLPC   H6R 7129   3.338   4.344   5.887 -0.5159  0.3485 -0.8360
   78SLPC   H6S 7130   3.289   4.190   5.961 -1.2009  2.6591  1.3828
   78SLPC   C27 7131   3.498   4.204   5.879  0.1800 -0.2512  0.0303
   78SLPC   H7R 7132   3.531   4.114   5.936  0.2700 -0.1750  0.0996
   78SLPC   H7S 7133   3.580   4.275   5.901  1.1659 -2.0556  2.6903
   78SLPC   C28 7134   3.486   4.158   5.730  0.0746 -0.8859  0.0974
   78SLPC   H8R 7135   3.399   4.089   5.726 -1.9763  1.5955 -2.5074
   78SLPC   H8S 7136   3.579   4.102   5.706  1.4575  1.7892 -1.2867
   78SLPC   C29 7137   3.464   4.262   5.627 -0.0409 -0.6272  1.2553
   78SLPC   H9R 7138   3.387   4.337   5.650 -1.2199 -1.0073 -1.1305
   78SLPC  C210 7139   3.543   4.286   5.515 -0.4786  0.0202  0.2641
   78SLPC  H10R 7140   3.511   4.367   5.448 -2.9752 -1.2983 -0.2617
   78SLPC  C211 7141   3.659   4.206   5.462 -0.1421 -0.1292  0.2999
   78SLPC  H11R 7142   3.712   4.143   5.537  2.5546  1.6792  0.0498
   78SLPC  H11S 7143   3.734   4.282   5.433  0.1051 -0.5003 -0.0535
   78SLPC  C212 7144   3.610   4.125   5.343  0.4552 -0.7185 -0.3644
   78SLPC  H12R 7145   3.524   4.062   5.370  0.3461 -0.1579  0.6488
   78SLPC  C213 7146   3.645   4.130   5.218 -0.3207 -0.1044 -0.0489
   78SLPC  H13R 7147   3.595   4.062   5.147 -0.3290  1.0103 -1.1514
   78SLPC  C214 7148   3.756   4.207   5.153 -0.2036 -0.0532 -0.0665
   78SLPC  H14R 7149   3.838   4.154   5.100  1.4520  0.8827  1.4291
   78SLPC  H14S 7150   3.821   4.258   5.228 -1.3965  0.3352  0.7372
   78SLPC  C215 7151   3.699   4.316   5.059 -0.2230 -0.5767 -0.2759
   78SLPC  H15R 7152   3.788   4.368   5.018 -0.3829 -1.0240 -1.2045
   78SLPC  H15S 7153   3.640   4.392   5.114  0.7653  0.3235 -0.4327
   78SLPC  C216 7154   3.621   4.265   4.946 -0.4930 -0.2434 -1.0206
   78SLPC  H16R 7155   3.521   4.240   4.987  0.0214  1.6017  1.6105
   78SLPC  H16S 7156   3.664   4.167   4.918 -1.1622 -1.1891  1.0885
   78SLPC  C217 7157   3.618   4.359   4.830 -0.3219  0.4948  0.3047
   78SLPC  H17R 7158   3.720   4.399   4.809  0.8343 -1.1270  2.3353
   78SLPC  H17S 7159   3.543   4.437   4.852 -1.8611 -1.0198  0.6395
   78SLPC  C218 7160   3.572   4.275   4.708  0.1324  0.1013 -0.4669
   78SLPC  H18R 7161   3.586   4.329   4.612 -1.1062 -0.3891 -0.9446
   78SLPC  H18S 7162   3.462   4.259   4.706  0.1149  0.0304 -3.6529
   78SLPC  H18T 7163   3.614   4.172   4.699 -0.8528 -0.6281  2.1870
   78SLPC   C33 7164   3.946   3.999   6.003 -0.2303 -0.4594  0.5982
   78SLPC   H3X 7165   4.001   3.906   6.028  2.0665  0.4290 -0.8651
   78SLPC   H3Y 7166   4.012   4.088   6.016 -1.7764  1.0845 -1.3281
   78SLPC   C34 7167   3.907   4.005   5.854 -0.1069  0.1638 -0.0544
   78SLPC   H4X 7168   3.855   4.101   5.833  1.5525  0.6993 -2.0750
   78SLPC   H4Y 7169   3.829   3.929   5.836 -2.6926  2.5682  0.2637
   78SLPC   C35 7170   4.027   3.988   5.765  0.2568 -0.2315 -0.5499
   78SLPC   H5X 7171   4.066   3.886   5.784  2.5022  0.8789  1.2907
   78SLPC   H5Y 7172   4.095   4.075   5.774  0.4536 -0.2011 -2.0183
   78SLPC   C36 7173   3.993   3.981   5.617 -0.3352 -1.0674  0.4164
   78SLPC   H6X 7174   3.916   4.053   5.584 -0.8261 -3.0557 -3.4163
   78SLPC   H6Y 7175   3.960   3.880   5.583  2.8972 -1.4761 -2.0591
   78SLPC   C37 7176   4.113   4.026   5.531 -0.7427 -0.0376  1.2471
   78SLPC   H7X 7177   4.196   3.952   5.539 -0.8526 -0.4259 -0.7298
   78SLPC   H7Y 7178   4.160   4.115   5.577  1.1058  0.2939 -1.1191
   78SLPC   C38 7179   4.068   4.066   5.388 -0.9548 -0.7846  0.4343
   78SLPC   H8X 7180   4.001   4.154   5.391  1.1214  0.8783  1.9186
   78SLPC   H8Y 7181   4.004   3.981   5.357 -0.4689 -0.3092 -2.0236
   78SLPC   C39 7182   4.177   4.091   5.288 -0.1539  0.2659  0.8531
   78SLPC   H9X 7183   4.243   4.002   5.297 -1.5643 -1.2971 -2.3764
   78SLPC   H9Y 7184   4.236   4.183   5.307  0.9112 -0.3962  0.8539
   78SLPC  C310 7185   4.128   4.098   5.144  0.5348 -0.5454 -0.3254
   78SLPC  H10X 7186   4.065   4.190   5.136  2.7866  1.1561  0.3992
   78SLPC  H10Y 7187   4.061   4.011   5.126 -1.2981  0.6167  0.5643
   78SLPC  C311 7188   4.241   4.118   5.038 -0.5229 -0.0129  0.5443
   78SLPC  H11X 7189   4.313   4.187   5.088 -1.3010  1.5666 -0.4147
   78SLPC  H11Y 7190   4.210   4.173   4.946 -1.9061 -1.9443 -0.2130
   78SLPC  C312 7191   4.312   3.991   4.988 -0.1599  0.1120  0.3388
   78SLPC  H12X 7192   4.241   3.940   4.919 -1.5482 -0.1773  1.8984
   78SLPC  H12Y 7193   4.324   3.922   5.074  1.7057 -0.5391 -0.3927
   78SLPC  C313 7194   4.440   4.025   4.906  0.3526  0.2174  0.1212
   78SLPC  H13X 7195   4.500   3.933   4.895  0.4343  0.1638  0.9668
   78SLPC  H13Y 7196   4.506   4.092   4.965  0.1744  0.9183 -0.4622
   78SLPC  C314 7197   4.420   4.097   4.773 -0.1558 -0.2749 -0.4051
   78SLPC  H14X 7198   4.500   4.173   4.760 -0.7829  0.7277  1.2748
   78SLPC  H14Y 7199   4.332   4.164   4.782  0.3814  0.4598 -0.4720
   78SLPC  C315 7200   4.419   3.994   4.660  0.1988 -0.4378 -0.5189
   78SLPC  H15X 7201   4.322   3.942   4.678 -0.4316  0.1923 -1.9245
   78SLPC  H15Y 7202   4.507   3.927   4.664  4.0153  4.0441  3.2726
   78SLPC  C316 7203   4.405   4.050   4.519  0.6060 -0.9265 -0.4256
   78SLPC  H16X 7204   4.331   4.132   4.529 -0.8837 -2.1945 -0.7184
   78SLPC  H16Y 7205   4.372   3.967   4.453  0.4021  1.2685 -3.2902
   78SLPC  C317 7206   4.538   4.090   4.460 -0.1727  0.0629  0.2712
   78SLPC  H17X 7207   4.601   4.140   4.536  0.8340  0.1873 -0.6291
   78SLPC  H17Y 7208   4.533   4.166   4.380 -1.2126 -0.7724 -0.4861
   78SLPC  C318 7209   4.627   3.970   4.417  0.2090 -0.2663  0.5402
   78SLPC  H18X 7210   4.703   3.994   4.339  0.0544  0.8569  0.7210
   78SLPC  H18Y 7211   4.565   3.889   4.375 -0.8099  0.7382  0.0517
   78SLPC  H18Z 7212   4.676   3.919   4.502  0.0904  0.6401  1.1643
   79SLPC     N 7213   3.679   0.876   6.674 -0.0336 -0.5414  0.2776
   79SLPC   C13 7214   3.792   0.778   6.715  0.6539 -0.3579  0.8226
   79SLPC  H13A 7215   3.771   0.695   6.650 -1.6415  0.2549  0.7065
   79SLPC  H13B 7216   3.890   0.823   6.705  0.3503  0.1551  0.0078
   79SLPC  H13C 7217   3.781   0.757   6.820 -0.5442  1.5691  1.1247
   79SLPC   C14 7218   3.687   0.996   6.763 -0.9535  0.0915 -0.3554
   79SLPC  H14A 7219   3.782   1.041   6.736 -0.0221 -0.9368  1.1050
   79SLPC  H14B 7220   3.612   1.072   6.745  0.8570  1.5529 -2.2210
   79SLPC  H14C 7221   3.683   0.974   6.868 -0.4117  0.1224 -0.3243
   79SLPC   C15 7222   3.550   0.812   6.701  0.6246 -0.5755 -0.0076
   79SLPC  H15A 7223   3.541   0.720   6.645  1.5176 -1.4717  1.2344
   79SLPC  H15B 7224   3.550   0.800   6.809 -2.3619  2.2471  0.4688
   79SLPC  H15C 7225   3.472   0.880   6.671  3.3292  3.0334  0.5172
   79SLPC   C12 7226   3.696   0.924   6.533  0.3847  0.5054 -0.6047
   79SLPC  H12A 7227   3.791   0.974   6.532  1.9060 -2.1694 -1.8031
   79SLPC  H12B 7228   3.613   0.990   6.513 -1.7270 -0.9587  2.4823
   79SLPC   C11 7229   3.706   0.811   6.427  0.0735  0.6475 -0.7985
   79SLPC  H11A 7230   3.683   0.861   6.330 -0.0433 -1.4121 -1.9126
   79SLPC  H11B 7231   3.618   0.746   6.449  0.1336  1.0368  0.6621
   79SLPC     P 7232   3.966   0.792   6.365 -0.0247 -0.2241  0.2613
   79SLPC   O13 7233   4.023   0.873   6.474 -0.2843 -0.0757  0.0964
   79SLPC   O14 7234   4.045   0.684   6.315 -0.5845 -0.3281 -0.3819
   79SLPC   O12 7235   3.827   0.736   6.416  0.0640 -0.3032 -0.6821
   79SLPC   O11 7236   3.926   0.896   6.251  0.1662  0.3550  0.5028
   79SLPC    C1 7237   3.918   0.842   6.110  0.4254 -0.8363  0.2177
   79SLPC    HA 7238   3.937   0.733   6.100  2.0291 -0.5401 -0.1975
   79SLPC    HB 7239   3.817   0.871   6.073 -0.3469 -0.8086  2.1840
   79SLPC    C2 7240   4.019   0.919   6.028 -0.4171 -0.1507  0.6650
   79SLPC    HS 7241   4.120   0.880   6.056 -0.0786  1.5444  1.9838
   79SLPC   O21 7242   4.009   1.061   6.046  0.5935 -0.6731  0.1217
   79SLPC   C21 7243   4.095   1.115   6.130  0.2329 -0.4689  0.4661
   79SLPC   O22 7244   4.208   1.074   6.142  0.2612 -0.2480  0.0307
   79SLPC   C22 7245   4.035   1.248   6.177 -0.1161  0.1399 -0.0233
   79SLPC   H2R 7246   3.953   1.213   6.243  0.9977 -1.6967  0.4940
   79SLPC   H2S 7247   4.123   1.296   6.225  0.2512 -0.6081  0.0730
   79SLPC    C3 7248   3.989   0.900   5.875 -0.6549  0.7263  0.6022
   79SLPC    HX 7249   4.077   0.943   5.824  0.5273 -3.0099 -0.8434
   79SLPC    HY 7250   3.909   0.970   5.843 -0.4814  0.4790 -0.4197
   79SLPC   O31 7251   3.968   0.764   5.831 -0.0079  0.0548  0.4420
   79SLPC   C31 7252   3.839   0.735   5.814  0.7038  0.3271  0.4345
   79SLPC   O32 7253   3.746   0.812   5.829  0.1225 -0.5315 -0.2003
   79SLPC   C32 7254   3.831   0.587   5.761 -0.2875 -0.8239 -0.3632
   79SLPC   H2X 7255   3.865   0.532   5.851  2.3115  0.4042 -0.5031
   79SLPC   H2Y 7256   3.889   0.578   5.667 -1.4898 -0.7909 -1.1415
   79SLPC   C23 7257   3.979   1.337   6.068  0.0762  0.0409  0.1416
   79SLPC   H3R 7258   3.926   1.429   6.102  2.2088  2.1779 -1.9387
   79SLPC   H3S 7259   3.904   1.277   6.012  0.5727  0.1060 -0.6025
   79SLPC   C24 7260   4.083   1.378   5.971 -1.1235  0.0966  0.0631
   79SLPC   H4R 7261   4.140   1.288   5.938  1.7212  1.6071  0.6283
   79SLPC   H4S 7262   4.157   1.441   6.023 -1.9663 -0.2242  1.7025
   79SLPC   C25 7263   4.029   1.462   5.859  0.0686 -0.8420 -0.1831
   79SLPC   H5R 7264   4.003   1.565   5.893 -2.4147 -0.5758 -2.4876
   79SLPC   H5S 7265   3.931   1.416   5.831 -1.1386  0.7989  1.1329
   79SLPC   C26 7266   4.127   1.475   5.734 -0.0696 -0.7359  0.0781
   79SLPC   H6R 7267   4.161   1.373   5.706 -2.7956 -2.1527  1.5914
   79SLPC   H6S 7268   4.210   1.544   5.760 -1.1411  1.7999 -2.5799
   79SLPC   C27 7269   4.066   1.557   5.622 -0.2102  0.2919 -0.0903
   79SLPC   H7R 7270   4.146   1.565   5.545 -1.5664 -1.4882 -1.8001
   79SLPC   H7S 7271   4.045   1.655   5.669  1.2682  0.6632 -0.1512
   79SLPC   C28 7272   3.937   1.514   5.546  0.2950  0.0120  0.7476
   79SLPC   H8R 7273   3.850   1.533   5.614  0.1867  0.1502  0.5718
   79SLPC   H8S 7274   3.936   1.407   5.518 -0.8235  0.2665 -0.2706
   79SLPC   C29 7275   3.919   1.595   5.420 -0.4625  0.0874  0.0158
   79SLPC   H9R 7276   3.890   1.700   5.433 -2.4561 -0.3839 -0.3419
   79SLPC  C210 7277   3.908   1.552   5.296  0.2009  0.7183  0.2783
   79SLPC  H10R 7278   3.891   1.628   5.219 -0.9072 -0.0973 -0.3157
   79SLPC  C211 7279   3.926   1.409   5.245  0.1713 -0.2033 -0.0809
   79SLPC  H11R 7280   3.826   1.362   5.235  1.2705 -2.2199 -3.4228
   79SLPC  H11S 7281   3.977   1.349   5.324 -0.9305  0.0126  0.8220
   79SLPC  C212 7282   4.003   1.395   5.110 -0.7312  0.3652 -0.3098
   79SLPC  H12R 7283   4.111   1.415   5.120 -0.6272 -0.0454 -0.6233
   79SLPC  C213 7284   3.952   1.381   4.984 -0.1983  0.1193 -0.7485
   79SLPC  H13R 7285   4.024   1.378   4.902  0.0340 -0.2254 -0.5363
   79SLPC  C214 7286   3.804   1.356   4.953  0.0169 -0.8283  0.8179
   79SLPC  H14R 7287   3.751   1.451   4.930 -1.2657 -1.7237 -0.0495
   79SLPC  H14S 7288   3.744   1.320   5.039 -2.0775  0.0042 -0.2183
   79SLPC  C215 7289   3.777   1.271   4.831  0.0780 -0.2594 -0.2303
   79SLPC  H15R 7290   3.833   1.305   4.741  0.4223  1.0743  0.4514
   79SLPC  H15S 7291   3.669   1.289   4.812  0.2046  0.6411 -0.1627
   79SLPC  C216 7292   3.817   1.118   4.831  0.4380 -0.2225 -0.3013
   79SLPC  H16R 7293   3.917   1.109   4.877 -0.0949 -1.8197  0.6157
   79SLPC  H16S 7294   3.818   1.072   4.730 -0.1886  3.0597 -1.9720
   79SLPC  C217 7295   3.719   1.039   4.917  0.0530  0.0318 -0.2959
   79SLPC  H17R 7296   3.704   1.089   5.015  0.2398  1.6043 -1.0381
   79SLPC  H17S 7297   3.754   0.934   4.930  1.6257  0.8060  2.7119
   79SLPC  C218 7298   3.577   1.021   4.851 -0.1779 -0.1272  0.0592
   79SLPC  H18R 7299   3.573   0.949   4.766 -2.7510 -1.0516  0.8814
   79SLPC  H18S 7300   3.528   1.114   4.816 -2.5628 -1.6289 -0.8450
   79SLPC  H18T 7301   3.495   0.980   4.913 -1.9188  1.1285 -1.3157
   79SLPC   C33 7302   3.680   0.544   5.739  0.2365  0.2044  0.2413
   79SLPC   H3X 7303   3.622   0.561   5.833  0.2743  0.8689  0.1483
   79SLPC   H3Y 7304   3.683   0.434   5.727 -2.1178  0.0717  0.4114
   79SLPC   C34 7305   3.619   0.608   5.613  0.2860 -0.2856 -0.3262
   79SLPC   H4X 7306   3.685   0.593   5.525  0.8251 -1.0008  0.1843
   79SLPC   H4Y 7307   3.604   0.717   5.630  1.5570 -0.1023 -0.2530
   79SLPC   C35 7308   3.484   0.547   5.585 -0.0216 -0.3834  0.0989
   79SLPC   H5X 7309   3.406   0.574   5.660 -0.7229  0.2085 -0.8200
   79SLPC   H5Y 7310   3.498   0.439   5.609 -0.5093 -0.8774 -1.6326
   79SLPC   C36 7311   3.434   0.561   5.437  0.5219 -0.2961  0.1727
   79SLPC   H6X 7312   3.508   0.534   5.359 -1.9196  0.6170 -2.6498
   79SLPC   H6Y 7313   3.415   0.669   5.421  1.8076 -0.1714 -0.6718
   79SLPC   C37 7314   3.308   0.486   5.400 -0.5068 -0.2331 -0.9694
   79SLPC   H7X 7315   3.231   0.496   5.479  1.2100 -0.4563  0.8178
   79SLPC   H7Y 7316   3.337   0.379   5.385 -0.8305 -0.3257 -0.9539
   79SLPC   C38 7317   3.254   0.529   5.263 -0.3766  0.7641 -0.6382
   79SLPC   H8X 7318   3.215   0.633   5.268 -2.1796  0.0592  2.7473
   79SLPC   H8Y 7319   3.162   0.470   5.245 -0.7758  0.5546  1.7928
   79SLPC   C39 7320   3.346   0.522   5.146 -0.0057  0.8324  0.5179
   79SLPC   H9X 7321   3.365   0.413   5.132 -1.1927  0.6180  0.5424
   79SLPC   H9Y 7322   3.452   0.555   5.160  0.3718 -0.6144  1.2797
   79SLPC  C310 7323   3.281   0.560   5.009  0.1737  0.5314 -0.8168
   79SLPC  H10X 7324   3.172   0.559   5.027  0.0553  3.0101 -1.0701
   79SLPC  H10Y 7325   3.305   0.478   4.937 -2.6766 -1.2627  0.1096
   79SLPC  C311 7326   3.323   0.703   4.973  0.3250 -0.1773 -0.0002
   79SLPC  H11X 7327   3.432   0.706   4.952  0.2185  0.0671 -0.5320
   79SLPC  H11Y 7328   3.313   0.763   5.066 -2.7835 -0.7543  0.1478
   79SLPC  C312 7329   3.242   0.776   4.864 -0.0142 -0.6911 -0.5280
   79SLPC  H12X 7330   3.257   0.885   4.880 -0.9238 -0.6335  0.0390
   79SLPC  H12Y 7331   3.135   0.751   4.882 -0.1120  1.2430  2.3160
   79SLPC  C313 7332   3.290   0.759   4.722  0.2111  0.6141 -0.1595
   79SLPC  H13X 7333   3.283   0.649   4.713 -0.5040  0.6570 -0.1605
   79SLPC  H13Y 7334   3.396   0.793   4.713  0.8598 -0.8821  1.2717
   79SLPC  C314 7335   3.202   0.824   4.612  0.2868 -0.7671 -0.2682
   79SLPC  H14X 7336   3.104   0.777   4.635 -0.2888  0.6734  0.2971
   79SLPC  H14Y 7337   3.240   0.787   4.514 -0.1944  1.5514 -1.4093
   79SLPC  C315 7338   3.196   0.975   4.626 -0.3672 -0.2557 -0.1437
   79SLPC  H15X 7339   3.302   1.006   4.632 -0.8045  1.3916 -0.5534
   79SLPC  H15Y 7340   3.140   1.026   4.707 -3.4854  3.0816 -4.0114
   79SLPC  C316 7341   3.132   1.040   4.498  0.5436 -0.1979 -0.2534
   79SLPC  H16X 7342   3.024   1.013   4.493  0.1182  1.2517  0.6474
   79SLPC  H16Y 7343   3.177   1.003   4.403  0.1718 -0.4027 -0.3522
   79SLPC  C317 7344   3.138   1.187   4.494 -0.2986  0.0080 -0.6537
   79SLPC  H17X 7345   3.240   1.220   4.525  0.0573 -0.1567 -1.5985
   79SLPC  H17Y 7346   3.059   1.231   4.558  1.9738  0.2639  2.1957
   79SLPC  C318 7347   3.115   1.239   4.348  0.1535  0.0925 -0.0154
   79SLPC  H18X 7348   3.191   1.195   4.281  0.7953 -0.8089  1.2787
   79SLPC  H18Y 7349   3.123   1.350   4.340  0.2581  0.3140  2.3502
   79SLPC  H18Z 7350   3.012   1.207   4.319 -0.7926  2.9869 -0.1765
   80SLPC     N 7351   0.050   3.230   7.028 -0.0993  0.9236  0.3215
   80SLPC   C13 7352   0.131   3.312   7.121 -0.3273 -0.3943  0.3961
   80SLPC  H13A 7353   0.115   3.418   7.105 -3.4794 -0.7595  0.6830
   80SLPC  H13B 7354   0.104   3.291   7.223  0.4027 -3.8676 -0.0297
   80SLPC  H13C 7355   0.235   3.295   7.096 -0.9109  0.9008 -3.8362
   80SLPC   C14 7356  -0.088   3.257   7.059 -0.1601  0.0318  0.2809
   80SLPC  H14A 7357  -0.112   3.271   7.164 -0.5854 -2.1465  0.5180
   80SLPC  H14B 7358  -0.122   3.349   7.013 -0.6358 -0.5529 -0.5492
   80SLPC  H14C 7359  -0.154   3.180   7.024 -2.4787  1.1265  1.9197
   80SLPC   C15 7360   0.085   3.089   7.061 -0.2520  0.0104 -0.3753
   80SLPC  H15A 7361   0.015   3.019   7.018 -0.5919 -0.6920  1.2612
   80SLPC  H15B 7362   0.185   3.065   7.029 -0.2814  2.0176 -2.2408
   80SLPC  H15C 7363   0.084   3.071   7.167  0.9291 -1.3818 -0.5674
   80SLPC   C12 7364   0.091   3.260   6.884 -0.3653  1.0702  0.0610
   80SLPC  H12A 7365   0.018   3.215   6.817 -1.1754 -0.5685  1.9461
   80SLPC  H12B 7366   0.187   3.217   6.861 -0.7731  0.5933 -0.8265
   80SLPC   C11 7367   0.090   3.416   6.852  0.4574 -0.9373  0.6117
   80SLPC  H11A 7368  -0.006   3.466   6.877 -1.1698 -2.0178 -2.8431
   80SLPC  H11B 7369   0.078   3.410   6.741 -0.3631  0.1569  0.6286
   80SLPC     P 7370   0.350   3.435   6.831  0.0081  0.2365 -0.0343
   80SLPC   O13 7371   0.459   3.520   6.877 -0.6231  0.1661 -0.0830
   80SLPC   O14 7372   0.376   3.290   6.853 -0.3590  1.5416 -0.0844
   80SLPC   O12 7373   0.213   3.484   6.898  0.1747 -0.3207 -0.0354
   80SLPC   O11 7374   0.320   3.442   6.678 -0.3707 -0.1645  0.3204
   80SLPC    C1 7375   0.309   3.576   6.618 -0.2951 -0.1776  0.8055
   80SLPC    HA 7376   0.356   3.661   6.670 -0.3650  1.8796 -2.2140
   80SLPC    HB 7377   0.363   3.571   6.521 -1.7655  0.3800 -0.0877
   80SLPC    C2 7378   0.169   3.627   6.564  0.1045 -0.0928 -0.6471
   80SLPC    HS 7379   0.110   3.627   6.658 -1.4634 -2.7668 -1.5296
   80SLPC   O21 7380   0.122   3.536   6.460  0.4481 -0.6029 -0.3809
   80SLPC   C21 7381  -0.001   3.521   6.454  0.4279  0.7133  0.0875
   80SLPC   O22 7382  -0.091   3.565   6.531 -0.2488 -0.2988  0.2240
   80SLPC   C22 7383  -0.032   3.436   6.330 -0.0480 -0.1964  0.1018
   80SLPC   H2R 7384   0.019   3.486   6.245  1.3208 -0.5992  0.6493
   80SLPC   H2S 7385   0.018   3.338   6.346  1.0132  0.4149  0.6888
   80SLPC    C3 7386   0.179   3.769   6.498 -0.3416  0.4464  0.0712
   80SLPC    HX 7387   0.234   3.824   6.577 -2.2481  1.5200  0.7044
   80SLPC    HY 7388   0.082   3.822   6.491 -1.4855 -1.5854 -0.1536
   80SLPC   O31 7389   0.265   3.786   6.384  0.1885  0.1098  0.0505
   80SLPC   C31 7390   0.204   3.795   6.263  0.2907  0.0296  0.5665
   80SLPC   O32 7391   0.088   3.801   6.246  0.7688 -0.4588 -0.2595
   80SLPC   C32 7392   0.301   3.791   6.145 -0.3474  0.4569  0.2817
   80SLPC   H2X 7393   0.372   3.709   6.167  0.7464  0.6680 -2.2152
   80SLPC   H2Y 7394   0.362   3.882   6.130  0.6381 -0.3717 -0.8404
   80SLPC   C23 7395  -0.184   3.424   6.306  0.4336  0.1241  0.0944
   80SLPC   H3R 7396  -0.230   3.525   6.306  0.1652  0.0451 -1.8521
   80SLPC   H3S 7397  -0.229   3.370   6.392 -1.9176  0.6284 -0.7335
   80SLPC   C24 7398  -0.236   3.348   6.176  0.1431 -0.1676 -1.2101
   80SLPC   H4R 7399  -0.346   3.361   6.175  0.0844  0.0529  1.3098
   80SLPC   H4S 7400  -0.222   3.238   6.191  1.0223 -0.3454 -3.0154
   80SLPC   C25 7401  -0.183   3.392   6.041  0.2507  0.0166 -0.2528
   80SLPC   H5R 7402  -0.072   3.398   6.035  0.6106 -1.8549  2.5823
   80SLPC   H5S 7403  -0.224   3.488   6.004  1.1250 -0.1948 -1.8877
   80SLPC   C26 7404  -0.206   3.278   5.944 -0.0721 -0.3372  0.2295
   80SLPC   H6R 7405  -0.299   3.226   5.975  0.0855 -0.1760  1.0100
   80SLPC   H6S 7406  -0.127   3.200   5.950  0.1753  0.0121  2.7566
   80SLPC   C27 7407  -0.227   3.328   5.798 -0.1317 -0.0764  0.0431
   80SLPC   H7R 7408  -0.295   3.415   5.813  0.4476  0.2249  0.9832
   80SLPC   H7S 7409  -0.281   3.246   5.745 -0.7755  0.3580  0.0101
   80SLPC   C28 7410  -0.095   3.365   5.717 -1.1565  0.0304  0.0614
   80SLPC   H8R 7411  -0.102   3.367   5.607  2.8035  0.2184 -0.3539
   80SLPC   H8S 7412  -0.036   3.273   5.738 -0.5734  1.0410  3.4914
   80SLPC   C29 7413  -0.034   3.500   5.763  1.1670 -0.6896  0.2806
   80SLPC   H9R 7414  -0.043   3.521   5.871 -1.3483 -2.3972  0.4864
   80SLPC  C210 7415   0.016   3.596   5.690  0.4937 -0.5347  0.5328
   80SLPC  H10R 7416   0.062   3.685   5.737  0.5575 -0.4502  0.3105
   80SLPC  C211 7417   0.041   3.584   5.543  0.0943  0.3227 -0.5018
   80SLPC  H11R 7418  -0.047   3.617   5.484 -0.1965 -0.7612 -0.7018
   80SLPC  H11S 7419   0.063   3.478   5.520  0.5686 -0.0563  1.4807
   80SLPC  C212 7420   0.155   3.665   5.486  0.2762 -0.6041 -0.2595
   80SLPC  H12R 7421   0.217   3.720   5.559  0.5607 -1.2221 -0.0305
   80SLPC  C213 7422   0.167   3.703   5.361  0.0290  0.6433  0.0588
   80SLPC  H13R 7423   0.259   3.753   5.328  0.9994 -1.1092 -0.0179
   80SLPC  C214 7424   0.091   3.665   5.238  0.1312  0.0000 -0.3943
   80SLPC  H14R 7425   0.025   3.742   5.194  0.5680  0.9355  0.5416
   80SLPC  H14S 7426   0.019   3.580   5.246  0.3718 -0.1341  0.5435
   80SLPC  C215 7427   0.190   3.639   5.124 -0.0099  0.5634  0.7290
   80SLPC  H15R 7428   0.254   3.553   5.152 -0.5884 -0.3740 -0.7460
   80SLPC  H15S 7429   0.254   3.727   5.102 -0.1515  0.7658  1.1145
   80SLPC  C216 7430   0.112   3.611   4.995  0.0775  0.7402 -0.0409
   80SLPC  H16R 7431   0.071   3.704   4.950  0.4353  0.0547 -1.8611
   80SLPC  H16S 7432   0.032   3.536   5.019 -0.0545  1.2248  1.1081
   80SLPC  C217 7433   0.206   3.531   4.900  0.3068 -0.1963  0.2664
   80SLPC  H17R 7434   0.236   3.434   4.946 -1.8341 -1.0096  0.0495
   80SLPC  H17S 7435   0.298   3.589   4.878 -1.2412  2.6682  0.9035
   80SLPC  C218 7436   0.122   3.490   4.779  0.0018 -0.1452  0.1443
   80SLPC  H18R 7437   0.106   3.578   4.713 -1.5732 -0.9253 -0.5992
   80SLPC  H18S 7438   0.029   3.440   4.816  0.4437 -1.2163 -0.1407
   80SLPC  H18T 7439   0.163   3.408   4.716 -1.2748  0.4663 -1.5741
   80SLPC   C33 7440   0.221   3.744   6.018  0.1773 -0.0309 -0.7060
   80SLPC   H3X 7441   0.180   3.834   5.967  0.1935  1.3007  1.4989
   80SLPC   H3Y 7442   0.133   3.687   6.054 -0.2453  0.9145 -0.2007
   80SLPC   C34 7443   0.305   3.660   5.919  0.2969  0.2041 -0.0390
   80SLPC   H4X 7444   0.243   3.634   5.831 -2.3740 -0.7424  1.9808
   80SLPC   H4Y 7445   0.316   3.558   5.962 -0.7371  0.0745 -0.0524
   80SLPC   C35 7446   0.442   3.711   5.886 -0.0011 -0.4411 -0.2580
   80SLPC   H5X 7447   0.506   3.720   5.977 -1.0730  3.4571  0.3190
   80SLPC   H5Y 7448   0.435   3.816   5.851  2.6949  0.5977  1.9244
   80SLPC   C36 7449   0.503   3.625   5.772 -0.2251 -0.5704 -0.2288
   80SLPC   H6X 7450   0.429   3.639   5.691  1.1362  2.3286 -1.1114
   80SLPC   H6Y 7451   0.515   3.520   5.805  1.0597 -0.0736  0.9960
   80SLPC   C37 7452   0.639   3.678   5.728 -0.1670 -0.9217  1.1864
   80SLPC   H7X 7453   0.712   3.667   5.811  0.8401 -1.1849  0.2956
   80SLPC   H7Y 7454   0.614   3.784   5.708  0.3434 -0.9424  0.3797
   80SLPC   C38 7455   0.677   3.597   5.595 -0.5971 -0.9178  0.6991
   80SLPC   H8X 7456   0.618   3.506   5.570 -1.6262  0.1537 -1.0637
   80SLPC   H8Y 7457   0.780   3.567   5.621 -0.5163 -2.5553 -1.2628
   80SLPC   C39 7458   0.692   3.699   5.482  0.7404 -1.2624 -0.6128
   80SLPC   H9X 7459   0.762   3.775   5.523 -0.1602 -1.2005  0.8733
   80SLPC   H9Y 7460   0.603   3.765   5.489 -0.0658 -2.4886  3.0392
   80SLPC  C310 7461   0.704   3.647   5.336 -1.2262  0.3790  0.4828
   80SLPC  H10X 7462   0.647   3.555   5.311  2.0814 -1.8381  0.4946
   80SLPC  H10Y 7463   0.811   3.633   5.311 -1.5413 -0.3000 -0.5607
   80SLPC  C311 7464   0.654   3.751   5.234  0.5667 -0.1656 -0.1064
   80SLPC  H11X 7465   0.699   3.850   5.259 -1.6474  0.4907  1.6535
   80SLPC  H11Y 7466   0.545   3.764   5.246 -0.0410 -0.5519 -4.1171
   80SLPC  C312 7467   0.677   3.707   5.087  0.3724 -0.1852 -0.4501
   80SLPC  H12X 7468   0.623   3.611   5.087  0.4048 -0.2089 -1.2853
   80SLPC  H12Y 7469   0.786   3.694   5.070  0.5001  0.8145 -0.4547
   80SLPC  C313 7470   0.597   3.795   4.990  0.2822  0.6477 -0.1035
   80SLPC  H13X 7471   0.643   3.896   4.980  1.3684  0.3579  1.5293
   80SLPC  H13Y 7472   0.490   3.809   5.012  0.3114  0.4886  0.1410
   80SLPC  C314 7473   0.592   3.721   4.854 -0.2502 -0.5527 -0.5430
   80SLPC  H14X 7474   0.561   3.615   4.866 -0.0810 -0.4109  1.5552
   80SLPC  H14Y 7475   0.696   3.713   4.815  0.1833 -2.1292  0.8164
   80SLPC  C315 7476   0.501   3.788   4.750  0.2462  0.0881  0.4760
   80SLPC  H15X 7477   0.395   3.778   4.783  0.0244  2.0179  0.5063
   80SLPC  H15Y 7478   0.493   3.733   4.653 -1.2148  1.0890 -0.0203
   80SLPC  C316 7479   0.533   3.935   4.722 -0.5619  0.1458 -0.3491
   80SLPC  H16X 7480   0.633   3.921   4.675  0.2775 -0.1207  1.4365
   80SLPC  H16Y 7481   0.531   3.995   4.816 -2.7237 -1.9333  1.0474
   80SLPC  C317 7482   0.426   4.000   4.643  0.5114 -0.6292  0.0922
   80SLPC  H17X 7483   0.335   4.014   4.705 -0.6398 -0.2625 -1.5870
   80SLPC  H17Y 7484   0.399   3.934   4.557  3.1635 -1.2699 -0.3354
   80SLPC  C318 7485   0.469   4.134   4.583  0.1882 -0.1206  0.2821
   80SLPC  H18X 7486   0.502   4.208   4.660  0.2287  1.4570 -1.1823
   80SLPC  H18Y 7487   0.395   4.172   4.510  1.8458  0.7324 -1.0213
   80SLPC  H18Z 7488   0.560   4.119   4.521 -1.7360 -1.3392 -2.4104
   81SLPC     N 7489   5.310   1.597   2.197  0.5747 -0.2519 -0.2426
   81SLPC   C13 7490   5.273   1.561   2.057  0.6655 -0.3747 -0.1824
   81SLPC  H13A 7491   5.200   1.631   2.020  1.7521 -0.3382 -2.4151
   81SLPC  H13B 7492   5.354   1.544   1.987  1.3316 -2.0829  0.9336
   81SLPC  H13C 7493   5.225   1.464   2.064  2.4383 -1.2201  1.1754
   81SLPC   C14 7494   5.193   1.592   2.292 -0.2908  0.3241  0.3519
   81SLPC  H14A 7495   5.229   1.617   2.391  1.5118  1.1195 -0.4576
   81SLPC  H14B 7496   5.128   1.671   2.258  0.2427  0.3856 -0.5772
   81SLPC  H14C 7497   5.151   1.493   2.292  0.1297  0.1122 -1.4041
   81SLPC   C15 7498   5.365   1.737   2.188 -0.8530  0.5697 -0.6583
   81SLPC  H15A 7499   5.405   1.755   2.286  1.7523  0.6961 -1.6665
   81SLPC  H15B 7500   5.448   1.739   2.119 -1.7356 -0.4937 -1.8047
   81SLPC  H15C 7501   5.288   1.811   2.171 -0.8620  0.2779 -1.9725
   81SLPC   C12 7502   5.417   1.504   2.247  0.2603 -0.3685 -0.0013
   81SLPC  H12A 7503   5.505   1.511   2.185 -1.0373 -0.3999 -1.9275
   81SLPC  H12B 7504   5.378   1.403   2.241  1.2426 -0.7126 -1.0232
   81SLPC   C11 7505   5.473   1.520   2.392 -0.2739  0.3915 -0.1175
   81SLPC  H11A 7506   5.531   1.431   2.426  1.4073  0.7286 -1.9012
   81SLPC  H11B 7507   5.382   1.527   2.455  1.0013  2.0849  1.6574
   81SLPC     P 7508   5.702   1.629   2.344  0.2141 -0.2919  0.2021
   81SLPC   O13 7509   5.704   1.533   2.232  0.1410  0.2731  0.7292
   81SLPC   O14 7510   5.753   1.771   2.313  0.5346  0.2643  0.4299
   81SLPC   O12 7511   5.554   1.639   2.402 -0.1752  0.1593  0.4601
   81SLPC   O11 7512   5.773   1.576   2.473 -0.6543  0.3242 -0.4281
   81SLPC    C1 7513   5.873   1.470   2.471  0.3595  0.0080  1.3129
   81SLPC    HA 7514   5.815   1.375   2.471  0.3242 -0.0240 -0.9971
   81SLPC    HB 7515   5.946   1.462   2.387 -0.4800 -0.2251  0.5980
   81SLPC    C2 7516   5.943   1.484   2.612 -0.1486 -0.1376  0.1755
   81SLPC    HS 7517   5.982   1.383   2.638 -0.1544 -0.0570  0.4962
   81SLPC   O21 7518   5.862   1.523   2.722 -0.2915  0.3437 -0.8526
   81SLPC   C21 7519   5.742   1.462   2.734 -0.3690  0.5545 -0.7592
   81SLPC   O22 7520   5.704   1.363   2.679  0.1234  0.3726 -0.1334
   81SLPC   C22 7521   5.666   1.537   2.841  0.2393 -0.5372  0.2705
   81SLPC   H2R 7522   5.725   1.624   2.875  1.1927 -0.3565 -1.7131
   81SLPC   H2S 7523   5.577   1.577   2.787 -0.1996 -2.0337 -0.1708
   81SLPC    C3 7524   6.059   1.582   2.604  0.0309 -0.2671 -0.0271
   81SLPC    HX 7525   6.017   1.678   2.566 -1.9269 -1.5195 -1.2476
   81SLPC    HY 7526   6.135   1.547   2.531  0.9494  0.9455  0.3142
   81SLPC   O31 7527   6.124   1.618   2.726  0.4082 -0.6836  0.3842
   81SLPC   C31 7528   6.182   1.521   2.797 -0.4841 -0.6085  0.3740
   81SLPC   O32 7529   6.185   1.401   2.768  0.2896 -0.5821 -0.0337
   81SLPC   C32 7530   6.259   1.588   2.914 -0.7015  0.7846  0.0405
   81SLPC   H2X 7531   6.326   1.669   2.877 -0.6277 -0.5856 -3.1199
   81SLPC   H2Y 7532   6.315   1.506   2.963 -2.7407 -0.9123 -0.3249
   81SLPC   C23 7533   5.612   1.453   2.958 -0.4495  0.0732  0.1007
   81SLPC   H3R 7534   5.569   1.355   2.927  1.5400 -1.0698  0.7443
   81SLPC   H3S 7535   5.529   1.505   3.010  0.4030 -0.3012  1.8892
   81SLPC   C24 7536   5.722   1.431   3.067  0.1680  0.1891 -0.3379
   81SLPC   H4R 7537   5.769   1.532   3.074 -1.3826  0.8205  2.3415
   81SLPC   H4S 7538   5.798   1.363   3.024  0.4049  1.3050 -1.7848
   81SLPC   C25 7539   5.675   1.370   3.203  0.4041 -0.1492 -0.2004
   81SLPC   H5R 7540   5.629   1.270   3.186 -0.4677  0.1916  0.1168
   81SLPC   H5S 7541   5.592   1.432   3.242 -0.4379 -1.1668 -0.3120
   81SLPC   C26 7542   5.787   1.350   3.305 -0.2841 -0.0721  0.3274
   81SLPC   H6R 7543   5.840   1.445   3.329 -1.1848 -0.0564  2.6080
   81SLPC   H6S 7544   5.862   1.290   3.250  0.1747 -0.6444  1.5484
   81SLPC   C27 7545   5.711   1.284   3.428 -0.2319  0.4404  0.3198
   81SLPC   H7R 7546   5.646   1.206   3.383 -1.9081  2.0633 -0.1945
   81SLPC   H7S 7547   5.644   1.368   3.457  0.0389  0.1418  1.9178
   81SLPC   C28 7548   5.796   1.217   3.536 -0.1052  0.2545  0.1456
   81SLPC   H8R 7549   5.876   1.159   3.484  0.8979 -0.9401  2.8184
   81SLPC   H8S 7550   5.727   1.143   3.582 -1.4657  0.6276 -1.2479
   81SLPC   C29 7551   5.862   1.309   3.626  0.5211 -0.2444 -0.0905
   81SLPC   H9R 7552   5.944   1.363   3.576 -0.3364  0.3977 -0.8263
   81SLPC  C210 7553   5.842   1.324   3.760 -0.2295 -0.4606  0.5310
   81SLPC  H10R 7554   5.889   1.409   3.812 -2.8560 -0.8668  3.9461
   81SLPC  C211 7555   5.749   1.241   3.843  0.1257 -0.1773 -0.0690
   81SLPC  H11R 7556   5.786   1.138   3.829 -2.9130 -1.2396 -1.1764
   81SLPC  H11S 7557   5.645   1.233   3.804  0.8349 -0.8988 -1.8978
   81SLPC  C212 7558   5.728   1.266   3.988 -0.2102 -0.1956  0.3538
   81SLPC  H12R 7559   5.633   1.311   4.017 -0.8781 -0.9020 -0.6574
   81SLPC  C213 7560   5.822   1.236   4.084 -0.1953  0.9223  0.4808
   81SLPC  H13R 7561   5.802   1.268   4.187  1.6456  0.3743  1.0394
   81SLPC  C214 7562   5.950   1.166   4.066  0.2056  0.2477  0.0217
   81SLPC  H14R 7563   6.028   1.245   4.062  0.9323 -0.4507  0.0656
   81SLPC  H14S 7564   5.950   1.114   3.968 -0.3506  0.5013 -0.1129
   81SLPC  C215 7565   5.992   1.068   4.175  0.3892 -0.6176 -0.7147
   81SLPC  H15R 7566   6.083   1.015   4.140 -0.1894  0.2480 -3.8317
   81SLPC  H15S 7567   5.902   1.007   4.194 -0.0818  0.3406  0.2551
   81SLPC  C216 7568   6.039   1.143   4.305  0.2743  0.4274  0.3911
   81SLPC  H16R 7569   5.957   1.195   4.359  1.0709  2.0347  0.0929
   81SLPC  H16S 7570   6.107   1.227   4.280  0.1747  0.8435  1.4805
   81SLPC  C217 7571   6.116   1.054   4.405  0.6144 -0.2317 -0.2866
   81SLPC  H17R 7572   6.065   0.956   4.416  3.7606 -1.8404  1.9007
   81SLPC  H17S 7573   6.107   1.103   4.504 -0.1391  2.1874 -1.4866
   81SLPC  C218 7574   6.266   1.026   4.385  0.0617 -0.5872 -0.3823
   81SLPC  H18R 7575   6.277   0.937   4.321  0.7483 -0.4068 -0.5207
   81SLPC  H18S 7576   6.307   0.998   4.484 -1.6407 -2.4849 -0.1396
   81SLPC  H18T 7577   6.313   1.115   4.337 -0.9388 -1.1912 -2.6241
   81SLPC   C33 7578   6.163   1.634   3.034 -0.1165  0.1153 -0.3039
   81SLPC   H3X 7579   6.228   1.684   3.109 -0.5811  0.2482  0.0130
   81SLPC   H3Y 7580   6.122   1.537   3.070  0.8549  0.9406  3.3856
   81SLPC   C34 7581   6.052   1.733   3.004 -0.0428 -0.1675 -0.2865
   81SLPC   H4X 7582   5.971   1.682   2.949 -0.3940  1.3043 -1.1870
   81SLPC   H4Y 7583   6.093   1.808   2.934 -3.1837  1.2941 -0.7669
   81SLPC   C35 7584   5.989   1.798   3.131  0.1651  0.8533  0.1974
   81SLPC   H5X 7585   5.881   1.820   3.122  0.1282  1.0122  0.9766
   81SLPC   H5Y 7586   6.031   1.902   3.132  1.5947  0.3592 -1.5671
   81SLPC   C36 7587   6.006   1.722   3.264  0.0430 -0.2811  0.3792
   81SLPC   H6X 7588   6.110   1.705   3.298 -0.6302  1.6308  3.8400
   81SLPC   H6Y 7589   5.967   1.618   3.259  0.3389 -0.3648 -0.3053
   81SLPC   C37 7590   5.938   1.807   3.374  0.8515  1.0768  0.2751
   81SLPC   H7X 7591   5.829   1.825   3.365  0.6775 -0.7552 -2.2900
   81SLPC   H7Y 7592   5.997   1.901   3.377 -0.2164  1.8085 -1.0146
   81SLPC   C38 7593   5.982   1.737   3.510  0.4719  0.5654 -0.4828
   81SLPC   H8X 7594   6.092   1.743   3.519  0.4820 -0.5572  0.4766
   81SLPC   H8Y 7595   5.963   1.627   3.504 -0.6897  0.7758 -0.8043
   81SLPC   C39 7596   5.925   1.785   3.644  0.1317  0.1154 -0.7039
   81SLPC   H9X 7597   5.936   1.696   3.711 -1.6727  0.8865  0.7182
   81SLPC   H9Y 7598   5.815   1.797   3.634  0.2724 -0.1180 -3.1661
   81SLPC  C310 7599   5.982   1.911   3.715 -0.4836 -0.4235 -0.9908
   81SLPC  H10X 7600   5.989   1.998   3.648  2.3538 -0.6646 -1.1508
   81SLPC  H10Y 7601   6.079   1.891   3.766 -1.4836 -2.5865  0.2510
   81SLPC  C311 7602   5.881   1.964   3.821 -0.0053 -0.4857  0.4476
   81SLPC  H11X 7603   5.839   1.882   3.883 -0.7592 -0.1207  0.4289
   81SLPC  H11Y 7604   5.801   2.003   3.754 -2.5789 -1.5153  2.7411
   81SLPC  C312 7605   5.935   2.077   3.908 -0.1692 -0.3903 -0.8203
   81SLPC  H12X 7606   5.948   2.168   3.845 -2.6526  1.1949  0.7712
   81SLPC  H12Y 7607   6.042   2.058   3.931  0.6099  1.3290 -2.7022
   81SLPC  C313 7608   5.848   2.122   4.024 -0.8227 -0.9149  0.0883
   81SLPC  H13X 7609   5.805   2.032   4.072 -0.5953 -0.0401  2.0167
   81SLPC  H13Y 7610   5.755   2.174   3.990 -0.5502 -1.4859 -1.6716
   81SLPC  C314 7611   5.914   2.216   4.117 -0.6260 -0.1242  0.0246
   81SLPC  H14X 7612   5.836   2.279   4.164 -2.1702 -2.3900  0.6763
   81SLPC  H14Y 7613   6.001   2.281   4.092 -0.2122 -0.2733  1.0157
   81SLPC  C315 7614   5.968   2.137   4.237 -0.5173 -0.3764  0.3200
   81SLPC  H15X 7615   5.896   2.067   4.284 -0.4923 -0.8597 -0.3425
   81SLPC  H15Y 7616   5.996   2.215   4.311 -0.5827  1.5447 -1.5877
   81SLPC  C316 7617   6.086   2.049   4.208  0.4985  0.2797 -0.2627
   81SLPC  H16X 7618   6.160   2.099   4.141  0.9706  1.0230  0.7940
   81SLPC  H16Y 7619   6.047   1.971   4.140 -0.6273  0.8226 -0.2536
   81SLPC  C317 7620   6.167   2.000   4.331  0.0232  0.2243  0.0109
   81SLPC  H17X 7621   6.088   1.967   4.401 -1.6656  1.0937 -1.3853
   81SLPC  H17Y 7622   6.212   2.089   4.379 -1.0099  0.7268  0.0757
   81SLPC  C318 7623   6.284   1.906   4.285  0.0602  0.0862 -0.3583
   81SLPC  H18X 7624   6.225   1.819   4.250 -1.0501  0.7423 -0.1778
   81SLPC  H18Y 7625   6.346   1.877   4.373 -0.9972 -0.1405  0.3310
   81SLPC  H18Z 7626   6.351   1.954   4.211  0.4038 -1.0803 -0.8192
   82SLPC     N 7627   2.334   3.074   2.201  1.1153 -0.1120  0.3195
   82SLPC   C13 7628   2.360   2.964   2.111 -0.3633  0.8948 -0.3946
   82SLPC  H13A 7629   2.455   2.954   2.060 -0.8291 -2.4364 -0.8602
   82SLPC  H13B 7630   2.346   2.869   2.161 -1.2777  1.0880 -0.2663
   82SLPC  H13C 7631   2.282   2.952   2.037  0.6990 -2.6588 -1.1444
   82SLPC   C14 7632   2.450   3.078   2.295  0.3766  0.3062 -0.3324
   82SLPC  H14A 7633   2.547   3.084   2.247  0.4202 -0.5825 -0.3721
   82SLPC  H14B 7634   2.451   3.168   2.355  0.5831  0.9184 -1.2366
   82SLPC  H14C 7635   2.442   2.993   2.361 -0.2344 -0.4769 -1.3836
   82SLPC   C15 7636   2.202   3.047   2.283 -0.0896  0.3013 -0.4457
   82SLPC  H15A 7637   2.184   3.128   2.352  1.3970  1.0295 -0.8642
   82SLPC  H15B 7638   2.123   3.025   2.213 -0.6414  0.5471  0.0948
   82SLPC  H15C 7639   2.226   2.964   2.348  1.0845 -0.2127 -1.4963
   82SLPC   C12 7640   2.320   3.204   2.126 -0.0659  0.4805 -0.5268
   82SLPC  H12A 7641   2.224   3.206   2.077 -0.2892 -1.4005 -0.2383
   82SLPC  H12B 7642   2.395   3.202   2.048 -0.0708 -1.3645 -0.5143
   82SLPC   C11 7643   2.317   3.338   2.215  0.0219 -0.5777 -0.4191
   82SLPC  H11A 7644   2.272   3.413   2.147 -1.1687  1.2205  2.1768
   82SLPC  H11B 7645   2.423   3.363   2.239 -0.1313 -2.5544  2.9064
   82SLPC     P 7646   2.289   3.373   2.465 -0.7020  0.0991 -0.2818
   82SLPC   O13 7647   2.398   3.466   2.448  0.3979  0.3324 -0.6783
   82SLPC   O14 7648   2.169   3.414   2.547 -0.8711  0.0373 -0.6299
   82SLPC   O12 7649   2.230   3.331   2.323 -0.4519  0.3317 -0.5779
   82SLPC   O11 7650   2.348   3.243   2.526  0.3761 -0.1446 -0.0173
   82SLPC    C1 7651   2.386   3.241   2.667  0.2703  0.0113  0.2656
   82SLPC    HA 7652   2.490   3.203   2.659  0.1257 -0.0245 -3.5282
   82SLPC    HB 7653   2.389   3.342   2.713 -2.2984 -1.1846  3.4972
   82SLPC    C2 7654   2.308   3.142   2.750 -0.5095  0.5807  0.4092
   82SLPC    HS 7655   2.199   3.158   2.766 -0.5245  2.0441 -0.9004
   82SLPC   O21 7656   2.375   3.122   2.870  0.3368  1.0120  0.1491
   82SLPC   C21 7657   2.367   3.218   2.960  0.4378  0.9577 -0.0415
   82SLPC   O22 7658   2.293   3.315   2.959  0.5358 -0.0715  0.6641
   82SLPC   C22 7659   2.461   3.184   3.073  0.3371 -0.4010  0.2748
   82SLPC   H2R 7660   2.565   3.193   3.036  1.0748 -0.2903  2.2278
   82SLPC   H2S 7661   2.459   3.272   3.141  0.4032 -0.2942  0.1389
   82SLPC    C3 7662   2.300   2.994   2.669 -0.4191 -0.3668 -0.6065
   82SLPC    HX 7663   2.409   2.972   2.668 -0.2790  0.2741  0.0809
   82SLPC    HY 7664   2.254   3.006   2.569 -1.1428 -0.8731 -0.3434
   82SLPC   O31 7665   2.225   2.894   2.741 -0.4492  0.3473 -0.0923
   82SLPC   C31 7666   2.285   2.782   2.777  0.0360  0.1208  0.1319
   82SLPC   O32 7667   2.399   2.755   2.757  0.1318 -0.0487 -0.1758
   82SLPC   C32 7668   2.175   2.700   2.849 -0.1809 -0.6064  0.0872
   82SLPC   H2X 7669   2.124   2.631   2.778  0.2228 -0.6194 -0.1910
   82SLPC   H2Y 7670   2.089   2.763   2.882 -0.4113 -0.8816  0.0230
   82SLPC   C23 7671   2.424   3.050   3.141  0.1284 -0.0723 -0.0131
   82SLPC   H3R 7672   2.458   2.962   3.082  1.6067  1.4264 -1.5055
   82SLPC   H3S 7673   2.315   3.045   3.159 -0.0363  1.8986 -0.3261
   82SLPC   C24 7674   2.474   3.038   3.289 -0.3030  0.0290  0.0855
   82SLPC   H4R 7675   2.443   3.132   3.339  0.6887 -0.3053  1.3664
   82SLPC   H4S 7676   2.585   3.041   3.283 -0.3148 -0.5686 -4.4500
   82SLPC   C25 7677   2.428   2.904   3.353  0.4040  0.0555  0.0567
   82SLPC   H5R 7678   2.473   2.810   3.314  0.0784 -0.4390  0.8278
   82SLPC   H5S 7679   2.318   2.907   3.334  0.2351  0.0014  0.9657
   82SLPC   C26 7680   2.473   2.903   3.505  0.0520  0.4459  0.3804
   82SLPC   H6R 7681   2.417   2.836   3.574  1.9608  0.1979  1.7809
   82SLPC   H6S 7682   2.450   3.004   3.544 -0.0234  0.8272 -0.6226
   82SLPC   C27 7683   2.618   2.893   3.528  1.2543  0.5233  0.4220
   82SLPC   H7R 7684   2.664   2.988   3.496  2.2365 -0.3737 -0.9469
   82SLPC   H7S 7685   2.658   2.819   3.455  0.7308  0.7024 -0.0595
   82SLPC   C28 7686   2.656   2.856   3.668 -0.6437  0.2800 -0.0790
   82SLPC   H8R 7687   2.767   2.854   3.663 -0.6601 -1.0210 -0.4385
   82SLPC   H8S 7688   2.628   2.749   3.683  1.3681 -0.4254 -1.1101
   82SLPC   C29 7689   2.593   2.935   3.781  0.2573 -0.0726 -1.7222
   82SLPC   H9R 7690   2.486   2.910   3.794  0.3170  0.2159 -0.5014
   82SLPC  C210 7691   2.655   3.001   3.879  0.3993  0.7881 -0.2083
   82SLPC  H10R 7692   2.593   3.034   3.963  0.5052  0.0456  0.1702
   82SLPC  C211 7693   2.803   3.022   3.887  0.4403  0.2371 -0.2525
   82SLPC  H11R 7694   2.827   3.127   3.861 -0.0605  0.4680  0.2013
   82SLPC  H11S 7695   2.857   2.959   3.813 -1.2599  0.0383 -1.3818
   82SLPC  C212 7696   2.839   3.012   4.038 -0.0528  0.2381  0.0471
   82SLPC  H12R 7697   2.778   3.078   4.101 -1.3354 -1.6142  0.8450
   82SLPC  C213 7698   2.929   2.929   4.107  0.6973 -0.2708  0.9297
   82SLPC  H13R 7699   2.940   2.944   4.215 -0.4263  1.6868  0.8133
   82SLPC  C214 7700   3.006   2.822   4.033  0.3536  0.0009  0.2333
   82SLPC  H14R 7701   2.993   2.819   3.923  2.9021 -1.5855 -0.1109
   82SLPC  H14S 7702   2.979   2.722   4.073  2.0282 -1.0969 -1.2402
   82SLPC  C215 7703   3.160   2.841   4.060  0.2810 -0.4962 -0.2634
   82SLPC  H15R 7704   3.203   2.938   4.026 -2.3373  1.0741  0.5497
   82SLPC  H15S 7705   3.217   2.757   4.016  0.6658 -0.4559  0.1393
   82SLPC  C216 7706   3.178   2.834   4.211  0.0985  0.1182 -0.1567
   82SLPC  H16R 7707   3.096   2.775   4.257  0.1366  1.5785  1.9036
   82SLPC  H16S 7708   3.167   2.933   4.260  1.5732  0.6736 -0.8858
   82SLPC  C217 7709   3.321   2.780   4.255 -0.3003 -0.4036  0.4531
   82SLPC  H17R 7710   3.328   2.679   4.208  1.4241  0.3954 -1.0975
   82SLPC  H17S 7711   3.333   2.777   4.365  1.0757  0.8945  0.3635
   82SLPC  C218 7712   3.437   2.858   4.201  0.0765  0.1402 -0.9834
   82SLPC  H18R 7713   3.440   2.878   4.091  1.8025  2.8716 -0.5351
   82SLPC  H18S 7714   3.538   2.842   4.245 -0.3092 -0.7763 -0.4204
   82SLPC  H18T 7715   3.419   2.960   4.240  0.8550 -1.2429  3.5046
   82SLPC   C33 7716   2.235   2.638   2.982 -0.6985  0.0291 -0.4464
   82SLPC   H3X 7717   2.274   2.728   3.034 -1.1764 -0.1213  0.1827
   82SLPC   H3Y 7718   2.319   2.568   2.963  0.9714  1.0020  2.6459
   82SLPC   C34 7719   2.136   2.547   3.046  0.6972  0.5682 -0.3685
   82SLPC   H4X 7720   2.083   2.485   2.970  1.0424  1.6159 -1.5118
   82SLPC   H4Y 7721   2.054   2.602   3.096  1.4034  1.0231  0.3130
   82SLPC   C35 7722   2.187   2.459   3.156  0.2200  0.7143  0.2262
   82SLPC   H5X 7723   2.223   2.528   3.235  0.9969 -1.2048  1.6337
   82SLPC   H5Y 7724   2.282   2.411   3.121 -0.7885  0.2595 -2.1012
   82SLPC   C36 7725   2.089   2.350   3.198  0.0828 -0.8456 -0.0619
   82SLPC   H6X 7726   2.145   2.256   3.215 -2.0703 -1.8463  2.1651
   82SLPC   H6Y 7727   2.021   2.333   3.111  1.1641  1.2279 -1.4052
   82SLPC   C37 7728   2.014   2.389   3.320  0.6898 -0.3186 -0.3436
   82SLPC   H7X 7729   1.962   2.486   3.305  1.5971  0.8025  2.8724
   82SLPC   H7Y 7730   2.085   2.414   3.402 -0.7508  0.2469  0.7838
   82SLPC   C38 7731   1.933   2.280   3.387  0.3857  0.1139  0.5949
   82SLPC   H8X 7732   1.991   2.185   3.393 -0.5214 -0.6149 -1.4228
   82SLPC   H8Y 7733   1.850   2.262   3.315 -1.7198  1.1384  2.6656
   82SLPC   C39 7734   1.883   2.320   3.526  0.3049  0.2065 -0.3009
   82SLPC   H9X 7735   1.794   2.261   3.555  0.8966 -1.0731 -1.0192
   82SLPC   H9Y 7736   1.864   2.430   3.532  1.7621  0.5101 -0.7113
   82SLPC  C310 7737   1.984   2.291   3.638  0.1428  0.5384  0.3495
   82SLPC  H10X 7738   2.063   2.366   3.617  0.6660 -0.6012 -2.0700
   82SLPC  H10Y 7739   2.030   2.191   3.630 -3.4046 -1.1429 -1.3088
   82SLPC  C311 7740   1.925   2.319   3.779 -0.0176 -0.7378 -0.0059
   82SLPC  H11X 7741   1.843   2.250   3.808 -1.6843  1.2558  0.3238
   82SLPC  H11Y 7742   1.876   2.419   3.771  0.4317 -0.5851 -1.1164
   82SLPC  C312 7743   2.031   2.332   3.885 -0.1985  0.8632  0.8266
   82SLPC  H12X 7744   2.094   2.414   3.844 -0.4063 -0.4820 -2.5112
   82SLPC  H12Y 7745   2.092   2.241   3.902 -2.6338 -0.3474  4.2839
   82SLPC  C313 7746   1.966   2.372   4.019  0.1728 -0.0466  0.0565
   82SLPC  H13X 7747   1.874   2.310   4.023 -0.0055  0.1502 -0.7660
   82SLPC  H13Y 7748   1.936   2.479   4.022 -1.1271 -0.3720  3.4550
   82SLPC  C314 7749   2.073   2.335   4.125 -0.1515 -0.4594 -0.3256
   82SLPC  H14X 7750   2.170   2.387   4.111 -1.7320  2.5409 -1.2857
   82SLPC  H14Y 7751   2.095   2.228   4.106  2.4252 -0.5820  2.6213
   82SLPC  C315 7752   2.029   2.370   4.271 -0.8228  0.2080 -0.0800
   82SLPC  H15X 7753   2.016   2.480   4.278  4.2989  1.0498 -0.2957
   82SLPC  H15Y 7754   2.114   2.354   4.340 -0.1980  2.2490 -0.3111
   82SLPC  C316 7755   1.898   2.299   4.316  0.0931 -0.5319 -0.3402
   82SLPC  H16X 7756   1.821   2.336   4.244 -1.1071  1.7947  1.9819
   82SLPC  H16Y 7757   1.856   2.336   4.412 -0.6063 -0.7556 -0.5466
   82SLPC  C317 7758   1.901   2.146   4.322 -1.1048 -0.3367  0.2972
   82SLPC  H17X 7759   1.978   2.123   4.398 -0.1482 -3.3768 -1.3892
   82SLPC  H17Y 7760   1.941   2.101   4.228 -1.7895  3.2429 -1.9238
   82SLPC  C318 7761   1.768   2.076   4.364 -0.1253 -0.0568  0.3999
   82SLPC  H18X 7762   1.794   1.971   4.339 -1.5407 -0.1267 -0.8757
   82SLPC  H18Y 7763   1.675   2.105   4.311  0.0444  0.8859  0.6099
   82SLPC  H18Z 7764   1.756   2.082   4.475 -0.1458 -1.7585  0.5144
   83SLPC     N 7765   4.337   2.379   2.290  0.4914  0.3509 -0.3577
   83SLPC   C13 7766   4.471   2.428   2.249 -0.1495  0.1578 -0.3654
   83SLPC  H13A 7767   4.528   2.356   2.192  0.4665  0.0943  0.3123
   83SLPC  H13B 7768   4.471   2.525   2.202 -0.1588 -0.2116 -1.1455
   83SLPC  H13C 7769   4.521   2.463   2.338 -0.3373  2.0879 -0.9644
   83SLPC   C14 7770   4.256   2.336   2.171 -0.3701 -0.1642  0.3101
   83SLPC  H14A 7771   4.246   2.424   2.108 -2.3762  0.3629  1.2763
   83SLPC  H14B 7772   4.305   2.259   2.115  1.7827  0.2601  1.5051
   83SLPC  H14C 7773   4.160   2.306   2.210 -0.6022  0.1101 -0.0394
   83SLPC   C15 7774   4.268   2.499   2.351  0.6290 -1.0831  0.0877
   83SLPC  H15A 7775   4.174   2.465   2.393  0.7715 -0.3352  1.0604
   83SLPC  H15B 7776   4.327   2.537   2.433 -1.2293  0.6104  0.7369
   83SLPC  H15C 7777   4.245   2.579   2.283  0.3316 -1.4464 -0.2432
   83SLPC   C12 7778   4.353   2.270   2.394 -0.9799  0.1399  0.0972
   83SLPC  H12A 7779   4.415   2.308   2.473 -0.5780 -0.0895 -0.1064
   83SLPC  H12B 7780   4.409   2.188   2.351 -2.5101 -0.1184 -1.5437
   83SLPC   C11 7781   4.230   2.196   2.452  0.4367  0.6119 -0.0285
   83SLPC  H11A 7782   4.154   2.269   2.487 -0.8208 -0.0995 -1.1470
   83SLPC  H11B 7783   4.262   2.138   2.541  0.3518 -1.1370 -1.0755
   83SLPC     P 7784   4.235   1.973   2.312  0.1985 -0.0500  0.6326
   83SLPC   O13 7785   4.170   1.930   2.187  0.0786 -0.0837  0.0036
   83SLPC   O14 7786   4.382   2.000   2.317 -0.3161 -0.6154  0.7137
   83SLPC   O12 7787   4.168   2.109   2.355 -0.1356  0.2263  0.1567
   83SLPC   O11 7788   4.206   1.879   2.435 -0.4856  0.0192  0.0679
   83SLPC    C1 7789   4.071   1.844   2.468 -0.2307 -0.2040  0.2268
   83SLPC    HA 7790   4.003   1.853   2.381  0.3005 -2.2315 -0.4443
   83SLPC    HB 7791   4.076   1.736   2.493  1.8513 -0.2237 -0.1063
   83SLPC    C2 7792   4.022   1.919   2.597  0.3694  0.2851 -0.2044
   83SLPC    HS 7793   3.985   2.022   2.577 -0.5871 -0.0250 -0.0853
   83SLPC   O21 7794   4.129   1.931   2.693 -0.0723 -0.7785  0.2514
   83SLPC   C21 7795   4.134   2.042   2.769  0.5122 -0.4262 -0.6518
   83SLPC   O22 7796   4.060   2.140   2.755 -0.3903  0.1967  1.0310
   83SLPC   C22 7797   4.242   2.016   2.876 -0.0161  0.4454 -0.5369
   83SLPC   H2R 7798   4.186   1.958   2.952  1.7611  0.2034  0.6648
   83SLPC   H2S 7799   4.317   1.945   2.835  0.5018  0.8717 -0.3489
   83SLPC    C3 7800   3.899   1.850   2.658  0.0966  0.4089 -0.0568
   83SLPC    HX 7801   3.932   1.744   2.662  1.8564  0.9542  1.1463
   83SLPC    HY 7802   3.814   1.859   2.587  0.0252 -1.0114 -0.1786
   83SLPC   O31 7803   3.865   1.894   2.794 -0.2622 -0.8594  0.8291
   83SLPC   C31 7804   3.771   1.986   2.807  0.1245 -0.1359 -0.6055
   83SLPC   O32 7805   3.698   2.028   2.716 -0.1584 -0.1891 -0.1580
   83SLPC   C32 7806   3.758   2.020   2.959 -0.2293  0.2161  0.2709
   83SLPC   H2X 7807   3.855   2.001   3.011 -0.6107 -0.8122  0.6378
   83SLPC   H2Y 7808   3.690   1.949   3.010 -0.8248  0.4065 -0.2477
   83SLPC   C23 7809   4.301   2.144   2.943 -0.3996  0.4054  0.0864
   83SLPC   H3R 7810   4.221   2.201   2.994 -0.6025  0.9013 -0.7559
   83SLPC   H3S 7811   4.349   2.207   2.864 -0.4312 -0.3723 -0.5661
   83SLPC   C24 7812   4.406   2.115   3.051 -0.0581  0.2715 -0.4061
   83SLPC   H4R 7813   4.478   2.033   3.034  2.1647  1.4303  2.4644
   83SLPC   H4S 7814   4.358   2.080   3.145  0.7618 -2.9407 -1.0810
   83SLPC   C25 7815   4.500   2.233   3.078 -0.5257 -1.1788 -0.2595
   83SLPC   H5R 7816   4.442   2.321   3.112 -0.8078 -1.3927 -0.1768
   83SLPC   H5S 7817   4.551   2.268   2.985 -0.7660  2.4815  0.8262
   83SLPC   C26 7818   4.613   2.191   3.184 -0.4668 -0.2183  0.2988
   83SLPC   H6R 7819   4.705   2.238   3.143 -1.3702  1.5649  0.2044
   83SLPC   H6S 7820   4.618   2.080   3.175 -1.4067 -0.2313 -0.1052
   83SLPC   C27 7821   4.577   2.207   3.332  0.6851  0.3100 -0.0230
   83SLPC   H7R 7822   4.488   2.141   3.333  0.4450  0.3823 -3.3873
   83SLPC   H7S 7823   4.552   2.309   3.369 -2.2266 -0.2971 -0.0716
   83SLPC   C28 7824   4.676   2.138   3.429 -0.0740  0.3118  0.5088
   83SLPC   H8R 7825   4.693   2.037   3.387 -1.8280  0.6456 -1.1814
   83SLPC   H8S 7826   4.630   2.135   3.530 -5.1232  1.4129 -1.4244
   83SLPC   C29 7827   4.806   2.217   3.428  1.0311 -0.0241  0.5318
   83SLPC   H9R 7828   4.845   2.235   3.327  0.3287 -3.2707 -0.4151
   83SLPC  C210 7829   4.850   2.297   3.528 -0.0074  0.1146  0.8882
   83SLPC  H10R 7830   4.946   2.346   3.506 -0.6263  0.8142 -0.3439
   83SLPC  C211 7831   4.790   2.307   3.662  0.4170  0.6902  0.0888
   83SLPC  H11R 7832   4.873   2.338   3.729 -0.0543  0.0091  1.0114
   83SLPC  H11S 7833   4.770   2.206   3.702  3.2385  0.6931  1.8368
   83SLPC  C212 7834   4.667   2.393   3.662  0.7277 -0.5361 -0.1250
   83SLPC  H12R 7835   4.606   2.386   3.571  0.5873 -0.7744 -0.0117
   83SLPC  C213 7836   4.630   2.481   3.762  0.0933 -0.2628 -0.4058
   83SLPC  H13R 7837   4.547   2.551   3.747  1.4511  1.3531 -0.6604
   83SLPC  C214 7838   4.715   2.495   3.885 -0.4237 -1.1911  0.4718
   83SLPC  H14R 7839   4.804   2.558   3.864 -1.1888 -0.4125 -0.5787
   83SLPC  H14S 7840   4.754   2.399   3.924 -2.1188 -1.3078  2.0076
   83SLPC  C215 7841   4.655   2.578   4.000  0.1796  0.6929 -0.1016
   83SLPC  H15R 7842   4.615   2.676   3.964 -0.6193  0.5487  0.3511
   83SLPC  H15S 7843   4.738   2.600   4.071 -0.4471  2.5452  0.1208
   83SLPC  C216 7844   4.537   2.496   4.070 -0.2258 -0.2496  0.7021
   83SLPC  H16R 7845   4.567   2.399   4.115 -1.2947 -0.3956  1.1186
   83SLPC  H16S 7846   4.462   2.490   3.989 -1.0172  3.6008  0.9599
   83SLPC  C217 7847   4.475   2.575   4.185  0.3987  0.1959 -0.3645
   83SLPC  H17R 7848   4.451   2.680   4.157  0.2037 -0.3494 -2.3805
   83SLPC  H17S 7849   4.551   2.591   4.264  0.7283 -2.3528 -0.0889
   83SLPC  C218 7850   4.356   2.496   4.232 -0.2713 -0.0594 -0.1151
   83SLPC  H18R 7851   4.299   2.565   4.298  1.1417  2.1293 -1.0627
   83SLPC  H18S 7852   4.389   2.409   4.294 -2.9892  0.1145  1.7537
   83SLPC  H18T 7853   4.300   2.461   4.143 -0.9808 -0.1939  0.3818
   83SLPC   C33 7854   3.717   2.166   2.983 -0.4666  0.6910  0.6559
   83SLPC   H3X 7855   3.625   2.193   2.927 -1.3120 -1.9654  0.6338
   83SLPC   H3Y 7856   3.795   2.240   2.954 -1.2617  0.6379 -1.9134
   83SLPC   C34 7857   3.693   2.182   3.134 -0.2258 -0.2931  0.1895
   83SLPC   H4X 7858   3.773   2.148   3.204 -1.4741 -3.4690  0.2415
   83SLPC   H4Y 7859   3.604   2.123   3.164 -0.1202  0.2611  1.7085
   83SLPC   C35 7860   3.668   2.332   3.171 -0.4602  0.0701  0.0353
   83SLPC   H5X 7861   3.609   2.341   3.264 -0.6036 -0.8664  0.0415
   83SLPC   H5Y 7862   3.600   2.375   3.095 -0.0398  2.5225  0.9641
   83SLPC   C36 7863   3.796   2.415   3.198  0.4964 -0.9330  0.1374
   83SLPC   H6X 7864   3.775   2.523   3.187  2.2889 -0.6410 -0.8152
   83SLPC   H6Y 7865   3.882   2.400   3.129 -0.3997 -2.6618 -0.6476
   83SLPC   C37 7866   3.837   2.383   3.345  0.3603  0.1849 -0.0513
   83SLPC   H7X 7867   3.845   2.272   3.356 -2.3394 -0.0935 -0.1990
   83SLPC   H7Y 7868   3.757   2.417   3.415  0.6656  1.4045 -0.2722
   83SLPC   C38 7869   3.968   2.443   3.375  0.0043 -0.2157 -1.0557
   83SLPC   H8X 7870   3.961   2.553   3.361 -1.0383  0.4717  3.3235
   83SLPC   H8Y 7871   4.052   2.404   3.313  0.7027 -0.7389  0.1799
   83SLPC   C39 7872   4.000   2.428   3.519 -0.2063 -0.2126 -0.3014
   83SLPC   H9X 7873   4.022   2.321   3.539  1.7578  0.0745 -0.7956
   83SLPC   H9Y 7874   3.911   2.452   3.582  1.0315  0.6387  1.1703
   83SLPC  C310 7875   4.115   2.512   3.563  0.6054 -0.6295  0.9796
   83SLPC  H10X 7876   4.089   2.616   3.537  3.1678 -0.0613  0.4483
   83SLPC  H10Y 7877   4.214   2.481   3.524  0.3339 -1.3238  0.8154
   83SLPC  C311 7878   4.133   2.519   3.714 -0.0820 -0.4953 -0.6732
   83SLPC  H11X 7879   4.243   2.527   3.729 -0.4112  4.6375  0.6158
   83SLPC  H11Y 7880   4.106   2.425   3.767  1.3415 -0.2546  0.5498
   83SLPC  C312 7881   4.070   2.642   3.767  0.0193 -0.6252 -0.4532
   83SLPC  H12X 7882   3.961   2.628   3.746 -0.6931  0.4051  2.1448
   83SLPC  H12Y 7883   4.108   2.731   3.713  2.5031 -0.8999  0.7097
   83SLPC  C313 7884   4.079   2.662   3.917  0.5994  0.8189  0.0540
   83SLPC  H13X 7885   4.183   2.665   3.954  0.1353 -1.3125  1.7960
   83SLPC  H13Y 7886   4.026   2.578   3.968  1.4459 -0.3681 -0.9608
   83SLPC  C314 7887   3.989   2.777   3.963 -0.4400 -0.3176  0.3239
   83SLPC  H14X 7888   3.888   2.776   3.916 -0.0139 -0.3960 -0.6052
   83SLPC  H14Y 7889   4.034   2.874   3.932 -1.6371  0.4933  1.0563
   83SLPC  C315 7890   3.975   2.759   4.112 -0.5294 -0.6282 -0.2314
   83SLPC  H15X 7891   3.967   2.652   4.139  3.0157 -0.8312  0.3844
   83SLPC  H15Y 7892   3.888   2.822   4.142 -1.0371 -1.4946  0.1771
   83SLPC  C316 7893   4.102   2.795   4.190  0.4123  0.5109  0.2541
   83SLPC  H16X 7894   4.115   2.905   4.194 -0.1393  0.5507  3.1108
   83SLPC  H16Y 7895   4.185   2.748   4.134 -0.1858 -1.4645  0.9227
   83SLPC  C317 7896   4.092   2.756   4.334  0.1636 -0.2735  0.1049
   83SLPC  H17X 7897   4.189   2.771   4.385 -0.4936  0.0403  1.3120
   83SLPC  H17Y 7898   4.071   2.647   4.336 -2.3309  0.0507 -2.0361
   83SLPC  C318 7899   3.979   2.829   4.419  0.6191 -0.5708 -0.6557
   83SLPC  H18X 7900   3.882   2.827   4.365  0.2823 -0.0543 -0.0850
   83SLPC  H18Y 7901   4.012   2.934   4.438 -0.4353 -0.5213  1.1032
   83SLPC  H18Z 7902   3.976   2.789   4.522  1.8781 -1.3065 -0.8798
   84SLPC     N 7903   4.671   4.533   2.038 -0.3604  0.7749  0.4102
   84SLPC   C13 7904   4.661   4.519   2.187 -0.1116 -0.3797 -0.0308
   84SLPC  H13A 7905   4.559   4.502   2.219  0.4682 -1.3357  1.3911
   84SLPC  H13B 7906   4.732   4.446   2.223 -1.4204  0.1991  4.1747
   84SLPC  H13C 7907   4.689   4.608   2.241  0.2295 -0.3914 -0.1831
   84SLPC   C14 7908   4.614   4.402   1.989  0.1808 -1.0216  0.1903
   84SLPC  H14A 7909   4.596   4.412   1.882  1.9390  2.3856  0.0945
   84SLPC  H14B 7910   4.673   4.313   2.007 -0.4034 -1.7653 -1.3608
   84SLPC  H14C 7911   4.520   4.385   2.040  0.1654  3.3077  2.0411
   84SLPC   C15 7912   4.802   4.555   1.992 -0.5032  0.0264  0.0447
   84SLPC  H15A 7913   4.879   4.485   2.024 -0.3181 -1.4962 -3.3150
   84SLPC  H15B 7914   4.795   4.556   1.884  1.0042  0.7073 -0.0760
   84SLPC  H15C 7915   4.845   4.652   2.015  1.6930 -0.4043 -1.8838
   84SLPC   C12 7916   4.574   4.643   1.995 -0.4757  0.0124  0.5724
   84SLPC  H12A 7917   4.481   4.609   2.039  0.0044 -1.6290  0.3698
   84SLPC  H12B 7918   4.558   4.625   1.890  2.0364 -1.2662  0.3373
   84SLPC   C11 7919   4.614   4.790   2.032  0.1319  0.1435  0.8505
   84SLPC  H11A 7920   4.531   4.848   1.987 -0.2947  0.3609  1.8837
   84SLPC  H11B 7921   4.707   4.821   1.980  0.4802 -0.0507  1.3396
   84SLPC     P 7922   4.527   4.870   2.269  0.3142 -0.1121 -0.0849
   84SLPC   O13 7923   4.492   5.013   2.240 -0.5252 -0.0574  0.0889
   84SLPC   O14 7924   4.428   4.764   2.259 -0.2953 -0.1822 -0.0063
   84SLPC   O12 7925   4.638   4.825   2.167 -0.2564 -0.3210 -0.2115
   84SLPC   O11 7926   4.617   4.858   2.402  0.0376 -0.2158  0.2644
   84SLPC    C1 7927   4.721   4.954   2.425  0.6484 -0.5916 -0.2909
   84SLPC    HA 7928   4.815   4.899   2.446 -0.1830 -1.9839 -0.0736
   84SLPC    HB 7929   4.744   5.029   2.347  2.8020  0.2846  1.0951
   84SLPC    C2 7930   4.690   5.051   2.544  0.4041  0.1150 -0.2783
   84SLPC    HS 7931   4.756   5.141   2.536  1.5655 -0.8236 -2.0000
   84SLPC   O21 7932   4.698   4.979   2.675  0.4401  0.0887  0.0752
   84SLPC   C21 7933   4.826   4.954   2.703  0.1273 -0.1654 -0.0753
   84SLPC   O22 7934   4.919   4.998   2.640  0.1591 -0.0493 -0.5780
   84SLPC   C22 7935   4.834   4.845   2.811  0.2391 -0.6091  0.5448
   84SLPC   H2R 7936   4.733   4.808   2.837 -0.8866  1.6983 -0.2639
   84SLPC   H2S 7937   4.887   4.758   2.766 -2.7956 -2.3833  0.1502
   84SLPC    C3 7938   4.550   5.130   2.530  0.0793 -0.4774 -0.0333
   84SLPC    HX 7939   4.463   5.064   2.510 -1.2966  1.0580  0.7334
   84SLPC    HY 7940   4.576   5.192   2.442  0.1803 -1.2907 -0.5935
   84SLPC   O31 7941   4.523   5.204   2.651 -0.3904  0.7894  0.1264
   84SLPC   C31 7942   4.462   5.313   2.628 -0.0589  0.4616 -0.0559
   84SLPC   O32 7943   4.438   5.360   2.518 -0.1408 -0.0287 -0.0665
   84SLPC   C32 7944   4.438   5.384   2.766  0.2609  0.6964  0.5440
   84SLPC   H2X 7945   4.345   5.347   2.813  0.8437 -0.6824  0.6446
   84SLPC   H2Y 7946   4.421   5.491   2.740  1.7570  0.5534 -1.2016
   84SLPC   C23 7947   4.909   4.884   2.936 -0.2767 -0.1270  0.3102
   84SLPC   H3R 7948   4.998   4.941   2.900 -1.0107  1.3946  0.8060
   84SLPC   H3S 7949   4.961   4.794   2.975  0.3171 -0.6573 -1.5924
   84SLPC   C24 7950   4.824   4.943   3.053 -0.1121  0.2982  0.0657
   84SLPC   H4R 7951   4.736   4.876   3.049  0.2291 -0.2150 -4.4520
   84SLPC   H4S 7952   4.796   5.050   3.040 -1.6237 -0.1059 -0.1157
   84SLPC   C25 7953   4.898   4.928   3.188  0.5232 -0.4914  0.3856
   84SLPC   H5R 7954   4.980   5.003   3.191  0.3036 -0.2644  1.0062
   84SLPC   H5S 7955   4.944   4.828   3.196 -1.3317 -1.2972  1.6548
   84SLPC   C26 7956   4.810   4.954   3.313 -0.1241 -0.3618  0.6360
   84SLPC   H6R 7957   4.727   4.880   3.318  0.4275 -0.9689  1.0308
   84SLPC   H6S 7958   4.760   5.053   3.308 -1.8016 -1.0539 -5.8577
   84SLPC   C27 7959   4.891   4.946   3.442  0.6267  0.3029  0.4379
   84SLPC   H7R 7960   4.977   5.015   3.424 -0.4337  2.0238  1.6438
   84SLPC   H7S 7961   4.929   4.844   3.462  0.5173  0.8576  4.0887
   84SLPC   C28 7962   4.830   4.993   3.569 -0.0839 -0.6801 -0.1872
   84SLPC   H8R 7963   4.765   4.909   3.602 -3.0723  1.6029  0.2249
   84SLPC   H8S 7964   4.763   5.081   3.553  0.1946 -0.3050  0.6400
   84SLPC   C29 7965   4.928   5.032   3.678 -0.7645  0.7552 -0.7999
   84SLPC   H9R 7966   4.984   5.125   3.656  0.9418 -0.2794 -1.0396
   84SLPC  C210 7967   4.952   4.970   3.800 -0.3438 -0.4328 -0.0145
   84SLPC  H10R 7968   5.025   5.022   3.864 -1.5527  2.4111 -0.7578
   84SLPC  C211 7969   4.899   4.837   3.840 -0.4466 -0.3863 -0.1064
   84SLPC  H11R 7970   4.962   4.798   3.923  3.2185  2.2313 -1.4121
   84SLPC  H11S 7971   4.900   4.763   3.758  0.0009  0.9903 -1.4000
   84SLPC  C212 7972   4.758   4.838   3.891  0.3743  0.4939 -0.1363
   84SLPC  H12R 7973   4.676   4.840   3.817  1.0197  2.9967 -0.8836
   84SLPC  C213 7974   4.721   4.835   4.026 -0.0622 -0.6956 -0.6916
   84SLPC  H13R 7975   4.612   4.836   4.040 -0.0971 -1.0735 -0.9375
   84SLPC  C214 7976   4.806   4.834   4.151  0.7095 -0.1532  0.7160
   84SLPC  H14R 7977   4.912   4.815   4.125  0.2140 -0.0555 -1.6156
   84SLPC  H14S 7978   4.765   4.760   4.223  2.2508  1.1991  3.0897
   84SLPC  C215 7979   4.789   4.975   4.209 -0.1044 -0.0581 -0.1612
   84SLPC  H15R 7980   4.684   4.999   4.233 -0.2587 -0.6241 -0.2460
   84SLPC  H15S 7981   4.833   5.039   4.130  0.1521 -0.2298 -0.1607
   84SLPC  C216 7982   4.852   4.982   4.345  0.7002  0.0032 -0.2536
   84SLPC  H16R 7983   4.947   4.925   4.336 -0.7654 -2.9424  1.2589
   84SLPC  H16S 7984   4.784   4.928   4.415 -1.3499 -0.8367 -2.7472
   84SLPC  C217 7985   4.883   5.126   4.392 -0.0672  0.9289  0.3419
   84SLPC  H17R 7986   4.786   5.180   4.390  0.3516  1.6720 -1.0588
   84SLPC  H17S 7987   4.950   5.158   4.309  0.9613 -1.1827  0.2800
   84SLPC  C218 7988   4.959   5.152   4.523 -0.6026  0.6538  0.1056
   84SLPC  H18R 7989   4.998   5.254   4.502  3.0766 -0.3932  1.0893
   84SLPC  H18S 7990   5.036   5.074   4.543 -2.0294 -0.5099  1.2837
   84SLPC  H18T 7991   4.902   5.145   4.618  0.9628  1.1672  1.1283
   84SLPC   C33 7992   4.548   5.370   2.873 -0.0580 -0.4107  0.4459
   84SLPC   H3X 7993   4.645   5.347   2.824 -0.0449  0.1535  0.2031
   84SLPC   H3Y 7994   4.514   5.274   2.918 -1.2242 -0.7601 -1.1023
   84SLPC   C34 7995   4.562   5.482   2.975  0.1102  0.4881  0.6780
   84SLPC   H4X 7996   4.474   5.480   3.042 -1.3433 -2.2350 -1.1344
   84SLPC   H4Y 7997   4.562   5.575   2.915 -2.1236 -0.6151 -1.1829
   84SLPC   C35 7998   4.684   5.479   3.066 -0.7086 -1.1522 -1.2911
   84SLPC   H5X 7999   4.777   5.507   3.011 -1.5015  0.1829 -1.9956
   84SLPC   H5Y 8000   4.699   5.373   3.095  1.6290 -1.4006 -3.0392
   84SLPC   C36 8001   4.674   5.571   3.185  0.8389 -0.3748 -0.5670
   84SLPC   H6X 8002   4.584   5.555   3.247  1.0967 -0.3495 -0.1813
   84SLPC   H6Y 8003   4.670   5.673   3.142 -0.9152  1.5175  3.5828
   84SLPC   C37 8004   4.801   5.553   3.267  0.4996  0.7685  0.2319
   84SLPC   H7X 8005   4.887   5.560   3.197  1.2711 -4.0572  0.3514
   84SLPC   H7Y 8006   4.800   5.444   3.288 -1.4234  0.2543 -2.1188
   84SLPC   C38 8007   4.813   5.627   3.393 -0.1489  0.5888 -0.8816
   84SLPC   H8X 8008   4.715   5.623   3.446  0.3691 -0.2307  0.0535
   84SLPC   H8Y 8009   4.824   5.737   3.384 -2.0180  1.0032  1.1006
   84SLPC   C39 8010   4.912   5.567   3.489  0.3721  0.2154  0.1268
   84SLPC   H9X 8011   5.003   5.556   3.427  0.3268  1.0112 -0.0919
   84SLPC   H9Y 8012   4.875   5.476   3.541  1.8996 -0.6390 -0.2140
   84SLPC  C310 8013   4.940   5.669   3.595 -0.5291 -0.4979 -0.8624
   84SLPC  H10X 8014   4.846   5.709   3.639  0.3004 -0.6573  1.1945
   84SLPC  H10Y 8015   5.003   5.750   3.551 -0.3742  0.0545  0.3347
   84SLPC  C311 8016   5.039   5.620   3.700 -0.1781 -0.4003 -0.4295
   84SLPC  H11X 8017   5.132   5.585   3.650 -0.3920 -0.0139 -1.1105
   84SLPC  H11Y 8018   4.985   5.541   3.757 -1.4494  1.5616  1.2354
   84SLPC  C312 8019   5.078   5.720   3.810 -0.1420  0.7912  0.3464
   84SLPC  H12X 8020   4.989   5.760   3.862  0.0981  1.7648  0.0256
   84SLPC  H12Y 8021   5.142   5.800   3.767  0.9325 -0.0288  0.3752
   84SLPC  C313 8022   5.170   5.653   3.917 -0.5369  0.1985 -0.5842
   84SLPC  H13X 8023   5.249   5.591   3.869 -2.0512 -0.9248 -1.7627
   84SLPC  H13Y 8024   5.109   5.585   3.981  1.2281 -1.4958 -0.5816
   84SLPC  C314 8025   5.244   5.760   4.010 -0.0638  0.5943 -0.2334
   84SLPC  H14X 8026   5.166   5.804   4.077  0.1732  2.1958 -0.9446
   84SLPC  H14Y 8027   5.296   5.833   3.943 -0.0312  0.4089 -0.4099
   84SLPC  C315 8028   5.353   5.687   4.100  0.8591 -0.2346 -0.2658
   84SLPC  H15X 8029   5.328   5.579   4.113 -0.8023 -0.1514 -2.2332
   84SLPC  H15Y 8030   5.346   5.732   4.201 -2.9462  3.8144 -2.0205
   84SLPC  C316 8031   5.494   5.701   4.052 -0.6214 -0.4200 -0.6396
   84SLPC  H16X 8032   5.519   5.775   3.973  0.5790 -0.0387  0.0735
   84SLPC  H16Y 8033   5.535   5.603   4.017 -1.7183 -0.0131 -3.3498
   84SLPC  C317 8034   5.598   5.737   4.163 -0.2731  0.1804 -0.4476
   84SLPC  H17X 8035   5.593   5.843   4.196 -0.1885  0.5872 -1.6958
   84SLPC  H17Y 8036   5.698   5.724   4.116 -0.6797  3.5542 -2.5749
   84SLPC  C318 8037   5.596   5.652   4.293  0.1519  0.8219  0.0071
   84SLPC  H18X 8038   5.601   5.542   4.274 -1.2555  0.6003  0.8368
   84SLPC  H18Y 8039   5.509   5.665   4.361 -0.2317 -0.3162 -0.2459
   84SLPC  H18Z 8040   5.689   5.677   4.350  0.3552  1.7695 -0.7196
   85SLPC     N 8041   1.849   3.487   2.313 -0.1652  0.6265 -0.3418
   85SLPC   C13 8042   1.871   3.477   2.460 -0.7165  0.8352 -0.2271
   85SLPC  H13A 8043   1.778   3.447   2.505 -1.0013  1.3965 -0.4359
   85SLPC  H13B 8044   1.946   3.403   2.486  0.4291  2.0017 -0.1144
   85SLPC  H13C 8045   1.907   3.569   2.504  0.7253  0.2562 -0.1192
   85SLPC   C14 8046   1.986   3.498   2.250  0.0544 -0.4509  0.1530
   85SLPC  H14A 8047   1.986   3.497   2.142 -0.4141 -1.3412  0.1481
   85SLPC  H14B 8048   2.043   3.579   2.294  0.7151 -0.2807 -0.9812
   85SLPC  H14C 8049   2.046   3.413   2.278 -1.9702 -2.3747 -0.9744
   85SLPC   C15 8050   1.773   3.610   2.282  0.2628 -0.4825 -0.0415
   85SLPC  H15A 8051   1.757   3.638   2.179  0.7103 -1.1532 -0.3054
   85SLPC  H15B 8052   1.672   3.606   2.318 -0.9873 -2.5696 -3.3160
   85SLPC  H15C 8053   1.823   3.698   2.321  3.1676 -0.8060 -2.6264
   85SLPC   C12 8054   1.792   3.365   2.251 -0.2535 -0.1588  0.1808
   85SLPC  H12A 8055   1.782   3.381   2.145  0.7347  3.5718  0.5054
   85SLPC  H12B 8056   1.694   3.356   2.294 -0.1984 -0.0477  0.3317
   85SLPC   C11 8057   1.873   3.237   2.268 -0.7607 -0.2068  0.5730
   85SLPC  H11A 8058   1.872   3.212   2.377 -2.0855  0.5941  0.7714
   85SLPC  H11B 8059   1.972   3.234   2.218 -1.5449 -1.2871 -0.9952
   85SLPC     P 8060   1.814   2.995   2.192  0.2040 -0.3016  0.1522
   85SLPC   O13 8061   1.696   2.942   2.120  0.2938 -0.1614  0.5895
   85SLPC   O14 8062   1.951   2.963   2.150  0.2192  0.2837 -0.2362
   85SLPC   O12 8063   1.793   3.150   2.198 -0.1311 -0.2326  0.4750
   85SLPC   O11 8064   1.811   2.949   2.341  0.5079 -0.2331 -0.6445
   85SLPC    C1 8065   1.686   2.978   2.415  0.1847 -0.1776  0.1876
   85SLPC    HA 8066   1.680   3.088   2.429  0.2517 -0.1917  0.3175
   85SLPC    HB 8067   1.595   2.956   2.354  0.0883  1.8322 -0.4618
   85SLPC    C2 8068   1.677   2.896   2.553  0.0795 -0.2943  0.1572
   85SLPC    HS 8069   1.591   2.917   2.619 -0.0242  1.8590 -0.5988
   85SLPC   O21 8070   1.781   2.922   2.638 -0.1673 -0.5819 -0.3441
   85SLPC   C21 8071   1.816   3.047   2.673  0.1607 -0.5424  0.2203
   85SLPC   O22 8072   1.758   3.147   2.642  0.0332  0.3400  0.8177
   85SLPC   C22 8073   1.927   3.048   2.776  0.1795  0.1805  0.1683
   85SLPC   H2R 8074   1.985   2.953   2.780 -1.1996 -0.7262 -0.4981
   85SLPC   H2S 8075   2.001   3.123   2.740 -1.7654  1.7266 -0.8097
   85SLPC    C3 8076   1.673   2.740   2.532  0.4628  0.9710  0.1234
   85SLPC    HX 8077   1.755   2.710   2.464  1.0517 -1.1601  1.6936
   85SLPC    HY 8078   1.578   2.720   2.477 -0.1103 -0.7462  1.6533
   85SLPC   O31 8079   1.668   2.670   2.657  0.3991 -0.5274 -0.0322
   85SLPC   C31 8080   1.786   2.613   2.695  0.2415 -0.5914  0.1993
   85SLPC   O32 8081   1.893   2.635   2.638  0.3872 -0.2475 -0.0138
   85SLPC   C32 8082   1.763   2.510   2.809 -0.1484 -0.5121 -0.5389
   85SLPC   H2X 8083   1.855   2.448   2.803  1.8478  2.2105 -0.5317
   85SLPC   H2Y 8084   1.662   2.466   2.795 -0.7698  0.7976 -0.3823
   85SLPC   C23 8085   1.876   3.073   2.916  0.1093 -0.0654 -0.6134
   85SLPC   H3R 8086   1.810   2.990   2.949 -1.4418  0.1546 -2.9779
   85SLPC   H3S 8087   1.825   3.172   2.924 -0.8454 -0.4530 -1.6628
   85SLPC   C24 8088   1.990   3.069   3.013  0.2925  0.0323  0.1485
   85SLPC   H4R 8089   2.045   3.166   3.012  1.5243 -0.6303  1.2878
   85SLPC   H4S 8090   2.066   2.993   2.987  0.4880  0.5494 -0.8384
   85SLPC   C25 8091   1.940   3.056   3.158  0.1379  0.1499 -0.8590
   85SLPC   H5R 8092   1.870   3.139   3.180 -0.1750 -0.0588 -1.0424
   85SLPC   H5S 8093   1.867   2.972   3.165  0.7063 -0.2324  0.7197
   85SLPC   C26 8094   2.049   3.031   3.261 -0.0809 -0.0379 -0.6969
   85SLPC   H6R 8095   2.131   3.106   3.265  0.3004 -0.4831  1.0916
   85SLPC   H6S 8096   2.099   2.938   3.226 -0.3135 -0.5751  0.3306
   85SLPC   C27 8097   1.998   3.011   3.405  0.2017  0.9949  0.2660
   85SLPC   H7R 8098   1.913   3.079   3.425 -0.1103  0.7219 -0.1084
   85SLPC   H7S 8099   2.079   3.025   3.481  0.1083  0.3860  0.4845
   85SLPC   C28 8100   1.939   2.868   3.438 -0.1371  0.2243 -0.7215
   85SLPC   H8R 8101   1.854   2.840   3.373 -0.8656 -0.3247  0.4341
   85SLPC   H8S 8102   1.894   2.874   3.539 -1.1727  1.1438 -1.2319
   85SLPC   C29 8103   2.040   2.761   3.422 -0.3681  0.7973 -0.2633
   85SLPC   H9R 8104   2.028   2.712   3.324  0.0377 -3.7096  1.6700
   85SLPC  C210 8105   2.105   2.692   3.516 -0.3814 -0.4037  0.5599
   85SLPC  H10R 8106   2.180   2.620   3.480 -0.9496 -1.0338  0.6177
   85SLPC  C211 8107   2.106   2.719   3.663 -0.5410  0.0468  0.2176
   85SLPC  H11R 8108   2.180   2.648   3.706 -0.6690  1.5388  3.1223
   85SLPC  H11S 8109   2.005   2.703   3.706  0.1819 -2.2993  1.1859
   85SLPC  C212 8110   2.159   2.865   3.705  0.5138  0.0689  0.8132
   85SLPC  H12R 8111   2.174   2.929   3.617 -1.9511 -1.7418 -1.0867
   85SLPC  C213 8112   2.195   2.901   3.828 -1.0556 -0.0796 -0.4404
   85SLPC  H13R 8113   2.243   3.000   3.823 -0.6102 -0.3679 -3.8186
   85SLPC  C214 8114   2.187   2.825   3.962  0.3209 -0.5446  0.1352
   85SLPC  H14R 8115   2.134   2.730   3.939 -0.5718 -0.6823  2.4243
   85SLPC  H14S 8116   2.131   2.886   4.036  2.6846  4.1602 -1.5491
   85SLPC  C215 8117   2.328   2.806   4.021 -0.8897  0.7304  0.1234
   85SLPC  H15R 8118   2.355   2.910   4.051 -2.4634  0.7698  1.5722
   85SLPC  H15S 8119   2.404   2.767   3.950 -1.2432  2.2871 -1.1677
   85SLPC  C216 8120   2.351   2.725   4.147  0.3608 -0.0262  0.0851
   85SLPC  H16R 8121   2.283   2.638   4.133  1.4310 -0.6108 -1.8268
   85SLPC  H16S 8122   2.317   2.766   4.244  1.8198  0.1965  0.5216
   85SLPC  C217 8123   2.500   2.707   4.168  0.2715  0.5299  0.4141
   85SLPC  H17R 8124   2.549   2.659   4.081  0.9333  2.8741 -0.5703
   85SLPC  H17S 8125   2.507   2.642   4.259  1.2751  2.1037  1.5138
   85SLPC  C218 8126   2.581   2.839   4.203  1.2674 -0.0032  0.1740
   85SLPC  H18R 8127   2.551   2.875   4.303  2.6351 -0.2032  0.6833
   85SLPC  H18S 8128   2.561   2.916   4.126 -0.0423 -1.6466 -1.2442
   85SLPC  H18T 8129   2.690   2.817   4.203  1.1387 -0.7249 -0.7006
   85SLPC   C33 8130   1.765   2.597   2.943 -0.2429  0.1126  0.3274
   85SLPC   H3X 8131   1.698   2.685   2.938 -1.1258 -0.6218 -1.7321
   85SLPC   H3Y 8132   1.869   2.623   2.972 -0.1628 -1.5879  1.7426
   85SLPC   C34 8133   1.711   2.524   3.066 -0.0362  0.2655 -0.5156
   85SLPC   H4X 8134   1.768   2.432   3.093 -1.6154 -0.3676  0.7881
   85SLPC   H4Y 8135   1.617   2.482   3.025  1.2736  0.2065 -3.7853
   85SLPC   C35 8136   1.703   2.611   3.194  0.3223 -0.5339 -0.2479
   85SLPC   H5X 8137   1.631   2.694   3.177 -0.2006 -0.2832  2.6438
   85SLPC   H5Y 8138   1.803   2.640   3.232 -0.7028  0.0360  2.2288
   85SLPC   C36 8139   1.630   2.527   3.295  0.4032 -0.1435 -0.8159
   85SLPC   H6X 8140   1.702   2.448   3.327  1.1201  0.6307 -0.4526
   85SLPC   H6Y 8141   1.548   2.477   3.241  0.2435 -1.2970  0.4349
   85SLPC   C37 8142   1.583   2.613   3.416 -0.1048  0.0237 -0.4758
   85SLPC   H7X 8143   1.494   2.669   3.380  0.0280 -1.4900 -3.4701
   85SLPC   H7Y 8144   1.658   2.691   3.443 -1.6573  1.1236  0.8498
   85SLPC   C38 8145   1.540   2.525   3.540 -0.7439 -0.3719  0.6320
   85SLPC   H8X 8146   1.613   2.442   3.549 -0.6798 -0.3254  0.5436
   85SLPC   H8Y 8147   1.447   2.474   3.507 -0.3354 -0.6321 -0.1578
   85SLPC   C39 8148   1.517   2.610   3.671 -0.3546 -0.4683 -0.5206
   85SLPC   H9X 8149   1.427   2.672   3.650 -0.3756  0.7296  2.6186
   85SLPC   H9Y 8150   1.597   2.687   3.671 -1.1472  0.4067 -1.7681
   85SLPC  C310 8151   1.504   2.534   3.804 -0.4256 -0.5488 -0.2256
   85SLPC  H10X 8152   1.608   2.502   3.828  0.9761  2.4439 -1.7311
   85SLPC  H10Y 8153   1.442   2.444   3.785  0.0429 -1.0138  0.4478
   85SLPC  C311 8154   1.445   2.620   3.912 -0.1251 -0.4198 -0.3377
   85SLPC  H11X 8155   1.403   2.560   3.995 -0.0082 -1.8505 -1.2901
   85SLPC  H11Y 8156   1.351   2.661   3.868 -0.1249 -1.1180 -1.0019
   85SLPC  C312 8157   1.527   2.732   3.976  0.4572  0.2062 -0.1537
   85SLPC  H12X 8158   1.468   2.792   4.048 -2.1352  0.2607 -2.1558
   85SLPC  H12Y 8159   1.576   2.800   3.903  3.0405 -1.2746  0.0876
   85SLPC  C313 8160   1.629   2.669   4.069 -0.8771  0.2867 -0.4954
   85SLPC  H13X 8161   1.678   2.578   4.028 -1.2506 -0.8501  1.4647
   85SLPC  H13Y 8162   1.576   2.647   4.164 -1.7262  0.2186 -0.9816
   85SLPC  C314 8163   1.740   2.773   4.100  0.6766  0.1384  0.0422
   85SLPC  H14X 8164   1.809   2.808   4.021 -0.3861  1.2771 -0.3969
   85SLPC  H14Y 8165   1.819   2.716   4.155  0.9608  2.6396  2.4727
   85SLPC  C315 8166   1.702   2.898   4.171 -0.3398 -0.0563  0.3464
   85SLPC  H15X 8167   1.680   2.857   4.272 -0.5240 -0.6751  0.0584
   85SLPC  H15Y 8168   1.615   2.953   4.129 -0.2847 -0.4239 -0.2662
   85SLPC  C316 8169   1.826   3.001   4.171  0.4156  0.3283 -0.0166
   85SLPC  H16X 8170   1.924   2.948   4.169  0.6362  0.7524 -0.7261
   85SLPC  H16Y 8171   1.828   3.069   4.259  0.6713  1.2518 -0.7294
   85SLPC  C317 8172   1.818   3.096   4.050 -0.4919  0.3043 -0.2824
   85SLPC  H17X 8173   1.721   3.150   4.052 -0.2557  0.7153  0.6398
   85SLPC  H17Y 8174   1.827   3.032   3.960 -1.9434  0.1266 -0.3341
   85SLPC  C318 8175   1.935   3.196   4.055  0.0315 -0.3871 -0.2711
   85SLPC  H18X 8176   2.034   3.147   4.045  1.2103  1.9376 -0.7310
   85SLPC  H18Y 8177   1.932   3.250   4.152 -0.2500 -2.0390  0.6755
   85SLPC  H18Z 8178   1.911   3.281   3.988 -3.1110 -0.0176  1.1399
   86SLPC     N 8179   2.026   1.687   2.158  0.5225 -0.4150 -0.3999
   86SLPC   C13 8180   2.071   1.812   2.221 -0.3937 -0.0942  0.4824
   86SLPC  H13A 8181   2.150   1.865   2.170 -1.9561  0.8939 -1.0339
   86SLPC  H13B 8182   1.984   1.875   2.230 -0.8480 -0.6611  0.0703
   86SLPC  H13C 8183   2.105   1.806   2.323 -3.6806 -2.0900  1.6133
   86SLPC   C14 8184   2.119   1.578   2.202  0.2601 -0.6892  0.0682
   86SLPC  H14A 8185   2.221   1.613   2.204  0.5243 -1.3619 -0.7577
   86SLPC  H14B 8186   2.086   1.540   2.297 -0.5695  0.4911  0.2704
   86SLPC  H14C 8187   2.119   1.492   2.136  1.4549 -0.4377 -0.2775
   86SLPC   C15 8188   2.043   1.702   2.013 -0.5053 -0.0659  0.4872
   86SLPC  H15A 8189   1.979   1.778   1.971  1.7274  1.5354 -0.2365
   86SLPC  H15B 8190   2.148   1.721   1.995 -0.3812 -1.1723 -0.0499
   86SLPC  H15C 8191   2.023   1.608   1.964  0.8468  0.2572 -0.7469
   86SLPC   C12 8192   1.889   1.646   2.192  0.8559  0.5591 -0.3946
   86SLPC  H12A 8193   1.897   1.618   2.296 -0.4402 -0.6956 -0.5992
   86SLPC  H12B 8194   1.859   1.556   2.140 -1.7968  0.9743  0.2824
   86SLPC   C11 8195   1.766   1.737   2.174  0.3471  0.4981 -0.2687
   86SLPC  H11A 8196   1.682   1.666   2.188  1.9966 -1.9093 -1.7756
   86SLPC  H11B 8197   1.768   1.779   2.071  1.5647  0.0565 -0.4528
   86SLPC     P 8198   1.748   1.990   2.258  0.6545 -0.0577  0.0276
   86SLPC   O13 8199   1.794   2.064   2.380  0.3681 -0.5814  0.0370
   86SLPC   O14 8200   1.806   2.033   2.130 -0.2311  0.1069 -0.0888
   86SLPC   O12 8201   1.769   1.831   2.278  0.2773 -0.0533 -0.1533
   86SLPC   O11 8202   1.589   2.014   2.260 -0.9168 -0.5837  0.8155
   86SLPC    C1 8203   1.507   1.918   2.338 -0.2134  0.6620 -0.1454
   86SLPC    HA 8204   1.412   1.915   2.280  0.3537 -1.1097 -1.0374
   86SLPC    HB 8205   1.547   1.815   2.340  0.3307  0.8409 -0.9329
   86SLPC    C2 8206   1.486   1.979   2.478 -0.0571  0.4951 -0.3675
   86SLPC    HS 8207   1.468   2.087   2.462  2.1973  1.0114  0.2891
   86SLPC   O21 8208   1.605   1.961   2.564 -0.2273  0.8332  0.0694
   86SLPC   C21 8209   1.616   2.063   2.657 -0.3463 -0.1420  0.7102
   86SLPC   O22 8210   1.564   2.169   2.653  0.6630 -0.3110  0.5865
   86SLPC   C22 8211   1.690   2.015   2.775 -0.0623 -0.3115 -0.0707
   86SLPC   H2R 8212   1.724   1.910   2.756 -1.4715 -0.7448 -0.3814
   86SLPC   H2S 8213   1.782   2.074   2.792  0.8225 -1.2668 -1.3215
   86SLPC    C3 8214   1.364   1.911   2.540  0.8220  0.3565  0.6832
   86SLPC    HX 8215   1.383   1.801   2.548 -1.4098 -0.1008  0.3311
   86SLPC    HY 8216   1.282   1.910   2.465  1.0180 -0.9264  0.4508
   86SLPC   O31 8217   1.324   1.974   2.661 -0.2917 -0.1707 -0.1722
   86SLPC   C31 8218   1.228   2.063   2.653  0.3813  0.1379 -0.1063
   86SLPC   O32 8219   1.174   2.102   2.551  0.5683  0.1096 -0.7156
   86SLPC   C32 8220   1.202   2.133   2.791 -0.1609 -0.5849  0.4040
   86SLPC   H2X 8221   1.263   2.226   2.788  0.3175 -0.9059 -1.4817
   86SLPC   H2Y 8222   1.233   2.065   2.874  2.6069 -0.0136 -0.0380
   86SLPC   C23 8223   1.607   2.025   2.903 -0.8963 -0.0393 -0.5511
   86SLPC   H3R 8224   1.666   1.963   2.974 -2.2195  1.4181  1.9783
   86SLPC   H3S 8225   1.512   1.968   2.912  0.8730 -3.2508 -0.8898
   86SLPC   C24 8226   1.573   2.166   2.961  0.1446 -0.0676 -0.4664
   86SLPC   H4R 8227   1.515   2.231   2.892 -0.5300 -0.6743 -0.4838
   86SLPC   H4S 8228   1.667   2.224   2.971 -0.7887  1.2093  1.3587
   86SLPC   C25 8229   1.494   2.154   3.089  0.0329  0.3614 -0.4387
   86SLPC   H5R 8230   1.397   2.104   3.070  1.3404 -2.0149 -1.2669
   86SLPC   H5S 8231   1.476   2.254   3.135 -1.0114  0.2306 -0.5508
   86SLPC   C26 8232   1.561   2.067   3.201 -0.3245 -0.2767  0.0339
   86SLPC   H6R 8233   1.671   2.080   3.208 -0.2397  0.0473 -1.5760
   86SLPC   H6S 8234   1.531   1.964   3.173 -0.0250  0.1539 -2.0558
   86SLPC   C27 8235   1.493   2.113   3.340 -0.2678 -0.1124  0.2222
   86SLPC   H7R 8236   1.384   2.097   3.324 -0.4814  2.2949 -1.3002
   86SLPC   H7S 8237   1.504   2.224   3.347  1.4095 -0.3426  1.9467
   86SLPC   C28 8238   1.548   2.036   3.464  0.8013 -0.5821 -0.3034
   86SLPC   H8R 8239   1.636   2.092   3.503 -0.2946  1.1505 -0.2150
   86SLPC   H8S 8240   1.584   1.940   3.420  0.8130 -0.0373 -1.5170
   86SLPC   C29 8241   1.450   2.009   3.572 -0.3794  0.7228 -0.2021
   86SLPC   H9R 8242   1.368   1.941   3.545 -0.9783  0.7133  1.4984
   86SLPC  C210 8243   1.450   2.059   3.699 -0.3651 -0.2048  0.0138
   86SLPC  H10R 8244   1.375   2.039   3.776 -0.1082  0.1179  0.3488
   86SLPC  C211 8245   1.563   2.141   3.759 -0.5775 -0.1167  0.1565
   86SLPC  H11R 8246   1.571   2.234   3.699  2.2175 -1.2263 -1.3486
   86SLPC  H11S 8247   1.659   2.087   3.748 -0.1436  0.8782 -1.1848
   86SLPC  C212 8248   1.552   2.185   3.909 -0.7936 -0.2481  0.5302
   86SLPC  H12R 8249   1.474   2.261   3.927  0.9891  1.3508  2.0741
   86SLPC  C213 8250   1.609   2.119   4.014 -0.4190 -0.7169  0.3666
   86SLPC  H13R 8251   1.590   2.172   4.109  0.1456 -1.8526  1.1390
   86SLPC  C214 8252   1.699   1.992   4.015  0.2655  0.1931 -0.5634
   86SLPC  H14R 8253   1.778   2.005   4.092  0.3790  0.4572 -0.7200
   86SLPC  H14S 8254   1.750   1.989   3.916 -1.0844  1.7255 -1.3526
   86SLPC  C215 8255   1.620   1.857   4.042 -0.5899 -0.5047  0.4453
   86SLPC  H15R 8256   1.592   1.849   4.149 -0.5945  0.2369  0.5086
   86SLPC  H15S 8257   1.691   1.774   4.021 -0.4996 -0.6478  1.2716
   86SLPC  C216 8258   1.500   1.834   3.951  0.2422  0.2058  0.1349
   86SLPC  H16R 8259   1.534   1.853   3.846 -0.2518 -1.7963 -0.4304
   86SLPC  H16S 8260   1.424   1.909   3.981 -0.0038  1.0542 -2.3427
   86SLPC  C217 8261   1.449   1.693   3.978  0.7690  0.0989 -0.1270
   86SLPC  H17R 8262   1.402   1.690   4.078 -0.1537  1.0585 -0.5092
   86SLPC  H17S 8263   1.529   1.616   3.974 -0.9433 -1.7199 -1.4211
   86SLPC  C218 8264   1.343   1.662   3.878 -0.0037 -0.5362  0.9437
   86SLPC  H18R 8265   1.279   1.753   3.882  0.3152 -0.3285  1.4087
   86SLPC  H18S 8266   1.280   1.579   3.915 -2.0643  1.1493  1.4363
   86SLPC  H18T 8267   1.372   1.655   3.771 -3.4816  0.2147 -0.1984
   86SLPC   C33 8268   1.048   2.166   2.812 -0.1594 -0.3594  0.3552
   86SLPC   H3X 8269   0.974   2.084   2.806 -0.9961  0.4572 -1.3229
   86SLPC   H3Y 8270   1.029   2.243   2.735 -0.1014 -1.8794 -1.2388
   86SLPC   C34 8271   1.023   2.248   2.942 -0.0684  0.2708 -0.3419
   86SLPC   H4X 8272   0.919   2.281   2.963 -0.2726 -0.0144 -0.8807
   86SLPC   H4Y 8273   1.073   2.340   2.905  1.1573  0.6062  1.9998
   86SLPC   C35 8274   1.087   2.193   3.069  0.8012  0.2064  0.4394
   86SLPC   H5X 8275   1.195   2.170   3.061  0.7765  0.0905  0.4402
   86SLPC   H5Y 8276   1.033   2.099   3.091 -3.0153  1.7173 -1.4678
   86SLPC   C36 8277   1.062   2.283   3.197 -0.3265  0.8464  0.1643
   86SLPC   H6X 8278   0.958   2.275   3.237 -0.2098  0.3994  0.3820
   86SLPC   H6Y 8279   1.068   2.386   3.154 -1.3278  0.4320 -1.0437
   86SLPC   C37 8280   1.162   2.256   3.314  0.2392  0.0382  0.4040
   86SLPC   H7X 8281   1.263   2.284   3.279 -1.3739  3.0147 -2.4007
   86SLPC   H7Y 8282   1.161   2.147   3.338 -2.6744 -0.9154 -3.1933
   86SLPC   C38 8283   1.139   2.342   3.440  0.2554 -0.7704  0.4802
   86SLPC   H8X 8284   1.030   2.336   3.462 -0.3024  2.6170 -0.6915
   86SLPC   H8Y 8285   1.176   2.442   3.410 -0.7317 -0.8983 -1.2698
   86SLPC   C39 8286   1.216   2.294   3.566 -0.1752 -0.1430  0.7061
   86SLPC   H9X 8287   1.324   2.311   3.546  0.0310 -1.3818  0.6696
   86SLPC   H9Y 8288   1.198   2.185   3.562  0.2761 -0.2845  2.0229
   86SLPC  C310 8289   1.169   2.355   3.691  0.6287  0.5753 -1.1349
   86SLPC  H10X 8290   1.137   2.462   3.690  2.8490  1.3742  1.6849
   86SLPC  H10Y 8291   1.256   2.346   3.759  0.9475  1.1563 -1.4490
   86SLPC  C311 8292   1.059   2.272   3.770 -0.0460  0.4066  0.4678
   86SLPC  H11X 8293   1.072   2.162   3.761 -0.9887  0.1984  1.4504
   86SLPC  H11Y 8294   0.963   2.305   3.723 -0.0713  1.1022  0.9937
   86SLPC  C312 8295   1.049   2.310   3.920  0.4252  0.1521  0.1752
   86SLPC  H12X 8296   1.047   2.420   3.931  1.6860  0.3240 -1.1014
   86SLPC  H12Y 8297   1.145   2.290   3.974  2.3766 -0.2951 -3.1469
   86SLPC  C313 8298   0.945   2.230   4.004 -0.4866 -0.4271  0.1725
   86SLPC  H13X 8299   0.989   2.128   4.008  0.8338  0.1276  0.2984
   86SLPC  H13Y 8300   0.848   2.226   3.950 -0.0081  0.4275 -0.7907
   86SLPC  C314 8301   0.928   2.296   4.139 -0.6418 -0.4058  0.5133
   86SLPC  H14X 8302   0.891   2.400   4.127  0.0754 -0.2880 -0.9386
   86SLPC  H14Y 8303   1.026   2.294   4.191 -0.6595  0.6582  0.6070
   86SLPC  C315 8304   0.830   2.224   4.230  0.5082 -0.2183 -0.2264
   86SLPC  H15X 8305   0.856   2.119   4.252 -3.2756 -0.8576  2.0134
   86SLPC  H15Y 8306   0.733   2.217   4.177  0.6064 -0.9989 -0.3071
   86SLPC  C316 8307   0.802   2.305   4.358 -0.0745  0.6247 -0.8636
   86SLPC  H16X 8308   0.754   2.401   4.328 -0.1296  0.8681 -0.0165
   86SLPC  H16Y 8309   0.903   2.317   4.403  1.6044  0.6945 -4.3064
   86SLPC  C317 8310   0.714   2.255   4.477  0.2504  0.2144 -0.1817
   86SLPC  H17X 8311   0.616   2.215   4.443  1.1482 -2.6955  0.4096
   86SLPC  H17Y 8312   0.687   2.341   4.542  0.9544  0.7211 -0.5468
   86SLPC  C318 8313   0.777   2.143   4.552 -0.1831  0.1725  0.7217
   86SLPC  H18X 8314   0.853   2.086   4.495 -0.3750  2.1424 -1.7054
   86SLPC  H18Y 8315   0.697   2.079   4.594 -2.9464  0.6984 -3.1925
   86SLPC  H18Z 8316   0.842   2.194   4.627  0.0347  0.5242  0.3032
   87SLPC     N 8317   5.633   5.034   2.021  0.0053  0.1278 -0.1227
   87SLPC   C13 8318   5.714   5.005   1.901 -0.6584 -0.3387 -0.1562
   87SLPC  H13A 8319   5.800   4.946   1.930 -2.4188 -3.0038 -0.0760
   87SLPC  H13B 8320   5.652   4.947   1.835  0.0585 -0.2678 -0.9080
   87SLPC  H13C 8321   5.750   5.093   1.848  0.7308 -0.8397 -0.0862
   87SLPC   C14 8322   5.500   5.077   1.982  0.1588  0.3876  0.4531
   87SLPC  H14A 8323   5.500   5.162   1.916  2.8751 -0.9390 -1.4433
   87SLPC  H14B 8324   5.451   4.995   1.932  1.0748 -1.3253  2.1773
   87SLPC  H14C 8325   5.440   5.099   2.069 -0.4895 -1.4424  0.5076
   87SLPC   C15 8326   5.710   5.145   2.095  0.3745  0.0482 -0.4669
   87SLPC  H15A 8327   5.810   5.105   2.109 -0.3908 -1.4216  1.2052
   87SLPC  H15B 8328   5.717   5.237   2.040 -0.6113  0.4736  0.1017
   87SLPC  H15C 8329   5.660   5.170   2.187  0.0428 -1.5979 -0.1573
   87SLPC   C12 8330   5.614   4.906   2.107  0.2745  0.2886 -0.3992
   87SLPC  H12A 8331   5.709   4.855   2.109  0.6845  0.9823 -1.6138
   87SLPC  H12B 8332   5.539   4.846   2.058 -0.5071  1.1786 -0.3249
   87SLPC   C11 8333   5.578   4.921   2.257  0.1522  0.6068  0.1408
   87SLPC  H11A 8334   5.651   4.987   2.308  0.5277  1.8438 -1.8788
   87SLPC  H11B 8335   5.590   4.819   2.298  1.8173  0.6633 -0.1360
   87SLPC     P 8336   5.315   4.898   2.250 -0.0622  0.3716  0.3107
   87SLPC   O13 8337   5.199   4.969   2.303  0.2095 -0.7666  0.2816
   87SLPC   O14 8338   5.311   4.860   2.110  0.0075 -0.2309  0.8679
   87SLPC   O12 8339   5.446   4.971   2.275  0.0553  0.0826  0.7734
   87SLPC   O11 8340   5.339   4.767   2.334 -0.0911 -0.2720  0.3583
   87SLPC    C1 8341   5.371   4.769   2.477  0.3662 -0.3900  0.1676
   87SLPC    HA 8342   5.418   4.672   2.506  1.8902  0.5409  0.9537
   87SLPC    HB 8343   5.448   4.844   2.507  1.5241 -1.6286  0.4062
   87SLPC    C2 8344   5.237   4.793   2.560  0.1496  0.4647  0.0733
   87SLPC    HS 8345   5.182   4.880   2.517  0.1275  0.7168  0.6066
   87SLPC   O21 8346   5.279   4.809   2.692 -0.0412  0.6071 -0.3272
   87SLPC   C21 8347   5.307   4.934   2.734  0.1829 -0.1998  0.5264
   87SLPC   O22 8348   5.296   5.036   2.667 -0.0480 -0.1433 -0.9757
   87SLPC   C22 8349   5.360   4.924   2.874 -0.9455 -0.2567  0.6007
   87SLPC   H2R 8350   5.453   4.862   2.873  0.0030  1.1151 -0.8836
   87SLPC   H2S 8351   5.393   5.026   2.902 -0.2890 -0.4034  0.3790
   87SLPC    C3 8352   5.150   4.665   2.552 -0.1247 -0.1766  0.1433
   87SLPC    HX 8353   5.138   4.639   2.444  0.1643 -2.2301  0.5663
   87SLPC    HY 8354   5.054   4.691   2.600  0.1205  2.0226 -0.4419
   87SLPC   O31 8355   5.220   4.556   2.613  0.3125  0.2060 -0.2574
   87SLPC   C31 8356   5.184   4.514   2.733  0.5475 -0.4339  0.0476
   87SLPC   O32 8357   5.101   4.572   2.797 -0.2966  0.4756 -0.3733
   87SLPC   C32 8358   5.255   4.383   2.779  0.3264 -0.3329 -0.4810
   87SLPC   H2X 8359   5.359   4.408   2.809  0.2638  0.8413 -1.1908
   87SLPC   H2Y 8360   5.241   4.314   2.693 -0.2929  0.6491 -1.1851
   87SLPC   C23 8361   5.268   4.883   2.992 -0.4256 -0.4123 -0.8623
   87SLPC   H3R 8362   5.218   4.788   2.965  0.1544 -0.9080 -0.2226
   87SLPC   H3S 8363   5.190   4.961   3.006 -1.3438 -1.2358 -1.2176
   87SLPC   C24 8364   5.336   4.872   3.130 -0.6275  0.0869  0.4590
   87SLPC   H4R 8365   5.367   4.970   3.172  0.8473  0.8273 -2.0840
   87SLPC   H4S 8366   5.432   4.824   3.101 -0.1260 -0.3391  2.6622
   87SLPC   C25 8367   5.259   4.782   3.228  0.0781  0.0742 -0.1570
   87SLPC   H5R 8368   5.232   4.681   3.188 -0.8737 -0.2404  1.2197
   87SLPC   H5S 8369   5.156   4.823   3.235 -0.3654 -1.0548  0.3077
   87SLPC   C26 8370   5.327   4.752   3.363 -0.9360 -0.1977  0.3241
   87SLPC   H6R 8371   5.436   4.741   3.344 -0.8933 -0.4461  0.6906
   87SLPC   H6S 8372   5.283   4.655   3.393 -4.1230  0.3634 -1.9744
   87SLPC   C27 8373   5.291   4.856   3.470  0.0364  0.2750 -0.7263
   87SLPC   H7R 8374   5.185   4.832   3.494  0.4044 -0.7152 -0.0307
   87SLPC   H7S 8375   5.312   4.956   3.425  2.0981  0.2172  0.0212
   87SLPC   C28 8376   5.392   4.836   3.585 -0.1580 -0.4303  0.3211
   87SLPC   H8R 8377   5.495   4.836   3.545  0.2226 -1.1651  1.2537
   87SLPC   H8S 8378   5.387   4.732   3.623 -0.2883  0.8180  4.2360
   87SLPC   C29 8379   5.386   4.934   3.703  0.0968  0.2480 -0.5435
   87SLPC   H9R 8380   5.374   5.040   3.675  0.6119 -0.2340 -2.7116
   87SLPC  C210 8381   5.375   4.903   3.836 -0.2612  0.3347 -0.4290
   87SLPC  H10R 8382   5.367   4.984   3.910  0.1664 -1.7028  1.9505
   87SLPC  C211 8383   5.385   4.764   3.899  0.2689  0.4316 -0.6718
   87SLPC  H11R 8384   5.458   4.763   3.983  0.2737  1.9230 -0.6321
   87SLPC  H11S 8385   5.414   4.680   3.832  0.4363 -1.4312  1.6015
   87SLPC  C212 8386   5.248   4.736   3.948  0.6501 -0.4608  0.0526
   87SLPC  H12R 8387   5.177   4.705   3.869  1.5572 -1.5808 -0.3465
   87SLPC  C213 8388   5.202   4.750   4.073  0.1636  0.4721  0.0846
   87SLPC  H13R 8389   5.097   4.719   4.083  0.4844 -1.8062 -2.4162
   87SLPC  C214 8390   5.278   4.791   4.197  0.3154  0.1171 -0.3640
   87SLPC  H14R 8391   5.218   4.857   4.263 -1.5109 -1.7305 -0.0798
   87SLPC  H14S 8392   5.374   4.841   4.173  1.8417 -1.5581  1.8587
   87SLPC  C215 8393   5.322   4.672   4.283 -0.2095 -0.5836 -0.2958
   87SLPC  H15R 8394   5.368   4.701   4.380 -0.6499  1.7560 -0.7259
   87SLPC  H15S 8395   5.391   4.606   4.226  0.3538 -0.8797  0.7101
   87SLPC  C216 8396   5.207   4.580   4.310  0.3590 -0.7616  0.3181
   87SLPC  H16R 8397   5.253   4.493   4.362  0.6090 -1.2298 -0.6556
   87SLPC  H16S 8398   5.169   4.532   4.217  1.0292 -2.2864  0.7896
   87SLPC  C217 8399   5.082   4.630   4.384 -0.8171  0.1777 -0.9504
   87SLPC  H17R 8400   4.997   4.560   4.368  0.8903 -2.6282  1.2789
   87SLPC  H17S 8401   5.046   4.732   4.359  1.9862  1.4744 -0.1155
   87SLPC  C218 8402   5.122   4.632   4.536 -0.0586  0.1057 -0.5252
   87SLPC  H18R 8403   5.037   4.680   4.590  1.4317  2.4883 -0.1512
   87SLPC  H18S 8404   5.208   4.702   4.541  1.3221 -1.5303 -0.7740
   87SLPC  H18T 8405   5.138   4.529   4.574  1.4998  0.5822  0.2058
   87SLPC   C33 8406   5.204   4.312   2.914  0.9226 -0.6858  0.8230
   87SLPC   H3X 8407   5.235   4.206   2.903 -0.5755 -0.8755 -2.9856
   87SLPC   H3Y 8408   5.093   4.321   2.911  0.9346  2.0196  3.4348
   87SLPC   C34 8409   5.269   4.376   3.038 -0.1152  0.1136 -0.0570
   87SLPC   H4X 8410   5.209   4.466   3.063  1.5488  1.3987 -0.5150
   87SLPC   H4Y 8411   5.370   4.417   3.023 -0.2286  1.0030  1.4476
   87SLPC   C35 8412   5.265   4.278   3.159  0.0560  0.2930  0.7489
   87SLPC   H5X 8413   5.321   4.182   3.152 -0.3573 -0.0117  1.4799
   87SLPC   H5Y 8414   5.159   4.251   3.180 -0.0798 -0.1426 -0.4293
   87SLPC   C36 8415   5.310   4.356   3.282 -0.4055  0.0226  1.1342
   87SLPC   H6X 8416   5.246   4.448   3.282 -0.5702 -0.0893  0.4255
   87SLPC   H6Y 8417   5.413   4.389   3.256 -0.3540 -2.8034 -3.2129
   87SLPC   C37 8418   5.323   4.280   3.413 -0.0039 -0.7248 -0.0446
   87SLPC   H7X 8419   5.403   4.204   3.397  0.8425  0.4055 -1.4159
   87SLPC   H7Y 8420   5.232   4.229   3.452  0.5019 -0.1331  2.0709
   87SLPC   C38 8421   5.363   4.378   3.533  0.1819 -0.5620 -0.0250
   87SLPC   H8X 8422   5.277   4.445   3.555 -2.1502 -2.8720 -1.5833
   87SLPC   H8Y 8423   5.454   4.433   3.501  0.6930 -2.3282 -1.7598
   87SLPC   C39 8424   5.403   4.293   3.658  0.7358  0.3445  0.2912
   87SLPC   H9X 8425   5.444   4.194   3.631  3.6512  0.7790  2.6610
   87SLPC   H9Y 8426   5.309   4.268   3.712  1.4476 -2.3766  0.4149
   87SLPC  C310 8427   5.486   4.369   3.760 -0.2901  0.4664 -0.3474
   87SLPC  H10X 8428   5.446   4.470   3.783 -1.8653 -0.1621 -0.2173
   87SLPC  H10Y 8429   5.593   4.371   3.728  0.2002 -3.2095  0.5526
   87SLPC  C311 8430   5.487   4.294   3.897 -0.0042  0.0937 -0.0436
   87SLPC  H11X 8431   5.537   4.197   3.879 -1.6722 -0.4453 -2.2362
   87SLPC  H11Y 8432   5.383   4.269   3.925  0.3100  0.2980  1.3830
   87SLPC  C312 8433   5.544   4.364   4.018  0.6813 -0.5582  0.0824
   87SLPC  H12X 8434   5.494   4.463   4.026 -0.5740 -1.0817 -0.9271
   87SLPC  H12Y 8435   5.651   4.383   3.995  0.6646  1.6902  1.5718
   87SLPC  C313 8436   5.545   4.289   4.152 -0.1659  0.0733 -0.0082
   87SLPC  H13X 8437   5.581   4.185   4.142  1.1259  0.5573 -0.6643
   87SLPC  H13Y 8438   5.439   4.287   4.186 -0.6754  2.5236 -1.1870
   87SLPC  C314 8439   5.654   4.343   4.253 -0.0564  0.0222 -0.3034
   87SLPC  H14X 8440   5.663   4.452   4.229  0.4874 -0.2930 -1.6351
   87SLPC  H14Y 8441   5.753   4.310   4.216  0.3929 -0.6325  1.3952
   87SLPC  C315 8442   5.627   4.318   4.398 -0.6341 -0.2936  0.6193
   87SLPC  H15X 8443   5.577   4.219   4.407 -0.2711 -0.4154  1.3740
   87SLPC  H15Y 8444   5.554   4.399   4.420  0.0701  1.1675 -1.9827
   87SLPC  C316 8445   5.742   4.338   4.495 -0.5317 -0.7056 -0.4620
   87SLPC  H16X 8446   5.793   4.436   4.481 -0.3159 -0.6145  0.7905
   87SLPC  H16Y 8447   5.809   4.250   4.483 -0.1815 -0.3643 -1.0447
   87SLPC  C317 8448   5.697   4.344   4.639  0.5156 -0.0018 -0.8515
   87SLPC  H17X 8449   5.621   4.265   4.659  3.1354 -2.1017  1.6670
   87SLPC  H17Y 8450   5.644   4.442   4.645 -2.4171 -1.5620  0.6813
   87SLPC  C318 8451   5.818   4.326   4.738 -0.2672 -0.2744  0.0074
   87SLPC  H18X 8452   5.785   4.327   4.844  0.7041 -1.2641  0.3334
   87SLPC  H18Y 8453   5.889   4.410   4.720 -0.6084  0.3598  1.4852
   87SLPC  H18Z 8454   5.866   4.230   4.712 -2.9050 -1.4872 -0.7729
   88SLPC     N 8455   2.413   6.714   1.939 -0.0810  0.1267  0.4659
   88SLPC   C13 8456   2.530   6.747   1.847 -0.1483  0.4039  0.3528
   88SLPC  H13A 8457   2.623   6.726   1.897  0.0933 -0.7928 -0.5445
   88SLPC  H13B 8458   2.536   6.688   1.756 -1.0605  0.5460  0.1917
   88SLPC  H13C 8459   2.530   6.850   1.816  2.3355  1.0161  2.1219
   88SLPC   C14 8460   2.404   6.564   1.950  0.1178 -0.2965 -0.3623
   88SLPC  H14A 8461   2.325   6.533   2.017  0.5312 -1.3268 -0.3280
   88SLPC  H14B 8462   2.382   6.526   1.851 -0.0915  1.1722 -0.8914
   88SLPC  H14C 8463   2.497   6.525   1.989  1.5263  3.3939  0.4026
   88SLPC   C15 8464   2.282   6.770   1.895 -0.0848  0.1672 -0.7533
   88SLPC  H15A 8465   2.289   6.878   1.888  0.0616  0.2221  0.2276
   88SLPC  H15B 8466   2.249   6.730   1.800  0.1320 -2.6086  0.2722
   88SLPC  H15C 8467   2.198   6.742   1.955  1.6248  0.3734  1.8846
   88SLPC   C12 8468   2.443   6.768   2.074 -0.5419 -0.4519 -0.1917
   88SLPC  H12A 8469   2.361   6.730   2.132 -1.2877  1.1805 -0.1338
   88SLPC  H12B 8470   2.437   6.875   2.062  0.0648 -0.3292  0.5703
   88SLPC   C11 8471   2.578   6.743   2.149  0.4148  0.1831  0.4116
   88SLPC  H11A 8472   2.589   6.633   2.161 -1.7298 -0.0973  0.1718
   88SLPC  H11B 8473   2.582   6.775   2.255  0.5126  1.7172 -0.0307
   88SLPC     P 8474   2.772   6.914   2.112 -0.5418  0.0493  0.1801
   88SLPC   O13 8475   2.888   6.930   2.017 -0.0995  0.3496 -0.4147
   88SLPC   O14 8476   2.674   7.021   2.117  0.2322  0.0078  0.2447
   88SLPC   O12 8477   2.691   6.787   2.081  0.3756  0.0693  0.2818
   88SLPC   O11 8478   2.830   6.908   2.260  0.4998 -0.1066 -0.5416
   88SLPC    C1 8479   2.874   6.779   2.306 -0.2840  0.4756  0.1284
   88SLPC    HA 8480   2.788   6.711   2.327  0.7057 -0.3666  1.6411
   88SLPC    HB 8481   2.948   6.731   2.238  1.3744  0.4191  1.8990
   88SLPC    C2 8482   2.945   6.805   2.445 -0.3697 -0.1250  0.6657
   88SLPC    HS 8483   3.007   6.716   2.468 -0.9863 -0.1481  2.4374
   88SLPC   O21 8484   2.847   6.825   2.552  0.0915  0.0183  0.6607
   88SLPC   C21 8485   2.886   6.794   2.675 -0.4493  0.3011  0.4180
   88SLPC   O22 8486   2.977   6.716   2.705  0.2742  1.1237 -0.2556
   88SLPC   C22 8487   2.804   6.865   2.788 -0.2005  0.0986 -0.0422
   88SLPC   H2R 8488   2.802   6.973   2.764 -0.3035  0.5635  1.8980
   88SLPC   H2S 8489   2.707   6.811   2.783  0.9815 -2.0324 -1.2354
   88SLPC    C3 8490   3.036   6.932   2.431 -0.0948  0.1157 -0.8913
   88SLPC    HX 8491   2.972   7.023   2.437 -0.9351 -0.3042 -2.8886
   88SLPC    HY 8492   3.084   6.928   2.331  0.9582 -0.2309 -0.3906
   88SLPC   O31 8493   3.128   6.934   2.543 -0.1159 -0.4803 -0.3300
   88SLPC   C31 8494   3.259   6.908   2.520 -1.2846  0.9652 -0.1134
   88SLPC   O32 8495   3.312   6.882   2.416 -0.1799  0.0943  0.3790
   88SLPC   C32 8496   3.336   6.922   2.656  0.0837  0.2549  0.4029
   88SLPC   H2X 8497   3.329   7.032   2.668 -0.0446  0.3095 -0.1410
   88SLPC   H2Y 8498   3.437   6.882   2.635 -0.3486 -1.7885  1.9917
   88SLPC   C23 8499   2.877   6.835   2.933 -0.0445 -0.2654  0.0894
   88SLPC   H3R 8500   2.977   6.884   2.935  0.2825 -0.8733 -0.8926
   88SLPC   H3S 8501   2.891   6.725   2.936 -0.2129 -0.2831  2.3201
   88SLPC   C24 8502   2.797   6.892   3.047 -0.4339  0.7518 -0.2285
   88SLPC   H4R 8503   2.688   6.873   3.042 -0.4786  1.0159 -0.2980
   88SLPC   H4S 8504   2.799   7.003   3.043  0.1269  0.7323 -0.6091
   88SLPC   C25 8505   2.848   6.848   3.192 -0.2916  0.0210  0.4288
   88SLPC   H5R 8506   2.959   6.845   3.187 -0.3425 -1.4258 -0.5174
   88SLPC   H5S 8507   2.800   6.751   3.218  1.1823 -0.7255  0.4549
   88SLPC   C26 8508   2.812   6.947   3.297 -0.3125  0.2330  0.1526
   88SLPC   H6R 8509   2.705   6.928   3.317 -0.3191 -0.9424 -0.8910
   88SLPC   H6S 8510   2.808   7.052   3.261 -0.1595 -0.2811 -1.4427
   88SLPC   C27 8511   2.886   6.928   3.436 -1.2407 -0.1260  0.0872
   88SLPC   H7R 8512   2.994   6.929   3.414 -0.5951  1.5377  2.9453
   88SLPC   H7S 8513   2.851   6.833   3.482  0.6707 -1.1621 -0.5097
   88SLPC   C28 8514   2.859   7.048   3.533  0.2797  0.2941 -0.7288
   88SLPC   H8R 8515   2.748   7.059   3.536  0.3773  1.1013  0.5875
   88SLPC   H8S 8516   2.885   7.134   3.467  2.0161 -0.7017 -1.3972
   88SLPC   C29 8517   2.931   7.048   3.669  0.2477 -0.1502  0.1529
   88SLPC   H9R 8518   3.032   7.091   3.675  0.5985 -0.8893 -0.3531
   88SLPC  C210 8519   2.869   7.015   3.790  0.2109 -0.0640 -0.0692
   88SLPC  H10R 8520   2.928   7.030   3.881 -1.9033 -0.0366  1.3552
   88SLPC  C211 8521   2.721   6.980   3.816 -0.5698  0.8845 -0.2433
   88SLPC  H11R 8522   2.712   6.913   3.904  0.2720 -0.0118 -0.8112
   88SLPC  H11S 8523   2.687   6.925   3.726  0.2320  0.2334 -0.1688
   88SLPC  C212 8524   2.629   7.104   3.817  0.0138 -0.0018  0.4039
   88SLPC  H12R 8525   2.653   7.175   3.737 -0.2391  0.6764  0.9252
   88SLPC  C213 8526   2.542   7.147   3.913  0.2680 -0.5499  0.7800
   88SLPC  H13R 8527   2.484   7.238   3.895  1.7821  0.1426 -0.9611
   88SLPC  C214 8528   2.486   7.067   4.024  0.0560  0.1236  0.5636
   88SLPC  H14R 8529   2.500   6.957   4.019 -0.3107  0.0639  0.7660
   88SLPC  H14S 8530   2.376   7.084   4.030 -0.0933 -0.2284 -0.7494
   88SLPC  C215 8531   2.546   7.108   4.160  0.2188 -0.3765 -0.1943
   88SLPC  H15R 8532   2.535   7.217   4.179  3.1658 -0.2918  1.5948
   88SLPC  H15S 8533   2.655   7.089   4.156  0.3481  0.2139  0.4566
   88SLPC  C216 8534   2.485   7.022   4.268 -0.7247 -0.4654 -0.5196
   88SLPC  H16R 8535   2.513   6.915   4.254  0.4993 -0.3576  0.7913
   88SLPC  H16S 8536   2.374   7.024   4.270 -0.7374  1.4998  1.8706
   88SLPC  C217 8537   2.517   7.057   4.413  0.1581 -0.2374 -0.0726
   88SLPC  H17R 8538   2.504   7.166   4.430  0.3571 -0.1661 -0.3738
   88SLPC  H17S 8539   2.621   7.028   4.439 -0.0711 -1.0333 -0.0040
   88SLPC  C218 8540   2.426   6.998   4.519 -0.3059  0.0970 -0.1283
   88SLPC  H18R 8541   2.322   7.033   4.503 -0.1691 -0.0114 -1.3846
   88SLPC  H18S 8542   2.460   7.044   4.614  3.2202 -0.6311 -0.8760
   88SLPC  H18T 8543   2.433   6.887   4.529 -0.8224  0.2579  3.2539
   88SLPC   C33 8544   3.273   6.851   2.777  0.2987 -0.8650 -0.1756
   88SLPC   H3X 8545   3.278   6.741   2.764  0.3497 -1.2360  2.4692
   88SLPC   H3Y 8546   3.170   6.892   2.787  0.1945 -0.8023 -1.4124
   88SLPC   C34 8547   3.356   6.886   2.903  0.0796 -0.3164  0.2518
   88SLPC   H4X 8548   3.381   6.994   2.908 -1.5655  0.1056  0.0995
   88SLPC   H4Y 8549   3.449   6.826   2.890 -0.9312 -1.6782 -1.0042
   88SLPC   C35 8550   3.287   6.828   3.026 -0.1923 -0.4441  0.2269
   88SLPC   H5X 8551   3.244   6.728   3.004 -0.0680 -0.8533  1.7155
   88SLPC   H5Y 8552   3.195   6.888   3.043 -0.8268 -1.5631  0.8723
   88SLPC   C36 8553   3.374   6.829   3.151 -0.7739 -0.3078 -0.4112
   88SLPC   H6X 8554   3.434   6.922   3.161 -1.9024  0.4123 -0.2265
   88SLPC   H6Y 8555   3.450   6.748   3.145  1.1623  1.4722 -0.9057
   88SLPC   C37 8556   3.291   6.807   3.274  0.0715 -0.0801 -0.1558
   88SLPC   H7X 8557   3.258   6.702   3.290  1.9536 -0.7419 -0.3916
   88SLPC   H7Y 8558   3.207   6.880   3.272  0.4184  0.3161 -2.5251
   88SLPC   C38 8559   3.363   6.855   3.397  0.0008  0.2697 -0.6811
   88SLPC   H8X 8560   3.391   6.962   3.390  0.6862  0.0831 -0.9475
   88SLPC   H8Y 8561   3.465   6.812   3.406 -0.0183  0.4441  0.5098
   88SLPC   C39 8562   3.276   6.853   3.520 -0.0421  0.1108 -0.6435
   88SLPC   H9X 8563   3.245   6.747   3.530 -1.2136  0.5607  0.8854
   88SLPC   H9Y 8564   3.190   6.922   3.504  1.8079  2.2879 -1.8277
   88SLPC  C310 8565   3.345   6.883   3.657  0.1994  0.2306  0.1427
   88SLPC  H10X 8566   3.276   6.886   3.744 -1.9999 -1.0390 -1.4624
   88SLPC  H10Y 8567   3.391   6.984   3.655 -0.1558  0.3937  0.1198
   88SLPC  C311 8568   3.453   6.768   3.685 -0.5086  0.2362  0.0347
   88SLPC  H11X 8569   3.494   6.729   3.590 -0.2679  1.4810 -0.3881
   88SLPC  H11Y 8570   3.407   6.676   3.726 -0.9895  0.8583  0.9439
   88SLPC  C312 8571   3.547   6.816   3.797 -0.1135 -0.3591 -0.9355
   88SLPC  H12X 8572   3.589   6.732   3.858 -0.6603  1.5707  2.3372
   88SLPC  H12Y 8573   3.480   6.875   3.863  0.6936 -0.3768 -0.0700
   88SLPC  C313 8574   3.655   6.897   3.738 -0.8177  0.0711 -0.1480
   88SLPC  H13X 8575   3.625   6.960   3.651 -0.0663 -1.7518 -1.7763
   88SLPC  H13Y 8576   3.738   6.830   3.707 -1.2371 -0.0930 -0.9499
   88SLPC  C314 8577   3.721   6.986   3.840  0.1881 -0.1569 -0.4371
   88SLPC  H14X 8578   3.637   7.052   3.872  0.5006 -0.1149  0.3005
   88SLPC  H14Y 8579   3.795   7.053   3.792 -0.4358  0.8951  0.0363
   88SLPC  C315 8580   3.764   6.927   3.979  0.2512 -0.1536 -1.2062
   88SLPC  H15X 8581   3.860   6.871   3.972 -0.3900 -1.7499  1.4090
   88SLPC  H15Y 8582   3.683   6.863   4.019  0.0095  0.7439 -0.2242
   88SLPC  C316 8583   3.765   7.033   4.098 -0.3276 -0.4347 -0.6036
   88SLPC  H16X 8584   3.808   7.130   4.064 -1.0691  0.5051  1.0245
   88SLPC  H16Y 8585   3.827   6.996   4.183 -0.2128 -0.3271 -0.6397
   88SLPC  C317 8586   3.625   7.075   4.151  0.5713  0.2050  0.2616
   88SLPC  H17X 8587   3.573   6.983   4.187  3.6689 -1.9371 -0.3473
   88SLPC  H17Y 8588   3.574   7.113   4.060 -0.0149  0.7469  0.8045
   88SLPC  C318 8589   3.623   7.183   4.259 -0.2203  0.4616  0.0537
   88SLPC  H18X 8590   3.515   7.202   4.278  0.3902  2.1385  2.3823
   88SLPC  H18Y 8591   3.671   7.275   4.220 -0.9927  0.9488  0.2159
   88SLPC  H18Z 8592   3.669   7.159   4.358 -0.8947  1.3583  0.6102
   89SAPE     N 8593   5.757   6.220   6.775  0.6647  0.6666 -0.5244
   89SAPE   HN1 8594   5.769   6.138   6.837  1.2432  2.1072  1.3708
   89SAPE   HN2 8595   5.811   6.202   6.687  0.1481 -0.2053 -0.6738
   89SAPE   HN3 8596   5.793   6.303   6.827  0.6970  0.8709 -0.8667
   89SAPE   C12 8597   5.609   6.223   6.746  0.0558  0.5011  0.7179
   89SAPE  H12A 8598   5.586   6.296   6.665 -0.1936 -2.2483 -1.8460
   89SAPE  H12B 8599   5.553   6.251   6.837 -1.6638 -0.0728 -0.1166
   89SAPE   C11 8600   5.561   6.088   6.702 -0.8155 -0.4692 -0.2204
   89SAPE  H11A 8601   5.634   6.050   6.628  1.0481 -0.0982  1.3687
   89SAPE  H11B 8602   5.458   6.103   6.662 -1.1333 -1.3601  0.2233
   89SAPE     P 8603   5.486   5.856   6.793  0.4584 -0.2458 -0.0786
   89SAPE   O13 8604   5.500   5.786   6.924  0.5756  0.0885  0.1802
   89SAPE   O14 8605   5.346   5.866   6.751 -0.0986  0.0551  0.5860
   89SAPE   O12 8606   5.558   5.996   6.808 -0.1034  0.2545  0.3248
   89SAPE   O11 8607   5.571   5.774   6.680 -0.2994 -0.0950 -0.3032
   89SAPE    C1 8608   5.718   5.772   6.700  0.4223  0.9170 -0.7228
   89SAPE    HA 8609   5.773   5.826   6.619  0.9943  0.2030 -0.8222
   89SAPE    HB 8610   5.754   5.799   6.802  2.6285 -0.6576 -1.0123
   89SAPE    C2 8611   5.756   5.623   6.681  0.6403 -0.0999 -0.2273
   89SAPE    HS 8612   5.864   5.620   6.707  0.6460  0.5331 -0.1667
   89SAPE   O21 8613   5.727   5.587   6.538  0.5165  0.1500  0.3296
   89SAPE   C21 8614   5.821   5.624   6.453 -0.1291  0.5548 -0.2120
   89SAPE   O22 8615   5.930   5.667   6.489 -0.3770 -1.1126  0.2590
   89SAPE   C22 8616   5.768   5.595   6.311  0.5943 -0.1366 -1.1259
   89SAPE   H2R 8617   5.665   5.636   6.312  1.0346  1.0078 -0.0358
   89SAPE   H2S 8618   5.826   5.654   6.237 -2.9359  1.4263 -2.9051
   89SAPE    C3 8619   5.671   5.530   6.776  0.7299  0.2406  0.5873
   89SAPE    HX 8620   5.563   5.555   6.761  0.7804  0.7078  0.9859
   89SAPE    HY 8621   5.687   5.572   6.877 -2.3015  0.7575  0.9512
   89SAPE   O31 8622   5.695   5.390   6.770  0.2033  0.1611  0.3422
   89SAPE   C31 8623   5.612   5.312   6.702  0.1108 -0.6602 -0.6037
   89SAPE   O32 8624   5.519   5.355   6.634 -0.2409  0.0100  0.5447
   89SAPE   C32 8625   5.654   5.170   6.714  0.1447 -0.1444  0.1862
   89SAPE   H2X 8626   5.568   5.124   6.765 -0.0861  0.5249  0.4136
   89SAPE   H2Y 8627   5.755   5.164   6.760  0.5910 -0.7440 -0.8387
   89SAPE   C23 8628   5.765   5.447   6.278 -0.4199 -0.2966 -0.0815
   89SAPE   H3R 8629   5.695   5.436   6.193 -0.9803  1.0572  0.1837
   89SAPE   H3S 8630   5.715   5.392   6.361  1.1755 -1.5754  0.0658
   89SAPE   C24 8631   5.903   5.395   6.245 -0.8322  0.8784  0.0915
   89SAPE   H4R 8632   5.969   5.405   6.334  0.6179 -2.4496 -0.4361
   89SAPE   H4S 8633   5.937   5.463   6.164  1.7620 -1.1529 -0.6922
   89SAPE   C25 8634   5.925   5.251   6.204  0.8310 -0.5746 -0.7468
   89SAPE   H5R 8635   5.931   5.178   6.285 -0.4475 -1.4709 -1.4221
   89SAPE   C26 8636   5.918   5.212   6.079  0.1136 -0.3117 -1.2569
   89SAPE   H6R 8637   5.933   5.106   6.055 -0.5694 -1.1009  1.4402
   89SAPE   C27 8638   5.888   5.301   5.962  0.0373 -0.2985  0.4876
   89SAPE   H7R 8639   5.832   5.387   6.005  0.0848 -0.0940  0.1432
   89SAPE   H7S 8640   5.818   5.255   5.889 -0.2016 -1.0796  1.1910
   89SAPE   C28 8641   6.011   5.364   5.899 -0.1083 -0.2151 -0.0437
   89SAPE   H8R 8642   6.065   5.425   5.973 -0.8461 -0.5581  0.7772
   89SAPE   C29 8643   6.054   5.358   5.772 -0.3642  0.3256  0.0589
   89SAPE   H9R 8644   6.146   5.410   5.742  0.0614  0.5901  1.6876
   89SAPE  C210 8645   5.972   5.284   5.660 -0.8428  0.0499  1.0603
   89SAPE  H10R 8646   5.965   5.351   5.572  1.3176 -1.4738 -0.4039
   89SAPE  H10S 8647   5.867   5.264   5.688 -0.3949  0.3138  3.0863
   89SAPE  C211 8648   6.033   5.160   5.616 -0.3811  0.1045 -0.3356
   89SAPE  H11R 8649   6.030   5.088   5.699  3.7158  0.9652  0.8328
   89SAPE  C212 8650   6.084   5.123   5.495 -0.3924  0.0437  0.3814
   89SAPE  H12R 8651   6.118   5.021   5.471 -2.5860 -0.7251  0.3239
   89SAPE  C213 8652   6.092   5.210   5.369  0.7139  0.4056 -0.0627
   89SAPE  H13R 8653   6.141   5.162   5.282 -0.0933 -2.0092  0.7391
   89SAPE  H13S 8654   6.148   5.300   5.403  0.8033 -0.1160  1.2274
   89SAPE  C214 8655   5.948   5.259   5.327 -0.8773  0.9715  0.0895
   89SAPE  H14R 8656   5.897   5.335   5.388 -2.1858 -1.3142  2.0198
   89SAPE  C215 8657   5.882   5.220   5.217  0.1314 -0.0118 -0.6064
   89SAPE  H15R 8658   5.787   5.274   5.202  1.3559  2.8817  1.0378
   89SAPE  C216 8659   5.918   5.117   5.110 -0.0542 -0.4412  0.1481
   89SAPE  H16R 8660   5.817   5.083   5.079  0.2117 -0.9113 -0.2028
   89SAPE  H16S 8661   5.975   5.031   5.149 -0.0652 -1.0098 -1.0421
   89SAPE  C217 8662   5.993   5.165   4.980 -0.2928  0.3875  0.3297
   89SAPE  H17R 8663   6.084   5.220   5.011 -1.0085  1.6888  0.1630
   89SAPE  H17S 8664   5.936   5.242   4.924  1.4782  1.3832 -0.1584
   89SAPE  C218 8665   6.018   5.055   4.880  0.3029  0.4454 -1.0209
   89SAPE  H18R 8666   5.919   5.047   4.831  0.2965  1.9926 -1.2849
   89SAPE  H18S 8667   6.028   4.958   4.934  0.7378  1.3506  0.5938
   89SAPE  C219 8668   6.136   5.076   4.787 -0.0369  0.4298  0.2165
   89SAPE  H19R 8669   6.144   4.986   4.723  0.3757 -0.3212  1.2948
   89SAPE  H19S 8670   6.232   5.075   4.842 -0.5054  1.4393  1.0883
   89SAPE  C220 8671   6.120   5.198   4.696  0.2593 -0.4475  0.0083
   89SAPE  H20R 8672   6.215   5.217   4.642  0.7731 -0.2843  0.9386
   89SAPE  H20S 8673   6.097   5.290   4.754 -3.5267 -1.9860  1.2658
   89SAPE  H20T 8674   6.044   5.191   4.616  1.0082 -0.1965 -0.7378
   89SAPE   C33 8675   5.665   5.093   6.579  0.0642 -0.0756  0.4698
   89SAPE   H3X 8676   5.739   5.152   6.521 -0.0283 -0.1998  0.2275
   89SAPE   H3Y 8677   5.566   5.080   6.531  0.3362 -0.2553 -0.0498
   89SAPE   C34 8678   5.720   4.951   6.601 -0.0461  0.4521  0.2403
   89SAPE   H4X 8679   5.656   4.906   6.680  0.3783  0.3634  0.5401
   89SAPE   H4Y 8680   5.816   4.979   6.649 -0.4022  4.5282 -1.0774
   89SAPE   C35 8681   5.725   4.854   6.484  1.1020  0.6191 -0.4007
   89SAPE   H5X 8682   5.620   4.818   6.479  0.8579  1.1193  0.9093
   89SAPE   H5Y 8683   5.794   4.769   6.505  2.0744  1.0721 -1.5846
   89SAPE   C36 8684   5.770   4.921   6.354  0.6870 -0.1391  0.2919
   89SAPE   H6X 8685   5.878   4.946   6.357  0.6864 -0.0304 -0.3797
   89SAPE   H6Y 8686   5.714   5.016   6.340 -0.7976 -0.8225  1.3888
   89SAPE   C37 8687   5.745   4.834   6.231 -1.9459  1.0249  0.9835
   89SAPE   H7X 8688   5.774   4.888   6.138 -2.6278  0.0585  0.1874
   89SAPE   H7Y 8689   5.641   4.798   6.220 -1.6953  0.9029 -1.7537
   89SAPE   C38 8690   5.823   4.703   6.245 -0.4219  0.0800  0.0648
   89SAPE   H8X 8691   5.801   4.637   6.332 -0.4195  1.2997  1.0226
   89SAPE   H8Y 8692   5.931   4.717   6.267 -0.7930 -0.5105  2.6161
   89SAPE   C39 8693   5.819   4.611   6.118 -0.2351 -0.2596  0.1874
   89SAPE   H9X 8694   5.850   4.679   6.036  0.0106  0.3230  0.7462
   89SAPE   H9Y 8695   5.712   4.588   6.098 -0.3461 -0.5199  1.0431
   89SAPE  C310 8696   5.895   4.480   6.122 -0.2182  0.3157 -0.1031
   89SAPE  H10X 8697   5.879   4.425   6.217 -0.2700 -0.1964 -0.4031
   89SAPE  H10Y 8698   6.005   4.496   6.124 -0.3247  1.0748 -0.1702
   89SAPE  C311 8699   5.858   4.389   6.000  0.9972 -0.2307  0.3165
   89SAPE  H11X 8700   5.750   4.365   6.011  0.6334  1.2266  0.0522
   89SAPE  H11Y 8701   5.904   4.288   5.992  1.0423 -0.0950 -1.2620
   89SAPE  C312 8702   5.895   4.444   5.860 -0.1318  0.3142  0.5910
   89SAPE  H12X 8703   6.006   4.448   5.852 -0.2202  0.6844 -0.7153
   89SAPE  H12Y 8704   5.854   4.547   5.845  0.1746  0.7143  2.2715
   89SAPE  C313 8705   5.857   4.353   5.744 -0.4163 -0.6713  0.2714
   89SAPE  H13X 8706   5.766   4.294   5.767  0.0760 -2.1827 -1.3844
   89SAPE  H13Y 8707   5.941   4.281   5.731  0.6192  0.1194  2.0859
   89SAPE  C314 8708   5.840   4.425   5.610  0.4496 -0.0619 -0.0910
   89SAPE  H14X 8709   5.920   4.499   5.590  0.6136 -0.1219  0.3338
   89SAPE  H14Y 8710   5.747   4.485   5.610  2.3039  3.0346  1.1329
   89SAPE  C315 8711   5.850   4.343   5.485 -0.4651  0.1350 -0.4723
   89SAPE  H15X 8712   5.786   4.253   5.490  0.6429 -0.6717 -0.4547
   89SAPE  H15Y 8713   5.954   4.305   5.475 -0.5419 -0.4128  0.7110
   89SAPE  C316 8714   5.826   4.420   5.356 -0.2534  0.0613 -0.4246
   89SAPE  H16X 8715   5.870   4.521   5.369 -0.9492  0.2898  0.2639
   89SAPE  H16Y 8716   5.718   4.447   5.353 -0.2683  0.3768  1.5146
   89SAPE  C317 8717   5.881   4.353   5.227 -0.4238 -0.6906 -0.3252
   89SAPE  H17X 8718   5.989   4.340   5.247 -0.6690 -1.4512  0.5423
   89SAPE  H17Y 8719   5.870   4.425   5.143 -0.2529 -1.2659 -0.8456
   89SAPE  C318 8720   5.818   4.217   5.175 -0.6010 -0.1529 -0.4812
   89SAPE  H18X 8721   5.838   4.139   5.251 -0.8822  0.1760 -0.0624
   89SAPE  H18Y 8722   5.866   4.211   5.076  1.9009  4.6038  0.1278
   89SAPE  H18Z 8723   5.709   4.214   5.156 -0.8071 -1.5390  0.7351
   90SAPE     N 8724   0.781   3.190   6.893  0.4593  0.2476 -0.2737
   90SAPE   HN1 8725   0.762   3.277   6.947  2.0660 -1.7090  3.8194
   90SAPE   HN2 8726   0.775   3.108   6.956 -1.3425 -0.9288 -1.8659
   90SAPE   HN3 8727   0.879   3.198   6.859  0.1020  1.5325 -1.1065
   90SAPE   C12 8728   0.694   3.181   6.775  1.4566 -0.7899  0.3251
   90SAPE  H12A 8729   0.590   3.158   6.806  1.8429 -0.6934  1.7949
   90SAPE  H12B 8730   0.734   3.105   6.705  2.0775  0.5022 -0.7725
   90SAPE   C11 8731   0.682   3.306   6.682  0.3530 -0.2888 -0.2506
   90SAPE  H11A 8732   0.647   3.389   6.748  0.0734  0.1427 -0.9338
   90SAPE  H11B 8733   0.603   3.288   6.607 -1.6821 -0.3261  1.8036
   90SAPE     P 8734   0.890   3.472   6.650  0.2281 -0.1772 -0.8972
   90SAPE   O13 8735   0.873   3.510   6.793  0.1743 -0.2971 -0.3124
   90SAPE   O14 8736   1.028   3.448   6.609 -0.0501  0.4386  0.4225
   90SAPE   O12 8737   0.807   3.340   6.624 -0.2429  0.0688 -0.1113
   90SAPE   O11 8738   0.809   3.577   6.564 -0.3050  0.0257  0.8619
   90SAPE    C1 8739   0.698   3.549   6.475  0.3844 -0.0760 -0.0112
   90SAPE    HA 8740   0.716   3.453   6.423  1.3793 -0.8474  1.6722
   90SAPE    HB 8741   0.602   3.529   6.527  0.2438  0.6558  0.0223
   90SAPE    C2 8742   0.666   3.644   6.358  0.2265 -1.0868 -0.6638
   90SAPE    HS 8743   0.598   3.597   6.284 -1.0392 -0.3781  0.0177
   90SAPE   O21 8744   0.789   3.686   6.299 -0.3796  0.4871  0.4683
   90SAPE   C21 8745   0.846   3.590   6.219  1.0879  0.3459 -0.3690
   90SAPE   O22 8746   0.805   3.479   6.198 -0.9349  0.3834 -0.1870
   90SAPE   C22 8747   0.978   3.647   6.168 -0.5548 -1.4600  0.2874
   90SAPE   H2R 8748   1.050   3.635   6.252 -0.3818 -0.7045  0.2485
   90SAPE   H2S 8749   1.017   3.575   6.094 -0.9051 -2.1897  0.7892
   90SAPE    C3 8750   0.596   3.771   6.414 -0.5955  0.1629 -1.1046
   90SAPE    HX 8751   0.660   3.807   6.498 -1.1803 -3.8005  1.2771
   90SAPE    HY 8752   0.498   3.760   6.464  0.0040  2.5374  0.8651
   90SAPE   O31 8753   0.580   3.863   6.304 -0.2280  0.0294  0.2112
   90SAPE   C31 8754   0.648   3.965   6.301  0.7904  0.1276 -0.0027
   90SAPE   O32 8755   0.734   3.993   6.386  0.3072 -0.2946 -0.4451
   90SAPE   C32 8756   0.605   4.057   6.187  0.7419  0.1996  0.6318
   90SAPE   H2X 8757   0.525   4.127   6.221 -0.6731 -0.9411 -0.2397
   90SAPE   H2Y 8758   0.563   3.994   6.106  3.4512  2.5112 -2.9072
   90SAPE   C23 8759   0.983   3.799   6.123  0.7059 -0.6364 -0.1503
   90SAPE   H3R 8760   0.967   3.856   6.217  2.3796 -1.4460  0.6783
   90SAPE   H3S 8761   0.896   3.817   6.057 -0.9998  1.3086  2.3942
   90SAPE   C24 8762   1.120   3.845   6.060 -0.7573  0.5053 -0.1970
   90SAPE   H4R 8763   1.133   3.768   5.981 -1.8789 -1.0485  1.0668
   90SAPE   H4S 8764   1.193   3.821   6.141 -1.2644 -2.0148 -0.4038
   90SAPE   C25 8765   1.120   3.996   6.025 -0.2683  0.4046  0.5182
   90SAPE   H5R 8766   1.139   4.062   6.111 -3.8129 -0.6117  2.2521
   90SAPE   C26 8767   1.093   4.051   5.906 -0.4597  0.6021  0.0105
   90SAPE   H6R 8768   1.114   4.157   5.881  1.3093  0.3402  0.2263
   90SAPE   C27 8769   1.060   3.971   5.777  0.5942  0.2046  0.1932
   90SAPE   H7R 8770   0.999   4.036   5.711  1.1630  0.4723 -0.0754
   90SAPE   H7S 8771   1.006   3.878   5.805  1.8678 -1.0687 -1.3794
   90SAPE   C28 8772   1.181   3.932   5.697  0.1365  0.5093  0.3600
   90SAPE   H8R 8773   1.270   3.994   5.713  0.8146 -1.0100  2.9249
   90SAPE   C29 8774   1.186   3.839   5.596 -0.0130  0.0769 -0.0900
   90SAPE   H9R 8775   1.278   3.829   5.537 -0.5269  0.0768 -0.8976
   90SAPE  C210 8776   1.082   3.744   5.554 -0.9535 -0.0161 -0.2913
   90SAPE  H10R 8777   0.979   3.782   5.572 -0.9209 -0.7052  1.4774
   90SAPE  H10S 8778   1.096   3.655   5.619  0.1459  0.8599  0.7107
   90SAPE  C211 8779   1.096   3.706   5.411  0.3606  0.2518  0.2176
   90SAPE  H11R 8780   1.145   3.779   5.345  0.4837  0.6333  0.7248
   90SAPE  C212 8781   1.069   3.581   5.370 -0.3421  0.3694  0.8139
   90SAPE  H12R 8782   1.088   3.558   5.264  0.3137 -0.1306  1.0351
   90SAPE  C213 8783   1.008   3.469   5.443  0.2717  0.2115 -0.5305
   90SAPE  H13R 8784   0.908   3.495   5.484  0.0716 -1.8087  0.3524
   90SAPE  H13S 8785   1.077   3.440   5.525  4.3588  3.8043 -2.2627
   90SAPE  C214 8786   0.969   3.350   5.361 -0.2294 -0.2778 -0.8365
   90SAPE  H14R 8787   0.916   3.377   5.269  2.0970 -0.8665 -2.4536
   90SAPE  C215 8788   0.967   3.222   5.409  0.2376  0.6233 -0.1962
   90SAPE  H15R 8789   0.908   3.145   5.357  0.4566 -0.0725  0.5598
   90SAPE  C216 8790   1.041   3.173   5.534  0.3814 -0.4065 -0.1093
   90SAPE  H16R 8791   1.107   3.247   5.583  2.2185 -1.4735 -0.8493
   90SAPE  H16S 8792   1.116   3.094   5.510 -0.7950 -1.9822  1.1893
   90SAPE  C217 8793   0.947   3.104   5.627  0.3899  0.6452  0.4570
   90SAPE  H17R 8794   0.991   3.054   5.716 -2.4618 -1.4204  0.8719
   90SAPE  H17S 8795   0.885   3.029   5.574 -0.2849  1.5493 -0.0681
   90SAPE  C218 8796   0.852   3.210   5.695  0.2667  0.3592  0.4729
   90SAPE  H18R 8797   0.787   3.257   5.618 -0.6940 -2.6272 -0.6753
   90SAPE  H18S 8798   0.913   3.288   5.746  0.2023  1.6376 -1.3040
   90SAPE  C219 8799   0.767   3.148   5.805  0.2160 -0.3767  0.1233
   90SAPE  H19R 8800   0.738   3.222   5.882 -0.2097  1.4726 -1.7257
   90SAPE  H19S 8801   0.822   3.069   5.859  1.0013 -0.0674 -0.2101
   90SAPE  C220 8802   0.642   3.072   5.751  0.3096 -0.3268  0.1410
   90SAPE  H20R 8803   0.580   3.142   5.690 -0.5906 -0.1994  1.1823
   90SAPE  H20S 8804   0.582   3.033   5.836 -1.0179 -1.2624 -1.1732
   90SAPE  H20T 8805   0.661   2.992   5.677 -1.9839  0.7374 -1.7579
   90SAPE   C33 8806   0.724   4.126   6.112 -0.0931 -0.6819  0.1022
   90SAPE   H3X 8807   0.782   4.037   6.078  0.0369  0.0320 -1.6337
   90SAPE   H3Y 8808   0.782   4.174   6.193  0.8428 -2.2055  0.3698
   90SAPE   C34 8809   0.682   4.228   5.999  0.4194  0.0896  0.2820
   90SAPE   H4X 8810   0.774   4.259   5.947 -1.4521  1.3578 -2.5035
   90SAPE   H4Y 8811   0.642   4.310   6.062  1.2585  0.4583  0.3465
   90SAPE   C35 8812   0.571   4.184   5.909  0.3400  0.2500 -0.1290
   90SAPE   H5X 8813   0.533   4.275   5.856 -0.0693  0.3702  0.3633
   90SAPE   H5Y 8814   0.478   4.148   5.957 -0.3140  1.6761 -0.2634
   90SAPE   C36 8815   0.610   4.090   5.797 -0.3554 -0.2591 -0.4518
   90SAPE   H6X 8816   0.512   4.050   5.763 -0.3793 -0.2913 -0.3435
   90SAPE   H6Y 8817   0.666   4.001   5.832  2.9081  2.1267  0.9380
   90SAPE   C37 8818   0.689   4.145   5.676  0.0811  0.1924  0.0634
   90SAPE   H7X 8819   0.789   4.185   5.704  0.9293 -0.9564 -1.1956
   90SAPE   H7Y 8820   0.620   4.223   5.638 -1.6157 -0.5251  1.5528
   90SAPE   C38 8821   0.715   4.040   5.576  0.4039  0.1824  0.3297
   90SAPE   H8X 8822   0.619   4.006   5.532  1.3602 -0.6921 -1.1580
   90SAPE   H8Y 8823   0.769   3.955   5.623  0.9099 -0.2863 -1.0538
   90SAPE   C39 8824   0.803   4.077   5.454  0.0011 -1.0636  0.6863
   90SAPE   H9X 8825   0.846   3.994   5.395 -1.2033 -0.4796 -1.1040
   90SAPE   H9Y 8826   0.901   4.115   5.490 -0.3941  0.5372  0.1628
   90SAPE  C310 8827   0.737   4.168   5.345 -0.2303  0.4736  0.0056
   90SAPE  H10X 8828   0.719   4.268   5.389  0.2135  0.5024  0.1312
   90SAPE  H10Y 8829   0.643   4.127   5.302  0.6790 -0.4193 -1.2050
   90SAPE  C311 8830   0.832   4.207   5.234 -0.9253 -0.2445 -0.2669
   90SAPE  H11X 8831   0.926   4.240   5.282 -1.9816  1.7418  0.5222
   90SAPE  H11Y 8832   0.799   4.293   5.172 -2.4161 -0.2822  0.4206
   90SAPE  C312 8833   0.870   4.100   5.138 -0.6428  0.1038  0.1344
   90SAPE  H12X 8834   0.776   4.059   5.097  0.0337  1.5554 -3.2023
   90SAPE  H12Y 8835   0.927   4.018   5.186  0.1917 -0.3609 -1.5975
   90SAPE  C313 8836   0.947   4.141   5.015  0.6492 -0.4324 -0.5416
   90SAPE  H13X 8837   1.057   4.159   5.015  0.7301 -0.9093 -0.0854
   90SAPE  H13Y 8838   0.903   4.239   4.989 -0.5466 -0.1239  2.2333
   90SAPE  C314 8839   0.909   4.057   4.892  0.5739 -0.1678  0.5062
   90SAPE  H14X 8840   0.801   4.035   4.905  0.1602  1.2562 -0.3661
   90SAPE  H14Y 8841   0.958   3.957   4.884 -1.3729 -1.1988  0.7989
   90SAPE  C315 8842   0.939   4.132   4.764  0.3180  0.2055 -0.6497
   90SAPE  H15X 8843   0.903   4.237   4.767 -0.5155 -0.0782 -0.1751
   90SAPE  H15Y 8844   0.884   4.096   4.675 -0.4620  1.7484 -0.8237
   90SAPE  C316 8845   1.085   4.132   4.723 -0.4077  0.6482 -0.2489
   90SAPE  H16X 8846   1.139   4.035   4.722  0.2841  1.0279 -1.6790
   90SAPE  H16Y 8847   1.142   4.199   4.790  1.4050 -2.1130  1.1519
   90SAPE  C317 8848   1.099   4.178   4.580  0.1821  0.0495  0.4416
   90SAPE  H17X 8849   1.031   4.263   4.562 -1.3318 -1.5418 -1.9143
   90SAPE  H17Y 8850   1.064   4.094   4.515 -0.6350 -0.0317  0.9782
   90SAPE  C318 8851   1.241   4.227   4.542 -0.3282  0.5025  0.7593
   90SAPE  H18X 8852   1.230   4.259   4.436 -1.7999  0.6456  0.9403
   90SAPE  H18Y 8853   1.313   4.143   4.539  0.4004  1.1323 -1.1497
   90SAPE  H18Z 8854   1.279   4.308   4.608 -1.8153  2.3603 -0.5347
   91SAPE     N 8855   5.664   6.696   7.336  0.3843  0.4460 -0.4426
   91SAPE   HN1 8856   5.588   6.721   7.403  0.9258 -0.8708  0.7190
   91SAPE   HN2 8857   5.648   6.594   7.322 -0.7560  0.2927  1.5309
   91SAPE   HN3 8858   5.751   6.708   7.392  0.4755 -2.7774  0.3232
   91SAPE   C12 8859   5.650   6.772   7.204 -0.6125 -0.3522 -0.6592
   91SAPE  H12A 8860   5.653   6.880   7.231  1.5551 -0.6807  0.6647
   91SAPE  H12B 8861   5.552   6.744   7.159  0.1038 -0.3543 -2.2800
   91SAPE   C11 8862   5.770   6.730   7.121 -0.0248 -0.7076 -0.8414
   91SAPE  H11A 8863   5.869   6.751   7.168  0.0307 -0.3662 -1.1046
   91SAPE  H11B 8864   5.773   6.786   7.026  0.2133 -1.6763 -1.4174
   91SAPE     P 8865   5.689   6.518   6.975 -0.0797  0.0639 -0.1077
   91SAPE   O13 8866   5.667   6.380   7.024  0.8299  0.2346 -0.1611
   91SAPE   O14 8867   5.570   6.594   6.931 -0.2787  0.5487 -0.2023
   91SAPE   O12 8868   5.777   6.589   7.083  0.0384 -0.4346 -0.0188
   91SAPE   O11 8869   5.783   6.501   6.847 -0.4323  0.3321  0.2524
   91SAPE    C1 8870   5.828   6.615   6.775 -0.0903  0.4635  1.0161
   91SAPE    HA 8871   5.748   6.690   6.755 -0.1163  0.0255 -0.7223
   91SAPE    HB 8872   5.908   6.670   6.828  0.9464  0.0501 -0.0758
   91SAPE    C2 8873   5.882   6.573   6.632 -0.7269 -0.3483  0.2048
   91SAPE    HS 8874   5.905   6.665   6.574  0.2934 -0.6773  0.0655
   91SAPE   O21 8875   5.796   6.487   6.553 -0.2375 -0.0201  0.2567
   91SAPE   C21 8876   5.686   6.541   6.519  0.5279 -0.3753  0.4068
   91SAPE   O22 8877   5.642   6.650   6.551  0.0079 -0.3906 -0.3359
   91SAPE   C22 8878   5.626   6.448   6.415  1.0968 -0.7936  0.3780
   91SAPE   H2R 8879   5.707   6.392   6.364  1.5357 -1.2900  1.5939
   91SAPE   H2S 8880   5.558   6.386   6.476  0.4509 -0.2733  0.2015
   91SAPE    C3 8881   6.017   6.503   6.647  0.1048  0.0845 -0.7343
   91SAPE    HX 8882   6.001   6.394   6.661 -1.0257  0.4716  1.3289
   91SAPE    HY 8883   6.065   6.541   6.739 -1.8153 -0.6124  0.6344
   91SAPE   O31 8884   6.107   6.533   6.542  0.0208 -0.1037 -0.3314
   91SAPE   C31 8885   6.097   6.456   6.430 -0.8029  0.1578  0.4737
   91SAPE   O32 8886   6.034   6.354   6.425 -0.0568  0.9664  0.2271
   91SAPE   C32 8887   6.173   6.529   6.320  0.1212  0.1412  0.3033
   91SAPE   H2X 8888   6.282   6.523   6.340  0.2620 -1.1687 -0.7496
   91SAPE   H2Y 8889   6.138   6.634   6.332 -1.0530 -0.3179  1.0588
   91SAPE   C23 8890   5.532   6.522   6.313 -0.4805  1.0446 -0.5565
   91SAPE   H3R 8891   5.444   6.566   6.363  0.0134  1.1513  0.2392
   91SAPE   H3S 8892   5.483   6.441   6.255 -0.5081  1.0639 -0.5609
   91SAPE   C24 8893   5.604   6.620   6.225  0.1935  0.9518 -0.1842
   91SAPE   H4R 8894   5.685   6.567   6.172  0.8110  1.6066  0.0938
   91SAPE   H4S 8895   5.654   6.691   6.294  0.2506  0.3333  0.4233
   91SAPE   C25 8896   5.505   6.686   6.133 -0.4279  0.4664 -0.1777
   91SAPE   H5R 8897   5.407   6.703   6.181 -0.8682  0.3905 -1.0430
   91SAPE   C26 8898   5.514   6.716   6.007  0.8469  0.5731  0.1037
   91SAPE   H6R 8899   5.427   6.767   5.961  0.6259  0.1705  0.0683
   91SAPE   C27 8900   5.631   6.701   5.911 -0.4555 -0.3216 -0.1235
   91SAPE   H7R 8901   5.622   6.599   5.867 -0.3231 -1.1124  1.6169
   91SAPE   H7S 8902   5.726   6.706   5.968 -1.2888  3.0151  1.2210
   91SAPE   C28 8903   5.653   6.809   5.803 -0.0445  0.0046  0.2894
   91SAPE   H8R 8904   5.698   6.904   5.836  4.3805 -1.9108  0.5617
   91SAPE   C29 8905   5.622   6.794   5.673 -0.5645 -0.0067  0.9607
   91SAPE   H9R 8906   5.644   6.886   5.617  2.3498 -1.7233 -0.9952
   91SAPE  C210 8907   5.570   6.683   5.591 -0.0717 -0.7083  0.7930
   91SAPE  H10R 8908   5.563   6.583   5.640  1.0301 -0.3695  1.6787
   91SAPE  H10S 8909   5.644   6.676   5.508 -2.1900  0.6283 -1.3278
   91SAPE  C211 8910   5.439   6.716   5.533 -0.2882  0.4531 -0.5050
   91SAPE  H11R 8911   5.360   6.710   5.609  1.1128  0.2726  0.9959
   91SAPE  C212 8912   5.408   6.755   5.406 -0.1222 -0.7723  0.3057
   91SAPE  H12R 8913   5.306   6.782   5.376  0.1735 -0.5723 -0.5445
   91SAPE  C213 8914   5.509   6.764   5.293 -0.2510  0.0576 -0.3320
   91SAPE  H13R 8915   5.588   6.832   5.330 -0.8772  0.6709 -0.1058
   91SAPE  H13S 8916   5.470   6.832   5.214 -0.7493  0.5946  0.3639
   91SAPE  C214 8917   5.570   6.636   5.243  0.5778  0.3189 -0.5158
   91SAPE  H14R 8918   5.583   6.557   5.318  0.7978 -2.0020 -2.8481
   91SAPE  C215 8919   5.623   6.623   5.116 -0.2237 -0.5831  0.0458
   91SAPE  H15R 8920   5.676   6.534   5.079  0.9060  0.8664 -2.0846
   91SAPE  C216 8921   5.638   6.729   5.012 -0.2888  0.4354 -0.7814
   91SAPE  H16R 8922   5.739   6.775   5.015 -0.1495  0.0958  0.0268
   91SAPE  H16S 8923   5.575   6.819   5.031  0.9887  1.2284 -0.2280
   91SAPE  C217 8924   5.617   6.660   4.876  0.1181  0.6508  0.0381
   91SAPE  H17R 8925   5.516   6.613   4.877 -0.0449  0.9471 -0.9789
   91SAPE  H17S 8926   5.689   6.577   4.861  1.2064  1.6399 -0.3389
   91SAPE  C218 8927   5.636   6.749   4.753 -0.0525 -0.2288 -0.3696
   91SAPE  H18R 8928   5.738   6.793   4.758  0.0406 -0.1588 -2.2103
   91SAPE  H18S 8929   5.557   6.827   4.759 -0.7131 -0.8398 -0.8690
   91SAPE  C219 8930   5.615   6.686   4.617  0.4019  0.0830 -0.3778
   91SAPE  H19R 8931   5.512   6.644   4.623  0.2768  0.4030 -0.3071
   91SAPE  H19S 8932   5.689   6.603   4.608  1.3352  1.0832 -3.2412
   91SAPE  C220 8933   5.623   6.784   4.495 -0.2808  0.6987 -0.2286
   91SAPE  H20R 8934   5.567   6.742   4.409 -2.4624  0.8419  1.0551
   91SAPE  H20S 8935   5.726   6.824   4.480 -0.7331  1.9232 -0.2163
   91SAPE  H20T 8936   5.569   6.878   4.519 -2.0456 -0.6235  1.1977
   91SAPE   C33 8937   6.126   6.486   6.181 -0.3105 -0.1378 -0.0625
   91SAPE   H3X 8938   6.028   6.435   6.174  0.9237 -2.4565 -1.7771
   91SAPE   H3Y 8939   6.199   6.405   6.159  0.1015  0.2166 -0.0198
   91SAPE   C34 8940   6.108   6.605   6.087 -0.1370 -0.9997  0.3864
   91SAPE   H4X 8941   6.194   6.676   6.084 -0.4100 -0.6893 -0.1846
   91SAPE   H4Y 8942   6.021   6.664   6.122 -0.6448  0.5495 -3.1059
   91SAPE   C35 8943   6.093   6.562   5.938 -0.1157 -0.2534 -0.1884
   91SAPE   H5X 8944   5.997   6.505   5.937 -0.4648  0.2797  0.9186
   91SAPE   H5Y 8945   6.172   6.486   5.918 -0.8018 -1.0885  0.1603
   91SAPE   C36 8946   6.099   6.682   5.841 -1.0155 -0.4414  0.1921
   91SAPE   H6X 8947   6.202   6.725   5.839 -0.5314 -1.5650  0.2712
   91SAPE   H6Y 8948   6.029   6.761   5.874 -1.7282 -0.8383 -0.3451
   91SAPE   C37 8949   6.057   6.651   5.699  0.5785 -0.2229  0.1113
   91SAPE   H7X 8950   5.958   6.601   5.701  0.5528 -0.3395 -2.1082
   91SAPE   H7Y 8951   6.121   6.572   5.655  1.1529  0.4839 -0.3592
   91SAPE   C38 8952   6.054   6.773   5.608  0.0265 -1.0168  0.5840
   91SAPE   H8X 8953   6.155   6.819   5.611  0.5547 -2.0350 -0.5135
   91SAPE   H8Y 8954   5.982   6.842   5.657  0.8112 -1.3541  2.3047
   91SAPE   C39 8955   6.012   6.747   5.467  0.5882 -0.0492  0.8506
   91SAPE   H9X 8956   5.907   6.712   5.480 -0.1019  1.9903  1.1339
   91SAPE   H9Y 8957   6.067   6.661   5.422 -0.1290  0.1206 -0.3724
   91SAPE  C310 8958   6.026   6.871   5.372  0.1572 -0.2667 -0.0271
   91SAPE  H10X 8959   6.128   6.913   5.377  0.6271 -1.4990  1.2401
   91SAPE  H10Y 8960   5.946   6.936   5.414 -0.2024 -1.2749  0.9133
   91SAPE  C311 8961   5.987   6.835   5.229 -1.0384 -0.6898 -0.2163
   91SAPE  H11X 8962   5.956   6.933   5.188  1.0366  1.8822  3.8049
   91SAPE  H11Y 8963   5.904   6.762   5.237 -1.5635  0.0623  1.6092
   91SAPE  C312 8964   6.104   6.762   5.158  0.0866 -0.5820 -0.3452
   91SAPE  H12X 8965   6.112   6.666   5.213 -1.5284 -0.3284  0.4029
   91SAPE  H12Y 8966   6.202   6.815   5.159  1.3109 -2.6995 -0.9666
   91SAPE  C313 8967   6.076   6.731   5.010  0.2077  0.5318 -0.0901
   91SAPE  H13X 8968   5.982   6.672   5.003  0.5671 -0.0414 -0.1887
   91SAPE  H13Y 8969   6.164   6.669   4.982 -0.1814  0.0906 -0.3643
   91SAPE  C314 8970   6.067   6.848   4.909  0.3325 -0.2969 -0.1457
   91SAPE  H14X 8971   6.160   6.905   4.928 -0.2094  0.1652  1.2973
   91SAPE  H14Y 8972   5.977   6.906   4.942  1.0596  0.4199  0.6449
   91SAPE  C315 8973   6.060   6.820   4.762  0.0124  0.1417  0.0590
   91SAPE  H15X 8974   5.970   6.760   4.737  1.0494 -2.2675  1.7235
   91SAPE  H15Y 8975   6.139   6.744   4.745 -2.0325 -2.2865  0.8229
   91SAPE  C316 8976   6.069   6.945   4.675  0.0662  0.1285  0.6908
   91SAPE  H16X 8977   6.155   7.010   4.701 -0.2654  1.4962 -1.3875
   91SAPE  H16Y 8978   5.994   7.022   4.700 -0.4612 -0.8834  2.3746
   91SAPE  C317 8979   6.062   6.912   4.525 -0.3506  0.3723 -0.2955
   91SAPE  H17X 8980   6.036   7.013   4.487  0.2580  2.1657  3.5862
   91SAPE  H17Y 8981   5.980   6.838   4.511  2.6699 -2.8863 -2.4119
   91SAPE  C318 8982   6.195   6.852   4.469 -0.3562  0.1100 -0.2515
   91SAPE  H18X 8983   6.186   6.832   4.360  2.3818 -1.2295 -0.3277
   91SAPE  H18Y 8984   6.217   6.765   4.534  1.0756  1.6967  1.4844
   91SAPE  H18Z 8985   6.278   6.925   4.479  0.0677  0.2249 -3.5213
   92SAPE     N 8986   6.393   0.432   6.824  0.0961 -0.0288 -0.6907
   92SAPE   HN1 8987   6.331   0.469   6.899  0.5887  1.3032 -0.9032
   92SAPE   HN2 8988   6.333   0.388   6.751 -0.2073 -0.6854 -0.0669
   92SAPE   HN3 8989   6.444   0.352   6.867  1.5996  0.8171 -0.8596
   92SAPE   C12 8990   6.484   0.538   6.779 -0.5665  0.3754  0.3298
   92SAPE  H12A 8991   6.553   0.566   6.862  0.1411 -0.2774 -0.0321
   92SAPE  H12B 8992   6.429   0.632   6.756 -1.2327  0.1212  0.8282
   92SAPE   C11 8993   6.560   0.501   6.652  0.9632  0.1024  0.4370
   92SAPE  H11A 8994   6.618   0.407   6.667  0.0494 -0.4832  0.3720
   92SAPE  H11B 8995   6.623   0.587   6.622 -2.2570  1.4174 -3.2965
   92SAPE     P 8996   6.500   0.467   6.394 -0.6803 -0.1190  0.4194
   92SAPE   O13 8997   6.602   0.362   6.378  0.0513  0.1455  0.4043
   92SAPE   O14 8998   6.376   0.461   6.318  0.9307 -0.1734 -0.2303
   92SAPE   O12 8999   6.464   0.489   6.546 -0.6018  0.1672  0.5369
   92SAPE   O11 9000   6.568   0.607   6.375 -0.7091 -0.6372 -0.7202
   92SAPE    C1 9001   6.506   0.729   6.412  0.2436  0.3534 -0.6172
   92SAPE    HA 9002   6.443   0.708   6.501 -0.0872 -0.4692 -1.0278
   92SAPE    HB 9003   6.578   0.811   6.431  2.1274 -1.4328  0.3730
   92SAPE    C2 9004   6.412   0.778   6.294  0.0690  0.5456 -0.8005
   92SAPE    HS 9005   6.338   0.694   6.292  1.0514 -0.4018  0.5297
   92SAPE   O21 9006   6.492   0.792   6.170 -0.4280 -0.2974  0.4354
   92SAPE   C21 9007   6.427   0.753   6.062  0.3176  0.3699 -0.4418
   92SAPE   O22 9008   6.317   0.698   6.068 -0.1859 -0.3173  0.2376
   92SAPE   C22 9009   6.512   0.765   5.936 -0.4977  0.1410  0.1045
   92SAPE   H2R 9010   6.529   0.872   5.914 -2.7371  0.5886  0.3546
   92SAPE   H2S 9011   6.615   0.727   5.953 -0.8693 -0.9199  0.0784
   92SAPE    C3 9012   6.343   0.910   6.324  0.4729 -0.6966 -0.3050
   92SAPE    HX 9013   6.429   0.979   6.331  0.1101 -0.0814 -1.6341
   92SAPE    HY 9014   6.292   0.876   6.417  1.6317 -1.9955 -0.1189
   92SAPE   O31 9015   6.253   0.960   6.220  0.0750 -0.3539  0.0191
   92SAPE   C31 9016   6.141   0.890   6.214 -0.7771 -0.9470  0.3667
   92SAPE   O32 9017   6.084   0.825   6.299 -0.2682 -0.1127  0.5681
   92SAPE   C32 9018   6.085   0.929   6.074 -0.1200  0.3103  0.1088
   92SAPE   H2X 9019   6.161   0.943   5.994 -2.0952 -1.2656 -2.2112
   92SAPE   H2Y 9020   6.033   1.027   6.084 -0.5707 -0.1692  3.4162
   92SAPE   C23 9021   6.442   0.693   5.811  0.3384  0.4751 -1.0554
   92SAPE   H3R 9022   6.424   0.588   5.844 -0.8345  1.2181  0.7944
   92SAPE   H3S 9023   6.519   0.703   5.732  3.6094  0.6289  1.9000
   92SAPE   C24 9024   6.306   0.748   5.775  0.4428 -0.5716 -0.1825
   92SAPE   H4R 9025   6.248   0.775   5.865  0.9802  1.0937 -0.2993
   92SAPE   H4S 9026   6.245   0.676   5.716  0.7347  0.7634 -2.2384
   92SAPE   C25 9027   6.300   0.878   5.690 -0.2822  0.5343 -0.0825
   92SAPE   H5R 9028   6.361   0.953   5.741 -1.1007  1.2499 -0.1272
   92SAPE   C26 9029   6.250   0.899   5.569  0.0975  0.1549  0.2974
   92SAPE   H6R 9030   6.255   1.000   5.528 -1.5575  0.3624  0.5611
   92SAPE   C27 9031   6.157   0.806   5.490 -0.1292  0.5989 -0.2686
   92SAPE   H7R 9032   6.058   0.856   5.481 -1.4008 -1.8735 -1.0221
   92SAPE   H7S 9033   6.130   0.721   5.556 -0.4662  0.9054 -0.0068
   92SAPE   C28 9034   6.225   0.764   5.364  0.6194 -0.0799 -0.0002
   92SAPE   H8R 9035   6.322   0.715   5.382 -0.2690 -1.2594  1.9309
   92SAPE   C29 9036   6.170   0.769   5.243  0.2019  0.2942 -0.0886
   92SAPE   H9R 9037   6.218   0.719   5.158  0.8258  0.6704  0.0396
   92SAPE  C210 9038   6.026   0.810   5.200 -0.0877  0.2997  0.5695
   92SAPE  H10R 9039   5.968   0.847   5.287 -3.0966  0.0208 -1.1698
   92SAPE  H10S 9040   5.979   0.716   5.163  3.2143 -1.6756  0.9144
   92SAPE  C211 9041   6.034   0.914   5.095  0.2868 -0.0722  0.9962
   92SAPE  H11R 9042   6.065   1.013   5.131 -2.2126  0.5758  1.5659
   92SAPE  C212 9043   6.017   0.901   4.958 -0.4298  0.5263 -0.0062
   92SAPE  H12R 9044   6.019   0.988   4.891 -1.2714  0.0122 -0.7245
   92SAPE  C213 9045   5.998   0.774   4.874 -0.1644 -0.4333  0.6626
   92SAPE  H13R 9046   5.928   0.800   4.792 -1.1764 -1.0945  1.2916
   92SAPE  H13S 9047   5.938   0.703   4.935 -0.5608 -0.1556  0.5937
   92SAPE  C214 9048   6.133   0.707   4.838  0.4508  0.3931  0.4146
   92SAPE  H14R 9049   6.173   0.668   4.932  1.2301  2.7456  1.1320
   92SAPE  C215 9050   6.188   0.679   4.715 -0.1806  0.2833 -0.1609
   92SAPE  H15R 9051   6.279   0.619   4.701 -0.7598  0.0103 -3.4283
   92SAPE  C216 9052   6.138   0.727   4.587  0.0559 -0.3344  0.5452
   92SAPE  H16R 9053   6.221   0.765   4.524 -0.3621  0.0480  0.2189
   92SAPE  H16S 9054   6.083   0.822   4.604  1.8466  0.9552 -0.5397
   92SAPE  C217 9055   6.053   0.627   4.508 -0.3792 -0.4768 -0.1420
   92SAPE  H17R 9056   6.117   0.542   4.478 -1.5942 -1.1701 -0.8513
   92SAPE  H17S 9057   6.018   0.682   4.417  2.4209 -1.1709 -1.7297
   92SAPE  C218 9058   5.930   0.569   4.575  0.2417 -0.0492  0.9185
   92SAPE  H18R 9059   5.864   0.644   4.623 -1.0169 -1.0599  0.8211
   92SAPE  H18S 9060   5.952   0.500   4.659  0.2064 -1.0600  0.1167
   92SAPE  C219 9061   5.846   0.493   4.470 -0.2145 -0.5905  0.1112
   92SAPE  H19R 9062   5.891   0.395   4.442 -0.4057 -0.2556 -1.4593
   92SAPE  H19S 9063   5.840   0.568   4.389 -2.4294 -0.0416  0.7143
   92SAPE  C220 9064   5.701   0.468   4.505 -0.2247 -0.6740  0.3835
   92SAPE  H20R 9065   5.657   0.564   4.540  1.6951  0.0240  0.9946
   92SAPE  H20S 9066   5.686   0.385   4.577  1.3144 -0.5404  0.8913
   92SAPE  H20T 9067   5.654   0.448   4.406 -1.2053 -0.8680  0.8686
   92SAPE   C33 9068   5.975   0.829   6.017 -0.3043 -0.0284 -0.0412
   92SAPE   H3X 9069   5.892   0.811   6.089 -2.4647 -2.4841 -2.8627
   92SAPE   H3Y 9070   6.036   0.737   6.009 -0.1254 -0.2251  2.7397
   92SAPE   C34 9071   5.907   0.869   5.875  0.2860  0.3878 -0.2286
   92SAPE   H4X 9072   5.818   0.803   5.864  0.3806  0.2930 -0.4218
   92SAPE   H4Y 9073   5.974   0.839   5.792 -0.2864 -0.7731 -0.2909
   92SAPE   C35 9074   5.856   1.011   5.878  0.5010  0.5416  0.1004
   92SAPE   H5X 9075   5.945   1.074   5.897  2.3300 -1.4244 -1.4638
   92SAPE   H5Y 9076   5.788   1.030   5.964 -0.0364 -2.3948  0.4510
   92SAPE   C36 9077   5.789   1.055   5.743 -0.2033  0.4437 -0.2840
   92SAPE   H6X 9078   5.740   1.154   5.756 -1.8159 -0.3344 -0.1596
   92SAPE   H6Y 9079   5.702   0.987   5.726 -1.2144  1.8293 -0.8035
   92SAPE   C37 9080   5.882   1.065   5.620 -0.4786 -0.2970 -0.7410
   92SAPE   H7X 9081   5.925   0.967   5.590  0.8670  0.1281 -0.2339
   92SAPE   H7Y 9082   5.967   1.127   5.654 -1.2528  0.0129  0.7045
   92SAPE   C38 9083   5.803   1.136   5.505 -0.1647 -0.3770  0.3695
   92SAPE   H8X 9084   5.775   1.238   5.539 -1.0605 -0.1647 -0.9012
   92SAPE   H8Y 9085   5.713   1.085   5.464 -0.6786  0.1590  0.8186
   92SAPE   C39 9086   5.885   1.160   5.380 -0.4590  0.9558  0.2958
   92SAPE   H9X 9087   5.925   1.062   5.346 -0.0242  1.0512  0.5130
   92SAPE   H9Y 9088   5.976   1.217   5.409  1.2393 -1.3212 -0.2031
   92SAPE  C310 9089   5.808   1.226   5.265  0.0147  0.5755  0.4037
   92SAPE  H10X 9090   5.743   1.309   5.300 -1.4291  0.2844 -1.4438
   92SAPE  H10Y 9091   5.745   1.149   5.216  1.5366  0.5165 -1.6193
   92SAPE  C311 9092   5.900   1.265   5.154  0.5309 -0.2373 -0.2889
   92SAPE  H11X 9093   5.979   1.190   5.134 -0.2739 -0.2942 -3.9134
   92SAPE  H11Y 9094   5.952   1.360   5.177  1.1045 -0.7079  0.3585
   92SAPE  C312 9095   5.813   1.269   5.027  0.3805 -0.3560  0.2899
   92SAPE  H12X 9096   5.717   1.324   5.035  1.5066  1.5199  1.6839
   92SAPE  H12Y 9097   5.794   1.165   4.992  2.3819 -0.0627 -1.9642
   92SAPE  C313 9098   5.889   1.328   4.906 -0.1163  0.4589  0.6676
   92SAPE  H13X 9099   5.978   1.265   4.885 -0.7187 -0.6031  1.2660
   92SAPE  H13Y 9100   5.933   1.428   4.927  0.0389  0.9345 -1.6366
   92SAPE  C314 9101   5.809   1.341   4.774 -0.3545  0.2705 -0.3003
   92SAPE  H14X 9102   5.878   1.397   4.707 -0.3522  1.8502  0.9619
   92SAPE  H14Y 9103   5.718   1.405   4.780 -1.0874 -0.8633  1.1531
   92SAPE  C315 9104   5.785   1.205   4.709 -0.4030 -0.0121 -0.0471
   92SAPE  H15X 9105   5.726   1.138   4.775  0.3867 -1.0110 -0.3269
   92SAPE  H15Y 9106   5.883   1.154   4.704  0.6739  1.8842  0.4080
   92SAPE  C316 9107   5.711   1.228   4.583 -0.3658 -0.0689  0.6266
   92SAPE  H16X 9108   5.780   1.298   4.531  0.5107 -1.5850 -0.3399
   92SAPE  H16Y 9109   5.614   1.274   4.609 -1.6115 -2.2287  0.1075
   92SAPE  C317 9110   5.701   1.100   4.502 -0.3895  1.2785 -0.3268
   92SAPE  H17X 9111   5.674   1.014   4.566 -0.5199 -0.3060 -2.3950
   92SAPE  H17Y 9112   5.796   1.073   4.450  0.3498 -0.3671  1.7328
   92SAPE  C318 9113   5.598   1.108   4.382  0.2256 -0.1547  0.9510
   92SAPE  H18X 9114   5.499   1.137   4.424  0.2623  1.5095 -0.0066
   92SAPE  H18Y 9115   5.607   1.015   4.323  0.3231 -0.3394  1.2562
   92SAPE  H18Z 9116   5.635   1.196   4.325 -1.9996  0.2417  0.0045
   93SAPE     N 9117   2.409   6.751   6.584  0.6451 -0.4121 -0.5530
   93SAPE   HN1 9118   2.470   6.748   6.500  0.1001 -0.8621 -0.9390
   93SAPE   HN2 9119   2.361   6.659   6.588 -2.0271  0.8265 -1.4470
   93SAPE   HN3 9120   2.341   6.820   6.546 -1.1813 -0.6860  1.9668
   93SAPE   C12 9121   2.465   6.813   6.716 -1.0405  0.0352  0.0248
   93SAPE  H12A 9122   2.526   6.901   6.686  0.3768 -1.1385 -0.6664
   93SAPE  H12B 9123   2.535   6.736   6.756 -0.3109  1.5807  1.8951
   93SAPE   C11 9124   2.355   6.841   6.831 -0.5036  0.5172  0.2531
   93SAPE  H11A 9125   2.404   6.894   6.915  1.0090  0.1402 -0.3424
   93SAPE  H11B 9126   2.323   6.745   6.877  2.8163 -0.5367  0.6561
   93SAPE     P 9127   2.252   7.065   6.782 -0.3185 -0.1640 -0.0786
   93SAPE   O13 9128   2.230   7.117   6.923  0.0541  0.5991 -0.0583
   93SAPE   O14 9129   2.378   7.104   6.712 -0.7899 -0.4881 -0.0990
   93SAPE   O12 9130   2.245   6.908   6.779 -0.0718  0.4477 -0.4731
   93SAPE   O11 9131   2.135   7.102   6.688  0.2128 -0.9381 -0.0425
   93SAPE    C1 9132   2.001   7.084   6.721 -0.0177 -0.4242  0.5484
   93SAPE    HA 9133   1.990   6.982   6.763 -1.7241 -0.5532 -0.1412
   93SAPE    HB 9134   1.980   7.151   6.807 -0.2371  3.9245 -2.5587
   93SAPE    C2 9135   1.914   7.117   6.595 -0.1619  0.9097  0.0803
   93SAPE    HS 9136   1.811   7.100   6.631  0.4102 -6.4898 -0.3050
   93SAPE   O21 9137   1.953   7.027   6.488 -0.3368  0.0162  0.0410
   93SAPE   C21 9138   1.866   7.020   6.389  0.2468 -1.1484  0.0440
   93SAPE   O22 9139   1.748   7.050   6.400 -0.2921  0.6310  0.3632
   93SAPE   C22 9140   1.934   6.966   6.259  0.6723 -1.0761  0.2290
   93SAPE   H2R 9141   2.016   7.039   6.240  0.7308 -0.3972  2.6700
   93SAPE   H2S 9142   1.977   6.867   6.287  0.1288 -0.4371  3.9251
   93SAPE    C3 9143   1.941   7.269   6.553  0.0492  0.0071 -0.1079
   93SAPE    HX 9144   2.029   7.273   6.485  0.5484 -0.5360  0.4893
   93SAPE    HY 9145   1.972   7.322   6.646  1.2385 -0.4474 -0.2175
   93SAPE   O31 9146   1.821   7.329   6.497 -0.0944  0.1597  0.5328
   93SAPE   C31 9147   1.822   7.345   6.359  0.6068 -0.2332  0.2503
   93SAPE   O32 9148   1.912   7.312   6.287  0.5230  0.3691 -0.5509
   93SAPE   C32 9149   1.688   7.409   6.309  0.0117 -0.7675  0.2658
   93SAPE   H2X 9150   1.673   7.496   6.376  3.0147  1.0265 -1.2082
   93SAPE   H2Y 9151   1.598   7.347   6.331 -0.9011 -0.0106 -1.1859
   93SAPE   C23 9152   1.829   6.949   6.147  0.1798 -0.1501 -0.2805
   93SAPE   H3R 9153   1.798   7.045   6.102  2.7440  0.2497 -1.3469
   93SAPE   H3S 9154   1.739   6.897   6.186  1.1788 -1.0623  0.8938
   93SAPE   C24 9155   1.892   6.867   6.030  0.7282  0.0949  0.0529
   93SAPE   H4R 9156   1.814   6.830   5.961 -0.4103  0.0401  1.3173
   93SAPE   H4S 9157   1.937   6.781   6.085 -0.7957 -0.1482  0.9840
   93SAPE   C25 9158   1.990   6.949   5.948 -0.1404  0.1867  0.0730
   93SAPE   H5R 9159   2.079   6.973   6.007  1.5394  0.5579 -2.4650
   93SAPE   C26 9160   1.993   7.010   5.827  0.6632  0.1490  0.1254
   93SAPE   H6R 9161   2.087   7.061   5.801  0.4359  1.2595  1.3882
   93SAPE   C27 9162   1.884   7.002   5.721  0.5489 -0.3974 -0.3163
   93SAPE   H7R 9163   1.816   6.914   5.729 -2.3614  1.6918 -0.8450
   93SAPE   H7S 9164   1.933   6.999   5.621 -0.9648  0.9286 -1.1383
   93SAPE   C28 9165   1.805   7.130   5.740 -0.2087  0.2975 -0.3513
   93SAPE   H8R 9166   1.765   7.144   5.842 -0.1964 -0.9699 -0.1568
   93SAPE   C29 9167   1.771   7.216   5.644 -0.1898  0.5989 -0.1969
   93SAPE   H9R 9168   1.714   7.306   5.672 -0.8649  0.0560  0.1879
   93SAPE  C210 9169   1.787   7.193   5.496 -0.2056 -0.2559  0.4162
   93SAPE  H10R 9170   1.697   7.227   5.442  2.7495  0.8349 -4.4533
   93SAPE  H10S 9171   1.800   7.084   5.479  1.6057 -0.4148  2.3834
   93SAPE  C211 9172   1.914   7.258   5.445 -0.4940  0.6175 -0.1344
   93SAPE  H11R 9173   2.006   7.212   5.485  0.9697  2.7047 -0.9342
   93SAPE  C212 9174   1.921   7.355   5.345 -0.1666  0.3036 -0.4251
   93SAPE  H12R 9175   2.017   7.401   5.319  0.1862 -1.6006 -2.7547
   93SAPE  C213 9176   1.805   7.414   5.273  0.4981  0.4654 -0.2106
   93SAPE  H13R 9177   1.704   7.377   5.298  0.3186  0.5624 -0.7768
   93SAPE  H13S 9178   1.818   7.380   5.168 -0.0311  3.0433 -1.2096
   93SAPE  C214 9179   1.811   7.563   5.271 -0.8030  0.0756  0.0886
   93SAPE  H14R 9180   1.839   7.609   5.367  2.1957  0.5302 -0.9030
   93SAPE  C215 9181   1.776   7.644   5.176  0.2043 -0.4005  0.0107
   93SAPE  H15R 9182   1.777   7.753   5.189  2.2903 -0.3930  0.0738
   93SAPE  C216 9183   1.723   7.604   5.040 -0.3981 -0.0759 -0.3900
   93SAPE  H16R 9184   1.643   7.674   5.011 -0.3109  0.9930  1.7170
   93SAPE  H16S 9185   1.672   7.505   5.039 -2.6858  1.0028  0.9547
   93SAPE  C217 9186   1.836   7.602   4.934  0.1726 -0.9302 -0.1925
   93SAPE  H17R 9187   1.812   7.545   4.843  3.2420  0.4046 -2.0006
   93SAPE  H17S 9188   1.936   7.568   4.969  0.7801  0.0376 -0.9424
   93SAPE  C218 9189   1.862   7.748   4.887  0.9345  0.2394 -0.2060
   93SAPE  H18R 9190   1.904   7.816   4.964  2.8558 -2.2092  1.0649
   93SAPE  H18S 9191   1.768   7.791   4.846  0.7746 -0.2523 -0.3608
   93SAPE  C219 9192   1.956   7.767   4.758 -0.0571  0.1683  0.3299
   93SAPE  H19R 9193   1.908   7.710   4.676 -1.2335  0.5239  0.7507
   93SAPE  H19S 9194   2.052   7.721   4.788  1.1422  2.0278 -0.4695
   93SAPE  C220 9195   1.977   7.920   4.733 -0.2904 -0.2576 -0.4282
   93SAPE  H20R 9196   1.882   7.974   4.713 -0.0287  0.2949 -0.2145
   93SAPE  H20S 9197   2.031   7.932   4.637  1.0335  0.5053  0.3773
   93SAPE  H20T 9198   2.036   7.962   4.818 -0.6700 -0.5428 -0.0137
   93SAPE   C33 9199   1.690   7.465   6.161  0.1096 -0.3092  0.2815
   93SAPE   H3X 9200   1.793   7.497   6.135 -0.3239  0.3550 -0.6683
   93SAPE   H3Y 9201   1.617   7.549   6.159  0.4548  0.0499 -3.4811
   93SAPE   C34 9202   1.643   7.356   6.066  1.3115  0.0400 -0.6940
   93SAPE   H4X 9203   1.677   7.256   6.100  0.7917 -0.3989 -1.4368
   93SAPE   H4Y 9204   1.681   7.370   5.962 -1.5017 -0.5361 -1.8934
   93SAPE   C35 9205   1.478   7.345   6.064  0.0585  0.2993 -0.3156
   93SAPE   H5X 9206   1.444   7.398   6.155  2.9355  0.2549  0.8995
   93SAPE   H5Y 9207   1.432   7.244   6.068  1.8154 -0.5070  1.4887
   93SAPE   C36 9208   1.415   7.411   5.943  0.1030 -0.4084 -0.0357
   93SAPE   H6X 9209   1.477   7.499   5.914 -0.1486  0.3929  1.7170
   93SAPE   H6Y 9210   1.311   7.445   5.962  0.2575  1.6176 -2.2544
   93SAPE   C37 9211   1.399   7.311   5.828 -0.3144  0.3115  0.1343
   93SAPE   H7X 9212   1.336   7.226   5.863  0.5167 -0.6725 -0.7076
   93SAPE   H7Y 9213   1.500   7.268   5.815 -0.9853 -1.3591  0.0724
   93SAPE   C38 9214   1.332   7.389   5.715 -0.5244 -0.1381  0.3758
   93SAPE   H8X 9215   1.387   7.481   5.690  0.0343 -0.5085  0.2244
   93SAPE   H8Y 9216   1.232   7.423   5.750 -1.1518 -0.7772 -0.7311
   93SAPE   C39 9217   1.321   7.302   5.590 -0.2150  0.2599  0.1203
   93SAPE   H9X 9218   1.247   7.228   5.626 -1.0232  0.3483 -1.3044
   93SAPE   H9Y 9219   1.416   7.247   5.575 -0.7758 -1.4523  2.3261
   93SAPE  C310 9220   1.250   7.373   5.473 -0.2419  0.3712  0.0487
   93SAPE  H10X 9221   1.165   7.428   5.519 -1.0103 -1.9683  1.5947
   93SAPE  H10Y 9222   1.204   7.295   5.408  0.2878  0.6696 -0.6978
   93SAPE  C311 9223   1.333   7.469   5.395  0.6546 -0.0673  0.3210
   93SAPE  H11X 9224   1.421   7.407   5.370 -0.2106 -1.8223  1.3964
   93SAPE  H11Y 9225   1.375   7.553   5.455  2.1576 -1.2495  0.9891
   93SAPE  C312 9226   1.276   7.523   5.265  0.2791 -0.3659 -0.0060
   93SAPE  H12X 9227   1.219   7.618   5.268 -0.7058 -0.9670  2.3147
   93SAPE  H12Y 9228   1.213   7.441   5.223  1.7883 -1.4822 -0.1869
   93SAPE  C313 9229   1.384   7.527   5.160 -0.0482 -0.0601  0.6116
   93SAPE  H13X 9230   1.437   7.430   5.160 -0.0740 -0.0745  0.2875
   93SAPE  H13Y 9231   1.457   7.601   5.199 -2.0626  2.3439  0.1088
   93SAPE  C314 9232   1.340   7.562   5.020 -0.3547  0.7466  0.8945
   93SAPE  H14X 9233   1.268   7.482   4.992  0.3746  0.4210 -0.1017
   93SAPE  H14Y 9234   1.431   7.559   4.957 -0.5143 -0.1692  0.6991
   93SAPE  C315 9235   1.284   7.704   5.009 -0.5159 -0.1234  0.1425
   93SAPE  H15X 9236   1.343   7.772   5.074 -0.4569  0.7699 -0.8121
   93SAPE  H15Y 9237   1.182   7.707   5.053 -1.1800 -1.6451 -1.2375
   93SAPE  C316 9238   1.307   7.751   4.861  1.0048 -0.5018 -0.0234
   93SAPE  H16X 9239   1.415   7.741   4.835  1.1261 -1.2889  0.7407
   93SAPE  H16Y 9240   1.280   7.858   4.848  1.9099 -0.4353 -1.6556
   93SAPE  C317 9241   1.217   7.678   4.764  0.1580 -0.4107  0.2094
   93SAPE  H17X 9242   1.109   7.703   4.770 -0.1050 -1.3105 -0.5659
   93SAPE  H17Y 9243   1.234   7.569   4.778  1.4869 -0.1494  0.9005
   93SAPE  C318 9244   1.251   7.725   4.626  0.1525 -0.6190  0.5724
   93SAPE  H18X 9245   1.180   7.678   4.555  0.2777  1.0415 -0.7018
   93SAPE  H18Y 9246   1.353   7.698   4.589 -0.1395  1.3566 -1.9990
   93SAPE  H18Z 9247   1.252   7.835   4.609  0.9481 -0.4592  1.5127
   94SAPE     N 9248   0.356   1.429   6.615  0.3603 -0.7211 -0.4551
   94SAPE   HN1 9249   0.290   1.353   6.588 -1.3956  1.4579 -2.8122
   94SAPE   HN2 9250   0.318   1.515   6.570 -1.1679 -1.0191  0.2141
   94SAPE   HN3 9251   0.441   1.400   6.563  0.6559  1.3117 -1.1939
   94SAPE   C12 9252   0.362   1.456   6.759  0.5504  0.6275 -0.3718
   94SAPE  H12A 9253   0.382   1.565   6.765 -0.2060  0.6994  2.3225
   94SAPE  H12B 9254   0.456   1.405   6.791  1.9592  1.4476 -3.0043
   94SAPE   C11 9255   0.234   1.403   6.835 -0.0407  0.1420  0.5427
   94SAPE  H11A 9256   0.231   1.417   6.945 -0.2108 -2.3892  0.9235
   94SAPE  H11B 9257   0.244   1.293   6.819  0.4125  0.5084 -2.0844
   94SAPE     P 9258  -0.007   1.367   6.805  0.3440  0.0329 -0.1502
   94SAPE   O13 9259  -0.003   1.229   6.751 -0.4172 -0.8826  0.9520
   94SAPE   O14 9260  -0.035   1.377   6.950  0.4969 -0.6507  0.3651
   94SAPE   O12 9261   0.119   1.450   6.774  0.0945 -0.6652 -0.2280
   94SAPE   O11 9262  -0.123   1.436   6.724  0.5379 -0.3804  0.3905
   94SAPE    C1 9263  -0.135   1.578   6.714  0.3926 -0.0133 -0.4117
   94SAPE    HA 9264  -0.236   1.609   6.748  0.5797 -0.9345  1.0536
   94SAPE    HB 9265  -0.067   1.634   6.783 -0.8316  0.7773  0.1965
   94SAPE    C2 9266  -0.105   1.626   6.565 -0.1454  0.6751 -0.9759
   94SAPE    HS 9267  -0.150   1.727   6.551 -2.6928 -0.3320 -0.5697
   94SAPE   O21 9268  -0.160   1.542   6.466  0.4428 -0.3214 -0.3265
   94SAPE   C21 9269  -0.287   1.554   6.439 -0.2536  0.0505 -0.1049
   94SAPE   O22 9270  -0.362   1.642   6.484 -0.1673  0.9511 -0.8526
   94SAPE   C22 9271  -0.332   1.436   6.352 -0.6091  0.0386 -0.0116
   94SAPE   H2R 9272  -0.332   1.355   6.428 -2.5343  0.9739  1.0495
   94SAPE   H2S 9273  -0.440   1.451   6.331 -0.5573  1.4415  0.5987
   94SAPE    C3 9274   0.041   1.645   6.539  0.2817  0.5395 -0.3025
   94SAPE    HX 9275   0.088   1.545   6.551 -1.5602 -0.6811 -2.5039
   94SAPE    HY 9276   0.081   1.712   6.618  0.1260  0.5010 -0.1912
   94SAPE   O31 9277   0.059   1.706   6.412  0.0697  0.1467 -0.3131
   94SAPE   C31 9278   0.182   1.690   6.366  0.0507 -0.4846 -0.1105
   94SAPE   O32 9279   0.274   1.635   6.420  0.0886 -0.0726  0.5697
   94SAPE   C32 9280   0.196   1.762   6.235 -0.0205  0.0659 -0.4530
   94SAPE   H2X 9281   0.306   1.772   6.217  0.1512 -0.5082  0.2409
   94SAPE   H2Y 9282   0.141   1.858   6.229 -0.4772 -0.2455 -1.4692
   94SAPE   C23 9283  -0.223   1.421   6.239  0.1241  0.1117  0.5128
   94SAPE   H3R 9284  -0.156   1.338   6.270 -0.5097  0.0692  1.8363
   94SAPE   H3S 9285  -0.155   1.508   6.229  1.4700 -1.0477 -0.8751
   94SAPE   C24 9286  -0.282   1.395   6.097 -0.1263  0.0594 -0.4215
   94SAPE   H4R 9287  -0.194   1.409   6.031 -0.7939  0.3409 -1.2697
   94SAPE   H4S 9288  -0.342   1.485   6.073  0.8619  0.9222  0.2225
   94SAPE   C25 9289  -0.351   1.265   6.072  0.0575 -0.1546 -0.1648
   94SAPE   H5R 9290  -0.414   1.231   6.156 -0.9877 -1.7752 -1.5542
   94SAPE   C26 9291  -0.372   1.206   5.949  0.2823 -0.0806 -0.8523
   94SAPE   H6R 9292  -0.415   1.105   5.946  1.1480 -0.4428 -2.9938
   94SAPE   C27 9293  -0.307   1.251   5.824 -0.1479  0.0101  0.3327
   94SAPE   H7R 9294  -0.256   1.159   5.791  1.2695  0.4431  1.1909
   94SAPE   H7S 9295  -0.222   1.320   5.847 -1.1622  1.1143  0.9289
   94SAPE   C28 9296  -0.413   1.306   5.725 -1.0177 -0.0996  0.3930
   94SAPE   H8R 9297  -0.496   1.358   5.775 -2.7602 -1.2807 -1.1345
   94SAPE   C29 9298  -0.414   1.288   5.594 -0.0269  0.2418  0.0561
   94SAPE   H9R 9299  -0.494   1.331   5.532  0.9225 -0.6030 -1.8623
   94SAPE  C210 9300  -0.304   1.216   5.524  0.3190 -0.5184  0.4543
   94SAPE  H10R 9301  -0.336   1.110   5.513 -0.2724 -0.0908 -2.6743
   94SAPE  H10S 9302  -0.213   1.204   5.588  0.4044 -0.0073  0.4360
   94SAPE  C211 9303  -0.261   1.283   5.395  0.0658 -0.7050 -0.0019
   94SAPE  H11R 9304  -0.203   1.376   5.398 -1.2940  0.2242 -1.3490
   94SAPE  C212 9305  -0.318   1.247   5.274  0.1682  0.2770  0.0254
   94SAPE  H12R 9306  -0.287   1.309   5.188  1.5702 -0.1435  0.2025
   94SAPE  C213 9307  -0.421   1.140   5.241  0.0641 -0.3674  0.6204
   94SAPE  H13R 9308  -0.479   1.096   5.324  0.5033  0.5039  1.4176
   94SAPE  H13S 9309  -0.369   1.064   5.178 -0.6715 -0.9835  0.7453
   94SAPE  C214 9310  -0.537   1.195   5.155  0.6923 -0.2420  0.0449
   94SAPE  H14R 9311  -0.621   1.231   5.216 -2.1626 -1.0410 -3.1686
   94SAPE  C215 9312  -0.554   1.201   5.021 -0.5528 -0.2958 -0.0230
   94SAPE  H15R 9313  -0.635   1.265   4.983 -1.7548 -0.2725  2.4028
   94SAPE  C216 9314  -0.450   1.151   4.927  0.0334 -0.3412  0.8186
   94SAPE  H16R 9315  -0.440   1.041   4.942  0.8393 -0.7475 -2.0319
   94SAPE  H16S 9316  -0.351   1.199   4.945  0.8284 -0.7958 -1.9519
   94SAPE  C217 9317  -0.483   1.158   4.775 -0.5662  0.0590  0.0543
   94SAPE  H17R 9318  -0.581   1.110   4.755 -0.3706  0.2431 -1.4144
   94SAPE  H17S 9319  -0.406   1.108   4.713 -0.1746  0.7978 -0.0686
   94SAPE  C218 9320  -0.496   1.310   4.737 -0.2651  0.3767  0.5333
   94SAPE  H18R 9321  -0.397   1.355   4.759  0.6328 -2.2027  2.2214
   94SAPE  H18S 9322  -0.570   1.355   4.807 -1.0926  0.0849 -0.1333
   94SAPE  C219 9323  -0.541   1.341   4.594  0.2262 -0.9391  0.0676
   94SAPE  H19R 9324  -0.536   1.251   4.530  0.6229  0.3693 -1.8409
   94SAPE  H19S 9325  -0.465   1.413   4.555  0.7670 -0.7991  1.3198
   94SAPE  C220 9326  -0.683   1.393   4.570  0.4955 -0.1091  0.2265
   94SAPE  H20R 9327  -0.705   1.403   4.462  0.9774  2.3653  0.2863
   94SAPE  H20S 9328  -0.695   1.487   4.629 -2.4114 -0.1733 -0.1334
   94SAPE  H20T 9329  -0.760   1.327   4.614  1.1264 -0.8564  0.2171
   94SAPE   C33 9330   0.140   1.665   6.123 -0.5722 -0.2462 -0.4071
   94SAPE   H3X 9331   0.158   1.716   6.026  1.6763 -0.0364  0.0580
   94SAPE   H3Y 9332   0.033   1.638   6.132 -0.6177 -0.5482 -1.6344
   94SAPE   C34 9333   0.212   1.531   6.113  0.1047  0.1072  0.1703
   94SAPE   H4X 9334   0.215   1.470   6.206  1.7741 -0.8969 -0.4898
   94SAPE   H4Y 9335   0.322   1.535   6.093  0.3323 -2.7714  0.3464
   94SAPE   C35 9336   0.147   1.441   6.001  0.5045  0.6920 -0.4999
   94SAPE   H5X 9337   0.050   1.405   6.043  2.1669 -0.4152  2.6612
   94SAPE   H5Y 9338   0.202   1.346   5.986  0.8466  0.7601  0.2506
   94SAPE   C36 9339   0.134   1.503   5.872 -0.1785 -0.0312 -0.1031
   94SAPE   H6X 9340   0.224   1.565   5.853  0.8160 -0.0789  3.7022
   94SAPE   H6Y 9341   0.043   1.566   5.864 -0.4288 -0.3735  0.0077
   94SAPE   C37 9342   0.118   1.406   5.753  0.0038  1.3444 -0.4453
   94SAPE   H7X 9343   0.028   1.346   5.780  0.3892  1.4924  1.3061
   94SAPE   H7Y 9344   0.198   1.330   5.737 -1.5929  0.0175 -2.7458
   94SAPE   C38 9345   0.108   1.485   5.623 -0.5306 -0.7423  0.4839
   94SAPE   H8X 9346   0.183   1.566   5.624 -2.3549  1.0255  0.5986
   94SAPE   H8Y 9347   0.014   1.545   5.628  0.7687  1.3929  0.1843
   94SAPE   C39 9348   0.134   1.392   5.499  0.0085 -0.7223  0.9056
   94SAPE   H9X 9349   0.076   1.298   5.498  0.5439 -1.0646  1.2944
   94SAPE   H9Y 9350   0.239   1.355   5.504  0.3419 -0.0761 -0.7498
   94SAPE  C310 9351   0.101   1.473   5.366 -0.0950  0.7726 -0.4655
   94SAPE  H10X 9352   0.174   1.556   5.354  2.3697 -1.3660 -1.3296
   94SAPE  H10Y 9353  -0.005   1.506   5.370 -0.6758 -1.1268  0.7730
   94SAPE  C311 9354   0.101   1.378   5.246  0.1586 -0.0038 -0.1922
   94SAPE  H11X 9355   0.042   1.286   5.267  0.7420 -0.9249 -2.4004
   94SAPE  H11Y 9356   0.206   1.344   5.235  0.0752  0.2925 -2.1595
   94SAPE  C312 9357   0.050   1.429   5.118 -0.3633 -0.0339 -0.8299
   94SAPE  H12X 9358   0.099   1.526   5.093 -0.1213  0.5397  1.6080
   94SAPE  H12Y 9359  -0.059   1.449   5.121 -0.2196  0.6770  0.2795
   94SAPE  C313 9360   0.079   1.336   5.003  0.1363  0.4562  0.3059
   94SAPE  H13X 9361   0.046   1.236   5.037  0.3241 -0.3987 -1.8529
   94SAPE  H13Y 9362   0.186   1.313   4.980 -0.4834 -0.1832 -2.3258
   94SAPE  C314 9363   0.012   1.378   4.875  0.5057  0.1887  0.4668
   94SAPE  H14X 9364   0.068   1.459   4.825 -0.1655  0.0992 -0.4464
   94SAPE  H14Y 9365  -0.087   1.424   4.899  1.4375  2.4247  0.2520
   94SAPE  C315 9366  -0.022   1.254   4.796 -0.5864  0.5169  0.4476
   94SAPE  H15X 9367  -0.082   1.174   4.844 -0.8955 -0.5809 -1.6165
   94SAPE  H15Y 9368   0.071   1.199   4.768 -1.3155  0.5061 -2.2812
   94SAPE  C316 9369  -0.094   1.280   4.664 -0.6309 -0.0862 -0.6573
   94SAPE  H16X 9370  -0.015   1.338   4.610  1.1932  0.5226  2.4164
   94SAPE  H16Y 9371  -0.178   1.350   4.680  0.3482  1.0906 -0.4839
   94SAPE  C317 9372  -0.135   1.157   4.587  0.9163  0.1942 -0.1761
   94SAPE  H17X 9373  -0.192   1.085   4.650  2.2409 -2.0531 -1.3970
   94SAPE  H17Y 9374  -0.045   1.096   4.567  0.9974  0.4950 -0.7341
   94SAPE  C318 9375  -0.199   1.187   4.450  0.0677  0.2683 -0.4715
   94SAPE  H18X 9376  -0.298   1.236   4.464  0.1658  0.3678 -0.1117
   94SAPE  H18Y 9377  -0.231   1.089   4.410  2.8569 -0.2518 -1.6358
   94SAPE  H18Z 9378  -0.130   1.243   4.384 -1.0852 -0.0777 -2.0178
   95SAPE     N 9379   5.388   6.783   6.585 -0.0945  0.0999 -0.2530
   95SAPE   HN1 9380   5.402   6.813   6.684  0.2405 -1.9113  0.3376
   95SAPE   HN2 9381   5.286   6.761   6.586 -0.2857  0.8406  1.4527
   95SAPE   HN3 9382   5.442   6.697   6.569  1.0276  0.5089  1.1227
   95SAPE   C12 9383   5.423   6.888   6.482 -0.7427  0.2254  0.5117
   95SAPE  H12A 9384   5.328   6.922   6.436 -1.6793 -1.9558  0.6977
   95SAPE  H12B 9385   5.469   6.826   6.402  0.0514  0.7279  0.5753
   95SAPE   C11 9386   5.481   7.014   6.547 -0.0451 -0.4706  0.0302
   95SAPE  H11A 9387   5.517   7.068   6.457 -0.4455  0.1977  0.2672
   95SAPE  H11B 9388   5.570   6.992   6.610 -0.5174  1.6433  1.5461
   95SAPE     P 9389   5.380   7.245   6.611  0.3108 -0.2243 -0.0838
   95SAPE   O13 9390   5.257   7.282   6.681  0.3550  0.4059 -0.4700
   95SAPE   O14 9391   5.502   7.306   6.663 -0.1650 -0.0489 -0.3402
   95SAPE   O12 9392   5.387   7.086   6.630 -0.4151 -0.0049 -0.1200
   95SAPE   O11 9393   5.373   7.264   6.457 -0.4967  0.2299  0.1347
   95SAPE    C1 9394   5.401   7.388   6.399  0.5155 -0.1833  0.6318
   95SAPE    HA 9395   5.495   7.431   6.440  0.8736  0.2896 -0.6357
   95SAPE    HB 9396   5.429   7.372   6.292  2.3557 -1.8206  1.3067
   95SAPE    C2 9397   5.275   7.488   6.402  0.7512  0.6492  0.1905
   95SAPE    HS 9398   5.232   7.483   6.504  1.8252  1.4179  0.7077
   95SAPE   O21 9399   5.176   7.467   6.301  0.5532 -0.0556  0.2076
   95SAPE   C21 9400   5.101   7.362   6.328  0.2544 -0.3783  0.1177
   95SAPE   O22 9401   5.082   7.313   6.436 -0.0516  0.2153 -0.6450
   95SAPE   C22 9402   5.040   7.305   6.202  0.6680 -0.3466  0.5939
   95SAPE   H2R 9403   4.971   7.231   6.246 -0.0083  0.9127  1.7332
   95SAPE   H2S 9404   4.978   7.380   6.148 -1.4433 -1.6356  1.1019
   95SAPE    C3 9405   5.331   7.628   6.381  0.4503  0.0883  1.3175
   95SAPE    HX 9406   5.395   7.657   6.468  0.7432  3.7231  0.0478
   95SAPE    HY 9407   5.241   7.692   6.378 -1.0014 -1.9174 -0.8880
   95SAPE   O31 9408   5.399   7.652   6.256 -0.0588  0.0198  0.0036
   95SAPE   C31 9409   5.446   7.777   6.242  0.2897  0.0278  0.2404
   95SAPE   O32 9410   5.437   7.866   6.324 -0.0022 -0.1162  0.2631
   95SAPE   C32 9411   5.515   7.792   6.107  0.1518 -0.8341 -0.3007
   95SAPE   H2X 9412   5.588   7.711   6.087  0.3629 -0.2789 -1.9224
   95SAPE   H2Y 9413   5.576   7.881   6.132  1.7138 -2.1734  0.8930
   95SAPE   C23 9414   5.149   7.244   6.098  0.1026  0.7119  0.3026
   95SAPE   H3R 9415   5.221   7.327   6.083 -1.2348  1.8189 -0.2073
   95SAPE   H3S 9416   5.091   7.221   6.005 -0.1870 -0.9822  0.8714
   95SAPE   C24 9417   5.223   7.130   6.171 -0.5043 -0.9096  0.4046
   95SAPE   H4R 9418   5.261   7.154   6.272  1.0602  0.6724 -0.4925
   95SAPE   H4S 9419   5.314   7.110   6.111 -1.8624  0.4509 -2.3133
   95SAPE   C25 9420   5.137   7.015   6.169 -0.9166 -0.1121  0.1799
   95SAPE   H5R 9421   5.093   7.004   6.269  1.2082 -1.1184  1.0692
   95SAPE   C26 9422   5.119   6.922   6.084  0.4544  0.4268 -0.1199
   95SAPE   H6R 9423   5.056   6.838   6.113  2.0763 -0.2304  1.7394
   95SAPE   C27 9424   5.186   6.912   5.950  1.1149 -0.4697  0.0969
   95SAPE   H7R 9425   5.208   6.806   5.925  1.0379 -0.1477 -1.4779
   95SAPE   H7S 9426   5.281   6.970   5.944 -0.4848  2.2506 -0.8612
   95SAPE   C28 9427   5.082   6.965   5.851 -0.1210 -1.1862 -0.3698
   95SAPE   H8R 9428   4.981   6.995   5.884 -0.1735 -0.9901 -0.7057
   95SAPE   C29 9429   5.098   6.984   5.723  0.1600  0.2667  0.1821
   95SAPE   H9R 9430   5.013   7.022   5.665  0.1452  0.1594  0.1326
   95SAPE  C210 9431   5.231   6.955   5.653 -0.1473  0.3040  0.2761
   95SAPE  H10R 9432   5.220   6.876   5.576 -2.3115  0.0501  0.7953
   95SAPE  H10S 9433   5.312   6.905   5.712 -0.2705 -1.4065 -0.9339
   95SAPE  C211 9434   5.285   7.083   5.595  0.1334 -1.1542  0.3935
   95SAPE  H11R 9435   5.369   7.122   5.654  1.3590 -1.2857 -1.2176
   95SAPE  C212 9436   5.273   7.129   5.470 -0.4481  0.1051  0.2333
   95SAPE  H12R 9437   5.324   7.221   5.438  0.9423 -1.2594 -1.6295
   95SAPE  C213 9438   5.186   7.069   5.359  0.4304 -0.3255 -0.3257
   95SAPE  H13R 9439   5.120   6.988   5.396 -0.3277 -0.3770 -1.7175
   95SAPE  H13S 9440   5.257   7.026   5.285 -0.6421  0.6265 -1.9628
   95SAPE  C214 9441   5.105   7.175   5.282  0.7364 -0.9065 -0.1394
   95SAPE  H14R 9442   5.000   7.179   5.313  1.4898 -0.8160  2.6925
   95SAPE  C215 9443   5.147   7.248   5.176 -0.6902  0.2951  0.2161
   95SAPE  H15R 9444   5.079   7.318   5.125 -2.9962 -3.6394 -2.6586
   95SAPE  C216 9445   5.293   7.253   5.120  0.5192  0.5397 -0.5378
   95SAPE  H16R 9446   5.366   7.197   5.183  1.7307  0.7213 -1.7362
   95SAPE  H16S 9447   5.328   7.358   5.128 -0.5859  0.9159 -0.4814
   95SAPE  C217 9448   5.293   7.209   4.977  0.0126 -0.1610  0.3860
   95SAPE  H17R 9449   5.397   7.222   4.939  0.1471  1.1157  1.1033
   95SAPE  H17S 9450   5.238   7.272   4.903  0.7347  0.3810  0.2904
   95SAPE  C218 9451   5.265   7.057   4.941 -0.2861  0.1638 -0.4691
   95SAPE  H18R 9452   5.155   7.045   4.934 -0.2179 -0.8407 -0.0379
   95SAPE  H18S 9453   5.306   6.995   5.023 -2.4011 -1.1198 -0.3163
   95SAPE  C219 9454   5.329   7.003   4.810 -0.2883 -0.6013 -0.7921
   95SAPE  H19R 9455   5.326   6.892   4.816 -1.3679 -0.6471 -1.7938
   95SAPE  H19S 9456   5.434   7.038   4.812  0.0518 -1.6039 -0.6869
   95SAPE  C220 9457   5.266   7.046   4.678 -0.2825  0.9123 -0.2296
   95SAPE  H20R 9458   5.311   6.989   4.594 -0.6627  1.2302 -0.6577
   95SAPE  H20S 9459   5.279   7.152   4.646  1.4618  0.0207 -2.7683
   95SAPE  H20T 9460   5.158   7.017   4.679  0.2395 -1.1802  1.0260
   95SAPE   C33 9461   5.419   7.798   5.981  0.5578 -0.4943  0.4594
   95SAPE   H3X 9462   5.370   7.699   5.975  0.2422 -0.2895 -4.1285
   95SAPE   H3Y 9463   5.481   7.796   5.889  1.6121  0.8937  1.0867
   95SAPE   C34 9464   5.313   7.907   5.979  0.0141 -0.3543 -0.1308
   95SAPE   H4X 9465   5.261   7.914   6.077 -0.6855 -0.4595 -0.4891
   95SAPE   H4Y 9466   5.239   7.869   5.905 -0.8506  0.2443  0.4244
   95SAPE   C35 9467   5.350   8.049   5.926  0.2495  0.0504  0.2114
   95SAPE   H5X 9468   5.413   8.101   6.002  1.4993 -0.7275 -0.2616
   95SAPE   H5Y 9469   5.262   8.114   5.910  1.6421  1.7898 -0.6628
   95SAPE   C36 9470   5.417   8.043   5.788  0.1683 -0.6993 -0.2958
   95SAPE   H6X 9471   5.345   7.990   5.720 -0.5871 -1.6650  1.2043
   95SAPE   H6Y 9472   5.511   7.985   5.791 -0.4449 -1.7472 -0.6170
   95SAPE   C37 9473   5.437   8.189   5.732 -0.4315  0.4840 -0.0415
   95SAPE   H7X 9474   5.509   8.239   5.800 -0.9829  1.3423 -0.0671
   95SAPE   H7Y 9475   5.340   8.243   5.739 -1.2292 -0.8736 -0.3781
   95SAPE   C38 9476   5.487   8.190   5.585  0.3843 -0.1491 -0.3282
   95SAPE   H8X 9477   5.579   8.131   5.568 -0.6876 -1.4337 -2.0484
   95SAPE   H8Y 9478   5.520   8.296   5.573  2.4806 -0.7932 -0.5994
   95SAPE   C39 9479   5.382   8.158   5.480 -0.7518 -0.0499  0.6184
   95SAPE   H9X 9480   5.292   8.221   5.491 -1.1655 -0.5883  0.3657
   95SAPE   H9Y 9481   5.349   8.052   5.477 -2.8485  0.5288 -3.0051
   95SAPE  C310 9482   5.454   8.170   5.350  0.2273 -0.7578  0.5009
   95SAPE  H10X 9483   5.518   8.080   5.354  1.9348  0.4327  1.1641
   95SAPE  H10Y 9484   5.526   8.253   5.366  0.6976 -1.1265  0.3100
   95SAPE  C311 9485   5.358   8.179   5.225 -0.6746  0.7982 -0.5815
   95SAPE  H11X 9486   5.268   8.239   5.247 -0.8832  0.8425 -1.5002
   95SAPE  H11Y 9487   5.316   8.076   5.215 -0.1037  0.2626  1.9677
   95SAPE  C312 9488   5.421   8.233   5.105 -0.1044 -0.2722 -0.9362
   95SAPE  H12X 9489   5.502   8.163   5.076 -0.6147 -1.1330 -0.3247
   95SAPE  H12Y 9490   5.477   8.326   5.128  1.7070 -1.2793 -1.1044
   95SAPE  C313 9491   5.325   8.238   4.978 -0.4535  0.5954 -0.2888
   95SAPE  H13X 9492   5.232   8.295   4.998 -2.8213 -1.4393 -4.2535
   95SAPE  H13Y 9493   5.303   8.131   4.959  2.0448  0.0615 -0.5541
   95SAPE  C314 9494   5.395   8.283   4.850 -0.3036  0.1647 -0.5325
   95SAPE  H14X 9495   5.336   8.249   4.763 -1.3161  2.5062 -0.8191
   95SAPE  H14Y 9496   5.498   8.241   4.843  0.5642  2.1274 -0.2162
   95SAPE  C315 9497   5.403   8.437   4.835  1.0939  0.0470  0.0011
   95SAPE  H15X 9498   5.439   8.486   4.927 -1.3650 -0.0027  1.0646
   95SAPE  H15Y 9499   5.298   8.472   4.827  0.9973  0.3677  2.1489
   95SAPE  C316 9500   5.495   8.493   4.729 -0.1466 -0.2551 -0.2959
   95SAPE  H16X 9501   5.601   8.486   4.762  0.9075  1.6588 -2.9196
   95SAPE  H16Y 9502   5.473   8.599   4.705  1.0769  0.3654  1.2129
   95SAPE  C317 9503   5.491   8.419   4.597  0.3180 -0.4495 -0.7156
   95SAPE  H17X 9504   5.389   8.422   4.553  0.1310  1.2914 -0.2379
   95SAPE  H17Y 9505   5.523   8.313   4.612 -0.7845 -0.6205  0.5252
   95SAPE  C318 9506   5.584   8.485   4.501 -0.1101  0.3972  0.3304
   95SAPE  H18X 9507   5.672   8.522   4.557  0.2466  0.2471 -0.1268
   95SAPE  H18Y 9508   5.531   8.553   4.432  2.8852  0.0685 -2.5230
   95SAPE  H18Z 9509   5.620   8.412   4.425 -0.9084 -0.6368  0.9131
   96SAPE     N 9510   0.171   2.512   6.645 -0.8842  0.5602 -0.7977
   96SAPE   HN1 9511   0.208   2.482   6.553 -0.0550 -2.3079  0.3580
   96SAPE   HN2 9512   0.220   2.592   6.690 -0.8502  0.8989 -1.4293
   96SAPE   HN3 9513   0.186   2.432   6.710 -1.4776  1.4965  0.5472
   96SAPE   C12 9514   0.019   2.530   6.639 -0.0120 -0.9522  0.2050
   96SAPE  H12A 9515  -0.014   2.431   6.600 -1.6166 -0.0068 -0.9264
   96SAPE  H12B 9516  -0.005   2.599   6.555  0.3753  0.2228  1.0384
   96SAPE   C11 9517  -0.054   2.570   6.769 -0.2951 -0.2658  0.5285
   96SAPE  H11A 9518  -0.015   2.499   6.845  0.6222 -0.7376 -0.3619
   96SAPE  H11B 9519  -0.163   2.557   6.753 -0.1332 -0.2144 -0.6949
   96SAPE     P 9520  -0.053   2.844   6.736  0.0639 -0.2859  0.2226
   96SAPE   O13 9521  -0.100   2.935   6.840  0.3800  0.2367 -0.0063
   96SAPE   O14 9522   0.072   2.874   6.666 -0.0796  0.1174  0.2978
   96SAPE   O12 9523  -0.030   2.707   6.809  0.0523 -0.3879 -0.1024
   96SAPE   O11 9524  -0.163   2.827   6.631 -0.0068 -0.2575 -0.4588
   96SAPE    C1 9525  -0.194   2.919   6.519  0.2557 -1.0325 -1.0082
   96SAPE    HA 9526  -0.304   2.931   6.516  0.4073  0.3034 -2.2191
   96SAPE    HB 9527  -0.156   3.022   6.536 -0.9587 -1.0444  2.6234
   96SAPE    C2 9528  -0.138   2.866   6.390  0.8563  0.2225  0.7710
   96SAPE    HS 9529  -0.069   2.784   6.420  0.7616 -0.1130  0.1076
   96SAPE   O21 9530  -0.077   2.972   6.317 -0.2166  0.7427  0.2237
   96SAPE   C21 9531   0.028   2.937   6.251  0.3966 -0.5402 -0.2974
   96SAPE   O22 9532   0.093   2.830   6.263  0.5062 -0.0181  0.4139
   96SAPE   C22 9533   0.058   3.046   6.152  0.0028  0.5866 -0.3326
   96SAPE   H2R 9534   0.011   3.024   6.054 -1.6569 -3.1459  1.1191
   96SAPE   H2S 9535   0.013   3.139   6.193  0.4816  1.4931 -1.7654
   96SAPE    C3 9536  -0.245   2.794   6.299 -0.1730  0.8006  0.3241
   96SAPE    HX 9537  -0.295   2.868   6.234  3.2365  0.5314 -2.9460
   96SAPE    HY 9538  -0.313   2.741   6.369  0.7449 -0.9036 -0.0199
   96SAPE   O31 9539  -0.185   2.704   6.206  0.3240  0.4486 -0.0349
   96SAPE   C31 9540  -0.134   2.589   6.252  0.3217 -0.5823  0.2189
   96SAPE   O32 9541  -0.151   2.544   6.364  0.4586 -0.2956 -0.4218
   96SAPE   C32 9542  -0.053   2.518   6.141 -0.0507 -0.2327  0.0283
   96SAPE   H2X 9543   0.051   2.541   6.172 -0.7685 -1.7309  4.2870
   96SAPE   H2Y 9544  -0.084   2.566   6.046 -2.1637  1.2263  1.3640
   96SAPE   C23 9545   0.208   3.078   6.134 -0.2897 -0.0206 -0.2894
   96SAPE   H3R 9546   0.249   3.021   6.048  1.7551  1.8703 -0.6470
   96SAPE   H3S 9547   0.266   3.039   6.221  0.7026 -1.0816 -1.3876
   96SAPE   C24 9548   0.237   3.231   6.109  0.2161  0.5317 -0.5593
   96SAPE   H4R 9549   0.237   3.280   6.209  0.0613  1.1274 -0.8495
   96SAPE   H4S 9550   0.154   3.270   6.046 -1.8129 -0.0964  1.5342
   96SAPE   C25 9551   0.373   3.250   6.050  0.3659 -0.0069  0.1182
   96SAPE   H5R 9552   0.447   3.253   6.132  1.2573  0.4292 -0.6780
   96SAPE   C26 9553   0.395   3.281   5.925 -0.2667  0.0435 -0.8422
   96SAPE   H6R 9554   0.499   3.300   5.894  0.4434 -0.6420  1.0059
   96SAPE   C27 9555   0.297   3.273   5.808 -1.3409  0.2660 -0.2399
   96SAPE   H7R 9556   0.329   3.342   5.727 -2.2812 -1.3338 -2.0454
   96SAPE   H7S 9557   0.205   3.319   5.850 -1.5935  0.5014 -1.0288
   96SAPE   C28 9558   0.278   3.136   5.756  0.0749  0.4443 -0.4109
   96SAPE   H8R 9559   0.285   3.056   5.832  1.1930 -0.1682 -1.1334
   96SAPE   C29 9560   0.239   3.106   5.629 -0.3160 -0.6171 -0.2989
   96SAPE   H9R 9561   0.215   3.000   5.614 -0.0755 -0.9737  1.6565
   96SAPE  C210 9562   0.215   3.207   5.515 -0.3983 -0.0266  0.0157
   96SAPE  H10R 9563   0.172   3.299   5.562  1.6364  0.4767  0.9977
   96SAPE  H10S 9564   0.133   3.172   5.449  0.6354 -0.7582 -0.8933
   96SAPE  C211 9565   0.349   3.239   5.448 -0.4420 -0.4899  0.4124
   96SAPE  H11R 9566   0.404   3.303   5.519 -0.0062  0.1089 -0.4419
   96SAPE  C212 9567   0.400   3.210   5.332  0.1918 -0.2309 -0.1451
   96SAPE  H12R 9568   0.503   3.244   5.312 -0.1695  1.6861  1.0054
   96SAPE  C213 9569   0.335   3.113   5.234  0.1239  0.2005 -0.5596
   96SAPE  H13R 9570   0.246   3.069   5.284 -0.6171 -0.2042 -2.1634
   96SAPE  H13S 9571   0.406   3.032   5.208 -1.8830 -1.5032 -1.0795
   96SAPE  C214 9572   0.293   3.187   5.114 -0.0705  0.1702  0.3136
   96SAPE  H14R 9573   0.245   3.284   5.134 -1.9793 -0.8300  0.8194
   96SAPE  C215 9574   0.294   3.132   4.990 -0.0451 -1.1021 -0.3979
   96SAPE  H15R 9575   0.251   3.189   4.906 -0.7818 -2.3442 -0.8824
   96SAPE  C216 9576   0.342   2.999   4.938 -0.4503  0.2619 -0.8926
   96SAPE  H16R 9577   0.392   2.945   5.021  0.6292  0.3354 -1.4827
   96SAPE  H16S 9578   0.421   3.020   4.863  0.8811  1.4162  0.7653
   96SAPE  C217 9579   0.227   2.917   4.872 -0.0482 -0.9230 -0.6114
   96SAPE  H17R 9580   0.143   2.911   4.944  2.3592  0.3359  2.5192
   96SAPE  H17S 9581   0.268   2.814   4.860  1.7131 -0.5682  1.6676
   96SAPE  C218 9582   0.189   2.980   4.738 -0.0800  0.0453  0.3131
   96SAPE  H18R 9583   0.276   3.006   4.676 -0.0390  0.6161  0.6086
   96SAPE  H18S 9584   0.148   3.080   4.765 -0.2615  0.1743 -0.4396
   96SAPE  C219 9585   0.088   2.890   4.660  0.4680 -0.3247  0.2677
   96SAPE  H19R 9586   0.066   2.951   4.570  0.0120 -0.8997 -0.0191
   96SAPE  H19S 9587  -0.007   2.892   4.716  0.3270 -0.5555  0.0411
   96SAPE  C220 9588   0.127   2.747   4.642 -0.0538  0.4286  0.6403
   96SAPE  H20R 9589   0.235   2.743   4.614 -0.8042  0.1156 -2.6397
   96SAPE  H20S 9590   0.063   2.702   4.564 -0.7443  0.7994  0.9894
   96SAPE  H20T 9591   0.112   2.685   4.733  0.6051 -1.9733 -0.7795
   96SAPE   C33 9592  -0.081   2.366   6.123  0.2034  0.0327  1.0694
   96SAPE   H3X 9593  -0.180   2.359   6.074 -0.2027  0.4237  1.8249
   96SAPE   H3Y 9594  -0.087   2.329   6.227 -0.0895  1.1760  1.4774
   96SAPE   C34 9595   0.024   2.304   6.025 -0.3006 -0.1090  0.2627
   96SAPE   H4X 9596   0.128   2.317   6.063  0.1447  0.9112 -1.1893
   96SAPE   H4Y 9597   0.023   2.361   5.929  0.8565  0.1164  0.3672
   96SAPE   C35 9598  -0.014   2.155   5.998 -0.2441 -0.8386 -0.2714
   96SAPE   H5X 9599  -0.119   2.162   5.962  0.2971  0.2388 -1.7551
   96SAPE   H5Y 9600   0.000   2.094   6.089  5.9229  1.7613  1.0011
   96SAPE   C36 9601   0.068   2.109   5.881 -0.1490  0.7789  0.0557
   96SAPE   H6X 9602   0.174   2.139   5.892  0.1558 -0.4321  0.5639
   96SAPE   H6Y 9603   0.030   2.141   5.781 -0.5260 -0.3047 -0.1570
   96SAPE   C37 9604   0.077   1.957   5.881 -0.4691 -0.4595 -0.0127
   96SAPE   H7X 9605  -0.022   1.908   5.870 -0.8827  0.3129  0.2379
   96SAPE   H7Y 9606   0.130   1.936   5.976 -0.7190 -0.3278  0.1566
   96SAPE   C38 9607   0.166   1.910   5.763  0.1899  0.4117  0.4060
   96SAPE   H8X 9608   0.156   1.799   5.758  0.8286  0.3440  0.5087
   96SAPE   H8Y 9609   0.273   1.924   5.790  1.1418 -0.3262 -2.6573
   96SAPE   C39 9610   0.134   1.964   5.632 -0.0567  0.0844  1.0608
   96SAPE   H9X 9611   0.148   2.073   5.623 -3.0124  0.4930  0.3115
   96SAPE   H9Y 9612   0.028   1.950   5.601  1.1353 -0.6524 -3.5239
   96SAPE  C310 9613   0.218   1.897   5.531  0.1334  0.0286  0.1676
   96SAPE  H10X 9614   0.202   1.787   5.524 -1.3122  0.0259  2.4097
   96SAPE  H10Y 9615   0.322   1.913   5.567 -0.6052  3.3665  1.1334
   96SAPE  C311 9616   0.202   1.961   5.386 -0.0798  0.7308  0.2385
   96SAPE  H11X 9617   0.283   1.940   5.313 -1.5603  1.0437 -1.5827
   96SAPE  H11Y 9618   0.184   2.070   5.398 -1.4261  0.2454  3.4184
   96SAPE  C312 9619   0.076   1.911   5.312 -0.1864  0.4273 -0.2271
   96SAPE  H12X 9620  -0.014   1.904   5.377 -0.9221  0.9238 -1.1615
   96SAPE  H12Y 9621   0.098   1.810   5.272  2.6549  0.5362  0.8341
   96SAPE  C313 9622   0.035   2.011   5.200  0.5244  0.3148  1.0169
   96SAPE  H13X 9623   0.003   2.109   5.240  2.6847  0.3531  2.8030
   96SAPE  H13Y 9624  -0.052   1.970   5.144 -0.5351  1.6979  1.5953
   96SAPE  C314 9625   0.149   2.037   5.096  0.6656  0.2606  0.2329
   96SAPE  H14X 9626   0.188   1.936   5.072  0.2053 -0.7790  3.3900
   96SAPE  H14Y 9627   0.234   2.098   5.134  0.6174  0.6189 -0.2200
   96SAPE  C315 9628   0.101   2.100   4.964 -0.9199  0.0362 -0.5931
   96SAPE  H15X 9629   0.089   2.208   4.986 -0.4663 -0.5044  2.8075
   96SAPE  H15Y 9630  -0.003   2.067   4.941 -1.8508  0.4246  2.5818
   96SAPE  C316 9631   0.179   2.063   4.835  0.7664  0.9810 -0.3887
   96SAPE  H16X 9632   0.173   1.956   4.807 -0.5607  1.3387 -1.6159
   96SAPE  H16Y 9633   0.285   2.086   4.862  0.8918 -0.1193  0.0946
   96SAPE  C317 9634   0.142   2.151   4.719  0.0357 -0.2042  0.5798
   96SAPE  H17X 9635   0.128   2.259   4.744 -0.4730 -0.3474  0.9390
   96SAPE  H17Y 9636   0.042   2.115   4.687  1.1185 -1.0225 -2.0887
   96SAPE  C318 9637   0.235   2.142   4.601 -0.3759 -0.0170  0.1197
   96SAPE  H18X 9638   0.207   2.047   4.550 -0.0487 -0.7526  1.2818
   96SAPE  H18Y 9639   0.343   2.140   4.629 -0.4419 -0.0872  0.3710
   96SAPE  H18Z 9640   0.211   2.213   4.520  0.1569 -0.6969 -0.6545
   97SAPE     N 9641   1.267   3.366   6.749  0.8189 -0.5374 -0.8508
   97SAPE   HN1 9642   1.335   3.303   6.704 -0.7456 -0.9784 -2.7309
   97SAPE   HN2 9643   1.247   3.331   6.845  1.3845  1.9959  0.2818
   97SAPE   HN3 9644   1.179   3.374   6.694 -1.7812  2.0587  3.1353
   97SAPE   C12 9645   1.328   3.502   6.763  0.3052 -0.1935 -0.5579
   97SAPE  H12A 9646   1.332   3.545   6.661 -0.6465 -1.2880 -1.0747
   97SAPE  H12B 9647   1.427   3.475   6.806 -0.3637 -1.3522  0.2888
   97SAPE   C11 9648   1.252   3.592   6.858  0.5288  0.5779 -0.8882
   97SAPE  H11A 9649   1.246   3.536   6.954 -1.7978  1.1987 -0.6114
   97SAPE  H11B 9650   1.147   3.605   6.822 -0.4927 -0.1012  1.6307
   97SAPE     P 9651   1.241   3.851   6.910 -0.0530  0.2424 -0.0313
   97SAPE   O13 9652   1.101   3.814   6.936 -0.0136 -0.7233  0.0704
   97SAPE   O14 9653   1.308   3.937   7.010  0.3940  0.1531  0.6771
   97SAPE   O12 9654   1.321   3.719   6.893 -0.4078 -0.6703  0.6097
   97SAPE   O11 9655   1.255   3.918   6.767 -0.2269  0.3180  0.2368
   97SAPE    C1 9656   1.277   3.841   6.647 -0.0111 -0.4009  0.2120
   97SAPE    HA 9657   1.351   3.759   6.661 -0.7648 -1.5649 -2.1671
   97SAPE    HB 9658   1.182   3.795   6.614  0.0840 -0.1410 -0.4422
   97SAPE    C2 9659   1.327   3.931   6.536 -0.0489 -0.2835  0.3956
   97SAPE    HS 9660   1.426   3.973   6.564  0.1368 -1.0105  0.8628
   97SAPE   O21 9661   1.243   4.045   6.509 -0.2604  0.8193  0.1189
   97SAPE   C21 9662   1.306   4.156   6.472  0.3003  0.4532 -0.1443
   97SAPE   O22 9663   1.424   4.168   6.440 -0.4031 -0.3059 -0.4344
   97SAPE   C22 9664   1.208   4.281   6.475 -0.2770  0.0353 -0.3017
   97SAPE   H2R 9665   1.179   4.298   6.581 -0.3286 -2.1536  0.0898
   97SAPE   H2S 9666   1.266   4.367   6.434  0.8493  0.7563  2.5757
   97SAPE    C3 9667   1.354   3.848   6.407 -1.2238 -0.0570 -1.0286
   97SAPE    HX 9668   1.261   3.803   6.365 -1.0163  0.9254 -2.6452
   97SAPE    HY 9669   1.416   3.762   6.440 -1.7856  0.2368  0.9192
   97SAPE   O31 9670   1.412   3.931   6.303 -0.3387  0.4413 -0.1938
   97SAPE   C31 9671   1.480   3.868   6.206 -0.5498  0.5355 -0.2617
   97SAPE   O32 9672   1.492   3.750   6.195 -0.6163  0.7821 -0.0965
   97SAPE   C32 9673   1.527   3.969   6.104  0.3059 -0.4451  0.0962
   97SAPE   H2X 9674   1.551   4.063   6.157 -0.2723 -0.4940  0.4505
   97SAPE   H2Y 9675   1.450   3.994   6.028 -1.2826 -3.6097  0.5062
   97SAPE   C23 9676   1.079   4.262   6.392 -0.3884 -1.2113 -0.0172
   97SAPE   H3R 9677   1.010   4.199   6.452 -2.4536  0.7753 -0.1892
   97SAPE   H3S 9678   1.097   4.213   6.294 -1.5822 -0.4210 -0.6621
   97SAPE   C24 9679   1.014   4.405   6.385  0.0800  0.3214  0.6268
   97SAPE   H4R 9680   1.086   4.480   6.345 -1.1133  2.0052  1.4837
   97SAPE   H4S 9681   0.994   4.435   6.490  0.7546  0.0407  0.8407
   97SAPE   C25 9682   0.885   4.416   6.302 -0.2913  0.2983  0.1391
   97SAPE   H5R 9683   0.795   4.379   6.353  1.8046 -0.8860  3.2805
   97SAPE   C26 9684   0.867   4.470   6.179  0.0830  0.2608  0.2699
   97SAPE   H6R 9685   0.764   4.482   6.144 -0.6450 -2.1156  1.3727
   97SAPE   C27 9686   0.972   4.527   6.094 -0.3403 -0.2628  0.0808
   97SAPE   H7R 9687   1.072   4.517   6.140 -0.9735  0.2322  1.6279
   97SAPE   H7S 9688   0.954   4.637   6.088 -2.3404 -0.5925 -0.6572
   97SAPE   C28 9689   0.981   4.461   5.961  0.2623  0.6518  0.4983
   97SAPE   H8R 9690   1.049   4.374   5.957  1.3985  1.5466 -1.7912
   97SAPE   C29 9691   0.907   4.487   5.852 -0.5966 -0.4234  0.7655
   97SAPE   H9R 9692   0.922   4.418   5.768 -0.6519  0.6755 -0.1652
   97SAPE  C210 9693   0.809   4.594   5.829  0.0123 -0.0297  0.0030
   97SAPE  H10R 9694   0.869   4.687   5.821  1.5862 -1.0895 -1.0025
   97SAPE  H10S 9695   0.754   4.605   5.925  1.1192 -1.3815  0.8251
   97SAPE  C211 9696   0.712   4.589   5.710  0.4194  0.0552  0.6453
   97SAPE  H11R 9697   0.620   4.532   5.729  1.8605 -2.8269 -0.4502
   97SAPE  C212 9698   0.748   4.618   5.582 -0.4842  1.0376  0.1002
   97SAPE  H12R 9699   0.690   4.611   5.489 -0.1266 -0.7873 -0.0261
   97SAPE  C213 9700   0.876   4.675   5.549 -0.4343  0.0014 -0.5179
   97SAPE  H13R 9701   0.951   4.593   5.554 -2.3080 -1.7098  1.6017
   97SAPE  H13S 9702   0.908   4.746   5.628 -2.4742 -0.8689  1.1929
   97SAPE  C214 9703   0.878   4.748   5.418 -0.5672  0.1840 -0.4642
   97SAPE  H14R 9704   0.847   4.852   5.429  0.2952  0.3216  0.9822
   97SAPE  C215 9705   0.901   4.689   5.305  0.3469 -0.3111  0.7961
   97SAPE  H15R 9706   0.905   4.746   5.212  0.3458 -0.7211  0.5415
   97SAPE  C216 9707   0.940   4.541   5.289 -0.7625 -0.4976 -0.1580
   97SAPE  H16R 9708   0.852   4.482   5.256 -1.6598 -0.7591  2.4468
   97SAPE  H16S 9709   0.965   4.493   5.386 -1.1686  0.1373  0.2646
   97SAPE  C217 9710   1.049   4.514   5.192 -0.4383  0.4652 -0.2534
   97SAPE  H17R 9711   1.065   4.405   5.182  1.2945  0.7728 -1.2044
   97SAPE  H17S 9712   1.148   4.552   5.222 -0.0220 -0.3818 -0.5283
   97SAPE  C218 9713   1.008   4.554   5.043 -0.9167 -0.4578  0.0951
   97SAPE  H18R 9714   0.993   4.663   5.031  0.3939 -0.4523 -2.0227
   97SAPE  H18S 9715   0.911   4.506   5.022 -1.4398  1.3851 -1.9841
   97SAPE  C219 9716   1.133   4.528   4.949 -0.3932 -0.2881 -0.0731
   97SAPE  H19R 9717   1.151   4.418   4.950 -0.1538 -0.3253 -2.5601
   97SAPE  H19S 9718   1.217   4.572   5.008 -1.2844  1.6086 -0.1580
   97SAPE  C220 9719   1.113   4.600   4.817 -0.6485  0.3837  0.0307
   97SAPE  H20R 9720   1.208   4.588   4.761 -0.3122 -0.7712  0.8112
   97SAPE  H20S 9721   1.098   4.709   4.828 -1.7142  0.2111  0.4116
   97SAPE  H20T 9722   1.038   4.545   4.756 -0.2782 -1.5249  1.2039
   97SAPE   C33 9723   1.648   3.922   6.021  0.2120 -0.4148 -0.1138
   97SAPE   H3X 9724   1.639   3.811   6.014  1.1221 -0.5111  0.1335
   97SAPE   H3Y 9725   1.742   3.942   6.077  0.6210 -3.1450  0.3118
   97SAPE   C34 9726   1.653   3.976   5.878  0.6146  0.0709 -0.4440
   97SAPE   H4X 9727   1.673   4.085   5.881  0.3039  0.1233  2.3404
   97SAPE   H4Y 9728   1.555   3.969   5.826 -0.0480 -0.1890  0.7819
   97SAPE   C35 9729   1.769   3.913   5.801  0.1679 -0.1895  0.0093
   97SAPE   H5X 9730   1.753   3.803   5.798 -2.0369  0.0982  0.0858
   97SAPE   H5Y 9731   1.868   3.932   5.848 -0.0672 -2.0879  1.3776
   97SAPE   C36 9732   1.767   3.972   5.656  0.7865 -0.2924  0.0793
   97SAPE   H6X 9733   1.870   3.951   5.619  0.3415 -2.3171 -0.0806
   97SAPE   H6Y 9734   1.772   4.083   5.665  2.3822 -0.4069  1.1567
   97SAPE   C37 9735   1.661   3.923   5.561 -0.3917 -0.2377  0.0620
   97SAPE   H7X 9736   1.564   3.948   5.609 -0.0778  0.4023  0.3846
   97SAPE   H7Y 9737   1.679   3.814   5.557 -1.2972 -0.3577 -2.0470
   97SAPE   C38 9738   1.679   3.979   5.415 -0.2957 -0.9904 -0.3493
   97SAPE   H8X 9739   1.781   3.958   5.376  0.3440  1.8682 -0.4461
   97SAPE   H8Y 9740   1.674   4.090   5.406 -0.7728 -0.7405  2.3483
   97SAPE   C39 9741   1.578   3.908   5.326 -0.3361  0.2107 -0.3991
   97SAPE   H9X 9742   1.482   3.953   5.358  0.4395 -0.0082  2.5535
   97SAPE   H9Y 9743   1.568   3.798   5.336 -0.4579  0.2442 -0.1707
   97SAPE  C310 9744   1.607   3.930   5.183 -0.9707 -0.0177 -1.1760
   97SAPE  H10X 9745   1.701   3.876   5.160 -1.2147 -0.1739 -1.8258
   97SAPE  H10Y 9746   1.616   4.037   5.155 -2.2635  0.0035 -1.5864
   97SAPE  C311 9747   1.499   3.868   5.090 -0.4356  0.3705 -0.3181
   97SAPE  H11X 9748   1.491   3.757   5.081 -2.0260  0.5703 -2.3524
   97SAPE  H11Y 9749   1.505   3.901   4.984 -2.0792  1.7231 -0.0357
   97SAPE  C312 9750   1.350   3.896   5.139 -0.1949  0.7182  0.6641
   97SAPE  H12X 9751   1.343   4.004   5.164 -0.3308  0.5589  1.3325
   97SAPE  H12Y 9752   1.328   3.841   5.233  1.7355  0.2968  0.9082
   97SAPE  C313 9753   1.239   3.849   5.036 -0.0357  0.1704 -0.3516
   97SAPE  H13X 9754   1.281   3.882   4.939  0.9115 -0.1958 -0.0857
   97SAPE  H13Y 9755   1.148   3.901   5.074  0.1841 -0.1785  0.6836
   97SAPE  C314 9756   1.226   3.692   5.032  0.5086 -1.2237 -0.3152
   97SAPE  H14X 9757   1.224   3.655   5.137 -1.8796  1.3773  0.6841
   97SAPE  H14Y 9758   1.328   3.659   5.002  1.3190 -0.1091  1.0549
   97SAPE  C315 9759   1.124   3.644   4.933  0.5457  0.6928 -0.3146
   97SAPE  H15X 9760   1.019   3.655   4.969  0.5742  1.0374 -0.3308
   97SAPE  H15Y 9761   1.140   3.534   4.927 -0.9154  0.4310  0.0215
   97SAPE  C316 9762   1.137   3.706   4.793  0.3372  0.1249 -0.5468
   97SAPE  H16X 9763   1.107   3.813   4.785 -1.7263 -0.3173  0.5810
   97SAPE  H16Y 9764   1.061   3.658   4.728  1.1862  0.1413 -1.5752
   97SAPE  C317 9765   1.267   3.691   4.713  0.3424 -0.8571 -0.3665
   97SAPE  H17X 9766   1.309   3.590   4.729 -0.5147 -1.2035 -0.2551
   97SAPE  H17Y 9767   1.336   3.755   4.773 -0.4681 -0.3950  0.0963
   97SAPE  C318 9768   1.261   3.746   4.572  0.5023  0.4850 -0.1142
   97SAPE  H18X 9769   1.356   3.744   4.515  0.7503  1.0046  0.2670
   97SAPE  H18Y 9770   1.227   3.852   4.574  1.8258  0.9389 -0.7203
   97SAPE  H18Z 9771   1.189   3.682   4.516 -0.7277 -0.3408  2.2725
   98SAPE     N 9772   5.021   3.878   7.009 -0.2717  0.5785 -0.3184
   98SAPE   HN1 9773   5.027   3.892   6.906 -1.2084 -1.8331 -0.7751
   98SAPE   HN2 9774   4.930   3.831   7.029  0.0671  0.2464  0.4768
   98SAPE   HN3 9775   5.013   3.970   7.055 -0.2475 -0.1214  1.1305
   98SAPE   C12 9776   5.138   3.806   7.076 -0.7962  0.0159  1.0692
   98SAPE  H12A 9777   5.140   3.701   7.038  1.5917  0.3189  0.1989
   98SAPE  H12B 9778   5.113   3.810   7.185 -2.5060  2.0563  0.6677
   98SAPE   C11 9779   5.271   3.871   7.036 -0.8258  0.0885  0.4377
   98SAPE  H11A 9780   5.256   3.981   7.025 -0.5310  0.1758  0.8777
   98SAPE  H11B 9781   5.296   3.841   6.932 -1.0484  0.9537  0.1250
   98SAPE     P 9782   5.466   3.723   7.121 -0.0099  0.3730  0.0172
   98SAPE   O13 9783   5.559   3.736   7.234 -0.0244  0.6493 -0.6258
   98SAPE   O14 9784   5.399   3.593   7.102 -0.2857  0.3087 -0.4583
   98SAPE   O12 9785   5.365   3.838   7.140  0.2965 -0.2972 -0.0434
   98SAPE   O11 9786   5.552   3.776   6.997  0.8455 -0.0564  0.2483
   98SAPE    C1 9787   5.690   3.731   6.971 -0.2166  0.1361 -0.1547
   98SAPE    HA 9788   5.765   3.769   7.043 -1.1317  0.9287  0.4144
   98SAPE    HB 9789   5.696   3.620   6.972 -1.8673 -0.0067  1.8262
   98SAPE    C2 9790   5.750   3.772   6.833  0.2406  0.0776  0.1634
   98SAPE    HS 9791   5.760   3.883   6.836 -0.4537  0.1257  1.1434
   98SAPE   O21 9792   5.660   3.726   6.731  0.7836  0.3450  0.3387
   98SAPE   C21 9793   5.552   3.789   6.706  0.5242 -0.1727  0.2121
   98SAPE   O22 9794   5.524   3.903   6.746  0.5420 -0.0123  0.3592
   98SAPE   C22 9795   5.466   3.700   6.603 -0.2232 -0.3293  0.1228
   98SAPE   H2R 9796   5.526   3.649   6.524  2.2159  0.0621  1.6257
   98SAPE   H2S 9797   5.427   3.622   6.671 -0.8073  0.6629  0.9586
   98SAPE    C3 9798   5.897   3.726   6.812 -0.3785  0.4173  0.0605
   98SAPE    HX 9799   5.895   3.617   6.832 -0.7537  0.5537  0.8192
   98SAPE    HY 9800   5.950   3.771   6.899 -0.0343  2.4950 -1.1629
   98SAPE   O31 9801   5.958   3.764   6.683 -0.3884 -0.1382 -0.0199
   98SAPE   C31 9802   6.083   3.735   6.673 -0.2405 -0.6541 -0.6195
   98SAPE   O32 9803   6.158   3.692   6.762 -0.2703  0.4338 -0.3596
   98SAPE   C32 9804   6.132   3.766   6.539 -0.1444  0.4012 -0.7865
   98SAPE   H2X 9805   6.237   3.730   6.539 -0.3556 -0.3244  0.9740
   98SAPE   H2Y 9806   6.129   3.873   6.508  1.0961  1.0278  1.0680
   98SAPE   C23 9807   5.349   3.771   6.537 -0.1637  0.7148  0.5329
   98SAPE   H3R 9808   5.301   3.847   6.602 -2.2612  1.3938 -1.6645
   98SAPE   H3S 9809   5.272   3.704   6.493 -0.9732  1.8021  0.2521
   98SAPE   C24 9810   5.399   3.853   6.416  0.1315 -0.4531  0.1552
   98SAPE   H4R 9811   5.461   3.786   6.352  1.0012  0.7231 -0.2785
   98SAPE   H4S 9812   5.464   3.939   6.442 -0.5946  0.6029 -1.3707
   98SAPE   C25 9813   5.277   3.897   6.344  0.4704  0.0432 -0.2200
   98SAPE   H5R 9814   5.199   3.944   6.405 -1.9969 -0.1906 -2.9677
   98SAPE   C26 9815   5.249   3.885   6.212  0.2689  0.3969  0.4735
   98SAPE   H6R 9816   5.159   3.942   6.182  0.2820  0.3023  0.2500
   98SAPE   C27 9817   5.320   3.813   6.107 -0.0842  0.0049  0.4537
   98SAPE   H7R 9818   5.248   3.777   6.031 -0.9780 -2.2803  2.2746
   98SAPE   H7S 9819   5.367   3.718   6.140  0.2199  0.6831  2.0693
   98SAPE   C28 9820   5.426   3.897   6.043 -0.1439 -0.1811  0.9108
   98SAPE   H8R 9821   5.483   3.969   6.103 -0.2793 -0.0443  0.8752
   98SAPE   C29 9822   5.462   3.893   5.909 -0.1813  0.5606 -0.0348
   98SAPE   H9R 9823   5.535   3.959   5.861  0.6999 -1.7632 -2.1357
   98SAPE  C210 9824   5.405   3.795   5.808  0.3406 -0.4847  0.2377
   98SAPE  H10R 9825   5.319   3.736   5.845 -0.3333 -0.9731 -1.9708
   98SAPE  H10S 9826   5.487   3.730   5.771 -0.3487 -2.5946  2.1646
   98SAPE  C211 9827   5.355   3.878   5.690  0.2952 -0.2080 -0.5101
   98SAPE  H11R 9828   5.259   3.927   5.714 -0.2337 -0.8744 -1.2105
   98SAPE  C212 9829   5.397   3.908   5.566 -0.5126  0.2190 -0.4968
   98SAPE  H12R 9830   5.340   3.982   5.508 -0.0837 -0.2001 -1.4756
   98SAPE  C213 9831   5.527   3.853   5.497  0.2322  0.0144 -0.7528
   98SAPE  H13R 9832   5.518   3.754   5.446 -2.2209 -1.1789  1.6893
   98SAPE  H13S 9833   5.597   3.818   5.577  0.1374 -0.7877 -1.0077
   98SAPE  C214 9834   5.591   3.952   5.403 -0.0047 -0.3580 -0.4536
   98SAPE  H14R 9835   5.669   4.016   5.447 -1.1598  0.2383  0.8348
   98SAPE  C215 9836   5.566   3.960   5.269  0.5121 -0.6561 -0.5051
   98SAPE  H15R 9837   5.623   4.031   5.207  0.2275 -0.3210 -0.3856
   98SAPE  C216 9838   5.481   3.859   5.193  0.1598 -0.7930 -0.5602
   98SAPE  H16R 9839   5.383   3.907   5.172  1.0459  1.2972 -0.1232
   98SAPE  H16S 9840   5.456   3.772   5.258  0.1186  1.2129  2.3007
   98SAPE  C217 9841   5.541   3.814   5.057 -0.1444 -0.1842 -0.1537
   98SAPE  H17R 9842   5.460   3.762   5.002 -0.9495  0.8548  0.0119
   98SAPE  H17S 9843   5.631   3.750   5.068  0.3042  0.5036  0.3072
   98SAPE  C218 9844   5.589   3.925   4.955 -0.5222  0.0563  0.0883
   98SAPE  H18R 9845   5.676   3.980   4.996  0.6209 -0.2538 -1.7903
   98SAPE  H18S 9846   5.509   4.000   4.937 -1.6427 -0.9416  0.7555
   98SAPE  C219 9847   5.625   3.861   4.815  0.4070  0.3817 -0.1147
   98SAPE  H19R 9848   5.526   3.822   4.781  0.9224  0.2291 -1.5106
   98SAPE  H19S 9849   5.700   3.780   4.821  1.0960  0.9205 -1.1731
   98SAPE  C220 9850   5.662   3.962   4.704 -0.2263 -0.8180  0.3832
   98SAPE  H20R 9851   5.568   4.001   4.660 -1.5112 -1.5426  2.3333
   98SAPE  H20S 9852   5.729   3.914   4.630  0.1835 -0.7735  0.7173
   98SAPE  H20T 9853   5.713   4.045   4.758 -0.8651 -2.2334  3.3649
   98SAPE   C33 9854   6.054   3.679   6.433 -0.0092  0.5146 -0.1579
   98SAPE   H3X 9855   5.960   3.735   6.414  0.7825  2.8444  2.2104
   98SAPE   H3Y 9856   6.034   3.578   6.473  0.9748 -0.2501 -1.4725
   98SAPE   C34 9857   6.143   3.673   6.310 -0.6465  0.2432 -0.1020
   98SAPE   H4X 9858   6.231   3.610   6.335  1.2903  1.6220 -3.0080
   98SAPE   H4Y 9859   6.182   3.772   6.280  0.3298  0.2099  1.0034
   98SAPE   C35 9860   6.076   3.615   6.188 -0.9552 -0.0985  0.0998
   98SAPE   H5X 9861   6.003   3.683   6.139 -1.0118  1.1307  1.7830
   98SAPE   H5Y 9862   6.029   3.523   6.230 -1.5726  0.0832 -0.1919
   98SAPE   C36 9863   6.188   3.570   6.096 -0.1411 -0.0681 -0.6176
   98SAPE   H6X 9864   6.257   3.500   6.147 -0.9050 -0.3079  0.1060
   98SAPE   H6Y 9865   6.243   3.661   6.065 -1.2179  1.1505  0.8944
   98SAPE   C37 9866   6.139   3.501   5.968 -0.7828  0.6103  0.3974
   98SAPE   H7X 9867   6.064   3.569   5.922 -0.9668  0.9631  1.1824
   98SAPE   H7Y 9868   6.099   3.399   5.982  0.8496  0.0762  1.5024
   98SAPE   C38 9869   6.252   3.484   5.863  0.8535 -0.0274 -0.3618
   98SAPE   H8X 9870   6.309   3.392   5.889  2.8185  0.3978 -2.7815
   98SAPE   H8Y 9871   6.328   3.565   5.872 -0.0218  0.6852  0.9536
   98SAPE   C39 9872   6.191   3.493   5.728 -0.8835  1.1790 -0.5709
   98SAPE   H9X 9873   6.150   3.593   5.701 -1.9261  0.7556 -0.5916
   98SAPE   H9Y 9874   6.102   3.427   5.715 -1.3992  1.9681 -1.1703
   98SAPE  C310 9875   6.287   3.449   5.619  0.6062 -0.5386  0.0608
   98SAPE  H10X 9876   6.328   3.349   5.646  3.6507  0.6705  0.3431
   98SAPE  H10Y 9877   6.365   3.527   5.632  0.5226  0.0925 -2.6284
   98SAPE  C311 9878   6.231   3.459   5.483  0.2950 -0.3185 -0.1982
   98SAPE  H11X 9879   6.182   3.557   5.460  0.5829 -0.0744  0.2118
   98SAPE  H11Y 9880   6.148   3.386   5.472  0.2988 -0.0920 -2.1021
   98SAPE  C312 9881   6.336   3.439   5.371 -0.2781 -0.0991 -0.1701
   98SAPE  H12X 9882   6.392   3.345   5.393  1.6113  1.6737  3.3881
   98SAPE  H12Y 9883   6.410   3.521   5.361  1.7920 -1.8374 -0.0544
   98SAPE  C313 9884   6.263   3.414   5.235 -0.2156  0.3653  0.3212
   98SAPE  H13X 9885   6.195   3.496   5.202 -0.2679  0.1431 -0.1332
   98SAPE  H13Y 9886   6.197   3.325   5.244  1.6959 -1.2185 -0.5141
   98SAPE  C314 9887   6.366   3.379   5.122  0.2303 -0.2682 -0.0627
   98SAPE  H14X 9888   6.434   3.463   5.096  0.3878 -0.2997  0.2447
   98SAPE  H14Y 9889   6.316   3.354   5.026  0.5450  2.0984 -0.9238
   98SAPE  C315 9890   6.436   3.248   5.152  0.4364 -0.4940 -0.3689
   98SAPE  H15X 9891   6.360   3.176   5.188  0.6378 -0.1891  0.6947
   98SAPE  H15Y 9892   6.513   3.262   5.231 -1.0662 -1.5943  1.3450
   98SAPE  C316 9893   6.498   3.189   5.028 -0.3900  0.5550  0.7586
   98SAPE  H16X 9894   6.421   3.163   4.953  1.0686  0.5306 -0.7958
   98SAPE  H16Y 9895   6.547   3.097   5.067  0.5957  0.9672  0.5351
   98SAPE  C317 9896   6.600   3.272   4.957 -0.0122  0.0712 -0.1120
   98SAPE  H17X 9897   6.665   3.307   5.040 -0.0527  0.8315 -0.3948
   98SAPE  H17Y 9898   6.565   3.358   4.895  3.4165  0.8155 -1.2386
   98SAPE  C318 9899   6.693   3.182   4.865 -0.3145  0.0936 -0.5832
   98SAPE  H18X 9900   6.769   3.239   4.808  0.4954 -0.2050  0.1707
   98SAPE  H18Y 9901   6.632   3.126   4.791  0.9560 -1.9546 -0.1795
   98SAPE  H18Z 9902   6.742   3.111   4.935 -0.8463  1.2574  1.0106
   99SAPE     N 9903   6.317   4.873   6.840  0.3838 -0.3193  0.1915
   99SAPE   HN1 9904   6.218   4.851   6.862 -0.0753 -0.7873 -2.1648
   99SAPE   HN2 9905   6.383   4.876   6.921  0.3062  1.7618  0.2350
   99SAPE   HN3 9906   6.320   4.969   6.799 -0.8507 -0.6905 -0.8174
   99SAPE   C12 9907   6.367   4.779   6.730  0.5005  0.0728  0.1402
   99SAPE  H12A 9908   6.467   4.815   6.697  0.8686 -0.7963  0.3003
   99SAPE  H12B 9909   6.289   4.789   6.651  2.3076 -0.8153 -1.8479
   99SAPE   C11 9910   6.363   4.634   6.772 -0.3488  0.2662  0.6000
   99SAPE  H11A 9911   6.400   4.574   6.686 -1.0875 -1.0874  1.1889
   99SAPE  H11B 9912   6.256   4.607   6.785 -0.5826 -1.8969 -4.0361
   99SAPE     P 9913   6.436   4.473   6.950 -0.1124 -0.1799 -0.3728
   99SAPE   O13 9914   6.534   4.469   7.062 -0.1065  0.4069  0.0507
   99SAPE   O14 9915   6.292   4.448   6.985 -0.2192 -0.1885  0.3174
   99SAPE   O12 9916   6.446   4.614   6.888 -0.0081  0.0386  0.5288
   99SAPE   O11 9917   6.481   4.378   6.835 -0.4432 -0.1602 -0.4226
   99SAPE    C1 9918   6.613   4.402   6.776  0.4138 -0.4834 -0.4028
   99SAPE    HA 9919   6.641   4.510   6.766 -0.9990 -0.2639 -2.9592
   99SAPE    HB 9920   6.689   4.360   6.845 -0.3606 -2.5562 -0.7594
   99SAPE    C2 9921   6.621   4.334   6.638 -0.1684 -0.2690 -0.2929
   99SAPE    HS 9922   6.731   4.327   6.620  0.2566  2.1302  1.0272
   99SAPE   O21 9923   6.572   4.419   6.529 -0.0321  0.2724  0.5906
   99SAPE   C21 9924   6.646   4.525   6.488  0.0588  0.9394 -0.4648
   99SAPE   O22 9925   6.756   4.544   6.533 -0.0045 -0.2627  0.3722
   99SAPE   C22 9926   6.563   4.610   6.395  1.0634 -0.4404 -0.0434
   99SAPE   H2R 9927   6.485   4.540   6.359  1.1166 -0.8120  0.5447
   99SAPE   H2S 9928   6.508   4.671   6.470 -1.4988 -1.1558 -1.2346
   99SAPE    C3 9929   6.552   4.194   6.632  0.6965 -0.4815 -0.9014
   99SAPE    HX 9930   6.442   4.211   6.631  0.7721  0.0592 -0.4661
   99SAPE    HY 9931   6.566   4.145   6.731 -1.1273  0.6350 -0.0324
   99SAPE   O31 9932   6.600   4.114   6.528  0.8845  0.7597 -0.0946
   99SAPE   C31 9933   6.515   4.024   6.482  0.0418  0.4338 -0.3465
   99SAPE   O32 9934   6.403   3.999   6.529 -0.2431 -0.1363  0.3979
   99SAPE   C32 9935   6.578   3.954   6.364  0.4859  0.5644  0.4879
   99SAPE   H2X 9936   6.680   3.917   6.384  0.5351 -1.2573 -2.4457
   99SAPE   H2Y 9937   6.583   4.031   6.283  2.2528 -0.6073 -0.5660
   99SAPE   C23 9938   6.641   4.687   6.291 -0.8661 -0.0750  0.3434
   99SAPE   H3R 9939   6.704   4.764   6.340  0.3987  0.0546 -1.4050
   99SAPE   H3S 9940   6.573   4.751   6.231 -1.9144 -0.7514  0.7585
   99SAPE   C24 9941   6.725   4.603   6.197  0.1540  0.6232 -0.5742
   99SAPE   H4R 9942   6.797   4.550   6.262 -1.2327 -0.0482  0.4635
   99SAPE   H4S 9943   6.777   4.672   6.127  2.3564  1.6246  1.8922
   99SAPE   C25 9944   6.646   4.500   6.124 -0.6414 -0.2348 -0.3079
   99SAPE   H5R 9945   6.634   4.404   6.177 -0.4214 -0.9110 -1.4690
   99SAPE   C26 9946   6.595   4.503   6.001 -0.3364  1.0892  0.4752
   99SAPE   H6R 9947   6.552   4.408   5.965  3.0512 -0.1354 -0.6857
   99SAPE   C27 9948   6.597   4.615   5.899  0.3976 -0.5775 -0.7225
   99SAPE   H7R 9949   6.621   4.715   5.939  1.0874 -0.6442 -0.9671
   99SAPE   H7S 9950   6.506   4.620   5.836 -0.8043  0.2130  0.9840
   99SAPE   C28 9951   6.717   4.584   5.813 -0.2118 -0.2633  0.6471
   99SAPE   H8R 9952   6.810   4.569   5.869  1.1413 -1.6551 -1.8171
   99SAPE   C29 9953   6.740   4.586   5.676 -0.8012  0.4170 -0.2314
   99SAPE   H9R 9954   6.846   4.560   5.658 -0.9777 -2.5992  2.2696
   99SAPE  C210 9955   6.637   4.611   5.571  0.6042 -0.2362 -0.6488
   99SAPE  H10R 9956   6.542   4.645   5.617  1.2295 -0.8258  1.1568
   99SAPE  H10S 9957   6.594   4.517   5.530 -1.8160  0.0331  1.0915
   99SAPE  C211 9958   6.680   4.712   5.471  0.4539 -0.4404  0.0765
   99SAPE  H11R 9959   6.690   4.814   5.510 -2.7882 -0.9756  2.7775
   99SAPE  C212 9960   6.705   4.691   5.340 -0.1010  0.1920  0.3120
   99SAPE  H12R 9961   6.745   4.774   5.281  0.4539 -0.2229  0.0998
   99SAPE  C213 9962   6.689   4.563   5.256 -0.9188  0.5422  0.4933
   99SAPE  H13R 9963   6.609   4.579   5.180  0.0983 -0.9722 -0.9449
   99SAPE  H13S 9964   6.648   4.479   5.316  1.0057  0.2751  1.5081
   99SAPE  C214 9965   6.814   4.515   5.182 -0.2260  0.0665  0.3947
   99SAPE  H14R 9966   6.887   4.456   5.240  0.8235 -0.4663 -1.3793
   99SAPE  C215 9967   6.857   4.548   5.058 -0.0077 -0.0963  0.3955
   99SAPE  H15R 9968   6.953   4.522   5.012 -0.2192  2.2963 -1.5835
   99SAPE  C216 9969   6.779   4.637   4.967 -0.3376 -0.3576  0.7693
   99SAPE  H16R 9970   6.672   4.641   4.995 -0.6833 -1.5311 -0.2618
   99SAPE  H16S 9971   6.772   4.582   4.870 -0.4701  1.4596 -0.2886
   99SAPE  C217 9972   6.831   4.789   4.949  0.1975  0.3108  0.6129
   99SAPE  H17R 9973   6.939   4.787   4.923  0.5609  0.7147  2.0183
   99SAPE  H17S 9974   6.817   4.847   5.043 -0.0051  1.6516 -0.2182
   99SAPE  C218 9975   6.755   4.861   4.838  0.5444  0.0112 -0.4866
   99SAPE  H18R 9976   6.651   4.873   4.876 -0.0841 -2.0505 -1.4336
   99SAPE  H18S 9977   6.747   4.791   4.752 -0.5347  0.1875 -0.5405
   99SAPE  C219 9978   6.828   4.982   4.793 -0.6482 -1.1156 -0.4393
   99SAPE  H19R 9979   6.928   4.959   4.749  0.3609  0.6790  0.7864
   99SAPE  H19S 9980   6.855   5.048   4.878  1.8394 -0.8819 -1.3031
   99SAPE  C220 9981   6.733   5.064   4.702 -0.7493 -0.1398 -0.0514
   99SAPE  H20R 9982   6.661   5.122   4.764 -0.7317 -0.2662  0.0891
   99SAPE  H20S 9983   6.671   4.987   4.651 -1.8178  0.9901 -0.5022
   99SAPE  H20T 9984   6.788   5.128   4.630  0.8674 -0.7839  0.5469
   99SAPE   C33 9985   6.483   3.841   6.304 -0.1075  0.3055 -0.1284
   99SAPE   H3X 9986   6.388   3.892   6.280 -0.5942  0.2928  1.5929
   99SAPE   H3Y 9987   6.458   3.764   6.380 -3.8667  1.2153 -0.2695
   99SAPE   C34 9988   6.571   3.778   6.195  0.4606  1.3802  0.2253
   99SAPE   H4X 9989   6.517   3.688   6.158  1.0998  0.7612  0.7619
   99SAPE   H4Y 9990   6.651   3.729   6.255 -1.4777  0.8990  2.5803
   99SAPE   C35 9991   6.607   3.867   6.073 -0.1498  0.2128 -0.5481
   99SAPE   H5X 9992   6.651   3.804   5.993 -2.3443 -0.5953 -1.1959
   99SAPE   H5Y 9993   6.677   3.947   6.104 -1.2803  0.5420  1.3234
   99SAPE   C36 9994   6.481   3.938   6.011 -0.2216  0.3257 -0.1211
   99SAPE   H6X 9995   6.488   4.048   5.997 -0.6146  0.4373  0.5113
   99SAPE   H6Y 9996   6.406   3.937   6.093 -0.0993 -0.3620 -0.0081
   99SAPE   C37 9997   6.425   3.863   5.887 -0.5719  0.4722  0.0386
   99SAPE   H7X 9998   6.315   3.883   5.885 -0.5267  0.6636 -0.7425
   99SAPE   H7Y 9999   6.431   3.753   5.903  3.1536  0.5246 -0.3006
   99SAPE   C3810000   6.501   3.901   5.756 -0.4301  0.1061  0.7300
   99SAPE   H8X10001   6.611   3.903   5.769 -0.0184  2.5109 -1.9989
   99SAPE   H8Y10002   6.475   4.007   5.734 -0.7420  0.3203  2.0158
   99SAPE   C3910003   6.459   3.826   5.632  0.8767  0.2128  0.3363
   99SAPE   H9X10004   6.351   3.827   5.606  1.4509 -2.0308 -2.6210
   99SAPE   H9Y10005   6.484   3.718   5.645  1.0944  0.4539  2.3320
   99SAPE  C31010006   6.534   3.879   5.508 -0.2176  0.4797  0.4975
   99SAPE  H10X10007   6.640   3.868   5.538  0.2526 -0.3943 -1.3679
   99SAPE  H10Y10008   6.491   3.979   5.487 -1.4589 -0.6038 -2.7056
   99SAPE  C31110009   6.507   3.791   5.384 -0.2177 -0.2494  0.0416
   99SAPE  H11X10010   6.400   3.762   5.375  0.4325 -2.0406 -5.0437
   99SAPE  H11Y10011   6.572   3.702   5.392 -0.7708 -0.5904  0.8132
   99SAPE  C31210012   6.524   3.861   5.244  0.5313  0.1713 -0.1237
   99SAPE  H12X10013   6.616   3.922   5.249  0.8124 -0.2491 -0.0860
   99SAPE  H12Y10014   6.434   3.925   5.234 -0.9048 -1.3364  2.0083
   99SAPE  C31310015   6.516   3.762   5.129 -0.6153  0.3589 -0.1893
   99SAPE  H13X10016   6.427   3.702   5.156 -2.1629  3.1977  1.4910
   99SAPE  H13Y10017   6.603   3.694   5.136  1.2934  2.7469  0.4499
   99SAPE  C31410018   6.503   3.818   4.989  0.0672  0.1306  0.2123
   99SAPE  H14X10019   6.562   3.912   4.985  0.3785 -0.0186  1.1018
   99SAPE  H14Y10020   6.398   3.839   4.960  0.3031  0.9469 -0.0753
   99SAPE  C31510021   6.560   3.731   4.877  0.1347  0.4391 -0.2109
   99SAPE  H15X10022   6.477   3.665   4.841  0.6801 -0.3794  0.0120
   99SAPE  H15Y10023   6.650   3.679   4.916 -1.0314 -2.0517 -0.5921
   99SAPE  C31610024   6.606   3.824   4.762  0.0218 -0.0472 -0.2138
   99SAPE  H16X10025   6.682   3.895   4.800 -0.9991  0.9598 -0.0046
   99SAPE  H16Y10026   6.515   3.884   4.742  0.8844  0.9249 -1.3159
   99SAPE  C31710027   6.659   3.748   4.642  0.0713 -0.7976  0.4982
   99SAPE  H17X10028   6.630   3.640   4.641 -1.3449 -0.4285  0.1855
   99SAPE  H17Y10029   6.770   3.751   4.631  0.2421 -2.5580  1.2981
   99SAPE  C31810030   6.599   3.807   4.509  0.2676  0.0386  0.3410
   99SAPE  H18X10031   6.488   3.799   4.500  0.4495 -0.3428 -2.7393
   99SAPE  H18Y10032   6.642   3.743   4.429 -0.4622 -3.0643  2.2521
   99SAPE  H18Z10033   6.617   3.916   4.495 -1.0083  0.0104 -2.0178
  100SAPE     N10034   2.730   2.059   6.878  0.3592 -0.5040 -0.2409
  100SAPE   HN110035   2.783   2.091   6.962  0.8679  1.9648 -1.3964
  100SAPE   HN210036   2.632   2.041   6.907  0.0701  1.3267  0.0766
  100SAPE   HN310037   2.764   1.963   6.858 -0.8787 -0.9751 -0.1671
  100SAPE   C1210038   2.738   2.164   6.769 -0.6664 -0.4829 -0.7840
  100SAPE  H12A10039   2.723   2.262   6.818  1.4884 -0.1681 -0.6343
  100SAPE  H12B10040   2.652   2.142   6.703 -2.5199  0.3917  1.2241
  100SAPE   C1110041   2.871   2.154   6.706 -0.3374  0.7497  0.2125
  100SAPE  H11A10042   2.878   2.217   6.615  0.8127 -0.9465 -0.9457
  100SAPE  H11B10043   2.876   2.058   6.651  0.7064  1.0246 -0.1948
  100SAPE     P10044   3.099   2.072   6.828 -0.0162 -0.0999  0.3809
  100SAPE   O1310045   3.203   2.143   6.901 -0.2639  0.0174  0.3883
  100SAPE   O1410046   3.053   1.942   6.885  0.0441  0.6838  0.1938
  100SAPE   O1210047   2.981   2.174   6.794 -0.4347 -0.1713 -0.2032
  100SAPE   O1110048   3.146   2.039   6.678 -0.2143 -0.5520  0.1511
  100SAPE    C110049   3.254   2.105   6.611 -0.3139 -0.3567 -0.5885
  100SAPE    HA10050   3.337   2.117   6.683 -0.2904 -0.4460 -0.6006
  100SAPE    HB10051   3.314   2.046   6.539  1.2575  0.6122 -0.1115
  100SAPE    C210052   3.210   2.244   6.551  0.4640 -0.1129  0.0997
  100SAPE    HS10053   3.155   2.301   6.629  1.9236 -1.8187  2.5110
  100SAPE   O2110054   3.121   2.223   6.437 -0.1362 -0.3008  0.7329
  100SAPE   C2110055   3.049   2.338   6.402 -0.3325 -0.0744  0.0145
  100SAPE   O2210056   3.048   2.447   6.461  0.1001  0.2618  0.0568
  100SAPE   C2210057   2.972   2.302   6.270  0.7595 -0.2613 -0.0274
  100SAPE   H2R10058   3.054   2.278   6.198 -1.0655 -0.6933 -2.0386
  100SAPE   H2S10059   2.905   2.217   6.293 -0.7341  0.2595 -2.1700
  100SAPE    C310060   3.340   2.320   6.498  0.2313  0.7382  0.6904
  100SAPE    HX10061   3.408   2.309   6.585 -0.1109 -0.9950  0.7803
  100SAPE    HY10062   3.316   2.425   6.471 -1.2440 -0.0582 -1.3556
  100SAPE   O3110063   3.401   2.260   6.387 -0.2923 -0.3590  0.9303
  100SAPE   C3110064   3.537   2.279   6.378  0.3951  1.2025 -0.0055
  100SAPE   O3210065   3.617   2.318   6.459  0.2054 -0.1127  0.1137
  100SAPE   C3210066   3.570   2.228   6.238  0.0000 -0.4345 -0.1065
  100SAPE   H2X10067   3.481   2.173   6.199 -0.8312  0.9282 -0.1758
  100SAPE   H2Y10068   3.647   2.149   6.254 -0.6906 -1.7417 -2.6137
  100SAPE   C2310069   2.888   2.410   6.201  0.1938 -0.2058 -0.3333
  100SAPE   H3R10070   2.821   2.458   6.275  0.7997  1.3852 -0.7665
  100SAPE   H3S10071   2.825   2.382   6.114  2.4475  0.5669 -2.3390
  100SAPE   C2410072   2.982   2.507   6.128 -0.5479 -0.4522  0.3335
  100SAPE   H4R10073   3.046   2.467   6.046  1.4540 -1.2530  2.1960
  100SAPE   H4S10074   3.053   2.536   6.208 -0.8460  1.9236 -0.1940
  100SAPE   C2510075   2.905   2.622   6.073 -0.2662 -0.2821 -0.0518
  100SAPE   H5R10076   2.880   2.692   6.154  0.1029  0.1192 -0.2821
  100SAPE   C2610077   2.863   2.648   5.948  0.2671  0.3611  0.1145
  100SAPE   H6R10078   2.815   2.744   5.923 -0.2833  0.4597  1.4734
  100SAPE   C2710079   2.873   2.552   5.832 -0.6199  0.5596 -0.7304
  100SAPE   H7R10080   2.865   2.445   5.859 -2.6219  1.0006  0.6185
  100SAPE   H7S10081   2.975   2.566   5.790 -1.8370  2.7253 -3.2754
  100SAPE   C2810082   2.773   2.561   5.721  0.4413  0.2619  0.4280
  100SAPE   H8R10083   2.691   2.488   5.726  0.7986 -0.1071  1.3344
  100SAPE   C2910084   2.768   2.646   5.618  0.0668 -0.4662 -0.0096
  100SAPE   H9R10085   2.683   2.632   5.550 -0.1445 -3.0430  0.6789
  100SAPE  C21010086   2.868   2.759   5.587  0.3004 -0.3055  0.3145
  100SAPE  H10R10087   2.908   2.785   5.688 -0.1973 -0.6118  0.5940
  100SAPE  H10S10088   2.810   2.843   5.545  0.6219  0.9139  2.1785
  100SAPE  C21110089   2.982   2.727   5.492  0.3122  0.6838  0.0166
  100SAPE  H11R10090   3.062   2.662   5.531 -0.6672 -2.1212 -2.3156
  100SAPE  C21210091   2.993   2.769   5.366  0.3498  0.1959 -0.2186
  100SAPE  H12R10092   3.088   2.746   5.317  0.0191 -0.4584 -0.5647
  100SAPE  C21310093   2.886   2.843   5.294 -0.3289  0.5024  0.2962
  100SAPE  H13R10094   2.881   2.950   5.324  0.9184 -0.5560  5.3130
  100SAPE  H13S10095   2.784   2.808   5.323 -0.3319 -0.4624 -0.8000
  100SAPE  C21410096   2.908   2.831   5.145 -0.5923 -0.0040  0.1122
  100SAPE  H14R10097   2.942   2.733   5.108 -0.7355  1.2037 -3.6069
  100SAPE  C21510098   2.878   2.919   5.053  0.0703  0.1972  0.2673
  100SAPE  H15R10099   2.897   2.886   4.950  1.0251  1.5105 -0.0023
  100SAPE  C21610100   2.813   3.053   5.068 -0.2150  0.1396  0.1980
  100SAPE  H16R10101   2.863   3.121   4.995  0.9773 -1.9315 -1.0452
  100SAPE  H16S10102   2.842   3.099   5.165  0.3236 -1.4439  0.8280
  100SAPE  C21710103   2.665   3.081   5.038 -0.3404 -0.3515 -0.1541
  100SAPE  H17R10104   2.611   3.042   5.127  1.4459 -1.3383  0.5490
  100SAPE  H17S10105   2.634   3.039   4.940  0.3748  1.6130 -1.2849
  100SAPE  C21810106   2.642   3.232   5.033  0.3378 -0.2444  0.4964
  100SAPE  H18R10107   2.717   3.283   4.968 -1.1979  0.5181 -0.7638
  100SAPE  H18S10108   2.670   3.284   5.127  3.8406 -0.3220 -0.3579
  100SAPE  C21910109   2.501   3.266   4.971 -0.1341 -0.3167  0.3824
  100SAPE  H19R10110   2.471   3.364   5.014  0.4109  0.5093 -1.0426
  100SAPE  H19S10111   2.422   3.193   5.000 -0.5203 -0.1129 -0.1350
  100SAPE  C22010112   2.494   3.292   4.814  0.3094  0.2550  0.1901
  100SAPE  H20R10113   2.585   3.347   4.782 -1.5830  2.0338 -2.6016
  100SAPE  H20S10114   2.402   3.350   4.794  1.7077  1.7543 -2.4935
  100SAPE  H20T10115   2.485   3.201   4.749  0.4097  1.4620 -1.5910
  100SAPE   C3310116   3.628   2.327   6.143  0.4786 -0.3282 -0.3194
  100SAPE   H3X10117   3.706   2.394   6.185  2.9646 -2.7449 -0.7881
  100SAPE   H3Y10118   3.546   2.393   6.108  0.1106 -0.6438 -0.0504
  100SAPE   C3410119   3.707   2.271   6.012  0.9541  0.2765 -0.6400
  100SAPE   H4X10120   3.629   2.215   5.955 -0.8657 -0.4684  2.3257
  100SAPE   H4Y10121   3.782   2.194   6.040 -1.2577 -2.3884 -1.6343
  100SAPE   C3510122   3.757   2.372   5.914  0.2429  0.3656  0.5767
  100SAPE   H5X10123   3.826   2.440   5.967  0.3099  0.3964  0.4491
  100SAPE   H5Y10124   3.669   2.433   5.886  1.4703  1.1011 -1.9417
  100SAPE   C3610125   3.799   2.304   5.784 -0.8727  0.6673 -0.2886
  100SAPE   H6X10126   3.736   2.214   5.764  0.2608 -0.2829  0.2971
  100SAPE   H6Y10127   3.906   2.275   5.793 -1.0881 -0.8159 -1.8426
  100SAPE   C3710128   3.802   2.396   5.658  0.5055 -0.0990  0.5752
  100SAPE   H7X10129   3.865   2.478   5.700 -0.6403  0.1035  1.9735
  100SAPE   H7Y10130   3.708   2.448   5.630  1.2663  0.2145 -1.6276
  100SAPE   C3810131   3.869   2.329   5.540  0.8323  0.0112  0.2316
  100SAPE   H8X10132   3.808   2.238   5.526 -1.0512  1.2247  0.2419
  100SAPE   H8Y10133   3.975   2.306   5.565  1.1934  2.0419  0.7611
  100SAPE   C3910134   3.851   2.423   5.426 -0.2802  0.0111 -0.1449
  100SAPE   H9X10135   3.886   2.522   5.463  0.2243  0.0198 -0.6409
  100SAPE   H9Y10136   3.749   2.428   5.382  0.0622  0.0342 -0.9537
  100SAPE  C31010137   3.948   2.379   5.317  0.1951  0.1165 -0.2259
  100SAPE  H10X10138   3.920   2.277   5.282  0.6879 -0.8429  1.9965
  100SAPE  H10Y10139   4.045   2.367   5.370 -0.7013  0.0391  1.4406
  100SAPE  C31110140   3.952   2.471   5.197 -0.1612  0.0162 -0.7826
  100SAPE  H11X10141   4.047   2.444   5.146  0.4712  0.7844 -0.0285
  100SAPE  H11Y10142   3.954   2.580   5.216  1.9682  0.1912 -1.7501
  100SAPE  C31210143   3.838   2.445   5.100  1.3690  0.6743 -0.3808
  100SAPE  H12X10144   3.744   2.434   5.158  1.1744 -1.0356 -0.9334
  100SAPE  H12Y10145   3.830   2.345   5.052 -0.4154  0.2634  0.6615
  100SAPE  C31310146   3.843   2.549   4.992 -0.4124  0.1678 -0.4281
  100SAPE  H13X10147   3.939   2.544   4.936 -1.6604 -1.0437 -2.6168
  100SAPE  H13Y10148   3.820   2.650   5.030  1.1941  0.5601 -0.4049
  100SAPE  C31410149   3.723   2.519   4.893 -0.5691  0.4928  0.9804
  100SAPE  H14X10150   3.625   2.512   4.945 -0.3940 -0.7432  1.1705
  100SAPE  H14Y10151   3.736   2.418   4.848 -1.1413  0.6017  0.5544
  100SAPE  C31510152   3.717   2.624   4.787  0.1105 -0.6897  0.4142
  100SAPE  H15X10153   3.819   2.648   4.749 -0.7198 -0.4840 -1.8195
  100SAPE  H15Y10154   3.684   2.716   4.839  1.8092 -0.1782  0.6617
  100SAPE  C31610155   3.609   2.580   4.678 -0.3441 -0.7502  0.0101
  100SAPE  H16X10156   3.532   2.540   4.748  1.9579 -1.2956  2.3821
  100SAPE  H16Y10157   3.663   2.503   4.619  1.8129  0.7317 -0.0634
  100SAPE  C31710158   3.545   2.688   4.595  0.1475 -0.8916  0.0660
  100SAPE  H17X10159   3.482   2.748   4.664  0.1449  2.4269 -2.5653
  100SAPE  H17Y10160   3.482   2.663   4.507  1.1168  1.8426 -1.5048
  100SAPE  C31810161   3.650   2.776   4.531 -0.0990 -0.3808  0.6852
  100SAPE  H18X10162   3.608   2.864   4.478  0.7917 -0.3911 -0.0724
  100SAPE  H18Y10163   3.713   2.723   4.457 -1.9702 -1.4541 -0.2044
  100SAPE  H18Z10164   3.714   2.827   4.607 -0.7589  3.1710 -0.9566
  101SAPE     N10165   3.717   0.071   6.459 -0.2454  0.0572  0.2698
  101SAPE   HN110166   3.677  -0.009   6.407  0.5612  0.2200 -0.6222
  101SAPE   HN210167   3.821   0.065   6.464 -0.3350 -1.4063  0.8194
  101SAPE   HN310168   3.689   0.057   6.558  2.2050 -2.4798  0.7411
  101SAPE   C1210169   3.655   0.195   6.405 -0.2979  0.2433 -0.2875
  101SAPE  H12A10170   3.730   0.277   6.415 -0.1871  0.4142 -2.2109
  101SAPE  H12B10171   3.564   0.218   6.464  0.1608  2.1550 -0.2680
  101SAPE   C1110172   3.622   0.186   6.257  0.4611 -0.5777 -0.3239
  101SAPE  H11A10173   3.712   0.146   6.205 -1.3500 -2.6087 -2.0992
  101SAPE  H11B10174   3.609   0.289   6.218  1.5196 -0.6154 -0.8120
  101SAPE     P10175   3.350   0.142   6.201 -0.0624 -0.0523 -0.1263
  101SAPE   O1310176   3.265   0.030   6.181 -0.0504  0.5053  0.2867
  101SAPE   O1410177   3.320   0.229   6.317  0.0199 -0.7512  1.1253
  101SAPE   O1210178   3.504   0.105   6.227  0.0225  0.3622  0.4630
  101SAPE   O1110179   3.372   0.216   6.068 -0.2767 -0.3112  0.0177
  101SAPE    C110180   3.485   0.195   5.980 -0.3297 -0.0859  0.3620
  101SAPE    HA10181   3.561   0.274   6.001 -1.5705  1.0191  0.8574
  101SAPE    HB10182   3.542   0.103   6.005 -0.5034  0.2217  1.9972
  101SAPE    C210183   3.447   0.190   5.827 -0.5674  0.4871 -0.0207
  101SAPE    HS10184   3.421   0.290   5.787  0.6702  0.3251 -1.3447
  101SAPE   O2110185   3.342   0.097   5.802  0.1364  1.0320  0.4193
  101SAPE   C2110186   3.217   0.145   5.806  0.3167 -0.0291  0.1230
  101SAPE   O2210187   3.192   0.265   5.825  0.1289 -0.6025 -0.1219
  101SAPE   C2210188   3.126   0.032   5.760 -0.1603  0.0263 -0.6700
  101SAPE   H2R10189   3.158  -0.011   5.663  0.7933  0.8798 -0.7517
  101SAPE   H2S10190   3.133  -0.054   5.829 -2.3387  2.6128  3.1606
  101SAPE    C310191   3.572   0.149   5.743  0.1675  0.5967 -0.3411
  101SAPE    HX10192   3.596   0.049   5.785 -1.3480  0.0265 -0.7720
  101SAPE    HY10193   3.663   0.206   5.772  0.4105  1.5324 -2.7183
  101SAPE   O3110194   3.555   0.155   5.595 -0.5489  0.8664 -0.8714
  101SAPE   C3110195   3.512   0.040   5.549  0.9344  0.0549  0.9870
  101SAPE   O3210196   3.492  -0.061   5.615  0.4898 -0.0450 -0.0477
  101SAPE   C3210197   3.492   0.065   5.396  0.2051  0.5544 -0.1418
  101SAPE   H2X10198   3.505   0.173   5.373 -1.3203  1.1617  1.6099
  101SAPE   H2Y10199   3.394   0.028   5.356  0.5172  0.8978 -1.2521
  101SAPE   C2310200   2.977   0.074   5.755 -0.4801 -0.3496 -0.4017
  101SAPE   H3R10201   2.976   0.168   5.695  1.2958 -1.2271 -1.8852
  101SAPE   H3S10202   2.936   0.084   5.858  1.8212  1.1867  0.4385
  101SAPE   C2410203   2.896  -0.024   5.674  0.0465  0.3951 -0.6192
  101SAPE   H4R10204   2.907  -0.130   5.706  1.1685  0.9853  1.0736
  101SAPE   H4S10205   2.950  -0.025   5.577  0.4533 -2.3370 -0.4629
  101SAPE   C2510206   2.749   0.017   5.663  0.0348 -0.1754  0.7696
  101SAPE   H5R10207   2.690  -0.014   5.750 -1.9604 -1.5095 -0.9659
  101SAPE   C2610208   2.688   0.075   5.556 -0.3835 -0.7672  0.0880
  101SAPE   H6R10209   2.584   0.109   5.559  0.0512  0.5370  1.9877
  101SAPE   C2710210   2.763   0.134   5.437 -0.4910  0.8821 -0.3853
  101SAPE   H7R10211   2.867   0.159   5.468 -0.6551 -0.7788  1.8067
  101SAPE   H7S10212   2.723   0.231   5.401  0.2476  1.1770 -0.4381
  101SAPE   C2810213   2.754   0.036   5.327 -0.4271 -0.0578  0.2390
  101SAPE   H8R10214   2.662  -0.025   5.319 -0.7497 -0.2622  3.7230
  101SAPE   C2910215   2.837   0.031   5.222 -0.6051  0.1217 -0.7770
  101SAPE   H9R10216   2.817  -0.045   5.145 -1.3537 -0.3826 -0.0989
  101SAPE  C21010217   2.955   0.125   5.203 -0.7142 -0.5309  0.0639
  101SAPE  H10R10218   3.037   0.080   5.144  0.2073 -2.0205  2.3242
  101SAPE  H10S10219   2.996   0.152   5.303 -1.1299  2.1547 -0.4135
  101SAPE  C21110220   2.916   0.266   5.166  0.1168  0.1503  0.6686
  101SAPE  H11R10221   2.841   0.311   5.233 -0.6244 -0.7121  0.4380
  101SAPE  C21210222   2.957   0.338   5.059 -0.4129  0.7966  0.0872
  101SAPE  H12R10223   2.923   0.442   5.054  1.1456  1.3643  0.7139
  101SAPE  C21310224   3.051   0.287   4.953  0.3379 -0.0630 -0.2618
  101SAPE  H13R10225   3.059   0.176   4.947  0.7181 -0.0545  0.0887
  101SAPE  H13S10226   3.151   0.324   4.984  0.0900  1.0353 -0.7039
  101SAPE  C21410227   3.015   0.357   4.822 -0.7113  0.5160 -0.1422
  101SAPE  H14R10228   3.069   0.452   4.805 -0.3250  0.7907  2.3094
  101SAPE  C21510229   2.930   0.314   4.729 -0.1931  0.3853  0.0564
  101SAPE  H15R10230   2.902   0.368   4.637  2.5908  1.2393 -0.3858
  101SAPE  C21610231   2.855   0.180   4.724  0.0995  0.4581 -0.6249
  101SAPE  H16R10232   2.883   0.106   4.803 -0.6323  1.3596  0.5093
  101SAPE  H16S10233   2.884   0.129   4.630  0.2571 -0.0953 -0.2820
  101SAPE  C21710234   2.701   0.195   4.727 -0.1941 -0.0900 -0.1491
  101SAPE  H17R10235   2.654   0.112   4.670 -3.2623  0.5608  1.2516
  101SAPE  H17S10236   2.668   0.286   4.673 -3.6376 -1.3468 -0.4276
  101SAPE  C21810237   2.625   0.192   4.859 -0.1249 -0.2192  0.0344
  101SAPE  H18R10238   2.522   0.229   4.838  0.2833  0.4418 -0.8663
  101SAPE  H18S10239   2.666   0.268   4.930  0.4890 -0.5798  0.0700
  101SAPE  C21910240   2.616   0.054   4.924 -0.0494  0.2390 -0.5764
  101SAPE  H19R10241   2.551   0.073   5.012 -1.5377 -1.8045 -1.1504
  101SAPE  H19S10242   2.715   0.019   4.958 -0.3010 -2.5457 -2.3704
  101SAPE  C22010243   2.544  -0.056   4.842  0.3561 -0.2294  0.0782
  101SAPE  H20R10244   2.600  -0.082   4.750  1.1369 -0.1263  0.5172
  101SAPE  H20S10245   2.442  -0.022   4.814  0.5758  0.8205  0.4902
  101SAPE  H20T10246   2.534  -0.151   4.898 -0.7900 -1.0102 -1.3765
  101SAPE   C3310247   3.592  -0.027   5.309 -0.6040 -0.2732 -0.8757
  101SAPE   H3X10248   3.609  -0.124   5.360  1.4008 -0.5734 -1.9981
  101SAPE   H3Y10249   3.691   0.023   5.312 -0.4969 -0.5390  0.9598
  101SAPE   C3410250   3.546  -0.038   5.163  0.1558  0.4180 -0.1696
  101SAPE   H4X10251   3.438  -0.065   5.162 -0.3643  2.2970 -1.6164
  101SAPE   H4Y10252   3.583  -0.126   5.107 -4.2070 -2.3062  0.7279
  101SAPE   C3510253   3.570   0.089   5.083 -0.2475  0.5215 -0.4612
  101SAPE   H5X10254   3.678   0.096   5.059 -0.5872  2.1810 -1.7593
  101SAPE   H5Y10255   3.541   0.172   5.152  0.1817 -0.2343  0.6429
  101SAPE   C3610256   3.497   0.090   4.953  0.2925  0.7244 -0.3529
  101SAPE   H6X10257   3.388   0.081   4.973  0.1937 -1.7196 -1.5756
  101SAPE   H6Y10258   3.514   0.000   4.889 -1.6286  0.1661 -0.1519
  101SAPE   C3710259   3.510   0.212   4.864  0.0533 -0.0818 -0.4894
  101SAPE   H7X10260   3.474   0.303   4.916  4.0087  0.8784  0.9519
  101SAPE   H7Y10261   3.452   0.190   4.772  0.6972  0.0678 -0.9412
  101SAPE   C3810262   3.661   0.235   4.835 -0.7984 -0.0539  0.4724
  101SAPE   H8X10263   3.706   0.141   4.796  2.1489  0.9837  1.1113
  101SAPE   H8Y10264   3.707   0.256   4.934  0.2025  1.5846 -0.2967
  101SAPE   C3910265   3.691   0.335   4.720 -0.9598 -0.3859  0.1688
  101SAPE   H9X10266   3.677   0.275   4.627  0.0699 -0.6631  0.1835
  101SAPE   H9Y10267   3.799   0.356   4.710 -0.8650  0.5812  2.5885
  101SAPE  C31010268   3.609   0.463   4.724  0.5209 -0.7207  0.3866
  101SAPE  H10X10269   3.646   0.525   4.809  0.3308 -1.5239  1.0637
  101SAPE  H10Y10270   3.503   0.433   4.734 -0.1997  0.7802 -1.9145
  101SAPE  C31110271   3.614   0.540   4.588 -0.3968  0.1526  0.4776
  101SAPE  H11X10272   3.550   0.629   4.607  1.9140  1.7895  1.0630
  101SAPE  H11Y10273   3.578   0.476   4.504 -1.4292 -0.1066  1.0947
  101SAPE  C31210274   3.748   0.605   4.553  0.3117 -0.2766 -0.8902
  101SAPE  H12X10275   3.744   0.658   4.456  0.5986 -0.9459 -1.2765
  101SAPE  H12Y10276   3.817   0.518   4.539  0.5856 -0.0775 -0.7894
  101SAPE  C31310277   3.796   0.702   4.668  0.0112  0.0163 -0.3519
  101SAPE  H13X10278   3.843   0.639   4.747  0.8348  0.4228 -0.5023
  101SAPE  H13Y10279   3.714   0.757   4.720 -1.1488  0.0960 -2.1770
  101SAPE  C31410280   3.898   0.807   4.624  0.3547 -0.1443  0.2407
  101SAPE  H14X10281   3.934   0.852   4.719 -0.7327  1.2580  0.0210
  101SAPE  H14Y10282   3.843   0.880   4.562  0.8471 -0.7300 -0.9114
  101SAPE  C31510283   4.019   0.755   4.547  0.0378  0.3487 -0.2125
  101SAPE  H15X10284   3.995   0.715   4.446  2.0961  1.4099 -1.1780
  101SAPE  H15Y10285   4.064   0.676   4.611  5.5567  1.7126 -1.8347
  101SAPE  C31610286   4.112   0.868   4.513  0.0797 -0.2687  0.0326
  101SAPE  H16X10287   4.153   0.907   4.609 -0.3880  2.2410 -0.7130
  101SAPE  H16Y10288   4.058   0.958   4.478  2.8128  1.6041  0.3654
  101SAPE  C31710289   4.240   0.829   4.433 -0.2693 -0.4314 -0.1382
  101SAPE  H17X10290   4.207   0.797   4.332  1.2253 -2.2666 -0.0939
  101SAPE  H17Y10291   4.275   0.739   4.488  2.4172  0.6259 -0.0015
  101SAPE  C31810292   4.347   0.935   4.440  0.2945 -0.2381  0.1329
  101SAPE  H18X10293   4.441   0.899   4.394 -0.0040  2.0772 -2.5794
  101SAPE  H18Y10294   4.369   0.940   4.549 -1.1631 -2.3112  0.5675
  101SAPE  H18Z10295   4.320   1.037   4.404 -1.4757 -0.5491  0.4935
  102SAPE     N10296   3.177   5.425   6.842  0.2879  0.5878 -0.4270
  102SAPE   HN110297   3.253   5.357   6.861 -0.6070 -0.4997 -0.5971
  102SAPE   HN210298   3.213   5.519   6.867 -1.0129  0.7915  0.8417
  102SAPE   HN310299   3.107   5.397   6.914 -0.8393  0.0776 -1.6771
  102SAPE   C1210300   3.118   5.415   6.705  0.3588  0.0790  0.1193
  102SAPE  H12A10301   3.105   5.310   6.671 -2.9096  1.1256 -2.3271
  102SAPE  H12B10302   3.196   5.441   6.631  0.7415 -2.5778 -0.5225
  102SAPE   C1110303   2.981   5.494   6.700 -0.1647  0.5394  0.0042
  102SAPE  H11A10304   2.962   5.512   6.592  0.8839 -1.6314 -0.5917
  102SAPE  H11B10305   3.004   5.590   6.751  0.2262  1.3291 -1.6077
  102SAPE     P10306   2.725   5.474   6.742  0.0441  0.3014 -0.1072
  102SAPE   O1310307   2.640   5.416   6.851 -0.1078 -0.2459 -0.1329
  102SAPE   O1410308   2.725   5.618   6.730  0.4746  0.1730 -0.2742
  102SAPE   O1210309   2.869   5.427   6.766 -0.3471 -0.0679  0.9914
  102SAPE   O1110310   2.680   5.405   6.609  0.4608  0.1622 -0.8059
  102SAPE    C110311   2.682   5.260   6.605  0.0292 -0.3992  0.4593
  102SAPE    HA10312   2.783   5.230   6.640  0.4116  0.4161  0.0939
  102SAPE    HB10313   2.601   5.219   6.670 -1.2530  0.4957 -0.5127
  102SAPE    C210314   2.671   5.216   6.460 -0.5079  0.3135 -0.2637
  102SAPE    HS10315   2.681   5.106   6.449 -1.2004  0.4741 -3.4469
  102SAPE   O2110316   2.772   5.290   6.385  0.1563  0.3245 -0.1635
  102SAPE   C2110317   2.894   5.269   6.403  0.2002  0.5329 -0.6292
  102SAPE   O2210318   2.948   5.173   6.456 -0.2609 -0.0481  0.0554
  102SAPE   C2210319   2.967   5.384   6.342  0.5927 -0.0627  0.1689
  102SAPE   H2R10320   3.010   5.446   6.423  0.7504  0.2406 -0.1441
  102SAPE   H2S10321   3.049   5.327   6.293 -1.3190 -3.7002  0.8702
  102SAPE    C310322   2.535   5.242   6.391  0.5139 -0.6679  0.3173
  102SAPE    HX10323   2.497   5.341   6.424  1.1441 -0.1485 -0.4706
  102SAPE    HY10324   2.465   5.167   6.435 -1.0387 -0.2508 -1.2959
  102SAPE   O3110325   2.537   5.216   6.251 -0.1502  0.3529  0.4714
  102SAPE   C3110326   2.550   5.319   6.175 -0.1009 -1.1602  0.4562
  102SAPE   O3210327   2.549   5.437   6.212  0.5900 -0.3117 -0.2881
  102SAPE   C3210328   2.530   5.268   6.032 -0.7988 -0.2430 -0.6282
  102SAPE   H2X10329   2.437   5.208   6.027 -0.0991 -1.3127 -1.3034
  102SAPE   H2Y10330   2.620   5.208   6.004  0.0946  0.4393  0.6698
  102SAPE   C2310331   2.889   5.476   6.249  0.2659 -0.2112  0.1237
  102SAPE   H3R10332   2.929   5.580   6.255  2.2401 -0.6321 -3.3292
  102SAPE   H3S10333   2.781   5.472   6.275  0.4948  0.3753  1.2409
  102SAPE   C2410334   2.914   5.442   6.104  0.9929  0.0095  0.3212
  102SAPE   H4R10335   3.012   5.475   6.063  0.2140 -0.2129 -1.8037
  102SAPE   H4S10336   2.844   5.517   6.062 -1.6957 -2.0662  0.8625
  102SAPE   C2510337   2.876   5.302   6.069  0.1273 -0.5253 -0.3985
  102SAPE   H5R10338   2.806   5.257   6.141 -0.4139  1.8184  0.6221
  102SAPE   C2610339   2.936   5.222   5.980 -0.0085 -0.2977 -0.0735
  102SAPE   H6R10340   2.899   5.120   5.962  0.5493 -0.4819 -0.1922
  102SAPE   C2710341   3.044   5.268   5.886 -0.3775 -0.4987 -0.1985
  102SAPE   H7R10342   3.079   5.369   5.917 -0.0724 -1.5349  3.2602
  102SAPE   H7S10343   2.995   5.277   5.787  0.2553 -0.7026 -0.5334
  102SAPE   C2810344   3.162   5.173   5.873 -0.2396 -0.6169  0.7996
  102SAPE   H8R10345   3.191   5.125   5.967  1.5953 -2.3447 -0.5670
  102SAPE   C2910346   3.228   5.140   5.759  0.3820  0.1899  0.6721
  102SAPE   H9R10347   3.315   5.072   5.761 -0.2454 -0.6703 -0.5364
  102SAPE  C21010348   3.208   5.189   5.618 -0.6747 -0.4980 -0.1124
  102SAPE  H10R10349   3.306   5.183   5.566 -1.0905 -1.0337 -0.8428
  102SAPE  H10S10350   3.182   5.297   5.613  3.2224  0.5800 -0.5818
  102SAPE  C21110351   3.102   5.111   5.552 -0.1573 -0.5965 -0.4694
  102SAPE  H11R10352   3.035   5.057   5.620 -0.7547  1.6755  0.8353
  102SAPE  C21210353   3.075   5.108   5.421  0.5632 -0.0726 -0.4809
  102SAPE  H12R10354   2.982   5.058   5.390  0.5872 -0.5680  0.2177
  102SAPE  C21310355   3.166   5.167   5.321  0.0747  0.5012 -0.2235
  102SAPE  H13R10356   3.185   5.096   5.237  0.8535  1.9310 -1.3129
  102SAPE  H13S10357   3.270   5.185   5.356  0.3083 -0.2656 -0.4924
  102SAPE  C21410358   3.107   5.302   5.282 -0.1650 -0.5384 -0.4494
  102SAPE  H14R10359   3.079   5.356   5.374  1.9334  0.1671 -0.1733
  102SAPE  C21510360   3.067   5.348   5.160 -0.1668 -0.1115 -0.1116
  102SAPE  H15R10361   3.023   5.448   5.143  0.7476  0.0782 -1.6293
  102SAPE  C21610362   3.110   5.275   5.029 -0.0872  0.2579 -0.7435
  102SAPE  H16R10363   3.028   5.201   5.022 -0.8576  0.9022  1.0185
  102SAPE  H16S10364   3.211   5.229   5.043 -0.2507  0.0325 -0.3023
  102SAPE  C21710365   3.129   5.353   4.902  0.1537 -0.7405 -0.9317
  102SAPE  H17R10366   3.221   5.408   4.931  0.0169 -1.2205  0.4773
  102SAPE  H17S10367   3.038   5.414   4.884  0.0526 -0.9591 -1.1771
  102SAPE  C21810368   3.160   5.258   4.786 -0.5904 -0.6885  0.7411
  102SAPE  H18R10369   3.074   5.200   4.746  1.4070 -3.6005  0.3526
  102SAPE  H18S10370   3.220   5.171   4.819 -1.0804 -1.6019 -0.6559
  102SAPE  C21910371   3.224   5.332   4.669 -0.1828 -0.3934 -0.4600
  102SAPE  H19R10372   3.287   5.264   4.608  0.5861 -1.1745  1.1229
  102SAPE  H19S10373   3.294   5.411   4.704  0.4328  0.3375 -3.1509
  102SAPE  C22010374   3.118   5.391   4.580  1.0174 -0.0929 -0.4489
  102SAPE  H20R10375   3.046   5.463   4.626 -0.0334 -0.0892 -1.9970
  102SAPE  H20S10376   3.043   5.318   4.544 -1.6209  1.1551  2.0905
  102SAPE  H20T10377   3.155   5.456   4.497 -0.6350  2.3714  0.6074
  102SAPE   C3310378   2.512   5.393   5.941 -0.5322 -0.2951 -0.4307
  102SAPE   H3X10379   2.600   5.460   5.943 -0.8204  0.0768  0.7502
  102SAPE   H3Y10380   2.421   5.449   5.974 -2.4001 -1.3548 -3.3647
  102SAPE   C3410381   2.485   5.348   5.801 -0.6747  0.3260  0.7121
  102SAPE   H4X10382   2.446   5.443   5.759 -2.5477 -0.1972  1.1847
  102SAPE   H4Y10383   2.405   5.271   5.801 -0.4722  0.1118  1.0545
  102SAPE   C3510384   2.618   5.313   5.725  0.5901  0.4304  0.3000
  102SAPE   H5X10385   2.650   5.216   5.769 -2.6554 -1.2375 -0.6791
  102SAPE   H5Y10386   2.696   5.385   5.757 -1.6193  1.7464  3.0722
  102SAPE   C3610387   2.593   5.298   5.581 -0.4898 -0.4541 -0.5032
  102SAPE   H6X10388   2.529   5.385   5.554 -0.8958 -1.1968 -2.0987
  102SAPE   H6Y10389   2.530   5.208   5.566 -0.9079 -0.1318 -0.6933
  102SAPE   C3710390   2.729   5.298   5.507  0.5236 -0.0809  0.0005
  102SAPE   H7X10391   2.787   5.216   5.556  1.1498  1.0103  1.1263
  102SAPE   H7Y10392   2.782   5.387   5.544  0.3623 -0.0216  0.0896
  102SAPE   C3810393   2.721   5.283   5.353  0.2772  0.7760  0.1007
  102SAPE   H8X10394   2.668   5.189   5.323 -0.0796  1.9155 -3.3357
  102SAPE   H8Y10395   2.822   5.269   5.309 -0.6909 -1.4498 -1.6744
  102SAPE   C3910396   2.646   5.392   5.264 -0.3117  0.3906 -0.0029
  102SAPE   H9X10397   2.699   5.488   5.279  2.1679 -0.9808  0.5472
  102SAPE   H9Y10398   2.543   5.415   5.298 -0.6863  0.9062 -1.4072
  102SAPE  C31010399   2.633   5.362   5.117  0.1755 -0.3833  0.4089
  102SAPE  H10X10400   2.539   5.309   5.092  0.4284 -0.4132 -0.5245
  102SAPE  H10Y10401   2.729   5.312   5.092 -0.4596 -1.5049  0.1414
  102SAPE  C31110402   2.632   5.494   5.035 -0.8779  0.0216 -1.2951
  102SAPE  H11X10403   2.717   5.558   5.067 -0.3486 -1.3338  0.1455
  102SAPE  H11Y10404   2.538   5.545   5.065 -1.3435 -1.7116  0.4064
  102SAPE  C31210405   2.623   5.469   4.885  0.2023  0.0888 -0.1583
  102SAPE  H12X10406   2.541   5.399   4.858 -1.4893  2.4057 -1.4187
  102SAPE  H12Y10407   2.718   5.421   4.853 -0.2902 -1.9542  1.2252
  102SAPE  C31310408   2.592   5.595   4.800 -0.0951 -0.0128 -0.2431
  102SAPE  H13X10409   2.671   5.673   4.796 -1.0368  0.9311 -2.3560
  102SAPE  H13Y10410   2.498   5.642   4.835  0.0373  0.5060 -0.5715
  102SAPE  C31410411   2.567   5.547   4.659 -0.1448 -0.1741  0.2898
  102SAPE  H14X10412   2.486   5.471   4.654 -0.4310 -0.0535  2.2914
  102SAPE  H14Y10413   2.660   5.500   4.620  1.6867  0.9572  2.9866
  102SAPE  C31510414   2.538   5.668   4.568 -0.2246 -0.2718  0.2972
  102SAPE  H15X10415   2.615   5.747   4.586 -0.5328 -0.0907  0.8378
  102SAPE  H15Y10416   2.439   5.710   4.597  1.0084  4.7567 -1.6217
  102SAPE  C31610417   2.525   5.631   4.415  0.2608 -0.4179  0.3040
  102SAPE  H16X10418   2.459   5.543   4.428  0.3361 -0.5803 -0.3495
  102SAPE  H16Y10419   2.624   5.594   4.380  0.5059 -1.0828  1.6268
  102SAPE  C31710420   2.469   5.750   4.333  0.1346 -0.5297  0.2545
  102SAPE  H17X10421   2.521   5.842   4.366  2.4278 -0.8578 -2.0730
  102SAPE  H17Y10422   2.365   5.765   4.368 -0.1904  1.6085 -1.4064
  102SAPE  C31810423   2.463   5.727   4.186  0.1637  0.1340  1.6551
  102SAPE  H18X10424   2.559   5.686   4.148 -0.5864 -1.1786  1.0796
  102SAPE  H18Y10425   2.445   5.820   4.128 -0.9463 -0.6088  0.7571
  102SAPE  H18Z10426   2.380   5.660   4.155  0.4490  1.3603 -2.3310
  103SAPE     N10427   0.887   3.647   2.402  0.6007  0.0259  0.3205
  103SAPE   HN110428   0.919   3.745   2.389 -0.7254  0.3344 -0.9460
  103SAPE   HN210429   0.794   3.631   2.358  0.2970 -1.4800  1.4384
  103SAPE   HN310430   0.867   3.634   2.503  0.5301 -0.5981  0.2313
  103SAPE   C1210431   0.988   3.550   2.352  0.0417  0.5812 -0.4412
  103SAPE  H12A10432   1.086   3.572   2.400  0.7261  0.2579 -1.6596
  103SAPE  H12B10433   1.011   3.569   2.245  0.5860  0.6081 -0.3250
  103SAPE   C1110434   0.941   3.413   2.386  0.7261  0.3512  0.4249
  103SAPE  H11A10435   0.939   3.395   2.496 -1.1105 -0.5286  0.2910
  103SAPE  H11B10436   1.016   3.343   2.343 -0.4650 -1.3479  1.0234
  103SAPE     P10437   0.782   3.278   2.224 -0.1701 -0.0215  0.0996
  103SAPE   O1310438   0.637   3.259   2.230 -0.1111  0.5191 -0.2258
  103SAPE   O1410439   0.837   3.301   2.087 -0.4382  0.2666  0.7670
  103SAPE   O1210440   0.812   3.405   2.321  0.5856  0.0086 -0.0956
  103SAPE   O1110441   0.855   3.151   2.291  0.1830  0.3939 -0.0137
  103SAPE    C110442   0.787   3.079   2.400  0.4870 -0.2287  0.0263
  103SAPE    HA10443   0.702   3.130   2.449 -1.7044 -4.1385  0.6597
  103SAPE    HB10444   0.740   2.988   2.357  1.4061 -2.3065  3.1080
  103SAPE    C210445   0.881   3.018   2.511  0.6227 -0.2944  0.3150
  103SAPE    HS10446   0.848   2.916   2.540  1.3323 -0.5453  0.2687
  103SAPE   O2110447   0.874   3.101   2.626 -0.2545 -0.2809  0.1817
  103SAPE   C2110448   0.769   3.080   2.705 -0.0195 -0.0992 -0.1190
  103SAPE   O2210449   0.683   2.996   2.683 -0.4515  0.0012  0.0391
  103SAPE   C2210450   0.779   3.162   2.835  0.7063 -0.4628  0.1730
  103SAPE   H2R10451   0.744   3.263   2.805 -1.7741 -1.6023 -1.1263
  103SAPE   H2S10452   0.700   3.123   2.902  1.6777 -0.9607  1.0526
  103SAPE    C310453   1.025   3.001   2.453 -0.4515  0.5039 -0.2387
  103SAPE    HX10454   1.075   3.100   2.446  0.3468  0.1493  0.3419
  103SAPE    HY10455   1.020   2.954   2.352 -0.3887  3.2918 -1.6600
  103SAPE   O3110456   1.101   2.929   2.550 -0.1669  0.6286  0.8196
  103SAPE   C3110457   1.111   2.797   2.525  0.0677 -0.2992 -0.5080
  103SAPE   O3210458   1.033   2.735   2.456 -0.0438 -0.0521 -0.2526
  103SAPE   C3210459   1.225   2.744   2.606  0.3148 -0.0173  1.2735
  103SAPE   H2X10460   1.247   2.826   2.677 -1.6305 -0.4647  2.4789
  103SAPE   H2Y10461   1.306   2.722   2.533 -2.1472 -1.4898 -1.2245
  103SAPE   C2310462   0.913   3.173   2.907 -0.0784 -0.3501  0.3353
  103SAPE   H3R10463   0.992   3.245   2.879 -1.6698  2.3976  2.3906
  103SAPE   H3S10464   0.959   3.071   2.902 -1.8034 -1.1499  0.0554
  103SAPE   C2410465   0.879   3.204   3.056 -0.3291 -0.0325  0.2290
  103SAPE   H4R10466   0.809   3.128   3.098  0.1711  0.3783  1.8896
  103SAPE   H4S10467   0.825   3.301   3.056 -0.1416  0.0719  0.3353
  103SAPE   C2510468   1.007   3.209   3.136  0.2100 -0.0864  0.0114
  103SAPE   H5R10469   1.095   3.231   3.073 -0.4016  4.5966  0.4394
  103SAPE   C2610470   1.029   3.170   3.259  0.0333  0.7333 -0.5149
  103SAPE   H6R10471   1.129   3.186   3.301  0.3745  0.9343 -1.4031
  103SAPE   C2710472   0.920   3.124   3.353  0.1147  1.2964 -0.4337
  103SAPE   H7R10473   0.976   3.064   3.429  0.9581 -0.4646 -2.3538
  103SAPE   H7S10474   0.849   3.055   3.305 -1.7492  3.2236 -0.5858
  103SAPE   C2810475   0.842   3.245   3.404 -0.1993  0.3167  0.1198
  103SAPE   H8R10476   0.766   3.277   3.332  0.3864  1.0852 -0.1595
  103SAPE   C2910477   0.843   3.301   3.526  0.5979  0.7614  0.0905
  103SAPE   H9R10478   0.806   3.404   3.537 -0.3472  0.7370 -2.1967
  103SAPE  C21010479   0.945   3.263   3.627  0.2154 -0.7560  0.5580
  103SAPE  H10R10480   1.034   3.216   3.581 -0.3062  0.0401 -1.3568
  103SAPE  H10S10481   0.912   3.175   3.686 -0.9693 -0.2565  0.6760
  103SAPE  C21110482   0.984   3.381   3.726 -0.2915 -0.1698  0.2342
  103SAPE  H11R10483   1.069   3.446   3.699  0.0245 -1.6177 -2.6680
  103SAPE  C21210484   0.929   3.397   3.851 -0.5065 -0.1394  0.1751
  103SAPE  H12R10485   0.948   3.490   3.908 -0.3906 -0.8441  1.3064
  103SAPE  C21310486   0.813   3.321   3.906  0.3459  0.1562  0.6172
  103SAPE  H13R10487   0.749   3.283   3.823 -0.2777  0.7614  0.8133
  103SAPE  H13S10488   0.762   3.406   3.956 -1.6526 -0.2328 -0.6260
  103SAPE  C21410489   0.877   3.223   3.994 -0.8822  0.4033  0.0755
  103SAPE  H14R10490   0.877   3.120   3.955  1.2762  0.2628  0.3093
  103SAPE  C21510491   0.917   3.223   4.119 -0.3767  0.4314  0.0793
  103SAPE  H15R10492   0.957   3.132   4.167  2.5447  1.4928 -0.0892
  103SAPE  C21610493   0.920   3.344   4.204 -1.0783 -0.3466  0.3425
  103SAPE  H16R10494   0.908   3.335   4.314 -1.6670  2.7100  0.6325
  103SAPE  H16S10495   0.832   3.407   4.181 -2.0804 -1.6923  0.4124
  103SAPE  C21710496   1.050   3.416   4.163  0.1661  0.0792  0.3876
  103SAPE  H17R10497   1.030   3.516   4.207  0.0442  0.9333 -1.5473
  103SAPE  H17S10498   1.086   3.408   4.059  0.2636  0.4427  0.3943
  103SAPE  C21810499   1.177   3.370   4.236  0.5801 -0.0827 -0.6156
  103SAPE  H18R10500   1.204   3.266   4.210 -0.4423 -0.4840 -0.1160
  103SAPE  H18S10501   1.180   3.385   4.346  0.5799 -0.2065 -0.5986
  103SAPE  C21910502   1.293   3.466   4.200  0.5703 -0.0609  0.6041
  103SAPE  H19R10503   1.255   3.569   4.220  0.8081  0.6268 -2.1328
  103SAPE  H19S10504   1.304   3.457   4.090  1.3124 -0.2554  0.6850
  103SAPE  C22010505   1.432   3.431   4.255  0.5470 -0.9077  0.4133
  103SAPE  H20R10506   1.430   3.320   4.251 -0.7892 -0.8665 -0.8992
  103SAPE  H20S10507   1.446   3.466   4.360 -0.0023  0.3295  0.0901
  103SAPE  H20T10508   1.526   3.465   4.208  0.5065  1.4508  1.8558
  103SAPE   C3310509   1.198   2.609   2.670 -0.1539  0.5993 -0.2983
  103SAPE   H3X10510   1.163   2.557   2.578  0.0870 -0.0420 -0.0312
  103SAPE   H3Y10511   1.115   2.629   2.742  1.8123  0.9235  1.9910
  103SAPE   C3410512   1.324   2.542   2.716  0.0602  0.6962  0.3007
  103SAPE   H4X10513   1.404   2.560   2.641 -0.2210 -0.1057 -0.2042
  103SAPE   H4Y10514   1.304   2.433   2.711  0.4909  0.5617  1.2517
  103SAPE   C3510515   1.375   2.587   2.851 -0.1177 -0.2873  0.1910
  103SAPE   H5X10516   1.372   2.697   2.858 -3.3705 -0.1403 -1.5661
  103SAPE   H5Y10517   1.480   2.551   2.857 -0.6008 -1.6750  0.7297
  103SAPE   C3610518   1.295   2.535   2.967 -0.1443  0.2078  0.0942
  103SAPE   H6X10519   1.313   2.428   2.990 -1.0649  0.0551  0.1362
  103SAPE   H6Y10520   1.188   2.529   2.935  0.0737 -0.2310 -0.5630
  103SAPE   C3710521   1.291   2.612   3.098  0.6479  0.0074 -0.0840
  103SAPE   H7X10522   1.394   2.639   3.131  1.6180 -2.4825 -0.8252
  103SAPE   H7Y10523   1.255   2.541   3.177  0.4393 -1.1491 -1.1867
  103SAPE   C3810524   1.199   2.736   3.086  0.3786 -0.1059  0.0099
  103SAPE   H8X10525   1.103   2.694   3.049 -0.5032  0.5797  1.4148
  103SAPE   H8Y10526   1.244   2.804   3.011 -0.2168  2.5621  1.9260
  103SAPE   C3910527   1.192   2.798   3.222  0.2692 -0.2289  0.4352
  103SAPE   H9X10528   1.180   2.909   3.218  0.8025 -0.1746  0.2728
  103SAPE   H9Y10529   1.290   2.782   3.272 -0.2011 -3.6812  0.4740
  103SAPE  C31010530   1.082   2.742   3.315 -0.0021  0.2365  0.1792
  103SAPE  H10X10531   1.090   2.632   3.311 -0.5340  0.1618  0.8373
  103SAPE  H10Y10532   0.981   2.763   3.273  0.3312 -2.3366 -2.1825
  103SAPE  C31110533   1.113   2.795   3.457  0.0848 -0.4289 -0.4215
  103SAPE  H11X10534   1.105   2.906   3.454  2.2862 -0.2448 -1.6601
  103SAPE  H11Y10535   1.221   2.777   3.473  0.4555  2.3830  0.9069
  103SAPE  C31210536   1.031   2.732   3.569 -0.0499 -0.2267 -0.4692
  103SAPE  H12X10537   1.057   2.624   3.573  2.3194  0.1924 -2.0962
  103SAPE  H12Y10538   0.920   2.739   3.560 -0.1503 -1.8326 -0.6256
  103SAPE  C31310539   1.073   2.787   3.709  1.1332  0.7565  0.4693
  103SAPE  H13X10540   1.057   2.897   3.718 -0.6796  0.4268  2.0687
  103SAPE  H13Y10541   1.178   2.756   3.723  0.3837 -0.9485  2.9353
  103SAPE  C31410542   0.986   2.714   3.814 -0.1435 -0.1806  0.3164
  103SAPE  H14X10543   1.026   2.615   3.845 -0.7373 -0.1105  1.3928
  103SAPE  H14Y10544   0.889   2.695   3.765  0.6800 -0.4131 -1.2700
  103SAPE  C31510545   0.958   2.792   3.942  0.1103  0.9381  0.2296
  103SAPE  H15X10546   0.861   2.750   3.978 -0.3966  0.9682 -1.0495
  103SAPE  H15Y10547   0.948   2.899   3.915 -0.0089  0.5588 -1.2912
  103SAPE  C31610548   1.066   2.775   4.047 -0.2504 -0.7619 -0.2478
  103SAPE  H16X10549   1.163   2.791   3.996 -0.7335 -1.0609 -1.3046
  103SAPE  H16Y10550   1.073   2.670   4.083  1.9891 -0.5564  0.0286
  103SAPE  C31710551   1.052   2.872   4.162 -0.5944 -0.2598 -0.4835
  103SAPE  H17X10552   0.960   2.854   4.222 -0.5869 -0.5948 -0.5689
  103SAPE  H17Y10553   1.044   2.973   4.117 -1.7084  1.3802  3.1002
  103SAPE  C31810554   1.177   2.884   4.251  0.0183  0.2294  0.1768
  103SAPE  H18X10555   1.179   2.798   4.322 -1.2588  0.2901  0.2975
  103SAPE  H18Y10556   1.179   2.979   4.307  1.6552  0.6600 -0.5365
  103SAPE  H18Z10557   1.271   2.888   4.190  0.8654 -0.5591  1.3695
  104SAPE     N10558   1.882   2.458   2.033  0.4277 -0.0691 -0.2833
  104SAPE   HN110559   1.939   2.545   2.030 -0.8601  0.8655  1.1434
  104SAPE   HN210560   1.861   2.439   1.933  0.9852 -0.3858 -0.3465
  104SAPE   HN310561   1.790   2.486   2.073  0.6383 -0.4611  0.5038
  104SAPE   C1210562   1.961   2.345   2.095 -0.7758 -0.8088 -0.3677
  104SAPE  H12A10563   1.884   2.275   2.135  0.2332 -1.4816  0.4521
  104SAPE  H12B10564   2.018   2.389   2.180 -1.5018 -0.5655 -0.0047
  104SAPE   C1110565   2.054   2.286   1.985 -0.1898 -0.3086 -0.3733
  104SAPE  H11A10566   1.998   2.251   1.896 -0.6092  1.4795 -0.8520
  104SAPE  H11B10567   2.108   2.198   2.027  1.9039  0.1438 -1.9377
  104SAPE     P10568   2.270   2.346   1.863 -0.0065  0.1406 -0.0270
  104SAPE   O1310569   2.244   2.222   1.781 -0.2855 -0.3312 -0.0992
  104SAPE   O1410570   2.288   2.473   1.783  0.4406 -0.5238  0.5685
  104SAPE   O1210571   2.154   2.384   1.960  0.5166  0.3099 -0.3334
  104SAPE   O1110572   2.388   2.325   1.969  0.5256 -0.3028 -0.0176
  104SAPE    C110573   2.448   2.449   2.021 -0.0404 -0.7840 -0.9797
  104SAPE    HA10574   2.557   2.440   2.004 -0.1181  0.1647 -2.0852
  104SAPE    HB10575   2.406   2.546   1.987  0.7373  0.7803  2.1244
  104SAPE    C210576   2.438   2.451   2.186  0.5253 -0.0057 -0.1189
  104SAPE    HS10577   2.455   2.560   2.202  1.1946 -0.1081 -0.1121
  104SAPE   O2110578   2.549   2.371   2.239  0.1428  1.0214 -0.6925
  104SAPE   C2110579   2.579   2.392   2.366  0.9773  0.0406  0.9982
  104SAPE   O2210580   2.542   2.481   2.440  0.5119 -0.4613 -0.2643
  104SAPE   C2210581   2.674   2.286   2.402  0.1240  0.0329 -0.2505
  104SAPE   H2R10582   2.747   2.275   2.318  0.8182  0.3839  0.2946
  104SAPE   H2S10583   2.730   2.324   2.490  1.9142 -2.6704 -0.0981
  104SAPE    C310584   2.301   2.397   2.236 -0.9023 -0.2280 -0.1525
  104SAPE    HX10585   2.291   2.288   2.217 -0.6312 -0.4533  0.9002
  104SAPE    HY10586   2.219   2.448   2.183 -0.0076  0.8698 -0.5125
  104SAPE   O3110587   2.280   2.428   2.380 -0.5207  0.0599  0.5047
  104SAPE   C3110588   2.229   2.338   2.465 -0.9327  0.3162  0.2137
  104SAPE   O3210589   2.186   2.227   2.434  0.7127 -0.0767 -0.5885
  104SAPE   C3210590   2.229   2.401   2.606  0.0469  1.1321 -0.2934
  104SAPE   H2X10591   2.211   2.511   2.614  2.3952  1.5841 -0.4545
  104SAPE   H2Y10592   2.327   2.387   2.656 -0.3507 -1.2622 -0.0836
  104SAPE   C2310593   2.615   2.144   2.434 -0.6393 -0.1582  0.0257
  104SAPE   H3R10594   2.701   2.074   2.441 -1.4053 -1.0243  1.0644
  104SAPE   H3S10595   2.558   2.106   2.347  0.0170  1.0478 -0.9683
  104SAPE   C2410596   2.529   2.144   2.554 -0.5375  0.0055 -0.3348
  104SAPE   H4R10597   2.470   2.238   2.553  1.2181  1.1608 -0.6252
  104SAPE   H4S10598   2.593   2.155   2.644  1.3262 -1.1642 -1.4612
  104SAPE   C2510599   2.437   2.023   2.560 -0.2107 -0.0795  0.6082
  104SAPE   H5R10600   2.356   2.025   2.486  0.0216  1.0670  0.3644
  104SAPE   C2610601   2.446   1.916   2.635 -0.4647 -0.7076 -0.2408
  104SAPE   H6R10602   2.370   1.840   2.609  0.5056 -1.7874  0.0066
  104SAPE   C2710603   2.534   1.885   2.759 -0.4357 -0.2871 -0.4650
  104SAPE   H7R10604   2.493   1.947   2.841 -0.1070 -0.1671 -0.3939
  104SAPE   H7S10605   2.638   1.918   2.741 -1.4239  4.0125  0.6253
  104SAPE   C2810606   2.545   1.743   2.809  0.1985 -0.2823  0.0391
  104SAPE   H8R10607   2.584   1.673   2.734  2.2364  0.9366 -0.1236
  104SAPE   C2910608   2.530   1.697   2.937  0.1013  0.0159  0.1188
  104SAPE   H9R10609   2.542   1.591   2.965 -1.4341 -0.1003  0.4363
  104SAPE  C21010610   2.495   1.792   3.049  0.2770  0.4857  0.6373
  104SAPE  H10R10611   2.504   1.901   3.033 -2.6317  0.8198  0.7158
  104SAPE  H10S10612   2.560   1.771   3.136  2.3930 -0.5792 -1.0779
  104SAPE  C21110613   2.352   1.759   3.097  0.2564  0.1790  0.8284
  104SAPE  H11R10614   2.277   1.726   3.023  1.7795  1.2623 -1.3306
  104SAPE  C21210615   2.322   1.744   3.226  0.5155  0.0451 -0.2888
  104SAPE  H12R10616   2.214   1.727   3.241  0.6911  0.5584  1.9810
  104SAPE  C21310617   2.414   1.768   3.343 -0.3157  0.5980  0.5444
  104SAPE  H13R10618   2.448   1.874   3.350 -0.8142  0.8992 -1.1053
  104SAPE  H13S10619   2.508   1.710   3.335  0.3444  1.2530  2.7645
  104SAPE  C21410620   2.343   1.747   3.474 -0.1813  0.1369  0.9751
  104SAPE  H14R10621   2.268   1.825   3.495  0.2810  0.9421 -0.1960
  104SAPE  C21510622   2.369   1.645   3.554  0.7160 -0.7479  0.6254
  104SAPE  H15R10623   2.318   1.640   3.652 -0.8685  1.0094 -0.0721
  104SAPE  C21610624   2.470   1.530   3.546 -0.1129  0.3573 -0.7297
  104SAPE  H16R10625   2.510   1.512   3.443  1.5483 -0.6313  0.0358
  104SAPE  H16S10626   2.417   1.433   3.561  0.1852  0.2209 -0.5265
  104SAPE  C21710627   2.600   1.556   3.638  0.3866  0.1065  0.7161
  104SAPE  H17R10628   2.612   1.663   3.665 -1.7237  0.5600  0.0479
  104SAPE  H17S10629   2.693   1.525   3.586  0.5165 -0.8843  1.5183
  104SAPE  C21810630   2.600   1.490   3.781 -0.2261 -0.0025  0.7977
  104SAPE  H18R10631   2.702   1.514   3.816  0.5038 -0.3634 -0.9471
  104SAPE  H18S10632   2.591   1.381   3.760 -0.7737  0.4493 -1.7061
  104SAPE  C21910633   2.496   1.547   3.883  0.2616 -0.8479 -0.1625
  104SAPE  H19R10634   2.494   1.476   3.969  0.6616 -2.0334 -1.1084
  104SAPE  H19S10635   2.400   1.547   3.827  0.1842  0.4166 -0.0554
  104SAPE  C22010636   2.546   1.682   3.934  0.0103 -0.8009 -0.0509
  104SAPE  H20R10637   2.548   1.760   3.854  2.9999 -0.1682  0.5399
  104SAPE  H20S10638   2.646   1.697   3.979 -0.7997  1.3068  1.1953
  104SAPE  H20T10639   2.467   1.719   4.002 -1.1092 -0.1398 -1.6349
  104SAPE   C3310640   2.129   2.329   2.698  0.1084  0.1676  0.3698
  104SAPE   H3X10641   2.038   2.298   2.643 -1.1627  2.6111  0.9581
  104SAPE   H3Y10642   2.103   2.400   2.779  0.5777 -0.0842  0.7477
  104SAPE   C3410643   2.201   2.212   2.770 -0.2128 -0.0855 -0.2781
  104SAPE   H4X10644   2.283   2.242   2.839 -1.9412 -0.0829  1.8979
  104SAPE   H4Y10645   2.243   2.140   2.697  1.4495 -1.0276  1.5065
  104SAPE   C3510646   2.100   2.137   2.851  0.2248 -0.2110 -0.9551
  104SAPE   H5X10647   2.000   2.149   2.804 -1.1304  0.4172  1.8560
  104SAPE   H5Y10648   2.101   2.188   2.950 -0.8202 -0.8392 -0.6016
  104SAPE   C3610649   2.142   1.988   2.860  0.3893 -0.2173 -0.1914
  104SAPE   H6X10650   2.249   1.990   2.890  0.2169  1.0916  0.4046
  104SAPE   H6Y10651   2.125   1.948   2.758  1.6099  1.0080 -0.9046
  104SAPE   C3710652   2.052   1.906   2.949  0.0451  0.2828 -0.6466
  104SAPE   H7X10653   2.089   1.801   2.948  1.1761  0.5880  1.8041
  104SAPE   H7Y10654   1.948   1.920   2.912  0.0452  1.5025 -0.2112
  104SAPE   C3810655   2.056   1.943   3.099 -0.0503 -0.4751 -0.2040
  104SAPE   H8X10656   2.014   2.044   3.114 -0.8959 -1.2071  3.2775
  104SAPE   H8Y10657   2.162   1.951   3.131 -0.3082  1.5189  0.3095
  104SAPE   C3910658   1.969   1.840   3.171 -0.0547  0.1172 -0.0517
  104SAPE   H9X10659   2.002   1.740   3.134  0.3662  0.5655 -0.9300
  104SAPE   H9Y10660   1.862   1.860   3.150 -0.3741  2.9215  3.2931
  104SAPE  C31010661   1.975   1.857   3.327  0.6055  0.7234 -0.2621
  104SAPE  H10X10662   1.960   1.964   3.352  2.1487  0.9569 -0.2797
  104SAPE  H10Y10663   2.079   1.833   3.357  0.4390  0.4814  0.1306
  104SAPE  C31110664   1.884   1.754   3.405  0.0406 -0.3332 -0.5882
  104SAPE  H11X10665   1.893   1.653   3.360 -1.4834 -1.1558  0.8139
  104SAPE  H11Y10666   1.777   1.784   3.398  0.7356  2.3445 -0.9162
  104SAPE  C31210667   1.922   1.726   3.555 -0.2020 -0.2390  0.2769
  104SAPE  H12X10668   2.014   1.666   3.568 -0.5829 -0.2684  3.8250
  104SAPE  H12Y10669   1.837   1.666   3.594 -0.6135  0.1466 -0.0080
  104SAPE  C31310670   1.951   1.861   3.637 -0.5063  0.3390  0.1090
  104SAPE  H13X10671   1.860   1.923   3.618 -0.1695  0.3688 -1.6115
  104SAPE  H13Y10672   2.037   1.917   3.595 -0.8498  0.2493 -0.7329
  104SAPE  C31410673   1.979   1.844   3.788 -0.5409  1.0828  0.1729
  104SAPE  H14X10674   1.879   1.823   3.830 -1.4802  1.8850 -1.5693
  104SAPE  H14Y10675   2.004   1.948   3.818 -1.0229  0.7695  1.7957
  104SAPE  C31510676   2.085   1.733   3.821 -0.2808  0.0202  0.1599
  104SAPE  H15X10677   2.185   1.754   3.777 -0.1160 -0.4390  0.3135
  104SAPE  H15Y10678   2.050   1.632   3.791  1.7567 -0.3467 -1.1593
  104SAPE  C31610679   2.105   1.725   3.973  0.1529 -0.2949  0.2046
  104SAPE  H16X10680   2.182   1.652   4.007  1.4336  1.8533  2.1680
  104SAPE  H16Y10681   2.009   1.686   4.014 -0.8944  0.7746 -1.1539
  104SAPE  C31710682   2.128   1.854   4.046  0.0638 -0.1946  0.1937
  104SAPE  H17X10683   2.032   1.901   4.077 -0.1429 -1.5246  1.7432
  104SAPE  H17Y10684   2.181   1.918   3.973 -0.5050  1.0332  0.8421
  104SAPE  C31810685   2.208   1.845   4.179  0.5775  0.2677  0.1844
  104SAPE  H18X10686   2.243   1.946   4.209  1.6492  0.3310 -1.1738
  104SAPE  H18Y10687   2.290   1.771   4.167  0.0540 -0.2546 -0.2600
  104SAPE  H18Z10688   2.137   1.807   4.256 -0.5495 -1.6863 -1.6993
  105SAPE     N10689   5.442   0.558   1.837  0.2675  0.3434 -0.1830
  105SAPE   HN110690   5.428   0.652   1.878  0.6557 -0.0680  0.9313
  105SAPE   HN210691   5.543   0.533   1.837  0.2038 -0.0557 -2.1437
  105SAPE   HN310692   5.402   0.539   1.743  2.2157 -0.3715 -0.9337
  105SAPE   C1210693   5.369   0.453   1.913 -0.1032 -0.1796  0.3096
  105SAPE  H12A10694   5.354   0.360   1.853  1.4441 -0.8413  0.8953
  105SAPE  H12B10695   5.276   0.497   1.955  0.9275  2.8116 -0.2883
  105SAPE   C1110696   5.464   0.408   2.028  0.4429 -0.8247 -0.3593
  105SAPE  H11A10697   5.515   0.496   2.073  1.5363 -1.2711 -0.6963
  105SAPE  H11B10698   5.540   0.336   1.990  2.0030  1.1926 -1.2159
  105SAPE     P10699   5.337   0.408   2.254 -0.1332 -0.2671  0.1861
  105SAPE   O1310700   5.342   0.555   2.247  0.3496  0.6512  0.2619
  105SAPE   O1410701   5.210   0.344   2.302  0.1903  0.3114  0.1371
  105SAPE   O1210702   5.388   0.335   2.125 -0.2583  0.4285  0.1863
  105SAPE   O1110703   5.453   0.379   2.352 -0.4418  0.3158  0.2088
  105SAPE    C110704   5.521   0.249   2.361  0.1286 -0.4450 -0.8560
  105SAPE    HA10705   5.484   0.170   2.292  1.3503 -1.7141 -0.1109
  105SAPE    HB10706   5.628   0.265   2.336  0.8586 -0.0125  2.1535
  105SAPE    C210707   5.530   0.201   2.516  0.7201 -0.0909  1.2043
  105SAPE    HS10708   5.596   0.113   2.508  0.8675  0.1500 -1.0838
  105SAPE   O2110709   5.401   0.178   2.576 -0.5695 -0.1256  0.3844
  105SAPE   C2110710   5.344   0.063   2.541  0.2566  0.0452  0.1473
  105SAPE   O2210711   5.406  -0.039   2.517 -0.3989  0.5483 -0.2346
  105SAPE   C2210712   5.184   0.085   2.546 -0.0732 -0.3196  0.0689
  105SAPE   H2R10713   5.153   0.147   2.633 -0.4742  1.4581 -1.2666
  105SAPE   H2S10714   5.149   0.138   2.454 -1.7676 -2.2998 -0.5156
  105SAPE    C310715   5.596   0.319   2.587  0.2074  0.3576  0.2512
  105SAPE    HX10716   5.546   0.410   2.548  3.0866  1.8036 -0.3217
  105SAPE    HY10717   5.697   0.334   2.544 -0.4110  2.5818 -0.5768
  105SAPE   O3110718   5.597   0.310   2.733 -0.3940  0.0603  0.0716
  105SAPE   C3110719   5.578   0.418   2.806 -0.6720  0.0756  0.2374
  105SAPE   O3210720   5.578   0.530   2.763  0.4178 -0.4647 -0.1919
  105SAPE   C3210721   5.573   0.371   2.954 -0.3377 -0.1654 -0.1908
  105SAPE   H2X10722   5.638   0.282   2.971 -0.1522 -0.0342 -0.2187
  105SAPE   H2Y10723   5.467   0.337   2.963  0.2789 -2.4598 -0.8024
  105SAPE   C2310724   5.112  -0.053   2.551 -0.3420 -0.0889 -0.4997
  105SAPE   H3R10725   5.132  -0.110   2.458  1.7105 -0.9715  0.4263
  105SAPE   H3S10726   5.004  -0.038   2.572  0.2666  0.6168  2.5602
  105SAPE   C2410727   5.150  -0.150   2.669 -0.1106  0.0784 -1.0140
  105SAPE   H4R10728   5.260  -0.164   2.678 -0.1625  1.2664  3.8503
  105SAPE   H4S10729   5.099  -0.246   2.650 -2.2723  0.2644  2.8748
  105SAPE   C2510730   5.102  -0.096   2.805  0.1799  0.6516 -0.2346
  105SAPE   H5R10731   4.993  -0.106   2.821  0.4234 -0.1471  1.1112
  105SAPE   C2610732   5.183  -0.057   2.909 -0.3326  0.2147  0.1721
  105SAPE   H6R10733   5.128  -0.038   3.002 -0.3373  2.7960 -0.2827
  105SAPE   C2710734   5.337  -0.063   2.908  0.5230 -0.8221  0.3671
  105SAPE   H7R10735   5.379  -0.039   2.808  0.2813  3.6278  1.1552
  105SAPE   H7S10736   5.360  -0.172   2.917 -0.4189 -0.9151  2.5200
  105SAPE   C2810737   5.407   0.029   3.005  0.9619 -0.2264 -0.2426
  105SAPE   H8R10738   5.458   0.118   2.963 -0.3427  0.2426 -0.8877
  105SAPE   C2910739   5.430   0.010   3.139 -0.4257  0.4403  0.3702
  105SAPE   H9R10740   5.477   0.088   3.201 -1.9070  0.5354  1.4333
  105SAPE  C21010741   5.389  -0.108   3.216  0.8490  0.2667  0.1783
  105SAPE  H10R10742   5.470  -0.118   3.290  0.2715  4.3591  1.6139
  105SAPE  H10S10743   5.379  -0.196   3.148 -0.5256  0.8331 -0.3924
  105SAPE  C21110744   5.259  -0.089   3.282  0.6492  0.0610  0.6408
  105SAPE  H11R10745   5.181  -0.046   3.217 -0.3309 -0.9283  1.1261
  105SAPE  C21210746   5.225  -0.126   3.409  0.3200  0.7001 -0.0968
  105SAPE  H12R10747   5.120  -0.125   3.440 -1.3919 -2.8599 -4.5737
  105SAPE  C21310748   5.318  -0.189   3.506 -0.2188  0.1874 -0.8682
  105SAPE  H13R10749   5.376  -0.261   3.444  0.2144 -0.4088  0.2000
  105SAPE  H13S10750   5.263  -0.265   3.565 -0.4406 -0.3615 -1.7624
  105SAPE  C21410751   5.403  -0.098   3.593  0.3019  0.0730 -0.6810
  105SAPE  H14R10752   5.376   0.005   3.566 -2.0222 -0.4583 -0.5755
  105SAPE  C21510753   5.483  -0.130   3.704 -0.0287 -0.0909 -0.2440
  105SAPE  H15R10754   5.527  -0.049   3.764  0.3757  1.0746 -2.0458
  105SAPE  C21610755   5.510  -0.271   3.747 -0.3149 -0.3157 -0.8758
  105SAPE  H16R10756   5.615  -0.274   3.783 -0.8511  0.4427  0.8257
  105SAPE  H16S10757   5.513  -0.349   3.668  0.2428  0.4025 -1.5732
  105SAPE  C21710758   5.407  -0.317   3.854 -0.4667  0.4339  0.4667
  105SAPE  H17R10759   5.432  -0.416   3.898 -3.8671 -0.5922  0.3917
  105SAPE  H17S10760   5.306  -0.324   3.807 -0.7119  0.6713  0.9451
  105SAPE  C21810761   5.403  -0.226   3.983 -0.0549 -0.2112 -0.1725
  105SAPE  H18R10762   5.345  -0.285   4.057  1.0351  0.7887  1.5286
  105SAPE  H18S10763   5.349  -0.133   3.953  0.0354 -0.2724 -0.5302
  105SAPE  C21910764   5.544  -0.189   4.039 -0.4796  0.3079 -0.2875
  105SAPE  H19R10765   5.611  -0.140   3.965 -0.4599  0.4922 -0.1475
  105SAPE  H19S10766   5.586  -0.286   4.071 -0.6470 -0.5702 -2.5167
  105SAPE  C22010767   5.516  -0.088   4.153 -0.4993 -0.4235  0.0755
  105SAPE  H20R10768   5.446  -0.126   4.229  2.0879 -2.1579  1.7584
  105SAPE  H20S10769   5.467   0.004   4.115  0.1771 -0.3443 -0.6393
  105SAPE  H20T10770   5.611  -0.059   4.203 -0.0337 -1.4661 -0.1846
  105SAPE   C3310771   5.586   0.488   3.054  0.3930  0.0879 -0.0870
  105SAPE   H3X10772   5.536   0.463   3.150 -1.0760  0.6481 -0.6814
  105SAPE   H3Y10773   5.537   0.577   3.010  2.8802  1.1980 -0.8170
  105SAPE   C3410774   5.730   0.533   3.066  0.1555 -0.1654 -0.1376
  105SAPE   H4X10775   5.766   0.589   2.977 -1.0272 -0.2406 -0.6801
  105SAPE   H4Y10776   5.791   0.441   3.078  0.0467 -0.6427 -2.6849
  105SAPE   C3510777   5.741   0.608   3.195  0.3395  0.7069  0.4879
  105SAPE   H5X10778   5.704   0.543   3.277 -0.1037 -0.4397 -0.5935
  105SAPE   H5Y10779   5.675   0.697   3.188  0.2593  0.6221  0.1367
  105SAPE   C3610780   5.879   0.659   3.236  0.6537  1.0358 -0.0370
  105SAPE   H6X10781   5.926   0.719   3.155 -0.4205  2.0953  0.1047
  105SAPE   H6Y10782   5.949   0.576   3.261 -1.1712 -0.6352 -0.2461
  105SAPE   C3710783   5.866   0.747   3.355 -0.4522 -1.0313 -0.2838
  105SAPE   H7X10784   5.809   0.687   3.428 -1.6650 -1.2469 -1.3680
  105SAPE   H7Y10785   5.815   0.845   3.339  0.0484 -0.8910 -1.1251
  105SAPE   C3810786   6.005   0.783   3.411 -0.3911  0.7191 -0.1353
  105SAPE   H8X10787   6.068   0.838   3.338  0.7653 -1.6499 -1.0192
  105SAPE   H8Y10788   6.060   0.689   3.431 -0.3547  0.6541 -0.5506
  105SAPE   C3910789   5.994   0.860   3.541  0.1631 -0.1410 -0.7094
  105SAPE   H9X10790   5.956   0.960   3.512  1.6384  0.1943 -1.5815
  105SAPE   H9Y10791   6.097   0.870   3.582  0.4107 -2.6562 -0.5105
  105SAPE  C31010792   5.905   0.792   3.643 -0.5209  0.1968  0.2689
  105SAPE  H10X10793   5.953   0.694   3.663  0.6029  0.7107  0.1593
  105SAPE  H10Y10794   5.801   0.784   3.605 -0.4587 -2.3525  0.4319
  105SAPE  C31110795   5.904   0.872   3.774  0.2789 -0.0077 -0.0108
  105SAPE  H11X10796   5.881   0.980   3.758  3.2941  0.6621 -0.3008
  105SAPE  H11Y10797   5.997   0.872   3.834  0.0028  0.7631  0.4369
  105SAPE  C31210798   5.789   0.817   3.868 -1.0281  0.4030  0.3104
  105SAPE  H12X10799   5.713   0.760   3.811 -0.6226 -0.2121  0.3686
  105SAPE  H12Y10800   5.732   0.904   3.907  1.1081  2.0870 -0.1490
  105SAPE  C31310801   5.841   0.726   3.979 -0.7904  0.0218 -0.5221
  105SAPE  H13X10802   5.894   0.794   4.049 -1.8723  0.2345  0.1071
  105SAPE  H13Y10803   5.906   0.645   3.940 -1.7407 -1.5660  1.0316
  105SAPE  C31410804   5.723   0.665   4.061  0.1234 -0.6824 -0.5462
  105SAPE  H14X10805   5.764   0.582   4.123 -1.8815 -0.0774  1.7802
  105SAPE  H14Y10806   5.652   0.612   3.993  0.7555 -0.9945 -0.9718
  105SAPE  C31510807   5.641   0.765   4.138  0.5657  0.1964 -0.5499
  105SAPE  H15X10808   5.638   0.861   4.082  3.9371 -0.2527 -1.7261
  105SAPE  H15Y10809   5.698   0.795   4.228  1.7727 -0.1973 -1.1601
  105SAPE  C31610810   5.498   0.716   4.161 -0.0905  0.2453  0.8607
  105SAPE  H16X10811   5.473   0.765   4.258  0.8737  0.0216  1.2327
  105SAPE  H16Y10812   5.496   0.608   4.190 -2.4134  0.2819  1.0626
  105SAPE  C31710813   5.404   0.752   4.048  0.4407 -0.1133 -1.1909
  105SAPE  H17X10814   5.443   0.710   3.953  0.6522 -0.5060 -0.9285
  105SAPE  H17Y10815   5.399   0.863   4.035  1.4983  0.4593  2.2903
  105SAPE  C31810816   5.263   0.691   4.067  0.2988 -0.0485  0.2725
  105SAPE  H18X10817   5.207   0.741   3.985  1.0142  0.9979  0.3994
  105SAPE  H18Y10818   5.211   0.732   4.155  0.3817  0.1351  0.2368
  105SAPE  H18Z10819   5.252   0.581   4.053 -1.4996  0.0926  0.4022
  106SAPE     N10820   4.917   5.816   2.307  0.0483 -0.1750  0.1572
  106SAPE   HN110821   4.870   5.909   2.305 -0.1983 -0.3031  0.0133
  106SAPE   HN210822   4.854   5.739   2.278 -0.8506  0.3711  0.6225
  106SAPE   HN310823   4.941   5.794   2.406 -0.5275  0.4747  0.4523
  106SAPE   C1210824   5.057   5.827   2.245  0.3346  0.1100  0.0523
  106SAPE  H12A10825   5.121   5.891   2.308 -0.8522 -0.2108  1.6396
  106SAPE  H12B10826   5.046   5.874   2.145 -2.2183 -0.6909 -0.1199
  106SAPE   C1110827   5.111   5.686   2.224 -0.1190 -0.0748 -0.5910
  106SAPE  H11A10828   5.204   5.698   2.165 -0.2978  0.6526 -0.7392
  106SAPE  H11B10829   5.049   5.625   2.155  1.3857 -1.9386 -0.3855
  106SAPE     P10830   5.256   5.597   2.424 -0.3133  0.2841  0.1230
  106SAPE   O1310831   5.239   5.471   2.509 -0.6076 -0.5494 -0.3312
  106SAPE   O1410832   5.366   5.600   2.325  0.7263  0.5156  0.2425
  106SAPE   O1210833   5.118   5.612   2.344  0.1066  0.1611  0.2206
  106SAPE   O1110834   5.253   5.733   2.504  0.9269  0.4295  0.1667
  106SAPE    C110835   5.374   5.793   2.553  0.1361 -0.4182  0.4374
  106SAPE    HA10836   5.460   5.771   2.485 -1.2214 -0.4551 -1.3285
  106SAPE    HB10837   5.359   5.903   2.557  0.1837 -0.4001  0.1008
  106SAPE    C210838   5.399   5.744   2.700  0.5579 -0.1969  0.1173
  106SAPE    HS10839   5.408   5.633   2.702  0.5971 -0.1854  1.0938
  106SAPE   O2110840   5.273   5.792   2.774  0.1664  0.0811  0.0490
  106SAPE   C2110841   5.235   5.715   2.875  0.2460 -0.6721 -0.6560
  106SAPE   O2210842   5.305   5.625   2.916 -0.0985  0.6501 -0.4474
  106SAPE   C2210843   5.095   5.746   2.926 -0.6798 -0.3543  0.5057
  106SAPE   H2R10844   5.054   5.834   2.874 -0.8945 -1.2967 -0.9595
  106SAPE   H2S10845   5.027   5.667   2.889 -0.3118 -0.7542  0.6725
  106SAPE    C310846   5.517   5.812   2.754  0.1419 -0.2599  0.4874
  106SAPE    HX10847   5.528   5.914   2.710 -0.0130 -0.4928 -0.1011
  106SAPE    HY10848   5.606   5.762   2.711 -1.0021  0.1729 -2.6059
  106SAPE   O3110849   5.528   5.831   2.897  0.5214 -0.1724 -1.0561
  106SAPE   C3110850   5.575   5.722   2.965 -0.1777  0.2891  0.3488
  106SAPE   O3210851   5.637   5.629   2.917 -0.0794  0.4781 -0.0867
  106SAPE   C3210852   5.554   5.738   3.112  0.1872 -0.1495 -0.1225
  106SAPE   H2X10853   5.447   5.763   3.129  0.5176  0.6558  0.8386
  106SAPE   H2Y10854   5.613   5.825   3.146 -0.9039  0.9695 -0.9892
  106SAPE   C2310855   5.092   5.775   3.075 -0.3005  0.0798  1.0733
  106SAPE   H3R10856   5.170   5.711   3.123  1.1052  0.7041 -0.2780
  106SAPE   H3S10857   4.995   5.758   3.126 -0.7982  2.9431  1.2161
  106SAPE   C2410858   5.133   5.924   3.111  0.2237 -0.3673  0.0033
  106SAPE   H4R10859   5.089   6.011   3.059  1.2409  1.1114  1.5060
  106SAPE   H4S10860   5.243   5.930   3.096  0.3370  0.9143  1.1139
  106SAPE   C2510861   5.107   5.943   3.261 -0.4664 -0.3650 -0.8428
  106SAPE   H5R10862   5.196   5.916   3.321 -0.8522  0.9915  0.3991
  106SAPE   C2610863   4.993   5.982   3.319  0.3773 -0.3842  0.3227
  106SAPE   H6R10864   4.990   5.985   3.429  1.8101  0.8890  0.3627
  106SAPE   C2710865   4.873   6.025   3.238  0.7291  0.1150  0.3960
  106SAPE   H7R10866   4.776   5.982   3.271 -0.2420  0.9728 -1.1789
  106SAPE   H7S10867   4.885   5.986   3.134  1.3954  1.2753  0.0197
  106SAPE   C2810868   4.847   6.173   3.227 -0.7610  0.1303 -0.4082
  106SAPE   H8R10869   4.816   6.203   3.126  0.1492  1.7182 -0.2463
  106SAPE   C2910870   4.839   6.259   3.335 -0.1589 -0.2353 -0.2208
  106SAPE   H9R10871   4.827   6.368   3.320  2.8915  0.2242 -0.0692
  106SAPE  C21010872   4.854   6.233   3.483 -0.1915 -0.5181 -0.4255
  106SAPE  H10R10873   4.859   6.126   3.512 -1.4503 -0.2452  0.9027
  106SAPE  H10S10874   4.760   6.280   3.519  0.0389 -0.6711  0.3911
  106SAPE  C21110875   4.982   6.306   3.535  0.3597  0.0533 -0.4353
  106SAPE  H11R10876   5.036   6.367   3.461  1.4351  2.2333  1.9856
  106SAPE  C21210877   5.024   6.312   3.660  0.7244  0.6076 -0.0650
  106SAPE  H12R10878   5.120   6.359   3.687  0.1128  2.2620 -0.6589
  106SAPE  C21310879   4.948   6.243   3.766  0.0563  0.7500  0.5036
  106SAPE  H13R10880   4.865   6.183   3.724 -0.1233  0.7305  0.8825
  106SAPE  H13S10881   4.897   6.319   3.830  0.5729  1.3257  0.2471
  106SAPE  C21410882   5.036   6.141   3.832 -0.3161 -0.9206  0.4820
  106SAPE  H14R10883   5.038   6.042   3.785 -0.6641  0.2418 -2.1821
  106SAPE  C21510884   5.121   6.166   3.941  0.7710  0.2295 -0.9125
  106SAPE  H15R10885   5.185   6.088   3.983 -0.4452 -0.6081 -0.5487
  106SAPE  C21610886   5.106   6.301   4.006 -0.2987  0.0796 -0.5214
  106SAPE  H16R10887   5.088   6.381   3.931  1.4972  0.2127 -0.8478
  106SAPE  H16S10888   5.200   6.337   4.053  0.3402 -0.1468 -1.5983
  106SAPE  C21710889   5.000   6.311   4.123 -0.3663  0.6226  0.0439
  106SAPE  H17R10890   4.954   6.408   4.095  1.4112  0.5299 -3.8103
  106SAPE  H17S10891   5.065   6.325   4.213 -1.5350 -0.0916  1.0269
  106SAPE  C21810892   4.892   6.203   4.125  0.5966 -0.0056  0.0354
  106SAPE  H18R10893   4.936   6.105   4.098 -2.0080 -1.3567  0.3705
  106SAPE  H18S10894   4.806   6.225   4.058  1.5930  1.7695 -0.7377
  106SAPE  C21910895   4.826   6.198   4.265 -0.5737  0.4693  0.6044
  106SAPE  H19R10896   4.897   6.155   4.339 -2.4759 -1.4344  1.4037
  106SAPE  H19S10897   4.743   6.125   4.261 -1.5678  1.5434  1.1780
  106SAPE  C22010898   4.777   6.331   4.313  0.1421 -0.2261 -0.1673
  106SAPE  H20R10899   4.723   6.319   4.410  1.6640 -3.6808  0.3762
  106SAPE  H20S10900   4.719   6.397   4.245  0.1687 -0.3145 -0.2760
  106SAPE  H20T10901   4.865   6.396   4.334  0.0715  1.3395 -3.8940
  106SAPE   C3310902   5.597   5.610   3.189  0.3858  0.3300 -0.2969
  106SAPE   H3X10903   5.706   5.591   3.177  1.2225  2.1406  3.0840
  106SAPE   H3Y10904   5.540   5.521   3.155 -0.0763 -0.2590  1.8921
  106SAPE   C3410905   5.571   5.640   3.330 -0.8322 -0.1346 -0.6848
  106SAPE   H4X10906   5.648   5.711   3.366  0.5547 -2.3790  1.0505
  106SAPE   H4Y10907   5.581   5.548   3.392  0.3853 -0.4986 -1.3873
  106SAPE   C3510908   5.430   5.684   3.359  0.3084 -0.5757  0.1256
  106SAPE   H5X10909   5.374   5.623   3.285 -1.5520  0.4250  0.6560
  106SAPE   H5Y10910   5.409   5.792   3.343 -1.8003 -0.9905 -0.2189
  106SAPE   C3610911   5.369   5.648   3.502 -0.3325 -0.3347 -0.2020
  106SAPE   H6X10912   5.377   5.538   3.517  1.2445  0.1216  3.2301
  106SAPE   H6Y10913   5.262   5.677   3.501 -0.8452 -1.9803 -2.4779
  106SAPE   C3710914   5.440   5.728   3.616  0.0530 -1.1872  0.5218
  106SAPE   H7X10915   5.365   5.720   3.698 -1.2024  2.2591 -0.0901
  106SAPE   H7Y10916   5.438   5.837   3.591 -2.8626 -1.6076 -1.6034
  106SAPE   C3810917   5.576   5.669   3.658  0.5223  0.4061 -0.0185
  106SAPE   H8X10918   5.610   5.744   3.733 -0.9194  0.6837  0.3873
  106SAPE   H8Y10919   5.650   5.676   3.576  1.0360 -2.3133  0.1226
  106SAPE   C3910920   5.577   5.521   3.708  0.1383 -0.6792 -0.4676
  106SAPE   H9X10921   5.556   5.456   3.621 -1.9527 -1.6200  0.6714
  106SAPE   H9Y10922   5.487   5.516   3.773  1.1706 -0.3639  1.0441
  106SAPE  C31010923   5.703   5.486   3.788 -0.4691 -0.6256 -0.0827
  106SAPE  H10X10924   5.715   5.582   3.843 -0.8478 -0.7393  0.1997
  106SAPE  H10Y10925   5.784   5.467   3.715 -0.5176  0.1665 -0.3484
  106SAPE  C31110926   5.673   5.365   3.882  0.1090  0.1588 -0.2160
  106SAPE  H11X10927   5.611   5.287   3.832  0.6892 -1.1577  1.0208
  106SAPE  H11Y10928   5.599   5.405   3.956 -0.5006  1.4161 -1.4590
  106SAPE  C31210929   5.789   5.307   3.964 -0.3482 -0.2796  0.2173
  106SAPE  H12X10930   5.874   5.277   3.900 -0.2340 -3.2295  1.5648
  106SAPE  H12Y10931   5.751   5.216   4.015 -0.5221  0.0117  0.6115
  106SAPE  C31310932   5.847   5.403   4.075  0.5218 -0.0011  0.3934
  106SAPE  H13X10933   5.766   5.458   4.127 -0.0277  0.5465 -0.9981
  106SAPE  H13Y10934   5.905   5.482   4.022  0.3800 -1.3314 -1.8404
  106SAPE  C31410935   5.949   5.335   4.167  0.8385 -0.0064  0.4225
  106SAPE  H14X10936   6.018   5.281   4.100  0.4587 -0.5379  0.4552
  106SAPE  H14Y10937   5.882   5.270   4.228 -0.5136  0.7097 -0.2559
  106SAPE  C31510938   6.023   5.418   4.269  0.0829  0.7119  0.2612
  106SAPE  H15X10939   6.096   5.475   4.207 -0.8804  0.7902 -0.8359
  106SAPE  H15Y10940   6.083   5.355   4.338  1.1410  2.0030  0.5675
  106SAPE  C31610941   5.932   5.513   4.346  0.7661  0.2069  0.2865
  106SAPE  H16X10942   5.833   5.464   4.363  2.0538 -2.6194  0.2043
  106SAPE  H16Y10943   5.915   5.601   4.281 -0.0575  1.0436  1.5865
  106SAPE  C31710944   5.975   5.553   4.481 -0.5016 -0.6295  0.0056
  106SAPE  H17X10945   5.971   5.457   4.538 -0.2771 -1.5687 -1.4819
  106SAPE  H17Y10946   5.906   5.628   4.525  0.4382  1.7813 -2.3814
  106SAPE  C31810947   6.111   5.620   4.480 -0.8350  0.5815 -0.0158
  106SAPE  H18X10948   6.153   5.643   4.580 -0.2549  0.5547 -0.2483
  106SAPE  H18Y10949   6.113   5.706   4.409  1.8264 -0.2081 -1.0024
  106SAPE  H18Z10950   6.186   5.547   4.443 -0.6324  2.0187 -2.7559
  107SAPE     N10951   2.222   0.601   2.013 -0.3203  0.2259  0.4471
  107SAPE   HN110952   2.258   0.662   2.089 -1.6769 -0.6695  1.8516
  107SAPE   HN210953   2.289   0.610   1.933 -2.0107  1.1639 -0.9395
  107SAPE   HN310954   2.130   0.638   1.980  0.0379 -0.0647 -0.9756
  107SAPE   C1210955   2.203   0.459   2.042  0.3401 -0.3635 -0.2988
  107SAPE  H12A10956   2.298   0.402   2.041  0.8073  0.2266  2.3650
  107SAPE  H12B10957   2.131   0.423   1.965  2.5931 -1.6747 -1.9143
  107SAPE   C1110958   2.152   0.455   2.186  0.0368 -0.0913 -0.2454
  107SAPE  H11A10959   2.065   0.520   2.209 -1.1326 -2.2560  2.0037
  107SAPE  H11B10960   2.226   0.497   2.258  2.1850  0.8431 -2.8294
  107SAPE     P10961   2.210   0.235   2.288 -0.2168  0.1229 -0.4576
  107SAPE   O1310962   2.149   0.106   2.339  0.0721 -0.1203 -0.1616
  107SAPE   O1410963   2.324   0.228   2.198 -0.5568 -0.4314  0.2356
  107SAPE   O1210964   2.101   0.327   2.215 -0.1196 -0.6577  0.1152
  107SAPE   O1110965   2.257   0.313   2.414  0.1721 -0.3535 -0.1711
  107SAPE    C110966   2.157   0.374   2.502  0.1611  0.7055 -0.0489
  107SAPE    HA10967   2.174   0.483   2.492 -1.1507  1.2209  2.5354
  107SAPE    HB10968   2.053   0.373   2.463 -0.0640  0.3961  0.5432
  107SAPE    C210969   2.165   0.330   2.654  0.5673  0.5728 -0.3200
  107SAPE    HS10970   2.086   0.384   2.710 -0.2171  0.0668 -0.9203
  107SAPE   O2110971   2.294   0.356   2.699 -0.4010  0.7803 -1.1122
  107SAPE   C2110972   2.320   0.478   2.746  0.7651 -0.3677  0.2929
  107SAPE   O2210973   2.238   0.575   2.747 -0.0024  0.9364  0.4201
  107SAPE   C2210974   2.467   0.502   2.784 -0.2686 -0.1754 -0.3168
  107SAPE   H2R10975   2.523   0.505   2.688 -0.2286  0.5250 -0.2804
  107SAPE   H2S10976   2.488   0.599   2.834  0.3133 -0.8057  0.6856
  107SAPE    C310977   2.135   0.182   2.665  0.1645  0.7019  0.3821
  107SAPE    HX10978   2.200   0.131   2.592 -0.2724 -0.1837  0.5956
  107SAPE    HY10979   2.028   0.162   2.642 -0.3293  1.1759  2.0764
  107SAPE   O3110980   2.144   0.137   2.804  0.1430 -0.6261  0.1682
  107SAPE   C3110981   2.261   0.088   2.853 -0.0317  0.8087  0.4626
  107SAPE   O3210982   2.364   0.073   2.796 -0.4509 -0.1830  0.5368
  107SAPE   C3210983   2.246   0.060   2.999  0.3151 -0.2727  0.3111
  107SAPE   H2X10984   2.332   0.110   3.048  0.8979  0.6826 -1.5926
  107SAPE   H2Y10985   2.266  -0.050   2.994 -2.0397 -0.7055 -1.1940
  107SAPE   C2310986   2.530   0.390   2.870 -1.1191 -0.1682  0.0759
  107SAPE   H3R10987   2.640   0.406   2.864 -1.2738  1.2103  0.5558
  107SAPE   H3S10988   2.521   0.293   2.817  1.2405  0.1548 -1.0758
  107SAPE   C2410989   2.484   0.372   3.016 -0.0169  0.5874  0.4011
  107SAPE   H4R10990   2.552   0.296   3.058  1.3621  0.8898 -1.1539
  107SAPE   H4S10991   2.382   0.336   2.992 -0.2271  2.3602 -1.7703
  107SAPE   C2510992   2.466   0.488   3.098  0.3366 -0.4904 -0.0261
  107SAPE   H5R10993   2.423   0.572   3.042  0.0802 -0.2650  0.4964
  107SAPE   C2610994   2.487   0.498   3.231 -0.4354  0.3068 -0.5509
  107SAPE   H6R10995   2.494   0.595   3.282  1.1530  0.4253 -0.9358
  107SAPE   C2710996   2.517   0.384   3.323  0.2810  0.5242 -0.1261
  107SAPE   H7R10997   2.626   0.364   3.321  0.1844  0.0362 -1.0859
  107SAPE   H7S10998   2.457   0.299   3.285  0.6611 -0.0763  0.6112
  107SAPE   C2810999   2.482   0.408   3.469  0.0180 -0.4077  0.4491
  107SAPE   H8R11000   2.411   0.339   3.517 -0.7330  0.2198  0.2559
  107SAPE   C2911001   2.538   0.508   3.545  1.0572 -0.3429 -0.2786
  107SAPE   H9R11002   2.496   0.531   3.643  1.0109 -1.6610  0.0369
  107SAPE  C21011003   2.635   0.616   3.504  0.1092  0.0363  0.2452
  107SAPE  H10R11004   2.583   0.707   3.468 -1.4505 -0.3007  1.5404
  107SAPE  H10S11005   2.710   0.580   3.431  0.6804 -0.4126  1.0332
  107SAPE  C21111006   2.722   0.664   3.617 -0.9881 -0.1842 -0.5166
  107SAPE  H11R11007   2.811   0.604   3.643 -0.4253  1.1401  0.7501
  107SAPE  C21211008   2.711   0.778   3.691  0.1436  0.0179 -0.4845
  107SAPE  H12R11009   2.783   0.797   3.772 -1.6555 -1.9818  1.7566
  107SAPE  C21311010   2.604   0.886   3.675 -0.0502 -0.1345  0.0798
  107SAPE  H13R11011   2.553   0.900   3.773  0.1091  1.1025  0.0076
  107SAPE  H13S11012   2.528   0.856   3.600  0.3332 -0.2678 -0.2551
  107SAPE  C21411013   2.658   1.024   3.637 -0.1568  0.2751  0.3558
  107SAPE  H14R11014   2.694   1.089   3.718 -3.2256  2.1765  0.3610
  107SAPE  C21511015   2.644   1.086   3.521 -0.1918 -0.3775  0.2333
  107SAPE  H15R11016   2.691   1.185   3.509 -2.5830  0.7717 -0.3293
  107SAPE  C21611017   2.575   1.031   3.397  0.0454  0.9410 -1.1634
  107SAPE  H16R11018   2.468   1.014   3.421  1.0895 -1.5086  2.5821
  107SAPE  H16S11019   2.626   0.937   3.366  0.2430  0.3626  0.7996
  107SAPE  C21711020   2.598   1.129   3.284 -0.2054 -0.4052 -0.0603
  107SAPE  H17R11021   2.706   1.134   3.257  0.3396 -0.5899  1.9411
  107SAPE  H17S11022   2.561   1.232   3.302  2.2355  0.2675  1.5005
  107SAPE  C21811023   2.531   1.083   3.154 -0.8057 -0.5492 -0.3539
  107SAPE  H18R11024   2.420   1.080   3.165 -0.7660 -0.1295  0.1989
  107SAPE  H18S11025   2.570   0.982   3.130  2.1502 -0.5500  3.4851
  107SAPE  C21911026   2.556   1.175   3.035  0.1119 -0.4484  0.2061
  107SAPE  H19R11027   2.664   1.188   3.013 -0.1539  0.6528 -0.5620
  107SAPE  H19S11028   2.527   1.280   3.060 -0.4755 -0.9527  1.6973
  107SAPE  C22011029   2.500   1.137   2.899  0.4498 -0.3927 -0.2908
  107SAPE  H20R11030   2.562   1.054   2.860  0.2645 -0.8000  0.2721
  107SAPE  H20S11031   2.504   1.222   2.827 -1.5856 -0.4863 -0.5727
  107SAPE  H20T11032   2.390   1.121   2.900  0.0194  1.8679 -2.4008
  107SAPE   C3311033   2.106   0.100   3.058  0.2607  0.4276 -0.2161
  107SAPE   H3X11034   2.098   0.051   3.157 -0.1019  2.3061  0.7056
  107SAPE   H3Y11035   2.029   0.039   3.005  0.0230  1.1604 -0.7288
  107SAPE   C3411036   2.075   0.243   3.071 -0.4766  0.1305  0.5469
  107SAPE   H4X11037   1.970   0.253   3.105 -0.4443 -0.0972  0.7193
  107SAPE   H4Y11038   2.086   0.297   2.975  0.6974  1.0031  1.1542
  107SAPE   C3511039   2.162   0.328   3.179  0.1561  0.2828 -0.4424
  107SAPE   H5X11040   2.175   0.433   3.144 -2.5762  0.4618 -1.1469
  107SAPE   H5Y11041   2.260   0.277   3.162  0.7063  0.0997  2.6751
  107SAPE   C3611042   2.127   0.298   3.325  0.4489 -0.3881  0.1206
  107SAPE   H6X11043   2.205   0.342   3.391  1.0452  0.4491 -1.1234
  107SAPE   H6Y11044   2.129   0.189   3.344 -1.1822 -0.5456 -0.4211
  107SAPE   C3711045   1.986   0.355   3.359  0.8733 -0.3840 -0.5089
  107SAPE   H7X11046   1.910   0.298   3.301  0.1407 -0.5327  0.5652
  107SAPE   H7Y11047   1.980   0.464   3.336 -0.0810 -0.1320  0.8574
  107SAPE   C3811048   1.942   0.331   3.505 -0.2747 -0.4992  0.4990
  107SAPE   H8X11049   2.002   0.390   3.578  2.1261 -2.6834  0.4663
  107SAPE   H8Y11050   1.954   0.223   3.530  0.3175 -0.5531  0.0085
  107SAPE   C3911051   1.790   0.364   3.520 -0.1618 -0.2623 -0.1439
  107SAPE   H9X11052   1.727   0.297   3.458  1.6111  0.5602 -3.0140
  107SAPE   H9Y11053   1.779   0.472   3.497 -0.7818 -0.3367 -0.2151
  107SAPE  C31011054   1.751   0.354   3.671 -0.2202  0.2279  0.4817
  107SAPE  H10X11055   1.810   0.432   3.724 -2.7395  4.0405 -1.7908
  107SAPE  H10Y11056   1.762   0.253   3.716  1.0739  0.0978 -0.1006
  107SAPE  C31111057   1.602   0.397   3.684  0.1558 -0.3716 -0.0603
  107SAPE  H11X11058   1.531   0.315   3.662 -0.0028 -0.3869  0.4829
  107SAPE  H11Y11059   1.581   0.487   3.622 -0.8083  0.1001  0.9111
  107SAPE  C31211060   1.569   0.453   3.824 -0.1702  0.0322  0.8341
  107SAPE  H12X11061   1.637   0.539   3.842 -0.0627  0.6108 -1.9985
  107SAPE  H12Y11062   1.596   0.381   3.905  0.6932  1.0415  1.4733
  107SAPE  C31311063   1.430   0.506   3.847 -0.3134 -0.1691 -0.1686
  107SAPE  H13X11064   1.357   0.432   3.806  1.8469 -1.3916 -2.0292
  107SAPE  H13Y11065   1.413   0.591   3.778 -0.6148  0.3587  0.5491
  107SAPE  C31411066   1.400   0.546   3.990  0.1380 -0.0821 -0.3049
  107SAPE  H14X11067   1.469   0.629   4.016  0.7044 -1.3592  2.6811
  107SAPE  H14Y11068   1.426   0.474   4.069 -0.2592  1.6199  1.4549
  107SAPE  C31511069   1.260   0.593   4.002 -0.6168 -0.5234 -0.3312
  107SAPE  H15X11070   1.187   0.510   3.990 -0.2583 -0.6519 -1.6898
  107SAPE  H15Y11071   1.227   0.656   3.916 -1.9771  2.3581  2.0886
  107SAPE  C31611072   1.219   0.660   4.134  0.2349  0.3295  0.8308
  107SAPE  H16X11073   1.233   0.603   4.229  2.0397  1.6180  1.3841
  107SAPE  H16Y11074   1.114   0.695   4.131  0.0383 -0.3222 -1.2412
  107SAPE  C31711075   1.305   0.788   4.154  1.1077  0.3898  0.0600
  107SAPE  H17X11076   1.321   0.826   4.051 -0.1331 -2.1678 -1.1432
  107SAPE  H17Y11077   1.400   0.743   4.189  0.3982 -1.3420 -0.1489
  107SAPE  C31811078   1.252   0.884   4.259  0.4165 -0.0000  0.6576
  107SAPE  H18X11079   1.344   0.925   4.306  0.8591 -0.5148  0.2617
  107SAPE  H18Y11080   1.189   0.828   4.332 -2.2864 -0.2123 -1.6592
  107SAPE  H18Z11081   1.196   0.971   4.221  0.3035  0.1898  1.2513
  108SAPE     N11082   5.839   1.944   2.475 -0.1414  0.8921 -0.2476
  108SAPE   HN111083   5.855   1.875   2.399 -0.1332  1.4134 -0.7264
  108SAPE   HN211084   5.752   1.925   2.528 -0.1267  1.1169 -0.1420
  108SAPE   HN311085   5.823   2.032   2.423  1.2918  0.9928 -0.5601
  108SAPE   C1211086   5.975   1.954   2.544  0.4300 -0.6084 -0.3784
  108SAPE  H12A11087   5.987   1.885   2.629  3.3143  1.9974  1.5572
  108SAPE  H12B11088   5.977   2.058   2.585 -0.7169 -0.4802 -0.6076
  108SAPE   C1111089   6.094   1.941   2.447  0.4657  0.3277 -0.1814
  108SAPE  H11A11090   6.188   1.966   2.502 -0.6489  2.0708  1.0461
  108SAPE  H11B11091   6.074   2.019   2.370  0.8803  1.8639  1.2101
  108SAPE     P11092   6.217   1.773   2.295 -0.0230 -0.0898 -0.0708
  108SAPE   O1311093   6.293   1.662   2.353  0.6784 -0.3489  0.4487
  108SAPE   O1411094   6.163   1.753   2.157 -0.7415 -0.1683  0.3306
  108SAPE   O1211095   6.095   1.811   2.384 -0.3898  0.4075 -0.6843
  108SAPE   O1111096   6.305   1.905   2.295  0.4657  0.3915 -0.3653
  108SAPE    C111097   6.451   1.892   2.294 -0.3717  0.7422  0.2352
  108SAPE    HA11098   6.488   1.817   2.221  0.8059 -0.8678  2.3623
  108SAPE    HB11099   6.500   1.984   2.257  0.0258  0.5991  0.3999
  108SAPE    C211100   6.519   1.863   2.437 -0.0829  0.4227 -0.5972
  108SAPE    HS11101   6.497   1.754   2.446 -1.2942  0.6035 -1.1602
  108SAPE   O2111102   6.457   1.946   2.531 -0.2160 -0.2129 -0.1581
  108SAPE   C2111103   6.455   1.914   2.656 -0.3415  0.6118 -0.4659
  108SAPE   O2211104   6.491   1.811   2.710  0.0386  0.1956 -0.5685
  108SAPE   C2211105   6.394   2.034   2.732  0.2762  0.7828  0.0025
  108SAPE   H2R11106   6.368   2.113   2.658 -0.1227  1.9031  1.3095
  108SAPE   H2S11107   6.296   1.986   2.751  0.6357 -0.0887 -0.3092
  108SAPE    C311108   6.678   1.879   2.425  1.0244 -0.3267 -0.7016
  108SAPE    HX11109   6.700   1.986   2.402 -0.8382  0.4451  0.7615
  108SAPE    HY11110   6.710   1.817   2.339 -0.7387 -2.3778  0.0505
  108SAPE   O3111111   6.749   1.833   2.538 -0.3867  0.2649 -0.3053
  108SAPE   C3111112   6.800   1.920   2.622 -0.6518 -0.4334 -0.1930
  108SAPE   O3211113   6.779   2.044   2.625 -0.3053  0.0324  0.0051
  108SAPE   C3211114   6.883   1.834   2.724 -0.2393  0.3003  0.0281
  108SAPE   H2X11115   6.983   1.829   2.676 -1.1665  0.0183 -1.9652
  108SAPE   H2Y11116   6.849   1.729   2.732  1.8635 -0.5071 -0.9479
  108SAPE   C2311117   6.464   2.084   2.859 -0.3738  0.7485  0.4328
  108SAPE   H3R11118   6.526   2.173   2.830 -0.1896 -0.1966 -2.4088
  108SAPE   H3S11119   6.541   2.006   2.878 -1.3553 -0.4513 -0.3365
  108SAPE   C2411120   6.367   2.121   2.971  1.0133 -0.1490 -0.7644
  108SAPE   H4R11121   6.275   2.162   2.923 -0.9145  0.4791  3.0862
  108SAPE   H4S11122   6.398   2.215   3.022 -0.6243  0.4752 -0.8312
  108SAPE   C2511123   6.333   2.011   3.068  0.3630  0.3418 -0.1640
  108SAPE   H5R11124   6.265   1.930   3.036  0.1277  1.0086 -1.4253
  108SAPE   C2611125   6.381   1.995   3.195 -0.3253 -0.4379  0.3456
  108SAPE   H6R11126   6.374   1.897   3.244  2.4550 -1.6341 -1.4029
  108SAPE   C2711127   6.477   2.090   3.267  0.4603 -0.1417  0.5852
  108SAPE   H7R11128   6.411   2.162   3.319 -1.9899 -1.5357 -0.3955
  108SAPE   H7S11129   6.531   2.149   3.190 -2.6412  1.0901 -0.8420
  108SAPE   C2811130   6.568   2.011   3.354  0.3967  0.7434  0.5086
  108SAPE   H8R11131   6.660   1.979   3.304  0.5045  1.0768  0.4891
  108SAPE   C2911132   6.561   2.001   3.488 -0.3288 -0.8115  0.2456
  108SAPE   H9R11133   6.642   1.940   3.531 -0.2629 -0.5333  0.5175
  108SAPE  C21011134   6.447   2.039   3.570 -0.1042 -0.3476 -0.5134
  108SAPE  H10R11135   6.361   2.071   3.507  2.0003  3.6536 -1.7349
  108SAPE  H10S11136   6.464   2.140   3.613  0.9511 -0.9647  0.5864
  108SAPE  C21111137   6.393   1.940   3.671 -1.0252  0.0927  0.5642
  108SAPE  H11R11138   6.321   1.873   3.622  2.6871 -1.4359 -3.4401
  108SAPE  C21211139   6.457   1.901   3.780 -0.7273  0.2621  0.1564
  108SAPE  H12R11140   6.427   1.814   3.840  3.4217 -0.8412  1.0069
  108SAPE  C21311141   6.571   1.986   3.836  0.2162 -0.3519 -0.3374
  108SAPE  H13R11142   6.577   2.079   3.775  3.3491  0.5329  1.0656
  108SAPE  H13S11143   6.666   1.942   3.800  0.6791  0.4487 -0.1385
  108SAPE  C21411144   6.580   2.018   3.981  0.7648 -0.4181  0.7205
  108SAPE  H14R11145   6.526   2.111   4.003  1.6176  0.7487 -1.8090
  108SAPE  C21511146   6.640   1.942   4.076  0.2124  0.6354  0.7682
  108SAPE  H15R11147   6.616   1.971   4.179 -3.0760  0.7036  0.0939
  108SAPE  C21611148   6.705   1.809   4.057 -0.2755  0.6143 -0.0591
  108SAPE  H16R11149   6.801   1.800   4.113  0.2709 -1.1212 -1.1882
  108SAPE  H16S11150   6.735   1.789   3.952  0.5385 -0.3995  0.3527
  108SAPE  C21711151   6.615   1.696   4.113  0.0189 -0.4552  0.3593
  108SAPE  H17R11152   6.653   1.593   4.093 -2.3748 -0.8149 -3.0178
  108SAPE  H17S11153   6.521   1.698   4.055  1.2246  0.9093 -1.6785
  108SAPE  C21811154   6.603   1.702   4.271  0.0910  0.7065 -0.2276
  108SAPE  H18R11155   6.533   1.783   4.298  1.5120  1.3798  1.6566
  108SAPE  H18S11156   6.701   1.732   4.312 -0.9397  1.2937  1.9356
  108SAPE  C21911157   6.565   1.559   4.324  1.5660 -0.0270  0.3289
  108SAPE  H19R11158   6.545   1.570   4.433  2.3344  0.5090  0.4267
  108SAPE  H19S11159   6.659   1.503   4.310  0.3226 -2.1137 -0.0320
  108SAPE  C22011160   6.448   1.488   4.249 -0.2660 -0.2144  0.1534
  108SAPE  H20R11161   6.472   1.490   4.141  1.2474 -0.1988  0.4785
  108SAPE  H20S11162   6.352   1.541   4.269 -1.4095 -0.6264 -3.5579
  108SAPE  H20T11163   6.444   1.380   4.277  0.8439  0.1671  1.9331
  108SAPE   C3311164   6.884   1.907   2.860  0.1270  0.0309  0.4215
  108SAPE   H3X11165   6.787   1.898   2.913  0.1876 -0.7067  0.4223
  108SAPE   H3Y11166   6.907   2.014   2.842 -0.2397 -0.3038 -2.5042
  108SAPE   C3411167   6.986   1.854   2.953 -0.3208 -0.1544  0.1121
  108SAPE   H4X11168   7.086   1.892   2.923 -1.2676  2.5610  0.1339
  108SAPE   H4Y11169   6.983   1.745   2.927  2.0057 -0.2986  0.2654
  108SAPE   C3511170   6.961   1.904   3.093  0.3122 -0.2469  0.4350
  108SAPE   H5X11171   6.941   2.011   3.114  1.4487  0.2476 -0.8546
  108SAPE   H5Y11172   6.868   1.854   3.126 -0.0060  0.0314 -0.0418
  108SAPE   C3611173   7.070   1.853   3.188  0.0892 -0.2394 -0.3108
  108SAPE   H6X11174   7.167   1.886   3.148  0.3510 -1.1666 -0.4635
  108SAPE   H6Y11175   7.082   1.744   3.170 -2.4638 -0.8664  1.1450
  108SAPE   C3711176   7.042   1.874   3.342 -0.0159 -0.3356 -0.5348
  108SAPE   H7X11177   7.036   1.979   3.379 -0.2915 -0.4502 -0.2538
  108SAPE   H7Y11178   7.127   1.828   3.398 -0.6983  0.6151  1.3693
  108SAPE   C3811179   6.908   1.813   3.386 -0.5918 -0.0644  0.4643
  108SAPE   H8X11180   6.896   1.709   3.350  1.7554 -0.1098 -0.4022
  108SAPE   H8Y11181   6.824   1.877   3.352  1.2594  0.6864 -3.3129
  108SAPE   C3911182   6.890   1.808   3.539 -0.3411  0.3579  0.1166
  108SAPE   H9X11183   6.799   1.751   3.567  0.8459 -1.1373  1.1519
  108SAPE   H9Y11184   6.879   1.916   3.565  0.4808  0.2797  0.8267
  108SAPE  C31011185   7.007   1.753   3.619  0.0873 -0.2714 -0.2995
  108SAPE  H10X11186   7.103   1.805   3.600  0.0373  0.0643  0.3335
  108SAPE  H10Y11187   7.022   1.656   3.568 -1.8674 -1.0258  0.4543
  108SAPE  C31111188   6.975   1.737   3.773 -0.0086 -0.1774  0.1095
  108SAPE  H11X11189   6.890   1.666   3.782  1.0148 -1.3265  1.2323
  108SAPE  H11Y11190   6.950   1.833   3.824  1.7082  0.5465 -0.3503
  108SAPE  C31211191   7.086   1.669   3.846  0.6419  0.1470  0.3379
  108SAPE  H12X11192   7.171   1.740   3.854  0.7000  0.3478 -1.5549
  108SAPE  H12Y11193   7.117   1.580   3.786 -2.2135  0.8624 -2.4401
  108SAPE  C31311194   7.041   1.608   3.978  0.2038  0.1304  0.3848
  108SAPE  H13X11195   6.952   1.542   3.970  0.1721  0.1995  0.1257
  108SAPE  H13Y11196   6.988   1.692   4.028 -1.5905 -1.2182  0.8656
  108SAPE  C31411197   7.154   1.556   4.060  0.2658  0.3589  0.0182
  108SAPE  H14X11198   7.216   1.644   4.090 -1.5299  0.9215  2.4036
  108SAPE  H14Y11199   7.231   1.495   4.008  0.8439  0.2538  0.9685
  108SAPE  C31511200   7.117   1.470   4.186 -0.1062 -0.2716  0.1083
  108SAPE  H15X11201   7.208   1.450   4.246 -0.3095  1.7381  1.1966
  108SAPE  H15Y11202   7.093   1.374   4.136 -0.5569 -1.0320  1.7107
  108SAPE  C31611203   6.998   1.519   4.269 -0.1750 -0.3060 -0.6020
  108SAPE  H16X11204   6.911   1.525   4.200  0.7931  0.1987 -1.8073
  108SAPE  H16Y11205   7.027   1.614   4.318  1.3728 -0.7446 -0.5948
  108SAPE  C31711206   6.976   1.418   4.381 -0.4363  0.1424 -0.2140
  108SAPE  H17X11207   6.902   1.450   4.457 -2.1490 -1.8750 -0.9638
  108SAPE  H17Y11208   7.078   1.428   4.425  0.1917  2.9169 -1.9994
  108SAPE  C31811209   6.956   1.275   4.334 -0.8008 -0.2703  0.1522
  108SAPE  H18X11210   7.044   1.227   4.287  0.1452 -0.2502  1.8335
  108SAPE  H18Y11211   6.871   1.272   4.262 -2.7025 -0.3439  2.2816
  108SAPE  H18Z11212   6.944   1.220   4.430  1.0706 -0.2331  0.4465
  109SAPE     N11213   3.845   4.387   2.276  0.0519 -0.5044 -0.3848
  109SAPE   HN111214   3.828   4.341   2.368  0.3874  1.8816  0.9741
  109SAPE   HN211215   3.872   4.486   2.296  2.9162 -1.4974  1.2663
  109SAPE   HN311216   3.754   4.385   2.227 -0.6071  0.0899  0.7685
  109SAPE   C1211217   3.954   4.318   2.203 -0.8037  0.6813 -0.1472
  109SAPE  H12A11218   3.980   4.371   2.109  1.4521  0.7139  0.4313
  109SAPE  H12B11219   3.922   4.213   2.188  0.1120  0.5669 -1.4096
  109SAPE   C1111220   4.087   4.315   2.287  0.7196 -0.4244  0.0331
  109SAPE  H11A11221   4.063   4.269   2.386  1.4606 -1.7796 -0.4018
  109SAPE  H11B11222   4.115   4.422   2.297 -1.2819  0.0399  1.3333
  109SAPE     P11223   4.331   4.276   2.275 -0.6493 -0.4943  0.1645
  109SAPE   O1311224   4.421   4.162   2.272  0.1084 -0.6639  0.0569
  109SAPE   O1411225   4.363   4.398   2.195  0.8300 -0.1562 -0.2829
  109SAPE   O1211226   4.190   4.235   2.231 -0.4535  0.5729 -0.4344
  109SAPE   O1111227   4.323   4.324   2.423  0.3554 -0.0472  0.5180
  109SAPE    C111228   4.303   4.230   2.532  0.4825 -0.6034 -0.0235
  109SAPE    HA11229   4.242   4.287   2.605  0.1175  1.2413 -1.6912
  109SAPE    HB11230   4.251   4.139   2.494  0.5363 -0.4080 -0.5840
  109SAPE    C211231   4.439   4.206   2.613 -0.0613 -0.5707 -0.5104
  109SAPE    HS11232   4.505   4.131   2.565 -2.2180 -2.0120 -1.3797
  109SAPE   O2111233   4.407   4.161   2.752  0.8017  0.3425 -0.1102
  109SAPE   C2111234   4.331   4.053   2.764 -0.0700 -0.1648 -0.1568
  109SAPE   O2211235   4.295   3.977   2.676  0.0362  0.0552 -0.3829
  109SAPE   C2211236   4.286   4.042   2.907 -0.3165  0.1458  0.4491
  109SAPE   H2R11237   4.340   4.119   2.966  1.2207  0.2758 -1.0631
  109SAPE   H2S11238   4.177   4.063   2.909 -0.1323  1.1064  0.8422
  109SAPE    C311239   4.504   4.344   2.630 -0.4522 -0.4670 -0.2167
  109SAPE    HX11240   4.420   4.410   2.661  0.3430  0.4103  0.1331
  109SAPE    HY11241   4.543   4.381   2.532 -2.5676  0.2056 -0.8560
  109SAPE   O3111242   4.605   4.346   2.731 -0.0538 -0.3335 -0.7785
  109SAPE   C3111243   4.719   4.294   2.692  0.3444  0.3547  0.3755
  109SAPE   O3211244   4.732   4.226   2.589  0.3829 -0.1627 -0.6274
  109SAPE   C3211245   4.834   4.346   2.771 -0.4939 -0.4267  0.1360
  109SAPE   H2X11246   4.867   4.447   2.741 -0.1691 -1.0604 -1.7964
  109SAPE   H2Y11247   4.913   4.275   2.740 -0.7408 -0.5664 -0.1742
  109SAPE   C2311248   4.317   3.900   2.960  0.5145 -0.0471 -0.6400
  109SAPE   H3R11249   4.422   3.889   2.994 -0.2753  0.0493  2.0160
  109SAPE   H3S11250   4.301   3.814   2.892  0.5606  0.5489 -1.4248
  109SAPE   C2411251   4.223   3.873   3.083 -0.0606 -0.0022 -0.1044
  109SAPE   H4R11252   4.126   3.835   3.043 -0.7506  1.5328  0.0259
  109SAPE   H4S11253   4.195   3.971   3.127 -0.6914  0.0263 -0.5568
  109SAPE   C2511254   4.273   3.772   3.187  0.1656  0.0069  1.0716
  109SAPE   H5R11255   4.297   3.672   3.149 -0.0445 -0.0548  1.0983
  109SAPE   C2611256   4.299   3.804   3.314 -0.4606 -0.1971  0.5975
  109SAPE   H6R11257   4.348   3.735   3.384 -0.3025 -0.3275  0.3580
  109SAPE   C2711258   4.281   3.946   3.362  0.4455 -0.5495 -0.4591
  109SAPE   H7R11259   4.170   3.956   3.365  0.5895  1.5408 -1.1590
  109SAPE   H7S11260   4.326   4.025   3.299 -0.8128  0.6763  0.1312
  109SAPE   C2811261   4.345   3.962   3.500 -0.6575  0.3646 -0.7216
  109SAPE   H8R11262   4.454   3.960   3.506 -0.6213  3.0480  2.5022
  109SAPE   C2911263   4.283   4.009   3.612  0.3316  0.8099  0.8539
  109SAPE   H9R11264   4.339   4.016   3.707 -1.1646 -1.4842  2.0184
  109SAPE  C21011265   4.144   4.046   3.634  0.2364 -0.2352 -0.6180
  109SAPE  H10R11266   4.073   4.023   3.552 -0.6710 -1.0900  0.3636
  109SAPE  H10S11267   4.153   4.157   3.631 -2.0521 -0.0092 -2.3582
  109SAPE  C21111268   4.078   3.992   3.759 -0.3572  0.1511  0.3872
  109SAPE  H11R11269   4.027   3.895   3.756 -1.3495  0.6717 -0.2265
  109SAPE  C21211270   4.075   4.051   3.879  0.5577  0.2459  0.0240
  109SAPE  H12R11271   4.005   4.010   3.952 -0.0548  0.7248 -0.2827
  109SAPE  C21311272   4.151   4.172   3.926  0.7248 -0.1128  0.0172
  109SAPE  H13R11273   4.092   4.260   3.960  0.4459  0.1196 -1.0441
  109SAPE  H13S11274   4.210   4.219   3.844 -2.3260  1.6288 -1.3353
  109SAPE  C21411275   4.232   4.126   4.042  0.0637  0.3706 -0.0121
  109SAPE  H14R11276   4.272   4.025   4.027  1.1654  1.0446 -1.9922
  109SAPE  C21511277   4.281   4.193   4.149  0.4714 -0.2944 -0.0438
  109SAPE  H15R11278   4.339   4.146   4.229  0.3537  0.8413  0.7221
  109SAPE  C21611279   4.253   4.335   4.173  0.9084  0.1471  0.0640
  109SAPE  H16R11280   4.158   4.352   4.228  1.0892  0.5127  0.2687
  109SAPE  H16S11281   4.240   4.384   4.074 -0.1195 -2.7426 -1.3273
  109SAPE  C21711282   4.370   4.401   4.251  0.8879  0.7852 -0.5345
  109SAPE  H17R11283   4.388   4.356   4.351  0.8110 -2.1606 -1.7562
  109SAPE  H17S11284   4.339   4.506   4.271  1.2194  0.3989  2.4824
  109SAPE  C21811285   4.509   4.394   4.181 -0.3668 -0.4725  0.4113
  109SAPE  H18R11286   4.499   4.456   4.089 -2.6191 -1.4891 -0.0996
  109SAPE  H18S11287   4.528   4.289   4.150  1.7670  0.8334 -3.4491
  109SAPE  C21911288   4.613   4.459   4.271  0.1599 -0.5597 -0.4425
  109SAPE  H19R11289   4.563   4.484   4.367 -0.3061  0.2302 -0.8794
  109SAPE  H19S11290   4.642   4.557   4.227  0.8771 -1.1030 -1.2265
  109SAPE  C22011291   4.745   4.376   4.284  0.3248 -0.6151  0.0335
  109SAPE  H20R11292   4.779   4.333   4.187  2.9032  0.9758  0.1440
  109SAPE  H20S11293   4.724   4.286   4.346  0.6934 -0.9446 -0.3146
  109SAPE  H20T11294   4.818   4.444   4.333 -3.3072  1.9420  2.3799
  109SAPE   C3311295   4.804   4.351   2.920  0.5020  0.6669 -0.3456
  109SAPE   H3X11296   4.876   4.284   2.972  1.6707  0.6259 -1.9549
  109SAPE   H3Y11297   4.699   4.326   2.946  0.1930  1.6909 -0.5566
  109SAPE   C3411298   4.817   4.493   2.974  0.5736  0.0320 -0.0152
  109SAPE   H4X11299   4.753   4.561   2.914  1.0383 -0.8091 -1.5377
  109SAPE   H4Y11300   4.921   4.526   2.956  0.1777  0.2534 -2.2954
  109SAPE   C3511301   4.781   4.508   3.126  0.3062 -0.2153  0.1750
  109SAPE   H5X11302   4.702   4.432   3.138 -0.2748 -0.0896 -2.3185
  109SAPE   H5Y11303   4.751   4.613   3.149 -0.8450 -0.7910  1.4201
  109SAPE   C3611304   4.896   4.458   3.218 -0.2592 -0.1035 -0.1845
  109SAPE   H6X11305   4.990   4.509   3.187  0.5046 -1.3901 -0.0468
  109SAPE   H6Y11306   4.909   4.349   3.204 -2.1419 -0.4075  0.1456
  109SAPE   C3711307   4.864   4.488   3.370 -0.6873  0.6701 -0.1551
  109SAPE   H7X11308   4.763   4.452   3.397 -0.6573  1.0071  0.4110
  109SAPE   H7Y11309   4.852   4.597   3.388 -0.3148  0.6516  0.2311
  109SAPE   C3811310   4.974   4.434   3.474  0.5074  0.4355 -0.2458
  109SAPE   H8X11311   5.067   4.478   3.433  0.3907  1.2507  0.3457
  109SAPE   H8Y11312   4.967   4.324   3.455  0.9852  0.7723 -2.6452
  109SAPE   C3911313   4.936   4.462   3.625 -0.3084  0.0167  1.0264
  109SAPE   H9X11314   4.847   4.403   3.652 -0.6340  0.2293  0.4256
  109SAPE   H9Y11315   4.926   4.571   3.645  1.0779  0.2093  0.7816
  109SAPE  C31011316   5.047   4.403   3.711  0.7211 -0.0439  0.3376
  109SAPE  H10X11317   5.135   4.471   3.708  1.1075 -0.4811 -3.5998
  109SAPE  H10Y11318   5.087   4.310   3.665  3.3364 -0.1984  2.6727
  109SAPE  C31111319   4.991   4.353   3.848  0.4627  0.5100  0.4658
  109SAPE  H11X11320   4.912   4.276   3.836  1.8263 -1.2251  2.0466
  109SAPE  H11Y11321   4.933   4.433   3.898  0.3697  0.5619  0.2768
  109SAPE  C31211322   5.095   4.309   3.949  0.1212 -0.9216  0.2960
  109SAPE  H12X11323   5.165   4.395   3.960 -0.1326 -0.3178 -2.0880
  109SAPE  H12Y11324   5.149   4.221   3.908 -0.9208 -3.0004  3.0954
  109SAPE  C31311325   5.032   4.267   4.078 -0.7680 -0.0419 -0.7728
  109SAPE  H13X11326   4.966   4.178   4.074 -0.1054 -0.6026  0.3868
  109SAPE  H13Y11327   4.982   4.355   4.126 -1.6234 -0.1847 -1.3871
  109SAPE  C31411328   5.137   4.199   4.173 -0.3870 -0.3036 -0.1310
  109SAPE  H14X11329   5.224   4.264   4.152 -0.5562 -0.4228 -1.2946
  109SAPE  H14Y11330   5.171   4.102   4.131  2.2214 -0.3056  1.7743
  109SAPE  C31511331   5.110   4.203   4.321 -0.4949  0.6018  0.1909
  109SAPE  H15X11332   5.057   4.300   4.334  2.5284  2.7866 -2.2001
  109SAPE  H15Y11333   5.206   4.219   4.375 -1.1496  2.4841  0.8952
  109SAPE  C31611334   5.019   4.084   4.366  0.3636 -0.7451  0.4167
  109SAPE  H16X11335   5.095   4.003   4.365  0.4751 -0.6984  2.2091
  109SAPE  H16Y11336   4.937   4.062   4.294 -1.5621  1.9775  1.6048
  109SAPE  C31711337   4.962   4.089   4.511  0.8521 -0.0573  0.6989
  109SAPE  H17X11338   4.917   3.993   4.545  0.8539 -0.3400 -0.0609
  109SAPE  H17Y11339   4.875   4.158   4.516  0.1551 -0.6616 -1.6921
  109SAPE  C31811340   5.067   4.131   4.609 -0.0711 -0.6684  0.5920
  109SAPE  H18X11341   5.150   4.058   4.599  0.6399  0.0718  1.0206
  109SAPE  H18Y11342   5.037   4.131   4.716  0.7423  0.3227  0.8364
  109SAPE  H18Z11343   5.102   4.232   4.578  1.5089 -0.7401  1.9693
  110SAPE     N11344   3.153   3.658   2.318 -0.0898 -0.0712  0.1929
  110SAPE   HN111345   3.167   3.743   2.261 -2.0446  0.7108  0.7973
  110SAPE   HN211346   3.070   3.668   2.381 -1.0591  2.6979 -1.3360
  110SAPE   HN311347   3.231   3.657   2.386  0.0202 -0.7230  0.0615
  110SAPE   C1211348   3.170   3.527   2.242 -0.1984 -0.2843  0.1968
  110SAPE  H12A11349   3.279   3.514   2.224  0.4045  1.4244  2.1409
  110SAPE  H12B11350   3.134   3.540   2.137  1.3535 -2.4654 -0.6776
  110SAPE   C1111351   3.101   3.408   2.316  0.0992  0.3559 -0.7207
  110SAPE  H11A11352   3.106   3.312   2.261 -2.1996 -1.4235  1.8935
  110SAPE  H11B11353   2.992   3.429   2.327  0.4736  1.8132  0.5111
  110SAPE     P11354   3.203   3.273   2.525 -0.1085  0.1778 -0.4581
  110SAPE   O1311355   3.253   3.176   2.424 -0.0569 -0.7392 -0.0471
  110SAPE   O1411356   3.294   3.309   2.638  0.4765  0.5182 -0.2235
  110SAPE   O1211357   3.152   3.396   2.449  0.4254  0.3457  0.3930
  110SAPE   O1111358   3.072   3.215   2.583  0.1874 -0.2358  0.4031
  110SAPE    C111359   2.965   3.303   2.631 -0.9207 -0.3888  0.2288
  110SAPE    HA11360   3.007   3.389   2.687  2.0264 -0.2616 -1.9118
  110SAPE    HB11361   2.904   3.341   2.546  1.4701  0.0561 -1.3927
  110SAPE    C211362   2.874   3.227   2.732  0.1714  0.2406  0.1124
  110SAPE    HS11363   2.786   3.290   2.757 -0.1237  0.0745 -0.4897
  110SAPE   O2111364   2.937   3.195   2.856 -0.1098  0.2850  0.2374
  110SAPE   C2111365   2.980   3.292   2.932 -1.0091 -0.1957  0.0099
  110SAPE   O2211366   2.956   3.413   2.923 -0.4878  0.2772 -0.1636
  110SAPE   C2211367   3.058   3.234   3.053  0.0741 -0.1827 -1.1329
  110SAPE   H2R11368   3.115   3.144   3.024 -0.9101 -1.7726  1.4963
  110SAPE   H2S11369   3.128   3.316   3.081  0.8027 -0.7037 -1.3898
  110SAPE    C311370   2.819   3.092   2.662  0.1784 -0.9605 -0.7983
  110SAPE    HX11371   2.779   3.121   2.563  1.3922  0.8487 -0.8004
  110SAPE    HY11372   2.919   3.045   2.649  0.6219 -0.5389  0.8104
  110SAPE   O3111373   2.735   3.021   2.759  0.1247  0.4500 -0.5422
  110SAPE   C3111374   2.755   2.900   2.779  0.1285 -0.1753  0.0750
  110SAPE   O3211375   2.825   2.823   2.712 -0.2221  0.3699 -0.1031
  110SAPE   C3211376   2.676   2.860   2.903  0.0271 -0.0315  0.7618
  110SAPE   H2X11377   2.647   2.755   2.882  0.2579  0.0117  0.2152
  110SAPE   H2Y11378   2.579   2.915   2.902 -0.8197 -1.3472  2.7349
  110SAPE   C2311379   2.962   3.206   3.176  0.0122  0.4226  0.6711
  110SAPE   H3R11380   2.880   3.142   3.138 -0.6417  1.5346  0.1629
  110SAPE   H3S11381   2.914   3.301   3.207 -2.2289 -0.0807 -1.0035
  110SAPE   C2411382   3.032   3.135   3.288  0.5653 -0.1244  0.7774
  110SAPE   H4R11383   3.097   3.054   3.248 -0.1254 -0.4179  0.2271
  110SAPE   H4S11384   2.958   3.079   3.348 -0.4669  0.6405  0.2488
  110SAPE   C2511385   3.121   3.232   3.366  0.5260  0.6898 -0.2406
  110SAPE   H5R11386   3.066   3.301   3.432  0.7771  0.3007  0.3782
  110SAPE   C2611387   3.254   3.241   3.356 -0.1403  0.3486  0.2992
  110SAPE   H6R11388   3.299   3.329   3.404 -1.6145  0.9214  0.7042
  110SAPE   C2711389   3.347   3.157   3.274 -0.1154  0.5007 -0.2676
  110SAPE   H7R11390   3.298   3.114   3.184 -1.2389 -0.3783  0.7288
  110SAPE   H7S11391   3.367   3.064   3.333 -0.3899 -0.0361 -0.9996
  110SAPE   C2811392   3.469   3.220   3.220 -1.3509  0.3600 -0.7383
  110SAPE   H8R11393   3.460   3.279   3.128  0.3281 -1.8876 -2.4496
  110SAPE   C2911394   3.596   3.206   3.265 -0.4723  0.3680  0.7458
  110SAPE   H9R11395   3.677   3.243   3.201 -0.3494 -0.6786  0.2764
  110SAPE  C21011396   3.634   3.132   3.396 -0.2493  0.2066  0.3321
  110SAPE  H10R11397   3.723   3.071   3.373  1.1998  2.7106 -1.1906
  110SAPE  H10S11398   3.545   3.075   3.431 -2.3364  3.5379  0.8586
  110SAPE  C21111399   3.670   3.219   3.505 -0.3473  0.3079 -0.6241
  110SAPE  H11R11400   3.654   3.327   3.491  0.6127  0.6325  0.5683
  110SAPE  C21211401   3.737   3.191   3.622  0.1287  0.2451 -0.1552
  110SAPE  H12R11402   3.769   3.272   3.689 -1.4414 -0.0046  0.9435
  110SAPE  C21311403   3.768   3.060   3.678 -0.5465  0.5999 -0.1354
  110SAPE  H13R11404   3.853   3.061   3.749 -1.8481 -2.8866  1.7174
  110SAPE  H13S11405   3.800   2.983   3.604  1.5174  0.2332  1.0684
  110SAPE  C21411406   3.644   3.008   3.755  0.1397  0.4410  0.4914
  110SAPE  H14R11407   3.562   2.996   3.683  1.1165  0.0332 -0.5999
  110SAPE  C21511408   3.623   2.996   3.888 -0.1337  0.0376  0.5784
  110SAPE  H15R11409   3.528   2.959   3.929 -0.8919  0.9049 -0.3316
  110SAPE  C21611410   3.721   3.045   3.994  0.5950  0.0281 -0.4791
  110SAPE  H16R11411   3.818   3.045   3.940  0.2834  2.7578 -1.1669
  110SAPE  H16S11412   3.733   2.974   4.080  0.5825  0.4163 -0.1542
  110SAPE  C21711413   3.688   3.191   4.022  0.3092 -0.2624  0.1594
  110SAPE  H17R11414   3.585   3.194   4.064 -0.5158  3.1179 -1.8210
  110SAPE  H17S11415   3.674   3.244   3.926 -0.2627 -1.5757 -0.5158
  110SAPE  C21811416   3.779   3.248   4.128 -0.3625 -0.2809  0.3478
  110SAPE  H18R11417   3.784   3.173   4.211 -0.3075  0.4084  0.9815
  110SAPE  H18S11418   3.735   3.344   4.162  2.0755  0.5234  1.4955
  110SAPE  C21911419   3.928   3.282   4.076  0.4609  0.3605 -0.3383
  110SAPE  H19R11420   3.918   3.320   3.972 -0.4224 -0.6919 -0.6647
  110SAPE  H19S11421   3.991   3.191   4.069 -0.3055 -0.1452 -0.9446
  110SAPE  C22011422   3.993   3.378   4.177  0.5028  0.3752  0.5611
  110SAPE  H20R11423   3.943   3.477   4.186 -0.6100  0.0983 -1.7229
  110SAPE  H20S11424   4.100   3.401   4.160  0.9012 -1.6440  0.0994
  110SAPE  H20T11425   3.991   3.329   4.276 -0.8603 -0.2346  0.2633
  110SAPE   C3311426   2.745   2.876   3.034  0.5398  0.5840 -0.3680
  110SAPE   H3X11427   2.674   2.841   3.112  0.2851 -1.2848 -1.3923
  110SAPE   H3Y11428   2.769   2.984   3.042  1.3831  0.3681  0.2323
  110SAPE   C3411429   2.882   2.805   3.055 -0.5922 -0.5951  0.3195
  110SAPE   H4X11430   2.964   2.863   3.006 -0.3269  0.9089  2.3977
  110SAPE   H4Y11431   2.887   2.704   3.011  0.6263  0.3942 -2.0329
  110SAPE   C3511432   2.926   2.791   3.203 -0.4407 -0.1422  0.3085
  110SAPE   H5X11433   2.846   2.748   3.267 -2.0118  2.3280  0.1509
  110SAPE   H5Y11434   2.929   2.897   3.237 -2.4417  0.2590 -0.6067
  110SAPE   C3611435   3.060   2.711   3.237 -0.1396 -0.4483 -0.6445
  110SAPE   H6X11436   3.144   2.737   3.169 -1.5038 -1.8342 -3.0284
  110SAPE   H6Y11437   3.040   2.602   3.223  1.1160 -0.9131  0.8813
  110SAPE   C3711438   3.123   2.738   3.373  0.5410  0.1644  0.8315
  110SAPE   H7X11439   3.168   2.839   3.362  2.3079 -0.6861 -0.1992
  110SAPE   H7Y11440   3.203   2.669   3.407  0.9984 -0.0400 -0.5947
  110SAPE   C3811441   3.028   2.742   3.493  0.3437  0.0452  0.3654
  110SAPE   H8X11442   2.953   2.661   3.477  1.8856 -1.3273 -0.2125
  110SAPE   H8Y11443   2.965   2.833   3.485 -0.2907 -0.4307 -0.2126
  110SAPE   C3911444   3.092   2.753   3.639  0.2824  0.1674  0.6924
  110SAPE   H9X11445   3.124   2.648   3.656  0.7710  0.2725  0.4394
  110SAPE   H9Y11446   3.010   2.784   3.707 -1.9481 -1.0286 -1.2998
  110SAPE  C31011447   3.203   2.857   3.661 -0.7299 -0.3685  0.5254
  110SAPE  H10X11448   3.289   2.852   3.590 -0.2193  1.1743  1.0018
  110SAPE  H10Y11449   3.246   2.840   3.762 -1.3628  2.7611  1.4151
  110SAPE  C31111450   3.154   3.002   3.675  0.3774 -1.0825 -0.2655
  110SAPE  H11X11451   3.081   2.992   3.759 -0.5505  0.9849 -0.7492
  110SAPE  H11Y11452   3.105   3.038   3.582  1.1398  2.2322  0.4844
  110SAPE  C31211453   3.271   3.092   3.713 -0.0686 -0.0213 -0.4471
  110SAPE  H12X11454   3.329   3.118   3.622 -0.8806  0.9167 -0.7103
  110SAPE  H12Y11455   3.333   3.044   3.792  1.5967  2.8716  0.1471
  110SAPE  C31311456   3.226   3.230   3.765 -0.3216  0.3192  0.2995
  110SAPE  H13X11457   3.158   3.285   3.696  0.5178  2.7126  1.2493
  110SAPE  H13Y11458   3.325   3.280   3.767 -0.0342 -0.2654  0.7718
  110SAPE  C31411459   3.166   3.227   3.909 -0.1546 -0.4453  0.2956
  110SAPE  H14X11460   3.105   3.136   3.921  1.6731 -1.5562  1.7191
  110SAPE  H14Y11461   3.099   3.316   3.918  1.2768  0.8077 -0.9463
  110SAPE  C31511462   3.274   3.235   4.023  0.0016  0.2197 -0.2164
  110SAPE  H15X11463   3.347   3.312   3.991 -0.6267  0.8614 -0.1063
  110SAPE  H15Y11464   3.328   3.138   4.034 -1.1489 -0.3633  0.4978
  110SAPE  C31611465   3.207   3.269   4.155  0.2722 -0.8346 -0.4441
  110SAPE  H16X11466   3.126   3.194   4.169 -0.0402 -0.4602 -0.2227
  110SAPE  H16Y11467   3.148   3.363   4.145  0.3680 -0.7840 -0.5291
  110SAPE  C31711468   3.298   3.265   4.276 -0.7466 -0.0132 -0.2033
  110SAPE  H17X11469   3.351   3.362   4.292 -0.7662 -0.3445  2.2635
  110SAPE  H17Y11470   3.382   3.194   4.261  0.6899  1.2220  1.4711
  110SAPE  C31811471   3.229   3.243   4.408 -0.1235  0.6866  0.9925
  110SAPE  H18X11472   3.169   3.150   4.405 -0.1097  0.7100 -0.3962
  110SAPE  H18Y11473   3.166   3.330   4.436 -0.3357  0.3301  1.6503
  110SAPE  H18Z11474   3.296   3.231   4.496 -0.9484 -3.0528  1.2755
  111SAPE     N11475   3.086   4.526   2.604  0.0102 -0.1727  0.2236
  111SAPE   HN111476   3.089   4.492   2.506  1.7280 -0.5213  0.3614
  111SAPE   HN211477   3.149   4.607   2.618 -2.4027  1.5834  1.4157
  111SAPE   HN311478   3.133   4.450   2.658 -1.0731 -0.3788  0.9135
  111SAPE   C1211479   2.952   4.572   2.650  0.6813  0.2340 -0.4891
  111SAPE  H12A11480   2.936   4.675   2.612 -0.2964  0.8360  1.4294
  111SAPE  H12B11481   2.963   4.577   2.761 -1.0233  0.1779 -0.2895
  111SAPE   C1111482   2.844   4.472   2.624 -0.1950  0.5891 -0.0473
  111SAPE  H11A11483   2.755   4.502   2.682 -1.2513  0.0080 -1.3198
  111SAPE  H11B11484   2.874   4.372   2.662 -1.3795  0.2324 -0.0230
  111SAPE     P11485   2.694   4.373   2.433  0.1855  0.2721  0.3605
  111SAPE   O1311486   2.697   4.375   2.280 -0.0081  0.1107 -0.0251
  111SAPE   O1411487   2.700   4.240   2.488 -0.5705  0.1717 -0.3494
  111SAPE   O1211488   2.808   4.466   2.486  0.4445  0.3351  0.7080
  111SAPE   O1111489   2.557   4.433   2.479 -0.2898  0.2114  0.1872
  111SAPE    C111490   2.505   4.568   2.454  0.0249 -0.4097  0.1388
  111SAPE    HA11491   2.550   4.609   2.362  0.1886 -0.9949 -0.0434
  111SAPE    HB11492   2.396   4.581   2.441  0.3268  2.6062 -0.2859
  111SAPE    C211493   2.552   4.667   2.560  0.4371  0.6222  0.6527
  111SAPE    HS11494   2.663   4.658   2.567  0.4001  1.3508  3.1307
  111SAPE   O2111495   2.482   4.638   2.681 -0.2611 -0.2576  0.1263
  111SAPE   C2111496   2.550   4.657   2.794 -0.0705  0.0196  0.5395
  111SAPE   O2211497   2.668   4.689   2.807 -0.2074 -0.2558 -0.1111
  111SAPE   C2211498   2.459   4.629   2.909  0.1682  0.4409 -0.0158
  111SAPE   H2R11499   2.363   4.686   2.911  0.2419  0.5561  0.4034
  111SAPE   H2S11500   2.426   4.524   2.894 -2.4348  1.3797 -1.4791
  111SAPE    C311501   2.505   4.801   2.513  0.2870 -0.3377 -0.2701
  111SAPE    HX11502   2.398   4.791   2.483  0.3834 -2.4612 -0.0500
  111SAPE    HY11503   2.565   4.821   2.422  1.2124 -0.2829  0.3489
  111SAPE   O3111504   2.516   4.906   2.618  0.2356  0.6289  0.1605
  111SAPE   C3111505   2.623   4.985   2.608 -0.2005 -0.1977 -0.3856
  111SAPE   O3211506   2.709   4.973   2.519 -0.3879 -0.4708 -0.2756
  111SAPE   C3211507   2.623   5.083   2.719 -0.1000 -0.4185  0.1893
  111SAPE   H2X11508   2.569   5.041   2.807 -0.0865 -0.6867  0.0699
  111SAPE   H2Y11509   2.564   5.172   2.688  0.3775 -0.7885 -1.9128
  111SAPE   C2311510   2.520   4.637   3.046  0.0963 -0.5536 -0.0351
  111SAPE   H3R11511   2.547   4.742   3.070  1.3124 -0.7491 -0.4429
  111SAPE   H3S11512   2.620   4.589   3.034 -0.3397 -1.3371 -0.6313
  111SAPE   C2411513   2.433   4.581   3.163 -0.8455  0.1022  0.3943
  111SAPE   H4R11514   2.416   4.476   3.131  0.4461  0.7287 -2.5975
  111SAPE   H4S11515   2.341   4.643   3.167 -1.4721 -0.7358 -0.5830
  111SAPE   C2511516   2.499   4.597   3.300  0.2067 -0.2629 -0.4940
  111SAPE   H5R11517   2.500   4.700   3.340  0.7284 -0.1013 -0.9198
  111SAPE   C2611518   2.558   4.500   3.376  0.0028 -0.6907 -0.7277
  111SAPE   H6R11519   2.612   4.529   3.467  2.0660  0.3199 -2.2048
  111SAPE   C2711520   2.565   4.354   3.351 -0.4742  0.2543 -0.1317
  111SAPE   H7R11521   2.556   4.326   3.244 -0.1664 -0.5069  0.0392
  111SAPE   H7S11522   2.476   4.307   3.398 -0.5148 -0.2478 -0.6948
  111SAPE   C2811523   2.691   4.275   3.391  0.0388  0.1426  0.0012
  111SAPE   H8R11524   2.742   4.242   3.299  0.5863  0.9527  0.0110
  111SAPE   C2911525   2.742   4.242   3.514 -0.1973 -0.0954 -0.1447
  111SAPE   H9R11526   2.846   4.206   3.505 -0.5033 -0.5694 -2.4073
  111SAPE  C21011527   2.677   4.288   3.640  0.2333 -0.7124 -0.4153
  111SAPE  H10R11528   2.627   4.199   3.684  1.2211  0.2852  3.0582
  111SAPE  H10S11529   2.601   4.369   3.632  0.6271 -0.1572  1.0628
  111SAPE  C21111530   2.782   4.336   3.747  0.0898  1.2066  0.6287
  111SAPE  H11R11531   2.837   4.426   3.715 -1.8781  1.1417 -3.6555
  111SAPE  C21211532   2.800   4.284   3.871 -0.8481  0.0655  1.0916
  111SAPE  H12R11533   2.867   4.340   3.937 -2.8307  2.4698  1.2208
  111SAPE  C21311534   2.731   4.161   3.922  0.0581 -0.0099  0.2464
  111SAPE  H13R11535   2.710   4.081   3.847 -1.0185 -0.8155  1.3750
  111SAPE  H13S11536   2.631   4.188   3.962 -0.6426 -0.4809 -1.1000
  111SAPE  C21411537   2.809   4.103   4.035 -0.2882 -0.0407  0.3910
  111SAPE  H14R11538   2.857   4.011   3.998 -0.5922 -0.4270  0.9325
  111SAPE  C21511539   2.814   4.145   4.161  0.0521  0.1268 -0.0793
  111SAPE  H15R11540   2.892   4.107   4.228  0.6328  3.5931  1.4449
  111SAPE  C21611541   2.741   4.267   4.219 -0.6157 -0.5090 -0.2108
  111SAPE  H16R11542   2.687   4.240   4.313 -0.4362  0.0493  0.0535
  111SAPE  H16S11543   2.658   4.300   4.153  0.7721  1.8757 -0.8724
  111SAPE  C21711544   2.839   4.378   4.262  0.4282  0.1057  0.4408
  111SAPE  H17R11545   2.913   4.404   4.183 -0.0332  0.6709  0.1875
  111SAPE  H17S11546   2.904   4.332   4.339  2.1956  1.0216 -0.4383
  111SAPE  C21811547   2.783   4.510   4.300 -0.3898  0.2112 -0.1263
  111SAPE  H18R11548   2.736   4.493   4.399  2.4259  0.0384  1.2947
  111SAPE  H18S11549   2.706   4.559   4.237 -0.8513  0.4766  0.6295
  111SAPE  C21911550   2.896   4.609   4.324 -0.1924 -0.4061  0.4976
  111SAPE  H19R11551   2.949   4.637   4.230  1.0013  3.1302  2.0489
  111SAPE  H19S11552   2.967   4.576   4.403 -0.3371 -0.8814  0.4318
  111SAPE  C22011553   2.838   4.747   4.367  0.8709 -0.0748  0.2467
  111SAPE  H20R11554   2.800   4.733   4.471  2.0557  1.6746  0.9745
  111SAPE  H20S11555   2.754   4.775   4.299  0.0958 -1.5839  0.5323
  111SAPE  H20T11556   2.914   4.827   4.359  0.5469  0.2168  0.0388
  111SAPE   C3311557   2.767   5.128   2.758 -0.5801  0.5727 -0.0801
  111SAPE   H3X11558   2.832   5.131   2.668  0.5112  2.1185  0.7191
  111SAPE   H3Y11559   2.802   5.054   2.833 -0.7853  0.7428  0.1837
  111SAPE   C3411560   2.760   5.269   2.817 -0.1111 -0.5734  0.1464
  111SAPE   H4X11561   2.689   5.280   2.902  1.4708  0.3173  1.4141
  111SAPE   H4Y11562   2.719   5.324   2.730  0.0912 -0.1815  0.2930
  111SAPE   C3511563   2.906   5.329   2.857 -0.2909  0.2623  0.6723
  111SAPE   H5X11564   2.982   5.317   2.776  1.8078  0.7728  2.4847
  111SAPE   H5Y11565   2.938   5.264   2.941  0.4874  0.0087  0.1986
  111SAPE   C3611566   2.900   5.474   2.901 -0.7888  0.4505  0.0292
  111SAPE   H6X11567   2.852   5.543   2.828 -0.7451  1.0509  0.5488
  111SAPE   H6Y11568   3.006   5.508   2.906 -0.2457 -0.6524 -2.5938
  111SAPE   C3711569   2.836   5.503   3.039 -0.3125  0.4026  0.1265
  111SAPE   H7X11570   2.743   5.445   3.057 -1.2338  2.0239  0.7879
  111SAPE   H7Y11571   2.827   5.614   3.040  0.9569  0.5272  1.8120
  111SAPE   C3811572   2.922   5.454   3.164  0.2995 -0.4270  0.0148
  111SAPE   H8X11573   3.029   5.477   3.147  0.8962 -2.5267  0.5551
  111SAPE   H8Y11574   2.921   5.343   3.166  1.5934 -0.4462  1.3502
  111SAPE   C3911575   2.857   5.506   3.296 -0.4951  0.3773 -0.0387
  111SAPE   H9X11576   2.747   5.489   3.290 -0.4300  0.2754 -1.1464
  111SAPE   H9Y11577   2.862   5.617   3.301  0.2249  0.3247  0.4963
  111SAPE  C31011578   2.920   5.438   3.417 -0.2627  0.0711  0.0926
  111SAPE  H10X11579   3.020   5.485   3.430  0.2596 -0.9582 -0.0468
  111SAPE  H10Y11580   2.917   5.328   3.401 -1.3282  0.4788 -3.2071
  111SAPE  C31111581   2.863   5.474   3.552 -0.1759  0.6280 -0.1829
  111SAPE  H11X11582   2.764   5.427   3.569  0.0430 -0.8032 -2.4483
  111SAPE  H11Y11583   2.835   5.582   3.548  1.7498  1.2114  0.7590
  111SAPE  C31211584   2.949   5.454   3.677 -0.0672  1.0294  0.2990
  111SAPE  H12X11585   3.058   5.461   3.655  0.2925 -0.9395  1.2722
  111SAPE  H12Y11586   2.927   5.350   3.708  1.0079  0.6738 -0.0978
  111SAPE  C31311587   2.914   5.550   3.787 -0.2726 -0.1453  0.1018
  111SAPE  H13X11588   2.806   5.575   3.785 -0.6813 -1.5451  1.8072
  111SAPE  H13Y11589   2.953   5.647   3.748 -2.5471  1.5970  1.8869
  111SAPE  C31411590   2.956   5.503   3.932  0.0703  0.0139  0.2673
  111SAPE  H14X11591   3.065   5.489   3.919 -0.2198 -1.1133 -1.1680
  111SAPE  H14Y11592   2.914   5.408   3.970 -2.0401  0.6868 -0.2126
  111SAPE  C31511593   2.927   5.613   4.029 -0.5587 -0.4810  0.0975
  111SAPE  H15X11594   2.823   5.653   4.021  0.0655  0.9536 -1.5747
  111SAPE  H15Y11595   2.985   5.703   3.997 -2.1621  0.7297  0.4309
  111SAPE  C31611596   2.949   5.575   4.182 -0.6390 -0.3408  0.4859
  111SAPE  H16X11597   3.052   5.539   4.203 -0.8850 -2.0450 -1.0617
  111SAPE  H16Y11598   2.897   5.484   4.220  0.7850 -1.4021 -0.0116
  111SAPE  C31711599   2.914   5.696   4.266  0.4973  0.3650  0.2206
  111SAPE  H17X11600   2.804   5.710   4.256  0.3659 -0.4580  0.4574
  111SAPE  H17Y11601   2.966   5.785   4.224 -0.3882 -0.0406 -1.8418
  111SAPE  C31811602   2.940   5.673   4.413 -0.0852  0.1541  0.1329
  111SAPE  H18X11603   2.931   5.771   4.465  0.5037  0.7334 -0.8355
  111SAPE  H18Y11604   3.042   5.632   4.423 -0.0244 -0.1929 -1.6691
  111SAPE  H18Z11605   2.866   5.610   4.467 -0.1440  0.0810 -0.0338
  112SAPE     N11606   0.323   4.371   2.173 -0.6498 -0.0614  0.1935
  112SAPE   HN111607   0.345   4.278   2.132 -1.0188 -0.3492  0.6299
  112SAPE   HN211608   0.411   4.426   2.168 -0.5009 -0.3627 -0.8743
  112SAPE   HN311609   0.307   4.348   2.273  0.1278 -1.2561  0.0694
  112SAPE   C1211610   0.192   4.418   2.124  0.4172  0.2504 -0.6887
  112SAPE  H12A11611   0.177   4.370   2.024  1.2825 -0.0042 -0.7017
  112SAPE  H12B11612   0.201   4.528   2.108 -0.1431  0.4535  0.2945
  112SAPE   C1111613   0.066   4.374   2.195 -0.0635  0.7998  0.4163
  112SAPE  H11A11614  -0.022   4.407   2.136 -1.3222 -0.5644  1.4486
  112SAPE  H11B11615   0.051   4.425   2.292 -0.2283 -0.5952  1.1390
  112SAPE     P11616   0.088   4.165   2.343  0.0699  0.2764  0.6883
  112SAPE   O1311617  -0.030   4.170   2.433  0.1702 -0.1001  0.0884
  112SAPE   O1411618   0.138   4.029   2.312 -0.2278 -1.0271 -1.1392
  112SAPE   O1211619   0.048   4.232   2.209 -0.5759 -0.1573 -0.2385
  112SAPE   O1111620   0.202   4.253   2.399  0.0060 -0.2034  0.2587
  112SAPE    C111621   0.214   4.301   2.531  0.0332 -0.2644  0.7267
  112SAPE    HA11622   0.171   4.236   2.610 -0.1861 -0.2802  0.5957
  112SAPE    HB11623   0.324   4.295   2.541  0.6580  0.8880 -3.3275
  112SAPE    C211624   0.174   4.449   2.554 -0.3110 -0.6538  0.0860
  112SAPE    HS11625   0.069   4.450   2.516  0.1550  1.0509 -1.3262
  112SAPE   O2111626   0.249   4.527   2.467 -0.6343  0.0446  0.6187
  112SAPE   C2111627   0.219   4.652   2.454  0.6889 -1.2748 -0.8240
  112SAPE   O2211628   0.109   4.698   2.485  0.6212 -0.5971  0.0723
  112SAPE   C2211629   0.330   4.720   2.368 -0.3683  0.1995  0.9254
  112SAPE   H2R11630   0.330   4.672   2.268 -1.9721  2.3681 -0.1997
  112SAPE   H2S11631   0.310   4.828   2.353  0.0908 -0.0276 -1.7213
  112SAPE    C311632   0.186   4.481   2.707  0.0818  0.1763 -0.7045
  112SAPE    HX11633   0.147   4.584   2.720  0.8920  0.4981 -0.8276
  112SAPE    HY11634   0.295   4.484   2.728  0.0031  2.8742 -0.3569
  112SAPE   O3111635   0.116   4.378   2.789  0.0720 -0.1345  0.2472
  112SAPE   C3111636   0.002   4.408   2.847  0.9636  0.9959  0.4478
  112SAPE   O3211637  -0.049   4.515   2.837  0.7585 -0.3450  0.1387
  112SAPE   C3211638  -0.056   4.282   2.911  0.4443 -0.6823  0.4326
  112SAPE   H2X11639   0.018   4.227   2.973  0.5949  0.6354  1.4521
  112SAPE   H2Y11640  -0.087   4.219   2.825 -0.8395 -1.4574  1.4213
  112SAPE   C2311641   0.470   4.707   2.428 -0.8549 -0.0645 -0.0546
  112SAPE   H3R11642   0.541   4.735   2.348 -2.5458  1.3904 -1.1189
  112SAPE   H3S11643   0.504   4.606   2.461  1.1482  0.2791 -0.9535
  112SAPE   C2411644   0.499   4.811   2.535  0.4213  0.3081 -0.3650
  112SAPE   H4R11645   0.423   4.810   2.615  0.0465 -1.5344 -0.7074
  112SAPE   H4S11646   0.471   4.910   2.492 -0.2263 -0.5501 -2.0260
  112SAPE   C2511647   0.638   4.822   2.576  1.0309  0.4988 -0.0328
  112SAPE   H5R11648   0.701   4.894   2.520 -0.3672  2.2759  0.5820
  112SAPE   C2611649   0.691   4.742   2.670  0.5171 -0.0405 -0.0668
  112SAPE   H6R11650   0.799   4.756   2.686  0.3030  2.6175 -0.4848
  112SAPE   C2711651   0.611   4.641   2.745  0.1817  0.7174 -0.0539
  112SAPE   H7R11652   0.683   4.576   2.799 -1.4026 -0.1224  1.1174
  112SAPE   H7S11653   0.562   4.570   2.675  1.0961 -0.1947  0.2036
  112SAPE   C2811654   0.509   4.714   2.841  0.3768 -0.3426  0.4743
  112SAPE   H8R11655   0.496   4.822   2.822  0.3761 -0.8275 -2.8616
  112SAPE   C2911656   0.443   4.661   2.942 -0.0030 -0.6110 -0.4440
  112SAPE   H9R11657   0.380   4.726   3.003 -1.0895 -1.3488 -0.7624
  112SAPE  C21011658   0.446   4.509   2.972  0.2010 -1.1669 -0.1604
  112SAPE  H10R11659   0.538   4.483   3.028 -1.1376 -0.5220  2.5160
  112SAPE  H10S11660   0.439   4.442   2.884  4.4673 -1.7874 -0.2056
  112SAPE  C21111661   0.328   4.489   3.065 -0.8491  0.0236 -0.8267
  112SAPE  H11R11662   0.230   4.497   3.017 -0.7475  0.6950 -0.9253
  112SAPE  C21211663   0.338   4.471   3.199  0.5565 -0.1827 -0.0716
  112SAPE  H12R11664   0.244   4.449   3.251  1.1965 -1.4914  0.5603
  112SAPE  C21311665   0.460   4.479   3.285  0.2159 -0.8450  0.1664
  112SAPE  H13R11666   0.526   4.564   3.254 -0.6210 -0.3013 -0.1593
  112SAPE  H13S11667   0.511   4.381   3.280 -1.3029 -1.7509  1.6331
  112SAPE  C21411668   0.416   4.524   3.424  0.1309 -0.5312 -0.0118
  112SAPE  H14R11669   0.372   4.624   3.438  1.0989  0.0495 -0.9724
  112SAPE  C21511670   0.441   4.462   3.538 -0.0043  0.4460 -0.7986
  112SAPE  H15R11671   0.390   4.511   3.622 -0.5225 -1.8105  0.2792
  112SAPE  C21611672   0.515   4.329   3.571 -0.5239 -0.0590  0.3345
  112SAPE  H16R11673   0.526   4.270   3.477 -1.9578  0.0549  0.0745
  112SAPE  H16S11674   0.454   4.267   3.639 -1.0980  0.7554  0.5817
  112SAPE  C21711675   0.657   4.367   3.627 -0.2191 -0.4654 -0.2610
  112SAPE  H17R11676   0.644   4.444   3.706  1.7936  0.0515 -0.3594
  112SAPE  H17S11677   0.734   4.399   3.554  0.8493  1.0557  1.4538
  112SAPE  C21811678   0.707   4.237   3.687 -0.3827  0.0925 -0.6140
  112SAPE  H18R11679   0.736   4.169   3.604  3.0811  1.5154 -0.7361
  112SAPE  H18S11680   0.623   4.187   3.739 -1.1604  0.0992 -1.8219
  112SAPE  C21911681   0.830   4.249   3.775  0.1299  0.1839  0.6329
  112SAPE  H19R11682   0.901   4.319   3.724 -0.0775 -0.0447  0.0211
  112SAPE  H19S11683   0.868   4.147   3.792  0.4078  0.7726  4.2123
  112SAPE  C22011684   0.803   4.309   3.912  0.0442  0.4195  0.5772
  112SAPE  H20R11685   0.897   4.328   3.968  0.3177  0.6734  0.0404
  112SAPE  H20S11686   0.749   4.233   3.973 -0.9634 -0.7265 -1.6032
  112SAPE  H20T11687   0.754   4.408   3.904 -0.0382  0.4589  1.5347
  112SAPE   C3311688  -0.180   4.326   2.992 -0.0572  0.1309  0.5832
  112SAPE   H3X11689  -0.228   4.239   3.041  0.3802 -0.1467  0.5287
  112SAPE   H3Y11690  -0.262   4.365   2.928  0.2309  0.8245  0.6246
  112SAPE   C3411691  -0.142   4.411   3.111  0.0515  0.2275 -0.2915
  112SAPE   H4X11692  -0.239   4.449   3.149  0.7462 -0.2187  2.0946
  112SAPE   H4Y11693  -0.088   4.504   3.082  0.0072  0.0303 -1.0397
  112SAPE   C3511694  -0.074   4.328   3.217  0.2085 -0.4927 -0.4446
  112SAPE   H5X11695   0.030   4.303   3.188  0.3161 -0.5658  0.0031
  112SAPE   H5Y11696  -0.138   4.242   3.248  1.3525 -0.9732  0.6746
  112SAPE   C3611697  -0.060   4.406   3.350  0.0884  0.3018 -0.0489
  112SAPE   H6X11698  -0.161   4.425   3.391 -0.8326 -1.5149 -1.3247
  112SAPE   H6Y11699  -0.000   4.496   3.323 -0.9438  1.3451  1.0383
  112SAPE   C3711700   0.023   4.309   3.449 -0.2133  0.2014 -0.1519
  112SAPE   H7X11701   0.127   4.300   3.412  0.5772  1.9940  1.4554
  112SAPE   H7Y11702  -0.019   4.206   3.441  0.7859 -0.1431 -1.2600
  112SAPE   C3811703   0.042   4.355   3.592 -0.4587  0.1817 -0.7519
  112SAPE   H8X11704  -0.058   4.368   3.638 -0.3810 -1.1436 -0.1383
  112SAPE   H8Y11705   0.093   4.453   3.592  0.1173 -0.1083 -0.5223
  112SAPE   C3911706   0.117   4.242   3.668  0.1398  0.1361  0.1522
  112SAPE   H9X11707   0.213   4.228   3.614 -0.6519 -0.8339 -1.0441
  112SAPE   H9Y11708   0.056   4.150   3.656 -1.2935  1.1739 -0.8947
  112SAPE  C31011709   0.129   4.255   3.826  0.1155  0.0680  0.5725
  112SAPE  H10X11710   0.192   4.165   3.844 -1.0262 -0.8022  0.3132
  112SAPE  H10Y11711   0.034   4.236   3.880  0.3843 -1.0840  0.6561
  112SAPE  C31111712   0.192   4.381   3.866 -0.1579  0.1059 -0.1642
  112SAPE  H11X11713   0.117   4.463   3.865  0.6729  1.0436  2.8638
  112SAPE  H11Y11714   0.267   4.410   3.789  0.7903 -0.9950  0.3069
  112SAPE  C31211715   0.249   4.389   4.009 -0.2203  0.2338  0.2831
  112SAPE  H12X11716   0.160   4.387   4.076  0.2453 -0.8393  0.9115
  112SAPE  H12Y11717   0.299   4.486   4.026  0.4490 -0.2603  1.2197
  112SAPE  C31311718   0.339   4.278   4.054 -0.2416 -0.2181 -0.4353
  112SAPE  H13X11719   0.432   4.279   3.992  2.9110  0.7939  3.7992
  112SAPE  H13Y11720   0.286   4.180   4.052 -2.0766  0.7287  0.2498
  112SAPE  C31411721   0.405   4.308   4.194 -0.2542  1.2186  0.2083
  112SAPE  H14X11722   0.445   4.210   4.228  0.5781  1.2715 -0.5709
  112SAPE  H14Y11723   0.321   4.337   4.261  0.6233  0.2941  1.7702
  112SAPE  C31511724   0.520   4.408   4.198  0.5954  0.3103  0.0248
  112SAPE  H15X11725   0.476   4.510   4.208 -2.1294 -0.8085  0.3851
  112SAPE  H15Y11726   0.573   4.394   4.102 -1.0456  0.9000 -1.0098
  112SAPE  C31611727   0.614   4.392   4.312 -0.2359  0.3586  0.0020
  112SAPE  H16X11728   0.622   4.282   4.324 -1.6020  0.1462 -0.7496
  112SAPE  H16Y11729   0.563   4.437   4.401  1.0168  1.4824  0.1758
  112SAPE  C31711730   0.758   4.439   4.306  0.1097 -0.6233 -0.6926
  112SAPE  H17X11731   0.754   4.550   4.299 -2.2102 -0.5370  0.8223
  112SAPE  H17Y11732   0.806   4.399   4.215 -0.0268 -0.1318 -0.9838
  112SAPE  C31811733   0.833   4.395   4.429  0.2734  0.2763  0.4596
  112SAPE  H18X11734   0.770   4.417   4.518 -2.2680  0.4019 -1.2355
  112SAPE  H18Y11735   0.932   4.441   4.448  1.6291 -2.3294  0.0739
  112SAPE  H18Z11736   0.854   4.287   4.436  0.1314  0.3289  1.9584
  113SAPE     N11737   0.482   3.381   2.035 -0.1786  0.3130 -0.3194
  113SAPE   HN111738   0.553   3.455   2.021  0.2242 -0.1778 -0.9426
  113SAPE   HN211739   0.532   3.302   2.081 -0.6094 -1.5100 -2.7724
  113SAPE   HN311740   0.453   3.349   1.940 -1.5013  0.0909  0.1337
  113SAPE   C1211741   0.373   3.431   2.119 -0.5812  0.1940 -0.2172
  113SAPE  H12A11742   0.322   3.341   2.161 -1.2644  0.3136 -0.7684
  113SAPE  H12B11743   0.293   3.471   2.052 -1.0592 -1.8015 -0.9101
  113SAPE   C1111744   0.430   3.531   2.220  0.0671 -0.5196 -0.3818
  113SAPE  H11A11745   0.510   3.483   2.282  1.3039  0.6156 -1.0636
  113SAPE  H11B11746   0.348   3.558   2.289  0.7663  1.9614 -0.4261
  113SAPE     P11747   0.586   3.735   2.219 -0.1971 -0.0862  0.1783
  113SAPE   O1311748   0.713   3.659   2.199 -0.6163 -0.2127  0.0028
  113SAPE   O1411749   0.578   3.873   2.172 -0.7941  0.5193  0.4663
  113SAPE   O1211750   0.468   3.652   2.148 -0.0280 -0.6149 -0.5178
  113SAPE   O1111751   0.557   3.730   2.370  0.1525 -0.1968  0.6125
  113SAPE    C111752   0.441   3.797   2.421 -0.2783  0.4637  0.2288
  113SAPE    HA11753   0.438   3.904   2.392  0.0956  0.2089 -0.7897
  113SAPE    HB11754   0.352   3.737   2.391  0.5507 -1.0719  0.7257
  113SAPE    C211755   0.438   3.784   2.568  0.0526 -0.7822 -0.0828
  113SAPE    HS11756   0.336   3.823   2.592  1.0396  2.6622 -0.9232
  113SAPE   O2111757   0.539   3.860   2.643 -0.3095  0.1117  0.1555
  113SAPE   C2111758   0.537   3.995   2.622 -1.3636 -0.3634  0.1847
  113SAPE   O2211759   0.452   4.060   2.564  0.0455  0.2352  0.3859
  113SAPE   C2211760   0.661   4.056   2.685  0.6232  0.2955  0.1138
  113SAPE   H2R11761   0.731   3.974   2.712 -2.9536 -3.2047 -0.3534
  113SAPE   H2S11762   0.703   4.121   2.606  0.4692 -1.4021 -1.4360
  113SAPE    C311763   0.452   3.635   2.610  0.5207  0.4607 -0.3188
  113SAPE    HX11764   0.553   3.592   2.593 -0.0871 -0.8429 -0.7350
  113SAPE    HY11765   0.392   3.572   2.540 -0.4828 -2.1203  2.6019
  113SAPE   O3111766   0.397   3.603   2.741 -0.4915 -0.1956 -0.1625
  113SAPE   C3111767   0.480   3.575   2.846  0.5994  0.4125  0.4592
  113SAPE   O3211768   0.598   3.563   2.838  0.3176  0.0713 -0.2488
  113SAPE   C3211769   0.391   3.540   2.965 -0.0525  0.0788 -0.2708
  113SAPE   H2X11770   0.345   3.441   2.941 -0.0199 -0.3097  1.1588
  113SAPE   H2Y11771   0.303   3.608   2.973  1.2288  1.5555  3.1735
  113SAPE   C2311772   0.635   4.143   2.812 -0.4420  0.8811 -0.3397
  113SAPE   H3R11773   0.577   4.227   2.769  1.5179  0.9523 -3.1409
  113SAPE   H3S11774   0.736   4.180   2.840 -0.4944  0.3447  0.5721
  113SAPE   C2411775   0.573   4.064   2.925  0.7307  0.2801 -0.2910
  113SAPE   H4R11776   0.622   3.964   2.924  2.3257  0.9973  1.1229
  113SAPE   H4S11777   0.464   4.042   2.916  0.7539 -0.1640  0.4836
  113SAPE   C2511778   0.583   4.140   3.053  0.0313 -0.0419  0.0273
  113SAPE   H5R11779   0.541   4.240   3.037  2.3483  1.0878  0.5991
  113SAPE   C2611780   0.633   4.101   3.170 -0.0803 -0.4024 -0.3605
  113SAPE   H6R11781   0.618   4.166   3.258 -1.9012  2.2749 -2.4730
  113SAPE   C2711782   0.711   3.981   3.206  0.1280  0.4608 -1.0273
  113SAPE   H7R11783   0.802   4.014   3.260 -1.0957  2.3783 -0.0173
  113SAPE   H7S11784   0.745   3.913   3.125  1.4962  1.0970 -1.0084
  113SAPE   C2811785   0.624   3.893   3.292  0.4056 -0.3676  0.2362
  113SAPE   H8R11786   0.527   3.859   3.252  0.2794 -0.5958  0.7345
  113SAPE   C2911787   0.655   3.848   3.411 -0.3337  0.1237  0.4658
  113SAPE   H9R11788   0.576   3.789   3.461  0.4659 -0.1250  1.4550
  113SAPE  C21011789   0.775   3.870   3.498  0.2601 -0.0177  0.2222
  113SAPE  H10R11790   0.750   3.958   3.562 -0.2384  0.7088 -0.9478
  113SAPE  H10S11791   0.860   3.916   3.443  0.8596 -1.4645 -0.1084
  113SAPE  C21111792   0.824   3.746   3.560 -0.2302  0.4775  0.5010
  113SAPE  H11R11793   0.856   3.667   3.491  1.4109  1.1931  0.3978
  113SAPE  C21211794   0.840   3.729   3.696  0.3276  0.2924 -0.3658
  113SAPE  H12R11795   0.869   3.627   3.726 -1.7716 -0.3439 -0.3137
  113SAPE  C21311796   0.803   3.823   3.805 -0.0797  0.3885 -0.3171
  113SAPE  H13R11797   0.817   3.929   3.777  0.5924  0.6713  1.0123
  113SAPE  H13S11798   0.876   3.802   3.886 -1.5128 -0.2623  0.8696
  113SAPE  C21411799   0.664   3.798   3.862 -0.2413 -0.1596 -0.4649
  113SAPE  H14R11800   0.599   3.727   3.809 -0.4677 -1.1420  1.0796
  113SAPE  C21511801   0.604   3.857   3.966  0.1285 -0.3752  0.3720
  113SAPE  H15R11802   0.497   3.836   3.981  0.5768 -3.3067  0.1141
  113SAPE  C21611803   0.656   3.973   4.054  0.0273 -0.2768  0.1598
  113SAPE  H16R11804   0.605   4.064   4.015  0.4202 -0.7432 -1.5129
  113SAPE  H16S11805   0.762   4.002   4.039 -0.3994  1.6946  0.6087
  113SAPE  C21711806   0.643   3.940   4.202  0.4896 -0.9390 -0.3903
  113SAPE  H17R11807   0.536   3.921   4.228 -0.0936  1.7557 -0.5519
  113SAPE  H17S11808   0.673   4.033   4.256 -0.5849 -0.3231 -0.8121
  113SAPE  C21811809   0.730   3.826   4.256 -0.4977  0.2803  0.0296
  113SAPE  H18R11810   0.837   3.856   4.248 -0.7052  0.7982 -0.9736
  113SAPE  H18S11811   0.729   3.731   4.199 -1.4975  0.6134 -0.5428
  113SAPE  C21911812   0.686   3.800   4.400 -0.2104 -0.6735  0.3531
  113SAPE  H19R11813   0.584   3.756   4.402 -0.2833 -0.4954  2.2486
  113SAPE  H19S11814   0.672   3.902   4.442 -2.6786  0.4525 -2.7595
  113SAPE  C22011815   0.794   3.724   4.473 -0.1762 -0.5548  0.3943
  113SAPE  H20R11816   0.883   3.787   4.490 -0.8846  0.7263 -0.4566
  113SAPE  H20S11817   0.832   3.637   4.416 -0.6310  0.2860 -1.2765
  113SAPE  H20T11818   0.755   3.694   4.573  0.9842  1.5970  1.5773
  113SAPE   C3311819   0.466   3.543   3.099 -0.4098 -0.1708  0.3155
  113SAPE   H3X11820   0.549   3.616   3.093  1.1714 -1.7445  1.7469
  113SAPE   H3Y11821   0.509   3.441   3.111 -2.0357 -0.7246  1.8460
  113SAPE   C3411822   0.392   3.576   3.231 -0.8418  0.4211  0.0183
  113SAPE   H4X11823   0.290   3.532   3.220 -0.8381  0.1834  0.8922
  113SAPE   H4Y11824   0.380   3.686   3.236  2.0077  0.8181 -0.2419
  113SAPE   C3511825   0.471   3.522   3.356 -0.1417  0.2349  0.4647
  113SAPE   H5X11826   0.575   3.559   3.359  0.0459 -0.2588  0.2141
  113SAPE   H5Y11827   0.479   3.412   3.339 -2.9124  0.0970 -0.3666
  113SAPE   C3611828   0.401   3.542   3.494 -0.1630 -0.1042 -0.0902
  113SAPE   H6X11829   0.294   3.515   3.493 -0.4060  0.8278  0.1552
  113SAPE   H6Y11830   0.407   3.650   3.519  1.9141 -0.1529 -0.1622
  113SAPE   C3711831   0.475   3.469   3.606 -0.0510 -0.6924  0.1938
  113SAPE   H7X11832   0.580   3.506   3.605  0.5581 -2.2883  1.2812
  113SAPE   H7Y11833   0.491   3.361   3.585 -0.3286 -0.8432  0.7370
  113SAPE   C3811834   0.411   3.504   3.741 -0.0636  0.6993  0.2773
  113SAPE   H8X11835   0.394   3.614   3.732  1.8083  0.8348 -2.9033
  113SAPE   H8Y11836   0.309   3.462   3.757 -0.5463  2.5811  2.9827
  113SAPE   C3911837   0.502   3.473   3.851 -0.0131 -0.4078  0.0844
  113SAPE   H9X11838   0.601   3.520   3.831 -0.9073  0.8603 -1.6272
  113SAPE   H9Y11839   0.520   3.364   3.848 -2.9089 -1.0007  1.2537
  113SAPE  C31011840   0.450   3.516   3.984 -0.4772  0.2213  0.1402
  113SAPE  H10X11841   0.357   3.459   4.004 -0.3949 -0.0054 -0.1092
  113SAPE  H10Y11842   0.436   3.626   3.976  1.6155  0.6657  1.8022
  113SAPE  C31111843   0.556   3.483   4.087 -0.3455 -0.0133 -1.3479
  113SAPE  H11X11844   0.647   3.544   4.070 -1.0522  1.3267 -0.4962
  113SAPE  H11Y11845   0.576   3.374   4.090  0.1944  0.0042  3.5058
  113SAPE  C31211846   0.498   3.529   4.223 -0.2796  0.4353 -0.1471
  113SAPE  H12X11847   0.387   3.520   4.218 -0.4166  0.7752  1.7196
  113SAPE  H12Y11848   0.521   3.636   4.243  1.6115  0.1730 -0.7616
  113SAPE  C31311849   0.554   3.446   4.333  0.0330 -1.0589  0.0589
  113SAPE  H13X11850   0.663   3.459   4.346  0.0222 -0.2254 -0.6512
  113SAPE  H13Y11851   0.536   3.337   4.315 -0.3536 -1.4537  2.5236
  113SAPE  C31411852   0.476   3.464   4.466  0.1031 -0.6336 -0.3790
  113SAPE  H14X11853   0.368   3.441   4.456  0.2763 -1.7401  0.0965
  113SAPE  H14Y11854   0.484   3.568   4.503  1.3761 -0.6390 -0.5771
  113SAPE  C31511855   0.549   3.389   4.581  0.3429  0.2338  0.4301
  113SAPE  H15X11856   0.506   3.425   4.676  0.6078 -0.2515  0.7364
  113SAPE  H15Y11857   0.651   3.427   4.602 -0.0426  1.3648  0.3344
  113SAPE  C31611858   0.558   3.234   4.561  0.4838 -0.5712 -0.1332
  113SAPE  H16X11859   0.611   3.202   4.468  2.4491 -2.2627  1.4606
  113SAPE  H16Y11860   0.454   3.195   4.556  0.1725  0.0928  0.8652
  113SAPE  C31711861   0.618   3.164   4.686 -0.0437 -0.0047  0.1860
  113SAPE  H17X11862   0.555   3.172   4.776 -0.6136 -2.1606  0.0278
  113SAPE  H17Y11863   0.718   3.205   4.711  0.7496 -1.1981 -0.8865
  113SAPE  C31811864   0.614   3.010   4.672  0.3883  0.2264 -0.5488
  113SAPE  H18X11865   0.673   2.981   4.582 -0.3990 -3.1865 -0.1176
  113SAPE  H18Y11866   0.509   2.975   4.664  0.5541 -0.6741  0.9249
  113SAPE  H18Z11867   0.664   2.952   4.752 -1.5883 -1.7400 -0.6447
  114SAPE     N11868   1.093   5.631   2.187  0.4701 -0.7594  0.3148
  114SAPE   HN111869   1.151   5.546   2.177  0.7983 -0.6343  1.1377
  114SAPE   HN211870   1.037   5.635   2.274  0.2640  1.9815  0.1634
  114SAPE   HN311871   1.023   5.635   2.110  1.0739 -2.4076 -0.3674
  114SAPE   C1211872   1.183   5.753   2.190  0.3322 -0.3030  0.4598
  114SAPE  H12A11873   1.118   5.840   2.214 -0.3984 -0.9848  0.9725
  114SAPE  H12B11874   1.211   5.773   2.085 -1.8688 -0.8720 -0.2713
  114SAPE   C1111875   1.314   5.726   2.269  0.1571  0.1975 -0.0924
  114SAPE  H11A11876   1.291   5.697   2.374  1.8626 -0.7659  0.0576
  114SAPE  H11B11877   1.388   5.808   2.275 -0.1132  0.4170  0.2943
  114SAPE     P11878   1.392   5.471   2.261  0.3832  0.1723 -0.1219
  114SAPE   O1311879   1.255   5.438   2.313 -0.1684  0.0820 -0.2014
  114SAPE   O1411880   1.447   5.385   2.155  0.4802  0.2296  0.1875
  114SAPE   O1211881   1.383   5.618   2.207 -0.0649  0.3008 -0.7387
  114SAPE   O1111882   1.493   5.472   2.388 -0.3567  0.1905  0.0652
  114SAPE    C111883   1.599   5.571   2.404 -0.2379 -1.2525 -1.2904
  114SAPE    HA11884   1.682   5.554   2.333  0.9797 -1.4527  0.1268
  114SAPE    HB11885   1.558   5.674   2.392 -0.6779 -1.1191  0.8984
  114SAPE    C211886   1.654   5.551   2.553 -0.9215 -0.7746  0.7221
  114SAPE    HS11887   1.726   5.636   2.554 -0.3560 -1.1371 -1.7202
  114SAPE   O2111888   1.731   5.435   2.574 -0.0329  0.1587  0.0292
  114SAPE   C2111889   1.821   5.385   2.498 -0.0582  0.9703  0.9216
  114SAPE   O2211890   1.873   5.430   2.398  0.3869 -0.3526  0.0728
  114SAPE   C2211891   1.851   5.253   2.569 -0.3827 -0.0334 -0.1581
  114SAPE   H2R11892   1.835   5.267   2.678  0.4732  0.1368 -0.0462
  114SAPE   H2S11893   1.778   5.177   2.534 -0.1149 -0.3579 -0.0203
  114SAPE    C311894   1.541   5.574   2.654  0.2946  0.1463 -0.6146
  114SAPE    HX11895   1.444   5.531   2.623 -0.2677  0.9670 -0.0047
  114SAPE    HY11896   1.531   5.683   2.638 -0.5045  0.0517 -0.7648
  114SAPE   O3111897   1.581   5.550   2.790 -0.1589 -0.0249  0.0124
  114SAPE   C3111898   1.561   5.429   2.848 -0.3221  0.4739 -0.0727
  114SAPE   O3211899   1.499   5.342   2.790  0.1846  0.5279 -0.2256
  114SAPE   C3211900   1.618   5.425   2.995 -0.3113 -0.9647 -0.0172
  114SAPE   H2X11901   1.527   5.420   3.058 -0.7616 -1.2874 -0.6783
  114SAPE   H2Y11902   1.675   5.517   3.017 -3.0967  0.8048  0.2939
  114SAPE   C2311903   1.986   5.187   2.550 -0.6258  0.8563  0.2830
  114SAPE   H3R11904   2.016   5.171   2.444 -0.3138 -3.1425  0.8059
  114SAPE   H3S11905   1.971   5.083   2.585 -3.3418  1.1363  0.1615
  114SAPE   C2411906   2.109   5.258   2.619  0.9273  0.3783  0.6199
  114SAPE   H4R11907   2.107   5.359   2.572 -2.0517  1.7276  3.2815
  114SAPE   H4S11908   2.207   5.220   2.583  1.1918  1.6679 -0.1037
  114SAPE   C2511909   2.102   5.267   2.768 -0.6807  1.4850 -0.6848
  114SAPE   H5R11910   2.027   5.336   2.811 -0.6919 -0.1981  2.2626
  114SAPE   C2611911   2.157   5.178   2.857  0.5558 -0.7145  0.0599
  114SAPE   H6R11912   2.158   5.211   2.962  0.3374  1.1267 -0.4767
  114SAPE   C2711913   2.243   5.066   2.824  0.0781  0.0063  0.2842
  114SAPE   H7R11914   2.352   5.089   2.815 -0.0312 -0.2180 -2.2036
  114SAPE   H7S11915   2.226   5.027   2.722  2.4350  1.3354 -0.7074
  114SAPE   C2811916   2.221   4.948   2.924 -0.6453  0.0833  0.4179
  114SAPE   H8R11917   2.130   4.890   2.901  0.4138 -1.2215 -0.6553
  114SAPE   C2911918   2.289   4.923   3.039 -0.0006  0.4777  0.0682
  114SAPE   H9R11919   2.259   4.830   3.088 -1.1904  1.1824  0.7371
  114SAPE  C21011920   2.404   5.003   3.097 -0.6988  0.3807  0.4349
  114SAPE  H10R11921   2.444   5.068   3.017 -1.1605 -0.4133 -0.4566
  114SAPE  H10S11922   2.483   4.929   3.124 -0.3645  0.6771  0.2842
  114SAPE  C21111923   2.380   5.096   3.214  0.4844 -0.2594 -0.2395
  114SAPE  H11R11924   2.274   5.124   3.222  1.2729  2.9314  0.2880
  114SAPE  C21211925   2.455   5.090   3.322  1.2554 -0.0704 -0.1401
  114SAPE  H12R11926   2.422   5.156   3.403 -1.1698  1.1258 -1.9536
  114SAPE  C21311927   2.591   5.036   3.339  0.1977  0.2779 -0.5532
  114SAPE  H13R11928   2.648   5.041   3.244  1.0834  0.5401 -0.0163
  114SAPE  H13S11929   2.575   4.926   3.342  0.2680  0.2652 -0.6640
  114SAPE  C21411930   2.683   5.099   3.438 -0.3922 -0.0391  0.1829
  114SAPE  H14R11931   2.746   5.178   3.394  0.7197  0.3192  2.2903
  114SAPE  C21511932   2.681   5.070   3.573 -0.1988 -0.2718  0.0175
  114SAPE  H15R11933   2.759   5.125   3.628  0.0236 -1.1299  0.5898
  114SAPE  C21611934   2.598   4.966   3.644 -0.5087  0.1636 -0.1327
  114SAPE  H16R11935   2.547   4.898   3.574  1.1088 -1.1798 -0.0573
  114SAPE  H16S11936   2.515   5.022   3.693 -0.1996 -0.1767  0.7961
  114SAPE  C21711937   2.670   4.888   3.763  0.1018  0.0528  0.3348
  114SAPE  H17R11938   2.594   4.840   3.828  0.1745 -0.8493 -0.2356
  114SAPE  H17S11939   2.731   4.966   3.815  1.2390 -0.6126  0.0298
  114SAPE  C21811940   2.771   4.779   3.720 -0.4767 -0.5682  0.2090
  114SAPE  H18R11941   2.848   4.828   3.657 -1.1483  0.0624 -0.1316
  114SAPE  H18S11942   2.721   4.704   3.654 -3.7480  1.8612 -0.3415
  114SAPE  C21911943   2.841   4.719   3.848  0.0077  0.0909  0.0368
  114SAPE  H19R11944   2.906   4.798   3.891 -0.2469  0.9633 -1.1529
  114SAPE  H19S11945   2.909   4.637   3.815  1.2212  0.5578  1.2718
  114SAPE  C22011946   2.740   4.661   3.943  0.1045  0.1958  0.6971
  114SAPE  H20R11947   2.657   4.614   3.886  0.0052  1.2195 -0.0189
  114SAPE  H20S11948   2.681   4.737   3.997 -1.2068  1.8700 -2.7928
  114SAPE  H20T11949   2.796   4.587   4.005  0.0230 -0.5022 -0.0324
  114SAPE   C3311950   1.695   5.298   3.018  0.8545 -0.6338  0.0602
  114SAPE   H3X11951   1.773   5.295   2.939  0.8490  1.2319 -0.0654
  114SAPE   H3Y11952   1.633   5.206   3.026  1.0105 -0.6771  0.8061
  114SAPE   C3411953   1.771   5.312   3.151 -0.0233 -0.3007  0.6929
  114SAPE   H4X11954   1.796   5.210   3.188  1.0573 -0.4895 -0.5131
  114SAPE   H4Y11955   1.700   5.351   3.227 -0.6162  1.6585 -0.8075
  114SAPE   C3511956   1.904   5.389   3.155  0.4494 -0.2296  0.7240
  114SAPE   H5X11957   1.881   5.498   3.159  0.6683 -0.2083  2.3501
  114SAPE   H5Y11958   1.958   5.368   3.061 -1.9415  2.0082 -1.2927
  114SAPE   C3611959   1.992   5.349   3.272  0.0059 -0.1096  0.4515
  114SAPE   H6X11960   2.089   5.399   3.254 -0.4392  1.3473  1.9062
  114SAPE   H6Y11961   2.009   5.239   3.278  0.1035 -0.1093  0.2120
  114SAPE   C3711962   1.939   5.404   3.406  0.9065 -0.2347  0.0406
  114SAPE   H7X11963   1.832   5.374   3.413  1.5336 -2.6974  0.2327
  114SAPE   H7Y11964   1.943   5.514   3.398 -0.7272  0.0660  2.3061
  114SAPE   C3811965   2.019   5.351   3.525  0.3863  0.1164 -0.5184
  114SAPE   H8X11966   2.126   5.336   3.502  0.5431  0.7042 -0.2034
  114SAPE   H8Y11967   1.973   5.251   3.543  1.4282 -0.4604 -0.9578
  114SAPE   C3911968   2.008   5.438   3.653 -0.4359  0.1525  0.9871
  114SAPE   H9X11969   1.900   5.450   3.675 -0.6927  3.2254 -1.1992
  114SAPE   H9Y11970   2.042   5.540   3.623 -2.4151  1.0581  1.6910
  114SAPE  C31011971   2.078   5.374   3.773 -0.0671  0.5165  0.2698
  114SAPE  H10X11972   2.178   5.329   3.754  0.2714 -0.7499  4.1132
  114SAPE  H10Y11973   2.013   5.286   3.793  1.7119 -0.8388  0.3718
  114SAPE  C31111974   2.090   5.458   3.902 -0.3820 -0.4542  0.6880
  114SAPE  H11X11975   2.176   5.528   3.894  0.8088 -2.0744 -2.9433
  114SAPE  H11Y11976   2.108   5.391   3.989  1.6547 -2.8246 -1.3748
  114SAPE  C31211977   1.961   5.532   3.920  0.4581 -0.0291  0.6155
  114SAPE  H12X11978   1.875   5.464   3.903  0.6873 -0.2330  0.2740
  114SAPE  H12Y11979   1.933   5.618   3.855 -0.1278 -0.0986  0.7703
  114SAPE  C31311980   1.944   5.579   4.066 -0.5443 -0.6094 -0.7971
  114SAPE  H13X11981   2.030   5.649   4.077 -0.0597 -1.2162 -0.7238
  114SAPE  H13Y11982   1.960   5.489   4.128 -0.0252  0.7167  1.1029
  114SAPE  C31411983   1.805   5.644   4.090 -0.0356 -0.4027 -0.6413
  114SAPE  H14X11984   1.735   5.561   4.064 -0.3053 -0.1887 -0.6009
  114SAPE  H14Y11985   1.795   5.727   4.017  0.6124 -0.8755 -1.2887
  114SAPE  C31511986   1.773   5.677   4.237  0.0657  0.3426  0.1651
  114SAPE  H15X11987   1.831   5.762   4.279 -2.2744  1.3499  1.5695
  114SAPE  H15Y11988   1.778   5.589   4.306  2.0473  0.1382 -0.1787
  114SAPE  C31611989   1.634   5.729   4.267 -0.5902 -0.1456 -0.8750
  114SAPE  H16X11990   1.607   5.718   4.374 -0.9366 -0.1766 -0.9651
  114SAPE  H16Y11991   1.566   5.658   4.216  1.3411 -1.0475 -2.3267
  114SAPE  C31711992   1.613   5.875   4.226 -0.3132  0.2953  0.0777
  114SAPE  H17X11993   1.505   5.900   4.218 -0.4473  0.5665  2.2948
  114SAPE  H17Y11994   1.667   5.898   4.131  2.4092 -0.4113  1.3488
  114SAPE  C31811995   1.657   5.969   4.335  0.2889 -0.3043 -0.1716
  114SAPE  H18X11996   1.763   5.954   4.365  0.7549 -4.0098 -2.9189
  114SAPE  H18Y11997   1.595   5.959   4.426  0.8786  0.8138  0.3699
  114SAPE  H18Z11998   1.653   6.076   4.306  1.9654 -0.3804 -0.8127
  115SAPE     N11999   1.410   6.729   2.233  0.1199  0.2137  0.5801
  115SAPE   HN112000   1.354   6.659   2.180  0.8318  0.9791 -1.2814
  115SAPE   HN212001   1.364   6.821   2.222  0.5432  0.3300 -0.3420
  115SAPE   HN312002   1.508   6.731   2.196 -0.1842  0.3488 -0.2285
  115SAPE   C1212003   1.413   6.716   2.383 -0.1778 -0.3520  0.3886
  115SAPE  H12A12004   1.484   6.794   2.419 -0.0740 -0.9626  1.5720
  115SAPE  H12B12005   1.468   6.620   2.397 -0.3723 -0.2634  1.9262
  115SAPE   C1112006   1.275   6.720   2.443  0.6074  0.3852 -0.1184
  115SAPE  H11A12007   1.225   6.818   2.459 -0.2988  0.4173 -2.7134
  115SAPE  H11B12008   1.284   6.682   2.547  2.1736 -0.9450 -0.7031
  115SAPE     P12009   1.088   6.532   2.404  0.1663  0.1017  0.4310
  115SAPE   O1312010   0.962   6.606   2.430 -0.5203  0.5577 -0.0557
  115SAPE   O1412011   1.088   6.426   2.299 -0.1813  0.5745  0.2505
  115SAPE   O1212012   1.183   6.644   2.363 -0.3170  0.3191  0.6784
  115SAPE   O1112013   1.154   6.477   2.537 -0.3543 -0.2900  0.0565
  115SAPE    C112014   1.249   6.370   2.536  0.3448 -0.3139  0.2816
  115SAPE    HA12015   1.206   6.274   2.498  1.0602 -1.0748  1.3302
  115SAPE    HB12016   1.339   6.392   2.474  0.8593 -0.3273  1.0109
  115SAPE    C212017   1.303   6.346   2.682 -0.5393  0.0290  1.1775
  115SAPE    HS12018   1.385   6.271   2.683  0.1804  0.8143  1.3353
  115SAPE   O2112019   1.214   6.313   2.787  0.1014 -0.7749 -0.2309
  115SAPE   C2112020   1.132   6.215   2.767 -0.1137  0.3401 -0.0828
  115SAPE   O2212021   1.133   6.144   2.669  0.3699  0.5242  0.0527
  115SAPE   C2212022   1.020   6.207   2.871 -0.0540  0.3577 -0.8148
  115SAPE   H2R12023   1.024   6.295   2.939  0.6958 -0.0818 -0.2766
  115SAPE   H2S12024   0.922   6.224   2.821 -0.1049 -0.0166 -0.8486
  115SAPE    C312025   1.381   6.472   2.736  0.2301 -0.6879  0.5078
  115SAPE    HX12026   1.309   6.556   2.724  1.3307  0.2476  0.1161
  115SAPE    HY12027   1.450   6.514   2.658  0.0170 -1.2646 -0.0007
  115SAPE   O3112028   1.447   6.450   2.863  0.6047 -1.5442  0.5100
  115SAPE   C3112029   1.375   6.485   2.968  0.8496 -0.4662 -0.8435
  115SAPE   O3212030   1.257   6.525   2.970  0.0295 -0.0381 -0.1320
  115SAPE   C3212031   1.469   6.495   3.099  0.1870 -0.4904  0.2870
  115SAPE   H2X12032   1.536   6.581   3.078 -0.3086 -0.3683 -0.8601
  115SAPE   H2Y12033   1.537   6.408   3.106 -1.1899 -1.6654 -0.4267
  115SAPE   C2312034   1.008   6.072   2.945 -0.2458 -0.6986  0.6659
  115SAPE   H3R12035   1.098   6.059   3.008 -0.3106  0.9267  1.1364
  115SAPE   H3S12036   0.984   5.984   2.882 -1.3219 -1.2887  1.8460
  115SAPE   C2412037   0.890   6.083   3.045 -0.3525 -0.6141 -0.1332
  115SAPE   H4R12038   0.869   5.989   3.101  1.1965  1.3921  4.3370
  115SAPE   H4S12039   0.798   6.103   2.987 -0.4608 -2.1280 -0.5286
  115SAPE   C2512040   0.912   6.196   3.148  0.1539 -0.2271 -0.0885
  115SAPE   H5R12041   0.890   6.292   3.100  1.2468  0.1903  0.2335
  115SAPE   C2612042   0.938   6.189   3.282 -0.6554  0.3499  0.9353
  115SAPE   H6R12043   0.930   6.275   3.350 -0.9414 -0.5097  2.0273
  115SAPE   C2712044   0.977   6.058   3.353 -0.2307  0.5083 -0.4162
  115SAPE   H7R12045   1.070   6.066   3.412 -1.7167  0.3949  2.0956
  115SAPE   H7S12046   1.008   5.978   3.282  1.8145  0.8116  0.0906
  115SAPE   C2812047   0.861   6.007   3.439 -0.1513 -0.6373 -0.1714
  115SAPE   H8R12048   0.762   6.033   3.397  0.3423  0.5122 -0.6669
  115SAPE   C2912049   0.876   5.950   3.559  0.3455  0.1000  0.0380
  115SAPE   H9R12050   0.784   5.920   3.611 -0.5007  3.7683  0.9818
  115SAPE  C21012051   1.004   5.918   3.630  0.1539  0.1890  0.1381
  115SAPE  H10R12052   1.059   6.013   3.647  0.5476 -0.2610  1.4430
  115SAPE  H10S12053   1.066   5.860   3.558 -1.7433 -0.5988 -0.9213
  115SAPE  C21112054   0.991   5.841   3.764 -0.1299 -0.1311 -0.0367
  115SAPE  H11R12055   0.892   5.836   3.810 -0.3779  1.5402 -0.3067
  115SAPE  C21212056   1.100   5.791   3.833 -0.3189  0.1256  0.0907
  115SAPE  H12R12057   1.082   5.738   3.927 -0.3773  1.5374  0.9046
  115SAPE  C21312058   1.242   5.779   3.772 -0.4218 -0.5829 -0.0396
  115SAPE  H13R12059   1.257   5.845   3.684  2.1878 -2.3960 -1.0833
  115SAPE  H13S12060   1.267   5.677   3.736  1.5768 -0.5021  0.9769
  115SAPE  C21412061   1.338   5.814   3.883 -1.0509  0.6653 -0.1695
  115SAPE  H14R12062   1.305   5.896   3.949 -1.5855 -0.0619  0.4953
  115SAPE  C21512063   1.453   5.746   3.923  0.2162  0.2952 -0.1436
  115SAPE  H15R12064   1.503   5.770   4.018  2.6481 -1.4536 -0.9182
  115SAPE  C21612065   1.512   5.625   3.863  1.0510 -0.4699 -0.1568
  115SAPE  H16R12066   1.433   5.568   3.809  0.7175  1.1483 -1.4798
  115SAPE  H16S12067   1.556   5.561   3.942  1.8953  1.1455  0.7344
  115SAPE  C21712068   1.630   5.668   3.772 -0.4999  0.3268  0.0237
  115SAPE  H17R12069   1.699   5.581   3.770 -2.4190 -1.2353 -0.5636
  115SAPE  H17S12070   1.692   5.749   3.818  0.7501 -0.6041  0.0439
  115SAPE  C21812071   1.588   5.702   3.633 -0.1897 -0.0886  0.7300
  115SAPE  H18R12072   1.675   5.739   3.574 -1.6285 -0.3682 -1.7189
  115SAPE  H18S12073   1.510   5.780   3.641  1.3268  1.6748 -0.7471
  115SAPE  C21912074   1.540   5.580   3.546 -0.7753 -0.6220 -0.0872
  115SAPE  H19R12075   1.449   5.529   3.582 -0.7910 -0.6082 -0.1064
  115SAPE  H19S12076   1.607   5.495   3.570  0.8506  0.8762  0.8880
  115SAPE  C22012077   1.548   5.601   3.401 -0.4762 -1.3409 -0.1018
  115SAPE  H20R12078   1.480   5.680   3.362  0.0362 -1.3716 -1.0932
  115SAPE  H20S12079   1.539   5.513   3.334  0.4161  0.2045 -2.3627
  115SAPE  H20T12080   1.648   5.643   3.378 -0.6248 -1.3120 -0.7140
  115SAPE   C3312081   1.382   6.535   3.226 -0.5233 -0.1860 -0.1313
  115SAPE   H3X12082   1.325   6.443   3.253  1.2488 -1.1322  0.5020
  115SAPE   H3Y12083   1.310   6.615   3.196 -2.0165 -2.0716 -1.7842
  115SAPE   C3412084   1.482   6.591   3.331 -0.0496 -0.2280  0.7313
  115SAPE   H4X12085   1.530   6.677   3.280 -2.3658 -0.0918 -1.3730
  115SAPE   H4Y12086   1.555   6.511   3.358  1.1382  0.6123  0.1165
  115SAPE   C3512087   1.408   6.639   3.457 -0.1191  0.3955  0.2355
  115SAPE   H5X12088   1.369   6.551   3.514  3.0398 -0.8632  0.6669
  115SAPE   H5Y12089   1.325   6.705   3.422 -2.3356 -2.2043  0.2510
  115SAPE   C3612090   1.498   6.722   3.556  0.3057  0.1309  0.0193
  115SAPE   H6X12091   1.542   6.808   3.501  0.6859  0.8775  1.4482
  115SAPE   H6Y12092   1.583   6.656   3.585 -1.2240 -2.6382 -1.4101
  115SAPE   C3712093   1.424   6.777   3.679  0.5518  0.3240 -0.1189
  115SAPE   H7X12094   1.379   6.687   3.726 -1.5304  0.9568 -0.7681
  115SAPE   H7Y12095   1.341   6.843   3.644 -1.1855 -1.1118  1.0860
  115SAPE   C3812096   1.508   6.845   3.782  0.5818 -0.1898 -0.5207
  115SAPE   H8X12097   1.553   6.940   3.747 -0.5724  1.6890  2.6448
  115SAPE   H8Y12098   1.600   6.784   3.793  1.6665  1.2706 -1.2146
  115SAPE   C3912099   1.438   6.871   3.919 -0.6783  0.0023 -0.2192
  115SAPE   H9X12100   1.383   6.780   3.948 -0.7713  0.3105  0.6136
  115SAPE   H9Y12101   1.358   6.948   3.915  0.3098  1.2193  1.5636
  115SAPE  C31012102   1.532   6.929   4.034 -0.5451 -0.1185 -0.4507
  115SAPE  H10X12103   1.568   7.021   3.983  0.9075  0.6631  1.8669
  115SAPE  H10Y12104   1.625   6.873   4.059 -0.4094  0.7856  1.1681
  115SAPE  C31112105   1.460   6.964   4.161  0.5099 -0.3101 -0.1847
  115SAPE  H11X12106   1.375   7.031   4.136  0.1920 -0.7473 -0.2845
  115SAPE  H11Y12107   1.526   7.005   4.241  0.2925  1.3780 -0.8159
  115SAPE  C31212108   1.407   6.843   4.232  1.0023  0.2201 -0.7553
  115SAPE  H12X12109   1.492   6.775   4.253  1.4785  0.4228 -1.9797
  115SAPE  H12Y12110   1.335   6.789   4.168  0.1040 -0.6994  0.9646
  115SAPE  C31312111   1.329   6.882   4.364  0.2105  0.3155  0.2606
  115SAPE  H13X12112   1.248   6.955   4.341  0.4337  0.7110  0.6904
  115SAPE  H13Y12113   1.400   6.944   4.423  0.1848  0.6187 -0.0242
  115SAPE  C31412114   1.282   6.759   4.443 -0.1807 -0.2166 -0.1192
  115SAPE  H14X12115   1.374   6.697   4.454 -0.4636 -0.8374 -1.1766
  115SAPE  H14Y12116   1.209   6.706   4.379 -1.3191 -1.7435  2.2847
  115SAPE  C31512117   1.217   6.775   4.581 -0.2600 -0.0218 -0.1931
  115SAPE  H15X12118   1.122   6.828   4.558  0.2857  2.1694  2.1118
  115SAPE  H15Y12119   1.287   6.847   4.629 -2.3005  0.8328  1.7281
  115SAPE  C31612120   1.209   6.650   4.666  0.1282  0.0648 -1.1619
  115SAPE  H16X12121   1.309   6.612   4.696 -0.6975 -1.4165 -0.1326
  115SAPE  H16Y12122   1.150   6.572   4.614 -1.2749  0.4746 -0.2498
  115SAPE  C31712123   1.128   6.672   4.796  0.4493  0.2556 -0.7120
  115SAPE  H17X12124   1.102   6.577   4.849  1.4634  0.3753  0.0311
  115SAPE  H17Y12125   1.036   6.724   4.762 -0.0210 -0.2920 -0.3033
  115SAPE  C31812126   1.207   6.759   4.892  0.2192 -0.0479 -0.6190
  115SAPE  H18X12127   1.138   6.787   4.974  0.9931  0.4162 -0.1109
  115SAPE  H18Y12128   1.256   6.840   4.834  1.0369 -0.0933 -0.0166
  115SAPE  H18Z12129   1.286   6.691   4.931 -0.4197  0.1617  1.1045
  116SAPE     N12130   0.898   1.524   1.790  0.1878 -1.1924  0.8445
  116SAPE   HN112131   0.983   1.466   1.773  0.0126 -1.4040  0.6918
  116SAPE   HN212132   0.817   1.459   1.795 -0.0869 -0.8299  1.2484
  116SAPE   HN312133   0.885   1.579   1.703 -0.3380 -0.8474  1.1378
  116SAPE   C1212134   0.892   1.612   1.913  0.2134 -0.6239  0.1364
  116SAPE  H12A12135   0.784   1.636   1.909  0.2751 -0.4486 -1.1943
  116SAPE  H12B12136   0.958   1.697   1.885  2.0459 -1.8307  0.5750
  116SAPE   C1112137   0.952   1.549   2.038 -0.0833 -0.1245 -0.6956
  116SAPE  H11A12138   0.947   1.602   2.136  1.6384 -3.1528  1.2016
  116SAPE  H11B12139   1.060   1.531   2.018  0.2941 -0.8856  1.6921
  116SAPE     P12140   0.768   1.396   2.153 -0.1805 -0.4229  0.0330
  116SAPE   O1312141   0.687   1.518   2.164  0.1000 -0.1488  0.3682
  116SAPE   O1412142   0.692   1.275   2.111  0.1252 -0.4966 -0.0047
  116SAPE   O1212143   0.890   1.424   2.053  0.3995 -0.0761  0.0800
  116SAPE   O1112144   0.853   1.362   2.287  0.1228 -0.0825 -0.8137
  116SAPE    C112145   0.974   1.295   2.288 -0.2213  0.2801  0.1923
  116SAPE    HA12146   0.954   1.196   2.239  1.5943 -0.4477  0.8507
  116SAPE    HB12147   1.054   1.347   2.231  0.1795  0.6012  1.0331
  116SAPE    C212148   1.015   1.272   2.436  0.5920 -0.7302 -0.9673
  116SAPE    HS12149   1.098   1.197   2.444  2.0472  0.8161 -0.9785
  116SAPE   O2112150   0.909   1.226   2.526  0.4589 -0.8026 -0.4313
  116SAPE   C2112151   0.861   1.109   2.492 -0.8612  0.1066  0.2256
  116SAPE   O2212152   0.919   1.024   2.420  0.1724 -0.4653 -0.6952
  116SAPE   C2212153   0.719   1.093   2.558 -0.5168  0.0753 -0.2802
  116SAPE   H2R12154   0.717   0.982   2.572  1.2195  0.2253  1.6481
  116SAPE   H2S12155   0.706   1.144   2.655  0.6902  1.0954 -0.6268
  116SAPE    C312156   1.066   1.411   2.487 -0.1428 -0.9148 -0.5872
  116SAPE    HX12157   0.988   1.488   2.468 -1.1037 -1.2063  1.7654
  116SAPE    HY12158   1.160   1.434   2.433 -1.0047 -1.6557 -2.4992
  116SAPE   O3112159   1.091   1.416   2.631 -0.3648 -0.1382 -0.4879
  116SAPE   C3112160   1.100   1.539   2.695  0.0414  0.1053  0.2769
  116SAPE   O3212161   1.075   1.646   2.641  0.2605 -0.3986  0.0683
  116SAPE   C3212162   1.162   1.522   2.837  0.1452  0.3214 -0.1103
  116SAPE   H2X12163   1.271   1.504   2.827  0.2769  1.5317 -0.9773
  116SAPE   H2Y12164   1.104   1.433   2.870 -2.4341  1.0101 -2.4013
  116SAPE   C2312165   0.616   1.147   2.463  0.0664  0.8199 -0.4798
  116SAPE   H3R12166   0.625   1.102   2.362  0.9348  0.9077 -0.4493
  116SAPE   H3S12167   0.618   1.256   2.444 -2.0418  0.4705 -3.4688
  116SAPE   C2412168   0.479   1.118   2.526 -0.1689  0.2263 -0.8201
  116SAPE   H4R12169   0.406   1.161   2.455 -1.0001 -0.6164 -0.5053
  116SAPE   H4S12170   0.470   1.180   2.618  2.0397 -2.7334  1.6190
  116SAPE   C2512171   0.442   0.969   2.536 -0.1154  0.1786  0.1066
  116SAPE   H5R12172   0.460   0.909   2.446  0.0473  0.9161 -0.3661
  116SAPE   C2612173   0.389   0.915   2.647  0.0448  0.4847 -0.0876
  116SAPE   H6R12174   0.375   0.806   2.651 -2.4461  0.6297 -2.0165
  116SAPE   C2712175   0.335   0.998   2.758 -0.6430  0.1689 -1.0231
  116SAPE   H7R12176   0.259   0.943   2.817  0.5210 -0.0736  0.3066
  116SAPE   H7S12177   0.277   1.084   2.718 -0.1627  1.2685  0.5448
  116SAPE   C2812178   0.444   1.045   2.851 -0.3461  0.5964  0.1433
  116SAPE   H8R12179   0.542   0.998   2.835 -0.9519 -0.2504 -1.4060
  116SAPE   C2912180   0.424   1.129   2.953  0.3817  0.7687  0.1301
  116SAPE   H9R12181   0.512   1.147   3.017 -0.7790  3.6364  1.0980
  116SAPE  C21012182   0.295   1.192   3.008 -0.7427 -0.5691 -0.4700
  116SAPE  H10R12183   0.302   1.203   3.119 -0.0351 -0.7621 -0.4870
  116SAPE  H10S12184   0.219   1.112   2.994  1.8714 -3.2232 -0.5438
  116SAPE  C21112185   0.253   1.322   2.946 -0.2272 -0.2656  0.3426
  116SAPE  H11R12186   0.315   1.353   2.860 -1.8660  1.2546 -0.3524
  116SAPE  C21212187   0.142   1.386   2.975 -0.0347 -0.1323 -0.6626
  116SAPE  H12R12188   0.106   1.480   2.931 -1.1373  1.0802  2.5512
  116SAPE  C21312189   0.051   1.359   3.086  0.1041 -0.1869 -0.3851
  116SAPE  H13R12190   0.081   1.445   3.150  2.5734 -1.1545 -0.1503
  116SAPE  H13S12191   0.075   1.268   3.144 -0.0507 -1.7692 -2.6691
  116SAPE  C21412192  -0.097   1.366   3.057  0.4580  0.0534  0.0151
  116SAPE  H14R12193  -0.142   1.277   3.010 -0.0084  0.5817 -0.5614
  116SAPE  C21512194  -0.186   1.474   3.070  0.0897  0.0501 -0.1691
  116SAPE  H15R12195  -0.294   1.461   3.050 -0.0690 -2.1460  1.6424
  116SAPE  C21612196  -0.155   1.603   3.139  0.0984 -0.3129  0.0190
  116SAPE  H16R12197  -0.170   1.695   3.079 -1.4579 -0.5434  0.0079
  116SAPE  H16S12198  -0.051   1.617   3.175 -0.3334  0.1184  1.1634
  116SAPE  C21712199  -0.252   1.621   3.262  0.4648  0.0538  0.1150
  116SAPE  H17R12200  -0.357   1.611   3.227  0.7567 -0.4754 -0.6213
  116SAPE  H17S12201  -0.234   1.726   3.292 -1.8386  0.0338  1.8410
  116SAPE  C21812202  -0.219   1.531   3.387  0.2633  0.7675 -0.0787
  116SAPE  H18R12203  -0.111   1.529   3.409 -0.0003  1.1990  1.3491
  116SAPE  H18S12204  -0.260   1.428   3.374 -3.0403  1.4538  3.0355
  116SAPE  C21912205  -0.285   1.582   3.513 -0.5303 -0.5943 -0.1557
  116SAPE  H19R12206  -0.377   1.519   3.519 -1.4599  0.7260 -0.0972
  116SAPE  H19S12207  -0.309   1.689   3.495 -1.2928 -0.7177  0.0681
  116SAPE  C22012208  -0.214   1.551   3.639  0.5596  0.2218  0.2293
  116SAPE  H20R12209  -0.106   1.577   3.634  0.2898  1.7660  1.4777
  116SAPE  H20S12210  -0.224   1.446   3.675  0.8088 -0.2373 -0.9916
  116SAPE  H20T12211  -0.261   1.607   3.723 -1.7626 -0.4505 -0.5484
  116SAPE   C3312212   1.140   1.653   2.913 -0.5297 -0.4178  0.6613
  116SAPE   H3X12213   1.031   1.677   2.910 -0.3109  0.8318  1.7345
  116SAPE   H3Y12214   1.204   1.729   2.863  1.1580 -2.9665 -1.2624
  116SAPE   C3412215   1.172   1.637   3.056  0.2139 -0.1273 -0.6888
  116SAPE   H4X12216   1.281   1.617   3.058  0.7060  2.2240  0.3927
  116SAPE   H4Y12217   1.115   1.551   3.097 -0.6272 -0.0235 -1.5879
  116SAPE   C3512218   1.139   1.762   3.143 -0.0676 -0.8542 -0.1590
  116SAPE   H5X12219   1.031   1.753   3.169  0.3948 -1.6664  1.6331
  116SAPE   H5Y12220   1.165   1.849   3.079  1.4486 -1.5010 -0.4670
  116SAPE   C3612221   1.217   1.773   3.276 -0.2143 -0.1737  0.0247
  116SAPE   H6X12222   1.200   1.877   3.311 -2.3515 -0.3890 -0.2591
  116SAPE   H6Y12223   1.326   1.763   3.255 -0.1236  0.1720  0.3136
  116SAPE   C3712224   1.159   1.679   3.383 -0.1711 -0.9967  0.4445
  116SAPE   H7X12225   1.178   1.575   3.349 -2.5852 -2.2095  2.4372
  116SAPE   H7Y12226   1.049   1.698   3.376 -0.0549  0.2102  1.4852
  116SAPE   C3812227   1.215   1.695   3.524 -0.0729 -0.0567 -0.2148
  116SAPE   H8X12228   1.324   1.715   3.535  0.0104 -0.1139 -0.8772
  116SAPE   H8Y12229   1.195   1.597   3.572 -2.8329  0.6636  0.2668
  116SAPE   C3912230   1.133   1.807   3.598  0.0269 -0.1144 -0.6101
  116SAPE   H9X12231   1.124   1.896   3.532 -1.0462 -1.2664 -2.0650
  116SAPE   H9Y12232   1.185   1.846   3.689  0.1861 -1.5880 -0.0461
  116SAPE  C31012233   0.985   1.773   3.635 -0.5195  0.2187  0.2080
  116SAPE  H10X12234   0.989   1.687   3.705 -1.4852  0.0572  0.0851
  116SAPE  H10Y12235   0.928   1.742   3.544  3.1709  0.8915 -2.5913
  116SAPE  C31112236   0.909   1.888   3.710 -0.0133  0.0172 -0.4388
  116SAPE  H11X12237   0.882   1.953   3.624 -0.4789  1.4060  0.7277
  116SAPE  H11Y12238   0.979   1.945   3.776 -0.6013  0.3034 -0.0500
  116SAPE  C31212239   0.791   1.840   3.792  0.7450 -0.1594  0.0015
  116SAPE  H12X12240   0.740   1.765   3.728  2.8069  0.1335 -2.1316
  116SAPE  H12Y12241   0.729   1.930   3.813  0.0440 -0.3310 -1.2213
  116SAPE  C31312242   0.846   1.786   3.926 -0.0529 -0.5310  0.8754
  116SAPE  H13X12243   0.916   1.852   3.982 -0.1082  0.0646  0.2580
  116SAPE  H13Y12244   0.914   1.699   3.913 -1.8999 -2.0427  0.8438
  116SAPE  C31412245   0.734   1.762   4.028  0.0724  0.0898  0.4277
  116SAPE  H14X12246   0.664   1.684   3.989  1.6290 -2.2193  2.0194
  116SAPE  H14Y12247   0.681   1.858   4.047  1.5567  0.6809  1.8211
  116SAPE  C31512248   0.795   1.713   4.157  0.1353  0.1223  0.5574
  116SAPE  H15X12249   0.727   1.726   4.244 -0.5238 -1.3484  0.3000
  116SAPE  H15Y12250   0.881   1.782   4.168  0.6755 -0.3207 -0.6651
  116SAPE  C31612251   0.845   1.569   4.146  0.1437 -0.3134 -0.5022
  116SAPE  H16X12252   0.932   1.559   4.077 -0.2930 -1.2243 -0.9464
  116SAPE  H16Y12253   0.755   1.520   4.102 -1.5120  1.6169  0.5610
  116SAPE  C31712254   0.894   1.500   4.276  0.0860  0.2895 -0.3111
  116SAPE  H17X12255   0.920   1.395   4.250 -1.9190 -0.4787  0.5336
  116SAPE  H17Y12256   0.809   1.484   4.346  0.6694 -1.1946  0.0968
  116SAPE  C31812257   1.026   1.556   4.337  0.2698 -0.6744 -0.2382
  116SAPE  H18X12258   1.102   1.555   4.256  0.9704 -1.3054  0.4078
  116SAPE  H18Y12259   1.057   1.489   4.420  1.1609 -1.3576 -1.1046
  116SAPE  H18Z12260   1.000   1.660   4.366  1.3203 -0.9114  1.7211
  117SOPE     N12261   1.748   4.992   6.456 -0.0006  0.3013 -0.0284
  117SOPE   HN112262   1.772   4.982   6.355 -0.7079 -0.6738 -0.1129
  117SOPE   HN212263   1.829   4.996   6.521  0.3070  1.0379 -0.4470
  117SOPE   HN312264   1.699   4.905   6.484 -0.2707  0.3538 -0.3274
  117SOPE   C1212265   1.652   5.100   6.477 -0.4154  0.4501 -0.1299
  117SOPE  H12A12266   1.549   5.076   6.444  0.3662 -2.3151 -0.8850
  117SOPE  H12B12267   1.689   5.185   6.416  1.7554  0.1479  0.6669
  117SOPE   C1112268   1.650   5.140   6.625  0.2143 -0.4064 -0.4176
  117SOPE  H11A12269   1.595   5.235   6.643 -0.2035 -0.7207  0.0010
  117SOPE  H11B12270   1.752   5.169   6.658 -0.1962  1.4381 -0.6631
  117SOPE     P12271   1.444   5.022   6.744  0.0001 -0.0039  0.1770
  117SOPE   O1312272   1.406   5.130   6.835  0.2319  0.1615  0.5653
  117SOPE   O1412273   1.423   4.885   6.799 -0.7676 -0.0738  0.0401
  117SOPE   O1212274   1.598   5.037   6.709 -0.0374 -0.3332 -0.3752
  117SOPE   O1112275   1.365   5.038   6.606 -0.9665 -0.0524  0.4633
  117SOPE    C112276   1.290   5.155   6.577  0.1542  0.0236 -0.1395
  117SOPE    HA12277   1.326   5.183   6.476  1.6569 -0.5537  0.2099
  117SOPE    HB12278   1.313   5.236   6.649 -0.1272 -0.6907  0.7893
  117SOPE    C212279   1.136   5.129   6.567 -0.1445 -0.0690  0.1777
  117SOPE    HS12280   1.109   5.128   6.675 -0.5791 -0.1529  0.0711
  117SOPE   O2112281   1.101   5.001   6.514 -0.0387  0.0726  0.5544
  117SOPE   C2112282   0.979   4.963   6.529 -0.2893 -0.5978  0.0544
  117SOPE   O2212283   0.887   5.038   6.570  0.0989  0.6302  0.5205
  117SOPE   C2212284   0.969   4.828   6.463 -0.6270  0.0278 -0.5883
  117SOPE   H2R12285   0.989   4.757   6.546  1.0564 -1.2368 -1.9899
  117SOPE   H2S12286   1.055   4.806   6.395 -1.3464  0.4132 -1.6532
  117SOPE    C312287   1.070   5.248   6.503  0.1155 -0.6371  0.2798
  117SOPE    HX12288   1.122   5.344   6.522 -0.1297 -0.3049 -0.6766
  117SOPE    HY12289   0.963   5.254   6.532  0.1926  0.4217  0.3864
  117SOPE   O3112290   1.078   5.238   6.356  0.1415 -0.0977  0.7947
  117SOPE   C3112291   0.992   5.316   6.286  0.0561 -0.2782  0.3664
  117SOPE   O3212292   0.899   5.380   6.334 -0.5842 -0.0579  0.2188
  117SOPE   C3212293   1.040   5.321   6.142 -0.5089 -0.4298 -0.4375
  117SOPE   H2X12294   1.032   5.216   6.109 -0.1244  0.3535 -3.3637
  117SOPE   H2Y12295   1.148   5.346   6.134 -0.3474 -1.1374 -0.4975
  117SOPE   C2312296   0.836   4.811   6.391  0.2792 -0.1447  0.5524
  117SOPE   H3R12297   0.745   4.837   6.449 -0.5759  2.8441 -1.8725
  117SOPE   H3S12298   0.822   4.704   6.365  0.7687 -0.2102  0.5427
  117SOPE   C2412299   0.833   4.891   6.262  0.1213  0.3767 -0.4733
  117SOPE   H4R12300   0.818   5.000   6.278 -2.6834 -0.1587  1.5040
  117SOPE   H4S12301   0.935   4.876   6.220  0.3297 -0.6744  0.3507
  117SOPE   C2512302   0.731   4.830   6.164  0.1224  0.5854  0.2795
  117SOPE   H5R12303   0.747   4.721   6.157  0.2124  0.6505 -0.7330
  117SOPE   H5S12304   0.633   4.846   6.213 -0.1989  1.3867 -0.5872
  117SOPE   C2612305   0.721   4.888   6.020 -0.7174  0.2431 -0.9460
  117SOPE   H6R12306   0.827   4.904   5.990  0.7563 -0.3187  3.3208
  117SOPE   H6S12307   0.669   4.819   5.949 -3.0322  3.1908 -2.3274
  117SOPE   C2712308   0.644   5.015   6.007 -0.8105  0.7259 -0.2250
  117SOPE   H7R12309   0.546   5.006   6.060 -1.0984  3.2025 -0.2203
  117SOPE   H7S12310   0.686   5.096   6.070 -1.1047 -1.9681  3.8160
  117SOPE   C2812311   0.619   5.054   5.863  0.4584 -0.6709  0.1322
  117SOPE   H8R12312   0.722   5.078   5.828 -0.1426  1.8722 -0.0417
  117SOPE   H8S12313   0.578   4.970   5.802  4.2186 -0.8869 -2.4711
  117SOPE   C2912314   0.534   5.178   5.842  0.2851  0.2810 -0.6105
  117SOPE   H9112315   0.481   5.214   5.931 -0.0794 -1.6009 -0.0098
  117SOPE  C21012316   0.546   5.252   5.740  0.5864  0.3809  0.3459
  117SOPE  H10112317   0.486   5.344   5.736  0.9493  0.6148  0.3000
  117SOPE  C21112318   0.620   5.203   5.617 -0.0660  0.2080 -0.2207
  117SOPE  H11R12319   0.595   5.105   5.571  1.2639 -0.8933  1.2690
  117SOPE  H11S12320   0.726   5.187   5.648  0.3019 -1.9036 -2.2974
  117SOPE  C21212321   0.586   5.297   5.506  0.3014 -0.0928 -0.4640
  117SOPE  H12R12322   0.640   5.395   5.512  2.3430 -0.9183 -3.1289
  117SOPE  H12S12323   0.479   5.321   5.493  0.3533  0.0962 -0.5583
  117SOPE  C21312324   0.645   5.247   5.373 -0.3709  0.1510 -0.3262
  117SOPE  H13R12325   0.607   5.308   5.288  2.0911  1.8610 -0.2978
  117SOPE  H13S12326   0.599   5.148   5.349  0.4495 -0.4064  0.3664
  117SOPE  C21412327   0.794   5.229   5.375  0.3385  0.0982  0.4390
  117SOPE  H14R12328   0.816   5.144   5.444 -2.1896 -0.8112  0.2539
  117SOPE  H14S12329   0.846   5.316   5.419 -1.0188  0.1638  2.0164
  117SOPE  C21512330   0.842   5.217   5.228 -0.3225 -0.1996 -0.0327
  117SOPE  H15R12331   0.952   5.230   5.220 -0.1237 -1.4620  0.3596
  117SOPE  H15S12332   0.798   5.296   5.164  0.7218  0.1763 -0.3039
  117SOPE  C21612333   0.798   5.081   5.170 -0.5474 -0.3368  0.0134
  117SOPE  H16R12334   0.688   5.081   5.190 -0.4221  2.2077  1.0931
  117SOPE  H16S12335   0.845   5.003   5.234  0.0291  0.0787  0.0996
  117SOPE  C21712336   0.842   5.075   5.028 -0.5989  0.5091 -0.4618
  117SOPE  H17R12337   0.952   5.091   5.036 -0.1604 -1.4163 -1.7738
  117SOPE  H17S12338   0.795   5.158   4.971 -0.7271  0.9603  0.2875
  117SOPE  C21812339   0.817   4.953   4.949  0.2338  0.5881  0.3896
  117SOPE  H18R12340   0.716   4.943   4.905  0.7463  0.4847 -0.7848
  117SOPE  H18S12341   0.836   4.859   5.006  0.1591  1.0304  1.1642
  117SOPE  H18T12342   0.893   4.941   4.869  1.1851  0.9504  1.2145
  117SOPE   C3312343   0.949   5.407   6.052  0.5187  0.2648  0.2349
  117SOPE   H3X12344   0.965   5.514   6.074  0.3745  0.1201  1.0721
  117SOPE   H3Y12345   0.844   5.382   6.078  1.3124 -2.3442  1.3375
  117SOPE   C3412346   0.976   5.381   5.898 -0.1264 -0.4123  0.4241
  117SOPE   H4X12347   0.934   5.282   5.871 -1.8914  0.3301  0.2710
  117SOPE   H4Y12348   1.085   5.386   5.881 -0.2730  0.7584 -0.3477
  117SOPE   C3512349   0.917   5.493   5.812 -0.3715 -0.5465  0.2822
  117SOPE   H5X12350   0.965   5.585   5.853  0.2623 -0.2318 -1.1219
  117SOPE   H5Y12351   0.808   5.506   5.830 -0.6271 -0.0696 -1.5031
  117SOPE   C3612352   0.942   5.496   5.658 -0.2027  0.2531  0.3429
  117SOPE   H6X12353   0.922   5.391   5.628 -1.5326  0.6771 -0.3071
  117SOPE   H6Y12354   1.046   5.525   5.631 -1.0756  1.4834 -1.9899
  117SOPE   C3712355   0.848   5.588   5.574 -0.2922  0.2556  0.2555
  117SOPE   H7X12356   0.847   5.688   5.621  2.4016 -0.0752  1.1961
  117SOPE   H7Y12357   0.741   5.558   5.587 -0.0409 -1.0037 -0.3633
  117SOPE   C3812358   0.882   5.600   5.428 -0.4726  0.3439 -0.5896
  117SOPE   H8X12359   0.933   5.506   5.398  1.6383  0.1915  2.9747
  117SOPE   H8Y12360   0.949   5.686   5.411 -0.6322  0.3054 -1.4576
  117SOPE   C3912361   0.750   5.635   5.350 -0.3642  0.2464  0.2311
  117SOPE   H9X12362   0.704   5.731   5.383 -2.9067 -1.6043  2.4739
  117SOPE   H9Y12363   0.675   5.560   5.382  0.2222  1.2488  4.4608
  117SOPE  C31012364   0.794   5.655   5.203  0.2535  0.8605  0.0350
  117SOPE  H10X12365   0.861   5.571   5.174 -2.2067 -1.9900  1.9515
  117SOPE  H10Y12366   0.876   5.729   5.207  3.0342 -2.0074  3.5185
  117SOPE  C31112367   0.680   5.666   5.100  0.3183  0.1982  0.4100
  117SOPE  H11X12368   0.595   5.726   5.137 -0.1888 -0.0376 -0.3452
  117SOPE  H11Y12369   0.641   5.563   5.084  0.2539 -0.2047  2.8090
  117SOPE  C31212370   0.709   5.742   4.970  0.5667 -0.2539 -0.3654
  117SOPE  H12X12371   0.791   5.712   4.902  0.0690  0.5720 -1.3652
  117SOPE  H12Y12372   0.740   5.840   5.013 -2.0500 -0.1093  1.4830
  117SOPE  C31312373   0.592   5.768   4.871 -0.4594 -0.1943  0.7116
  117SOPE  H13X12374   0.508   5.810   4.932  0.4718  2.8369  0.0993
  117SOPE  H13Y12375   0.553   5.676   4.823  0.7572 -0.9537  1.1435
  117SOPE  C31412376   0.624   5.868   4.761 -0.9111 -0.2406  0.1293
  117SOPE  H14X12377   0.726   5.840   4.727 -0.8094  2.0030 -1.5997
  117SOPE  H14Y12378   0.627   5.970   4.804  1.8296 -0.9597  1.9484
  117SOPE  C31512379   0.520   5.864   4.639 -0.3839 -0.2611  0.1363
  117SOPE  H15X12380   0.420   5.880   4.685  0.0493 -1.3569  1.5142
  117SOPE  H15Y12381   0.522   5.770   4.580  1.9859 -1.2675  1.6521
  117SOPE  C31612382   0.545   5.973   4.536  0.8251  0.2270  0.5453
  117SOPE  H16X12383   0.648   5.956   4.497  0.4903  1.3726 -0.9334
  117SOPE  H16Y12384   0.551   6.075   4.579  0.3237  0.5200 -0.0709
  117SOPE  C31712385   0.444   5.970   4.426  0.8945 -0.1770 -0.0872
  117SOPE  H17X12386   0.346   5.998   4.470  1.5435  0.3082  1.1139
  117SOPE  H17Y12387   0.433   5.867   4.386  0.3529  0.3551 -1.3546
  117SOPE  C31812388   0.480   6.070   4.319 -0.3634  0.1290  0.6713
  117SOPE  H18X12389   0.393   6.117   4.269  0.1027  0.1835 -0.1144
  117SOPE  H18Y12390   0.555   6.022   4.252 -1.0689 -0.3595  0.2269
  117SOPE  H18Z12391   0.541   6.151   4.365  1.5844 -0.3727 -0.8610
  118SOPE     N12392   0.784   6.537   6.635 -0.0523  0.3040 -0.5955
  118SOPE   HN112393   0.687   6.566   6.660  0.9080  1.5812  2.1432
  118SOPE   HN212394   0.833   6.605   6.574  0.9094 -2.5987 -3.3476
  118SOPE   HN312395   0.767   6.449   6.582 -0.5783 -1.3402  2.0866
  118SOPE   C1212396   0.864   6.520   6.761 -0.4041 -0.6000  0.3243
  118SOPE  H12A12397   0.897   6.618   6.802 -0.0495 -1.1613  1.4116
  118SOPE  H12B12398   0.962   6.477   6.731  1.3623  1.2259  3.0330
  118SOPE   C1112399   0.783   6.440   6.860 -0.3560  1.0988 -0.1491
  118SOPE  H11A12400   0.678   6.475   6.867 -0.9564 -0.5372 -0.4773
  118SOPE  H11B12401   0.835   6.452   6.957 -1.3807  0.8745  0.4387
  118SOPE     P12402   0.840   6.191   6.879  0.0030  0.0141  0.3333
  118SOPE   O1312403   0.762   6.133   6.988  0.4861  0.0640 -0.0792
  118SOPE   O1412404   0.979   6.218   6.903 -0.1265  0.4566 -0.9787
  118SOPE   O1212405   0.763   6.307   6.821  0.2626 -0.6380  0.1890
  118SOPE   O1112406   0.827   6.089   6.750  0.0185  0.2049 -0.1052
  118SOPE    C112407   0.934   6.080   6.656 -0.2218 -0.0278  0.0934
  118SOPE    HA12408   0.932   5.978   6.611  0.0377  0.3050 -0.6792
  118SOPE    HB12409   1.040   6.095   6.687 -0.1486 -0.8857  0.2888
  118SOPE    C212410   0.905   6.175   6.538 -0.1564  0.0562 -0.4636
  118SOPE    HS12411   0.883   6.268   6.595 -1.6602 -1.5116  1.6849
  118SOPE   O2112412   0.792   6.127   6.464  0.4417  0.1974 -0.2442
  118SOPE   C2112413   0.696   6.213   6.439 -1.0590 -0.0381 -0.1784
  118SOPE   O2212414   0.694   6.325   6.490 -0.1947  0.0741  0.1499
  118SOPE   C2212415   0.606   6.143   6.340  0.8938 -0.2067 -0.4079
  118SOPE   H2R12416   0.504   6.156   6.382 -0.5587 -0.1592 -3.6211
  118SOPE   H2S12417   0.608   6.032   6.344 -1.9844 -0.2893  2.8150
  118SOPE    C312418   1.028   6.196   6.437  0.3119  0.7650  0.1965
  118SOPE    HX12419   1.056   6.092   6.412  1.1922 -0.0783  4.0314
  118SOPE    HY12420   1.104   6.251   6.497  1.4320 -0.4945 -0.0140
  118SOPE   O3112421   0.989   6.267   6.317  0.0563 -0.2953 -0.0035
  118SOPE   C3112422   0.960   6.398   6.333 -0.0559  0.3560  0.3024
  118SOPE   O3212423   0.963   6.461   6.439  0.2239 -0.0516 -0.0139
  118SOPE   C3212424   0.908   6.443   6.195 -0.3493 -0.1321 -0.3450
  118SOPE   H2X12425   0.798   6.441   6.210  0.0101 -0.6214  2.9993
  118SOPE   H2Y12426   0.937   6.369   6.117  0.5404  0.3302 -0.4599
  118SOPE   C2312427   0.594   6.216   6.200  0.1191  0.1418 -0.0054
  118SOPE   H3R12428   0.606   6.325   6.218  1.4839  0.5074 -2.7068
  118SOPE   H3S12429   0.491   6.199   6.163  1.1369 -0.6346 -2.7190
  118SOPE   C2412430   0.695   6.166   6.096  0.3376  0.2445 -1.1980
  118SOPE   H4R12431   0.678   6.229   6.007  0.0008  0.2532 -1.1262
  118SOPE   H4S12432   0.799   6.175   6.135  0.5819 -1.3868 -1.3838
  118SOPE   C2512433   0.673   6.018   6.058 -0.6594 -0.3907  0.2668
  118SOPE   H5R12434   0.697   5.944   6.138  0.9249 -0.6463 -0.3985
  118SOPE   H5S12435   0.566   5.997   6.038 -1.2748 -3.0766  4.8847
  118SOPE   C2612436   0.766   5.982   5.944  0.0153  0.5866  0.4829
  118SOPE   H6R12437   0.873   5.993   5.974 -0.0556  1.6979  0.3539
  118SOPE   H6S12438   0.757   5.871   5.942 -0.5816  0.6209  1.0018
  118SOPE   C2712439   0.740   6.043   5.803 -0.2246 -0.3322  0.0193
  118SOPE   H7R12440   0.631   6.030   5.784 -0.1350 -0.6853 -0.2603
  118SOPE   H7S12441   0.753   6.153   5.797  2.8786 -0.6170 -0.2637
  118SOPE   C2812442   0.832   5.984   5.693 -0.7295  0.2326  0.0664
  118SOPE   H8R12443   0.931   6.035   5.702 -0.5562  0.0271 -0.6287
  118SOPE   H8S12444   0.842   5.876   5.717 -0.1720 -0.4388 -2.8409
  118SOPE   C2912445   0.757   5.998   5.561 -0.3261  0.1211  0.9529
  118SOPE   H9112446   0.648   5.996   5.574 -0.2544 -1.6756  1.5502
  118SOPE  C21012447   0.813   6.012   5.439  0.2115 -0.1194  0.5351
  118SOPE  H10112448   0.744   6.022   5.354  1.1790 -0.0398 -0.2467
  118SOPE  C21112449   0.951   6.020   5.400  0.1653 -0.0920  0.2993
  118SOPE  H11R12450   1.014   5.961   5.470  0.1905  0.0247  0.3742
  118SOPE  H11S12451   0.975   6.128   5.410 -2.3441  0.5782 -0.1045
  118SOPE  C21212452   1.000   5.977   5.262  0.3712  0.2394 -0.5285
  118SOPE  H12R12453   1.007   5.869   5.237 -2.1709  0.2640 -1.6400
  118SOPE  H12S12454   1.107   6.006   5.266  0.3589  0.1972  0.2155
  118SOPE  C21312455   0.935   6.054   5.148 -0.5021 -0.0079  0.3446
  118SOPE  H13R12456   0.932   6.164   5.157  0.2388  0.0584 -0.0571
  118SOPE  H13S12457   0.828   6.027   5.142 -1.5673  3.9535 -1.3914
  118SOPE  C21412458   1.014   6.010   5.018  0.1974  0.2307 -0.5480
  118SOPE  H14R12459   1.012   5.900   5.002 -1.1485  0.5872 -3.6443
  118SOPE  H14S12460   1.118   6.044   5.035 -0.5310  2.5057 -0.2290
  118SOPE  C21512461   0.947   6.061   4.898  0.2958  0.2691  0.0099
  118SOPE  H15R12462   0.951   6.171   4.908  0.9414  0.0845  2.1643
  118SOPE  H15S12463   0.839   6.038   4.910  0.6160 -1.6284 -0.3400
  118SOPE  C21612464   1.012   6.017   4.767  0.6045  0.0886  0.1848
  118SOPE  H16R12465   1.000   5.907   4.760 -2.4161  0.3408  0.0122
  118SOPE  H16S12466   1.122   6.029   4.769  0.5554  0.5124  0.3009
  118SOPE  C21712467   0.951   6.077   4.633 -0.0656  0.4297  0.4478
  118SOPE  H17R12468   0.968   6.187   4.631 -0.7647  0.5373 -0.1049
  118SOPE  H17S12469   0.843   6.050   4.644  0.2586 -0.3494  1.9663
  118SOPE  C21812470   1.009   6.016   4.511 -0.3154 -0.9231  0.0642
  118SOPE  H18R12471   1.119   6.031   4.505 -0.6616  1.5620 -1.3701
  118SOPE  H18S12472   0.977   6.059   4.413 -1.5132  0.4794  1.0315
  118SOPE  H18T12473   0.996   5.906   4.509  1.5331 -1.1783  0.6091
  118SOPE   C3312474   0.953   6.586   6.163  0.5691  0.1044  0.2136
  118SOPE   H3X12475   1.064   6.589   6.163  0.6496 -1.5753  0.3931
  118SOPE   H3Y12476   0.932   6.658   6.244 -2.3448 -0.1248 -0.2078
  118SOPE   C3412477   0.884   6.635   6.034 -0.1695 -0.0146  1.0369
  118SOPE   H4X12478   0.873   6.745   6.024 -1.7513 -0.1756  0.6369
  118SOPE   H4Y12479   0.782   6.590   6.033 -1.2149  1.9998 -2.6285
  118SOPE   C3512480   0.953   6.580   5.911  0.4887 -0.4623  0.0415
  118SOPE   H5X12481   0.964   6.470   5.924 -2.6236 -1.1027 -1.7505
  118SOPE   H5Y12482   1.055   6.620   5.895  0.7814 -2.1901 -3.4642
  118SOPE   C3612483   0.862   6.594   5.782 -0.3737  0.0032  0.1814
  118SOPE   H6X12484   0.834   6.701   5.766 -2.1151 -0.7006 -1.9386
  118SOPE   H6Y12485   0.771   6.536   5.806  0.4212 -1.5032 -0.2869
  118SOPE   C3712486   0.913   6.529   5.649 -0.1414  0.4901 -0.2535
  118SOPE   H7X12487   0.907   6.419   5.640  1.4812  0.5406 -3.9446
  118SOPE   H7Y12488   1.020   6.557   5.636 -0.0158 -0.5602 -1.6896
  118SOPE   C3812489   0.835   6.582   5.532 -0.1200  0.2332  0.5435
  118SOPE   H8X12490   0.852   6.690   5.514 -0.0389  0.0646 -0.4450
  118SOPE   H8Y12491   0.727   6.561   5.548 -0.0498 -1.0490 -0.4189
  118SOPE   C3912492   0.885   6.514   5.398 -0.1611 -0.4175  0.6514
  118SOPE   H9X12493   0.907   6.405   5.405  1.7062 -0.2566 -1.5140
  118SOPE   H9Y12494   0.986   6.551   5.368  0.7530 -3.3505 -0.2912
  118SOPE  C31012495   0.784   6.530   5.283 -0.3464 -0.1775 -1.1332
  118SOPE  H10X12496   0.747   6.634   5.270 -1.0345 -0.3863 -0.8930
  118SOPE  H10Y12497   0.690   6.476   5.307  0.7460 -1.9796 -0.7529
  118SOPE  C31112498   0.841   6.486   5.145  0.5165  0.0018 -0.0325
  118SOPE  H11X12499   0.849   6.376   5.128 -2.4460 -0.4544  0.8748
  118SOPE  H11Y12500   0.939   6.529   5.113 -0.2685  0.0397 -2.6541
  118SOPE  C31212501   0.741   6.517   5.039  0.2172  0.6414 -0.5532
  118SOPE  H12X12502   0.737   6.627   5.021  1.0729  0.4470 -2.0232
  118SOPE  H12Y12503   0.647   6.466   5.071  1.1129 -0.5806  0.1786
  118SOPE  C31312504   0.780   6.456   4.906 -0.1733  0.9785 -0.1118
  118SOPE  H13X12505   0.788   6.347   4.927  0.0855  0.8849 -0.6818
  118SOPE  H13Y12506   0.885   6.486   4.882  0.1634  0.3201  0.4776
  118SOPE  C31412507   0.691   6.490   4.790 -0.1848  0.2421  0.0299
  118SOPE  H14X12508   0.662   6.597   4.780 -1.4163  0.2971  3.2833
  118SOPE  H14Y12509   0.598   6.435   4.815 -1.3462  1.4649 -1.4196
  118SOPE  C31512510   0.762   6.429   4.662 -0.4180 -0.4481 -0.8030
  118SOPE  H15X12511   0.782   6.326   4.698  0.6525  0.4274  1.3170
  118SOPE  H15Y12512   0.847   6.497   4.636  0.9210 -0.4212  2.9887
  118SOPE  C31612513   0.666   6.413   4.546 -0.1253 -0.2431 -0.2903
  118SOPE  H16X12514   0.576   6.355   4.576  1.0674 -1.2073  1.5531
  118SOPE  H16Y12515   0.706   6.357   4.458 -1.8787 -4.4523  1.3030
  118SOPE  C31712516   0.615   6.554   4.497 -0.4580 -0.5036 -0.1412
  118SOPE  H17X12517   0.568   6.602   4.586  0.1236 -1.6266  0.7967
  118SOPE  H17Y12518   0.540   6.539   4.417  1.4910 -2.0304 -1.7968
  118SOPE  C31812519   0.724   6.645   4.441 -0.1948 -0.6788 -0.3147
  118SOPE  H18X12520   0.809   6.663   4.510  0.3236 -1.2513 -0.8006
  118SOPE  H18Y12521   0.687   6.743   4.403  2.2816  0.7757  0.7889
  118SOPE  H18Z12522   0.774   6.599   4.354 -1.1080  0.4638 -1.4840
  119SOPE     N12523   1.512   1.426   6.440  0.6096  0.2028 -0.9002
  119SOPE   HN112524   1.452   1.439   6.356 -1.5880  0.8400  0.6741
  119SOPE   HN212525   1.582   1.503   6.444  3.3625 -2.1604 -0.0791
  119SOPE   HN312526   1.562   1.335   6.450 -0.3084 -0.0392  3.3637
  119SOPE   C1212527   1.426   1.433   6.567 -0.6882  0.5500  0.5496
  119SOPE  H12A12528   1.359   1.520   6.557 -0.4379  0.7698  0.7659
  119SOPE  H12B12529   1.496   1.450   6.652 -0.0958  4.7592 -0.5797
  119SOPE   C1112530   1.346   1.302   6.591 -0.0379  0.6153 -0.3345
  119SOPE  H11A12531   1.313   1.275   6.488  1.9755 -0.3972 -0.7655
  119SOPE  H11B12532   1.255   1.309   6.653  0.4893 -3.4480  1.1960
  119SOPE     P12533   1.489   1.089   6.555 -0.2096 -0.3217 -0.1384
  119SOPE   O1312534   1.552   0.992   6.649 -0.1389 -0.0126  0.1734
  119SOPE   O1412535   1.563   1.152   6.438 -0.1495  0.5637  0.0132
  119SOPE   O1212536   1.441   1.206   6.649  0.7723  0.1124  0.2266
  119SOPE   O1112537   1.351   1.029   6.508  0.6224 -0.0908  0.7535
  119SOPE    C112538   1.343   0.938   6.406 -0.6777  0.2764 -0.6725
  119SOPE    HA12539   1.263   0.864   6.431 -1.4201  1.9953  2.6814
  119SOPE    HB12540   1.433   0.877   6.385 -0.2717  1.3455 -2.1570
  119SOPE    C212541   1.298   1.003   6.273 -0.5342  0.0314  0.3916
  119SOPE    HS12542   1.377   1.077   6.248  1.7027 -2.3170  0.0632
  119SOPE   O2112543   1.168   1.043   6.285 -0.0033  0.2400  0.1720
  119SOPE   C2112544   1.146   1.168   6.247 -0.0662 -0.8347 -0.4781
  119SOPE   O2212545   1.225   1.253   6.205 -0.2708 -0.0685  0.2537
  119SOPE   C2212546   0.995   1.189   6.241 -0.8353  0.3684  0.3875
  119SOPE   H2R12547   0.974   1.229   6.343  0.4853  2.1890 -0.0081
  119SOPE   H2S12548   0.933   1.097   6.235  1.3640 -1.4284  2.9717
  119SOPE    C312549   1.311   0.901   6.162  0.8143 -0.2263 -0.0100
  119SOPE    HX12550   1.250   0.814   6.193  1.1123 -0.8022 -0.9708
  119SOPE    HY12551   1.412   0.855   6.165  0.1568 -1.6776  1.7209
  119SOPE   O3112552   1.272   0.962   6.035 -0.4914  0.3154  0.2486
  119SOPE   C3112553   1.370   0.980   5.948  0.2709 -0.4250  0.1157
  119SOPE   O3212554   1.489   0.963   5.972 -0.1108 -0.4151 -0.2311
  119SOPE   C3212555   1.314   1.006   5.806  0.3657  0.3162  0.1466
  119SOPE   H2X12556   1.295   1.115   5.798 -1.3843 -0.0100 -0.5899
  119SOPE   H2Y12557   1.214   0.957   5.802  1.2123 -1.4566  0.0509
  119SOPE   C2312558   0.950   1.298   6.133 -0.1929  0.3407  0.0019
  119SOPE   H3R12559   0.999   1.397   6.148  0.4508  0.2102 -1.1394
  119SOPE   H3S12560   0.840   1.316   6.133 -0.4246 -0.9923 -0.1540
  119SOPE   C2412561   0.980   1.263   5.987  0.6304  0.1998  0.5393
  119SOPE   H4R12562   1.090   1.256   5.974  0.8530  2.2908  0.9787
  119SOPE   H4S12563   0.927   1.166   5.973 -0.1674  0.5924  0.8294
  119SOPE   C2512564   0.935   1.369   5.885  0.2883 -0.1330  0.4708
  119SOPE   H5R12565   0.827   1.388   5.900  0.0673 -2.4310  2.4993
  119SOPE   H5S12566   0.989   1.459   5.920  0.8461 -0.9947  1.9400
  119SOPE   C2612567   0.967   1.332   5.742  0.4430  0.2673  0.1894
  119SOPE   H6R12568   0.952   1.419   5.675 -0.4840  0.2864  0.4039
  119SOPE   H6S12569   1.074   1.308   5.727  0.9064  2.4813 -0.3110
  119SOPE   C2712570   0.876   1.208   5.697 -0.1419 -0.1406 -0.4444
  119SOPE   H7R12571   0.927   1.127   5.753 -2.1196 -0.3899  1.1421
  119SOPE   H7S12572   0.780   1.227   5.750  0.5871 -2.4950  1.9183
  119SOPE   C2812573   0.876   1.198   5.541  0.0699 -0.0850  0.4280
  119SOPE   H8R12574   0.797   1.125   5.515  2.5059 -2.4551 -0.8590
  119SOPE   H8S12575   0.862   1.300   5.500  2.5126  0.3629  0.5113
  119SOPE   C2912576   1.002   1.143   5.479  0.3849  0.1292  0.0365
  119SOPE   H9112577   1.021   1.038   5.507 -1.0055  0.3630  2.0687
  119SOPE  C21012578   1.077   1.205   5.382  0.9877  0.1576  1.0511
  119SOPE  H10112579   1.161   1.146   5.341  1.6133  1.7308  0.0074
  119SOPE  C21112580   1.053   1.339   5.316  1.1291 -0.2925  0.2439
  119SOPE  H11R12581   1.148   1.393   5.294  1.8932 -0.4067  2.8229
  119SOPE  H11S12582   0.983   1.409   5.367 -0.8266 -1.3764 -0.8319
  119SOPE  C21212583   0.982   1.297   5.185 -0.0865 -0.0585  0.2461
  119SOPE  H12R12584   0.898   1.226   5.201 -1.7223  1.7851  0.2802
  119SOPE  H12S12585   1.052   1.237   5.123 -0.7900 -1.0189  0.3672
  119SOPE  C21312586   0.938   1.420   5.109  0.1004  0.1231  0.5625
  119SOPE  H13R12587   1.014   1.501   5.101  1.1162 -0.4818  3.0607
  119SOPE  H13S12588   0.852   1.458   5.169 -1.8678 -0.1014 -1.9385
  119SOPE  C21412589   0.904   1.370   4.966 -0.9109  0.6035  0.1098
  119SOPE  H14R12590   0.836   1.446   4.921 -2.8068 -1.4078 -0.5808
  119SOPE  H14S12591   0.851   1.273   4.961 -0.4872  0.4177 -1.2689
  119SOPE  C21512592   1.023   1.358   4.867  0.6685 -0.4789 -0.6493
  119SOPE  H15R12593   1.094   1.285   4.910  1.7986  1.2210  0.5061
  119SOPE  H15S12594   1.073   1.457   4.857 -0.5812  0.2301 -0.0751
  119SOPE  C21612595   0.970   1.328   4.723  0.6182  0.3288 -0.1017
  119SOPE  H16R12596   0.926   1.422   4.685 -2.5333  0.6174  3.6470
  119SOPE  H16S12597   0.890   1.251   4.732 -1.2701  2.3615  1.5257
  119SOPE  C21712598   1.086   1.286   4.637 -0.8768  0.4294 -0.1318
  119SOPE  H17R12599   1.153   1.208   4.678 -0.0265  0.5684 -1.2126
  119SOPE  H17S12600   1.149   1.375   4.618 -1.2000  0.6142 -0.3605
  119SOPE  C21812601   1.047   1.223   4.503 -0.2164  0.1405  0.2936
  119SOPE  H18R12602   0.962   1.280   4.459 -0.8173 -1.3061 -0.4822
  119SOPE  H18S12603   1.008   1.119   4.505  0.4197 -0.0979  1.2905
  119SOPE  H18T12604   1.132   1.229   4.433 -1.6866  1.8566 -1.4876
  119SOPE   C3312605   1.407   0.966   5.684 -0.3322  0.6736  0.0776
  119SOPE   H3X12606   1.389   0.862   5.650  1.5262 -0.1293  1.4066
  119SOPE   H3Y12607   1.513   0.966   5.715  0.8369 -1.2842 -3.3245
  119SOPE   C3412608   1.387   1.058   5.561 -0.7668  0.5015 -0.1661
  119SOPE   H4X12609   1.409   1.163   5.591 -1.7316  1.5488 -2.8068
  119SOPE   H4Y12610   1.281   1.047   5.531 -0.9768 -1.3596  1.1374
  119SOPE   C3512611   1.477   1.013   5.440  0.7185 -0.7146  0.1530
  119SOPE   H5X12612   1.483   0.903   5.428  0.4608 -0.7049 -0.0539
  119SOPE   H5Y12613   1.582   1.048   5.454  0.9965 -1.4159 -0.1144
  119SOPE   C3612614   1.431   1.081   5.308 -0.0320  0.0657 -0.4847
  119SOPE   H6X12615   1.328   1.059   5.271 -0.4202 -1.8390  1.5227
  119SOPE   H6Y12616   1.508   1.048   5.236 -2.3141 -2.1346 -2.1244
  119SOPE   C3712617   1.436   1.237   5.320  0.3577 -0.5595 -0.6130
  119SOPE   H7X12618   1.544   1.252   5.338  0.6832 -2.8309 -0.3504
  119SOPE   H7Y12619   1.372   1.294   5.391  0.2460 -1.5386  0.0849
  119SOPE   C3812620   1.407   1.296   5.184 -0.0027 -0.2497 -0.4790
  119SOPE   H8X12621   1.297   1.309   5.178 -0.1512 -0.1631  1.6852
  119SOPE   H8Y12622   1.447   1.220   5.113 -0.1411 -0.7323 -0.0504
  119SOPE   C3912623   1.458   1.439   5.136  0.1519  0.3903 -0.7278
  119SOPE   H9X12624   1.569   1.437   5.135  0.1825  0.3653  0.7209
  119SOPE   H9Y12625   1.412   1.500   5.216  3.0767 -1.3372  2.5372
  119SOPE  C31012626   1.404   1.458   4.990 -0.3894 -1.1677 -0.0002
  119SOPE  H10X12627   1.294   1.446   4.997 -0.4719  0.1310  1.6450
  119SOPE  H10Y12628   1.438   1.383   4.916 -0.1118 -1.2214  0.1793
  119SOPE  C31112629   1.438   1.603   4.933 -0.4473  0.3481  0.2089
  119SOPE  H11X12630   1.542   1.610   4.896 -0.3574 -0.5970  0.2478
  119SOPE  H11Y12631   1.435   1.693   4.998  0.1476  0.1191  0.5653
  119SOPE  C31212632   1.338   1.625   4.808 -0.0170  0.6285 -0.6394
  119SOPE  H12X12633   1.240   1.665   4.842  0.8806  1.0220  1.7297
  119SOPE  H12Y12634   1.324   1.524   4.764 -0.3121  0.7018 -0.7139
  119SOPE  C31312635   1.386   1.715   4.695  0.1165 -0.0853 -0.6304
  119SOPE  H13X12636   1.475   1.667   4.650 -0.0335  0.9163 -2.0782
  119SOPE  H13Y12637   1.425   1.811   4.737  0.4831 -0.3152 -0.4454
  119SOPE  C31412638   1.278   1.746   4.590 -0.1640 -0.0312 -0.3168
  119SOPE  H14X12639   1.197   1.803   4.641  1.8099  3.0829 -0.4491
  119SOPE  H14Y12640   1.235   1.648   4.559  0.8843 -0.9783  1.0809
  119SOPE  C31512641   1.336   1.828   4.475  0.0265  0.1912  0.3364
  119SOPE  H15X12642   1.411   1.763   4.425  0.3754  1.1020 -0.3457
  119SOPE  H15Y12643   1.373   1.919   4.526 -2.3336  0.8363  1.0353
  119SOPE  C31612644   1.224   1.851   4.374 -0.6262  0.2368 -0.0610
  119SOPE  H16X12645   1.138   1.905   4.420  0.2358 -0.0469  2.0078
  119SOPE  H16Y12646   1.186   1.753   4.338 -0.5961 -0.2426  1.1595
  119SOPE  C31712647   1.280   1.932   4.257 -0.4262  0.5779  0.0266
  119SOPE  H17X12648   1.367   1.870   4.226 -3.0222 -3.5371  0.2583
  119SOPE  H17Y12649   1.314   2.034   4.283  3.3821 -0.5026 -0.0702
  119SOPE  C31812650   1.177   1.951   4.142 -0.0188  0.6661 -0.4826
  119SOPE  H18X12651   1.090   2.003   4.187 -1.0297  0.3993 -2.0306
  119SOPE  H18Y12652   1.143   1.860   4.088  3.4447 -0.2226 -1.4321
  119SOPE  H18Z12653   1.219   2.018   4.063 -0.8991  0.0046 -1.5325
  120SOPE     N12654   3.044   4.553   6.829  0.2054  0.4438 -0.1519
  120SOPE   HN112655   3.113   4.562   6.907 -1.3631  1.0920  1.2259
  120SOPE   HN212656   2.945   4.564   6.857 -0.0269 -1.9408  0.1181
  120SOPE   HN312657   3.053   4.456   6.795  3.6264  0.5938  0.0088
  120SOPE   C1212658   3.075   4.655   6.726  0.0991 -0.1584  0.4162
  120SOPE  H12A12659   3.165   4.622   6.670  0.6633 -0.4229  1.4570
  120SOPE  H12B12660   3.082   4.756   6.770  1.5479  0.6037 -1.4167
  120SOPE   C1112661   2.960   4.650   6.621 -0.1661  0.2863 -0.2408
  120SOPE  H11A12662   2.943   4.543   6.595 -0.5744  0.6199 -1.4337
  120SOPE  H11B12663   2.991   4.693   6.523  0.3098  1.4518  0.4095
  120SOPE     P12664   2.727   4.736   6.560 -0.0442 -0.2617  0.4280
  120SOPE   O1312665   2.786   4.847   6.481 -0.6359  0.1521  0.1047
  120SOPE   O1412666   2.606   4.773   6.641 -0.0071 -0.2375 -0.1803
  120SOPE   O1212667   2.836   4.705   6.664  0.1258  0.3831 -0.5854
  120SOPE   O1112668   2.712   4.599   6.484  0.1757  0.5645  0.8012
  120SOPE    C112669   2.619   4.509   6.540  0.5336 -0.2099 -0.2350
  120SOPE    HA12670   2.521   4.561   6.532  1.4496  1.5921 -0.3226
  120SOPE    HB12671   2.642   4.486   6.646  3.0851 -1.6394 -1.0337
  120SOPE    C212672   2.598   4.379   6.452  0.0753 -0.6923 -0.1032
  120SOPE    HS12673   2.697   4.332   6.434 -0.2307 -2.2200  1.8908
  120SOPE   O2112674   2.513   4.416   6.338  0.2189 -0.7540  0.3384
  120SOPE   C2112675   2.565   4.384   6.225 -0.0209  0.3793  0.8647
  120SOPE   O2212676   2.671   4.334   6.202  0.4451 -0.1334  0.8571
  120SOPE   C2212677   2.460   4.410   6.117  0.7261 -0.1044 -0.5376
  120SOPE   H2R12678   2.392   4.491   6.151 -0.3527 -1.1586 -0.0792
  120SOPE   H2S12679   2.395   4.319   6.119  0.5894 -0.0056  0.9673
  120SOPE    C312680   2.503   4.285   6.532 -0.4789  0.1219  0.3011
  120SOPE    HX12681   2.415   4.347   6.558  1.0002  0.5743  5.1300
  120SOPE    HY12682   2.531   4.254   6.635  0.0192  0.6865  0.3429
  120SOPE   O3112683   2.459   4.174   6.445  0.2495 -0.0427 -0.5436
  120SOPE   C3112684   2.484   4.057   6.484 -0.2340  0.1628 -0.2593
  120SOPE   O3212685   2.547   4.013   6.578 -0.3186  0.0415 -0.3143
  120SOPE   C3212686   2.428   3.960   6.372  0.2390 -0.0059  0.1602
  120SOPE   H2X12687   2.324   3.936   6.401  0.0653  2.0842  1.4967
  120SOPE   H2Y12688   2.493   3.870   6.378 -0.3036 -0.3364  1.3942
  120SOPE   C2312689   2.526   4.437   5.978  0.3116 -0.1896 -0.0016
  120SOPE   H3R12690   2.592   4.351   5.952  0.5923 -0.4655  1.5187
  120SOPE   H3S12691   2.599   4.520   5.991  0.5122 -0.5433  1.1851
  120SOPE   C2412692   2.429   4.470   5.862  0.0979 -0.6359 -0.0138
  120SOPE   H4R12693   2.363   4.382   5.849 -1.3602  0.2539  1.1772
  120SOPE   H4S12694   2.378   4.568   5.876  2.4582  0.6970 -0.1541
  120SOPE   C2512695   2.516   4.496   5.742  0.3770  0.7478  0.3596
  120SOPE   H5R12696   2.600   4.568   5.751  0.0860  1.9534 -4.1451
  120SOPE   H5S12697   2.556   4.399   5.705 -1.5941  0.5463 -1.4464
  120SOPE   C2612698   2.429   4.529   5.620  0.0264  0.4990  0.4263
  120SOPE   H6R12699   2.346   4.455   5.612  0.4983  0.0512 -0.4717
  120SOPE   H6S12700   2.387   4.631   5.632 -0.8275  0.0278  1.6792
  120SOPE   C2712701   2.497   4.539   5.487  0.7274  0.4295 -0.2549
  120SOPE   H7R12702   2.588   4.600   5.507  2.3712 -1.3505 -1.8041
  120SOPE   H7S12703   2.537   4.443   5.445  0.7617  0.5994 -0.6122
  120SOPE   C2812704   2.409   4.605   5.379  0.4522  1.2888  0.0128
  120SOPE   H8R12705   2.371   4.698   5.426  3.5912  1.7361  1.9462
  120SOPE   H8S12706   2.475   4.643   5.298 -0.3297  0.6064 -0.9650
  120SOPE   C2912707   2.294   4.524   5.333  0.4616  0.5438  0.2098
  120SOPE   H9112708   2.206   4.531   5.399 -0.1777 -0.7876 -0.4592
  120SOPE  C21012709   2.295   4.463   5.217 -0.1082 -0.1466 -0.2404
  120SOPE  H10112710   2.208   4.399   5.199  0.4490 -0.5798 -1.4315
  120SOPE  C21112711   2.407   4.454   5.112  0.0382  0.3707  0.1656
  120SOPE  H11R12712   2.454   4.355   5.097  1.3442  1.0526 -0.3840
  120SOPE  H11S12713   2.505   4.498   5.141  2.2292 -3.3224 -0.9696
  120SOPE  C21212714   2.363   4.518   4.977 -0.3978 -0.6198 -0.2322
  120SOPE  H12R12715   2.319   4.620   4.981  1.1550  0.0541  0.3001
  120SOPE  H12S12716   2.295   4.437   4.943 -1.2396 -0.3961  0.8395
  120SOPE  C21312717   2.481   4.540   4.876  1.2096  0.6158 -0.1060
  120SOPE  H13R12718   2.533   4.443   4.863 -1.1723 -0.6352 -0.6971
  120SOPE  H13S12719   2.563   4.614   4.896  0.5626  1.2690  0.1764
  120SOPE  C21412720   2.423   4.570   4.736 -0.3740 -0.0284  0.5075
  120SOPE  H14R12721   2.377   4.670   4.750 -1.1688 -0.5981  2.3079
  120SOPE  H14S12722   2.342   4.497   4.714 -0.4582  0.4906 -0.9634
  120SOPE  C21512723   2.526   4.568   4.626  0.0956 -0.1521  0.4912
  120SOPE  H15R12724   2.556   4.462   4.607 -2.1184 -1.1408  2.0682
  120SOPE  H15S12725   2.614   4.625   4.663 -1.5536  0.8310  3.1783
  120SOPE  C21612726   2.463   4.619   4.491 -0.1302  0.3544 -0.4687
  120SOPE  H16R12727   2.364   4.569   4.485 -1.0831  2.2846 -1.7717
  120SOPE  H16S12728   2.530   4.578   4.412  1.7072  1.1877  0.5773
  120SOPE  C21712729   2.475   4.774   4.481 -0.1546  0.3443 -0.1887
  120SOPE  H17R12730   2.583   4.800   4.490  0.7184 -2.5472 -1.1427
  120SOPE  H17S12731   2.417   4.817   4.566 -1.1400  1.5085 -1.4077
  120SOPE  C21812732   2.425   4.816   4.343  0.0343  0.9039 -0.5305
  120SOPE  H18R12733   2.473   4.752   4.267 -1.3427 -0.6484 -0.1693
  120SOPE  H18S12734   2.456   4.921   4.325 -0.1964  1.0218 -0.2429
  120SOPE  H18T12735   2.315   4.799   4.340  0.0567 -0.4772  2.6224
  120SOPE   C3312736   2.437   4.010   6.228  0.6666 -0.0806  0.4484
  120SOPE   H3X12737   2.525   4.077   6.224 -0.1207  0.9418 -0.2326
  120SOPE   H3Y12738   2.350   4.077   6.212  0.4085 -0.6306 -0.5683
  120SOPE   C3412739   2.443   3.910   6.118  0.1374 -0.0985  0.5349
  120SOPE   H4X12740   2.344   3.883   6.077 -0.6967 -0.6976  2.8037
  120SOPE   H4Y12741   2.493   3.818   6.156  1.9191  0.4087 -0.4628
  120SOPE   C3512742   2.532   3.960   6.005 -0.1640 -0.3576  0.4516
  120SOPE   H5X12743   2.575   3.867   5.963  0.4013 -0.8381  2.0232
  120SOPE   H5Y12744   2.620   4.018   6.040 -1.6691  0.6056  2.8608
  120SOPE   C3612745   2.462   4.043   5.896  0.4253  0.2398  0.2000
  120SOPE   H6X12746   2.410   4.128   5.946  1.1926 -0.0589  1.5381
  120SOPE   H6Y12747   2.372   3.990   5.857  0.1423  1.5213 -0.9684
  120SOPE   C3712748   2.535   4.088   5.769 -0.3030  0.3486  0.1493
  120SOPE   H7X12749   2.611   4.011   5.745 -1.1479 -0.5023  0.1573
  120SOPE   H7Y12750   2.591   4.177   5.804  2.8947 -1.0779 -0.9267
  120SOPE   C3812751   2.457   4.126   5.646 -0.5206 -0.4154 -0.3209
  120SOPE   H8X12752   2.525   4.166   5.567  1.9744 -1.0155  1.3835
  120SOPE   H8Y12753   2.394   4.214   5.672  0.7334  0.4205 -0.0056
  120SOPE   C3912754   2.356   4.028   5.593  0.6594  0.3277  0.1045
  120SOPE   H9X12755   2.288   3.994   5.674  1.3761 -0.0221  0.5760
  120SOPE   H9Y12756   2.413   3.939   5.557  0.1299 -0.0398  0.1630
  120SOPE  C31012757   2.268   4.081   5.477 -0.5596 -0.1177 -0.5467
  120SOPE  H10X12758   2.205   4.163   5.517 -0.4364 -0.7483  1.0048
  120SOPE  H10Y12759   2.199   4.000   5.445 -0.3569 -0.3177 -0.4777
  120SOPE  C31112760   2.345   4.134   5.352 -0.1176 -0.7216  1.1605
  120SOPE  H11X12761   2.415   4.214   5.386  1.3917 -2.6950  2.9955
  120SOPE  H11Y12762   2.266   4.173   5.284  0.5392 -0.2966  0.6225
  120SOPE  C31212763   2.410   4.023   5.266  0.3805 -0.1856 -0.4718
  120SOPE  H12X12764   2.458   3.950   5.334  0.5467  0.4962  0.1530
  120SOPE  H12Y12765   2.491   4.079   5.215  0.1291 -0.6416 -1.4067
  120SOPE  C31312766   2.334   3.945   5.162 -0.3879  0.4926 -0.3879
  120SOPE  H13X12767   2.239   3.906   5.205  1.3140 -1.2032  2.0604
  120SOPE  H13Y12768   2.387   3.859   5.116  0.0926  1.1983 -1.1789
  120SOPE  C31412769   2.294   4.033   5.046  0.2338 -0.3018 -0.1621
  120SOPE  H14X12770   2.385   4.061   4.989  1.0205 -0.4563  0.9748
  120SOPE  H14Y12771   2.251   4.128   5.083  0.6527 -0.8092  1.7271
  120SOPE  C31512772   2.199   3.959   4.947 -0.9483 -0.6972 -0.3189
  120SOPE  H15X12773   2.095   3.962   4.986 -0.8790  1.9525 -0.1343
  120SOPE  H15Y12774   2.242   3.857   4.952 -0.6034 -0.5981 -1.2125
  120SOPE  C31612775   2.208   4.031   4.816  0.1845  0.2862 -0.1554
  120SOPE  H16X12776   2.215   4.139   4.841 -2.6269  0.2031  1.4036
  120SOPE  H16Y12777   2.107   4.027   4.769 -0.0039 -0.9558  0.3191
  120SOPE  C31712778   2.306   3.959   4.718  0.5729 -0.0887 -0.3193
  120SOPE  H17X12779   2.272   3.853   4.713 -1.5394  0.4492  1.1246
  120SOPE  H17Y12780   2.402   3.949   4.773 -0.9406 -2.0081  2.2427
  120SOPE  C31812781   2.330   4.034   4.588  0.3195  0.3395  0.4617
  120SOPE  H18X12782   2.406   4.115   4.596  2.1698 -1.4408  2.1821
  120SOPE  H18Y12783   2.232   4.072   4.553  0.9294  0.5425 -1.1146
  120SOPE  H18Z12784   2.368   3.955   4.519 -1.7480 -2.2438  2.1043
  121SOPE     N12785   1.024   2.036   6.937 -0.7064 -0.4082  0.2717
  121SOPE   HN112786   1.056   2.024   6.839 -0.0234 -2.4595  0.6831
  121SOPE   HN212787   0.921   2.052   6.940 -0.9037 -1.1077 -1.4844
  121SOPE   HN312788   1.072   2.116   6.982  1.8114 -1.0811 -1.0416
  121SOPE   C1212789   1.068   1.905   6.996  0.3434  0.0205  0.3933
  121SOPE  H12A12790   1.077   1.913   7.106 -0.4189 -1.6290  0.6026
  121SOPE  H12B12791   1.165   1.869   6.955 -0.5277 -0.8222 -0.9989
  121SOPE   C1112792   0.971   1.790   6.966 -0.4040  0.0080 -0.2487
  121SOPE  H11A12793   0.867   1.794   7.004  0.2702 -0.9522  1.7962
  121SOPE  H11B12794   1.009   1.702   7.022 -0.6141 -0.6676 -1.1447
  121SOPE     P12795   0.986   1.640   6.744  0.0225 -0.2923  0.2084
  121SOPE   O1312796   0.883   1.546   6.778  0.0708  0.1051 -0.1101
  121SOPE   O1412797   1.127   1.608   6.771 -0.7934  0.2478  0.0996
  121SOPE   O1212798   0.957   1.771   6.821 -0.2185 -0.2490 -0.3391
  121SOPE   O1112799   0.972   1.686   6.592  0.4706  0.5271 -0.5687
  121SOPE    C112800   0.911   1.811   6.562  0.5418  0.1940  0.3845
  121SOPE    HA12801   0.978   1.894   6.593 -0.1387  1.1869 -0.6980
  121SOPE    HB12802   0.815   1.833   6.614  0.8851  0.1703  1.0405
  121SOPE    C212803   0.897   1.824   6.412  0.1421  0.0039  0.3570
  121SOPE    HS12804   0.842   1.919   6.400 -0.0828 -0.2869 -1.1655
  121SOPE   O2112805   0.830   1.717   6.343 -0.2136 -0.2544 -0.0198
  121SOPE   C2112806   0.700   1.713   6.378 -0.6794 -0.4144  0.2351
  121SOPE   O2212807   0.640   1.788   6.453  0.0523 -0.5047  0.4962
  121SOPE   C2212808   0.625   1.604   6.289 -0.1205 -0.6985 -0.4096
  121SOPE   H2R12809   0.517   1.628   6.282  0.1198  0.4207 -0.4210
  121SOPE   H2S12810   0.628   1.514   6.354  0.3594 -1.4703 -1.4730
  121SOPE    C312811   1.031   1.840   6.337 -0.4255  0.2239  0.7456
  121SOPE    HX12812   1.102   1.757   6.354 -0.2298  0.7343  2.5635
  121SOPE    HY12813   1.083   1.920   6.394  1.1356  0.2094 -0.5946
  121SOPE   O3112814   1.020   1.881   6.199 -0.0909  0.2550  0.2604
  121SOPE   C3112815   1.029   1.782   6.108  0.0094 -0.2512 -0.1778
  121SOPE   O3212816   1.044   1.664   6.138 -0.0412 -0.5985  0.2196
  121SOPE   C3212817   1.042   1.844   5.966  0.0690 -0.7300 -0.4025
  121SOPE   H2X12818   1.130   1.913   5.973 -0.0092 -0.7170  0.7304
  121SOPE   H2Y12819   0.958   1.916   5.962 -1.3407 -2.3032 -0.0021
  121SOPE   C2312820   0.697   1.583   6.156  0.2232  0.2245 -0.4341
  121SOPE   H3R12821   0.660   1.488   6.111  3.5006 -1.7388  0.6444
  121SOPE   H3S12822   0.806   1.566   6.166  0.2381  0.1204 -0.7405
  121SOPE   C2412823   0.676   1.692   6.046  0.4153  0.1422  0.1026
  121SOPE   H4R12824   0.691   1.793   6.090 -2.5450  0.4059  0.6988
  121SOPE   H4S12825   0.757   1.675   5.972  1.2160 -0.2807  1.0484
  121SOPE   C2512826   0.540   1.687   5.973  0.8197 -0.3624 -0.2392
  121SOPE   H5R12827   0.500   1.583   5.978 -1.3878  0.1229 -3.9163
  121SOPE   H5S12828   0.472   1.758   6.023  0.4674 -0.1330 -1.0303
  121SOPE   C2612829   0.534   1.733   5.828 -0.3187  0.0151 -0.3482
  121SOPE   H6R12830   0.431   1.764   5.800 -0.4542  0.5976  0.7213
  121SOPE   H6S12831   0.594   1.825   5.817  0.8516 -0.7620 -0.6485
  121SOPE   C2712832   0.597   1.632   5.731 -0.0122  0.1245  0.4435
  121SOPE   H7R12833   0.707   1.636   5.717 -0.1642  0.3095 -0.8090
  121SOPE   H7S12834   0.568   1.532   5.772  0.5726  0.9870  3.1887
  121SOPE   C2812835   0.550   1.651   5.584  0.3421  0.1607 -0.6639
  121SOPE   H8R12836   0.440   1.657   5.592  0.3743 -0.9767  1.0303
  121SOPE   H8S12837   0.596   1.741   5.538  0.4566 -0.2885 -1.4536
  121SOPE   C2912838   0.583   1.518   5.514  0.5604  0.2066  0.3850
  121SOPE   H9112839   0.599   1.425   5.569 -1.0311  0.0248  0.6004
  121SOPE  C21012840   0.593   1.513   5.376 -0.3971 -0.1440  0.2286
  121SOPE  H10112841   0.610   1.417   5.324 -5.4903 -1.2204  0.0303
  121SOPE  C21112842   0.568   1.621   5.280 -0.2364  0.5159  0.3448
  121SOPE  H11R12843   0.663   1.651   5.231 -0.5398 -0.3161 -0.7699
  121SOPE  H11S12844   0.516   1.710   5.324  0.0620 -0.0610  1.9401
  121SOPE  C21212845   0.478   1.561   5.168  0.4807  0.7297 -0.4925
  121SOPE  H12R12846   0.422   1.646   5.122 -1.9593  1.0163  2.6277
  121SOPE  H12S12847   0.387   1.512   5.210  0.7781  0.9078  0.3937
  121SOPE  C21312848   0.545   1.482   5.060  0.8165 -0.1886  0.7869
  121SOPE  H13R12849   0.545   1.378   5.101  0.9583  0.4119  2.3798
  121SOPE  H13S12850   0.650   1.512   5.039  0.6110 -0.8367 -1.3948
  121SOPE  C21412851   0.453   1.476   4.932  0.9780 -0.1499 -0.6835
  121SOPE  H14R12852   0.446   1.569   4.872 -1.1481 -0.4298 -0.9503
  121SOPE  H14S12853   0.357   1.443   4.977  1.7570  1.1231  2.1733
  121SOPE  C21512854   0.483   1.367   4.837  0.3947 -0.4674 -0.4076
  121SOPE  H15R12855   0.460   1.265   4.874  1.2190 -1.3814 -2.3138
  121SOPE  H15S12856   0.591   1.369   4.809 -0.4555  0.3943 -4.1570
  121SOPE  C21612857   0.411   1.382   4.700  0.1640  0.2061 -0.5616
  121SOPE  H16R12858   0.452   1.478   4.661 -2.1315  1.6185  0.3249
  121SOPE  H16S12859   0.301   1.389   4.711 -0.0679 -1.3433 -1.6209
  121SOPE  C21712860   0.441   1.271   4.594  0.0795  0.0800 -0.8911
  121SOPE  H17R12861   0.390   1.282   4.495 -0.0762 -0.7015 -0.8991
  121SOPE  H17S12862   0.393   1.188   4.649 -2.0367  0.8116 -1.5278
  121SOPE  C21812863   0.587   1.246   4.574  0.1127 -0.6010  0.0920
  121SOPE  H18R12864   0.637   1.345   4.563 -0.0953 -0.5915 -0.7848
  121SOPE  H18S12865   0.599   1.180   4.486 -0.0701  0.9059 -1.1133
  121SOPE  H18T12866   0.634   1.201   4.665  1.2887  1.9314  0.8452
  121SOPE   C3312867   1.027   1.747   5.848 -0.6733 -0.0246  0.8498
  121SOPE   H3X12868   0.933   1.687   5.849 -1.8820  1.7909  1.5937
  121SOPE   H3Y12869   1.108   1.671   5.854  0.0770  0.7050  0.3131
  121SOPE   C3412870   1.039   1.824   5.713 -1.0449  0.5802 -0.7886
  121SOPE   H4X12871   1.145   1.855   5.698 -0.2474 -1.8785 -0.6748
  121SOPE   H4Y12872   0.965   1.905   5.729 -0.2295  0.8203  2.4460
  121SOPE   C3512873   0.996   1.735   5.599  0.2127  0.0300  0.1697
  121SOPE   H5X12874   0.890   1.705   5.614 -0.8017  0.7582 -4.2276
  121SOPE   H5Y12875   1.065   1.648   5.591 -1.3428 -1.1457 -1.2541
  121SOPE   C3612876   1.004   1.805   5.465 -0.6812 -0.4201  0.5257
  121SOPE   H6X12877   1.106   1.836   5.434 -1.3759  0.6330 -0.8358
  121SOPE   H6Y12878   0.937   1.893   5.477 -0.8415 -0.5144  0.3358
  121SOPE   C3712879   0.942   1.722   5.352 -0.8678 -0.1468 -0.4546
  121SOPE   H7X12880   0.847   1.682   5.393 -1.0903  1.3189  0.5353
  121SOPE   H7Y12881   1.008   1.636   5.330  0.9897  0.8157  1.0395
  121SOPE   C3812882   0.915   1.797   5.217  0.0830  0.4364 -0.2865
  121SOPE   H8X12883   0.879   1.900   5.239 -2.2950  0.1113 -2.1723
  121SOPE   H8Y12884   0.831   1.751   5.159  0.7439  0.0211 -0.9305
  121SOPE   C3912885   1.036   1.801   5.125  0.2436 -0.1376 -0.0665
  121SOPE   H9X12886   1.060   1.702   5.080  0.8764 -0.1693  0.3177
  121SOPE   H9Y12887   1.131   1.822   5.179  0.3752  1.2028 -0.7876
  121SOPE  C31012888   1.007   1.913   5.020 -0.1474 -0.8972 -0.2151
  121SOPE  H10X12889   0.991   2.001   5.085 -1.9351 -0.7128 -0.8562
  121SOPE  H10Y12890   0.912   1.897   4.965 -0.5413 -0.5457  0.3645
  121SOPE  C31112891   1.120   1.912   4.915  0.2253 -0.4913  0.3139
  121SOPE  H11X12892   1.098   1.830   4.843  1.1699 -1.1288  0.7233
  121SOPE  H11Y12893   1.216   1.892   4.967  1.0493 -1.2046 -1.4104
  121SOPE  C31212894   1.131   2.046   4.855  0.3474  0.0394  0.6033
  121SOPE  H12X12895   1.108   2.123   4.931 -0.1224 -0.5466  1.0605
  121SOPE  H12Y12896   1.049   2.057   4.781 -0.2373  1.2063  1.4059
  121SOPE  C31312897   1.273   2.074   4.810 -0.0149  0.2825  0.3972
  121SOPE  H13X12898   1.303   1.986   4.749 -0.5861 -0.1127  0.6706
  121SOPE  H13Y12899   1.341   2.077   4.898 -1.3270 -1.4588  1.5417
  121SOPE  C31412900   1.292   2.204   4.729  0.2749  0.9515 -0.4780
  121SOPE  H14X12901   1.275   2.292   4.794  2.1215 -0.2402  1.7797
  121SOPE  H14Y12902   1.213   2.208   4.650 -0.9461 -1.3552  0.5454
  121SOPE  C31512903   1.438   2.208   4.676 -0.4687  0.1194 -0.1176
  121SOPE  H15X12904   1.477   2.110   4.639  1.9036  0.0905  2.1505
  121SOPE  H15Y12905   1.495   2.262   4.754 -1.2383  0.6655  0.0693
  121SOPE  C31612906   1.460   2.305   4.557 -0.2019 -0.2858 -0.1908
  121SOPE  H16X12907   1.566   2.333   4.538 -0.7046  0.9655 -1.2938
  121SOPE  H16Y12908   1.401   2.396   4.580 -1.4113 -1.1907  0.3737
  121SOPE  C31712909   1.413   2.254   4.425  0.1315 -0.4282 -0.2419
  121SOPE  H17X12910   1.304   2.237   4.444  0.3784 -0.7675  0.9318
  121SOPE  H17Y12911   1.450   2.152   4.401 -1.0947 -0.3699 -2.7843
  121SOPE  C31812912   1.454   2.340   4.304  0.6762  0.3910  0.2337
  121SOPE  H18X12913   1.381   2.425   4.301 -0.7347 -0.8034 -1.3883
  121SOPE  H18Y12914   1.428   2.283   4.213  3.0292  0.2922 -0.4404
  121SOPE  H18Z12915   1.561   2.365   4.314  0.5619  0.3691  1.7027
  122SOPE     N12916   2.156   4.150   6.922 -0.3390  0.0577  0.4937
  122SOPE   HN112917   2.153   4.058   6.970 -0.3030 -0.2401 -0.0672
  122SOPE   HN212918   2.202   4.217   6.986  0.4743 -0.3026  0.3036
  122SOPE   HN312919   2.059   4.185   6.907  0.2394  0.9150 -1.5569
  122SOPE   C1212920   2.226   4.141   6.792 -0.4405  0.0261 -0.2429
  122SOPE  H12A12921   2.214   4.035   6.760 -0.3347  0.1854 -0.8126
  122SOPE  H12B12922   2.333   4.156   6.819  0.0223 -1.9090 -0.8168
  122SOPE   C1112923   2.170   4.250   6.698  0.3928 -0.7248  0.0175
  122SOPE  H11A12924   2.064   4.220   6.688  0.4274 -0.6045 -0.8377
  122SOPE  H11B12925   2.232   4.238   6.606  2.3851 -1.2274  1.3461
  122SOPE     P12926   2.150   4.512   6.674 -0.1177 -0.0041 -0.2215
  122SOPE   O1312927   2.261   4.607   6.690  0.4762 -0.2709  0.9902
  122SOPE   O1412928   2.015   4.558   6.704  0.6778  0.3969 -0.3451
  122SOPE   O1212929   2.182   4.378   6.755  0.4496 -0.2177  0.2810
  122SOPE   O1112930   2.145   4.456   6.529  0.1472  0.3898 -1.0879
  122SOPE    C112931   2.222   4.519   6.426 -0.0919  0.4814  0.2414
  122SOPE    HA12932   2.257   4.443   6.354 -0.8312  2.3303 -2.2181
  122SOPE    HB12933   2.315   4.567   6.465 -1.7292  2.1660  2.3635
  122SOPE    C212934   2.130   4.628   6.354 -0.5653  0.3672 -0.0652
  122SOPE    HS12935   2.117   4.709   6.429  3.3220  1.8219 -0.7521
  122SOPE   O2112936   1.998   4.565   6.322 -0.6627 -0.2039 -0.1397
  122SOPE   C2112937   1.897   4.648   6.303  0.1603 -0.2064  0.1938
  122SOPE   O2212938   1.898   4.771   6.308  0.5584  0.1821  0.2767
  122SOPE   C2212939   1.778   4.562   6.275  0.2594  0.2916  0.3594
  122SOPE   H2R12940   1.692   4.633   6.279  0.7894  0.9240  3.8412
  122SOPE   H2S12941   1.753   4.496   6.360 -0.1309  0.3630  0.3039
  122SOPE    C312942   2.204   4.688   6.227  0.3587  0.0654 -0.0066
  122SOPE    HX12943   2.141   4.765   6.180  2.5603  2.4563  0.7173
  122SOPE    HY12944   2.213   4.613   6.145  1.6798 -0.7565  0.8504
  122SOPE   O3112945   2.336   4.751   6.260 -0.1492 -0.1858 -0.3930
  122SOPE   C3112946   2.391   4.803   6.154  0.5485 -0.6209  0.6803
  122SOPE   O3212947   2.344   4.785   6.042 -0.7021 -0.0468 -0.0917
  122SOPE   C3212948   2.512   4.890   6.189 -0.9904  0.2777  0.3113
  122SOPE   H2X12949   2.509   4.913   6.298 -1.4339 -0.1204  0.3835
  122SOPE   H2Y12950   2.511   4.990   6.139  1.1087  0.4069  0.4220
  122SOPE   C2312951   1.791   4.469   6.160 -0.2822  0.0823  0.0453
  122SOPE   H3R12952   1.887   4.414   6.172  0.9177  1.5123 -2.2942
  122SOPE   H3S12953   1.784   4.530   6.068  0.7295 -1.5313 -1.1630
  122SOPE   C2412954   1.672   4.370   6.140  0.3856  0.1944  0.6227
  122SOPE   H4R12955   1.683   4.329   6.038 -0.3690  0.5799  0.3765
  122SOPE   H4S12956   1.673   4.293   6.220 -0.0569 -0.7067 -0.2221
  122SOPE   C2512957   1.535   4.447   6.161  0.0123  0.2851  0.2039
  122SOPE   H5R12958   1.544   4.485   6.265  0.2076 -1.0172  0.6881
  122SOPE   H5S12959   1.515   4.523   6.083  0.2675 -1.2485 -1.4312
  122SOPE   C2612960   1.419   4.345   6.146 -0.0679 -0.2649  0.3359
  122SOPE   H6R12961   1.437   4.261   6.216  1.0387  0.3814  0.8551
  122SOPE   H6S12962   1.325   4.390   6.184 -0.7923 -0.0219 -1.6409
  122SOPE   C2712963   1.401   4.293   6.002 -0.2216  0.2149  0.2686
  122SOPE   H7R12964   1.497   4.244   5.975 -0.7999  0.0476 -1.6628
  122SOPE   H7S12965   1.324   4.213   6.001  1.8312 -1.8534 -1.3160
  122SOPE   C2812966   1.371   4.397   5.901 -0.2807 -0.1437  0.2451
  122SOPE   H8R12967   1.311   4.472   5.958  1.5236 -0.3916  2.6280
  122SOPE   H8S12968   1.463   4.456   5.879 -1.5320  1.5760 -0.6209
  122SOPE   C2912969   1.291   4.360   5.780 -0.3812 -0.0151 -0.3270
  122SOPE   H9112970   1.190   4.320   5.799 -0.2241 -0.2339  0.0631
  122SOPE  C21012971   1.329   4.372   5.651 -0.2217 -0.6322 -0.4509
  122SOPE  H10112972   1.264   4.331   5.573 -0.4993 -2.2272  0.5876
  122SOPE  C21112973   1.458   4.437   5.601 -0.4129  0.7100 -0.4661
  122SOPE  H11R12974   1.539   4.424   5.677 -1.1514  2.3620  0.6492
  122SOPE  H11S12975   1.451   4.547   5.606 -1.1833  0.6179  3.0546
  122SOPE  C21212976   1.510   4.370   5.469 -1.0345 -0.1399  0.2840
  122SOPE  H12R12977   1.531   4.263   5.489 -1.2066 -0.1707  0.3042
  122SOPE  H12S12978   1.605   4.424   5.452 -1.5082  1.8449  3.2263
  122SOPE  C21312979   1.415   4.378   5.353 -0.2004 -0.8598  0.2954
  122SOPE  H13R12980   1.395   4.486   5.339 -1.5372 -1.0507  0.5348
  122SOPE  H13S12981   1.316   4.330   5.373 -0.5180 -0.1210  0.5059
  122SOPE  C21412982   1.476   4.310   5.225  0.0404  0.3815  0.2133
  122SOPE  H14R12983   1.491   4.201   5.239  0.2406  0.3955  0.1121
  122SOPE  H14S12984   1.571   4.361   5.199  0.7166 -1.3169 -0.7837
  122SOPE  C21512985   1.392   4.322   5.098 -0.1234  0.1858 -0.3337
  122SOPE  H15R12986   1.381   4.430   5.075  0.8056  0.2633 -0.4348
  122SOPE  H15S12987   1.291   4.279   5.114 -0.3283  0.8306  0.1767
  122SOPE  C21612988   1.473   4.263   4.985  0.1397  0.0320  0.6046
  122SOPE  H16R12989   1.459   4.153   4.995  1.8655 -0.2053  0.7497
  122SOPE  H16S12990   1.581   4.282   5.004  0.5642 -3.4139  2.5894
  122SOPE  C21712991   1.430   4.315   4.849 -0.1188  0.0363  0.2514
  122SOPE  H17R12992   1.442   4.424   4.865 -3.7420  0.1621  3.2516
  122SOPE  H17S12993   1.323   4.290   4.834 -0.3156 -0.0575  1.7371
  122SOPE  C21812994   1.522   4.254   4.740 -0.9136 -0.8603  0.6190
  122SOPE  H18R12995   1.627   4.287   4.753 -0.9971 -0.8161  1.2181
  122SOPE  H18S12996   1.494   4.295   4.640 -0.5485  2.0715  1.6086
  122SOPE  H18T12997   1.518   4.143   4.741  0.8177 -0.9633  2.8410
  122SOPE   C3312998   2.644   4.821   6.150  0.0302  0.2274 -0.3730
  122SOPE   H3X12999   2.668   4.733   6.213  0.2078  1.1617  0.8931
  122SOPE   H3Y13000   2.734   4.882   6.172  0.0005 -0.3837  1.6317
  122SOPE   C3413001   2.651   4.791   5.991  1.1647 -0.1785 -1.1708
  122SOPE   H4X13002   2.557   4.747   5.951 -1.0025 -0.9231  3.9607
  122SOPE   H4Y13003   2.733   4.716   5.980  1.1441 -0.8324  2.1212
  122SOPE   C3513004   2.692   4.917   5.916 -0.1109 -0.3045  0.4853
  122SOPE   H5X13005   2.756   4.966   5.993  0.6373  1.0120 -0.9089
  122SOPE   H5Y13006   2.609   4.989   5.901 -0.4362 -1.1634 -2.4384
  122SOPE   C3613007   2.766   4.899   5.779 -0.1772 -0.2100  0.0914
  122SOPE   H6X13008   2.839   4.815   5.779 -0.7577 -0.7272  0.9168
  122SOPE   H6Y13009   2.826   4.993   5.770 -1.4603  0.6560  0.2949
  122SOPE   C3713010   2.664   4.895   5.661 -0.2289 -0.5103  0.1144
  122SOPE   H7X13011   2.590   4.977   5.669 -0.4665 -0.4518 -1.9853
  122SOPE   H7Y13012   2.611   4.797   5.660 -0.8756 -0.1655 -0.7379
  122SOPE   C3813013   2.746   4.916   5.533  0.5544 -0.1036 -0.2081
  122SOPE   H8X13014   2.807   4.825   5.515 -0.5320 -0.8119 -0.4537
  122SOPE   H8Y13015   2.819   4.998   5.544  0.3034  0.3397 -1.6863
  122SOPE   C3913016   2.647   4.933   5.417 -0.4363 -0.0309 -0.4804
  122SOPE   H9X13017   2.583   5.024   5.426  1.7438  1.7588 -1.9316
  122SOPE   H9Y13018   2.573   4.852   5.433 -2.1112  1.4130 -0.5361
  122SOPE  C31013019   2.724   4.923   5.291  0.2127  0.3478 -0.1085
  122SOPE  H10X13020   2.764   4.820   5.296 -0.8008 -0.0756 -0.4443
  122SOPE  H10Y13021   2.810   4.993   5.279  2.2279 -2.2341 -1.8488
  122SOPE  C31113022   2.634   4.938   5.174  0.8491  0.6421  0.2062
  122SOPE  H11X13023   2.546   5.001   5.198  1.1157  2.6706 -3.4403
  122SOPE  H11Y13024   2.593   4.835   5.162 -0.2214  0.8733  1.6862
  122SOPE  C31213025   2.716   4.971   5.052 -0.2090 -0.3752 -0.9619
  122SOPE  H12X13026   2.804   4.904   5.038  0.1069 -0.0832 -0.4230
  122SOPE  H12Y13027   2.766   5.067   5.077  0.5174  0.1934 -4.1220
  122SOPE  C31313028   2.629   4.990   4.925  0.4011  0.7194  0.3598
  122SOPE  H13X13029   2.543   5.055   4.950  0.0637 -0.1854  1.6154
  122SOPE  H13Y13030   2.601   4.888   4.891 -2.0335  1.2312  0.6773
  122SOPE  C31413031   2.722   5.048   4.811 -0.4412  0.4621 -0.2758
  122SOPE  H14X13032   2.812   4.984   4.800 -0.6074  0.2347 -0.3284
  122SOPE  H14Y13033   2.771   5.142   4.845  1.3295 -0.4538 -0.2041
  122SOPE  C31513034   2.646   5.075   4.687 -0.7997 -0.5636 -0.0775
  122SOPE  H15X13035   2.565   5.146   4.713 -0.5284 -0.3489  0.1893
  122SOPE  H15Y13036   2.614   4.974   4.653 -1.1292  0.3118 -2.6082
  122SOPE  C31613037   2.727   5.146   4.581 -0.3722 -0.6670 -0.4796
  122SOPE  H16X13038   2.833   5.114   4.593 -0.0552  0.2230 -0.8180
  122SOPE  H16Y13039   2.737   5.254   4.606 -0.1710  0.2274 -3.8866
  122SOPE  C31713040   2.663   5.139   4.442 -0.9476 -0.1120 -0.2815
  122SOPE  H17X13041   2.556   5.169   4.455 -0.7924  0.0028  0.8343
  122SOPE  H17Y13042   2.665   5.033   4.409  0.6945  0.1749 -1.1772
  122SOPE  C31813043   2.736   5.213   4.328 -0.3229  0.0770  0.7606
  122SOPE  H18X13044   2.731   5.321   4.353 -1.9497 -0.4828  3.2418
  122SOPE  H18Y13045   2.687   5.187   4.232  1.4633  0.2520 -0.2512
  122SOPE  H18Z13046   2.844   5.188   4.334 -0.4223 -0.5408  0.0966
  123SOPE     N13047   3.456   2.525   2.275  0.1579  0.0465 -0.6920
  123SOPE   HN113048   3.536   2.497   2.336 -2.0486 -0.5019  2.1816
  123SOPE   HN213049   3.369   2.477   2.304  0.5042 -1.5070 -2.0701
  123SOPE   HN313050   3.471   2.489   2.179  0.7244 -0.6546 -0.3557
  123SOPE   C1213051   3.452   2.675   2.269  0.2828  0.1144  0.4599
  123SOPE  H12A13052   3.438   2.704   2.375 -0.0415  1.3925  0.0772
  123SOPE  H12B13053   3.377   2.714   2.197  1.6797 -0.2984 -1.3040
  123SOPE   C1113054   3.595   2.739   2.243  0.3388  0.1443  0.5891
  123SOPE  H11A13055   3.585   2.850   2.251 -0.5870  0.3245 -1.9552
  123SOPE  H11B13056   3.632   2.719   2.140 -0.7887  0.0343  0.1905
  123SOPE     P13057   3.831   2.770   2.337  0.4718  0.5363 -0.1548
  123SOPE   O1313058   3.852   2.803   2.192 -0.0140  0.0112 -0.5831
  123SOPE   O1413059   3.924   2.679   2.407 -0.4980  0.3378 -0.1109
  123SOPE   O1213060   3.690   2.704   2.347 -0.1195  0.3244  0.7721
  123SOPE   O1113061   3.820   2.901   2.418 -0.1025 -0.5265  0.5329
  123SOPE    C113062   3.728   2.893   2.532 -0.4636  0.0134 -0.3076
  123SOPE    HA13063   3.780   2.831   2.609  1.8456  0.2859 -1.5519
  123SOPE    HB13064   3.633   2.842   2.508  1.4458 -3.0439 -2.1130
  123SOPE    C213065   3.677   3.029   2.583  0.4349 -0.1694 -0.0761
  123SOPE    HS13066   3.686   3.095   2.494 -1.1750  1.0757  0.6374
  123SOPE   O2113067   3.758   3.063   2.700  0.2690  0.8049  0.5103
  123SOPE   C2113068   3.750   3.179   2.753 -0.0381 -0.9091 -0.6563
  123SOPE   O2213069   3.670   3.264   2.715  0.1343 -0.5219 -0.4393
  123SOPE   C2213070   3.862   3.190   2.862  0.4307 -0.5964  0.6427
  123SOPE   H2R13071   3.950   3.181   2.796 -0.4643  0.5048 -0.7580
  123SOPE   H2S13072   3.851   3.105   2.933  0.9255 -1.1854  0.0250
  123SOPE    C313073   3.527   3.021   2.616  0.2134  0.4296 -0.1547
  123SOPE    HX13074   3.466   3.001   2.525 -0.2089 -1.7303  0.5275
  123SOPE    HY13075   3.488   3.115   2.659  2.2624  0.5592  1.5773
  123SOPE   O3113076   3.512   2.910   2.708 -0.2550 -0.6726  0.0413
  123SOPE   C3113077   3.492   2.948   2.842 -0.7730 -0.1840  0.7063
  123SOPE   O3213078   3.502   3.061   2.880 -0.3005  0.0956 -0.2313
  123SOPE   C3213079   3.457   2.822   2.921  0.0911  0.0088  0.1101
  123SOPE   H2X13080   3.488   2.734   2.860  0.6557 -0.6709  1.3321
  123SOPE   H2Y13081   3.347   2.830   2.932 -0.1870 -0.6743 -1.8649
  123SOPE   C2313082   3.860   3.319   2.944 -0.5702 -0.2459 -0.2279
  123SOPE   H3R13083   3.772   3.316   3.012  0.3629 -1.7882  0.9728
  123SOPE   H3S13084   3.849   3.412   2.884 -0.4454  0.1183  0.3103
  123SOPE   C2413085   3.991   3.359   3.014  0.6835  0.5350 -0.2726
  123SOPE   H4R13086   3.998   3.294   3.105  0.2309  0.6218 -0.1767
  123SOPE   H4S13087   4.081   3.346   2.949  1.2519  2.7848 -0.0013
  123SOPE   C2513088   3.988   3.498   3.077 -0.9650 -0.2064 -0.1973
  123SOPE   H5R13089   4.080   3.516   3.137 -0.8303  0.2883 -0.5452
  123SOPE   H5S13090   3.974   3.568   2.993  0.8434 -0.7137 -0.9757
  123SOPE   C2613091   3.864   3.527   3.161 -0.1283 -0.6362  0.1377
  123SOPE   H6R13092   3.780   3.565   3.098  0.2618 -0.9915 -0.6005
  123SOPE   H6S13093   3.822   3.435   3.208 -0.3884 -0.4611  0.2560
  123SOPE   C2713094   3.886   3.632   3.272 -0.1322 -0.6162  0.1072
  123SOPE   H7R13095   3.972   3.601   3.336 -1.6796 -1.0197  2.0902
  123SOPE   H7S13096   3.915   3.733   3.237  0.3426 -0.6217  0.4668
  123SOPE   C2813097   3.755   3.656   3.344  0.2974 -0.8152  0.0694
  123SOPE   H8R13098   3.685   3.707   3.274  0.9183  1.9836  1.3901
  123SOPE   H8S13099   3.703   3.559   3.361 -0.1021 -0.5272  0.5255
  123SOPE   C2913100   3.756   3.732   3.473 -0.0922 -0.6858  0.0256
  123SOPE   H9113101   3.730   3.835   3.447  2.2500 -0.5936 -2.4646
  123SOPE  C21013102   3.780   3.691   3.596 -1.0707 -0.0133  0.0428
  123SOPE  H10113103   3.780   3.766   3.676 -1.5589  1.3399 -1.1947
  123SOPE  C21113104   3.822   3.551   3.642  0.3644  0.1070 -0.0121
  123SOPE  H11R13105   3.846   3.492   3.551  2.1730 -0.4251  0.7637
  123SOPE  H11S13106   3.740   3.511   3.705 -0.7627  1.1688 -0.7571
  123SOPE  C21213107   3.946   3.549   3.722  0.3438 -0.0927 -0.6055
  123SOPE  H12R13108   4.028   3.609   3.677 -0.1244  0.4145 -0.7892
  123SOPE  H12S13109   3.986   3.445   3.731  1.6509  0.3969 -0.5439
  123SOPE  C21313110   3.932   3.609   3.862  0.1977 -0.5017 -0.4657
  123SOPE  H13R13111   3.858   3.549   3.919  2.0379 -1.9802  0.5010
  123SOPE  H13S13112   3.897   3.714   3.850 -0.1684 -0.4848  0.6766
  123SOPE  C21413113   4.068   3.617   3.931  0.4556 -0.6503  0.2709
  123SOPE  H14R13114   4.144   3.676   3.876  0.3215 -0.1660  0.5939
  123SOPE  H14S13115   4.122   3.522   3.954 -1.2631 -1.4377  1.2788
  123SOPE  C21513116   4.055   3.703   4.056 -0.0580  0.2929  0.2046
  123SOPE  H15R13117   3.974   3.664   4.120 -1.0610  1.6772 -0.1623
  123SOPE  H15S13118   4.014   3.797   4.011 -0.8882 -0.0113  0.3175
  123SOPE  C21613119   4.184   3.722   4.143  0.5803  0.4773 -0.2216
  123SOPE  H16R13120   4.256   3.783   4.084  2.6036  1.7062  3.2396
  123SOPE  H16S13121   4.232   3.623   4.158 -1.8249 -1.0499 -1.8537
  123SOPE  C21713122   4.161   3.800   4.271  0.8948 -0.2822  0.3251
  123SOPE  H17R13123   4.084   3.880   4.259  1.0019 -0.2190  0.0556
  123SOPE  H17S13124   4.247   3.865   4.298  0.9769 -1.0778  2.1368
  123SOPE  C21813125   4.111   3.717   4.389 -0.4176  0.0311  0.0261
  123SOPE  H18R13126   4.178   3.630   4.401  1.2814  1.1912 -0.6448
  123SOPE  H18S13127   4.008   3.679   4.372  0.3140 -2.2381  0.4088
  123SOPE  H18T13128   4.115   3.785   4.477 -2.7238  0.8510 -0.4075
  123SOPE   C3313129   3.538   2.821   3.054  0.6416  0.1619 -0.8107
  123SOPE   H3X13130   3.569   2.922   3.086  0.5242 -0.8913  3.2377
  123SOPE   H3Y13131   3.633   2.763   3.048  0.8092  0.4972 -1.4550
  123SOPE   C3413132   3.466   2.765   3.183  0.1507  0.4776 -0.0565
  123SOPE   H4X13133   3.413   2.670   3.163  1.3245 -0.4542  1.0621
  123SOPE   H4Y13134   3.385   2.835   3.214 -0.2797  1.6232 -3.4078
  123SOPE   C3513135   3.566   2.737   3.290  0.1041  0.5149  0.0681
  123SOPE   H5X13136   3.622   2.831   3.310 -3.1843  2.5582  0.4116
  123SOPE   H5Y13137   3.624   2.652   3.247  0.1430  0.9140 -0.6673
  123SOPE   C3613138   3.495   2.718   3.420 -0.4213 -0.1760  0.1800
  123SOPE   H6X13139   3.423   2.633   3.421 -0.7677  0.0623 -1.4693
  123SOPE   H6Y13140   3.439   2.808   3.452 -1.7183 -0.8217 -0.2150
  123SOPE   C3713141   3.610   2.697   3.516  0.4146  0.0502  0.0976
  123SOPE   H7X13142   3.666   2.793   3.517  2.5117 -0.8905 -3.7812
  123SOPE   H7Y13143   3.681   2.616   3.487  0.9127  0.6679 -0.4436
  123SOPE   C3813144   3.542   2.675   3.653  0.2172  0.4316 -0.3019
  123SOPE   H8X13145   3.478   2.585   3.643  0.0497  0.3674  1.1976
  123SOPE   H8Y13146   3.473   2.753   3.691 -1.5691 -1.9903  1.7588
  123SOPE   C3913147   3.648   2.627   3.758  0.7910 -1.1569  0.6425
  123SOPE   H9X13148   3.717   2.713   3.757 -0.5311 -0.0562  1.2297
  123SOPE   H9Y13149   3.698   2.540   3.711  2.5775 -0.0438  0.4187
  123SOPE  C31013150   3.581   2.604   3.894 -0.2012  0.8944 -0.1578
  123SOPE  H10X13151   3.507   2.524   3.874 -0.8479  1.7565 -1.3612
  123SOPE  H10Y13152   3.541   2.704   3.921  1.7257  1.1393  2.0790
  123SOPE  C31113153   3.672   2.563   4.006 -0.1001 -0.2104 -0.0868
  123SOPE  H11X13154   3.727   2.654   4.037 -3.7251  0.9925  3.6417
  123SOPE  H11Y13155   3.735   2.483   3.961 -0.0670 -0.7525  0.9011
  123SOPE  C31213156   3.590   2.511   4.123 -0.3363  0.1233 -0.0303
  123SOPE  H12X13157   3.532   2.419   4.099  1.2696 -1.3002  1.2962
  123SOPE  H12Y13158   3.519   2.595   4.141  0.4117  0.7438  0.0889
  123SOPE  C31313159   3.675   2.485   4.247  0.3795  0.1482 -0.0601
  123SOPE  H13X13160   3.600   2.455   4.323 -0.8849  0.8570 -0.9695
  123SOPE  H13Y13161   3.720   2.581   4.280  0.8360  0.0525 -0.3966
  123SOPE  C31413162   3.777   2.374   4.224 -0.0304  0.4075 -0.5295
  123SOPE  H14X13163   3.838   2.411   4.139  0.6846  1.8730  0.5747
  123SOPE  H14Y13164   3.722   2.278   4.213 -0.2803  0.5503 -0.5276
  123SOPE  C31513165   3.876   2.371   4.345 -0.5031 -0.6015  0.4723
  123SOPE  H15X13166   3.812   2.340   4.431 -0.5193  0.8486  1.0142
  123SOPE  H15Y13167   3.922   2.470   4.364  0.0371 -0.6253 -0.6499
  123SOPE  C31613168   3.979   2.252   4.307  0.2431  0.1041 -0.0415
  123SOPE  H16X13169   4.039   2.288   4.221 -1.2323  1.9296 -0.3860
  123SOPE  H16Y13170   3.937   2.151   4.292 -0.5801  0.3212  0.6901
  123SOPE  C31713171   4.068   2.233   4.426  0.3417 -0.3137 -0.2968
  123SOPE  H17X13172   4.016   2.175   4.505 -2.4978  2.8738  0.4408
  123SOPE  H17Y13173   4.103   2.328   4.472 -0.1694  1.0276 -2.5382
  123SOPE  C31813174   4.200   2.167   4.385 -0.2360 -0.2888  0.3118
  123SOPE  H18X13175   4.268   2.152   4.471 -1.7092  0.0783  1.5747
  123SOPE  H18Y13176   4.260   2.224   4.310 -2.5648  0.5125 -1.0408
  123SOPE  H18Z13177   4.165   2.076   4.332 -2.2527  0.9278 -0.5498
  124SOPE     N13178   6.256   2.441   2.307  0.0515 -0.6184 -0.0946
  124SOPE   HN113179   6.187   2.499   2.359  1.3357  0.3896  0.5510
  124SOPE   HN213180   6.261   2.489   2.215 -0.0348  2.8270  1.5331
  124SOPE   HN313181   6.224   2.342   2.300  0.4591 -0.6854 -1.1728
  124SOPE   C1213182   6.386   2.457   2.379  0.1975 -0.5283  0.0582
  124SOPE  H12A13183   6.456   2.421   2.300  0.8747  2.8455 -1.0356
  124SOPE  H12B13184   6.384   2.392   2.469  0.0006 -0.9561 -0.2475
  124SOPE   C1113185   6.422   2.599   2.404  0.1722 -0.2407 -0.2656
  124SOPE  H11A13186   6.520   2.597   2.456 -1.9029  1.9707  4.3875
  124SOPE  H11B13187   6.353   2.653   2.472 -1.0996 -0.4727 -1.3295
  124SOPE     P13188   6.401   2.816   2.244 -0.4981 -0.3069 -0.0119
  124SOPE   O1313189   6.265   2.854   2.284 -0.3267 -0.1877 -0.2697
  124SOPE   O1413190   6.444   2.840   2.103  0.1935  0.1982  0.0665
  124SOPE   O1213191   6.425   2.668   2.279  0.6103  0.1630 -0.3269
  124SOPE   O1113192   6.511   2.900   2.334  0.1183 -0.0771 -0.5229
  124SOPE    C113193   6.505   2.897   2.479  0.3483  0.0456 -0.0976
  124SOPE    HA13194   6.555   2.804   2.515 -0.2681 -0.3606 -0.2793
  124SOPE    HB13195   6.400   2.890   2.512 -0.1311  0.9349 -1.3311
  124SOPE    C213196   6.571   3.016   2.545  0.2149 -0.2690  0.2603
  124SOPE    HS13197   6.681   3.024   2.530  0.3724  0.4324  1.6444
  124SOPE   O2113198   6.550   2.994   2.683 -0.1976  0.0207  0.4446
  124SOPE   C2113199   6.635   2.927   2.755  0.2605  0.7069  0.3818
  124SOPE   O2213200   6.748   2.897   2.732 -0.6896 -0.1433  0.0691
  124SOPE   C2213201   6.566   2.909   2.888 -0.0102  0.3698 -0.3231
  124SOPE   H2R13202   6.497   2.822   2.879 -1.3544  1.3921 -0.2409
  124SOPE   H2S13203   6.499   2.995   2.909 -0.4281 -0.0414  0.0561
  124SOPE    C313204   6.523   3.158   2.497 -0.2908 -0.4320  0.1655
  124SOPE    HX13205   6.540   3.158   2.387 -0.7531 -1.7971  0.0716
  124SOPE    HY13206   6.581   3.244   2.535 -0.5658 -0.1548 -0.0358
  124SOPE   O3113207   6.384   3.167   2.527  0.2517 -0.4268 -0.7968
  124SOPE   C3113208   6.356   3.215   2.652  0.2231 -0.1655  1.0187
  124SOPE   O3213209   6.438   3.265   2.724 -0.2210  0.1352 -0.0809
  124SOPE   C3213210   6.204   3.199   2.683  0.7894  0.1690 -0.4704
  124SOPE   H2X13211   6.155   3.202   2.584  2.0786  2.3931 -1.1034
  124SOPE   H2Y13212   6.167   3.290   2.734 -2.6300 -1.6579  0.6408
  124SOPE   C2313213   6.679   2.886   2.992  0.0732  0.3155 -0.4005
  124SOPE   H3R13214   6.766   2.953   2.977 -0.8610  1.4628 -0.8591
  124SOPE   H3S13215   6.722   2.785   2.978  3.5056  1.4997  0.7297
  124SOPE   C2413216   6.629   2.915   3.133 -0.1468  0.1436  0.4921
  124SOPE   H4R13217   6.596   3.021   3.140 -1.8202 -0.3056 -0.0690
  124SOPE   H4S13218   6.540   2.852   3.154 -0.0660  0.8558  3.3856
  124SOPE   C2513219   6.743   2.887   3.229 -0.0013  0.4387 -0.1499
  124SOPE   H5R13220   6.783   2.784   3.219  0.1097  0.5785 -1.2191
  124SOPE   H5S13221   6.829   2.951   3.201  0.2618 -0.5295 -1.7027
  124SOPE   C2613222   6.713   2.904   3.378  0.8958 -0.6567 -0.7764
  124SOPE   H6R13223   6.672   3.005   3.402  0.3938 -0.4229 -2.4995
  124SOPE   H6S13224   6.629   2.838   3.409 -1.5239  2.6205  0.2501
  124SOPE   C2713225   6.838   2.876   3.460  0.0129  0.5734  0.0334
  124SOPE   H7R13226   6.892   2.790   3.415  1.0548  1.2791 -0.1179
  124SOPE   H7S13227   6.901   2.967   3.465  0.0714  0.4849  1.1379
  124SOPE   C2813228   6.789   2.851   3.608 -0.6374 -0.0887  0.2778
  124SOPE   H8R13229   6.750   2.952   3.632 -0.6562  1.4769 -5.0485
  124SOPE   H8S13230   6.708   2.775   3.612  0.8382 -1.7680 -0.4475
  124SOPE   C2913231   6.898   2.817   3.700  0.1835 -0.2749 -0.0072
  124SOPE   H9113232   6.976   2.761   3.646  0.0583  0.0215 -0.5019
  124SOPE  C21013233   6.910   2.837   3.830 -0.0417  0.0127 -0.0643
  124SOPE  H10113234   7.009   2.820   3.876  1.1983  4.4162 -0.6540
  124SOPE  C21113235   6.802   2.906   3.918  0.4018 -0.1754 -0.7875
  124SOPE  H11R13236   6.711   2.917   3.856  0.1645  1.7639 -0.1629
  124SOPE  H11S13237   6.845   3.004   3.947  1.7253 -0.2430 -2.3679
  124SOPE  C21213238   6.774   2.831   4.050  0.4226  0.1894 -0.1707
  124SOPE  H12R13239   6.875   2.800   4.084  0.7876  0.2139 -1.1959
  124SOPE  H12S13240   6.712   2.741   4.031  0.4864 -0.7663  3.4346
  124SOPE  C21313241   6.707   2.914   4.167 -0.2733  0.3213  0.2461
  124SOPE  H13R13242   6.614   2.956   4.121 -1.0750 -0.1711  1.3712
  124SOPE  H13S13243   6.763   2.998   4.214  0.5233  0.1350 -0.3515
  124SOPE  C21413244   6.673   2.834   4.284 -0.1109 -0.0533 -0.0950
  124SOPE  H14R13245   6.766   2.792   4.328  0.7805  0.0284 -1.7833
  124SOPE  H14S13246   6.609   2.750   4.250 -0.4189  0.4836 -0.8852
  124SOPE  C21513247   6.591   2.911   4.388 -0.5952 -0.3770 -0.5128
  124SOPE  H15R13248   6.499   2.947   4.337 -1.5467  0.9604  1.9837
  124SOPE  H15S13249   6.654   2.996   4.422 -0.1718 -0.6131 -0.6995
  124SOPE  C21613250   6.553   2.825   4.510  0.2958 -0.0563 -0.1576
  124SOPE  H16R13251   6.640   2.761   4.535 -0.3950 -1.1248 -0.4469
  124SOPE  H16S13252   6.467   2.758   4.491 -0.7874  1.8271 -2.3023
  124SOPE  C21713253   6.530   2.926   4.630 -0.4532 -0.6560 -0.2788
  124SOPE  H17R13254   6.436   2.976   4.599 -0.2022  0.7204  1.0872
  124SOPE  H17S13255   6.617   2.995   4.625 -1.1883  0.4464  1.2808
  124SOPE  C21813256   6.511   2.858   4.760 -0.0691 -0.6107 -0.2782
  124SOPE  H18R13257   6.605   2.810   4.795  0.2494 -0.7212 -1.2512
  124SOPE  H18S13258   6.436   2.779   4.736 -0.3044 -0.2402 -0.7840
  124SOPE  H18T13259   6.465   2.928   4.833 -1.7876  2.6696 -4.0946
  124SOPE   C3313260   6.177   3.079   2.775 -0.4021  0.4424 -0.4289
  124SOPE   H3X13261   6.235   2.988   2.749 -2.3650 -0.5092 -1.7366
  124SOPE   H3Y13262   6.072   3.041   2.780  0.2510 -1.3845  0.0135
  124SOPE   C3413263   6.191   3.125   2.926  0.1990  1.0366 -0.5856
  124SOPE   H4X13264   6.114   3.202   2.950  0.9213  2.6600 -3.1221
  124SOPE   H4Y13265   6.289   3.178   2.933  1.6844 -1.7284  1.7192
  124SOPE   C3513266   6.202   3.016   3.045 -0.4166  0.7324 -0.1663
  124SOPE   H5X13267   6.286   2.950   3.015 -1.7480 -1.5706  0.9115
  124SOPE   H5Y13268   6.110   2.956   3.060 -0.2648  0.8464  1.4557
  124SOPE   C3613269   6.253   3.092   3.168 -0.0067  0.6227  0.5535
  124SOPE   H6X13270   6.189   3.180   3.190 -0.7014  0.7896 -1.8744
  124SOPE   H6Y13271   6.348   3.145   3.146 -1.4141  3.9557  1.8599
  124SOPE   C3713272   6.274   3.000   3.290 -0.2714 -0.1120  0.4561
  124SOPE   H7X13273   6.328   2.909   3.258 -2.1479 -0.8981 -0.6682
  124SOPE   H7Y13274   6.176   2.949   3.301  0.0107 -0.7180  0.1873
  124SOPE   C3813275   6.303   3.074   3.423  0.0224  0.1840  0.0833
  124SOPE   H8X13276   6.228   3.146   3.463  1.3966  1.3897  0.5758
  124SOPE   H8Y13277   6.395   3.133   3.406 -0.9727  2.2708  1.4948
  124SOPE   C3913278   6.347   2.988   3.548  0.9470 -0.2894  0.0696
  124SOPE   H9X13279   6.452   2.953   3.537  0.7398 -1.4795  1.5746
  124SOPE   H9Y13280   6.290   2.892   3.552  0.6508 -0.0728  1.3612
  124SOPE  C31013281   6.331   3.065   3.679  0.5128  0.6251 -0.1922
  124SOPE  H10X13282   6.226   3.048   3.711  0.3109  0.8708 -0.7133
  124SOPE  H10Y13283   6.358   3.171   3.662  1.0535  0.5611  0.2289
  124SOPE  C31113284   6.409   3.014   3.801 -0.9719  0.4449  0.4165
  124SOPE  H11X13285   6.512   3.054   3.790 -0.3436 -1.5816 -1.7391
  124SOPE  H11Y13286   6.418   2.905   3.782 -0.3118  0.4541  0.6589
  124SOPE  C31213287   6.349   3.047   3.936 -0.1878  0.0093 -0.5653
  124SOPE  H12X13288   6.311   3.152   3.938  0.0633  0.0988  1.0914
  124SOPE  H12Y13289   6.439   3.045   4.002 -0.3303 -0.1637 -0.3732
  124SOPE  C31313290   6.235   2.945   3.986  0.1450 -0.3121 -0.2796
  124SOPE  H13X13291   6.280   2.845   4.002  0.3043 -0.2090 -0.0813
  124SOPE  H13Y13292   6.162   2.943   3.902  1.2725  2.4791 -1.4352
  124SOPE  C31413293   6.149   2.987   4.110  0.3346  0.1155  0.2682
  124SOPE  H14X13294   6.197   2.971   4.209 -1.1283 -2.6822  0.6372
  124SOPE  H14Y13295   6.076   2.904   4.123  0.7098 -0.0464  1.4879
  124SOPE  C31513296   6.087   3.125   4.103  0.4540 -0.1838 -0.3660
  124SOPE  H15X13297   6.060   3.145   3.997  0.3900  2.1709  0.0383
  124SOPE  H15Y13298   6.174   3.190   4.128  0.5362 -0.0656 -0.9537
  124SOPE  C31613299   5.972   3.146   4.205 -0.1534 -0.6081 -0.3599
  124SOPE  H16X13300   5.888   3.076   4.185  0.6441 -1.3178 -1.3788
  124SOPE  H16Y13301   5.924   3.242   4.179 -4.1238 -2.4601 -0.5587
  124SOPE  C31713302   6.025   3.161   4.355  0.0421  0.5933  0.0721
  124SOPE  H17X13303   6.092   3.250   4.347 -0.3335  0.8292 -0.5681
  124SOPE  H17Y13304   6.079   3.066   4.373 -0.6799  0.4081  1.3316
  124SOPE  C31813305   5.903   3.180   4.452  0.1223 -0.2146  0.0343
  124SOPE  H18X13306   5.834   3.247   4.396 -1.7239 -0.5050  1.8404
  124SOPE  H18Y13307   5.925   3.240   4.543 -1.4054  1.1082 -0.4248
  124SOPE  H18Z13308   5.840   3.092   4.478 -0.5157  0.6512  1.5819
  125SOPE     N13309   2.968   2.597   2.639 -0.2635  0.7924 -0.2373
  125SOPE   HN113310   2.973   2.498   2.669  2.2673  1.1094  0.6731
  125SOPE   HN213311   3.061   2.643   2.631 -0.9750  2.3167 -0.2096
  125SOPE   HN313312   2.917   2.652   2.712 -0.6775 -1.9910  1.7394
  125SOPE   C1213313   2.889   2.596   2.515  0.0108 -0.1861  0.0373
  125SOPE  H12A13314   2.875   2.701   2.482  0.2712 -0.2686 -0.3402
  125SOPE  H12B13315   2.789   2.555   2.539 -0.8380  0.9684 -1.3708
  125SOPE   C1113316   2.954   2.513   2.398  0.0684  0.1261 -0.2062
  125SOPE  H11A13317   3.019   2.583   2.343  1.8400 -0.2974  1.2483
  125SOPE  H11B13318   2.870   2.486   2.329 -1.6796  0.7000  1.5935
  125SOPE     P13319   3.109   2.318   2.343 -0.2313  0.0861 -0.2822
  125SOPE   O1313320   3.231   2.398   2.345  0.0807 -0.1369 -0.4019
  125SOPE   O1413321   3.031   2.298   2.217 -0.2101 -0.8028  0.0688
  125SOPE   O1213322   3.018   2.394   2.446  0.0266  0.1719  0.3867
  125SOPE   O1113323   3.132   2.183   2.423 -0.0725 -0.9933  0.2941
  125SOPE    C113324   3.018   2.110   2.474  0.3637  0.0252  0.0423
  125SOPE    HA13325   3.054   2.005   2.463  0.4589  0.2876 -2.8714
  125SOPE    HB13326   2.925   2.117   2.414  0.6927 -0.3474 -0.5200
  125SOPE    C213327   2.990   2.140   2.619 -0.1772  0.1036  1.0586
  125SOPE    HS13328   2.923   2.229   2.622  0.1912  0.3836  1.1628
  125SOPE   O2113329   3.117   2.168   2.685  0.3123 -0.0894 -0.0690
  125SOPE   C2113330   3.142   2.293   2.725 -0.2668 -0.4638 -0.4878
  125SOPE   O2213331   3.057   2.378   2.739  0.4674 -0.0432  0.0587
  125SOPE   C2213332   3.297   2.309   2.750  0.0019  0.4189  0.6166
  125SOPE   H2R13333   3.328   2.375   2.666 -2.0370 -1.2468 -1.5950
  125SOPE   H2S13334   3.352   2.214   2.733  0.0099  0.8744 -2.3777
  125SOPE    C313335   2.924   2.018   2.688  0.5695  0.6266 -0.5860
  125SOPE    HX13336   2.999   1.937   2.678  1.0321  0.4895  2.8989
  125SOPE    HY13337   2.829   2.005   2.632  0.1112 -0.6205  0.4499
  125SOPE   O3113338   2.900   2.058   2.822 -0.4131 -0.3236 -0.3821
  125SOPE   C3113339   2.868   1.960   2.911 -0.3503  0.2437  0.2678
  125SOPE   O3213340   2.867   1.844   2.873  0.3946 -0.1312  0.0582
  125SOPE   C3213341   2.862   2.011   3.056 -0.0252 -0.1058  0.7457
  125SOPE   H2X13342   2.770   2.074   3.062  0.2916  0.3259  1.0942
  125SOPE   H2Y13343   2.942   2.086   3.074 -2.5275  2.7580  0.8324
  125SOPE   C2313344   3.318   2.369   2.897  0.6092 -0.2543  0.4434
  125SOPE   H3R13345   3.245   2.451   2.914  2.4030  1.9756 -1.8460
  125SOPE   H3S13346   3.422   2.405   2.910  0.2800 -0.0767  3.3327
  125SOPE   C2413347   3.306   2.251   3.001  0.3732 -0.1829  0.4587
  125SOPE   H4R13348   3.210   2.194   2.999  0.4753 -0.6847  3.7191
  125SOPE   H4S13349   3.386   2.182   2.967  0.5052  0.2673 -0.1711
  125SOPE   C2513350   3.324   2.296   3.145  0.2499 -0.5201  0.2326
  125SOPE   H5R13351   3.413   2.252   3.195 -0.4338 -3.0862 -0.6618
  125SOPE   H5S13352   3.344   2.405   3.144  0.2451 -0.4244 -3.4423
  125SOPE   C2613353   3.201   2.274   3.236  0.3843  0.0797 -0.1982
  125SOPE   H6R13354   3.101   2.297   3.194  1.1573  3.6421 -0.4450
  125SOPE   H6S13355   3.202   2.167   3.266  0.9860  0.5386  1.5434
  125SOPE   C2713356   3.208   2.351   3.366 -0.1753  0.0227  0.4187
  125SOPE   H7R13357   3.290   2.308   3.427 -1.5311 -1.2909  1.4007
  125SOPE   H7S13358   3.227   2.459   3.350  0.1882  0.5908  3.9522
  125SOPE   C2813359   3.088   2.348   3.464  0.5307 -0.3655 -0.0805
  125SOPE   H8R13360   3.089   2.438   3.529 -0.1284 -1.7557  1.9930
  125SOPE   H8S13361   3.012   2.374   3.387  1.7200  0.9419 -0.8465
  125SOPE   C2913362   3.061   2.221   3.533  0.4322  0.3910 -0.3027
  125SOPE   H9113363   3.037   2.139   3.463  1.2613 -0.0825 -0.0503
  125SOPE  C21013364   3.057   2.209   3.666  0.0274 -0.3322 -0.1349
  125SOPE  H10113365   3.045   2.108   3.706  3.2097 -1.4338 -1.6149
  125SOPE  C21113366   3.090   2.315   3.763 -0.5086  0.2685 -0.1128
  125SOPE  H11R13367   2.991   2.341   3.807 -1.7169 -2.0361 -1.2899
  125SOPE  H11S13368   3.138   2.404   3.717  1.5968  1.5353  4.0344
  125SOPE  C21213369   3.177   2.267   3.883 -0.4331  0.3714  0.2667
  125SOPE  H12R13370   3.275   2.229   3.846 -0.5659  0.2263  0.0672
  125SOPE  H12S13371   3.131   2.186   3.943  5.0016 -3.1918  0.3346
  125SOPE  C21313372   3.217   2.391   3.974 -0.3667 -0.5447 -0.4479
  125SOPE  H13R13373   3.278   2.476   3.936 -2.5278  0.6142 -1.5080
  125SOPE  H13S13374   3.279   2.341   4.051  4.0356  2.8528 -1.4145
  125SOPE  C21413375   3.097   2.460   4.037  0.1192  0.5313  0.5372
  125SOPE  H14R13376   3.042   2.528   3.968  0.5833  0.8922  0.5181
  125SOPE  H14S13377   3.131   2.546   4.098  0.5405  1.5838 -1.1072
  125SOPE  C21513378   3.004   2.373   4.116 -0.2700 -0.0770 -0.0497
  125SOPE  H15R13379   3.039   2.305   4.196 -3.5253 -0.4495  1.2030
  125SOPE  H15S13380   2.957   2.292   4.057  0.8467 -0.0567 -1.0020
  125SOPE  C21613381   2.900   2.453   4.195 -0.5484 -0.5158 -0.7825
  125SOPE  H16R13382   2.816   2.384   4.215  0.4424 -1.1168  1.7639
  125SOPE  H16S13383   2.863   2.530   4.124 -1.5870 -0.4343 -0.1820
  125SOPE  C21713384   2.952   2.515   4.326 -0.3633 -0.1276 -0.3973
  125SOPE  H17R13385   2.872   2.580   4.366  1.5847  1.7207  0.7351
  125SOPE  H17S13386   3.047   2.570   4.306  0.5331 -1.2647  0.5623
  125SOPE  C21813387   2.976   2.420   4.432  0.1147  0.2922 -0.4681
  125SOPE  H18R13388   3.080   2.382   4.427 -0.6235 -2.1726  1.0600
  125SOPE  H18S13389   2.899   2.340   4.433 -1.0215  1.2982  2.2860
  125SOPE  H18T13390   2.967   2.452   4.538  0.2014  0.4232 -0.4995
  125SOPE   C3313391   2.854   1.897   3.166  0.3948  0.2859  0.2308
  125SOPE   H3X13392   2.940   1.827   3.169 -0.4594 -0.8286 -0.5631
  125SOPE   H3Y13393   2.763   1.839   3.140 -0.2921  1.0992  0.7687
  125SOPE   C3413394   2.829   1.963   3.301 -0.1964  0.4064 -0.3691
  125SOPE   H4X13395   2.722   1.992   3.287 -0.3267 -0.2444 -0.7652
  125SOPE   H4Y13396   2.876   2.063   3.306  1.7844 -0.5354  0.9464
  125SOPE   C3513397   2.856   1.880   3.426  0.1153 -0.1013 -0.5611
  125SOPE   H5X13398   2.962   1.859   3.454 -0.6674 -0.7488  2.2819
  125SOPE   H5Y13399   2.799   1.787   3.408 -0.9068  0.4098 -0.0239
  125SOPE   C3613400   2.803   1.951   3.554 -0.2077  0.1739 -0.0522
  125SOPE   H6X13401   2.693   1.956   3.543 -0.3908  2.4718  2.0738
  125SOPE   H6Y13402   2.846   2.053   3.558  2.3058 -0.8321  1.5979
  125SOPE   C3713403   2.867   1.877   3.681  0.2543 -0.8725 -0.1991
  125SOPE   H7X13404   2.977   1.884   3.666  0.0711  0.6302 -1.0439
  125SOPE   H7Y13405   2.834   1.772   3.692 -1.0464 -0.4479  0.0887
  125SOPE   C3813406   2.827   1.958   3.812 -0.3006 -0.3383  0.2999
  125SOPE   H8X13407   2.725   1.931   3.845 -0.4769 -1.3886 -1.0358
  125SOPE   H8Y13408   2.828   2.063   3.776  0.4843 -0.3201  0.3514
  125SOPE   C3913409   2.926   1.924   3.925 -0.2636  0.3325  0.4006
  125SOPE   H9X13410   3.028   1.962   3.905  0.4756 -1.5394  0.3926
  125SOPE   H9Y13411   2.937   1.814   3.936 -0.9446  0.0287 -1.4760
  125SOPE  C31013412   2.888   1.980   4.057  0.0171  0.2914 -0.3960
  125SOPE  H10X13413   2.779   2.002   4.056  0.0381  0.4409  0.3069
  125SOPE  H10Y13414   2.948   2.072   4.077 -2.6924  2.2780 -0.8047
  125SOPE  C31113415   2.907   1.883   4.182  0.9016 -0.1200  0.2185
  125SOPE  H11X13416   3.015   1.864   4.200  1.1966  0.4491 -0.8597
  125SOPE  H11Y13417   2.856   1.792   4.144 -1.3408  1.1179  0.0451
  125SOPE  C31213418   2.828   1.934   4.303  0.3384 -0.4667 -0.1426
  125SOPE  H12X13419   2.790   1.860   4.376 -2.1234  1.5259  0.7422
  125SOPE  H12Y13420   2.730   1.974   4.268  0.8290  0.9839  0.0398
  125SOPE  C31313421   2.915   2.036   4.385 -0.5414 -0.1166  0.7217
  125SOPE  H13X13422   2.849   2.090   4.456 -1.4029 -0.5897  0.3086
  125SOPE  H13Y13423   2.955   2.111   4.314 -1.4343  1.4840  1.8648
  125SOPE  C31413424   3.033   1.979   4.453 -0.9885 -0.0204 -0.1059
  125SOPE  H14X13425   3.077   2.060   4.515  0.0101 -0.9378  0.4194
  125SOPE  H14Y13426   3.110   1.933   4.387 -3.1409 -2.5430 -0.9964
  125SOPE  C31513427   2.986   1.874   4.558 -0.7977  0.0693 -0.5244
  125SOPE  H15X13428   2.931   1.787   4.515 -0.5202 -0.5596  0.3599
  125SOPE  H15Y13429   2.924   1.935   4.627  0.8458  3.1532 -1.5795
  125SOPE  C31613430   3.110   1.824   4.644  0.0574  0.0235  0.5869
  125SOPE  H16X13431   3.063   1.769   4.728  1.3351 -0.1765  1.1997
  125SOPE  H16Y13432   3.163   1.912   4.685  0.9851 -0.2688  0.0654
  125SOPE  C31713433   3.198   1.719   4.566  0.1595 -0.6588 -0.1133
  125SOPE  H17X13434   3.253   1.656   4.640 -2.8993 -1.1559  1.9268
  125SOPE  H17Y13435   3.278   1.775   4.514 -0.7837  1.3319  0.4917
  125SOPE  C31813436   3.128   1.634   4.458 -0.2372  0.4728 -0.5979
  125SOPE  H18X13437   3.040   1.577   4.495 -0.4683  0.4777 -1.1384
  125SOPE  H18Y13438   3.199   1.558   4.418 -0.5221  0.0195 -0.2482
  125SOPE  H18Z13439   3.094   1.698   4.374  1.4987 -0.3104 -1.9753
  126SOPE     N13440   3.768   5.441   1.915  0.5820 -0.0468 -0.4762
  126SOPE   HN113441   3.754   5.444   2.018 -1.1368  2.7825 -0.6799
  126SOPE   HN213442   3.723   5.353   1.883  0.6844 -0.4476  0.4413
  126SOPE   HN313443   3.867   5.444   1.883 -0.0460  1.6730 -2.4647
  126SOPE   C1213444   3.693   5.555   1.852  0.0808  0.6512  0.1634
  126SOPE  H12A13445   3.584   5.551   1.875  0.0730  2.1705  0.5252
  126SOPE  H12B13446   3.715   5.550   1.743  2.4305 -3.1605  0.6249
  126SOPE   C1113447   3.742   5.686   1.926  0.4249 -0.0821 -0.8878
  126SOPE  H11A13448   3.853   5.688   1.931  0.4147 -0.8472 -0.2261
  126SOPE  H11B13449   3.706   5.695   2.031  0.3362  2.0415 -1.0614
  126SOPE     P13450   3.561   5.870   1.878  0.2025 -0.0430 -0.2573
  126SOPE   O1313451   3.448   5.780   1.850 -0.0805  0.2356  0.3682
  126SOPE   O1413452   3.568   5.992   1.792  0.6129  0.4115 -0.6265
  126SOPE   O1213453   3.692   5.793   1.852 -0.0175 -0.3296  0.1563
  126SOPE   O1113454   3.561   5.903   2.033 -0.2428  0.4680 -0.1762
  126SOPE    C113455   3.667   5.990   2.083 -0.0101  0.0390  0.0447
  126SOPE    HA13456   3.664   6.091   2.038 -0.0819  0.2206  0.4474
  126SOPE    HB13457   3.769   5.961   2.049  0.3655  2.1099 -0.7525
  126SOPE    C213458   3.669   5.996   2.246  0.6622 -0.4608  0.5880
  126SOPE    HS13459   3.600   5.915   2.281 -1.4302 -0.0274 -2.1214
  126SOPE   O2113460   3.634   6.128   2.303  0.5035  0.8077 -0.3414
  126SOPE   C2113461   3.573   6.125   2.416  0.0173  0.0261 -0.4746
  126SOPE   O2213462   3.528   6.029   2.478 -0.0735  0.1765  0.5367
  126SOPE   C2213463   3.569   6.267   2.469 -0.3918 -0.1961 -1.3153
  126SOPE   H2R13464   3.535   6.334   2.387 -1.7206 -0.5273 -1.0644
  126SOPE   H2S13465   3.673   6.287   2.502 -0.9657 -1.2266  1.3332
  126SOPE    C313466   3.812   5.959   2.299 -0.2291  0.4146 -0.1224
  126SOPE    HX13467   3.886   6.038   2.273  0.2805  0.3673  1.1301
  126SOPE    HY13468   3.839   5.858   2.261  1.2715  0.4072  0.8518
  126SOPE   O3113469   3.811   5.958   2.448 -0.1742  0.4701  0.3554
  126SOPE   C3113470   3.765   5.852   2.516 -0.4157 -0.6438 -0.4980
  126SOPE   O3213471   3.717   5.750   2.467 -0.5498  0.2995 -0.5376
  126SOPE   C3213472   3.779   5.880   2.664 -0.2600 -0.2852 -0.1877
  126SOPE   H2X13473   3.703   5.958   2.684  0.5415  0.5050 -0.1868
  126SOPE   H2Y13474   3.877   5.919   2.698  0.4020 -1.5801 -0.5261
  126SOPE   C2313475   3.472   6.283   2.594 -0.3115  0.7052  0.2095
  126SOPE   H3R13476   3.472   6.181   2.638  0.1954  0.2829 -0.7522
  126SOPE   H3S13477   3.370   6.303   2.554 -0.9541 -1.8109  0.4256
  126SOPE   C2413478   3.520   6.378   2.701  0.0644 -0.0141 -0.0972
  126SOPE   H4R13479   3.602   6.444   2.665 -0.7015  1.0680  0.0675
  126SOPE   H4S13480   3.431   6.441   2.724 -1.2686 -1.3665 -1.2871
  126SOPE   C2513481   3.569   6.309   2.820 -0.2630 -0.3195  0.4182
  126SOPE   H5R13482   3.482   6.249   2.853  0.1480 -1.0534  0.2087
  126SOPE   H5S13483   3.655   6.241   2.798 -0.7121 -0.4647 -0.9223
  126SOPE   C2613484   3.613   6.398   2.929  0.4574 -0.1070  0.2403
  126SOPE   H6R13485   3.714   6.440   2.910  0.5059  0.2809  1.2558
  126SOPE   H6S13486   3.551   6.491   2.936  0.5611 -0.0942  1.1467
  126SOPE   C2713487   3.628   6.327   3.061 -0.8402 -0.1236  0.2052
  126SOPE   H7R13488   3.527   6.305   3.102 -2.5757  0.1998 -3.4870
  126SOPE   H7S13489   3.662   6.225   3.032 -0.6136  0.5877 -2.2064
  126SOPE   C2813490   3.720   6.393   3.164 -0.5341  0.0280  0.2521
  126SOPE   H8R13491   3.743   6.319   3.243 -0.1289  0.6437  0.7224
  126SOPE   H8S13492   3.821   6.404   3.119 -0.5250 -1.2415 -0.0504
  126SOPE   C2913493   3.668   6.515   3.238 -0.4668 -0.6049 -0.2948
  126SOPE   H9113494   3.630   6.591   3.168 -1.0254 -1.4497 -0.9293
  126SOPE  C21013495   3.651   6.544   3.363 -0.1744  0.1827 -0.2010
  126SOPE  H10113496   3.610   6.643   3.388 -1.1890 -0.1162 -0.6688
  126SOPE  C21113497   3.695   6.453   3.479  0.9086  0.7540 -0.6027
  126SOPE  H11R13498   3.728   6.353   3.445 -2.2385 -1.0336  1.1202
  126SOPE  H11S13499   3.604   6.451   3.543  0.2566  1.3931 -1.4788
  126SOPE  C21213500   3.816   6.500   3.566 -0.0430  0.0887  0.0159
  126SOPE  H12R13501   3.810   6.609   3.582 -1.3998 -0.0605  0.6556
  126SOPE  H12S13502   3.908   6.494   3.505 -0.0899 -0.6291  0.0043
  126SOPE  C21313503   3.827   6.424   3.697 -0.5285  0.3556 -0.2844
  126SOPE  H13R13504   3.929   6.427   3.740 -1.3422  0.9199  1.7540
  126SOPE  H13S13505   3.804   6.319   3.671 -0.8738  0.4730 -0.4584
  126SOPE  C21413506   3.731   6.479   3.806  0.0193  0.6875  1.1288
  126SOPE  H14R13507   3.629   6.488   3.765  0.9388  1.8875 -1.1054
  126SOPE  H14S13508   3.768   6.581   3.828  1.7737  0.8214 -1.9165
  126SOPE  C21513509   3.746   6.393   3.929 -0.0124  0.2315  0.7786
  126SOPE  H15R13510   3.836   6.330   3.908  0.7930  1.5246  0.1769
  126SOPE  H15S13511   3.661   6.327   3.956  0.2888 -0.4022  0.2068
  126SOPE  C21613512   3.791   6.469   4.047  0.5664 -0.7158 -0.5439
  126SOPE  H16R13513   3.865   6.544   4.014 -0.1446 -0.7829 -2.4405
  126SOPE  H16S13514   3.846   6.403   4.117 -1.7143  0.3066  2.4786
  126SOPE  C21713515   3.694   6.545   4.135 -0.0043 -0.3931  0.2432
  126SOPE  H17R13516   3.612   6.476   4.162 -0.8429  0.5072  0.0939
  126SOPE  H17S13517   3.639   6.629   4.087 -0.2624 -0.6091  0.1578
  126SOPE  C21813518   3.753   6.595   4.273 -0.5849  0.7537 -0.1497
  126SOPE  H18R13519   3.780   6.508   4.336 -1.6573 -1.0443 -2.0775
  126SOPE  H18S13520   3.686   6.671   4.318 -0.4876  1.4001 -1.0669
  126SOPE  H18T13521   3.856   6.633   4.256  0.2974 -0.5648  1.8702
  126SOPE   C3313522   3.750   5.755   2.743 -0.1641 -0.4914 -0.3797
  126SOPE   H3X13523   3.839   5.690   2.729  0.9268  0.8386  0.1507
  126SOPE   H3Y13524   3.662   5.694   2.713  0.1751 -0.9832 -0.3900
  126SOPE   C3413525   3.742   5.797   2.892  0.5825  0.4437  0.0128
  126SOPE   H4X13526   3.663   5.869   2.922  0.8326  1.7915 -2.3365
  126SOPE   H4Y13527   3.841   5.835   2.924  0.9585 -1.1043  0.7729
  126SOPE   C3513528   3.711   5.669   2.974  0.2011  0.3931  0.3384
  126SOPE   H5X13529   3.784   5.590   2.947  0.5713  1.2087 -1.1794
  126SOPE   H5Y13530   3.614   5.621   2.948 -0.3511  1.1890  0.8567
  126SOPE   C3613531   3.706   5.697   3.129 -0.4554 -0.3716  0.5671
  126SOPE   H6X13532   3.620   5.762   3.156 -0.5084  0.0635 -0.6038
  126SOPE   H6Y13533   3.795   5.761   3.148  0.4656 -1.5590  0.3666
  126SOPE   C3713534   3.709   5.571   3.210 -0.0628 -0.0377  0.3672
  126SOPE   H7X13535   3.809   5.522   3.211 -0.0157 -0.0252 -1.2790
  126SOPE   H7Y13536   3.640   5.496   3.165 -2.6523  2.1900  0.4343
  126SOPE   C3813537   3.662   5.588   3.356 -0.8808 -0.2600 -0.0517
  126SOPE   H8X13538   3.597   5.678   3.363 -0.8900 -0.2990  0.3879
  126SOPE   H8Y13539   3.746   5.609   3.425 -2.1502  2.1170  0.8871
  126SOPE   C3913540   3.590   5.457   3.404  0.1941 -0.0491 -0.8169
  126SOPE   H9X13541   3.662   5.376   3.432  0.8824  1.0052  0.6210
  126SOPE   H9Y13542   3.520   5.429   3.323 -1.9474  2.1172  0.1423
  126SOPE  C31013543   3.500   5.474   3.529 -0.0688  0.4092  0.5370
  126SOPE  H10X13544   3.403   5.527   3.515 -0.3312  0.9666  3.5833
  126SOPE  H10Y13545   3.563   5.540   3.592 -0.5326  0.4495  0.9645
  126SOPE  C31113546   3.488   5.334   3.590  0.3669  0.2437 -1.1958
  126SOPE  H11X13547   3.586   5.293   3.623 -0.6523 -1.0090  0.4506
  126SOPE  H11Y13548   3.440   5.264   3.517  0.6593 -1.7475  0.4186
  126SOPE  C31213549   3.394   5.328   3.708  0.3230  0.2261 -0.5578
  126SOPE  H12X13550   3.398   5.223   3.746 -0.4357  0.7684  1.1179
  126SOPE  H12Y13551   3.287   5.339   3.681 -0.1007  1.1628  1.3434
  126SOPE  C31313552   3.432   5.431   3.815  0.3827  0.9469  0.2488
  126SOPE  H13X13553   3.384   5.527   3.786 -0.4787  0.2169 -0.8381
  126SOPE  H13Y13554   3.542   5.447   3.818  0.3732  0.8352  1.6740
  126SOPE  C31413555   3.394   5.383   3.956 -0.0350  0.7522  0.2642
  126SOPE  H14X13556   3.462   5.301   3.985  0.4397  0.9956 -0.1431
  126SOPE  H14Y13557   3.289   5.346   3.951 -0.7207  2.6826 -1.8121
  126SOPE  C31513558   3.392   5.507   4.053 -0.0938  0.1526 -0.5085
  126SOPE  H15X13559   3.314   5.566   4.000  0.8607  0.7841 -1.2504
  126SOPE  H15Y13560   3.495   5.550   4.048  0.4130 -1.0045 -0.3148
  126SOPE  C31613561   3.362   5.452   4.195  0.5266 -0.0145 -0.9337
  126SOPE  H16X13562   3.436   5.370   4.208  2.8020  1.8197 -1.4242
  126SOPE  H16Y13563   3.260   5.409   4.199  1.2800 -1.8244  0.1861
  126SOPE  C31713564   3.386   5.564   4.297 -0.1881 -0.2196  0.5584
  126SOPE  H17X13565   3.495   5.577   4.307  0.0299  1.5737 -2.7461
  126SOPE  H17Y13566   3.342   5.547   4.398  1.2327  0.9873  1.4145
  126SOPE  C31813567   3.335   5.699   4.233  0.7141 -0.4322  0.4477
  126SOPE  H18X13568   3.232   5.693   4.193  1.3166  2.2499 -1.8653
  126SOPE  H18Y13569   3.401   5.743   4.155 -0.6401  0.6580 -0.1362
  126SOPE  H18Z13570   3.324   5.770   4.318  2.0109 -1.2203  1.3164
  127SOPE     N13571   4.458   0.303   2.037  0.2566  0.4502  0.4041
  127SOPE   HN113572   4.370   0.354   2.016  1.3649  2.8252  1.0950
  127SOPE   HN213573   4.517   0.383   2.069 -0.6105  0.7437  1.3515
  127SOPE   HN313574   4.491   0.251   1.954 -0.7189  2.7185 -1.5129
  127SOPE   C1213575   4.449   0.209   2.151 -0.4928  0.3805  0.2644
  127SOPE  H12A13576   4.411   0.273   2.234 -2.9242 -0.6337  0.0180
  127SOPE  H12B13577   4.556   0.186   2.171 -0.4922  0.3614  0.2393
  127SOPE   C1113578   4.362   0.083   2.123 -0.1978 -0.2831 -0.3273
  127SOPE  H11A13579   4.261   0.111   2.086 -0.6161 -1.3804 -0.0514
  127SOPE  H11B13580   4.331   0.042   2.221 -0.6202  0.9234  0.0607
  127SOPE     P13581   4.537  -0.088   2.046  0.0696  0.5250  0.2662
  127SOPE   O1313582   4.638   0.014   2.067 -0.2246 -0.0343 -0.5606
  127SOPE   O1413583   4.548  -0.168   1.920 -0.0482  0.6523 -0.0857
  127SOPE   O1213584   4.402  -0.018   2.034  0.0179 -0.1029  0.0117
  127SOPE   O1113585   4.527  -0.185   2.167  0.4390  0.4953 -0.3296
  127SOPE    C113586   4.454  -0.308   2.159 -0.0154  0.2705 -0.5772
  127SOPE    HA13587   4.522  -0.390   2.126 -2.2929 -0.5258 -3.7626
  127SOPE    HB13588   4.379  -0.317   2.078 -1.1616  0.1541  0.4708
  127SOPE    C213589   4.379  -0.338   2.292  0.1866 -1.0134  0.1526
  127SOPE    HS13590   4.317  -0.251   2.322  0.6276 -1.9094  4.2405
  127SOPE   O2113591   4.471  -0.367   2.396  0.0193  0.5392  0.1001
  127SOPE   C2113592   4.511  -0.265   2.462 -0.1007 -0.0893 -0.2420
  127SOPE   O2213593   4.465  -0.149   2.462 -0.1401  0.3636  0.0009
  127SOPE   C2213594   4.625  -0.306   2.551 -0.0053  0.1330 -0.0634
  127SOPE   H2R13595   4.719  -0.323   2.494 -0.4077 -1.2540 -0.3460
  127SOPE   H2S13596   4.583  -0.388   2.612 -3.0644  1.6914  0.1301
  127SOPE    C313597   4.285  -0.452   2.263 -0.2245 -0.5225 -0.4577
  127SOPE    HX13598   4.348  -0.543   2.262  0.7242  0.1201 -0.6205
  127SOPE    HY13599   4.226  -0.436   2.169 -2.3179  1.8237  1.1157
  127SOPE   O3113600   4.194  -0.472   2.368 -0.2514  0.0267 -0.1467
  127SOPE   C3113601   4.121  -0.582   2.374  0.2341  0.1459 -0.1042
  127SOPE   O3213602   4.115  -0.669   2.287 -0.5737 -0.2404 -0.1213
  127SOPE   C3213603   4.028  -0.573   2.496 -0.8769  0.3238  0.5958
  127SOPE   H2X13604   3.929  -0.616   2.470 -0.4584 -0.2265 -0.1664
  127SOPE   H2Y13605   4.009  -0.465   2.512 -1.5400  0.3895 -0.5320
  127SOPE   C2313606   4.654  -0.193   2.643  0.0096  0.3121  0.2726
  127SOPE   H3R13607   4.567  -0.127   2.664  0.3741  0.6248  0.8176
  127SOPE   H3S13608   4.728  -0.128   2.592 -1.2765  1.2672 -0.4544
  127SOPE   C2413609   4.713  -0.242   2.777  0.1697 -0.5049  0.6310
  127SOPE   H4R13610   4.654  -0.332   2.804 -3.1166  1.3910  0.2822
  127SOPE   H4S13611   4.818  -0.273   2.756  0.7667  0.0769  2.5323
  127SOPE   C2513612   4.722  -0.134   2.887  0.3159  0.5059 -0.0800
  127SOPE   H5R13613   4.794  -0.056   2.855  1.2774  0.4769  1.8470
  127SOPE   H5S13614   4.626  -0.083   2.910  1.1848  1.0225  2.7536
  127SOPE   C2613615   4.764  -0.207   3.022 -0.3327 -0.1454  1.0972
  127SOPE   H6R13616   4.680  -0.265   3.065  0.5835 -1.0708  1.6815
  127SOPE   H6S13617   4.840  -0.280   2.987  1.2638  1.3597  1.2464
  127SOPE   C2713618   4.814  -0.108   3.125  0.3919 -0.5910  0.1495
  127SOPE   H7R13619   4.900  -0.053   3.081 -0.5161  2.5771  2.0279
  127SOPE   H7S13620   4.743  -0.026   3.146  0.4083 -0.1133 -1.5369
  127SOPE   C2813621   4.856  -0.176   3.250 -0.2326  0.9342  0.9870
  127SOPE   H8R13622   4.798  -0.267   3.278  1.4327 -0.8771 -1.0299
  127SOPE   H8S13623   4.955  -0.227   3.250 -2.4802 -4.0314  2.0705
  127SOPE   C2913624   4.871  -0.070   3.358 -0.5504 -0.1044 -0.3780
  127SOPE   H9113625   4.938   0.013   3.332 -2.2663  1.5016  0.0975
  127SOPE  C21013626   4.800  -0.063   3.475 -0.1359  0.1305 -0.1303
  127SOPE  H10113627   4.807   0.022   3.545 -3.2111  1.4747 -1.2574
  127SOPE  C21113628   4.695  -0.160   3.514  0.4037  0.0328  0.3302
  127SOPE  H11R13629   4.705  -0.250   3.449  2.2688  1.0142 -0.8490
  127SOPE  H11S13630   4.588  -0.131   3.503  0.3615 -0.4902 -0.7509
  127SOPE  C21213631   4.708  -0.218   3.659  0.0632  0.1375 -0.5417
  127SOPE  H12R13632   4.731  -0.135   3.729  1.0623  0.2531 -0.9850
  127SOPE  H12S13633   4.795  -0.288   3.658  0.1034  0.1608  0.4206
  127SOPE  C21313634   4.584  -0.287   3.709 -0.0366  0.1223 -0.3828
  127SOPE  H13R13635   4.555  -0.372   3.645  0.4086  0.0394 -0.4761
  127SOPE  H13S13636   4.500  -0.213   3.708 -2.5926 -2.5982 -1.1813
  127SOPE  C21413637   4.593  -0.339   3.854  0.5083 -0.3772  0.9809
  127SOPE  H14R13638   4.552  -0.265   3.927 -1.2208  0.3359 -0.6370
  127SOPE  H14S13639   4.699  -0.349   3.887  0.7651  0.9875  0.6380
  127SOPE  C21513640   4.508  -0.461   3.885 -0.0280 -0.3911  0.0307
  127SOPE  H15R13641   4.421  -0.462   3.816 -1.2148 -4.0037  1.3272
  127SOPE  H15S13642   4.469  -0.454   3.989  0.6733  0.3971  0.2500
  127SOPE  C21613643   4.568  -0.602   3.856  0.5501  0.2508 -0.8707
  127SOPE  H16R13644   4.658  -0.624   3.917 -1.5402  1.1239  2.7939
  127SOPE  H16S13645   4.605  -0.591   3.751  1.0607 -1.0868 -0.8410
  127SOPE  C21713646   4.482  -0.730   3.866 -0.3391  0.5885 -0.2866
  127SOPE  H17R13647   4.542  -0.804   3.809 -0.5870  0.5354 -0.4763
  127SOPE  H17S13648   4.383  -0.710   3.820 -0.8295  0.2284  0.5737
  127SOPE  C21813649   4.446  -0.768   4.012 -1.1397 -0.4270  0.0778
  127SOPE  H18R13650   4.412  -0.681   4.073  0.0283  0.3833 -0.3871
  127SOPE  H18S13651   4.535  -0.806   4.068  0.4434  1.7332 -0.8369
  127SOPE  H18T13652   4.365  -0.843   4.021 -0.1583 -1.6287 -0.7101
  127SOPE   C3313653   4.090  -0.650   2.618  0.2858 -0.2568 -0.5110
  127SOPE   H3X13654   4.193  -0.613   2.636 -0.5509  1.4960  1.0447
  127SOPE   H3Y13655   4.096  -0.760   2.602 -0.1223 -0.3017 -0.3515
  127SOPE   C3413656   4.002  -0.624   2.744  0.6100 -0.9554  0.0267
  127SOPE   H4X13657   3.894  -0.649   2.743  0.2435  0.5543 -0.9971
  127SOPE   H4Y13658   3.991  -0.514   2.746 -0.8893 -1.0283 -1.9359
  127SOPE   C3513659   4.064  -0.670   2.869  0.6497 -0.3778 -0.4750
  127SOPE   H5X13660   4.155  -0.610   2.889  0.4331 -0.0773 -0.3988
  127SOPE   H5Y13661   4.096  -0.775   2.849 -0.7287 -0.8272 -0.3673
  127SOPE   C3613662   3.968  -0.654   2.992  0.5355 -0.4154  0.2775
  127SOPE   H6X13663   3.875  -0.713   2.977  1.3667 -1.1975 -2.4303
  127SOPE   H6Y13664   3.934  -0.550   3.009  0.7176  0.0446 -1.9817
  127SOPE   C3713665   4.047  -0.700   3.122 -0.2092 -0.4143  0.1621
  127SOPE   H7X13666   4.119  -0.618   3.142  1.3211 -1.7495  0.2507
  127SOPE   H7Y13667   4.093  -0.800   3.110 -1.5962 -0.9153 -1.3819
  127SOPE   C3813668   3.967  -0.704   3.251 -0.0975 -0.0200 -0.3003
  127SOPE   H8X13669   3.878  -0.770   3.245 -0.4327  0.5118 -1.4993
  127SOPE   H8Y13670   3.932  -0.599   3.260  0.7008  0.1783  0.7244
  127SOPE   C3913671   4.057  -0.725   3.363  0.1268 -0.5619  0.3344
  127SOPE   H9X13672   4.143  -0.655   3.372  1.8670 -2.6165  0.5334
  127SOPE   H9Y13673   4.109  -0.822   3.351  1.7205  0.2424  0.5122
  127SOPE  C31013674   3.985  -0.720   3.494 -0.4039 -0.0546  0.1485
  127SOPE  H10X13675   3.912  -0.804   3.492  0.8595 -1.1832  0.1620
  127SOPE  H10Y13676   3.928  -0.628   3.518 -0.5480 -0.8821  3.3673
  127SOPE  C31113677   4.071  -0.763   3.614 -0.7365 -0.0198  0.0366
  127SOPE  H11X13678   4.151  -0.686   3.621 -0.8178  0.1273 -0.6446
  127SOPE  H11Y13679   4.110  -0.867   3.616 -0.9851 -0.1307  2.7031
  127SOPE  C31213680   3.991  -0.748   3.748 -0.2124 -0.1893 -0.2363
  127SOPE  H12X13681   3.926  -0.838   3.754 -1.5129  0.7034 -0.4563
  127SOPE  H12Y13682   3.924  -0.660   3.750 -2.8226 -2.0645  1.1192
  127SOPE  C31313683   4.075  -0.741   3.875 -0.4169 -0.0833  0.2348
  127SOPE  H13X13684   4.155  -0.663   3.877 -1.6732  1.2187  1.0021
  127SOPE  H13Y13685   4.130  -0.837   3.879  0.4675  0.3900 -0.0749
  127SOPE  C31413686   3.999  -0.730   4.010 -0.1806 -0.3817 -0.1254
  127SOPE  H14X13687   3.938  -0.638   4.017 -1.2858 -1.2483  3.9767
  127SOPE  H14Y13688   4.077  -0.725   4.089  1.3370  1.6427 -1.6252
  127SOPE  C31513689   3.904  -0.846   4.050 -0.3334  0.0372 -0.3219
  127SOPE  H15X13690   3.858  -0.871   3.951  3.2442  0.2335 -2.2114
  127SOPE  H15Y13691   3.823  -0.804   4.112  2.0559  0.8642  2.4405
  127SOPE  C31613692   3.976  -0.963   4.107  1.1095  0.4706  0.6112
  127SOPE  H16X13693   4.027  -0.938   4.202  1.2730  1.6227  0.2412
  127SOPE  H16Y13694   4.053  -1.009   4.042  0.3071 -0.0091 -0.0268
  127SOPE  C31713695   3.872  -1.073   4.144 -0.1240 -0.1561  0.4396
  127SOPE  H17X13696   3.829  -1.119   4.052 -0.1174 -0.3713  0.5435
  127SOPE  H17Y13697   3.788  -1.029   4.202  0.1403 -0.8920  1.4127
  127SOPE  C31813698   3.940  -1.192   4.227  0.8030  0.6508 -0.3869
  127SOPE  H18X13699   3.979  -1.148   4.321  0.5933  1.1934 -0.5521
  127SOPE  H18Y13700   4.027  -1.235   4.173  0.6640 -0.2024  0.0474
  127SOPE  H18Z13701   3.865  -1.273   4.244  2.8434 -0.9196  1.7637
  128SOPE     N13702   1.686   0.573   2.296 -0.0082 -0.5166  0.4459
  128SOPE   HN113703   1.623   0.606   2.220 -1.7417  0.4816  2.2073
  128SOPE   HN213704   1.629   0.552   2.381  0.0321 -1.0568  0.3434
  128SOPE   HN313705   1.752   0.648   2.324 -1.3315  0.6949  0.4260
  128SOPE   C1213706   1.748   0.446   2.253 -0.3953  0.0756 -0.5100
  128SOPE  H12A13707   1.834   0.432   2.322 -0.1964  2.7907 -0.0981
  128SOPE  H12B13708   1.780   0.461   2.147  0.3610 -3.5668 -0.9266
  128SOPE   C1113709   1.655   0.326   2.262 -0.2209  0.1698 -0.2756
  128SOPE  H11A13710   1.640   0.290   2.366 -0.3273 -2.6258 -1.1690
  128SOPE  H11B13711   1.706   0.248   2.201  0.1743 -0.5102  0.8996
  128SOPE     P13712   1.391   0.322   2.253 -0.2540 -0.3355 -0.4093
  128SOPE   O1313713   1.374   0.173   2.266 -0.2296  0.1062 -0.3672
  128SOPE   O1413714   1.288   0.395   2.176  0.1456 -0.3349  0.1972
  128SOPE   O1213715   1.531   0.353   2.194  0.1973 -0.4831  0.4007
  128SOPE   O1113716   1.383   0.389   2.393 -0.4838 -0.4985  0.1464
  128SOPE    C113717   1.282   0.359   2.491 -0.6440  0.2966  1.0142
  128SOPE    HA13718   1.317   0.396   2.590  2.6663 -2.4921  1.0395
  128SOPE    HB13719   1.275   0.249   2.500  2.8745 -0.3419 -1.8991
  128SOPE    C213720   1.138   0.421   2.470 -0.3560 -0.3705  0.6628
  128SOPE    HS13721   1.131   0.431   2.359  0.8713  0.3622  0.6243
  128SOPE   O2113722   1.138   0.544   2.544  0.4121 -0.2489 -0.3007
  128SOPE   C2113723   1.048   0.641   2.513  0.0801 -0.6240  0.1713
  128SOPE   O2213724   0.963   0.636   2.427 -0.3887  0.0139  0.2049
  128SOPE   C2213725   1.077   0.776   2.595  0.0602 -0.1492 -0.8058
  128SOPE   H2R13726   1.087   0.860   2.523 -1.0506  0.3315 -0.4115
  128SOPE   H2S13727   1.172   0.756   2.651 -1.2856 -0.9885  1.3211
  128SOPE    C313728   1.019   0.331   2.525  0.8086  0.0194 -0.1926
  128SOPE    HX13729   1.034   0.231   2.479 -1.5450 -0.2600 -0.4959
  128SOPE    HY13730   0.927   0.381   2.487  1.1459  0.2211 -0.7683
  128SOPE   O3113731   1.014   0.323   2.673 -0.3491  0.2271  0.3941
  128SOPE   C3113732   0.898   0.283   2.720 -0.0465  0.2981  0.2101
  128SOPE   O3213733   0.815   0.216   2.659 -0.3540 -0.5395  0.0803
  128SOPE   C3213734   0.879   0.327   2.866 -0.4908 -0.2694  0.2466
  128SOPE   H2X13735   0.830   0.426   2.863 -1.7429 -0.8833  0.1286
  128SOPE   H2Y13736   0.980   0.352   2.907 -1.1114  0.6072  1.2800
  128SOPE   C2313737   0.962   0.803   2.701  0.2004 -0.1856 -0.2247
  128SOPE   H3R13738   0.867   0.797   2.644  2.4631  0.7118 -4.5206
  128SOPE   H3S13739   0.977   0.900   2.753 -2.2828 -0.7463  1.7610
  128SOPE   C2413740   0.960   0.709   2.821  0.8262  0.0678  0.3253
  128SOPE   H4R13741   0.964   0.601   2.797  3.4760  0.5093 -1.6176
  128SOPE   H4S13742   1.052   0.726   2.881  2.0824 -0.3757 -1.4054
  128SOPE   C2513743   0.841   0.722   2.908  0.1812  0.2341 -0.1610
  128SOPE   H5R13744   0.744   0.727   2.854  0.4178 -0.7671 -0.7072
  128SOPE   H5S13745   0.835   0.631   2.971  0.0867 -1.5268 -2.5552
  128SOPE   C2613746   0.847   0.839   3.005 -0.1825 -0.3530  0.4421
  128SOPE   H6R13747   0.944   0.840   3.059  0.7450  0.6557 -1.1542
  128SOPE   H6S13748   0.836   0.936   2.953  2.1152  0.8948  2.0826
  128SOPE   C2713749   0.735   0.830   3.111 -0.3339  0.4422 -0.2096
  128SOPE   H7R13750   0.630   0.814   3.077  0.5684 -1.1070 -2.4519
  128SOPE   H7S13751   0.764   0.740   3.170 -1.3402  0.9831  1.1858
  128SOPE   C2813752   0.755   0.946   3.208 -0.8707  0.1748 -0.2102
  128SOPE   H8R13753   0.864   0.950   3.227 -0.9809 -2.9725  1.9654
  128SOPE   H8S13754   0.717   1.038   3.159  0.8838  1.8919  1.5295
  128SOPE   C2913755   0.682   0.923   3.338  0.4180  0.9762  0.0199
  128SOPE   H9113756   0.738   0.860   3.408  0.8031  1.7611  0.4384
  128SOPE  C21013757   0.565   0.976   3.391 -0.1280  0.0861 -0.1192
  128SOPE  H10113758   0.539   0.941   3.492 -0.6491 -1.2174 -0.6788
  128SOPE  C21113759   0.469   1.068   3.331  0.1409  0.0875  0.2792
  128SOPE  H11R13760   0.386   0.996   3.318  1.0036 -0.9294  0.1987
  128SOPE  H11S13761   0.503   1.106   3.232 -1.1431 -1.3892 -0.7779
  128SOPE  C21213762   0.445   1.194   3.409  1.0139 -0.2118 -0.3669
  128SOPE  H12R13763   0.437   1.277   3.336  0.7418 -0.9603 -1.2121
  128SOPE  H12S13764   0.529   1.226   3.474  0.2359 -1.5213  1.3560
  128SOPE  C21313765   0.308   1.193   3.486 -0.3023  0.3766 -0.1322
  128SOPE  H13R13766   0.292   1.101   3.547 -1.3004  1.4440  1.2767
  128SOPE  H13S13767   0.228   1.191   3.408 -0.1859  2.7118 -0.3776
  128SOPE  C21413768   0.273   1.313   3.573 -0.4666 -0.2492  0.4972
  128SOPE  H14R13769   0.288   1.397   3.502  1.8767 -1.5003 -0.6253
  128SOPE  H14S13770   0.363   1.322   3.638  0.6839 -1.0259 -0.9189
  128SOPE  C21513771   0.138   1.311   3.639 -0.3669 -0.2357  0.1363
  128SOPE  H15R13772   0.073   1.244   3.579  0.8203 -1.4451  0.1671
  128SOPE  H15S13773   0.097   1.414   3.633  1.2142  0.3748 -1.1390
  128SOPE  C21613774   0.121   1.258   3.780 -0.2691 -0.2273  0.3459
  128SOPE  H16R13775   0.181   1.321   3.849 -0.7172  0.2538  0.3064
  128SOPE  H16S13776   0.165   1.156   3.780  1.0575  0.2986 -1.4520
  128SOPE  C21713777  -0.027   1.261   3.834 -0.7737  0.5574  0.7591
  128SOPE  H17R13778  -0.085   1.178   3.790  0.7681  0.0390 -0.3813
  128SOPE  H17S13779  -0.071   1.353   3.789 -2.7475  0.1967  1.8380
  128SOPE  C21813780  -0.025   1.253   3.991 -0.1640 -0.0892  0.2204
  128SOPE  H18R13781  -0.124   1.273   4.038  0.9177  1.7665  1.8906
  128SOPE  H18S13782   0.051   1.319   4.039  1.0563 -2.1723  1.3041
  128SOPE  H18T13783   0.000   1.150   4.022 -0.8050 -0.1043  0.6968
  128SOPE   C3313784   0.800   0.225   2.948  0.0225  0.5199  0.4067
  128SOPE   H3X13785   0.699   0.216   2.902  1.5481  0.7300 -3.2527
  128SOPE   H3Y13786   0.789   0.280   3.044 -1.8695  0.7772  0.0967
  128SOPE   C3413787   0.880   0.091   2.965 -0.6205 -0.0653 -0.2453
  128SOPE   H4X13788   0.988   0.115   2.960 -1.0580  1.9372 -1.4511
  128SOPE   H4Y13789   0.864   0.040   2.868  3.5800  0.1901 -1.2276
  128SOPE   C3513790   0.842   0.010   3.096  0.1799  0.2229  0.3845
  128SOPE   H5X13791   0.733  -0.008   3.091  0.2785 -0.0903 -0.9512
  128SOPE   H5Y13792   0.869   0.075   3.182 -1.0263 -0.5716  1.3906
  128SOPE   C3613793   0.912  -0.126   3.102 -0.7197  0.1303  0.1867
  128SOPE   H6X13794   1.019  -0.097   3.095 -1.0250  0.8874 -2.0772
  128SOPE   H6Y13795   0.892  -0.200   3.022  3.9219 -1.6914  0.4080
  128SOPE   C3713796   0.896  -0.198   3.241 -0.3480 -0.2193 -0.3242
  128SOPE   H7X13797   0.935  -0.301   3.234 -1.7328 -0.8580  0.8875
  128SOPE   H7Y13798   0.787  -0.206   3.264  0.0278  1.1022  2.3222
  128SOPE   C3813799   0.976  -0.123   3.354 -0.1127  0.3928  0.2003
  128SOPE   H8X13800   0.918  -0.032   3.377 -3.2548 -1.6189  0.8826
  128SOPE   H8Y13801   1.074  -0.094   3.310  0.1979 -2.5346 -1.3038
  128SOPE   C3913802   0.996  -0.204   3.483  0.5820 -0.6680  0.2971
  128SOPE   H9X13803   1.085  -0.269   3.471  1.5761  0.8921 -1.3130
  128SOPE   H9Y13804   0.905  -0.259   3.515  0.0208 -0.2632 -0.5556
  128SOPE  C31013805   1.029  -0.122   3.611  0.7010 -1.7988  0.9324
  128SOPE  H10X13806   1.118  -0.066   3.575 -0.5209  1.2223  2.2786
  128SOPE  H10Y13807   1.065  -0.185   3.695  1.5162 -2.1260  0.3513
  128SOPE  C31113808   0.915  -0.021   3.651  0.3218 -0.5856  0.4000
  128SOPE  H11X13809   0.830  -0.076   3.696  0.1741  1.9132  3.5555
  128SOPE  H11Y13810   0.873   0.034   3.565 -0.0895 -1.3096  0.1260
  128SOPE  C31213811   0.955   0.074   3.763 -0.4566 -0.2323  0.6485
  128SOPE  H12X13812   1.029   0.144   3.718 -1.0091 -1.4431 -2.4133
  128SOPE  H12Y13813   0.999   0.021   3.850  3.7090  0.9578 -0.5042
  128SOPE  C31313814   0.838   0.158   3.811  0.0670  0.3278 -0.0562
  128SOPE  H13X13815   0.764   0.086   3.853  0.0557  0.4931  0.2130
  128SOPE  H13Y13816   0.778   0.210   3.733 -0.9630 -1.5930 -0.5869
  128SOPE  C31413817   0.888   0.256   3.910  0.1144  0.2868 -0.0952
  128SOPE  H14X13818   0.964   0.320   3.860  0.0685  1.8460  1.6936
  128SOPE  H14Y13819   0.933   0.214   4.002  1.2993  1.4482 -0.1111
  128SOPE  C31513820   0.776   0.345   3.959  0.4533 -0.1673 -0.2377
  128SOPE  H15X13821   0.705   0.283   4.017 -2.3512  2.9485 -0.0562
  128SOPE  H15Y13822   0.710   0.386   3.880 -0.3625 -0.4536  0.2766
  128SOPE  C31613823   0.817   0.459   4.047  0.1345 -0.5616  0.0005
  128SOPE  H16X13824   0.881   0.526   3.986 -1.0844 -0.8540 -1.6908
  128SOPE  H16Y13825   0.878   0.415   4.128 -0.0442  0.2807  0.6020
  128SOPE  C31713826   0.704   0.540   4.115  0.1603 -0.5237  0.3667
  128SOPE  H17X13827   0.627   0.463   4.137 -0.2349 -0.5720 -1.1232
  128SOPE  H17Y13828   0.669   0.613   4.039  2.8928  1.4554  0.8652
  128SOPE  C31813829   0.739   0.599   4.251 -0.1641  0.7853 -0.2709
  128SOPE  H18X13830   0.657   0.650   4.305 -1.5827  0.5456 -2.1125
  128SOPE  H18Y13831   0.823   0.671   4.247  0.1600  0.4332  0.1146
  128SOPE  H18Z13832   0.762   0.514   4.318 -3.4680  0.8569  1.1120
  129OSM      N13833   0.224   6.210   6.809 -0.7099  1.0481 -0.7006
  129OSM    C1513834   0.139   6.169   6.693 -0.2763  0.2918 -0.0945
  129OSM   H15A13835   0.034   6.174   6.717 -0.5758  1.4617 -1.4794
  129OSM   H15B13836   0.165   6.070   6.658  0.9117 -0.1256  1.8288
  129OSM   H15C13837   0.153   6.222   6.600 -1.2671 -3.0703 -2.3898
  129OSM    C1413838   0.166   6.339   6.867  0.9200  0.0640  0.3164
  129OSM   H14A13839   0.150   6.408   6.786  3.1885 -0.0818 -0.3323
  129OSM   H14B13840   0.229   6.386   6.941 -0.5569  2.0321  0.3841
  129OSM   H14C13841   0.074   6.311   6.915 -0.2643  1.2914 -1.1465
  129OSM    C1313842   0.207   6.097   6.913 -0.0324  0.3129  0.3246
  129OSM   H13A13843   0.225   6.110   7.018  0.2783 -1.4917  0.5267
  129OSM   H13B13844   0.267   6.010   6.890 -0.6711  0.0983 -0.6108
  129OSM   H13C13845   0.105   6.062   6.904  0.1796 -1.1169  2.6595
  129OSM    C1213846   0.370   6.237   6.769 -0.3272 -0.0776 -0.3221
  129OSM   H12A13847   0.412   6.148   6.725 -0.2772  0.4719 -1.4132
  129OSM   H12B13848   0.423   6.265   6.859 -0.3601  0.8502 -0.5788
  129OSM    C1113849   0.386   6.350   6.655  0.4966 -0.0186 -0.4114
  129OSM   H11A13850   0.307   6.337   6.578 -0.7452  0.9550  0.6542
  129OSM   H11B13851   0.485   6.333   6.606  2.3226 -1.3401  3.3254
  129OSM      P13852   0.390   6.614   6.633  0.3725  0.3128 -0.0823
  129OSM    O1313853   0.315   6.722   6.703  0.1482 -0.3645 -0.0795
  129OSM    O1413854   0.534   6.630   6.611 -0.1882  0.3224 -0.1619
  129OSM    O1113855   0.318   6.580   6.492 -0.0716  0.0848  0.1319
  129OSM    O1213856   0.373   6.478   6.718 -0.5955 -0.0971 -0.0104
  129OSM    C1S13857   0.213   6.657   6.438 -0.2134  0.7577 -0.3101
  129OSM    H1S13858   0.251   6.760   6.415 -1.3561  0.7842 -2.3193
  129OSM    H1T13859   0.125   6.659   6.506 -0.4056  0.6638 -0.5554
  129OSM     NF13860   0.054   6.694   6.227 -0.5147  0.1663 -0.3771
  129OSM    HNF13861  -0.024   6.650   6.184 -0.3616 -1.8139  1.2297
  129OSM    C2S13862   0.160   6.609   6.289 -0.8439  0.1465 -0.3540
  129OSM    H2S13863   0.247   6.622   6.221 -0.0075  0.1519  0.6975
  129OSM    C3S13864   0.134   6.458   6.275  0.3349 -1.2026  0.0956
  129OSM    H3S13865   0.029   6.454   6.309  0.2129  3.1157  0.7877
  129OSM     O313866   0.211   6.366   6.350  0.0926 -0.1854 -0.6721
  129OSM    HO313867   0.269   6.420   6.404 -2.0212  2.5274 -0.8455
  129OSM    C4S13868   0.124   6.419   6.124  0.5772  0.3992  0.3009
  129OSM    H4S13869   0.051   6.476   6.065 -0.6587  0.8881  2.2116
  129OSM    C5S13870   0.210   6.340   6.055  0.5174  0.6860 -0.2595
  129OSM    H5S13871   0.302   6.308   6.106 -0.3928  0.9897  1.6890
  129OSM    C6S13872   0.200   6.295   5.910  0.5581 -0.7863 -0.4641
  129OSM    H6S13873   0.117   6.352   5.863 -0.0307 -0.8469  0.4601
  129OSM    H6T13874   0.165   6.190   5.911 -2.2020 -0.0105 -2.2896
  129OSM    C7S13875   0.331   6.311   5.833 -0.5270 -0.1516 -0.0378
  129OSM    H7S13876   0.406   6.245   5.881 -0.9136  0.2370  1.1407
  129OSM    H7T13877   0.369   6.416   5.829 -1.6865  0.2793 -0.1469
  129OSM    C8S13878   0.305   6.270   5.693  0.0546  0.4189  0.0921
  129OSM    H8S13879   0.207   6.304   5.654 -0.5067 -1.1746  0.0424
  129OSM    H8T13880   0.302   6.160   5.679  2.4759  0.2737  0.2201
  129OSM    C9S13881   0.412   6.325   5.596 -0.1469  0.3211 -0.2410
  129OSM    H9S13882   0.507   6.292   5.643  0.3189 -0.5726 -1.7153
  129OSM    H9T13883   0.409   6.435   5.590  1.0171  0.3182 -1.4972
  129OSM   C10S13884   0.401   6.264   5.455 -0.5945  0.5711 -0.3289
  129OSM   H10S13885   0.411   6.154   5.458 -0.1151  0.5947 -0.9852
  129OSM   H10T13886   0.487   6.309   5.402  0.3478 -0.0719  0.6229
  129OSM   C11S13887   0.285   6.315   5.372  0.5894 -0.9209  0.2829
  129OSM   H11S13888   0.294   6.426   5.371 -0.5520 -0.7516  2.2451
  129OSM   H11T13889   0.195   6.281   5.427  1.0744 -2.1897  0.3359
  129OSM   C12S13890   0.286   6.279   5.225  0.4630 -0.4205 -0.2827
  129OSM   H12S13891   0.188   6.303   5.179 -0.2870 -2.9766 -0.1641
  129OSM   H12T13892   0.293   6.168   5.229  2.2694 -0.3132  1.1652
  129OSM   C13S13893   0.393   6.332   5.132  0.3720  0.0115 -0.4750
  129OSM   H13S13894   0.488   6.299   5.180 -0.3507 -0.7849  0.4436
  129OSM   H13T13895   0.389   6.443   5.123 -1.0382 -0.1221 -1.9061
  129OSM   C14S13896   0.380   6.278   4.988  0.1930 -0.3468 -0.4480
  129OSM   H14S13897   0.345   6.173   4.989 -0.9825 -0.1400 -4.3327
  129OSM   H14T13898   0.483   6.272   4.948  0.5732  1.8197  0.0468
  129OSM   C15S13899   0.284   6.365   4.898 -0.2747 -0.3815 -0.4551
  129OSM   H15S13900   0.332   6.465   4.889  0.5019 -0.6641  0.3433
  129OSM   H15T13901   0.185   6.368   4.947 -0.3120 -0.2824 -0.5358
  129OSM   C16S13902   0.283   6.298   4.758  0.6718 -0.5471 -0.3240
  129OSM   H16S13903   0.220   6.208   4.772 -0.9364  0.3009 -1.8478
  129OSM   H16T13904   0.388   6.270   4.735  1.4577 -0.8839  3.0886
  129OSM   C17S13905   0.228   6.388   4.649  0.4328 -0.2186  0.4216
  129OSM   H17S13906   0.290   6.479   4.632  1.0016 -0.8502 -1.0285
  129OSM   H17T13907   0.124   6.414   4.677  0.7525  1.6589  0.0425
  129OSM   C18S13908   0.214   6.304   4.515 -0.1208  0.5260 -0.3711
  129OSM   H18S13909   0.300   6.237   4.493 -2.0836 -2.2775 -0.0054
  129OSM   H18T13910   0.187   6.365   4.425 -0.4988  1.2268  0.2064
  129OSM   H18U13911   0.122   6.243   4.531 -0.6615  1.0998 -1.2039
  129OSM    C1F13912   0.078   6.820   6.214  0.5767  0.1196  0.5917
  129OSM     OF13913   0.191   6.869   6.234  0.2187  0.8408  0.4093
  129OSM    C2F13914  -0.035   6.903   6.177 -0.8480 -0.4472  0.2780
  129OSM    H2F13915  -0.053   6.973   6.261  3.6788  2.0940 -0.5346
  129OSM    H2G13916  -0.128   6.852   6.145  0.9646 -1.9194 -3.2773
  129OSM    C3F13917   0.006   6.998   6.064  0.2532  0.6083 -0.2265
  129OSM    H3F13918   0.004   6.930   5.976 -0.7240 -0.1508  0.3527
  129OSM    H3G13919   0.107   7.043   6.071  0.5427 -0.2509  1.8307
  129OSM    C4F13920  -0.093   7.108   6.051  1.0126 -0.2936  0.2470
  129OSM    H4F13921  -0.075   7.171   6.141  0.4171 -0.5145  0.5312
  129OSM    H4G13922  -0.197   7.069   6.061  0.3789  1.6585  1.9239
  129OSM    C5F13923  -0.079   7.199   5.927  0.4512  0.2395 -0.5138
  129OSM    H5F13924   0.021   7.249   5.920  0.2508  0.6475 -0.4838
  129OSM    H5G13925  -0.160   7.275   5.928 -0.8251 -0.9434  3.2825
  129OSM    C6F13926  -0.105   7.122   5.794  0.6458  0.0472 -0.5080
  129OSM    H6F13927  -0.186   7.046   5.804 -1.1595  1.9754  0.0851
  129OSM    H6G13928  -0.009   7.073   5.766  1.1413  1.3815 -1.2106
  129OSM    C7F13929  -0.145   7.225   5.691  0.2431 -0.1436  0.1552
  129OSM    H7F13930  -0.059   7.289   5.664  0.5972 -0.4673  0.4948
  129OSM    H7G13931  -0.228   7.292   5.722  0.8238 -0.0736  1.6511
  129OSM    C8F13932  -0.194   7.155   5.560  0.0521  0.4256 -0.8516
  129OSM    H8F13933  -0.288   7.103   5.588 -0.1597  1.3165  0.1699
  129OSM    H8G13934  -0.119   7.082   5.523  0.0777  0.2647 -0.4854
  129OSM    C9F13935  -0.228   7.249   5.445  0.1217  0.0039  1.1974
  129OSM    H9F13936  -0.334   7.278   5.435 -0.9976 -3.9634 -0.0437
  129OSM   C10F13937  -0.152   7.254   5.331  0.1347  0.1607  0.0094
  129OSM   H10F13938  -0.198   7.307   5.246  0.1904  1.8386  0.9993
  129OSM   C11F13939  -0.016   7.201   5.311 -0.1553 -0.1758  0.7122
  129OSM   H11F13940   0.031   7.195   5.411  0.5897  0.5504  0.4176
  129OSM   H11G13941   0.050   7.276   5.262 -0.9941  1.0153  1.3409
  129OSM   C12F13942  -0.018   7.070   5.236 -0.0175 -0.0669 -0.1517
  129OSM   H12F13943  -0.115   7.018   5.246  0.0279 -0.4121 -1.3561
  129OSM   H12G13944   0.056   7.006   5.289 -0.3942 -0.2602  0.1375
  129OSM   C13F13945   0.015   7.079   5.092  0.4219 -0.3422 -0.1849
  129OSM   H13F13946   0.115   7.127   5.083  0.3195 -0.0969 -0.0269
  129OSM   H13G13947  -0.052   7.156   5.049  1.2369 -0.4538 -1.7469
  129OSM   C14F13948   0.008   6.951   5.021 -0.1527  0.0063  0.0631
  129OSM   H14F13949  -0.093   6.906   5.033 -1.3127  2.2104 -0.8548
  129OSM   H14G13950   0.078   6.878   5.065 -2.1134 -2.2499 -0.3475
  129OSM   C15F13951   0.024   6.950   4.867 -0.3682 -0.0608 -0.3044
  129OSM   H15F13952   0.131   6.974   4.851  0.2998 -0.3103  3.0982
  129OSM   H15G13953  -0.049   7.021   4.823 -0.1729  0.7003  0.5617
  129OSM   C16F13954  -0.013   6.811   4.814  0.2297 -0.0145 -0.5652
  129OSM   H16F13955  -0.120   6.791   4.837  1.0458 -1.3161  2.6008
  129OSM   H16G13956   0.060   6.750   4.872 -1.3346 -1.6192 -0.1981
  129OSM   C17F13957   0.021   6.786   4.669  0.4843  0.4740  0.7187
  129OSM   H17F13958  -0.027   6.866   4.610  3.1707  0.3989 -1.8043
  129OSM   H17G13959  -0.034   6.693   4.643 -0.9308  1.4827 -0.0014
  129OSM   C18F13960   0.168   6.771   4.639  0.1512 -0.0402  0.1556
  129OSM   H18F13961   0.218   6.870   4.647  1.2026 -0.6182  1.0278
  129OSM   H18G13962   0.179   6.727   4.538  0.3930 -1.6718  0.8676
  129OSM   H18H13963   0.208   6.701   4.716 -1.6662  0.7275  1.9007
  130OSM      N13964   5.234   3.122   7.390 -0.2584 -0.2817 -0.5332
  130OSM    C1513965   5.293   2.981   7.407  0.0650  0.2542 -0.2588
  130OSM   H15A13966   5.265   2.907   7.333  1.0264 -2.5406  1.9867
  130OSM   H15B13967   5.250   2.942   7.498  0.0062 -0.1657 -0.4633
  130OSM   H15C13968   5.401   2.979   7.413 -0.0155 -0.7939  1.2302
  130OSM    C1413969   5.085   3.115   7.398 -0.3744 -0.0983  0.6707
  130OSM   H14A13970   5.049   3.216   7.402  0.4968  0.3522 -1.4503
  130OSM   H14B13971   5.054   3.059   7.485  1.1910 -1.3940  0.4648
  130OSM   H14C13972   5.046   3.062   7.313 -2.6713 -1.8627  2.6730
  130OSM    C1313973   5.294   3.212   7.506 -0.1034  0.7455 -0.2505
  130OSM   H13A13974   5.259   3.175   7.601 -0.7150  1.0180 -0.3647
  130OSM   H13B13975   5.266   3.314   7.487 -2.2053  0.2526 -0.0260
  130OSM   H13C13976   5.402   3.214   7.500 -0.1025  2.3932 -0.1811
  130OSM    C1213977   5.285   3.185   7.264  0.0558  0.5556  0.0459
  130OSM   H12A13978   5.391   3.207   7.265  0.4305 -0.8023 -1.9567
  130OSM   H12B13979   5.245   3.283   7.246  0.9170  0.5117 -2.7170
  130OSM    C1113980   5.283   3.100   7.130 -0.3110 -0.5328  0.4569
  130OSM   H11A13981   5.345   3.010   7.148  1.1022 -0.0918 -1.8215
  130OSM   H11B13982   5.333   3.159   7.051  0.4046  0.1786  1.4211
  130OSM      P13983   5.073   3.149   6.986 -0.1230 -0.1337  0.1723
  130OSM    O1313984   4.948   3.085   6.951  0.0148  0.1894  0.5981
  130OSM    O1413985   5.068   3.288   7.026  0.3243 -0.4275 -0.5044
  130OSM    O1113986   5.177   3.152   6.860 -0.3718 -0.1806  0.6544
  130OSM    O1213987   5.146   3.065   7.097 -0.6147  0.3102  0.4971
  130OSM    C1S13988   5.197   3.041   6.774  0.1873 -0.5647 -0.3902
  130OSM    H1S13989   5.138   2.954   6.808 -0.3310 -0.0357  0.0792
  130OSM    H1T13990   5.299   2.998   6.762  0.6554  0.7092 -1.2685
  130OSM     NF13991   5.148   3.007   6.524  0.1377  0.7014  0.0186
  130OSM    HNF13992   5.229   3.007   6.467 -0.6360  1.5311 -1.1236
  130OSM    C2S13993   5.152   3.098   6.633 -0.2454 -0.5603 -0.0077
  130OSM    H2S13994   5.047   3.135   6.638  0.1718  0.6910 -0.0322
  130OSM    C3S13995   5.249   3.215   6.585  0.8237 -0.2639  0.7422
  130OSM    H3S13996   5.348   3.169   6.566  1.3499  1.8527 -2.3848
  130OSM     O313997   5.279   3.309   6.684 -0.1698 -0.3832 -0.3204
  130OSM    HO313998   5.237   3.266   6.759  0.6171 -2.9025 -1.2315
  130OSM    C4S13999   5.205   3.274   6.445 -0.6682 -0.4982  0.4657
  130OSM    H4S14000   5.263   3.230   6.363 -1.7998  0.0889 -0.6859
  130OSM    C5S14001   5.141   3.391   6.426  0.4268 -0.3753 -0.6619
  130OSM    H5S14002   5.119   3.464   6.505 -1.2252  0.4706 -1.8501
  130OSM    C6S14003   5.117   3.458   6.293  0.3483  0.0067 -0.6741
  130OSM    H6S14004   5.156   3.561   6.304 -0.6045  0.1618  1.8908
  130OSM    H6T14005   5.007   3.462   6.275  0.4996 -0.3201 -1.7483
  130OSM    C7S14006   5.189   3.389   6.179  0.6167 -0.0184 -0.0192
  130OSM    H7S14007   5.162   3.283   6.165  0.4687  0.0174 -0.0121
  130OSM    H7T14008   5.299   3.392   6.194  0.5067  1.5976  0.6909
  130OSM    C8S14009   5.164   3.455   6.047 -0.8688  0.1654 -0.1317
  130OSM    H8S14010   5.219   3.551   6.049 -1.0913  0.2804  1.0911
  130OSM    H8T14011   5.058   3.486   6.033 -1.1316 -0.2222  0.9012
  130OSM    C9S14012   5.219   3.369   5.929 -0.0364 -0.1175  1.0860
  130OSM    H9S14013   5.149   3.284   5.911  0.3319 -0.1356 -0.3720
  130OSM    H9T14014   5.310   3.321   5.971 -1.0828 -1.5302  1.8688
  130OSM   C10S14015   5.256   3.447   5.804 -0.3065 -0.0345  0.6665
  130OSM   H10S14016   5.314   3.537   5.833  1.1069 -0.4439 -0.7294
  130OSM   H10T14017   5.159   3.481   5.762  0.1195  1.1503  0.6169
  130OSM   C11S14018   5.332   3.365   5.697 -0.3639 -0.5179 -0.1259
  130OSM   H11S14019   5.283   3.266   5.703  1.0618 -1.2655 -0.4016
  130OSM   H11T14020   5.436   3.355   5.736  0.7336 -0.0651 -2.6886
  130OSM   C12S14021   5.323   3.433   5.560 -0.6942 -0.3557 -0.2723
  130OSM   H12S14022   5.372   3.532   5.573  1.0007 -1.1522 -0.3219
  130OSM   H12T14023   5.214   3.453   5.544 -0.9574 -1.5420 -0.0238
  130OSM   C13S14024   5.386   3.354   5.449 -1.0015 -0.2172 -0.3294
  130OSM   H13S14025   5.345   3.252   5.433  0.2757 -0.6819 -0.7692
  130OSM   H13T14026   5.492   3.334   5.475 -0.4997 -0.4024 -2.2960
  130OSM   C14S14027   5.390   3.433   5.314  0.1612  0.6510 -0.5980
  130OSM   H14S14028   5.449   3.526   5.334 -0.7560  1.2254 -0.5253
  130OSM   H14T14029   5.291   3.471   5.282  0.3853  1.6009 -0.1992
  130OSM   C15S14030   5.449   3.345   5.212 -0.6312 -0.6040 -0.2704
  130OSM   H15S14031   5.399   3.247   5.196 -3.9398  0.6321  1.4837
  130OSM   H15T14032   5.553   3.325   5.244 -0.1774 -3.0495 -2.9009
  130OSM   C16S14033   5.449   3.413   5.078  0.0408 -0.4047  0.5171
  130OSM   H16S14034   5.505   3.355   5.002 -0.9047  0.2981 -0.7489
  130OSM   H16T14035   5.508   3.507   5.080 -0.4073 -0.1057  0.1964
  130OSM   C17S14036   5.312   3.455   5.026 -0.5562  0.0752  0.0177
  130OSM   H17S14037   5.328   3.513   4.932 -1.4356 -1.3606 -1.0556
  130OSM   H17T14038   5.267   3.519   5.105  2.6892  0.9505  1.3086
  130OSM   C18S14039   5.226   3.330   4.993 -0.1144 -0.0144 -0.4266
  130OSM   H18S14040   5.297   3.253   4.953  2.5542  0.5137  2.8800
  130OSM   H18T14041   5.150   3.342   4.913  1.6564 -2.2865 -2.6373
  130OSM   H18U14042   5.184   3.292   5.088  0.3493  0.3235 -0.0869
  130OSM    C1F14043   5.065   2.901   6.528 -0.1470 -0.2445  0.3501
  130OSM     OF14044   4.980   2.888   6.618 -0.1277  0.1260 -0.0310
  130OSM    C2F14045   5.073   2.811   6.413  0.5910  0.6015 -0.5014
  130OSM    H2F14046   5.118   2.712   6.439  0.2530  0.3598 -0.8094
  130OSM    H2G14047   5.142   2.862   6.343  1.9879  1.6924  1.5792
  130OSM    C3F14048   4.937   2.787   6.343 -0.7575  0.9445  0.6277
  130OSM    H3F14049   4.877   2.733   6.419  0.8734 -0.1457  1.1860
  130OSM    H3G14050   4.946   2.719   6.255 -0.0799  1.6067  0.1709
  130OSM    C4F14051   4.873   2.915   6.287 -0.9782  0.1537 -0.0252
  130OSM    H4F14052   4.863   2.992   6.366 -1.5830  1.6405 -1.4824
  130OSM    H4G14053   4.773   2.886   6.250 -1.5097  0.3410  1.2245
  130OSM    C5F14054   4.956   2.981   6.178  0.0032 -0.1852  0.1727
  130OSM    H5F14055   5.055   3.003   6.222  0.3872  0.0829 -0.8099
  130OSM    H5G14056   4.905   3.076   6.150 -0.6103 -0.8425 -1.0423
  130OSM    C6F14057   4.997   2.905   6.046 -0.0197 -0.4487 -0.2885
  130OSM    H6F14058   4.907   2.858   6.002  0.4475 -2.4416  0.7883
  130OSM    H6G14059   5.065   2.818   6.058  0.0876 -0.9201 -3.3695
  130OSM    C7F14060   5.051   2.999   5.939  0.9015  0.2324 -0.4326
  130OSM    H7F14061   5.141   3.057   5.969  0.5209  0.6386 -0.0668
  130OSM    H7G14062   4.978   3.078   5.910 -0.1157 -0.2087  0.8022
  130OSM    C8F14063   5.074   2.912   5.821 -0.0155 -0.2108  0.8125
  130OSM    H8F14064   5.001   2.829   5.808 -2.7205  2.3295 -1.5772
  130OSM    H8G14065   5.167   2.857   5.847  0.6507  0.1076 -0.7922
  130OSM    C9F14066   5.092   2.971   5.679 -0.5113 -0.3551 -1.0147
  130OSM    H9F14067   4.995   2.989   5.630 -0.5960  1.9266 -0.1696
  130OSM   C10F14068   5.206   2.996   5.615  0.0991 -0.0301 -0.1660
  130OSM   H10F14069   5.198   3.035   5.513 -0.4274 -0.4829 -0.2983
  130OSM   C11F14070   5.344   2.978   5.669  0.2127  0.4743 -0.0723
  130OSM   H11F14071   5.347   2.894   5.741 -1.1343  0.7650  0.3467
  130OSM   H11G14072   5.376   3.066   5.729  1.3795  0.0892 -0.0929
  130OSM   C12F14073   5.447   2.956   5.560 -0.1792 -0.2277 -0.2414
  130OSM   H12F14074   5.547   2.984   5.600 -0.2144  1.3922 -1.2287
  130OSM   H12G14075   5.426   3.028   5.479  0.5672  1.1784  0.7784
  130OSM   C13F14076   5.436   2.810   5.513 -0.2024  0.1858  0.5112
  130OSM   H13F14077   5.329   2.790   5.489  0.3764 -0.9772 -1.2349
  130OSM   H13G14078   5.483   2.739   5.584  0.1773  0.1917  0.2693
  130OSM   C14F14079   5.507   2.773   5.378  0.3331  0.3468 -0.1968
  130OSM   H14F14080   5.443   2.812   5.296 -1.9863  1.3594  1.9919
  130OSM   H14G14081   5.504   2.663   5.366  1.7595  0.3678 -1.0566
  130OSM   C15F14082   5.647   2.833   5.355  0.0094  0.6717 -0.2725
  130OSM   H15F14083   5.718   2.801   5.435  2.3773  2.2997 -1.6005
  130OSM   H15G14084   5.634   2.943   5.367 -1.3527  0.3980  1.0562
  130OSM   C16F14085   5.712   2.799   5.220 -0.2162 -0.0514 -0.1334
  130OSM   H16F14086   5.701   2.689   5.205 -0.3046  0.0752 -1.0650
  130OSM   H16G14087   5.817   2.835   5.221  0.2969 -1.4742  1.0649
  130OSM   C17F14088   5.637   2.868   5.100  0.7771  0.0997 -0.1572
  130OSM   H17F14089   5.538   2.819   5.092  0.2468  1.0673  0.3183
  130OSM   H17G14090   5.695   2.831   5.012 -0.4733 -0.9965 -0.5451
  130OSM   C18F14091   5.630   3.016   5.115  0.4692  0.4486 -0.1074
  130OSM   H18F14092   5.576   3.038   5.209 -0.9535 -0.4246 -0.6871
  130OSM   H18G14093   5.575   3.061   5.030 -2.3277 -2.5361 -0.0747
  130OSM   H18H14094   5.727   3.071   5.119 -0.4028  2.0112  3.9215
  131OSM      N14095   0.830   5.231   7.004  0.2864  0.0245 -0.3272
  131OSM    C1514096   0.887   5.368   7.037  0.8690  0.2904  0.2655
  131OSM   H15A14097   0.895   5.425   6.945  1.8090 -0.8018 -0.3526
  131OSM   H15B14098   0.986   5.359   7.080  0.4023  0.0221  1.3046
  131OSM   H15C14099   0.821   5.425   7.101 -0.2270  0.1688 -0.7227
  131OSM    C1414100   0.901   5.186   6.880 -0.6635 -0.6097  0.4569
  131OSM   H14A14101   0.876   5.091   6.835 -0.0599 -1.7211  2.3430
  131OSM   H14B14102   1.007   5.181   6.896 -0.1277 -0.5887 -2.5182
  131OSM   H14C14103   0.911   5.272   6.815  0.5858 -1.3181 -0.3252
  131OSM    C1314104   0.859   5.138   7.121 -0.1709 -0.1052  0.3926
  131OSM   H13A14105   0.838   5.179   7.219 -0.3200 -1.3986  0.9192
  131OSM   H13B14106   0.962   5.108   7.122  0.3525  1.5364 -0.0454
  131OSM   H13C14107   0.812   5.042   7.110  0.1038 -0.4517  2.0887
  131OSM    C1214108   0.686   5.231   6.958  0.5824  0.1419 -0.1415
  131OSM   H12A14109   0.660   5.132   6.926 -1.1816 -0.2980  2.3815
  131OSM   H12B14110   0.681   5.299   6.874 -0.7545  0.6269  0.3008
  131OSM    C1114111   0.586   5.261   7.065  0.0209  0.3883 -0.0222
  131OSM   H11A14112   0.603   5.364   7.101  1.0377  0.6555 -1.2345
  131OSM   H11B14113   0.606   5.194   7.152 -0.4109  1.1357  0.6625
  131OSM      P14114   0.363   5.132   7.019  0.2057  0.0492 -0.0912
  131OSM    O1314115   0.433   5.008   6.993  0.1987  0.2910 -0.3406
  131OSM    O1414116   0.288   5.144   7.143  0.4647 -0.8360  0.3242
  131OSM    O1114117   0.255   5.152   6.900 -0.5694 -0.4299 -0.5076
  131OSM    O1214118   0.460   5.248   7.006 -0.1750 -0.5693 -0.0730
  131OSM    C1S14119   0.313   5.144   6.771  1.0041 -1.1034 -0.4819
  131OSM    H1S14120   0.369   5.048   6.761 -2.5213 -3.4172  0.1684
  131OSM    H1T14121   0.378   5.232   6.752 -1.5065  0.8913 -0.4640
  131OSM     NF14122   0.249   5.150   6.526 -0.8673  0.6170  0.0461
  131OSM    HNF14123   0.246   5.237   6.478 -0.5104  1.3744  1.3539
  131OSM    C2S14124   0.197   5.138   6.660  0.3611 -0.5930 -0.1034
  131OSM    H2S14125   0.158   5.036   6.683  2.0500 -0.5683  3.7989
  131OSM    C3S14126   0.083   5.245   6.688 -0.0159  0.5326  0.6590
  131OSM    H3S14127   0.132   5.343   6.703  0.8619 -0.1415  2.5099
  131OSM     O314128   0.016   5.241   6.814  0.0876  0.0257  0.0205
  131OSM    HO314129   0.081   5.205   6.875  1.5281 -1.2160 -2.0594
  131OSM    C4S14130  -0.028   5.244   6.589 -0.8429  0.2724 -0.5812
  131OSM    H4S14131  -0.067   5.144   6.566  1.8736 -0.6603 -1.5177
  131OSM    C5S14132  -0.067   5.350   6.518  0.2621 -0.0495  0.0521
  131OSM    H5S14133  -0.022   5.449   6.532 -0.3144  0.1862  0.2915
  131OSM    C6S14134  -0.172   5.356   6.412 -0.1757 -0.7185  0.9375
  131OSM    H6S14135  -0.155   5.457   6.371  0.8859 -1.3477 -0.2286
  131OSM    H6T14136  -0.273   5.345   6.459  0.6315  0.1789  2.9938
  131OSM    C7S14137  -0.158   5.273   6.283 -0.0061  0.1122  0.3219
  131OSM    H7S14138  -0.150   5.171   6.325 -2.5800  1.6216  5.1993
  131OSM    H7T14139  -0.065   5.298   6.226  0.0048 -1.0085 -0.1861
  131OSM    C8S14140  -0.280   5.279   6.193 -0.8866 -0.2921 -0.4472
  131OSM    H8S14141  -0.286   5.387   6.165 -2.3986 -0.3899 -0.5434
  131OSM    H8T14142  -0.372   5.258   6.252 -1.2091 -2.2087 -1.5725
  131OSM    C9S14143  -0.292   5.172   6.083  0.1089  0.4155 -0.3595
  131OSM    H9S14144  -0.305   5.068   6.120  2.4095 -0.2829 -1.3362
  131OSM    H9T14145  -0.205   5.170   6.015  0.2267 -1.7698 -0.2085
  131OSM   C10S14146  -0.410   5.201   5.989  0.1509  0.4007  0.1670
  131OSM   H10S14147  -0.408   5.305   5.951 -0.1997 -0.3430 -2.0296
  131OSM   H10T14148  -0.502   5.198   6.052 -0.5170  2.6177 -0.6272
  131OSM   C11S14149  -0.428   5.114   5.858  0.0718 -0.0465  0.3809
  131OSM   H11S14150  -0.512   5.166   5.808  1.5626  2.6571  0.5104
  131OSM   H11T14151  -0.459   5.008   5.870  1.4362 -0.6310 -1.0469
  131OSM   C12S14152  -0.307   5.122   5.760  0.0077 -0.5004  0.7240
  131OSM   H12S14153  -0.232   5.047   5.794  0.4323 -0.4794 -0.1337
  131OSM   H12T14154  -0.263   5.224   5.767  2.8472 -1.6895  1.8086
  131OSM   C13S14155  -0.341   5.096   5.618  0.1058 -0.8325  0.2231
  131OSM   H13S14156  -0.442   5.131   5.591  1.0402 -0.5504 -3.3958
  131OSM   H13T14157  -0.333   4.987   5.598 -0.1680 -0.7021 -0.6351
  131OSM   C14S14158  -0.247   5.170   5.523 -0.7659  0.0563 -0.0667
  131OSM   H14S14159  -0.147   5.131   5.547 -2.2451 -2.4871  2.5472
  131OSM   H14T14160  -0.245   5.274   5.564 -1.7085 -0.9302  2.6756
  131OSM   C15S14161  -0.291   5.169   5.375 -0.0987  0.4786  0.5667
  131OSM   H15S14162  -0.209   5.223   5.322  0.8159  0.1002  1.5620
  131OSM   H15T14163  -0.390   5.218   5.361 -1.2130 -1.6707  0.5695
  131OSM   C16S14164  -0.293   5.033   5.318 -0.1145  0.3619  0.0441
  131OSM   H16S14165  -0.374   4.976   5.370  0.1090 -0.7087 -0.7489
  131OSM   H16T14166  -0.192   4.991   5.333 -0.8882 -1.1931  1.2171
  131OSM   C17S14167  -0.329   5.039   5.172  0.3719 -0.6797  0.0243
  131OSM   H17S14168  -0.260   5.114   5.128  1.3015 -2.3942 -1.5944
  131OSM   H17T14169  -0.429   5.086   5.178  1.7674  2.9791 -2.1654
  131OSM   C18S14170  -0.326   4.902   5.102 -1.0069  0.1178  0.3812
  131OSM   H18S14171  -0.388   4.828   5.156 -1.7988  0.1962 -0.4037
  131OSM   H18T14172  -0.225   4.857   5.097 -0.9274  0.4517 -1.8188
  131OSM   H18U14173  -0.376   4.918   5.004  2.4215  0.9212 -1.3855
  131OSM    C1F14174   0.311   5.049   6.463 -0.0145 -0.5384 -0.3962
  131OSM     OF14175   0.327   4.941   6.518 -0.4591  0.3110 -0.3095
  131OSM    C2F14176   0.377   5.092   6.336  0.0519 -1.1808  0.2763
  131OSM    H2F14177   0.476   5.043   6.327 -0.0415 -1.6929  1.7600
  131OSM    H2G14178   0.391   5.202   6.333  0.3079 -1.2091  0.4112
  131OSM    C3F14179   0.302   5.039   6.210 -0.9765  0.8679 -0.0599
  131OSM    H3F14180   0.293   4.928   6.210  0.5440  0.6901 -1.8557
  131OSM    H3G14181   0.374   5.052   6.126 -3.6559  1.9802 -2.3810
  131OSM    C4F14182   0.168   5.108   6.187 -0.4910  0.3896 -0.2067
  131OSM    H4F14183   0.186   5.215   6.212 -3.3727  0.6902  0.9375
  131OSM    H4G14184   0.085   5.077   6.254  0.1310 -0.0612  0.3705
  131OSM    C5F14185   0.114   5.098   6.038  0.5477  0.3465  0.2225
  131OSM    H5F14186   0.176   5.159   5.969 -1.8002 -0.1099 -2.4831
  131OSM    H5G14187   0.014   5.146   6.044 -0.0102 -0.9152  1.6448
  131OSM    C6F14188   0.103   4.955   5.986 -0.4448  0.4972 -0.1057
  131OSM    H6F14189   0.021   4.905   6.043  0.3937 -0.8042  0.0062
  131OSM    H6G14190   0.192   4.890   6.000 -0.3632  0.1790 -1.8348
  131OSM    C7F14191   0.060   4.944   5.837  0.4681 -0.4650  0.0937
  131OSM    H7F14192  -0.034   5.004   5.832  0.8592  0.3294  1.6255
  131OSM    H7G14193   0.039   4.838   5.810 -0.6803 -0.3488  0.4906
  131OSM    C8F14194   0.169   4.994   5.741 -0.1478  0.6038  0.5164
  131OSM    H8F14195   0.268   4.952   5.768 -0.1285  0.5743  0.4001
  131OSM    H8G14196   0.174   5.105   5.751 -0.8426  0.9664 -2.2935
  131OSM    C9F14197   0.130   4.956   5.596  0.1759 -0.2846 -0.4425
  131OSM    H9F14198   0.078   4.860   5.577 -3.6540  1.8100 -1.5403
  131OSM   C10F14199   0.181   5.011   5.487 -0.0324  0.0310  0.0955
  131OSM   H10F14200   0.147   4.975   5.388  0.3038  1.4595 -0.5602
  131OSM   C11F14201   0.260   5.136   5.487  0.2601 -0.3536  0.6745
  131OSM   H11F14202   0.343   5.133   5.413 -0.1119  2.4191  0.0250
  131OSM   H11G14203   0.302   5.158   5.587 -0.4247  1.4144  0.6122
  131OSM   C12F14204   0.184   5.268   5.454  0.5285 -0.3894 -1.0705
  131OSM   H12F14205   0.254   5.349   5.483 -0.1536  0.1996 -1.0134
  131OSM   H12G14206   0.094   5.275   5.519  1.0950  1.3225 -0.4033
  131OSM   C13F14207   0.148   5.289   5.308 -0.1858  0.5142  0.7627
  131OSM   H13F14208   0.066   5.364   5.307  0.8790  1.6978  0.4715
  131OSM   H13G14209   0.117   5.195   5.257 -0.5946  0.9542  0.1886
  131OSM   C14F14210   0.254   5.351   5.216  0.1180 -0.1025  0.9869
  131OSM   H14F14211   0.336   5.279   5.197  0.3071  0.4527 -0.3685
  131OSM   H14G14212   0.283   5.449   5.259 -0.1866 -0.5987  2.3939
  131OSM   C15F14213   0.187   5.380   5.080  0.7514 -0.0062  0.0131
  131OSM   H15F14214   0.094   5.439   5.088  0.0021 -1.0260 -0.8193
  131OSM   H15G14215   0.154   5.283   5.035  2.3871  0.5263 -2.5884
  131OSM   C16F14216   0.274   5.441   4.973  0.2668 -0.1293 -0.7703
  131OSM   H16F14217   0.339   5.364   4.925 -0.5198 -0.3711 -1.4782
  131OSM   H16G14218   0.335   5.519   5.022 -0.5449  0.9512 -1.4389
  131OSM   C17F14219   0.191   5.500   4.862 -0.5797  1.0998 -0.6736
  131OSM   H17F14220   0.109   5.565   4.900 -1.7766 -1.0559  0.6419
  131OSM   H17G14221   0.146   5.417   4.803 -2.3941  0.8927  0.8798
  131OSM   C18F14222   0.290   5.582   4.775  0.2710  0.0578 -0.7267
  131OSM   H18F14223   0.364   5.512   4.731  3.6241  2.1326  1.0689
  131OSM   H18G14224   0.346   5.657   4.836  1.8664 -1.6193 -0.0491
  131OSM   H18H14225   0.234   5.629   4.692  0.6665 -1.1332 -1.6886
  132OSM      N14226   0.211   1.196   7.230 -0.4933 -0.6228  0.1963
  132OSM    C1514227   0.081   1.261   7.240 -0.4144 -0.1838  0.4851
  132OSM   H15A14228   0.078   1.343   7.310  0.3294  0.4901 -0.2473
  132OSM   H15B14229   0.006   1.184   7.252 -0.4505 -0.6063 -1.9568
  132OSM   H15C14230   0.044   1.293   7.144 -1.2834 -0.9194  0.5587
  132OSM    C1414231   0.319   1.300   7.225 -0.9365 -0.7341  0.0911
  132OSM   H14A14232   0.413   1.248   7.207 -0.6175 -0.1491  0.0477
  132OSM   H14B14233   0.331   1.355   7.317 -1.8756 -0.7074  0.2010
  132OSM   H14C14234   0.306   1.370   7.144  1.1721 -0.6412 -0.2273
  132OSM    C1314235   0.247   1.109   7.348  0.3803  0.3257 -0.0309
  132OSM   H13A14236   0.161   1.050   7.374  0.6634  0.2582  0.7617
  132OSM   H13B14237   0.266   1.180   7.427  0.1331 -1.1348  1.3806
  132OSM   H13C14238   0.341   1.060   7.327 -0.8934 -0.9233 -3.6324
  132OSM    C1214239   0.219   1.104   7.111  0.8073 -0.3441  1.0541
  132OSM   H12A14240   0.161   1.150   7.032  4.2883  0.2729 -1.3466
  132OSM   H12B14241   0.171   1.010   7.133 -1.7621  0.5250 -0.3823
  132OSM    C1114242   0.360   1.058   7.060  0.0102  1.1896  0.9101
  132OSM   H11A14243   0.324   0.986   6.984 -0.2901  2.4903 -0.2301
  132OSM   H11B14244   0.411   0.989   7.131  0.7721  2.5288  1.7068
  132OSM      P14245   0.594   1.115   6.989 -0.6402  0.3355  0.3352
  132OSM    O1314246   0.670   1.229   6.924  0.5788  0.3487  0.2181
  132OSM    O1414247   0.651   1.057   7.109  0.2748 -0.2311 -0.7297
  132OSM    O1114248   0.582   1.004   6.885 -0.2675  0.1387  0.5733
  132OSM    O1214249   0.442   1.164   7.008 -0.2246  0.6513  0.3310
  132OSM    C1S14250   0.520   1.024   6.756 -0.3247 -1.1899  0.2705
  132OSM    H1S14251   0.503   1.133   6.741 -0.3187 -1.1748  0.3671
  132OSM    H1T14252   0.422   0.973   6.747 -1.8841  1.4285  1.1019
  132OSM     NF14253   0.539   0.994   6.511  0.4611  0.6222 -0.1571
  132OSM    HNF14254   0.499   0.914   6.466  0.8730 -0.5753  1.5021
  132OSM    C2S14255   0.607   0.979   6.633  0.4701  0.1502 -0.7207
  132OSM    H2S14256   0.702   1.036   6.624  0.9734 -0.8171 -1.8220
  132OSM    C3S14257   0.648   0.823   6.657 -0.3628  0.6037 -0.3368
  132OSM    H3S14258   0.552   0.769   6.662 -0.9399  1.6321  0.0818
  132OSM     O314259   0.698   0.788   6.788  0.1293  0.0050 -0.0227
  132OSM    HO314260   0.678   0.865   6.841  1.4088  0.0666  0.4187
  132OSM    C4S14261   0.744   0.778   6.549  0.2027  0.2926  0.5265
  132OSM    H4S14262   0.701   0.728   6.462  2.1609  1.4880 -1.2236
  132OSM    C5S14263   0.870   0.815   6.542 -0.8933  0.0714  0.7001
  132OSM    H5S14264   0.912   0.876   6.623  0.1082  0.9996 -0.4894
  132OSM    C6S14265   0.955   0.792   6.417  0.0057 -0.2452  0.2024
  132OSM    H6S14266   1.024   0.706   6.429  1.2369  0.2122 -2.6905
  132OSM    H6T14267   1.021   0.878   6.394  0.5819 -0.2701  1.6633
  132OSM    C7S14268   0.884   0.768   6.282 -0.5815  0.2239  0.1280
  132OSM    H7S14269   0.819   0.859   6.279  2.6471  2.7513  1.0356
  132OSM    H7T14270   0.825   0.675   6.270 -0.7555  0.4176 -0.5517
  132OSM    C8S14271   0.975   0.775   6.164 -0.5065  0.2583 -0.2771
  132OSM    H8S14272   1.061   0.706   6.172  1.9371  3.1371 -0.0536
  132OSM    H8T14273   1.030   0.872   6.162  1.1480 -0.6550 -0.4924
  132OSM    C9S14274   0.889   0.773   6.041  0.1061 -0.2446 -0.6348
  132OSM    H9S14275   0.835   0.870   6.033  0.5866  0.0147 -0.7411
  132OSM    H9T14276   0.814   0.690   6.039 -0.5705  0.3659 -1.6769
  132OSM   C10S14277   0.972   0.759   5.911  0.2282  0.9580  0.8839
  132OSM   H10S14278   1.016   0.658   5.909 -1.0931  0.3188  2.1272
  132OSM   H10T14279   1.065   0.819   5.904  1.3152 -0.8762 -2.8690
  132OSM   C11S14280   0.883   0.776   5.781  0.0390  0.3647 -0.3432
  132OSM   H11S14281   0.823   0.868   5.800 -1.2629 -0.5864  0.3282
  132OSM   H11T14282   0.827   0.680   5.779  0.7921 -0.2027  2.3423
  132OSM   C12S14283   0.954   0.784   5.649  0.0910  0.1265 -0.1243
  132OSM   H12S14284   1.007   0.688   5.633  0.8563  0.5441 -0.1124
  132OSM   H12T14285   1.024   0.869   5.659 -0.0750  0.1955  0.4751
  132OSM   C13S14286   0.852   0.818   5.537 -0.3825 -0.1463 -0.8729
  132OSM   H13S14287   0.829   0.926   5.551  2.9006  0.6248 -0.5619
  132OSM   H13T14288   0.753   0.771   5.550 -0.2278 -0.1083  0.6527
  132OSM   C14S14289   0.908   0.783   5.394 -0.0143 -0.0385 -0.6417
  132OSM   H14S14290   0.895   0.673   5.384  0.7113 -0.1201 -0.7833
  132OSM   H14T14291   1.010   0.816   5.365  0.6871 -0.4756  1.2154
  132OSM   C15S14292   0.816   0.833   5.285 -0.2350 -0.0846  0.2283
  132OSM   H15S14293   0.795   0.941   5.300 -1.0393 -0.1271 -0.4988
  132OSM   H15T14294   0.716   0.786   5.281 -0.1971 -0.1258 -0.5145
  132OSM   C16S14295   0.891   0.829   5.148 -0.0306 -0.1677  0.6204
  132OSM   H16S14296   0.913   0.726   5.113 -2.2306 -0.2771 -0.6262
  132OSM   H16T14297   0.987   0.883   5.156  0.0567 -0.2375  0.0819
  132OSM   C17S14298   0.810   0.907   5.045  0.3673  0.4720  0.3164
  132OSM   H17S14299   0.798   1.005   5.096 -0.9518  0.9865 -0.8930
  132OSM   H17T14300   0.710   0.861   5.030  1.2333 -1.0998 -0.9274
  132OSM   C18S14301   0.887   0.928   4.918  0.1289 -0.1362 -0.1177
  132OSM   H18S14302   0.924   0.830   4.880 -2.6033 -0.6732 -1.6725
  132OSM   H18T14303   0.978   0.988   4.938  0.1843 -0.4930  0.7336
  132OSM   H18U14304   0.825   0.979   4.841 -0.0769 -0.0683  0.0926
  132OSM    C1F14305   0.530   1.120   6.459 -0.5406 -0.2162  0.0418
  132OSM     OF14306   0.541   1.219   6.531 -0.0319 -0.6629 -0.2607
  132OSM    C2F14307   0.487   1.130   6.315 -0.4589  0.4648  0.4745
  132OSM    H2F14308   0.400   1.196   6.333 -0.3197  0.2989  1.8433
  132OSM    H2G14309   0.436   1.033   6.298  0.9419 -0.3183  0.5893
  132OSM    C3F14310   0.593   1.188   6.220 -0.1162  0.3529  0.3033
  132OSM    H3F14311   0.678   1.116   6.226  0.2111  0.8321  1.5841
  132OSM    H3G14312   0.640   1.281   6.257  0.7047  0.7098 -1.5271
  132OSM    C4F14313   0.535   1.197   6.080  0.5059 -0.0813 -0.0061
  132OSM    H4F14314   0.614   1.258   6.031 -1.2298  0.9489 -1.7028
  132OSM    H4G14315   0.443   1.259   6.079 -0.0375 -0.8523  1.0523
  132OSM    C5F14316   0.525   1.069   6.006  0.7900  0.2062  0.4333
  132OSM    H5F14317   0.453   0.997   6.051 -1.1805  2.6293  1.3742
  132OSM    H5G14318   0.625   1.020   6.009 -0.0107 -1.5641 -0.0260
  132OSM    C6F14319   0.501   1.090   5.857  0.1735 -0.1672 -0.0932
  132OSM    H6F14320   0.556   1.180   5.823 -0.8066  0.5043  0.0637
  132OSM    H6G14321   0.392   1.104   5.839 -0.6569 -1.6493  3.1441
  132OSM    C7F14322   0.539   0.973   5.764 -0.0391  0.3146 -0.1396
  132OSM    H7F14323   0.471   0.886   5.782 -1.6054  1.3286 -0.8858
  132OSM    H7G14324   0.640   0.939   5.793 -0.2434  1.0173  1.4510
  132OSM    C8F14325   0.540   1.005   5.613  0.3653  0.8127  0.8305
  132OSM    H8F14326   0.596   0.919   5.571  0.3472 -0.1957  2.7616
  132OSM    H8G14327   0.593   1.101   5.597  0.7822  0.2895 -1.0903
  132OSM    C9F14328   0.403   1.004   5.552 -0.1590  0.3910 -0.3897
  132OSM    H9F14329   0.317   0.969   5.612 -0.6128 -0.4875 -1.5206
  132OSM   C10F14330   0.365   1.069   5.445  0.4322  0.6871  0.3794
  132OSM   H10F14331   0.261   1.057   5.412  0.2445  3.0021 -0.0568
  132OSM   C11F14332   0.442   1.151   5.351 -0.2129 -0.3033  0.0930
  132OSM   H11F14333   0.544   1.170   5.390 -0.9530  2.0209  1.0195
  132OSM   H11G14334   0.401   1.249   5.321 -3.4117 -1.7386 -0.6372
  132OSM   C12F14335   0.465   1.065   5.222  0.0192 -0.0121  0.0131
  132OSM   H12F14336   0.497   0.962   5.249 -0.3197  0.8313  4.3875
  132OSM   H12G14337   0.551   1.114   5.173  1.3075 -1.5104  0.7032
  132OSM   C13F14338   0.346   1.060   5.125  1.0347  0.2470 -0.1766
  132OSM   H13F14339   0.319   1.165   5.101 -0.3885 -0.2507 -0.8966
  132OSM   H13G14340   0.260   1.013   5.179  1.1926 -0.6451 -0.6864
  132OSM   C14F14341   0.376   0.982   4.999  0.1617  0.1058 -0.0048
  132OSM   H14F14342   0.413   0.879   5.015  0.3382 -0.0164 -1.0755
  132OSM   H14G14343   0.465   1.028   4.950 -1.3681  1.6875 -1.4815
  132OSM   C15F14344   0.267   0.991   4.891  0.3985 -0.0431 -0.6915
  132OSM   H15F14345   0.259   1.100   4.870 -0.0670 -0.4207 -2.5965
  132OSM   H15G14346   0.173   0.939   4.920  0.3252 -0.4757 -1.6943
  132OSM   C16F14347   0.300   0.929   4.758 -0.1611  0.1105 -0.0118
  132OSM   H16F14348   0.326   0.823   4.778  0.4229  0.4605  1.1600
  132OSM   H16G14349   0.378   0.983   4.699 -1.0224 -1.0941 -2.3965
  132OSM   C17F14350   0.174   0.916   4.673  0.0057  0.1185  0.2145
  132OSM   H17F14351   0.160   1.025   4.657  1.0220  0.5432  1.9446
  132OSM   H17G14352   0.095   0.870   4.736 -0.0047 -1.5926 -0.9769
  132OSM   C18F14353   0.189   0.840   4.539  0.1699 -0.2436  0.4181
  132OSM   H18F14354   0.225   0.912   4.463  1.0625 -1.0721  0.0362
  132OSM   H18G14355   0.087   0.804   4.516 -0.0192 -0.0085  0.8783
  132OSM   H18H14356   0.248   0.746   4.534 -1.2597 -1.1039 -0.4932
  133OSM      N14357   6.096   2.047   6.984 -0.0868 -0.4499 -0.0408
  133OSM    C1514358   6.117   2.197   6.966 -0.2005  0.0750 -0.5196
  133OSM   H15A14359   6.049   2.230   6.890  0.4185  0.5306 -0.8863
  133OSM   H15B14360   6.220   2.226   6.953  0.3074 -0.3965  1.9011
  133OSM   H15C14361   6.093   2.234   7.065 -1.0072 -3.5125  0.7922
  133OSM    C1414362   6.201   2.001   7.082  0.5726  0.3003 -0.0782
  133OSM   H14A14363   6.209   2.068   7.167 -2.1898  0.0141  0.4941
  133OSM   H14B14364   6.295   2.005   7.029  0.5153 -1.1308 -0.3174
  133OSM   H14C14365   6.194   1.900   7.119  0.5494  0.1932 -0.3768
  133OSM    C1314366   5.956   2.035   7.030 -0.1326  0.0428  0.1765
  133OSM   H13A14367   5.920   1.933   7.033  0.3930 -0.1385  0.4159
  133OSM   H13B14368   5.891   2.102   6.976  0.6511  0.8851  0.2345
  133OSM   H13C14369   5.953   2.069   7.132  2.0395 -3.1082  1.4678
  133OSM    C1214370   6.114   1.973   6.853  1.3379 -0.4608 -0.2452
  133OSM   H12A14371   6.108   1.867   6.871  1.1671 -0.4811 -0.4223
  133OSM   H12B14372   6.215   1.983   6.816  0.8370 -1.2785 -1.9321
  133OSM    C1114373   6.031   2.008   6.725 -0.8458  0.1898 -0.0045
  133OSM   H11A14374   6.076   1.954   6.639  0.4798 -1.3249  1.5883
  133OSM   H11B14375   6.040   2.116   6.702 -0.5538  0.0563 -0.5465
  133OSM      P14376   5.838   1.820   6.739  0.8902  0.0704  0.0485
  133OSM    O1314377   5.932   1.730   6.804 -0.2361  0.2837  0.1844
  133OSM    O1414378   5.698   1.819   6.792 -0.6438 -0.0887 -0.2911
  133OSM    O1114379   5.823   1.794   6.582  0.2533 -0.0284 -0.3523
  133OSM    O1214380   5.891   1.974   6.743  0.0913  0.1763  0.1028
  133OSM    C1S14381   5.767   1.898   6.501 -0.0673 -0.5741  0.2608
  133OSM    H1S14382   5.848   1.970   6.477 -0.3263 -0.3905 -0.0598
  133OSM    H1T14383   5.689   1.960   6.550  0.2522  1.5109 -1.7130
  133OSM     NF14384   5.684   1.931   6.261 -0.4861 -0.1325 -0.9682
  133OSM    HNF14385   5.587   1.944   6.241 -0.5455  1.0457 -0.0350
  133OSM    C2S14386   5.703   1.838   6.374 -0.4494 -0.2837  0.1126
  133OSM    H2S14387   5.769   1.754   6.347 -1.6215 -0.9039 -0.9769
  133OSM    C3S14388   5.570   1.767   6.418 -0.0922  0.1682 -0.1955
  133OSM    H3S14389   5.506   1.845   6.463  0.7159  1.1257 -0.6588
  133OSM     O314390   5.590   1.667   6.520 -0.0597  0.4097  0.0087
  133OSM    HO314391   5.672   1.694   6.561  0.3504 -1.5450  0.5524
  133OSM    C4S14392   5.514   1.699   6.295 -0.0777 -0.9691  0.3783
  133OSM    H4S14393   5.592   1.644   6.240 -1.2159 -0.7910 -1.5015
  133OSM    C5S14394   5.399   1.722   6.230  0.2513  0.3046 -0.5434
  133OSM    H5S14395   5.326   1.794   6.270  0.5913  0.1782  0.3343
  133OSM    C6S14396   5.360   1.651   6.098  0.5110 -0.3895  0.0431
  133OSM    H6S14397   5.253   1.678   6.081  1.0746  1.6087 -0.6737
  133OSM    H6T14398   5.363   1.542   6.119  0.2787 -0.1905  1.1563
  133OSM    C7S14399   5.450   1.690   5.984 -0.3097  0.0388 -0.3125
  133OSM    H7S14400   5.436   1.624   5.896  1.1414 -0.0015 -0.5344
  133OSM    H7T14401   5.554   1.675   6.018 -0.6754 -0.4180  0.6381
  133OSM    C8S14402   5.432   1.836   5.921  0.2558  0.0544  0.5339
  133OSM    H8S14403   5.457   1.907   6.003 -1.6973  0.5304  0.7511
  133OSM    H8T14404   5.326   1.859   5.900  0.3182 -0.3604 -0.2563
  133OSM    C9S14405   5.502   1.845   5.786  0.1740 -0.2256 -0.4940
  133OSM    H9S14406   5.586   1.774   5.770  0.4214  0.1576 -0.9472
  133OSM    H9T14407   5.542   1.949   5.779  0.3309 -0.3096 -0.8460
  133OSM   C10S14408   5.402   1.826   5.662  0.3829 -0.4079 -0.3661
  133OSM   H10S14409   5.323   1.903   5.677  0.2519 -0.7351  0.6760
  133OSM   H10T14410   5.357   1.724   5.660 -2.1454  0.5550  1.3697
  133OSM   C11S14411   5.483   1.847   5.537  0.4829 -0.3035  0.7517
  133OSM   H11S14412   5.547   1.756   5.535  1.6334  0.4779  1.2902
  133OSM   H11T14413   5.556   1.929   5.550 -1.2326  1.1915  1.3454
  133OSM   C12S14414   5.400   1.854   5.399 -0.2323 -0.4543 -0.0965
  133OSM   H12S14415   5.331   1.938   5.420 -1.3773 -1.8465  2.0920
  133OSM   H12T14416   5.335   1.764   5.402 -0.1211 -0.6049 -1.4014
  133OSM   C13S14417   5.462   1.872   5.261  0.9465  0.2302 -0.0978
  133OSM   H13S14418   5.386   1.890   5.181  1.6601 -0.5064 -0.9678
  133OSM   H13T14419   5.507   1.772   5.242 -0.3963 -0.5205  0.4885
  133OSM   C14S14420   5.567   1.986   5.228 -0.2380  0.3476  0.4765
  133OSM   H14S14421   5.632   1.982   5.318 -1.1979 -0.6019  1.1647
  133OSM   H14T14422   5.523   2.087   5.242 -2.0198 -0.6012  2.2831
  133OSM   C15S14423   5.633   1.977   5.088 -0.3669  0.3257  0.2888
  133OSM   H15S14424   5.692   1.882   5.084 -0.9058  0.0133 -0.3888
  133OSM   H15T14425   5.716   2.051   5.092  1.5285 -1.7174  0.9378
  133OSM   C16S14426   5.546   1.998   4.959  0.4891 -0.0718  0.6824
  133OSM   H16S14427   5.488   2.093   4.966  1.2416  0.4840 -0.3861
  133OSM   H16T14428   5.476   1.913   4.944  0.3566  0.4676 -2.6553
  133OSM   C17S14429   5.634   2.027   4.835  0.0649 -0.2092  0.0365
  133OSM   H17S14430   5.668   1.925   4.808  1.9349  0.7517 -1.4326
  133OSM   H17T14431   5.728   2.080   4.857 -0.3431  0.7284 -0.4160
  133OSM   C18S14432   5.554   2.083   4.721 -0.1997 -0.7355 -0.7788
  133OSM   H18S14433   5.617   2.106   4.632  0.4693  1.8503  0.2795
  133OSM   H18T14434   5.508   2.181   4.745  0.8737 -0.0599 -1.3582
  133OSM   H18U14435   5.470   2.015   4.696 -0.7005  0.0288 -1.2186
  133OSM    C1F14436   5.774   2.003   6.192  0.2015  0.0297  0.0252
  133OSM     OF14437   5.894   1.995   6.213 -0.1612  1.0173 -0.0695
  133OSM    C2F14438   5.720   2.090   6.084 -0.0866 -0.0836  0.5824
  133OSM    H2F14439   5.639   2.156   6.120 -0.8893 -0.3877 -0.6034
  133OSM    H2G14440   5.689   2.026   5.999 -1.0885  0.3337  0.6260
  133OSM    C3F14441   5.835   2.171   6.020 -0.9922 -0.1049  0.1921
  133OSM    H3F14442   5.903   2.095   5.976 -0.6379 -0.0554  0.6448
  133OSM    H3G14443   5.873   2.230   6.106 -1.4551  0.7328 -0.1685
  133OSM    C4F14444   5.791   2.281   5.926  0.5002  0.2031  0.3104
  133OSM    H4F14445   5.871   2.355   5.904 -0.2889  0.3207 -2.6252
  133OSM    H4G14446   5.706   2.337   5.971  0.4186  1.2133 -1.0271
  133OSM    C5F14447   5.759   2.219   5.787  0.2253 -0.3708 -0.3624
  133OSM    H5F14448   5.683   2.139   5.801  0.3196 -0.1794  1.5446
  133OSM    H5G14449   5.847   2.158   5.760 -0.2182 -0.7332 -1.0149
  133OSM    C6F14450   5.721   2.315   5.678  0.7018 -0.3496 -1.2730
  133OSM    H6F14451   5.806   2.380   5.649  0.6682 -0.5701 -1.8931
  133OSM    H6G14452   5.636   2.375   5.714  0.8266 -0.4086 -0.8772
  133OSM    C7F14453   5.687   2.236   5.558  0.1936 -1.0597 -0.1524
  133OSM    H7F14454   5.601   2.167   5.574 -0.2956 -0.2313  0.9063
  133OSM    H7G14455   5.777   2.174   5.543  0.8116  0.3230 -2.6900
  133OSM    C8F14456   5.651   2.336   5.443 -0.0313  0.0089 -0.5036
  133OSM    H8F14457   5.573   2.401   5.488 -1.2846 -1.5641 -0.3537
  133OSM    H8G14458   5.611   2.269   5.364 -2.9925  0.3046  0.6380
  133OSM    C9F14459   5.767   2.414   5.393  0.4567 -0.2626 -0.3340
  133OSM    H9F14460   5.767   2.524   5.405  2.8177 -0.2589  0.0704
  133OSM   C10F14461   5.876   2.370   5.332  0.2938  0.1331 -0.3316
  133OSM   H10F14462   5.955   2.438   5.297  0.0372 -0.4596 -2.1702
  133OSM   C11F14463   5.909   2.224   5.291  0.6650  0.4712  0.1183
  133OSM   H11F14464   5.818   2.163   5.305  1.4792 -0.7203  0.3159
  133OSM   H11G14465   5.996   2.182   5.346  1.2003  0.7384 -0.4993
  133OSM   C12F14466   5.921   2.212   5.143  0.1457  0.1316 -0.3754
  133OSM   H12F14467   5.839   2.273   5.100 -0.3390 -0.4992 -0.3696
  133OSM   H12G14468   5.909   2.103   5.125  1.1151 -0.2289  0.9565
  133OSM   C13F14469   6.061   2.257   5.085  0.4161  0.0513 -0.0621
  133OSM   H13F14470   6.138   2.181   5.111  2.0534  1.3507 -0.9635
  133OSM   H13G14471   6.094   2.355   5.124  0.1835  0.6160 -1.2480
  133OSM   C14F14472   6.049   2.263   4.933  0.3434 -0.2259 -0.3074
  133OSM   H14F14473   6.046   2.159   4.894 -0.3538 -0.6299  0.7842
  133OSM   H14G14474   6.140   2.317   4.897 -0.8024  1.2261 -1.1322
  133OSM   C15F14475   5.925   2.343   4.873 -0.0616  0.1890 -1.0124
  133OSM   H15F14476   5.921   2.442   4.922  1.5006 -0.6218  0.8809
  133OSM   H15G14477   5.838   2.280   4.902  0.3829  0.4000  0.9189
  133OSM   C16F14478   5.936   2.362   4.721 -0.5005 -0.1749  0.8185
  133OSM   H16F14479   5.990   2.274   4.678 -1.4741  0.8206 -2.7777
  133OSM   H16G14480   6.014   2.441   4.713  0.0168 -0.6885  0.6893
  133OSM   C17F14481   5.803   2.375   4.647 -0.1964  0.3677 -0.5160
  133OSM   H17F14482   5.751   2.471   4.671 -0.2706  0.4250 -0.9085
  133OSM   H17G14483   5.739   2.288   4.674  2.4474 -2.0604 -1.5746
  133OSM   C18F14484   5.824   2.374   4.490  0.2757 -0.9636 -0.3962
  133OSM   H18F14485   5.893   2.457   4.464 -0.3118 -0.3254  0.0458
  133OSM   H18G14486   5.722   2.398   4.455 -1.2865 -3.4343  2.0491
  133OSM   H18H14487   5.859   2.278   4.446  1.1695 -1.3542  1.0784
  134OSM      N14488   4.970   0.249   6.721 -0.0189  0.3084  0.2306
  134OSM    C1514489   4.947   0.374   6.784  0.1888  0.4415 -0.0690
  134OSM   H15A14490   4.860   0.415   6.735  1.9993 -0.1462 -4.1526
  134OSM   H15B14491   5.029   0.443   6.773  0.4971 -0.1541 -1.7448
  134OSM   H15C14492   4.913   0.360   6.886  0.7137  1.3852  0.2533
  134OSM    C1414493   4.961   0.268   6.571  0.0376 -0.2875 -0.8589
  134OSM   H14A14494   4.862   0.285   6.531 -0.8219 -3.7385 -0.4727
  134OSM   H14B14495   4.997   0.177   6.527  0.3622  0.0116 -1.2219
  134OSM   H14C14496   5.026   0.349   6.541 -0.7345  1.6079  2.0919
  134OSM    C1314497   5.109   0.218   6.765  0.1847  0.6610 -0.5121
  134OSM   H13A14498   5.113   0.232   6.872 -0.7609  0.1773 -0.4055
  134OSM   H13B14499   5.186   0.274   6.714  1.3317 -0.2145  0.2024
  134OSM   H13C14500   5.135   0.113   6.764 -3.1595 -0.3070  0.9590
  134OSM    C1214501   4.868   0.145   6.767  0.0507 -0.6828  0.4314
  134OSM   H12A14502   4.764   0.175   6.756 -0.2946 -1.5662  1.1539
  134OSM   H12B14503   4.892   0.133   6.872 -0.3602  1.1308  0.7613
  134OSM    C1114504   4.874   0.007   6.691  0.4581 -0.4010 -0.7405
  134OSM   H11A14505   4.846   0.032   6.586  2.1663  2.3810 -0.6574
  134OSM   H11B14506   4.805  -0.056   6.750  0.6497  1.1472  1.2517
  134OSM      P14507   5.050  -0.162   6.773 -0.1237  0.1807  0.1603
  134OSM    O1314508   5.190  -0.178   6.740 -1.1236  0.3347  0.0066
  134OSM    O1414509   5.005  -0.127   6.912 -0.3534 -0.3896 -0.2622
  134OSM    O1114510   4.962  -0.283   6.715 -0.9057 -0.3387 -0.3147
  134OSM    O1214511   5.004  -0.048   6.681 -0.2716  0.0365 -0.2352
  134OSM    C1S14512   4.929  -0.317   6.581 -0.7297 -0.7077  0.2286
  134OSM    H1S14513   4.902  -0.230   6.518  0.6820 -1.3401 -1.3016
  134OSM    H1T14514   4.836  -0.378   6.588 -2.2257  1.3424 -0.8303
  134OSM     NF14515   4.988  -0.427   6.378 -0.1126 -0.1251 -0.9345
  134OSM    HNF14516   4.935  -0.508   6.353  1.5897 -1.2954 -1.0017
  134OSM    C2S14517   5.036  -0.413   6.507 -0.3406  0.6437 -0.5886
  134OSM    H2S14518   5.134  -0.363   6.520  0.1910 -0.7318  0.9407
  134OSM    C3S14519   5.048  -0.551   6.590 -0.2082 -0.5253 -0.1017
  134OSM    H3S14520   4.944  -0.583   6.613  0.0326 -0.9752  0.3718
  134OSM     O314521   5.119  -0.534   6.717 -0.0462  0.4897  0.4952
  134OSM    HO314522   5.139  -0.442   6.733 -1.0369  0.8706 -0.3530
  134OSM    C4S14523   5.115  -0.656   6.514  0.3970 -0.3108 -0.5927
  134OSM    H4S14524   5.055  -0.748   6.510  1.1594 -0.8827  0.6376
  134OSM    C5S14525   5.238  -0.656   6.462  0.1195 -0.6850  0.3721
  134OSM    H5S14526   5.308  -0.573   6.478 -1.9175  1.0555  0.6643
  134OSM    C6S14527   5.284  -0.775   6.380  0.1916  0.0539  1.1822
  134OSM    H6S14528   5.256  -0.871   6.429  0.8859 -0.9395 -0.3116
  134OSM    H6T14529   5.394  -0.771   6.363 -0.1078  0.3279 -0.8741
  134OSM    C7S14530   5.224  -0.776   6.234  0.6808 -0.2058 -0.0969
  134OSM    H7S14531   5.115  -0.760   6.241  0.5738 -1.5089  1.7397
  134OSM    H7T14532   5.241  -0.878   6.194  2.0610 -0.0758  0.0849
  134OSM    C8S14533   5.287  -0.671   6.140  0.0260 -0.6917  0.2054
  134OSM    H8S14534   5.398  -0.661   6.144 -0.0542  0.3633  0.1579
  134OSM    H8T14535   5.242  -0.581   6.189 -2.3332 -1.4225 -0.5128
  134OSM    C9S14536   5.228  -0.678   5.993  0.8208 -0.0331 -0.3553
  134OSM    H9S14537   5.121  -0.651   5.991  0.5031 -1.2222 -0.3129
  134OSM    H9T14538   5.243  -0.781   5.953  1.9054  0.3907 -1.0810
  134OSM   C10S14539   5.296  -0.588   5.892 -0.4249  0.5086 -0.5312
  134OSM   H10S14540   5.402  -0.591   5.925 -0.3308 -4.8023 -0.4530
  134OSM   H10T14541   5.262  -0.486   5.921 -0.7257 -0.3647  2.4636
  134OSM   C11S14542   5.272  -0.621   5.750 -0.0347 -0.1168  0.0796
  134OSM   H11S14543   5.164  -0.631   5.727 -0.1713  1.8726 -0.2654
  134OSM   H11T14544   5.320  -0.720   5.735 -1.7034 -0.8289 -0.8946
  134OSM   C12S14545   5.331  -0.504   5.663  0.3155  0.2083 -0.2008
  134OSM   H12S14546   5.434  -0.480   5.695  0.4085  1.0298 -1.0581
  134OSM   H12T14547   5.254  -0.425   5.681  1.3981  1.1534  0.4228
  134OSM   C13S14548   5.326  -0.541   5.516 -0.1749  0.0672 -0.1788
  134OSM   H13S14549   5.230  -0.595   5.502 -1.6697  2.6147 -0.4559
  134OSM   H13T14550   5.409  -0.607   5.484  0.0085 -0.4866  1.3901
  134OSM   C14S14551   5.324  -0.424   5.417  0.3506  0.6950  0.1985
  134OSM   H14S14552   5.425  -0.380   5.398  0.6638 -1.1063 -3.0891
  134OSM   H14T14553   5.269  -0.335   5.453  0.5025  0.7863  0.2049
  134OSM   C15S14554   5.271  -0.457   5.280  0.3583  0.0760  0.5089
  134OSM   H15S14555   5.239  -0.361   5.236 -0.5745  0.7949  2.6263
  134OSM   H15T14556   5.179  -0.519   5.279 -1.0777  2.1464 -0.3352
  134OSM   C16S14557   5.371  -0.517   5.185  0.2589  0.3657 -0.0638
  134OSM   H16S14558   5.432  -0.592   5.240  0.2237 -1.5588 -2.4531
  134OSM   H16T14559   5.440  -0.444   5.138 -1.5857  2.6088  0.5446
  134OSM   C17S14560   5.300  -0.602   5.081  0.2590 -0.5591 -0.4219
  134OSM   H17S14561   5.226  -0.537   5.029  1.4400  1.5863  0.4654
  134OSM   H17T14562   5.247  -0.676   5.144 -0.8523  1.1682  0.7597
  134OSM   C18S14563   5.381  -0.682   4.984 -0.2985 -0.1440  0.5065
  134OSM   H18S14564   5.431  -0.619   4.908  2.2724 -1.6076  0.8784
  134OSM   H18T14565   5.322  -0.755   4.925  1.7439 -1.3189 -0.1604
  134OSM   H18U14566   5.459  -0.735   5.043  2.0871  2.8837  0.3309
  134OSM    C1F14567   4.995  -0.342   6.274 -0.0479 -0.0969 -0.2501
  134OSM     OF14568   5.035  -0.226   6.293  0.2559 -0.1139  0.0176
  134OSM    C2F14569   4.944  -0.389   6.140 -0.3515 -0.7256 -0.2170
  134OSM    H2F14570   4.833  -0.391   6.147 -0.5046  2.1121 -0.6694
  134OSM    H2G14571   4.990  -0.487   6.116  0.9097 -0.1534 -0.2331
  134OSM    C3F14572   4.980  -0.280   6.039 -0.3654 -0.5853  0.2678
  134OSM    H3F14573   5.091  -0.269   6.037 -0.6667  3.6687 -0.8028
  134OSM    H3G14574   4.941  -0.182   6.074  2.4484  1.8154 -2.7153
  134OSM    C4F14575   4.948  -0.314   5.895  0.7191  0.1417  0.2344
  134OSM    H4F14576   4.839  -0.334   5.899  0.9904 -1.8066 -0.6868
  134OSM    H4G14577   5.003  -0.405   5.862  0.1364 -0.2892  0.4379
  134OSM    C5F14578   4.966  -0.202   5.792  0.2312  0.0611 -0.6009
  134OSM    H5F14579   5.072  -0.168   5.790  0.2847 -0.1219 -1.1349
  134OSM    H5G14580   4.918  -0.106   5.818  0.6369  0.2653 -0.5985
  134OSM    C6F14581   4.911  -0.234   5.653  0.1881  0.1532 -0.6186
  134OSM    H6F14582   4.810  -0.278   5.670  1.5972 -2.0927  2.8128
  134OSM    H6G14583   4.969  -0.322   5.618 -1.1802 -0.2529 -2.0267
  134OSM    C7F14584   4.906  -0.111   5.564 -0.2178 -0.1457  0.3413
  134OSM    H7F14585   5.009  -0.072   5.552 -0.2645 -0.9569 -4.0427
  134OSM    H7G14586   4.850  -0.038   5.627  1.7391  1.2589  0.5406
  134OSM    C8F14587   4.843  -0.148   5.431 -0.4652  0.4182  0.2617
  134OSM    H8F14588   4.740  -0.189   5.441 -0.2423 -0.2817 -0.2316
  134OSM    H8G14589   4.898  -0.232   5.385  1.4584  0.7605  1.8169
  134OSM    C9F14590   4.837  -0.041   5.325 -0.3311 -0.2141  0.0826
  134OSM    H9F14591   4.789   0.053   5.356  1.2488  0.8741 -0.6809
  134OSM   C10F14592   4.894  -0.042   5.208  0.1102 -0.4528 -0.1426
  134OSM   H10F14593   4.890   0.049   5.146  3.6843  0.2236  0.4156
  134OSM   C11F14594   4.971  -0.153   5.150  0.2297 -0.1227  0.5681
  134OSM   H11F14595   4.896  -0.236   5.152 -1.1690  0.8590 -2.9840
  134OSM   H11G14596   5.069  -0.174   5.198  0.9395  0.8222 -0.4175
  134OSM   C12F14597   5.013  -0.125   5.000 -0.7510 -0.1206  0.2440
  134OSM   H12F14598   5.071  -0.031   5.002  0.7527 -1.0068 -0.1778
  134OSM   H12G14599   4.926  -0.106   4.934 -0.3819 -0.5838 -0.3885
  134OSM   C13F14600   5.103  -0.236   4.944  0.0638  0.4980  0.4229
  134OSM   H13F14601   5.029  -0.315   4.920  1.1681  0.2387 -2.5902
  134OSM   H13G14602   5.178  -0.283   5.012  0.0666 -0.9814 -0.5451
  134OSM   C14F14603   5.186  -0.204   4.821 -0.9477 -0.4596  0.6305
  134OSM   H14F14604   5.230  -0.299   4.784  2.5550  0.9269  0.8226
  134OSM   H14G14605   5.272  -0.137   4.844 -0.8256 -0.2287 -0.4214
  134OSM   C15F14606   5.102  -0.134   4.708 -0.9318  0.7784 -0.2774
  134OSM   H15F14607   5.081  -0.026   4.722  0.0908  0.9744 -0.1363
  134OSM   H15G14608   5.004  -0.186   4.706  0.1109 -1.3410 -2.1010
  134OSM   C16F14609   5.160  -0.155   4.569 -0.0719  0.1906  0.3113
  134OSM   H16F14610   5.192  -0.261   4.557 -0.5532  0.2163 -1.6071
  134OSM   H16G14611   5.257  -0.103   4.560 -0.6786  1.0492 -1.7847
  134OSM   C17F14612   5.066  -0.108   4.463 -0.3195  0.5084  0.6041
  134OSM   H17F14613   5.005  -0.022   4.496 -1.4444 -0.8366  2.2178
  134OSM   H17G14614   4.990  -0.188   4.448  2.1138 -1.7721 -0.6479
  134OSM   C18F14615   5.146  -0.095   4.330 -0.5352 -0.2615 -0.5272
  134OSM   H18F14616   5.222  -0.015   4.346 -1.2744  0.1897  0.8482
  134OSM   H18G14617   5.079  -0.067   4.246 -0.1968  1.9614 -0.1159
  134OSM   H18H14618   5.198  -0.191   4.312 -0.6834 -0.2170 -1.2435
  135OSM      N14619   5.227   5.543   7.011 -0.4995 -0.4992  0.3896
  135OSM    C1514620   5.150   5.422   7.037 -0.0685  0.2959  0.7286
  135OSM   H15A14621   5.163   5.357   6.952 -0.5927  0.6628  0.3588
  135OSM   H15B14622   5.044   5.441   7.048 -0.2162 -1.5286  3.7925
  135OSM   H15C14623   5.191   5.371   7.123  2.5515 -1.0397 -1.2018
  135OSM    C1414624   5.189   5.648   7.119  0.4305  0.5880 -0.0656
  135OSM   H14A14625   5.209   5.601   7.214 -1.8782 -0.1781  0.1042
  135OSM   H14B14626   5.084   5.672   7.115 -0.1754 -1.4912  1.5004
  135OSM   H14C14627   5.250   5.735   7.101  0.7603  0.2546 -0.5868
  135OSM    C1314628   5.368   5.512   7.029  0.1568  0.4496  0.8512
  135OSM   H13A14629   5.390   5.435   6.957 -0.7296  2.0539 -1.2542
  135OSM   H13B14630   5.394   5.485   7.130  0.7898 -1.4331  0.2119
  135OSM   H13C14631   5.435   5.591   6.998  1.1797  0.4902  3.0149
  135OSM    C1214632   5.202   5.596   6.876 -0.4460  0.0739  0.1478
  135OSM   H12A14633   5.253   5.686   6.847 -0.0375  0.0284  0.7036
  135OSM   H12B14634   5.095   5.605   6.868 -0.5937 -2.0015 -0.9204
  135OSM    C1114635   5.243   5.494   6.764 -0.4163  0.5167  0.4426
  135OSM   H11A14636   5.339   5.444   6.790 -1.4904 -0.5063  2.7816
  135OSM   H11B14637   5.260   5.548   6.669  2.0991  0.7989  0.9758
  135OSM      P14638   5.000   5.406   6.693 -0.2457 -0.1114 -0.0790
  135OSM    O1314639   4.909   5.370   6.801 -0.5432 -0.5094 -0.8281
  135OSM    O1414640   4.988   5.543   6.641  0.3090 -0.3574 -0.2229
  135OSM    O1114641   4.991   5.301   6.576  0.0557  0.2269 -0.0193
  135OSM    O1214642   5.148   5.391   6.740 -0.2960  0.1496 -0.1568
  135OSM    C1S14643   5.110   5.294   6.495 -0.6519 -0.2453 -0.5523
  135OSM    H1S14644   5.176   5.212   6.531 -0.4350  0.5304  0.8717
  135OSM    H1T14645   5.178   5.382   6.502  0.5558 -1.0667 -1.4259
  135OSM     NF14646   5.220   5.254   6.275  0.4758 -0.6233  0.3368
  135OSM    HNF14647   5.254   5.327   6.217 -0.3480 -0.8650 -0.4692
  135OSM    C2S14648   5.084   5.270   6.345  0.1530  0.0120 -0.0285
  135OSM    H2S14649   5.018   5.181   6.341  0.2656 -0.1873  1.7805
  135OSM    C3S14650   5.011   5.382   6.283  1.0200  0.4201  0.1382
  135OSM    H3S14651   5.066   5.479   6.286 -0.3689  1.2177  1.2505
  135OSM     O314652   4.889   5.414   6.356 -0.1158 -0.4284  0.2528
  135OSM    HO314653   4.902   5.372   6.441 -0.8649 -0.1393  0.5146
  135OSM    C4S14654   4.982   5.362   6.135 -0.0806 -0.3021 -0.5724
  135OSM    H4S14655   5.031   5.441   6.077  0.8466  1.5811  2.5375
  135OSM    C5S14656   4.874   5.291   6.082 -0.5256  0.3492  0.2040
  135OSM    H5S14657   4.810   5.237   6.153  0.4050  1.1733  1.7281
  135OSM    C6S14658   4.835   5.291   5.937  0.0067  0.2317 -0.2556
  135OSM    H6S14659   4.724   5.294   5.939  0.0106  0.2729 -0.0816
  135OSM    H6T14660   4.846   5.193   5.886  1.0455  1.2102 -2.0304
  135OSM    C7S14661   4.879   5.415   5.852  0.7917 -0.2148 -0.6310
  135OSM    H7S14662   4.989   5.425   5.853  1.0706 -2.4279 -2.6045
  135OSM    H7T14663   4.822   5.506   5.881 -0.4204 -1.3907  0.8603
  135OSM    C8S14664   4.844   5.384   5.704  0.1192 -0.4147 -0.0227
  135OSM    H8S14665   4.734   5.385   5.688  0.0038 -1.1729  0.6619
  135OSM    H8T14666   4.878   5.281   5.680 -0.8090 -0.7146 -0.0923
  135OSM    C9S14667   4.911   5.485   5.603  0.5649  0.0802 -0.6611
  135OSM    H9S14668   5.005   5.515   5.654  0.0353 -2.5346  2.1631
  135OSM    H9T14669   4.859   5.583   5.596  2.6893  1.1986 -2.1409
  135OSM   C10S14670   4.912   5.420   5.462  0.0792 -0.4408 -0.3550
  135OSM   H10S14671   4.811   5.380   5.437 -0.3347  0.6453 -0.4774
  135OSM   H10T14672   4.980   5.332   5.462  1.6442  0.7196  0.4902
  135OSM   C11S14673   4.955   5.522   5.354  0.8244 -0.9047  0.2120
  135OSM   H11S14674   5.046   5.581   5.378  1.3134 -0.4654 -2.4129
  135OSM   H11T14675   4.865   5.587   5.345  1.8872  0.7558  1.1393
  135OSM   C12S14676   4.969   5.457   5.217  0.7783 -0.5096  0.3829
  135OSM   H12S14677   4.877   5.406   5.180 -0.6764  1.6627  0.7694
  135OSM   H12T14678   5.046   5.378   5.228  1.3546 -0.2203 -1.2993
  135OSM   C13S14679   5.011   5.551   5.102 -0.5092  0.4310 -0.2409
  135OSM   H13S14680   5.116   5.587   5.112  0.0121 -0.7001 -1.3658
  135OSM   H13T14681   4.942   5.638   5.106  0.0857  0.9155 -0.4511
  135OSM   C14S14682   4.989   5.477   4.964 -0.1998  0.3739 -0.0499
  135OSM   H14S14683   4.892   5.472   4.911 -0.4774 -0.9293  0.5252
  135OSM   H14T14684   5.030   5.374   4.975 -0.6399  0.4323  3.7078
  135OSM   C15S14685   5.072   5.550   4.860 -0.7126  0.1467  0.2573
  135OSM   H15S14686   5.182   5.534   4.861 -0.6787 -0.3263 -2.8209
  135OSM   H15T14687   5.056   5.660   4.867  0.6566  0.6190 -2.5780
  135OSM   C16S14688   5.026   5.502   4.721 -0.1133  0.8788 -0.2295
  135OSM   H16S14689   4.932   5.549   4.686  0.9341  1.0162 -3.1204
  135OSM   H16T14690   5.014   5.392   4.730  2.5386  0.3612 -1.9015
  135OSM   C17S14691   5.138   5.507   4.614  0.1334  0.1085  0.1657
  135OSM   H17S14692   5.087   5.507   4.515  1.7675  1.8899 -0.7311
  135OSM   H17T14693   5.208   5.421   4.619 -1.1990 -0.9853  0.7604
  135OSM   C18S14694   5.222   5.636   4.613  0.5569  0.1797  0.1352
  135OSM   H18S14695   5.267   5.639   4.511  0.6994 -2.2439  0.0751
  135OSM   H18T14696   5.296   5.636   4.696  0.4686  2.4730  0.2876
  135OSM   H18U14697   5.150   5.720   4.623 -1.5709 -1.6947  1.2739
  135OSM    C1F14698   5.286   5.140   6.300  0.6013  0.8764 -0.3786
  135OSM     OF14699   5.223   5.052   6.359 -0.3824 -0.2187 -0.6164
  135OSM    C2F14700   5.431   5.130   6.249 -0.0441  0.3130  0.0146
  135OSM    H2F14701   5.489   5.089   6.334 -0.7758 -0.8730 -0.0329
  135OSM    H2G14702   5.470   5.230   6.220 -1.1921  1.0119  0.7869
  135OSM    C3F14703   5.445   5.024   6.130 -0.2658 -0.5030  0.0874
  135OSM    H3F14704   5.408   4.925   6.165  0.7295 -0.7092  0.5784
  135OSM    H3G14705   5.553   5.017   6.107 -0.0820 -0.1740  0.8206
  135OSM    C4F14706   5.365   5.069   6.000  0.0500  1.0012  0.7343
  135OSM    H4F14707   5.263   5.091   6.037 -0.4740  0.4947 -0.3793
  135OSM    H4G14708   5.392   5.163   5.948 -1.3678  0.0324 -1.9629
  135OSM    C5F14709   5.361   4.956   5.889 -0.1422 -0.3595 -0.1709
  135OSM    H5F14710   5.309   5.002   5.802  1.0851 -1.8453 -1.7672
  135OSM    H5G14711   5.290   4.876   5.920 -0.0300 -1.1465 -1.8192
  135OSM    C6F14712   5.500   4.908   5.844  0.0024  0.2292  0.8229
  135OSM    H6F14713   5.498   4.799   5.826 -0.3448  0.4980 -0.9515
  135OSM    H6G14714   5.572   4.925   5.926  0.9165 -3.0047  0.8051
  135OSM    C7F14715   5.533   4.978   5.710  0.6887 -0.2063 -0.8176
  135OSM    H7F14716   5.524   5.087   5.728  3.6501  0.4022 -2.4202
  135OSM    H7G14717   5.469   4.935   5.630  1.3694  0.7154 -1.8834
  135OSM    C8F14718   5.683   4.961   5.676 -0.8060  0.9666  0.2266
  135OSM    H8F14719   5.714   4.855   5.685 -0.4588  1.0497  0.0393
  135OSM    H8G14720   5.754   5.012   5.745  0.7319 -0.1109 -0.5171
  135OSM    C9F14721   5.726   5.006   5.541  0.3116  0.2142  0.7934
  135OSM    H9F14722   5.765   5.109   5.547 -0.1323  0.3247  2.8177
  135OSM   C10F14723   5.700   4.943   5.427 -0.1592 -0.2745  0.1763
  135OSM   H10F14724   5.728   4.991   5.332  1.1344  0.9984  1.1558
  135OSM   C11F14725   5.640   4.807   5.415  0.8013  0.4132 -0.0812
  135OSM   H11F14726   5.530   4.815   5.422  0.8357  0.8833 -0.0472
  135OSM   H11G14727   5.667   4.754   5.510 -1.6072  1.1655  1.0971
  135OSM   C12F14728   5.671   4.734   5.287 -1.3000 -0.3549  0.7646
  135OSM   H12F14729   5.615   4.638   5.281 -0.3248 -0.8717 -0.8527
  135OSM   H12G14730   5.779   4.710   5.289 -1.3153 -0.5035 -0.0053
  135OSM   C13F14731   5.644   4.815   5.157 -0.1139  0.7369 -0.0825
  135OSM   H13F14732   5.716   4.900   5.156  0.2996  0.3940  0.2360
  135OSM   H13G14733   5.537   4.841   5.167 -0.4726  0.1753 -2.0191
  135OSM   C14F14734   5.670   4.728   5.039 -0.4942 -0.2765 -0.3184
  135OSM   H14F14735   5.574   4.689   5.000  0.5682 -1.0861 -2.2920
  135OSM   H14G14736   5.743   4.646   5.060  1.2774  1.3528  0.2198
  135OSM   C15F14737   5.745   4.799   4.917  0.7380  0.1202 -0.3925
  135OSM   H15F14738   5.855   4.808   4.930  0.4434 -0.1576  3.3042
  135OSM   H15G14739   5.709   4.904   4.919 -1.3180 -0.5101 -1.1659
  135OSM   C16F14740   5.693   4.732   4.785  0.6397  0.0481 -0.7655
  135OSM   H16F14741   5.583   4.728   4.800  0.8224  0.1235  0.8028
  135OSM   H16G14742   5.732   4.628   4.779  1.4667  0.0573  2.5908
  135OSM   C17F14743   5.701   4.818   4.655 -0.2283  0.4982  0.1917
  135OSM   H17F14744   5.811   4.829   4.638 -0.1028  2.7162  1.9176
  135OSM   H17G14745   5.668   4.922   4.677 -1.4516 -0.0835  1.1973
  135OSM   C18F14746   5.623   4.771   4.527  0.0550 -0.1584  0.5762
  135OSM   H18F14747   5.654   4.680   4.472 -1.8375  1.1000 -2.8871
  135OSM   H18G14748   5.613   4.855   4.455 -0.3645  1.0947  2.0267
  135OSM   H18H14749   5.523   4.744   4.565  1.3621 -1.9396  3.0436
  136OSM      N14750   1.127   5.888   7.093 -0.0059  1.2226  0.3878
  136OSM    C1514751   0.982   5.860   7.121 -0.3235  0.0221 -0.0237
  136OSM   H15A14752   0.917   5.945   7.106  1.2741  0.8890 -2.6193
  136OSM   H15B14753   0.971   5.848   7.228 -0.3414 -0.9581 -0.1275
  136OSM   H15C14754   0.937   5.778   7.067  0.4448 -1.1990  1.1179
  136OSM    C1414755   1.167   6.007   7.176 -0.4793  1.1306  0.5331
  136OSM   H14A14756   1.161   5.979   7.280  0.3387 -0.5580  0.1547
  136OSM   H14B14757   1.103   6.094   7.170 -2.0223 -0.0203 -0.5157
  136OSM   H14C14758   1.266   6.042   7.151 -0.0540  0.5255  1.3286
  136OSM    C1314759   1.205   5.763   7.134 -0.6655  0.4724 -1.0781
  136OSM   H13A14760   1.176   5.752   7.237 -0.9960  1.6110 -1.0362
  136OSM   H13B14761   1.310   5.786   7.120  0.0105  0.0734  2.3909
  136OSM   H13C14762   1.168   5.686   7.068  0.3697 -0.7021 -0.3271
  136OSM    C1214763   1.149   5.919   6.942  0.2332 -0.0391 -0.3587
  136OSM   H12A14764   1.257   5.919   6.936  0.3696 -2.7545  0.4316
  136OSM   H12B14765   1.107   6.017   6.924  0.0664 -0.0677 -0.1347
  136OSM    C1114766   1.087   5.824   6.845 -0.5963  0.0322  0.9124
  136OSM   H11A14767   1.107   5.877   6.750  2.2674  0.2533  1.5684
  136OSM   H11B14768   0.977   5.818   6.860 -0.4518 -1.2771  1.6274
  136OSM      P14769   1.091   5.570   6.805  0.0030 -0.1248 -0.0340
  136OSM    O1314770   1.180   5.464   6.857  0.1301 -0.0886 -0.0821
  136OSM    O1414771   0.950   5.560   6.830  0.0562 -0.0479 -0.5839
  136OSM    O1114772   1.112   5.577   6.647 -0.1066 -0.3049  0.0784
  136OSM    O1214773   1.159   5.701   6.854 -0.2039 -0.0928  0.2289
  136OSM    C1S14774   1.242   5.601   6.587 -0.8391  0.5092  0.2514
  136OSM    H1S14775   1.314   5.518   6.605 -1.8509 -1.3227 -3.1151
  136OSM    H1T14776   1.294   5.689   6.631 -0.4988  0.6912 -0.4967
  136OSM     NF14777   1.358   5.611   6.365  0.0179  0.6923  0.3650
  136OSM    HNF14778   1.409   5.696   6.359  1.7302 -0.0227  3.1383
  136OSM    C2S14779   1.229   5.621   6.428  0.2117  0.8317  0.4374
  136OSM    H2S14780   1.167   5.534   6.396  0.9917 -0.0378  1.2292
  136OSM    C3S14781   1.142   5.746   6.385  0.2237 -0.4604 -0.2004
  136OSM    H3S14782   1.198   5.837   6.418 -0.2350 -1.1329  2.7525
  136OSM     O314783   1.022   5.751   6.465  0.6361 -0.3000 -0.1110
  136OSM    HO314784   1.031   5.691   6.539  0.5492  0.4569  0.5298
  136OSM    C4S14785   1.109   5.750   6.245 -0.2545  0.2186 -0.5254
  136OSM    H4S14786   1.047   5.666   6.211  0.4223  0.0462 -1.3739
  136OSM    C5S14787   1.165   5.827   6.155 -0.4825  0.5181 -0.1644
  136OSM    H5S14788   1.255   5.886   6.178 -0.6053  0.4039  0.6336
  136OSM    C6S14789   1.148   5.816   6.002 -0.1587 -0.1832  0.1558
  136OSM    H6S14790   1.123   5.914   5.956 -0.4526 -0.6696 -0.7526
  136OSM    H6T14791   1.060   5.755   5.970 -1.2777  1.7066 -0.5281
  136OSM    C7S14792   1.280   5.768   5.951 -0.1089 -0.6659  0.4218
  136OSM    H7S14793   1.314   5.681   6.011 -1.8748 -1.7970 -0.1546
  136OSM    H7T14794   1.362   5.840   5.973 -2.1985  1.2798  2.4181
  136OSM    C8S14795   1.272   5.743   5.797  0.2434  0.0253  0.2625
  136OSM    H8S14796   1.235   5.835   5.747 -0.8983  2.0406  4.4188
  136OSM    H8T14797   1.204   5.656   5.782 -2.4252  1.9262  0.7546
  136OSM    C9S14798   1.399   5.685   5.743  0.5335  0.3205 -1.0142
  136OSM    H9S14799   1.399   5.574   5.749 -2.4495 -0.0765 -4.5531
  136OSM    H9T14800   1.485   5.723   5.802  1.1015 -0.1454 -1.5346
  136OSM   C10S14801   1.427   5.729   5.602 -0.1371 -0.2688  0.3891
  136OSM   H10S14802   1.521   5.686   5.561 -0.2486  1.8777 -2.3643
  136OSM   H10T14803   1.440   5.839   5.597 -0.2030 -0.3027 -3.0125
  136OSM   C11S14804   1.309   5.704   5.508 -0.8122  0.1729  0.3039
  136OSM   H11S14805   1.218   5.764   5.530 -1.2794 -0.1301 -0.7430
  136OSM   H11T14806   1.285   5.596   5.500 -1.0213  0.1983  0.5658
  136OSM   C12S14807   1.342   5.752   5.362 -0.1532 -0.8840 -0.0377
  136OSM   H12S14808   1.444   5.712   5.342 -1.0520 -2.7011 -1.1757
  136OSM   H12T14809   1.332   5.862   5.365  0.1105 -0.8631  0.1400
  136OSM   C13S14810   1.251   5.695   5.246 -0.7660 -0.1435 -0.5560
  136OSM   H13S14811   1.260   5.772   5.166 -0.2779  0.4016  0.0124
  136OSM   H13T14812   1.144   5.696   5.275 -0.6700  1.1613 -0.1854
  136OSM   C14S14813   1.298   5.569   5.173  0.6205 -0.2962 -0.0779
  136OSM   H14S14814   1.326   5.491   5.247 -2.5753 -0.9681  0.5989
  136OSM   H14T14815   1.371   5.594   5.094 -0.5813  3.4894 -0.1813
  136OSM   C15S14816   1.183   5.501   5.098  0.1047  0.1534  1.1650
  136OSM   H15S14817   1.096   5.487   5.166 -0.5833 -1.2982  0.0437
  136OSM   H15T14818   1.211   5.396   5.073  0.8301  0.7305 -0.5503
  136OSM   C16S14819   1.152   5.573   4.962  0.5039 -0.1483 -0.1008
  136OSM   H16S14820   1.245   5.619   4.922  0.2688  0.2054 -0.2498
  136OSM   H16T14821   1.086   5.662   4.973 -0.3406 -0.6941 -0.6315
  136OSM   C17S14822   1.085   5.482   4.856 -0.4255  0.0252 -0.1867
  136OSM   H17S14823   1.141   5.387   4.844  0.3971 -0.4339  4.8635
  136OSM   H17T14824   1.083   5.541   4.762  1.2963  0.0234 -0.2700
  136OSM   C18S14825   0.947   5.442   4.912 -0.5493 -0.0202  0.2328
  136OSM   H18S14826   0.900   5.526   4.967 -2.7892 -0.1424 -1.3830
  136OSM   H18T14827   0.951   5.359   4.985 -0.2973 -0.1845  0.0356
  136OSM   H18U14828   0.876   5.419   4.830 -1.0370  0.1586  0.5998
  136OSM    C1F14829   1.433   5.501   6.350 -0.3795 -0.6088 -0.2310
  136OSM     OF14830   1.394   5.389   6.346 -0.1137  0.0593  0.5871
  136OSM    C2F14831   1.576   5.524   6.339  0.2432 -0.4277  0.2581
  136OSM    H2F14832   1.636   5.535   6.432  1.1970  1.0723 -0.4827
  136OSM    H2G14833   1.589   5.627   6.300 -0.3377 -0.5388 -0.2396
  136OSM    C3F14834   1.636   5.422   6.247 -0.0749  0.0247 -0.4219
  136OSM    H3F14835   1.609   5.319   6.279  0.5442 -0.3631 -1.0998
  136OSM    H3G14836   1.746   5.420   6.262 -0.2539 -1.2333  0.9150
  136OSM    C4F14837   1.608   5.437   6.095 -0.4859 -0.1251 -0.0124
  136OSM    H4F14838   1.636   5.541   6.067  2.8695 -0.9055 -0.0713
  136OSM    H4G14839   1.504   5.432   6.059 -1.3263  3.5533  1.4304
  136OSM    C5F14840   1.694   5.338   6.018  0.1933  0.4152 -0.6491
  136OSM    H5F14841   1.671   5.235   6.054 -1.3896  1.4716  1.6683
  136OSM    H5G14842   1.797   5.367   6.045 -0.2781 -0.1972  2.1107
  136OSM    C6F14843   1.677   5.358   5.865 -0.2919  0.1170  0.0124
  136OSM    H6F14844   1.672   5.467   5.843 -0.4806  0.5970  2.1926
  136OSM    H6G14845   1.580   5.320   5.829  0.7977 -0.6286 -2.3051
  136OSM    C7F14846   1.788   5.286   5.788 -0.5816  0.2264 -0.6777
  136OSM    H7F14847   1.782   5.178   5.815 -1.1048  1.0185  2.9103
  136OSM    H7G14848   1.883   5.314   5.838  1.4087 -1.9767 -2.9466
  136OSM    C8F14849   1.788   5.290   5.631  0.4340  1.7971  0.0402
  136OSM    H8F14850   1.702   5.229   5.595  0.8511  0.8493  0.6135
  136OSM    H8G14851   1.884   5.245   5.599  0.1170  1.8888 -1.0890
  136OSM    C9F14852   1.781   5.422   5.573  0.1811 -0.2658  0.1431
  136OSM    H9F14853   1.786   5.497   5.653  0.1664 -1.4243  1.2700
  136OSM   C10F14854   1.770   5.453   5.442 -0.1498 -0.2291  0.2566
  136OSM   H10F14855   1.753   5.557   5.410 -2.4067 -0.2781  1.1226
  136OSM   C11F14856   1.774   5.368   5.316  1.0847 -0.0258  0.1376
  136OSM   H11F14857   1.765   5.259   5.335  0.6023  0.1978  1.2032
  136OSM   H11G14858   1.874   5.355   5.268  0.8964 -3.6477  0.4191
  136OSM   C12F14859   1.662   5.404   5.218  0.6696 -0.5580  0.4347
  136OSM   H12F14860   1.679   5.508   5.183  2.3963 -0.6543  0.8863
  136OSM   H12G14861   1.560   5.386   5.259 -0.0387 -0.6805 -1.3076
  136OSM   C13F14862   1.669   5.316   5.096  0.1537  0.1684  0.9047
  136OSM   H13F14863   1.638   5.215   5.128 -0.2362  0.3143  0.9878
  136OSM   H13G14864   1.777   5.293   5.081  0.1758  1.2783 -1.0234
  136OSM   C14F14865   1.589   5.358   4.974 -0.3988  0.1453 -0.5669
  136OSM   H14F14866   1.483   5.373   5.004 -0.2782 -0.8161  0.3869
  136OSM   H14G14867   1.607   5.279   4.897 -1.6203 -0.4950 -0.2129
  136OSM   C15F14868   1.638   5.483   4.902 -0.0368 -0.7429  0.7682
  136OSM   H15F14869   1.614   5.570   4.968 -2.3457 -1.7639  1.3888
  136OSM   H15G14870   1.584   5.498   4.806  0.0355 -0.8761  0.7066
  136OSM   C16F14871   1.786   5.493   4.862  0.2179  0.3058  0.5690
  136OSM   H16F14872   1.842   5.499   4.957  1.0269 -2.8575  0.3936
  136OSM   H16G14873   1.815   5.582   4.801  2.1073 -0.8749 -0.3858
  136OSM   C17F14874   1.831   5.379   4.775  0.1562  0.1005 -0.5055
  136OSM   H17F14875   1.818   5.282   4.828  4.3096  0.2006  1.0638
  136OSM   H17G14876   1.938   5.392   4.751 -0.0588  0.6345 -1.2151
  136OSM   C18F14877   1.754   5.364   4.635  0.0091  0.4540 -0.9029
  136OSM   H18F14878   1.648   5.387   4.656 -0.3458 -2.5758  1.4853
  136OSM   H18G14879   1.754   5.259   4.598 -1.0063 -0.0831  0.5319
  136OSM   H18H14880   1.803   5.427   4.558 -1.3059 -0.1695 -2.2975
  137OSM      N14881   2.838   6.131   6.746  0.4452  0.0099  0.4315
  137OSM    C1514882   2.896   6.033   6.648 -0.6027 -1.1398 -0.6451
  137OSM   H15A14883   2.971   5.972   6.696  0.2293 -0.0590 -0.5307
  137OSM   H15B14884   2.961   6.093   6.587  1.9130 -0.6972  2.2738
  137OSM   H15C14885   2.828   5.974   6.587 -0.5317  0.2732 -2.1714
  137OSM    C1414886   2.757   6.241   6.681  0.2223 -0.7623 -0.3728
  137OSM   H14A14887   2.824   6.303   6.623  0.5126  0.4731  1.2062
  137OSM   H14B14888   2.701   6.305   6.747  3.8061  2.4408 -0.1060
  137OSM   H14C14889   2.676   6.211   6.615  0.0167 -0.6339 -0.1795
  137OSM    C1314890   2.747   6.073   6.858 -0.2495 -0.7372  0.6325
  137OSM   H13A14891   2.801   6.004   6.921 -0.3815 -0.8252  0.6480
  137OSM   H13B14892   2.665   6.026   6.808 -0.7068  1.8407 -1.2341
  137OSM   H13C14893   2.700   6.153   6.914 -0.8943  0.5831 -1.6818
  137OSM    C1214894   2.956   6.196   6.813  0.2483 -0.2802  0.2774
  137OSM   H12A14895   3.018   6.120   6.858  1.2440  0.8278  0.8475
  137OSM   H12B14896   2.919   6.252   6.898  1.1844  1.5523 -0.4680
  137OSM    C1114897   3.041   6.297   6.735  0.0754  0.6936  0.2601
  137OSM   H11A14898   3.104   6.332   6.819 -2.5257  0.7903  2.2895
  137OSM   H11B14899   2.981   6.384   6.700 -1.8528 -0.1304  1.3722
  137OSM      P14900   3.248   6.166   6.652  0.4073  0.0622 -0.3356
  137OSM    O1314901   3.360   6.260   6.674  0.0757 -0.0829 -0.0505
  137OSM    O1414902   3.221   6.058   6.749  0.5627  0.2916  0.7025
  137OSM    O1114903   3.271   6.095   6.513 -0.2637  0.2809 -0.3325
  137OSM    O1214904   3.116   6.235   6.634 -0.2155 -0.2272 -0.0631
  137OSM    C1S14905   3.318   6.176   6.404  0.2370  0.2281  0.2215
  137OSM    H1S14906   3.425   6.203   6.410  0.7240 -1.6318  0.5911
  137OSM    H1T14907   3.253   6.265   6.390 -0.1081 -0.0958 -0.2731
  137OSM     NF14908   3.346   6.194   6.147 -0.0469 -0.0498 -0.1357
  137OSM    HNF14909   3.283   6.215   6.072  0.3021 -0.7556 -0.6360
  137OSM    C2S14910   3.309   6.100   6.264  0.0728 -0.1693 -0.0266
  137OSM    H2S14911   3.387   6.021   6.273 -0.9883 -1.2909 -0.4386
  137OSM    C3S14912   3.171   6.032   6.246 -0.4012  0.5548 -0.2419
  137OSM    H3S14913   3.082   6.098   6.260 -0.8372 -0.6876  4.2396
  137OSM     O314914   3.140   5.944   6.350  0.2448  0.4928 -0.6015
  137OSM    HO314915   3.182   5.993   6.421  1.4582  1.7497 -2.1044
  137OSM    C4S14916   3.163   5.968   6.112 -0.3095 -0.0515  0.2479
  137OSM    H4S14917   3.084   6.010   6.048  0.1390  0.8758  0.2793
  137OSM    C5S14918   3.218   5.856   6.077  0.3713 -0.7491 -0.1827
  137OSM    H5S14919   3.271   5.801   6.157 -2.1940 -0.3432  1.9437
  137OSM    C6S14920   3.186   5.775   5.952  0.1895 -0.1762  0.6294
  137OSM    H6S14921   3.225   5.673   5.972 -2.3165 -1.3232  0.1138
  137OSM    H6T14922   3.257   5.802   5.872  2.4042 -0.5426  2.3763
  137OSM    C7S14923   3.050   5.766   5.884 -0.7542  0.0309 -1.0948
  137OSM    H7S14924   3.028   5.862   5.833 -3.0908  0.6129  0.8184
  137OSM    H7T14925   2.969   5.753   5.958  0.2688 -0.9089 -0.1153
  137OSM    C8S14926   3.035   5.660   5.779  0.3647  0.1517  0.1335
  137OSM    H8S14927   2.928   5.653   5.749  0.9301 -2.7102 -1.5432
  137OSM    H8T14928   3.045   5.562   5.831 -0.8133  0.3141  0.7049
  137OSM    C9S14929   3.130   5.668   5.659  0.0530 -0.1841  0.2689
  137OSM    H9S14930   3.191   5.577   5.643 -1.7093 -1.1148 -1.5109
  137OSM    H9T14931   3.202   5.751   5.674 -0.2732 -0.0010  0.8893
  137OSM   C10S14932   3.059   5.690   5.523  0.2718 -0.1351  0.1487
  137OSM   H10S14933   3.014   5.791   5.530  0.3477 -0.0179 -0.9428
  137OSM   H10T14934   2.979   5.613   5.515  0.2859 -0.2084  0.6766
  137OSM   C11S14935   3.159   5.695   5.403  0.3846  0.2053  0.1624
  137OSM   H11S14936   3.203   5.593   5.398 -1.1481 -0.4119 -2.7063
  137OSM   H11T14937   3.231   5.769   5.444 -0.5212  0.0186  2.2568
  137OSM   C12S14938   3.106   5.741   5.276  0.2066  0.2775  0.1233
  137OSM   H12S14939   3.071   5.847   5.277  1.6949  0.8329  2.7853
  137OSM   H12T14940   3.020   5.680   5.240  0.1162  0.5276 -0.0977
  137OSM   C13S14941   3.212   5.742   5.174  0.2039 -0.8541 -0.1252
  137OSM   H13S14942   3.227   5.635   5.146 -2.0484 -0.9299 -1.2399
  137OSM   H13T14943   3.305   5.785   5.217 -1.7492  1.6868  1.8053
  137OSM   C14S14944   3.177   5.821   5.044  0.0060 -0.3408  0.0732
  137OSM   H14S14945   3.124   5.917   5.060  1.0671  0.4755 -1.1725
  137OSM   H14T14946   3.110   5.760   4.979  0.5679 -0.0661 -0.7629
  137OSM   C15S14947   3.295   5.848   4.948 -0.1288  0.9841 -0.4229
  137OSM   H15S14948   3.342   5.750   4.923 -1.6242 -0.1574  0.9984
  137OSM   H15T14949   3.367   5.919   4.993 -0.8980  1.9890 -0.7642
  137OSM   C16S14950   3.252   5.926   4.820  0.3831  0.4010  0.4419
  137OSM   H16S14951   3.325   6.005   4.793  0.6019 -0.5845 -2.0626
  137OSM   H16T14952   3.154   5.971   4.847 -0.2099  0.2334 -1.3353
  137OSM   C17S14953   3.236   5.836   4.694 -0.6068  1.0982 -0.6527
  137OSM   H17S14954   3.164   5.754   4.713 -0.3880 -0.0732 -4.1749
  137OSM   H17T14955   3.336   5.790   4.679 -0.0829  1.8911  0.2356
  137OSM   C18S14956   3.186   5.914   4.573  0.0468 -0.7222  0.3535
  137OSM   H18S14957   3.164   5.841   4.492  0.1510 -0.6220  0.2355
  137OSM   H18T14958   3.264   5.985   4.538 -0.0149 -0.9489 -0.2509
  137OSM   H18U14959   3.087   5.963   4.590 -0.9188 -2.3315 -0.3839
  137OSM    C1F14960   3.477   6.225   6.128  0.2133 -0.4120 -0.0895
  137OSM     OF14961   3.564   6.174   6.195 -0.0277  0.1752  0.3220
  137OSM    C2F14962   3.503   6.325   6.023  0.4311 -0.2328  0.2865
  137OSM    H2F14963   3.466   6.419   6.069 -1.9820 -1.3828  0.9000
  137OSM    H2G14964   3.440   6.298   5.935 -0.9718  2.1000  0.4817
  137OSM    C3F14965   3.653   6.344   5.982  0.3174 -0.2711  0.1740
  137OSM    H3F14966   3.688   6.241   5.957 -0.3688  0.1290 -2.8107
  137OSM    H3G14967   3.715   6.372   6.069 -0.6316  1.4865  0.3213
  137OSM    C4F14968   3.667   6.440   5.871  0.4499  0.0171 -0.4135
  137OSM    H4F14969   3.620   6.536   5.900  0.5344 -0.2352  0.5711
  137OSM    H4G14970   3.611   6.396   5.785  0.4478 -0.6013 -0.0990
  137OSM    C5F14971   3.815   6.467   5.834  0.6613  0.2856  0.2611
  137OSM    H5F14972   3.861   6.366   5.822  1.5097  0.5014  1.4842
  137OSM    H5G14973   3.862   6.511   5.925  0.7563  0.6485  0.0355
  137OSM    C6F14974   3.844   6.565   5.724  0.0680  0.1213 -0.4632
  137OSM    H6F14975   3.941   6.614   5.747  0.5896 -1.4779  0.9774
  137OSM    H6G14976   3.764   6.641   5.735 -0.2281 -0.0375 -1.4332
  137OSM    C7F14977   3.823   6.518   5.580 -0.5170  0.0416 -0.1986
  137OSM    H7F14978   3.714   6.500   5.568 -0.9802  2.5136 -0.3140
  137OSM    H7G14979   3.882   6.426   5.564 -0.8826  0.0397 -1.6141
  137OSM    C8F14980   3.878   6.630   5.478 -0.6172  0.4823  0.0694
  137OSM    H8F14981   3.842   6.724   5.526  0.5405  1.1079 -0.2432
  137OSM    H8G14982   3.821   6.618   5.384  1.0765  1.1582 -1.0854
  137OSM    C9F14983   4.025   6.618   5.464  0.5169  0.8977  0.4889
  137OSM    H9F14984   4.077   6.598   5.559  2.7082 -2.2262 -1.1913
  137OSM   C10F14985   4.101   6.623   5.352 -0.8213 -0.5020 -0.3206
  137OSM   H10F14986   4.207   6.600   5.370 -1.1034 -1.7812 -0.2118
  137OSM   C11F14987   4.044   6.637   5.209 -0.0900 -0.1536  0.1097
  137OSM   H11F14988   3.945   6.687   5.218 -0.2418 -0.0280 -1.9199
  137OSM   H11G14989   4.031   6.545   5.148  0.8203  0.9701 -1.8787
  137OSM   C12F14990   4.133   6.729   5.125  0.2841  0.3827  0.0792
  137OSM   H12F14991   4.234   6.684   5.120 -0.2528 -0.7273 -2.7042
  137OSM   H12G14992   4.138   6.830   5.172  0.1756  0.1016  0.6973
  137OSM   C13F14993   4.079   6.749   4.979  0.3151  0.6127  0.4442
  137OSM   H13F14994   3.981   6.799   4.985 -0.4155 -0.8961  1.8300
  137OSM   H13G14995   4.058   6.654   4.925  0.9456  1.5009 -1.4478
  137OSM   C14F14996   4.169   6.836   4.895 -0.1213  0.3680 -0.0177
  137OSM   H14F14997   4.264   6.783   4.873  0.4356  0.8067  1.2070
  137OSM   H14G14998   4.194   6.925   4.957  1.8170 -1.1815  1.5616
  137OSM   C15F14999   4.092   6.880   4.768  0.1261 -0.4987  0.1078
  137OSM   H15F15000   4.153   6.959   4.718 -1.5889  1.0185  0.3321
  137OSM   H15G15001   3.996   6.929   4.793 -0.0186 -1.0693  0.6908
  137OSM   C16F15002   4.079   6.768   4.665 -0.2395  0.2430  0.4262
  137OSM   H16F15003   4.003   6.693   4.695  1.3625 -1.2361  0.9796
  137OSM   H16G15004   4.176   6.714   4.659 -0.4002 -0.0486  0.4747
  137OSM   C17F15005   4.039   6.818   4.524 -0.4507  0.2965 -0.3409
  137OSM   H17F15006   4.030   6.724   4.466 -0.6938  1.0325 -1.5242
  137OSM   H17G15007   4.124   6.873   4.477  1.0700 -0.7912  1.0016
  137OSM   C18F15008   3.903   6.895   4.514 -0.4812 -0.6097 -0.4310
  137OSM   H18F15009   3.918   6.999   4.551 -0.9730 -0.4803 -0.5729
  137OSM   H18G15010   3.824   6.845   4.574 -1.4892  3.0598  1.6324
  137OSM   H18H15011   3.873   6.909   4.407 -0.0784  1.7272 -0.3065
  138OSM      N15012   5.786   4.663   7.207  0.0726 -0.1120  0.2385
  138OSM    C1515013   5.690   4.759   7.265 -0.6320 -0.6359 -0.1601
  138OSM   H15A15014   5.606   4.706   7.309 -1.1530  1.3311  1.3351
  138OSM   H15B15015   5.653   4.825   7.188  1.6286  0.2410 -0.5653
  138OSM   H15C15016   5.741   4.833   7.324  3.0686 -0.1834 -3.5334
  138OSM    C1415017   5.816   4.552   7.307  0.4467 -0.5186 -0.1552
  138OSM   H14A15018   5.881   4.472   7.276  1.2640  0.0549  0.0626
  138OSM   H14B15019   5.715   4.520   7.328  0.3860  0.3531  0.9322
  138OSM   H14C15020   5.867   4.589   7.394  0.0593 -0.7193  0.1590
  138OSM    C1315021   5.721   4.599   7.089  0.3481  0.5609  0.3690
  138OSM   H13A15022   5.780   4.540   7.021 -2.7629 -0.6826 -1.4615
  138OSM   H13B15023   5.677   4.676   7.027 -2.8593 -0.9874  0.5093
  138OSM   H13C15024   5.637   4.538   7.120 -0.4075  1.1587 -0.4685
  138OSM    C1215025   5.915   4.735   7.173 -0.0017  0.2700  0.0462
  138OSM   H12A15026   5.958   4.745   7.272 -0.8653 -1.6576  0.6475
  138OSM   H12B15027   5.901   4.835   7.134  0.1158  0.4216  0.3897
  138OSM    C1115028   6.022   4.654   7.092 -1.1159 -0.5468  0.1295
  138OSM   H11A15029   6.048   4.562   7.149 -0.7894  0.3037  1.3864
  138OSM   H11B15030   6.104   4.729   7.090 -2.4674  0.9970 -1.4365
  138OSM      P15031   5.957   4.740   6.860  0.5095 -0.2432  0.0738
  138OSM    O1315032   5.815   4.787   6.869  0.1551  0.5376  0.1474
  138OSM    O1415033   6.054   4.849   6.882  0.0488  0.2551  0.0683
  138OSM    O1115034   5.967   4.672   6.710  0.1188  0.0618 -0.4140
  138OSM    O1215035   5.981   4.616   6.958 -0.1731  0.0016 -0.2242
  138OSM    C1S15036   5.947   4.530   6.702 -0.4350 -0.1905  0.2723
  138OSM    H1S15037   5.849   4.487   6.732 -1.9353  2.0214 -1.1218
  138OSM    H1T15038   6.022   4.473   6.761  0.0784  0.0267 -0.1622
  138OSM     NF15039   5.963   4.335   6.550  0.1024  0.0043  0.0851
  138OSM    HNF15040   6.040   4.279   6.582  0.4308 -0.8012 -1.9529
  138OSM    C2S15041   5.978   4.482   6.557  0.0719 -0.0756 -0.1951
  138OSM    H2S15042   5.899   4.528   6.494 -0.9951 -0.5301  0.7669
  138OSM    C3S15043   6.116   4.526   6.510 -0.4221 -0.6715  0.0855
  138OSM    H3S15044   6.193   4.506   6.588 -2.2675  0.6686  2.3813
  138OSM     O315045   6.106   4.662   6.468  0.1570 -0.2722  0.2858
  138OSM    HO315046   6.018   4.690   6.492  0.4638  0.6238  0.4226
  138OSM    C4S15047   6.160   4.448   6.387 -0.0401  0.0082 -0.4210
  138OSM    H4S15048   6.119   4.496   6.297 -1.3274  0.7120  0.5051
  138OSM    C5S15049   6.233   4.330   6.385  0.3273 -0.3751 -0.4151
  138OSM    H5S15050   6.290   4.299   6.474  0.5806 -2.8303 -1.3529
  138OSM    C6S15051   6.271   4.243   6.268  0.5038 -0.0976 -0.9427
  138OSM    H6S15052   6.207   4.152   6.265  1.4045 -0.7599 -0.7493
  138OSM    H6T15053   6.377   4.208   6.274  1.2016  1.7325 -1.8016
  138OSM    C7S15054   6.263   4.321   6.140 -0.2290  0.5507 -0.4396
  138OSM    H7S15055   6.321   4.416   6.135  0.0463  0.3042 -3.1760
  138OSM    H7T15056   6.156   4.350   6.130 -0.1527  0.8599 -0.3893
  138OSM    C8S15057   6.291   4.244   6.016 -0.0344  0.5377  0.3830
  138OSM    H8S15058   6.248   4.141   6.016 -0.1266  0.5366 -1.6034
  138OSM    H8T15059   6.402   4.237   6.013 -0.0306  0.6767  0.1663
  138OSM    C9S15060   6.246   4.301   5.881  0.4984  0.1416  0.2573
  138OSM    H9S15061   6.261   4.411   5.893 -0.9572  0.1712  2.2715
  138OSM    H9T15062   6.138   4.281   5.869  0.7703 -0.3467 -1.8190
  138OSM   C10S15063   6.316   4.246   5.759 -0.1895  0.2969 -0.4194
  138OSM   H10S15064   6.303   4.136   5.749  1.0574  0.2714 -2.2397
  138OSM   H10T15065   6.426   4.259   5.772  0.2669 -1.3232 -2.2986
  138OSM   C11S15066   6.268   4.304   5.629  0.6960 -0.0725 -0.2398
  138OSM   H11S15067   6.294   4.412   5.628  1.3949 -0.2302  0.2005
  138OSM   H11T15068   6.160   4.291   5.606  0.8307 -0.7655 -0.4940
  138OSM   C12S15069   6.347   4.251   5.507 -0.4112  1.0064 -0.4272
  138OSM   H12S15070   6.310   4.149   5.486 -0.0819  0.6834  0.5095
  138OSM   H12T15071   6.454   4.254   5.534 -0.2239 -3.3369 -0.1098
  138OSM   C13S15072   6.326   4.335   5.379  0.2808  0.2901  0.5821
  138OSM   H13S15073   6.358   4.442   5.384  0.2602  0.2359  2.7370
  138OSM   H13T15074   6.219   4.333   5.351  0.3614 -1.8137  0.3090
  138OSM   C14S15075   6.405   4.265   5.256  0.1912 -0.9196 -0.9400
  138OSM   H14S15076   6.342   4.174   5.244  2.4882 -2.6358 -0.4773
  138OSM   H14T15077   6.505   4.238   5.294 -0.4730  0.2628  1.9809
  138OSM   C15S15078   6.388   4.346   5.127 -0.2171  0.4932 -0.0101
  138OSM   H15S15079   6.403   4.455   5.143  0.5942  0.4498 -0.4095
  138OSM   H15T15080   6.280   4.346   5.099 -0.8780  0.8256  2.3126
  138OSM   C16S15081   6.493   4.301   5.031  0.2879  0.7460  0.6005
  138OSM   H16S15082   6.482   4.193   5.006 -1.0404  1.3590 -1.7438
  138OSM   H16T15083   6.592   4.320   5.078  0.5280  0.5040  0.1965
  138OSM   C17S15084   6.500   4.368   4.891  0.7672 -0.3586 -0.3444
  138OSM   H17S15085   6.515   4.476   4.911  2.4583 -0.3641 -1.3478
  138OSM   H17T15086   6.403   4.351   4.840  0.0962 -0.9353  1.0722
  138OSM   C18S15087   6.620   4.311   4.817 -0.5520 -1.1098 -0.5257
  138OSM   H18S15088   6.612   4.201   4.806  0.0349 -1.3911  1.4431
  138OSM   H18T15089   6.708   4.332   4.883 -1.3962  3.3322 -0.4630
  138OSM   H18U15090   6.643   4.358   4.719 -0.1402 -1.8605 -0.7936
  138OSM    C1F15091   5.852   4.267   6.527 -0.4845 -0.2532 -0.7633
  138OSM     OF15092   5.751   4.328   6.493 -0.1030  0.9869 -0.3998
  138OSM    C2F15093   5.840   4.118   6.564 -0.3937 -0.8725  0.2168
  138OSM    H2F15094   5.823   4.115   6.673 -4.8971  3.6531  0.0060
  138OSM    H2G15095   5.929   4.064   6.527  0.0939  2.3673 -4.2358
  138OSM    C3F15096   5.726   4.062   6.480  0.0718  0.4754 -0.3942
  138OSM    H3F15097   5.629   4.113   6.497 -0.0463  0.2647 -0.4328
  138OSM    H3G15098   5.710   3.956   6.510  1.1451  0.1607 -0.8688
  138OSM    C4F15099   5.745   4.056   6.325  0.5431  0.6570  0.1262
  138OSM    H4F15100   5.749   4.153   6.271 -2.5884  0.9192  0.1505
  138OSM    H4G15101   5.646   4.017   6.292  1.2212 -1.2266  0.1526
  138OSM    C5F15102   5.856   3.966   6.272  0.7194 -0.8731  0.4578
  138OSM    H5F15103   5.852   3.857   6.288  1.9005 -1.1103 -0.6747
  138OSM    H5G15104   5.945   3.994   6.332  1.9946 -0.5977 -1.4799
  138OSM    C6F15105   5.902   3.997   6.126  0.0043 -0.6221 -0.2858
  138OSM    H6F15106   5.998   3.943   6.113 -0.6455 -1.3306 -2.4516
  138OSM    H6G15107   5.925   4.105   6.119 -2.7261  0.0760  0.2452
  138OSM    C7F15108   5.811   3.947   6.013  0.5031 -0.1165 -0.0536
  138OSM    H7F15109   5.708   3.968   6.047  0.2642 -1.0900 -0.1500
  138OSM    H7G15110   5.798   3.837   6.009 -0.7063 -0.0031  0.3898
  138OSM    C8F15111   5.844   3.998   5.870 -0.2674 -0.7898 -0.0011
  138OSM    H8F15112   5.832   4.108   5.883  2.4362 -0.4203 -0.1122
  138OSM    H8G15113   5.770   3.958   5.798 -1.4665 -1.5301  1.5731
  138OSM    C9F15114   5.984   3.972   5.831 -0.2743 -0.3346 -0.9525
  138OSM    H9F15115   6.062   4.009   5.899 -0.1406 -0.7205 -0.8947
  138OSM   C10F15116   6.028   3.925   5.712  1.1760  0.1073 -0.2799
  138OSM   H10F15117   6.136   3.918   5.692  1.1332 -2.8798  0.0780
  138OSM   C11F15118   5.946   3.862   5.603  0.5422  0.2340 -0.4323
  138OSM   H11F15119   5.836   3.870   5.613  0.5099  0.4262 -0.9270
  138OSM   H11G15120   5.971   3.755   5.590  2.8855  0.5635  0.7621
  138OSM   C12F15121   5.954   3.932   5.462  0.2347 -0.0061  0.0314
  138OSM   H12F15122   5.919   4.037   5.469 -0.9781 -0.3066 -1.2276
  138OSM   H12G15123   5.885   3.884   5.391  1.2028 -0.5083 -0.5944
  138OSM   C13F15124   6.098   3.934   5.403  0.6772  0.0148 -0.2768
  138OSM   H13F15125   6.144   3.833   5.416 -2.4685 -1.4241  0.9820
  138OSM   H13G15126   6.157   4.013   5.453  0.1261 -0.6743  1.5751
  138OSM   C14F15127   6.090   3.980   5.251  0.0458  0.4792 -0.1535
  138OSM   H14F15128   6.192   4.013   5.221  0.3291 -1.2705 -1.2334
  138OSM   H14G15129   6.008   4.054   5.237  1.2049  1.5830 -1.5489
  138OSM   C15F15130   6.061   3.859   5.156 -0.1225  0.0848 -0.2191
  138OSM   H15F15131   5.967   3.817   5.197 -0.1119  0.8294  0.6162
  138OSM   H15G15132   6.145   3.787   5.162  0.0065  0.2705  0.3189
  138OSM   C16F15133   6.043   3.907   5.022  0.0869  0.2502  0.3358
  138OSM   H16F15134   6.128   3.964   4.979 -0.5611  0.6236 -0.4958
  138OSM   H16G15135   5.971   3.992   5.027 -1.1412 -0.5397 -2.0883
  138OSM   C17F15136   5.990   3.805   4.920  0.4485 -0.4543 -0.0093
  138OSM   H17F15137   5.957   3.866   4.833 -0.9581 -0.8419  0.2309
  138OSM   H17G15138   5.902   3.752   4.962  1.1914 -0.3944  1.6801
  138OSM   C18F15139   6.086   3.705   4.860  0.4903 -0.3093  0.6620
  138OSM   H18F15140   6.130   3.641   4.939  1.3592 -0.2811  0.2187
  138OSM   H18G15141   6.168   3.749   4.798 -0.5404 -0.3757 -0.8104
  138OSM   H18H15142   6.034   3.636   4.790  0.5179  0.7134 -0.4080
  139OSM      N15143   0.161   0.397   6.974 -0.7074 -0.1470 -0.4623
  139OSM    C1515144   0.063   0.286   6.952 -0.0692 -0.2077 -0.6186
  139OSM   H15A15145   0.098   0.200   6.896 -0.4609 -0.4781 -0.4545
  139OSM   H15B15146  -0.028   0.318   6.903 -0.7788  0.0433  0.8100
  139OSM   H15C15147   0.024   0.253   7.047  0.1944 -0.2911 -0.5375
  139OSM    C1415148   0.095   0.509   7.047  0.3768 -0.1144 -0.1723
  139OSM   H14A15149   0.029   0.556   6.977  2.2703 -0.5449 -2.3486
  139OSM   H14B15150   0.164   0.584   7.082 -0.0132  2.1668 -3.7789
  139OSM   H14C15151   0.031   0.466   7.124 -0.2737 -3.0350 -2.1694
  139OSM    C1315152   0.269   0.351   7.063  0.1093 -0.8131  0.1555
  139OSM   H13A15153   0.358   0.412   7.062 -0.0435 -0.6014 -0.8085
  139OSM   H13B15154   0.293   0.252   7.027 -3.0027 -1.8658  0.6275
  139OSM   H13C15155   0.230   0.341   7.164  2.1449  2.2055  1.3659
  139OSM    C1215156   0.216   0.447   6.836  0.0062  0.3375 -0.2671
  139OSM   H12A15157   0.258   0.358   6.792 -1.8780 -0.1930 -1.0727
  139OSM   H12B15158   0.297   0.517   6.851 -0.9940  1.1215  1.9182
  139OSM    C1115159   0.112   0.505   6.735  0.8524 -0.2536  0.7614
  139OSM   H11A15160   0.029   0.432   6.731  0.3017  0.3660  0.6333
  139OSM   H11B15161   0.151   0.516   6.631  0.6555 -0.0553  0.7066
  139OSM      P15162   0.141   0.761   6.776 -0.3418  0.1024  0.3427
  139OSM    O1315163   0.048   0.872   6.788 -0.2645 -0.2997 -0.3396
  139OSM    O1415164   0.243   0.757   6.885  0.5402  0.0413 -0.5124
  139OSM    O1115165   0.216   0.761   6.637  0.6005 -0.5602 -0.1228
  139OSM    O1215166   0.055   0.625   6.775  0.5285 -0.3495 -0.1626
  139OSM    C1S15167   0.138   0.787   6.519  0.4628  0.3833 -0.1528
  139OSM    H1S15168   0.064   0.868   6.537 -0.0503 -0.2451  0.7211
  139OSM    H1T15169   0.077   0.696   6.498  0.9530 -0.5917  2.2399
  139OSM     NF15170   0.142   0.863   6.290  0.7702  0.1889  0.5642
  139OSM    HNF15171   0.096   0.794   6.235 -0.1943  2.5754 -1.8092
  139OSM    C2S15172   0.226   0.818   6.399  0.2405  0.6446  0.3532
  139OSM    H2S15173   0.295   0.904   6.417 -0.6667  1.9312 -1.8693
  139OSM    C3S15174   0.320   0.698   6.367  0.4630 -0.2321 -0.1287
  139OSM    H3S15175   0.258   0.609   6.391 -0.3257  0.2413 -0.3611
  139OSM     O315176   0.438   0.688   6.449 -0.2425 -0.5849  0.2387
  139OSM    HO315177   0.402   0.681   6.538 -2.8807  1.7044 -0.5112
  139OSM    C4S15178   0.359   0.702   6.223 -0.2894  0.0503 -0.2375
  139OSM    H4S15179   0.400   0.794   6.180 -0.9611  1.0060  1.1108
  139OSM    C5S15180   0.351   0.602   6.133 -0.3264  0.1004 -0.4374
  139OSM    H5S15181   0.291   0.513   6.155 -0.1565  0.2629  0.7247
  139OSM    C6S15182   0.388   0.634   5.986  0.9276 -0.3663  0.1093
  139OSM    H6S15183   0.421   0.739   5.973  0.7492 -0.3980 -0.6576
  139OSM    H6T15184   0.293   0.630   5.928 -0.3462  2.4437  1.7824
  139OSM    C7S15185   0.492   0.543   5.930 -0.3260 -0.2234 -0.3355
  139OSM    H7S15186   0.457   0.437   5.929 -0.7057 -0.0988 -0.3044
  139OSM    H7T15187   0.586   0.553   5.989  0.6888 -0.4684 -1.8590
  139OSM    C8S15188   0.542   0.577   5.792  0.4651  0.1968 -0.5544
  139OSM    H8S15189   0.624   0.506   5.766  1.1987  0.4715  0.9186
  139OSM    H8T15190   0.584   0.680   5.801  3.2441 -0.7663 -1.2339
  139OSM    C9S15191   0.429   0.553   5.685 -0.4829 -0.0556  0.5866
  139OSM    H9S15192   0.339   0.617   5.693 -0.2549  0.3547 -0.0300
  139OSM    H9T15193   0.399   0.446   5.698  0.9966 -0.3793  1.7303
  139OSM   C10S15194   0.491   0.585   5.551 -0.3588 -0.0507  0.3754
  139OSM   H10S15195   0.574   0.514   5.532 -1.4923 -1.2144 -0.3995
  139OSM   H10T15196   0.529   0.689   5.565  0.2444 -0.1510 -0.4424
  139OSM   C11S15197   0.399   0.591   5.433  0.1676  0.2235 -0.0148
  139OSM   H11S15198   0.322   0.668   5.453 -0.6359 -0.7570  0.7626
  139OSM   H11T15199   0.351   0.491   5.424  1.2349 -0.2535 -0.5922
  139OSM   C12S15200   0.471   0.625   5.307 -0.5132  0.0037 -0.1676
  139OSM   H12S15201   0.568   0.570   5.311  0.6891  2.0799  3.4288
  139OSM   H12T15202   0.506   0.730   5.310  0.9254 -0.3791 -1.8549
  139OSM   C13S15203   0.391   0.610   5.177 -0.8442 -0.8299  0.4147
  139OSM   H13S15204   0.344   0.707   5.152 -0.2815 -0.8108 -0.6310
  139OSM   H13T15205   0.315   0.530   5.191 -1.2117 -0.4990  0.3282
  139OSM   C14S15206   0.490   0.592   5.061 -0.1887 -0.3032 -0.1886
  139OSM   H14S15207   0.543   0.497   5.085 -1.5427 -0.7583  1.1656
  139OSM   H14T15208   0.559   0.679   5.056  0.4714 -0.8933 -2.3396
  139OSM   C15S15209   0.412   0.572   4.928  0.7848 -0.0542  0.1704
  139OSM   H15S15210   0.355   0.667   4.918 -0.1572 -0.4326  1.6202
  139OSM   H15T15211   0.338   0.489   4.936  0.3507  0.3355  0.2431
  139OSM   C16S15212   0.504   0.536   4.810 -0.1353  0.3333  0.2592
  139OSM   H16S15213   0.454   0.533   4.711 -1.0135  1.7464  0.6302
  139OSM   H16T15214   0.561   0.444   4.837 -1.9606 -1.4487 -1.6309
  139OSM   C17S15215   0.603   0.653   4.780  0.0599 -0.0881  0.3834
  139OSM   H17S15216   0.689   0.632   4.847  1.2866 -3.3735 -1.9409
  139OSM   H17T15217   0.563   0.753   4.806  1.0723  0.1481  1.0933
  139OSM   C18S15218   0.653   0.647   4.633 -0.2901 -0.0823 -0.4009
  139OSM   H18S15219   0.714   0.555   4.620 -0.5048 -0.3443  0.3627
  139OSM   H18T15220   0.737   0.719   4.619 -0.1324  0.1396  1.4600
  139OSM   H18U15221   0.569   0.667   4.563  0.4710  0.4105 -1.2010
  139OSM    C1F15222   0.092   0.985   6.293 -0.2081 -0.1973 -0.6010
  139OSM     OF15223   0.133   1.074   6.369 -0.2879  0.1983 -0.0393
  139OSM    C2F15224  -0.023   1.008   6.202 -0.0017 -0.2073  0.6872
  139OSM    H2F15225  -0.097   1.066   6.262  0.4358 -0.9859  2.0328
  139OSM    H2G15226  -0.068   0.912   6.169  0.7420 -0.7918  1.3415
  139OSM    C3F15227   0.015   1.091   6.071  0.2141 -0.6934  0.1024
  139OSM    H3F15228   0.059   1.188   6.102 -3.0267  1.6545 -1.9532
  139OSM    H3G15229  -0.069   1.104   5.999  0.8602  0.3309 -0.4945
  139OSM    C4F15230   0.118   1.036   5.982 -0.2725 -0.3370 -0.6282
  139OSM    H4F15231   0.212   1.029   6.041 -0.3393 -2.1740 -0.6878
  139OSM    H4G15232   0.145   1.116   5.910 -0.4228 -0.1677 -0.4970
  139OSM    C5F15233   0.090   0.908   5.914  0.3305  0.0908  0.2894
  139OSM    H5F15234   0.067   0.830   5.990 -1.2176  0.0295 -0.2135
  139OSM    H5G15235   0.183   0.884   5.858 -0.7380  0.1889 -1.6028
  139OSM    C6F15236  -0.017   0.914   5.806  0.0528  1.0812 -0.3083
  139OSM    H6F15237  -0.103   0.974   5.843 -0.3178 -0.7878  2.1308
  139OSM    H6G15238  -0.057   0.812   5.787 -2.0399  1.8954 -0.5576
  139OSM    C7F15239   0.035   0.978   5.676 -0.3075 -0.6328 -0.1123
  139OSM    H7F15240   0.122   0.917   5.643 -0.7141 -0.7733 -0.9490
  139OSM    H7G15241   0.064   1.083   5.701 -1.8979 -0.5559  1.6700
  139OSM    C8F15242  -0.071   0.980   5.564  0.0529 -0.6299 -0.1205
  139OSM    H8F15243  -0.047   1.066   5.498  1.0980  0.2195  1.3119
  139OSM    H8G15244  -0.173   0.995   5.605  0.6055  0.4746  0.9189
  139OSM    C9F15245  -0.073   0.846   5.498 -0.4475  0.2003 -0.2970
  139OSM    H9F15246  -0.049   0.756   5.557  0.1711 -0.9926 -2.2477
  139OSM   C10F15247  -0.069   0.835   5.364  0.8751  0.1156  0.9808
  139OSM   H10F15248  -0.065   0.734   5.321  1.0675  0.3365  0.4724
  139OSM   C11F15249  -0.096   0.951   5.267 -0.2884  0.8784  0.2781
  139OSM   H11F15250  -0.019   1.030   5.254  0.4683  0.3130  1.1366
  139OSM   H11G15251  -0.183   1.012   5.300 -0.6283  0.5177  0.0583
  139OSM   C12F15252  -0.124   0.893   5.122  0.1402 -0.0662 -0.4401
  139OSM   H12F15253  -0.038   0.826   5.101  0.6233  0.6129 -0.6604
  139OSM   H12G15254  -0.116   0.979   5.051 -0.2969 -0.2709 -0.7409
  139OSM   C13F15255  -0.254   0.817   5.104 -0.0031 -0.0158  0.0465
  139OSM   H13F15256  -0.353   0.865   5.114 -1.0985 -1.5176 -2.4718
  139OSM   H13G15257  -0.258   0.740   5.184  1.9337 -0.1724  0.0596
  139OSM   C14F15258  -0.259   0.748   4.964 -0.7957 -0.4568 -0.5805
  139OSM   H14F15259  -0.360   0.706   4.948 -1.2872  0.5900 -0.2900
  139OSM   H14G15260  -0.187   0.663   4.965  0.2240  0.3348 -2.0967
  139OSM   C15F15261  -0.218   0.831   4.847  0.6519 -0.7209 -0.1399
  139OSM   H15F15262  -0.113   0.868   4.853 -0.4521  2.8758 -0.4407
  139OSM   H15G15263  -0.291   0.915   4.851 -0.2769 -1.5590  1.8782
  139OSM   C16F15264  -0.236   0.749   4.714 -0.0778  0.6037 -0.3046
  139OSM   H16F15265  -0.328   0.688   4.715  0.1518  0.2538  0.1568
  139OSM   H16G15266  -0.146   0.684   4.711 -0.1499  0.4987 -0.1904
  139OSM   C17F15267  -0.249   0.833   4.593  0.1658  0.0034  0.0469
  139OSM   H17F15268  -0.159   0.896   4.574 -0.4488  0.9326  0.1641
  139OSM   H17G15269  -0.329   0.904   4.622 -0.4435 -1.1231  1.2618
  139OSM   C18F15270  -0.270   0.754   4.470 -0.3912 -0.0091 -0.1254
  139OSM   H18F15271  -0.366   0.698   4.476 -1.0687  1.1681  0.3722
  139OSM   H18G15272  -0.186   0.683   4.453 -0.8480 -0.6096  0.0638
  139OSM   H18H15273  -0.273   0.824   4.384  0.2857  0.0878 -0.0740
  140OSM      N15274   4.015   6.469   6.681 -0.0798 -0.1762  0.2313
  140OSM    C1515275   4.077   6.350   6.749 -0.0921 -0.7528  0.2835
  140OSM   H15A15276   4.089   6.267   6.681  1.3352 -0.8306  0.5935
  140OSM   H15B15277   4.020   6.331   6.838  0.5839  1.2119  1.1916
  140OSM   H15C15278   4.177   6.373   6.784 -0.3460 -1.4206  1.4989
  140OSM    C1415279   3.876   6.435   6.645 -0.4077  0.2396  0.2753
  140OSM   H14A15280   3.868   6.338   6.597 -0.9792 -1.5074  3.6095
  140OSM   H14B15281   3.818   6.506   6.588 -1.6171 -0.3096  0.7713
  140OSM   H14C15282   3.813   6.421   6.732 -2.6914  2.8132 -0.8125
  140OSM    C1315283   3.997   6.600   6.763  0.6609 -0.0363 -0.0748
  140OSM   H13A15284   4.085   6.660   6.777  0.0449  0.5462  1.6428
  140OSM   H13B15285   3.961   6.572   6.861 -1.0901 -0.0350 -0.6768
  140OSM   H13C15286   3.930   6.672   6.717  1.8167 -0.2122 -2.1413
  140OSM    C1215287   4.091   6.501   6.554  0.1215 -0.9366 -0.2752
  140OSM   H12A15288   4.045   6.580   6.496  0.9267 -1.3263 -1.4984
  140OSM   H12B15289   4.100   6.417   6.487 -0.0522 -1.8325  0.7889
  140OSM    C1115290   4.225   6.574   6.591  0.2760  0.1685  0.1472
  140OSM   H11A15291   4.303   6.547   6.516  2.2772  3.0152  1.0306
  140OSM   H11B15292   4.261   6.524   6.683 -1.7719 -0.1697  0.8228
  140OSM      P15293   4.331   6.809   6.629 -0.1410  0.2283 -0.0091
  140OSM    O1315294   4.271   6.939   6.664 -0.0647 -0.0477 -0.0778
  140OSM    O1415295   4.434   6.753   6.714 -0.4094 -0.2662 -0.6466
  140OSM    O1115296   4.399   6.816   6.485  0.0143  0.0160 -0.0557
  140OSM    O1215297   4.213   6.709   6.612  0.9225  0.1694  0.4597
  140OSM    C1S15298   4.336   6.790   6.361  0.7333 -0.3863  0.2026
  140OSM    H1S15299   4.238   6.740   6.375 -1.5218  3.6891  0.6763
  140OSM    H1T15300   4.399   6.714   6.309  0.1238 -0.7752  0.0239
  140OSM     NF15301   4.251   6.873   6.145 -0.1182  0.5444  0.3517
  140OSM    HNF15302   4.303   6.879   6.060 -1.2116  1.3867 -0.2850
  140OSM    C2S15303   4.317   6.914   6.270  0.4409  0.1985  0.1560
  140OSM    H2S15304   4.238   6.975   6.318  1.0980  0.1546  1.3267
  140OSM    C3S15305   4.437   7.001   6.253 -0.7116  0.1378  0.2088
  140OSM    H3S15306   4.515   6.938   6.207 -1.2999 -0.1088 -0.4625
  140OSM     O315307   4.485   7.042   6.375  0.2415 -0.4160  0.4771
  140OSM    HO315308   4.435   6.985   6.434  0.6950 -0.5649  0.7174
  140OSM    C4S15309   4.412   7.114   6.153  0.8821 -0.9269 -0.3951
  140OSM    H4S15310   4.312   7.158   6.165  1.3108 -0.4723  1.9702
  140OSM    C5S15311   4.482   7.148   6.050  0.1851  0.6138  0.1797
  140OSM    H5S15312   4.576   7.092   6.039 -2.1789 -3.5559 -1.0105
  140OSM    C6S15313   4.445   7.242   5.941  0.0564 -0.5841  0.2727
  140OSM    H6S15314   4.443   7.169   5.857 -0.1955 -1.8364  1.3246
  140OSM    H6T15315   4.520   7.317   5.909 -0.2724 -0.5269 -0.3697
  140OSM    C7S15316   4.304   7.305   5.952  0.6428  0.5935 -0.1749
  140OSM    H7S15317   4.310   7.370   6.042 -1.1615  1.4145 -0.6081
  140OSM    H7T15318   4.227   7.229   5.978  1.3335  0.2482  0.9331
  140OSM    C8S15319   4.254   7.384   5.822  0.1461 -0.0795 -0.4387
  140OSM    H8S15320   4.304   7.483   5.832 -1.5297  0.6084  1.6993
  140OSM    H8T15321   4.145   7.400   5.809 -0.0992 -0.2009  1.3321
  140OSM    C9S15322   4.295   7.316   5.691  0.1148 -0.3480 -0.2505
  140OSM    H9S15323   4.253   7.213   5.684 -2.2993  0.5014  0.6871
  140OSM    H9T15324   4.406   7.306   5.687  0.2346  0.9261 -0.5457
  140OSM   C10S15325   4.271   7.409   5.569 -0.3814  0.5731 -0.9251
  140OSM   H10S15326   4.338   7.497   5.583 -1.8601  1.4126  1.2996
  140OSM   H10T15327   4.165   7.442   5.575 -0.8805 -1.1595  0.5466
  140OSM   C11S15328   4.294   7.331   5.436 -0.5765 -0.6245 -0.1713
  140OSM   H11S15329   4.224   7.245   5.433  1.9625 -2.7510 -1.8225
  140OSM   H11T15330   4.395   7.285   5.442 -1.5425 -3.1304 -1.7886
  140OSM   C12S15331   4.285   7.416   5.306 -0.4441 -0.1509  0.7929
  140OSM   H12S15332   4.179   7.444   5.289  0.1843  0.4339 -2.8586
  140OSM   H12T15333   4.306   7.348   5.221  1.7915  0.8882  0.4269
  140OSM   C13S15334   4.377   7.535   5.312  0.0406  0.2226 -0.3044
  140OSM   H13S15335   4.479   7.493   5.329  1.4645  4.0120  1.6937
  140OSM   H13T15336   4.355   7.600   5.399 -2.3341 -1.2188  0.2672
  140OSM   C14S15337   4.371   7.619   5.184 -0.2126 -0.5732 -0.9452
  140OSM   H14S15338   4.403   7.536   5.117 -1.0184 -1.1602 -0.6192
  140OSM   H14T15339   4.452   7.695   5.188 -0.9311  0.1357  1.2828
  140OSM   C15S15340   4.234   7.667   5.152  0.0296  0.0846  0.0586
  140OSM   H15S15341   4.206   7.739   5.232 -2.0787 -1.6409  0.9674
  140OSM   H15T15342   4.170   7.577   5.147  0.0025  0.1537 -1.0832
  140OSM   C16S15343   4.206   7.738   5.013 -0.6111  0.0249 -0.1826
  140OSM   H16S15344   4.100   7.770   5.007 -0.2857  1.0451 -0.6988
  140OSM   H16T15345   4.223   7.664   4.932 -0.2908 -0.8272  0.6452
  140OSM   C17S15346   4.303   7.864   4.989 -0.4166  0.2496  0.2192
  140OSM   H17S15347   4.272   7.901   4.889  0.2063  1.4192  0.4445
  140OSM   H17T15348   4.411   7.836   4.991  0.4326  2.5868 -3.2074
  140OSM   C18S15349   4.282   7.983   5.084  0.0978  0.3158 -0.7821
  140OSM   H18S15350   4.328   8.073   5.038  0.1880  0.5880 -0.1808
  140OSM   H18T15351   4.337   7.965   5.179  1.3009 -2.4946 -1.9030
  140OSM   H18U15352   4.174   8.000   5.104  0.3576  0.7516  0.3839
  140OSM    C1F15353   4.134   6.819   6.142  0.1716  0.4168  0.9718
  140OSM     OF15354   4.064   6.822   6.240  0.1278  0.2024 -0.1158
  140OSM    C2F15355   4.083   6.783   6.007 -0.2739  0.0332  0.2957
  140OSM    H2F15356   4.080   6.672   6.000 -0.8238  0.1299 -1.4560
  140OSM    H2G15357   4.161   6.816   5.935 -1.7420 -0.9115 -1.8450
  140OSM    C3F15358   3.948   6.848   5.971 -0.1411 -0.3958 -0.2433
  140OSM    H3F15359   3.876   6.822   6.051  0.4421  1.4932  0.9533
  140OSM    H3G15360   3.894   6.805   5.884 -1.0505  0.6633 -0.2207
  140OSM    C4F15361   3.973   6.992   5.934 -0.1812  0.0826 -0.2887
  140OSM    H4F15362   4.030   7.039   6.017 -0.2403 -0.9492  0.3494
  140OSM    H4G15363   3.876   7.044   5.922 -0.0039  0.4625 -0.1077
  140OSM    C5F15364   4.036   7.029   5.799 -0.6170  0.4955 -0.7899
  140OSM    H5F15365   4.126   6.965   5.791  0.9779  2.1579  2.0987
  140OSM    H5G15366   4.078   7.132   5.802 -1.2194  0.7269  0.9949
  140OSM    C6F15367   3.941   7.013   5.678 -0.3914 -0.0416 -0.1557
  140OSM    H6F15368   3.858   7.086   5.677 -0.7759 -0.3433 -3.7670
  140OSM    H6G15369   3.908   6.907   5.668 -0.0428 -0.3813  1.8731
  140OSM    C7F15370   4.017   7.040   5.546  1.3283  0.4198 -0.1905
  140OSM    H7F15371   4.111   6.981   5.545  0.6703 -0.6609  0.1905
  140OSM    H7G15372   4.019   7.151   5.537  0.0290  0.6496  1.7129
  140OSM    C8F15373   3.949   6.993   5.417 -0.3067 -0.9064  0.2310
  140OSM    H8F15374   3.940   6.882   5.418  2.1012 -1.1492  0.9426
  140OSM    H8G15375   4.013   7.026   5.333  0.0377  0.8411  1.1391
  140OSM    C9F15376   3.814   7.050   5.408  0.3961 -0.1948 -0.0613
  140OSM    H9F15377   3.740   6.999   5.472  0.0770  0.6255  0.2430
  140OSM   C10F15378   3.778   7.168   5.339  0.7550 -0.2761 -1.0031
  140OSM   H10F15379   3.674   7.201   5.351 -0.1003 -3.4120  1.4532
  140OSM   C11F15380   3.875   7.258   5.268 -0.1287 -0.2527  0.3662
  140OSM   H11F15381   3.972   7.254   5.323 -0.5439  0.0220  1.1419
  140OSM   H11G15382   3.841   7.363   5.270 -0.5237 -0.3721  1.9927
  140OSM   C12F15383   3.901   7.223   5.117 -0.5409  0.4269 -0.7912
  140OSM   H12F15384   3.800   7.201   5.078 -0.3211 -1.0172 -0.6094
  140OSM   H12G15385   3.957   7.127   5.110  1.6828  1.6477 -0.9399
  140OSM   C13F15386   3.990   7.328   5.056 -0.1383  0.4244 -0.3081
  140OSM   H13F15387   4.034   7.396   5.131 -1.8927  1.0281  0.2113
  140OSM   H13G15388   3.935   7.408   5.002 -0.4386  2.4808  2.7952
  140OSM   C14F15389   4.099   7.281   4.961  0.1058  0.1910 -0.5087
  140OSM   H14F15390   4.051   7.221   4.881 -0.1385 -0.0570 -0.1797
  140OSM   H14G15391   4.171   7.213   5.010 -0.9478 -0.9782 -0.5598
  140OSM   C15F15392   4.179   7.396   4.897  0.1446  0.1107  0.4589
  140OSM   H15F15393   4.234   7.456   4.973 -1.5980 -1.0802  2.7990
  140OSM   H15G15394   4.108   7.468   4.851  0.1931 -0.9857 -1.4234
  140OSM   C16F15395   4.277   7.337   4.786  0.4240  0.2782 -0.2383
  140OSM   H16F15396   4.212   7.303   4.703 -0.1077  2.0309 -0.5919
  140OSM   H16G15397   4.316   7.239   4.819 -2.3570 -1.0681 -0.6016
  140OSM   C17F15398   4.384   7.429   4.734  0.8602 -0.5077  0.2095
  140OSM   H17F15399   4.346   7.531   4.709  0.8620 -0.8790 -1.4698
  140OSM   H17G15400   4.419   7.386   4.638  1.8818 -0.7869  0.7050
  140OSM   C18F15401   4.508   7.439   4.820  0.1976  0.9162 -0.8004
  140OSM   H18F15402   4.488   7.496   4.914 -0.4063  1.7829 -1.4407
  140OSM   H18G15403   4.590   7.488   4.763  0.3369  0.3120 -1.1205
  140OSM   H18H15404   4.549   7.337   4.839  1.5443  1.5989  0.1410
  141OSM      N15405   3.214   6.587   6.548 -0.2399 -0.0982  0.1465
  141OSM    C1515406   3.348   6.540   6.570 -0.8804  0.6945  0.4253
  141OSM   H15A15407   3.398   6.528   6.475 -1.1339 -3.3783  0.6122
  141OSM   H15B15408   3.357   6.443   6.618  0.2276  0.8209  0.4999
  141OSM   H15C15409   3.418   6.607   6.617  0.3509 -1.4758  1.9079
  141OSM    C1415410   3.149   6.505   6.444  0.5724 -0.1801 -0.5687
  141OSM   H14A15411   3.056   6.553   6.419 -0.1285 -2.1137 -1.9003
  141OSM   H14B15412   3.118   6.407   6.476  0.8663  0.0373  0.4130
  141OSM   H14C15413   3.205   6.502   6.352 -0.7354 -0.5926 -1.3823
  141OSM    C1315414   3.137   6.586   6.670 -0.1871 -0.1567 -0.0084
  141OSM   H13A15415   3.029   6.594   6.660 -0.4189 -0.6493  1.6810
  141OSM   H13B15416   3.173   6.666   6.733 -3.1417  1.1909  0.1755
  141OSM   H13C15417   3.154   6.492   6.720 -1.8207 -1.7468 -2.2492
  141OSM    C1215418   3.210   6.730   6.487  0.1298 -0.5037  0.2355
  141OSM   H12A15419   3.262   6.724   6.393 -0.1309  1.0739 -0.0422
  141OSM   H12B15420   3.249   6.811   6.548  0.4719  0.8114 -1.6253
  141OSM    C1115421   3.062   6.778   6.435 -1.2399  0.7521 -0.7452
  141OSM   H11A15422   3.025   6.712   6.354 -1.8385 -1.1871  1.0086
  141OSM   H11B15423   3.087   6.879   6.396  0.5956 -0.4089 -2.7745
  141OSM      P15424   2.825   6.737   6.543 -0.3503  0.2992 -0.3308
  141OSM    O1315425   2.795   6.682   6.677 -0.1662  0.3153  0.6134
  141OSM    O1415426   2.746   6.847   6.494  0.2955 -0.1297 -0.0464
  141OSM    O1115427   2.820   6.610   6.445  0.3088  0.1508  0.0306
  141OSM    O1215428   2.980   6.776   6.545 -0.2707 -0.2355 -0.1639
  141OSM    C1S15429   2.691   6.541   6.439 -1.0916 -0.2460 -0.1363
  141OSM    H1S15430   2.605   6.591   6.488 -1.1667  0.8218 -1.3186
  141OSM    H1T15431   2.696   6.444   6.493 -1.9532 -1.0666 -1.4933
  141OSM     NF15432   2.509   6.520   6.266  0.4577  0.1687 -0.4932
  141OSM    HNF15433   2.463   6.439   6.233  0.2326  0.2044 -0.2739
  141OSM    C2S15434   2.647   6.516   6.295 -0.4038 -0.2441  0.4058
  141OSM    H2S15435   2.693   6.599   6.237  1.2859 -0.9502  0.6620
  141OSM    C3S15436   2.721   6.391   6.251 -0.1282 -0.0693 -0.3823
  141OSM    H3S15437   2.685   6.300   6.304  4.3785 -1.1330  1.3580
  141OSM     O315438   2.860   6.389   6.298  0.1681 -0.1243 -0.7020
  141OSM    HO315439   2.883   6.471   6.342 -1.4700  0.2689 -0.4969
  141OSM    C4S15440   2.713   6.355   6.106  0.0545  0.3489 -0.3237
  141OSM    H4S15441   2.747   6.437   6.041  1.1399  0.3199  0.1844
  141OSM    C5S15442   2.666   6.241   6.050 -0.1925 -0.5949  0.0548
  141OSM    H5S15443   2.608   6.170   6.111  0.9376 -1.3047  0.3187
  141OSM    C6S15444   2.658   6.226   5.896 -0.5228 -0.3389 -0.4597
  141OSM    H6S15445   2.568   6.165   5.869 -0.7131 -1.5586  2.5252
  141OSM    H6T15446   2.750   6.169   5.872 -1.3170 -1.2164 -1.5554
  141OSM    C7S15447   2.666   6.355   5.811 -0.1496  0.5616 -0.4159
  141OSM    H7S15448   2.770   6.395   5.818 -0.4788  1.4772 -0.6341
  141OSM    H7T15449   2.596   6.436   5.842 -1.6609 -1.0351  0.5196
  141OSM    C8S15450   2.648   6.322   5.661 -0.3884 -0.3920 -0.4604
  141OSM    H8S15451   2.545   6.297   5.627 -0.1509  0.5939 -2.0035
  141OSM    H8T15452   2.706   6.229   5.642 -0.3416 -0.6233  0.7178
  141OSM    C9S15453   2.705   6.427   5.562 -0.1416  0.0684 -0.0978
  141OSM    H9S15454   2.809   6.443   5.597  0.3482 -2.1566 -0.3826
  141OSM    H9T15455   2.651   6.523   5.564 -1.5296 -0.6962  0.0451
  141OSM   C10S15456   2.698   6.370   5.425 -0.1413  0.3331  0.3484
  141OSM   H10S15457   2.591   6.348   5.402 -0.0797  2.2355 -2.2190
  141OSM   H10T15458   2.754   6.275   5.411 -2.9282 -1.8671  2.5832
  141OSM   C11S15459   2.730   6.465   5.318 -0.5650 -0.0463  0.3629
  141OSM   H11S15460   2.838   6.487   5.306 -0.5012 -0.7800 -0.5071
  141OSM   H11T15461   2.666   6.556   5.328  0.5306  0.6641  1.1693
  141OSM   C12S15462   2.688   6.410   5.179 -0.0884 -0.5962 -0.2884
  141OSM   H12S15463   2.578   6.390   5.180 -0.1324 -0.6833 -2.1357
  141OSM   H12T15464   2.735   6.311   5.158  2.5507  0.8170 -1.4168
  141OSM   C13S15465   2.728   6.497   5.062  0.0007 -0.8066  0.0418
  141OSM   H13S15466   2.830   6.539   5.076 -0.5214  0.8032 -0.8007
  141OSM   H13T15467   2.655   6.581   5.063  0.7700 -0.0881  2.0123
  141OSM   C14S15468   2.709   6.424   4.931 -0.1843 -0.1572  0.8816
  141OSM   H14S15469   2.799   6.359   4.925 -0.8113 -0.9164 -1.0968
  141OSM   H14T15470   2.734   6.494   4.849  1.4475 -0.0418  1.4282
  141OSM   C15S15471   2.589   6.334   4.918 -0.3610  0.7417  0.0680
  141OSM   H15S15472   2.498   6.385   4.956 -0.3689  0.9490 -0.2229
  141OSM   H15T15473   2.608   6.246   4.982  1.8881  0.7825 -0.4571
  141OSM   C16S15474   2.575   6.281   4.781  0.5613 -0.5577 -0.1493
  141OSM   H16S15475   2.668   6.222   4.762  0.2384 -0.5378 -1.9691
  141OSM   H16T15476   2.572   6.364   4.707 -0.4456 -0.1449  0.3331
  141OSM   C17S15477   2.467   6.181   4.754 -0.7363 -0.7042 -0.7860
  141OSM   H17S15478   2.372   6.235   4.736 -0.4166 -0.1817 -0.9182
  141OSM   H17T15479   2.460   6.106   4.836  2.7144 -0.0396  0.3144
  141OSM   C18S15480   2.516   6.104   4.635  0.0326  0.3919 -0.2855
  141OSM   H18S15481   2.572   6.014   4.667  0.4391  1.4343  2.1832
  141OSM   H18T15482   2.569   6.169   4.562  1.2438  1.7149  1.6842
  141OSM   H18U15483   2.426   6.071   4.579  0.6344  2.1381 -2.4178
  141OSM    C1F15484   2.435   6.629   6.293 -0.2496 -1.0604  0.1639
  141OSM     OF15485   2.492   6.732   6.339 -0.2174 -0.3880  0.2804
  141OSM    C2F15486   2.288   6.611   6.269  0.4746 -0.1339  0.6437
  141OSM    H2F15487   2.236   6.627   6.366 -0.0290 -2.6457  0.8381
  141OSM    H2G15488   2.262   6.510   6.231  0.7377  0.4525 -1.1939
  141OSM    C3F15489   2.234   6.725   6.177  0.7630 -0.1731  0.8814
  141OSM    H3F15490   2.244   6.826   6.222 -0.2438  0.1061  0.5099
  141OSM    H3G15491   2.126   6.699   6.174  0.2746  1.5892  1.7450
  141OSM    C4F15492   2.300   6.742   6.039  0.5845  0.5655 -0.1238
  141OSM    H4F15493   2.406   6.773   6.054  0.3047  1.1462  0.7742
  141OSM    H4G15494   2.251   6.826   5.984 -1.4333 -0.6653 -0.3061
  141OSM    C5F15495   2.298   6.614   5.954  0.5584  0.3500 -0.7870
  141OSM    H5F15496   2.192   6.583   5.937  0.7124 -0.6428 -0.0310
  141OSM    H5G15497   2.346   6.527   6.003 -0.1657  0.6573  0.5243
  141OSM    C6F15498   2.366   6.634   5.818 -0.2637 -0.0708  0.5367
  141OSM    H6F15499   2.373   6.545   5.753  0.7539  1.6397 -1.8543
  141OSM    H6G15500   2.473   6.665   5.826  0.3968 -1.8138 -0.9755
  141OSM    C7F15501   2.290   6.737   5.728 -0.1118 -0.5705 -0.1454
  141OSM    H7F15502   2.301   6.841   5.767 -1.6475 -0.8491  1.1317
  141OSM    H7G15503   2.181   6.727   5.742 -0.6672  3.5125 -0.3168
  141OSM    C8F15504   2.331   6.732   5.580  0.0795 -0.1840  0.0446
  141OSM    H8F15505   2.441   6.728   5.565  0.2932  0.1394  1.4116
  141OSM    H8G15506   2.301   6.828   5.532 -1.4452 -0.2095  0.8979
  141OSM    C9F15507   2.257   6.621   5.508 -0.8372 -0.6235  0.1970
  141OSM    H9F15508   2.196   6.560   5.576 -0.7640 -1.4637 -0.4755
  141OSM   C10F15509   2.242   6.604   5.378 -0.3054  0.0594 -0.4442
  141OSM   H10F15510   2.176   6.525   5.340  0.7956 -0.2875 -1.7407
  141OSM   C11F15511   2.329   6.682   5.277  0.1552  0.6547 -0.3891
  141OSM   H11F15512   2.401   6.620   5.220  0.8248  0.7362  0.3502
  141OSM   H11G15513   2.393   6.758   5.326 -2.1044  2.2303  0.3072
  141OSM   C12F15514   2.238   6.753   5.167 -0.8663  0.1722  0.7109
  141OSM   H12F15515   2.292   6.847   5.142  0.9239 -0.9297  0.2683
  141OSM   H12G15516   2.139   6.778   5.212 -1.2865  2.7319 -1.3912
  141OSM   C13F15517   2.239   6.661   5.045  0.0095  0.3208 -0.2578
  141OSM   H13F15518   2.185   6.565   5.063 -1.0978  0.7988 -0.9177
  141OSM   H13G15519   2.340   6.628   5.011 -0.9133 -0.6701 -2.2242
  141OSM   C14F15520   2.162   6.727   4.935  0.2330  0.8653 -0.3268
  141OSM   H14F15521   2.220   6.816   4.902  1.0268  0.2912 -0.5191
  141OSM   H14G15522   2.059   6.752   4.968  0.0299  1.6214 -1.4751
  141OSM   C15F15523   2.154   6.643   4.806 -0.0123  0.8042  0.2387
  141OSM   H15F15524   2.151   6.535   4.831  1.9022  0.6077 -0.2593
  141OSM   H15G15525   2.242   6.655   4.739 -0.4194 -3.4663 -1.3957
  141OSM   C16F15526   2.032   6.666   4.706  0.1534  0.1214 -0.0278
  141OSM   H16F15527   2.003   6.772   4.686  0.2168  0.0937 -0.2687
  141OSM   H16G15528   1.945   6.603   4.735  2.0058 -3.1591 -1.0412
  141OSM   C17F15529   2.064   6.601   4.573  0.0471  0.9617 -0.2607
  141OSM   H17F15530   1.967   6.584   4.521  1.0747 -1.8773 -1.4213
  141OSM   H17G15531   2.121   6.507   4.588 -1.4174 -0.0646 -0.8713
  141OSM   C18F15532   2.147   6.680   4.475  0.5555  0.0996 -0.6298
  141OSM   H18F15533   2.099   6.780   4.467 -2.1815 -1.0663  0.0967
  141OSM   H18G15534   2.148   6.631   4.376  1.0053 -0.0743 -0.5384
  141OSM   H18H15535   2.249   6.689   4.517 -0.0570  1.2780  0.6887
  142OSM      N15536   1.941   4.933   6.884 -0.0703 -0.0303  0.0564
  142OSM    C1515537   1.869   4.802   6.866 -0.2303  0.1408  0.3345
  142OSM   H15A15538   1.789   4.777   6.934  0.7662  0.0703  1.5364
  142OSM   H15B15539   1.942   4.723   6.864 -1.1799 -0.7315 -1.4580
  142OSM   H15C15540   1.829   4.812   6.767  3.5212  0.2084 -1.3610
  142OSM    C1415541   1.839   5.044   6.879  0.1294  0.3507 -0.3735
  142OSM   H14A15542   1.876   5.145   6.886 -1.6046  0.9677  0.3637
  142OSM   H14B15543   1.762   5.027   6.952 -0.1334  0.0883 -0.7050
  142OSM   H14C15544   1.794   5.050   6.781  3.0887 -2.6487 -2.1551
  142OSM    C1315545   2.005   4.943   7.021 -0.2581 -0.5369  0.1000
  142OSM   H13A15546   2.100   4.893   7.020  0.0597 -0.0247  1.9080
  142OSM   H13B15547   1.942   4.899   7.097  2.0350 -0.8549  1.9163
  142OSM   H13C15548   2.041   5.043   7.041 -0.0791 -0.5995  0.0921
  142OSM    C1215549   2.045   4.943   6.776  0.3573  0.2926  0.3801
  142OSM   H12A15550   2.112   4.861   6.794  0.9660  0.5927 -0.4531
  142OSM   H12B15551   2.106   5.028   6.799 -0.2668  0.6211  0.8633
  142OSM    C1115552   2.000   4.943   6.629 -0.8201  0.3745  0.1763
  142OSM   H11A15553   1.922   4.865   6.613 -2.6901  1.8757  1.4113
  142OSM   H11B15554   2.098   4.916   6.583 -0.4144  1.6539  0.2666
  142OSM      P15555   2.045   5.206   6.565  0.2714 -0.0081 -0.1557
  142OSM    O1315556   1.950   5.316   6.539  0.3211 -0.1059  0.4095
  142OSM    O1415557   2.142   5.213   6.671  0.3015  0.4525 -0.2838
  142OSM    O1115558   2.133   5.171   6.437 -0.0888  0.4156 -0.1301
  142OSM    O1215559   1.954   5.072   6.594 -0.1109  0.5692 -0.3836
  142OSM    C1S15560   2.090   5.089   6.332  0.3385  0.4737 -0.1678
  142OSM    H1S15561   1.997   5.032   6.353  1.1081 -0.8635 -0.2975
  142OSM    H1T15562   2.162   5.010   6.302  1.3508  0.5337  1.9206
  142OSM     NF15563   1.996   5.080   6.098 -0.0079 -0.5192 -0.2500
  142OSM    HNF15564   2.054   5.061   6.019  0.1461 -0.1718 -0.2238
  142OSM    C2S15565   2.047   5.172   6.201  0.3684 -0.3645 -0.4607
  142OSM    H2S15566   1.959   5.233   6.229  0.4709 -0.7044  0.6904
  142OSM    C3S15567   2.160   5.262   6.153  0.6063  0.0156 -0.0202
  142OSM    H3S15568   2.229   5.190   6.104  0.8638 -1.0569  1.8098
  142OSM     O315569   2.224   5.330   6.266 -0.6411 -0.1556  0.7756
  142OSM    HO315570   2.200   5.267   6.335  0.0154  0.0526  1.2044
  142OSM    C4S15571   2.116   5.363   6.046  0.9589  0.2840 -0.1549
  142OSM    H4S15572   2.136   5.331   5.943  0.0864 -0.0880 -0.2129
  142OSM    C5S15573   2.079   5.485   6.059  0.2585  0.1462  0.1203
  142OSM    H5S15574   2.085   5.533   6.158 -0.6708 -0.8783  0.7059
  142OSM    C6S15575   2.047   5.579   5.934 -0.0848 -0.4157  0.0346
  142OSM    H6S15576   2.083   5.679   5.967  0.2672 -0.4894 -0.1220
  142OSM    H6T15577   1.936   5.587   5.929  0.0330  3.0315  0.4005
  142OSM    C7S15578   2.121   5.545   5.804  0.8921 -0.3977 -0.7639
  142OSM    H7S15579   2.084   5.453   5.753 -0.9232  0.3619 -0.9111
  142OSM    H7T15580   2.227   5.527   5.830  0.8652 -0.5606 -0.7701
  142OSM    C8S15581   2.110   5.662   5.702  1.2548  0.7701 -0.0236
  142OSM    H8S15582   2.158   5.754   5.742  4.0231 -0.0520 -1.2039
  142OSM    H8T15583   2.002   5.688   5.694  0.8684 -0.6873  0.2128
  142OSM    C9S15584   2.178   5.626   5.569  0.5321  0.6350 -0.0666
  142OSM    H9S15585   2.146   5.522   5.545  1.8729  0.1425  0.2086
  142OSM    H9T15586   2.288   5.635   5.573  0.5369  0.3643  0.6697
  142OSM   C10S15587   2.139   5.720   5.452  0.3334 -0.2221 -1.0873
  142OSM   H10S15588   2.140   5.828   5.478 -1.6865 -0.9687  2.7679
  142OSM   H10T15589   2.037   5.689   5.421 -0.1314 -1.0861  1.1490
  142OSM   C11S15590   2.229   5.700   5.323 -0.2745 -0.3872  0.2329
  142OSM   H11S15591   2.253   5.591   5.318  2.7106  0.2530 -1.4232
  142OSM   H11T15592   2.326   5.754   5.329 -0.5144  0.2115 -1.0826
  142OSM   C12S15593   2.150   5.746   5.200 -0.3328 -0.1842  0.0361
  142OSM   H12S15594   2.134   5.855   5.208 -1.9920 -0.2545 -1.6108
  142OSM   H12T15595   2.043   5.716   5.202 -0.1958 -0.6783  2.1479
  142OSM   C13S15596   2.225   5.699   5.072 -0.1560 -0.5694  0.5254
  142OSM   H13S15597   2.253   5.591   5.071  0.4159 -0.4523  1.7970
  142OSM   H13T15598   2.317   5.762   5.071  0.5188 -1.4389  2.2217
  142OSM   C14S15599   2.134   5.715   4.945  0.7025 -0.0693  0.5438
  142OSM   H14S15600   2.094   5.819   4.941  2.0917  0.4580 -2.3980
  142OSM   H14T15601   2.046   5.649   4.958  1.6402 -1.5795 -0.5624
  142OSM   C15S15602   2.197   5.702   4.808 -0.5817  0.0240 -0.1749
  142OSM   H15S15603   2.237   5.599   4.793 -0.5184 -0.2034  1.4105
  142OSM   H15T15604   2.285   5.768   4.802 -1.4305  1.1584 -0.4666
  142OSM   C16S15605   2.099   5.740   4.694  0.6472  0.2563 -0.7309
  142OSM   H16S15606   2.087   5.850   4.697  2.2488  0.5347 -2.6052
  142OSM   H16T15607   2.008   5.683   4.721  2.1171 -1.3561  1.1621
  142OSM   C17S15608   2.142   5.700   4.553  0.1865  0.4654 -0.3378
  142OSM   H17S15609   2.159   5.590   4.552 -2.9474 -0.1017 -0.4100
  142OSM   H17T15610   2.242   5.742   4.530 -0.8532  1.9374 -2.4217
  142OSM   C18S15611   2.039   5.738   4.455  0.2159 -0.1782  0.6950
  142OSM   H18S15612   2.001   5.843   4.461  0.3494 -0.1569  1.2218
  142OSM   H18T15613   1.944   5.681   4.459 -0.0290 -0.2539 -2.9689
  142OSM   H18U15614   2.083   5.721   4.354 -1.8155 -1.7054 -0.0002
  142OSM    C1F15615   1.880   5.013   6.107  0.0998  0.3560 -0.0831
  142OSM     OF15616   1.798   5.033   6.198 -0.3220 -0.2129 -0.2318
  142OSM    C2F15617   1.850   4.925   5.994  0.1859  0.3884 -0.5662
  142OSM    H2F15618   1.901   4.828   6.017  0.5766  1.1045  1.9244
  142OSM    H2G15619   1.888   4.971   5.900  0.2866  1.5676  0.0345
  142OSM    C3F15620   1.701   4.900   5.972  0.4931  0.0544  0.4860
  142OSM    H3F15621   1.644   4.993   5.956 -0.9978 -0.5776  1.9164
  142OSM    H3G15622   1.643   4.849   6.051 -0.2953  0.6937  0.3251
  142OSM    C4F15623   1.679   4.819   5.842 -0.3728  0.7659 -1.1238
  142OSM    H4F15624   1.575   4.779   5.833  0.5989 -2.2474 -0.1619
  142OSM    H4G15625   1.749   4.734   5.855  0.1251  1.5424  2.4207
  142OSM    C5F15626   1.697   4.903   5.719  0.3097 -0.5569 -0.1359
  142OSM    H5F15627   1.780   4.976   5.734 -0.4979  0.0282  1.7529
  142OSM    H5G15628   1.604   4.958   5.699  0.7133  0.2119  0.0748
  142OSM    C6F15629   1.704   4.815   5.590 -0.1143  0.0284 -0.3192
  142OSM    H6F15630   1.630   4.732   5.589  1.5409 -1.6303  2.0174
  142OSM    H6G15631   1.807   4.774   5.594 -0.4751 -0.8350  2.0041
  142OSM    C7F15632   1.666   4.901   5.471 -0.1784 -0.0685 -0.1281
  142OSM    H7F15633   1.744   4.980   5.463  0.1710 -0.3592  0.3320
  142OSM    H7G15634   1.565   4.946   5.484  0.9536  2.6061  0.1364
  142OSM    C8F15635   1.684   4.833   5.329 -0.2994 -0.2291  0.3660
  142OSM    H8F15636   1.615   4.746   5.325  0.7830 -1.1531  1.0301
  142OSM    H8G15637   1.790   4.800   5.335 -0.4078 -0.5205  0.7841
  142OSM    C9F15638   1.682   4.933   5.217 -0.1176  0.6195  0.5047
  142OSM    H9F15639   1.689   5.038   5.251  0.4456  0.3812  1.1356
  142OSM   C10F15640   1.679   4.895   5.084 -0.5123 -0.0699 -0.4727
  142OSM   H10F15641   1.663   4.971   5.007 -1.2742 -0.1240 -0.3722
  142OSM   C11F15642   1.682   4.759   5.024  0.3301 -0.1755 -0.5149
  142OSM   H11F15643   1.653   4.682   5.100 -1.2684  2.2189  1.4752
  142OSM   H11G15644   1.783   4.732   4.987 -0.0103 -1.3663 -0.6114
  142OSM   C12F15645   1.586   4.761   4.911  0.1323  0.1120  0.4656
  142OSM   H12F15646   1.489   4.804   4.944 -0.3788 -2.2039  2.2168
  142OSM   H12G15647   1.568   4.657   4.878  0.3874 -0.8990  3.1827
  142OSM   C13F15648   1.645   4.838   4.788  1.0338 -0.0320  0.0164
  142OSM   H13F15649   1.674   4.940   4.820  1.0723 -0.4365  1.3102
  142OSM   H13G15650   1.566   4.866   4.714  1.9378  0.9260 -0.6097
  142OSM   C14F15651   1.762   4.767   4.721 -0.6518 -0.4520  0.7654
  142OSM   H14F15652   1.713   4.685   4.664  0.4822  0.1746 -1.2012
  142OSM   H14G15653   1.825   4.719   4.799 -1.1032 -1.1867  0.6868
  142OSM   C15F15654   1.826   4.868   4.620  0.4095  0.6351  0.6954
  142OSM   H15F15655   1.872   4.946   4.685  0.7443  0.9025  0.1421
  142OSM   H15G15656   1.745   4.912   4.558 -0.3278 -0.3957  0.8969
  142OSM   C16F15657   1.927   4.799   4.523 -1.1289  0.9614  0.5665
  142OSM   H16F15658   1.878   4.723   4.459 -0.3446  0.7636  0.1935
  142OSM   H16G15659   1.998   4.745   4.590 -2.7918  1.7786  3.1424
  142OSM   C17F15660   2.014   4.895   4.440 -0.1472  0.7168  0.5486
  142OSM   H17F15661   2.115   4.850   4.429 -0.8482 -0.8225  0.2317
  142OSM   H17G15662   2.038   4.986   4.500  2.1176 -0.2097  1.1472
  142OSM   C18F15663   1.968   4.926   4.303  0.5450 -0.8071  0.3877
  142OSM   H18F15664   2.054   4.969   4.248 -1.9138  2.0033 -1.6187
  142OSM   H18G15665   1.888   5.004   4.299  1.4925  0.1261 -2.3805
  142OSM   H18H15666   1.941   4.833   4.249  1.0264  0.1146 -1.5043
  143OSM      N15667   3.868   3.678   6.821  0.7604 -0.3859  0.0389
  143OSM    C1515668   3.925   3.554   6.758 -0.0935  0.0329  0.6362
  143OSM   H15A15669   3.947   3.576   6.655 -2.0755 -1.2098 -0.1141
  143OSM   H15B15670   3.855   3.472   6.761 -1.4788  1.1276 -0.0707
  143OSM   H15C15671   4.015   3.515   6.803  1.8818 -1.4274 -4.0157
  143OSM    C1415672   3.847   3.638   6.963  0.7323 -0.6518 -0.5683
  143OSM   H14A15673   3.832   3.726   7.022  1.3446 -1.1227  0.3032
  143OSM   H14B15674   3.932   3.582   7.000  1.0947  0.1757 -0.1445
  143OSM   H14C15675   3.759   3.575   6.968  0.1813  0.1895  2.5899
  143OSM    C1315676   3.965   3.788   6.817  0.7584 -0.4632  0.0697
  143OSM   H13A15677   4.040   3.754   6.887 -1.3602 -2.0818  1.6966
  143OSM   H13B15678   3.934   3.887   6.848  0.7872 -0.4004 -0.1011
  143OSM   H13C15679   4.008   3.802   6.719  0.7979 -2.8866 -0.3216
  143OSM    C1215680   3.744   3.733   6.763 -0.3034 -0.6419 -0.7464
  143OSM   H12A15681   3.771   3.773   6.666 -1.1615  0.0405 -0.7268
  143OSM   H12B15682   3.713   3.813   6.830 -2.1014 -2.3144  0.5320
  143OSM    C1115683   3.613   3.648   6.747 -0.1983 -0.8306  0.2748
  143OSM   H11A15684   3.625   3.600   6.647 -1.5247 -2.8680  1.0345
  143OSM   H11B15685   3.532   3.721   6.730  1.4511  1.5079  1.8516
  143OSM      P15686   3.490   3.439   6.837  0.0841  0.1504 -0.4644
  143OSM    O1315687   3.552   3.329   6.901  0.3587  0.4994 -0.3268
  143OSM    O1415688   3.360   3.470   6.901  0.8593 -0.2154  0.3134
  143OSM    O1115689   3.475   3.412   6.683  0.0552 -0.4253 -0.0163
  143OSM    O1215690   3.584   3.562   6.851 -0.2633 -0.2840 -0.1148
  143OSM    C1S15691   3.404   3.294   6.645  0.3175 -0.5831  0.5573
  143OSM    H1S15692   3.297   3.312   6.671  0.4812  0.4512  0.5623
  143OSM    H1T15693   3.433   3.203   6.702  1.2293 -0.7253 -0.1217
  143OSM     NF15694   3.337   3.141   6.473  0.0762 -0.0912 -0.3389
  143OSM    HNF15695   3.375   3.057   6.435 -2.9818 -1.6643 -0.2383
  143OSM    C2S15696   3.418   3.258   6.492  0.4970 -0.0744  0.0469
  143OSM    H2S15697   3.369   3.339   6.434  1.6557  0.1263 -0.6852
  143OSM    C3S15698   3.561   3.249   6.439 -0.7975 -0.3595  0.0877
  143OSM    H3S15699   3.604   3.164   6.496 -1.5140  0.4797  1.9838
  143OSM     O315700   3.637   3.366   6.475 -0.4685 -0.1784 -0.3652
  143OSM    HO315701   3.580   3.415   6.534  0.5027 -1.4041  1.6833
  143OSM    C4S15702   3.562   3.231   6.290 -0.3248  0.2522  0.5562
  143OSM    H4S15703   3.543   3.323   6.234  0.0729 -0.9918 -1.7539
  143OSM    C5S15704   3.617   3.137   6.215 -0.3822 -0.2399  1.5607
  143OSM    H5S15705   3.674   3.056   6.264  1.7312 -0.1107 -0.5215
  143OSM    C6S15706   3.617   3.139   6.061 -0.6893  0.3516 -0.0102
  143OSM    H6S15707   3.556   3.051   6.032 -0.8859 -0.3486  2.3717
  143OSM    H6T15708   3.721   3.116   6.031 -1.5585 -0.0894 -2.9950
  143OSM    C7S15709   3.569   3.264   5.980 -0.4609 -0.0974 -0.5379
  143OSM    H7S15710   3.628   3.354   6.007 -0.7974  0.2520 -0.9391
  143OSM    H7T15711   3.466   3.285   6.016 -0.1313  0.2998  0.2010
  143OSM    C8S15712   3.557   3.227   5.829  0.2605  0.2685  0.4971
  143OSM    H8S15713   3.502   3.310   5.780 -1.2806 -0.4116  1.0066
  143OSM    H8T15714   3.503   3.131   5.833  2.4114 -1.0580 -0.5306
  143OSM    C9S15715   3.688   3.202   5.746  0.4928 -0.3336 -0.0138
  143OSM    H9S15716   3.765   3.141   5.798  0.4334  0.4119  0.9862
  143OSM    H9T15717   3.739   3.301   5.734  0.6448 -0.4397 -0.2441
  143OSM   C10S15718   3.658   3.142   5.613 -0.2821  0.3189  0.5582
  143OSM   H10S15719   3.584   3.061   5.631  1.3995 -0.8678  2.7213
  143OSM   H10T15720   3.751   3.090   5.580  0.1379  0.8095  0.9387
  143OSM   C11S15721   3.618   3.253   5.500  0.6278 -0.2935  0.0094
  143OSM   H11S15722   3.701   3.326   5.489 -0.0621  0.6231  0.7481
  143OSM   H11T15723   3.529   3.315   5.521 -0.7942 -2.4684  0.7315
  143OSM   C12S15724   3.599   3.183   5.361 -0.1522  0.0488  0.4787
  143OSM   H12S15725   3.510   3.117   5.362  0.0660 -0.3345 -1.6402
  143OSM   H12T15726   3.688   3.118   5.343  1.2998  1.6705  1.4667
  143OSM   C13S15727   3.593   3.293   5.243  0.0733  0.5156  0.0743
  143OSM   H13S15728   3.690   3.346   5.250 -0.8093  2.3762 -1.0447
  143OSM   H13T15729   3.517   3.370   5.266 -2.5424 -1.8406 -0.1292
  143OSM   C14S15730   3.602   3.233   5.102  0.0124 -0.6011  0.0262
  143OSM   H14S15731   3.508   3.176   5.082 -1.6409  1.4844  1.3306
  143OSM   H14T15732   3.674   3.149   5.112  0.3311 -0.1486  1.9319
  143OSM   C15S15733   3.649   3.332   4.999 -0.5467  0.9661 -0.2594
  143OSM   H15S15734   3.742   3.378   5.040 -0.3146  0.4380 -0.1800
  143OSM   H15T15735   3.573   3.411   4.982 -0.3341  1.7765  2.1655
  143OSM   C16S15736   3.696   3.275   4.863  0.1818  0.2007  0.1939
  143OSM   H16S15737   3.756   3.185   4.887 -0.5528 -0.0938  0.9974
  143OSM   H16T15738   3.753   3.356   4.813  1.3381 -0.7304 -0.0237
  143OSM   C17S15739   3.585   3.215   4.771  0.4042  0.0875 -0.2132
  143OSM   H17S15740   3.522   3.304   4.748  0.7243  0.4202  0.1821
  143OSM   H17T15741   3.534   3.131   4.823  2.3570 -2.2750 -1.8765
  143OSM   C18S15742   3.628   3.166   4.634  0.0597  0.8837 -0.0648
  143OSM   H18S15743   3.689   3.250   4.593 -0.6108  1.7855  0.7436
  143OSM   H18T15744   3.538   3.153   4.570  0.6414  2.8210 -1.3823
  143OSM   H18U15745   3.683   3.070   4.642  0.2563  1.1493  2.6627
  143OSM    C1F15746   3.201   3.135   6.471  0.2118 -0.2855 -0.6802
  143OSM     OF15747   3.143   3.242   6.473  0.4552 -0.0905  0.1293
  143OSM    C2F15748   3.134   3.003   6.445  0.2232  0.7238 -0.3582
  143OSM    H2F15749   3.059   2.974   6.522  0.6825 -0.1988 -0.2344
  143OSM    H2G15750   3.212   2.925   6.427  0.7754  1.1693  0.0599
  143OSM    C3F15751   3.060   3.007   6.305  0.3406 -0.7326  0.0609
  143OSM    H3F15752   2.979   3.081   6.322  0.9321 -0.7358  3.7358
  143OSM    H3G15753   3.024   2.902   6.292 -1.7846 -0.1946  1.0172
  143OSM    C4F15754   3.158   3.048   6.190 -0.0119 -0.6363 -0.3997
  143OSM    H4F15755   3.260   3.006   6.203  0.9350  2.0479  1.6298
  143OSM    H4G15756   3.172   3.158   6.189 -0.6242 -0.4965 -3.1326
  143OSM    C5F15757   3.115   3.009   6.052  0.3215  0.3168 -0.1863
  143OSM    H5F15758   3.012   3.043   6.029 -0.7168 -1.5308  1.4683
  143OSM    H5G15759   3.117   2.899   6.038 -2.4482  0.2133 -0.1855
  143OSM    C6F15760   3.210   3.063   5.944 -0.5926  0.3200  0.5521
  143OSM    H6F15761   3.313   3.027   5.961 -0.7728  0.5144  2.2039
  143OSM    H6G15762   3.217   3.174   5.942  1.6945  0.2101 -0.9558
  143OSM    C7F15763   3.165   3.016   5.805  0.1376  0.6219 -0.3590
  143OSM    H7F15764   3.067   3.066   5.791 -0.2836  0.0718  0.5253
  143OSM    H7G15765   3.134   2.909   5.798 -1.8244  1.0585  1.0142
  143OSM    C8F15766   3.263   3.061   5.690 -0.1839  0.3896 -0.3474
  143OSM    H8F15767   3.250   2.985   5.610  2.2668 -0.0660 -0.3910
  143OSM    H8G15768   3.370   3.050   5.718  0.2782  1.4601 -1.5643
  143OSM    C9F15769   3.243   3.202   5.649 -0.7001 -0.3113 -0.3985
  143OSM    H9F15770   3.299   3.267   5.718 -1.7366  0.3204 -0.1225
  143OSM   C10F15771   3.177   3.251   5.542 -0.2131  0.7806 -0.1588
  143OSM   H10F15772   3.164   3.359   5.525 -2.2964  0.9126  1.7524
  143OSM   C11F15773   3.091   3.166   5.454 -0.5118  0.0480 -0.5948
  143OSM   H11F15774   2.986   3.200   5.449 -1.4788 -1.5538  3.8501
  143OSM   H11G15775   3.088   3.064   5.497  1.7038  0.2228  0.1200
  143OSM   C12F15776   3.157   3.152   5.312  0.2170 -0.9774 -0.3467
  143OSM   H12F15777   3.114   3.069   5.254 -0.7775 -1.6851  1.3353
  143OSM   H12G15778   3.265   3.129   5.327 -0.2187 -1.9431  1.6298
  143OSM   C13F15779   3.142   3.281   5.232  0.6421  0.0577 -0.6452
  143OSM   H13F15780   3.174   3.370   5.290  0.3560 -1.6219  2.2927
  143OSM   H13G15781   3.033   3.298   5.214  0.6368  1.0131  0.2406
  143OSM   C14F15782   3.218   3.279   5.101 -0.7808  0.7352 -0.0135
  143OSM   H14F15783   3.187   3.197   5.033 -2.2547  0.1193  1.3584
  143OSM   H14G15784   3.321   3.243   5.125 -1.6425 -1.3826  0.7010
  143OSM   C15F15785   3.219   3.425   5.033  0.2532 -0.0730  0.2644
  143OSM   H15F15786   3.295   3.430   4.952  0.9670  2.2913  0.9768
  143OSM   H15G15787   3.252   3.493   5.115 -1.4447  0.0375  0.8961
  143OSM   C16F15788   3.082   3.475   4.982  0.5970  1.1111 -0.7210
  143OSM   H16F15789   3.100   3.579   4.947 -0.5554  1.4686 -0.2914
  143OSM   H16G15790   3.026   3.476   5.078  0.5563  1.3113 -0.7465
  143OSM   C17F15791   3.017   3.389   4.878  0.2565  0.9253 -0.5229
  143OSM   H17F15792   2.910   3.416   4.871  0.1343  0.7798  0.6027
  143OSM   H17G15793   3.022   3.287   4.920  0.2267  0.2825 -2.0296
  143OSM   C18F15794   3.088   3.372   4.739  0.2903 -0.2390 -0.5387
  143OSM   H18F15795   3.119   3.471   4.700 -0.3333 -0.0160 -0.4691
  143OSM   H18G15796   3.023   3.326   4.661  0.8886  0.7328 -1.6466
  143OSM   H18H15797   3.176   3.305   4.748 -0.6923 -1.7869 -1.8353
  144OSM      N15798   4.227   1.820   6.876  0.3334 -0.5311 -0.3322
  144OSM    C1515799   4.153   1.923   6.798  0.0845 -0.1525  0.3095
  144OSM   H15A15800   4.134   1.888   6.697 -0.9409 -0.1011  0.4761
  144OSM   H15B15801   4.205   2.018   6.798 -1.7873  0.9077  0.0514
  144OSM   H15C15802   4.054   1.934   6.839  0.0281 -0.2834  0.2108
  144OSM    C1415803   4.257   1.874   7.012  0.5348  0.7814 -0.0570
  144OSM   H14A15804   4.328   1.815   7.068 -0.6707 -1.1326 -0.4717
  144OSM   H14B15805   4.170   1.875   7.075 -1.1292 -2.1201 -2.0891
  144OSM   H14C15806   4.294   1.976   7.004  0.8040  0.6669 -0.3097
  144OSM    C1315807   4.135   1.704   6.869  0.1355 -0.2331 -0.3121
  144OSM   H13A15808   4.099   1.677   6.771  0.0259 -1.6122  0.0849
  144OSM   H13B15809   4.058   1.723   6.943  0.5331 -1.5801  0.4743
  144OSM   H13C15810   4.175   1.610   6.903 -2.3940 -0.6433  1.9465
  144OSM    C1215811   4.363   1.783   6.817 -0.0905  0.2138 -0.0700
  144OSM   H12A15812   4.408   1.715   6.887 -2.3591 -1.6719 -0.3069
  144OSM   H12B15813   4.432   1.865   6.811  0.3806 -0.2327 -0.9421
  144OSM    C1115814   4.346   1.714   6.685  0.3986 -0.0706  0.0426
  144OSM   H11A15815   4.435   1.737   6.623  0.4417 -1.1056 -0.3010
  144OSM   H11B15816   4.257   1.763   6.640 -0.9196  0.5576  3.0784
  144OSM      P15817   4.435   1.472   6.767 -0.1134 -0.0311  0.4622
  144OSM    O1315818   4.563   1.552   6.794  0.4209 -0.6155  0.0335
  144OSM    O1415819   4.371   1.423   6.893  0.6324  0.9037  0.0108
  144OSM    O1115820   4.447   1.353   6.669  0.4120  0.0401  0.2582
  144OSM    O1215821   4.332   1.574   6.702 -0.0461 -0.1689 -0.3547
  144OSM    C1S15822   4.397   1.350   6.532 -0.0354  1.0124 -0.5539
  144OSM    H1S15823   4.444   1.427   6.467  1.3499 -0.6851 -1.6572
  144OSM    H1T15824   4.287   1.357   6.522 -0.1599  0.6110  0.4077
  144OSM     NF15825   4.416   1.228   6.315  0.0517  0.4117 -0.2050
  144OSM    HNF15826   4.349   1.171   6.270  0.2769 -0.7886  0.9151
  144OSM    C2S15827   4.437   1.217   6.459  0.8322 -0.1601 -0.2830
  144OSM    H2S15828   4.545   1.204   6.484  0.4701 -1.0310  0.9049
  144OSM    C3S15829   4.375   1.093   6.522 -0.0829 -1.0418 -0.4630
  144OSM    H3S15830   4.264   1.100   6.525 -0.0060  1.8187 -0.9553
  144OSM     O315831   4.415   1.085   6.661  0.8590 -0.0937 -0.3194
  144OSM    HO315832   4.463   1.165   6.684 -3.3992  2.2101  1.8216
  144OSM    C4S15833   4.420   0.969   6.455 -0.6007 -0.5222 -0.0127
  144OSM    H4S15834   4.524   0.945   6.481 -0.4123  2.4150  2.4939
  144OSM    C5S15835   4.351   0.892   6.364  0.3110 -0.0315 -1.1723
  144OSM    H5S15836   4.248   0.925   6.343  0.3616  1.1977  0.3201
  144OSM    C6S15837   4.408   0.768   6.305  0.3983 -0.2457 -0.1141
  144OSM    H6S15838   4.333   0.686   6.312 -0.2343  0.2466 -0.8502
  144OSM    H6T15839   4.490   0.721   6.362  0.9739  1.8961  0.9285
  144OSM    C7S15840   4.431   0.775   6.152  0.1844 -0.0703 -0.5011
  144OSM    H7S15841   4.331   0.789   6.105 -0.3423 -2.4844 -0.2138
  144OSM    H7T15842   4.459   0.674   6.116  0.1140  0.3232 -1.7113
  144OSM    C8S15843   4.525   0.884   6.099  0.0893  0.8553  0.0913
  144OSM    H8S15844   4.626   0.863   6.142 -1.4578 -3.7799  2.0787
  144OSM    H8T15845   4.492   0.982   6.139  0.3145  1.1984 -0.5359
  144OSM    C9S15846   4.531   0.904   5.945  0.7961  0.0659  0.2279
  144OSM    H9S15847   4.557   0.805   5.902  0.3882 -0.6848  1.6550
  144OSM    H9T15848   4.614   0.966   5.906  0.5607  1.0713  1.2805
  144OSM   C10S15849   4.403   0.974   5.885 -0.1621  0.2587  0.4752
  144OSM   H10S15850   4.412   1.080   5.914 -0.1173  1.2712 -2.8711
  144OSM   H10T15851   4.317   0.916   5.925  1.6479 -2.5579  0.6272
  144OSM   C11S15852   4.408   0.962   5.731  0.1847 -0.4119 -0.1878
  144OSM   H11S15853   4.392   0.857   5.700  0.8487 -1.2072  1.9531
  144OSM   H11T15854   4.506   0.998   5.693  0.5875 -0.6963  0.5679
  144OSM   C12S15855   4.306   1.066   5.681  0.1948 -0.1531 -0.5558
  144OSM   H12S15856   4.341   1.159   5.731  1.4667 -0.6503 -0.4746
  144OSM   H12T15857   4.208   1.043   5.728  0.2390  0.0331 -0.3684
  144OSM   C13S15858   4.299   1.077   5.531  0.6783  0.0263  0.0112
  144OSM   H13S15859   4.343   0.984   5.487  1.2087 -0.7244  1.9969
  144OSM   H13T15860   4.345   1.171   5.493  1.0991  0.5902  1.8013
  144OSM   C14S15861   4.152   1.086   5.483 -0.9279 -0.4972  0.7069
  144OSM   H14S15862   4.155   1.104   5.373 -0.7864 -0.6266  0.6893
  144OSM   H14T15863   4.108   1.176   5.530  1.7102 -0.1946  2.8426
  144OSM   C15S15864   4.065   0.964   5.513  0.0629  0.1239  0.3580
  144OSM   H15S15865   4.040   0.973   5.621 -0.5117  0.9502  0.1629
  144OSM   H15T15866   4.125   0.873   5.493  0.3049 -0.0495  1.7667
  144OSM   C16S15867   3.930   0.976   5.433  0.6927 -1.1460 -0.6514
  144OSM   H16S15868   3.920   1.072   5.380 -0.9033 -1.9274 -1.8427
  144OSM   H16T15869   3.853   0.966   5.512 -0.0546 -1.3229 -1.3822
  144OSM   C17S15870   3.903   0.870   5.319 -0.2619  0.0432  0.2523
  144OSM   H17S15871   3.925   0.768   5.357  1.8162 -0.3821 -1.8753
  144OSM   H17T15872   3.976   0.884   5.236 -2.1405  0.5402 -1.3838
  144OSM   C18S15873   3.760   0.874   5.266  0.2393  0.1967  0.1408
  144OSM   H18S15874   3.743   0.842   5.161  0.3444  0.7716 -0.0532
  144OSM   H18T15875   3.733   0.981   5.278 -1.3407 -0.4361  3.1601
  144OSM   H18U15876   3.688   0.814   5.326 -0.0851 -1.3572 -1.6969
  144OSM    C1F15877   4.497   1.300   6.234  0.2915 -0.5691  0.6579
  144OSM     OF15878   4.583   1.373   6.277 -0.4401 -0.0142 -0.0915
  144OSM    C2F15879   4.486   1.289   6.085  0.0354  0.5032  0.1970
  144OSM    H2F15880   4.390   1.338   6.058 -0.2190 -1.1385 -2.1336
  144OSM    H2G15881   4.479   1.179   6.071 -0.9177  0.1967  2.6855
  144OSM    C3F15882   4.608   1.348   6.011  0.1124  0.5807 -0.6110
  144OSM    H3F15883   4.695   1.302   6.063 -2.3994 -0.7095  2.8354
  144OSM    H3G15884   4.614   1.458   6.025 -0.4376  0.5718 -0.2954
  144OSM    C4F15885   4.607   1.320   5.858 -0.1224 -0.3287  0.6070
  144OSM    H4F15886   4.611   1.212   5.832  2.8481 -0.0685 -0.3658
  144OSM    H4G15887   4.706   1.360   5.827 -1.2147  1.4095 -0.8283
  144OSM    C5F15888   4.507   1.402   5.779  0.1771 -0.5115 -0.2395
  144OSM    H5F15889   4.524   1.506   5.814  0.1048 -0.6417  0.1904
  144OSM    H5G15890   4.412   1.377   5.830  1.0447 -0.8322  1.2813
  144OSM    C6F15891   4.519   1.387   5.629 -0.6277 -0.2412 -0.3887
  144OSM    H6F15892   4.518   1.282   5.591 -0.3739  0.0341 -1.1881
  144OSM    H6G15893   4.627   1.412   5.615 -0.5248  0.7284  1.7362
  144OSM    C7F15894   4.428   1.482   5.556  0.4742  0.4235 -0.2457
  144OSM    H7F15895   4.450   1.585   5.593 -0.6328  0.1841  1.1635
  144OSM    H7G15896   4.330   1.450   5.598  0.9502 -0.1460  0.4416
  144OSM    C8F15897   4.446   1.472   5.401 -0.0940  0.4441  0.7050
  144OSM    H8F15898   4.457   1.367   5.368  0.8027 -0.3676  3.3021
  144OSM    H8G15899   4.544   1.522   5.387  0.0880 -0.0385  0.2279
  144OSM    C9F15900   4.333   1.527   5.329 -0.1645 -0.2361 -0.4240
  144OSM    H9F15901   4.237   1.515   5.381 -1.2594  0.3778 -2.2356
  144OSM   C10F15902   4.321   1.587   5.206  0.3430 -0.5319  0.0842
  144OSM   H10F15903   4.225   1.628   5.170  0.5911 -0.0450 -0.0274
  144OSM   C11F15904   4.432   1.611   5.113 -0.1781  0.7044 -0.5156
  144OSM   H11F15905   4.523   1.600   5.177 -1.5687 -0.1641  1.3981
  144OSM   H11G15906   4.430   1.716   5.077  1.4830  1.5817  1.6764
  144OSM   C12F15907   4.446   1.519   4.989  0.2271 -0.2136  0.3413
  144OSM   H12F15908   4.453   1.412   5.019 -2.5174 -0.5809 -0.0747
  144OSM   H12G15909   4.536   1.561   4.939 -1.1598  1.4877 -0.8331
  144OSM   C13F15910   4.321   1.560   4.897  0.1470  0.1526  0.0928
  144OSM   H13F15911   4.319   1.667   4.865 -2.6567  0.1065 -0.1426
  144OSM   H13G15912   4.232   1.561   4.964  0.7104  0.4751  0.8511
  144OSM   C14F15913   4.313   1.471   4.770 -0.3419  0.0462  0.0450
  144OSM   H14F15914   4.323   1.368   4.812 -1.6721 -0.2125 -0.2176
  144OSM   H14G15915   4.399   1.483   4.701 -0.6850  2.1863 -0.0716
  144OSM   C15F15916   4.181   1.487   4.686  0.0756 -0.0833 -0.2657
  144OSM   H15F15917   4.183   1.569   4.612 -1.2397 -0.8319 -1.1819
  144OSM   H15G15918   4.100   1.512   4.757 -0.1136  0.1936 -0.5815
  144OSM   C16F15919   4.149   1.355   4.622  1.0137  0.6139  0.6525
  144OSM   H16F15920   4.046   1.353   4.580  1.3256  0.1588 -0.1006
  144OSM   H16G15921   4.158   1.273   4.696  0.8921 -0.2957 -0.3245
  144OSM   C17F15922   4.236   1.310   4.497 -0.0277  0.6874 -0.0669
  144OSM   H17F15923   4.188   1.212   4.476 -2.1523  1.5507  0.5630
  144OSM   H17G15924   4.339   1.279   4.525  0.2912 -0.6864 -2.4810
  144OSM   C18F15925   4.242   1.399   4.370 -0.0671 -0.6744  0.5770
  144OSM   H18F15926   4.140   1.431   4.339 -1.1322 -1.0947  3.3406
  144OSM   H18G15927   4.277   1.339   4.284  2.2950  0.6948  0.4850
  144OSM   H18H15928   4.316   1.482   4.377 -0.6635 -0.2536  2.6279
  145OSM      N15929   2.686   3.894   6.930  0.0614  0.1726 -0.5441
  145OSM    C1515930   2.724   3.775   7.013 -1.1259  0.1442 -0.2807
  145OSM   H15A15931   2.795   3.802   7.089 -1.7531  0.1183  0.3308
  145OSM   H15B15932   2.774   3.702   6.952  0.8080  1.1356  0.0257
  145OSM   H15C15933   2.634   3.744   7.065  0.4412 -1.5264  1.5436
  145OSM    C1415934   2.608   3.841   6.815 -0.0657  0.1736  0.3256
  145OSM   H14A15935   2.574   3.925   6.756 -0.5412 -0.0855  0.2264
  145OSM   H14B15936   2.524   3.789   6.858 -2.1335  1.7617 -1.5262
  145OSM   H14C15937   2.673   3.788   6.747 -1.8530 -1.1056 -0.4612
  145OSM    C1315938   2.600   3.987   7.009 -0.1801 -0.2413  0.2904
  145OSM   H13A15939   2.505   3.938   7.025 -0.0673 -0.3344  0.6973
  145OSM   H13B15940   2.585   4.080   6.956 -0.9182  0.7395  2.1185
  145OSM   H13C15941   2.646   4.020   7.101  1.4519 -0.5505 -0.3999
  145OSM    C1215942   2.812   3.962   6.881  0.2272  0.5354 -0.3897
  145OSM   H12A15943   2.874   3.881   6.846 -0.2317 -0.4083  0.8888
  145OSM   H12B15944   2.859   4.020   6.960  1.1570 -0.9267  0.1770
  145OSM    C1115945   2.797   4.068   6.768  0.3110  0.1408 -0.4021
  145OSM   H11A15946   2.695   4.108   6.747  0.2657 -0.3599 -1.1632
  145OSM   H11B15947   2.812   4.018   6.670  0.5102 -2.3422  0.8122
  145OSM      P15948   3.045   4.158   6.739 -0.0975  0.3373  0.2573
  145OSM    O1315949   3.112   4.287   6.766 -0.4502  0.1550  0.1205
  145OSM    O1415950   3.093   4.029   6.798  0.3524 -0.2071 -0.0410
  145OSM    O1115951   3.034   4.135   6.581 -0.3825 -0.1973 -0.3310
  145OSM    O1215952   2.894   4.175   6.779  0.4050 -0.0572 -0.0450
  145OSM    C1S15953   2.974   4.242   6.512  0.1930 -0.9192 -0.8305
  145OSM    H1S15954   3.014   4.342   6.538  0.4443 -1.1304 -0.4042
  145OSM    H1T15955   2.866   4.245   6.538  0.4349  0.9592  0.1259
  145OSM     NF15956   2.939   4.358   6.303 -0.3252 -0.4124  0.2407
  145OSM    HNF15957   2.861   4.357   6.241  0.3676  0.6074 -0.6811
  145OSM    C2S15958   2.978   4.236   6.360 -0.5264  0.4823  0.3780
  145OSM    H2S15959   3.084   4.216   6.336 -0.3218  2.1558 -0.2175
  145OSM    C3S15960   2.893   4.115   6.317  0.2023  0.2714  0.5435
  145OSM    H3S15961   2.789   4.131   6.353 -0.6257  0.1473 -1.6621
  145OSM     O315962   2.938   3.986   6.355 -0.3876  0.4143  0.1651
  145OSM    HO315963   3.002   3.999   6.426  2.1134 -2.7258 -1.2819
  145OSM    C4S15964   2.902   4.119   6.169  0.5887  0.5353  0.1139
  145OSM    H4S15965   2.804   4.155   6.135  0.6085  0.5085  0.0289
  145OSM    C5S15966   2.990   4.068   6.078 -0.1965  0.0944  0.3536
  145OSM    H5S15967   3.077   4.009   6.111 -1.2855 -1.5699  0.3348
  145OSM    C6S15968   2.967   4.074   5.926  0.4863 -0.4567  0.3186
  145OSM    H6S15969   3.009   4.165   5.877 -1.8014  0.2698 -0.4246
  145OSM    H6T15970   2.860   4.066   5.897  0.6323 -3.1752  0.3048
  145OSM    C7S15971   3.013   3.948   5.848 -0.4870  0.3339  1.0767
  145OSM    H7S15972   3.002   3.853   5.905  2.0964 -0.2310  0.7521
  145OSM    H7T15973   3.121   3.971   5.842 -0.4356  0.2313  1.5620
  145OSM    C8S15974   2.953   3.923   5.706  0.1576 -0.3737  0.3145
  145OSM    H8S15975   2.846   3.898   5.723  0.4699 -0.8653  1.7427
  145OSM    H8T15976   3.002   3.837   5.657 -1.3127 -1.1259  0.1079
  145OSM    C9S15977   2.965   4.049   5.616 -0.4645 -0.5648 -1.0710
  145OSM    H9S15978   3.075   4.057   5.603  0.4185 -2.6963  3.3272
  145OSM    H9T15979   2.916   4.136   5.665 -0.6693 -0.1796 -1.9379
  145OSM   C10S15980   2.898   4.022   5.483 -0.5996 -0.3679 -0.5376
  145OSM   H10S15981   2.811   3.955   5.500 -1.4029  0.9333  0.6551
  145OSM   H10T15982   2.975   3.962   5.430 -1.0750 -1.0073 -0.5132
  145OSM   C11S15983   2.859   4.142   5.401 -0.0724  0.0057 -0.6042
  145OSM   H11S15984   2.939   4.217   5.383 -0.8082  0.4649 -2.0845
  145OSM   H11T15985   2.785   4.196   5.463 -0.0719 -0.2376 -0.3875
  145OSM   C12S15986   2.800   4.097   5.271  0.1292 -0.4040 -0.2368
  145OSM   H12S15987   2.708   4.038   5.294 -1.0478  1.7080  0.7424
  145OSM   H12T15988   2.861   4.028   5.209 -0.4504 -0.0375 -1.2267
  145OSM   C13S15989   2.765   4.202   5.168  0.2660 -0.7736 -0.6774
  145OSM   H13S15990   2.854   4.269   5.162 -0.0937 -0.2974 -0.7850
  145OSM   H13T15991   2.680   4.258   5.212 -1.0198 -2.7715 -0.4928
  145OSM   C14S15992   2.735   4.149   5.028 -0.5639  0.1731  0.9757
  145OSM   H14S15993   2.661   4.067   5.039  1.4037 -1.7333  0.7864
  145OSM   H14T15994   2.824   4.103   4.981  1.4619  2.4540  2.3197
  145OSM   C15S15995   2.685   4.246   4.923 -0.1377 -0.6894 -0.4547
  145OSM   H15S15996   2.716   4.347   4.956 -0.7457 -1.6294  3.4279
  145OSM   H15T15997   2.575   4.233   4.926 -0.4596  1.7487  0.5737
  145OSM   C16S15998   2.712   4.230   4.770  0.1568 -0.0667  0.1846
  145OSM   H16S15999   2.641   4.297   4.718  0.5692  1.1284  1.1127
  145OSM   H16T16000   2.685   4.125   4.745  0.4422 -0.2613  0.6778
  145OSM   C17S16001   2.862   4.251   4.729 -0.1497  0.2976 -0.4277
  145OSM   H17S16002   2.922   4.217   4.816  1.4370 -0.9476 -1.9555
  145OSM   H17T16003   2.883   4.360   4.719  0.9101 -0.0430 -2.1282
  145OSM   C18S16004   2.910   4.172   4.609 -0.1250 -0.1781 -0.2871
  145OSM   H18S16005   2.942   4.072   4.645  1.8786  1.5707  3.2582
  145OSM   H18T16006   2.998   4.224   4.565 -0.3038 -0.6447 -1.2195
  145OSM   H18U16007   2.826   4.157   4.537 -0.5191 -0.8642  0.3039
  145OSM    C1F16008   3.009   4.475   6.322 -0.1402 -0.4510 -0.5180
  145OSM     OF16009   3.115   4.475   6.386 -0.3719  0.3763  0.1019
  145OSM    C2F16010   2.946   4.592   6.244 -1.0485 -0.3683 -0.1515
  145OSM    H2F16011   2.972   4.681   6.304  2.1071 -0.5251 -1.1209
  145OSM    H2G16012   2.836   4.575   6.249 -1.0366 -0.5043 -0.3482
  145OSM    C3F16013   3.003   4.617   6.104 -0.1173 -0.0936  1.4369
  145OSM    H3F16014   3.109   4.646   6.120 -0.0597 -0.1298  1.1232
  145OSM    H3G16015   2.963   4.713   6.067  0.9523 -0.3953 -0.6407
  145OSM    C4F16016   2.986   4.505   6.004 -0.5417  0.5470 -1.0224
  145OSM    H4F16017   2.880   4.483   5.979 -0.9028 -0.6846  1.3041
  145OSM    H4G16018   3.032   4.412   6.045 -0.1778  1.3918  0.5594
  145OSM    C5F16019   3.072   4.538   5.879 -0.1193 -0.2479  0.1078
  145OSM    H5F16020   3.177   4.547   5.916 -0.3674 -2.6827  1.6212
  145OSM    H5G16021   3.037   4.636   5.839  0.8936 -0.5024 -1.5352
  145OSM    C6F16022   3.089   4.437   5.762 -0.7579  0.2898 -0.8390
  145OSM    H6F16023   3.108   4.336   5.803  1.8392  1.0660  0.0788
  145OSM    H6G16024   3.182   4.462   5.706 -0.9898  2.9253 -0.1905
  145OSM    C7F16025   2.977   4.421   5.655 -0.2167 -0.2440 -0.2054
  145OSM    H7F16026   2.894   4.361   5.698  0.6461 -3.5316 -2.6855
  145OSM    H7G16027   3.030   4.367   5.573 -0.7943  0.7972 -1.3021
  145OSM    C8F16028   2.922   4.547   5.592 -0.0379  0.1456 -0.7200
  145OSM    H8F16029   2.859   4.596   5.669  1.7728  0.9238  0.3493
  145OSM    H8G16030   2.860   4.521   5.504  0.3257 -0.1085 -0.9030
  145OSM    C9F16031   3.020   4.652   5.544  0.3988  0.3760 -0.3586
  145OSM    H9F16032   3.086   4.713   5.608  0.3761  3.0252 -2.6684
  145OSM   C10F16033   3.033   4.691   5.416  0.7072 -0.7457 -0.0183
  145OSM   H10F16034   3.092   4.781   5.396  1.7259 -0.9910  1.7413
  145OSM   C11F16035   2.983   4.629   5.285  0.0731  0.6805  0.3639
  145OSM   H11F16036   2.918   4.706   5.238 -0.7064 -1.2311 -1.8697
  145OSM   H11G16037   2.930   4.533   5.298 -0.5442  0.8465 -0.8394
  145OSM   C12F16038   3.098   4.584   5.199  0.1562  0.6328 -0.2133
  145OSM   H12F16039   3.182   4.657   5.198  0.6174  0.1296  0.8364
  145OSM   H12G16040   3.059   4.577   5.094 -0.0180 -3.6017 -0.0395
  145OSM   C13F16041   3.146   4.447   5.251  0.2074  0.4115 -0.2346
  145OSM   H13F16042   3.057   4.381   5.254  0.8500 -0.4493  0.1463
  145OSM   H13G16043   3.182   4.451   5.356  0.6713 -1.4389 -0.2978
  145OSM   C14F16044   3.262   4.392   5.170  0.6084  0.0140  0.3789
  145OSM   H14F16045   3.348   4.455   5.199  0.6320  0.9909 -1.6105
  145OSM   H14G16046   3.253   4.399   5.059 -3.2446  2.0342  0.6386
  145OSM   C15F16047   3.285   4.235   5.203  0.4493  0.3305  0.4399
  145OSM   H15F16048   3.299   4.208   5.310 -2.3214  1.5593  1.2115
  145OSM   H15G16049   3.374   4.207   5.143  0.1661  2.9860 -1.4083
  145OSM   C16F16050   3.170   4.149   5.141  0.7327  0.5059  0.3874
  145OSM   H16F16051   3.098   4.217   5.090  0.5130  0.0656  0.1099
  145OSM   H16G16052   3.113   4.110   5.228  2.8578  0.4201  1.8016
  145OSM   C17F16053   3.217   4.046   5.043 -0.1290 -0.3398 -0.3825
  145OSM   H17F16054   3.305   3.991   5.082  2.5176  2.0444 -2.5551
  145OSM   H17G16055   3.253   4.106   4.957  1.1217  0.7582  0.8680
  145OSM   C18F16056   3.111   3.951   4.990 -0.2471 -0.1841  0.7293
  145OSM   H18F16057   3.108   3.850   5.036  1.6389 -0.4903  0.2473
  145OSM   H18G16058   3.126   3.932   4.882  1.8263  1.0075  0.7535
  145OSM   H18H16059   3.007   3.989   5.002 -0.8170 -1.7278  0.9318
  146OSM      N16060   2.124   6.250   7.014  0.1480  0.0432 -0.2528
  146OSM    C1516061   2.241   6.188   7.084  0.7096 -0.0934  1.0424
  146OSM   H15A16062   2.333   6.201   7.030  0.7709 -2.6119  0.3989
  146OSM   H15B16063   2.216   6.083   7.091  0.3557 -0.1539 -0.7144
  146OSM   H15C16064   2.248   6.225   7.185  0.3920 -0.6910  1.2889
  146OSM    C1416065   2.001   6.245   7.103 -0.2117 -0.6069 -0.6246
  146OSM   H14A16066   1.928   6.325   7.094  1.2459  0.9209  0.5798
  146OSM   H14B16067   2.033   6.235   7.205 -0.2643 -0.9601 -0.6426
  146OSM   H14C16068   1.953   6.149   7.088 -0.9349 -0.3327 -0.1335
  146OSM    C1316069   2.162   6.398   6.991  0.5482  0.0357  0.1019
  146OSM   H13A16070   2.178   6.438   7.090 -2.4518 -2.1962  1.6830
  146OSM   H13B16071   2.082   6.457   6.951 -0.9279 -0.5455  2.0325
  146OSM   H13C16072   2.247   6.413   6.926 -0.2608  2.3568 -0.4864
  146OSM    C1216073   2.087   6.186   6.881 -0.5604 -0.8352  0.5868
  146OSM   H12A16074   2.000   6.235   6.840  0.9227  1.7898  0.3865
  146OSM   H12B16075   2.055   6.083   6.894 -1.8104 -0.7012 -1.0918
  146OSM    C1116076   2.200   6.187   6.775 -0.3981 -0.8802  0.6830
  146OSM   H11A16077   2.148   6.142   6.688 -0.1453  2.2879 -1.2642
  146OSM   H11B16078   2.284   6.119   6.801  1.5013  1.7960  1.9229
  146OSM      P16079   2.375   6.376   6.680 -0.3371  0.0756 -0.2599
  146OSM    O1316080   2.336   6.495   6.608 -0.0527 -0.2901 -0.0018
  146OSM    O1416081   2.476   6.397   6.782  0.0020  0.0116  0.2244
  146OSM    O1116082   2.426   6.268   6.575  0.2386 -0.6034  0.1572
  146OSM    O1216083   2.249   6.316   6.741  0.1266 -0.3744 -0.2539
  146OSM    C1S16084   2.349   6.246   6.461 -0.0396  0.2402 -0.9238
  146OSM    H1S16085   2.328   6.337   6.401 -0.0383 -0.8355 -2.6201
  146OSM    H1T16086   2.251   6.200   6.488  1.4785 -3.5824 -1.2581
  146OSM     NF16087   2.335   6.120   6.248  0.1379  0.3228 -0.1244
  146OSM    HNF16088   2.294   6.030   6.252 -3.1301  1.6640 -0.3716
  146OSM    C2S16089   2.418   6.142   6.367 -0.0437  0.0822  0.6128
  146OSM    H2S16090   2.516   6.187   6.339  0.5706 -0.6522  1.5528
  146OSM    C3S16091   2.460   6.015   6.435  0.0546  0.7311 -0.0260
  146OSM    H3S16092   2.374   5.960   6.479  1.3982  0.0730  1.8968
  146OSM     O316093   2.538   6.036   6.550 -0.5276  0.1465 -0.1834
  146OSM    HO316094   2.526   6.127   6.578 -0.8687  0.6660 -1.9564
  146OSM    C4S16095   2.529   5.928   6.329  0.4426  0.9049 -0.6550
  146OSM    H4S16096   2.461   5.899   6.247 -1.8530 -0.0912  1.4552
  146OSM    C5S16097   2.658   5.903   6.312  0.2381 -0.9260  0.7924
  146OSM    H5S16098   2.735   5.949   6.377  0.6753 -2.7666  1.6644
  146OSM    C6S16099   2.699   5.837   6.189 -0.2823 -0.0610  0.2813
  146OSM    H6S16100   2.754   5.741   6.202  0.8842  0.4244 -0.8336
  146OSM    H6T16101   2.776   5.906   6.147  1.4985 -2.1234 -0.0172
  146OSM    C7S16102   2.594   5.814   6.071  0.3606  0.0631  0.3169
  146OSM    H7S16103   2.522   5.897   6.057 -0.6777 -0.7111  0.8917
  146OSM    H7T16104   2.528   5.731   6.104 -0.4283  0.9487  1.0059
  146OSM    C8S16105   2.644   5.781   5.932 -0.1486 -0.8006 -0.0779
  146OSM    H8S16106   2.688   5.679   5.930  0.0409 -0.7048 -0.9271
  146OSM    H8T16107   2.721   5.851   5.894 -0.8124 -1.1669 -2.2418
  146OSM    C9S16108   2.530   5.781   5.832  0.3843 -0.4278  0.8241
  146OSM    H9S16109   2.483   5.882   5.832  1.1188 -0.0436 -0.9095
  146OSM    H9T16110   2.460   5.700   5.858  0.4419 -0.2185  1.6536
  146OSM   C10S16111   2.577   5.761   5.686  0.3463  0.5450  0.1826
  146OSM   H10S16112   2.479   5.769   5.636 -0.1292  1.1612  1.1854
  146OSM   H10T16113   2.623   5.661   5.670 -2.0966 -0.4141 -1.3948
  146OSM   C11S16114   2.667   5.873   5.634 -0.2055  0.2342 -0.3854
  146OSM   H11S16115   2.747   5.891   5.709 -0.8394  1.6138 -0.0046
  146OSM   H11T16116   2.614   5.970   5.620  2.0231  1.4762 -0.6555
  146OSM   C12S16117   2.711   5.847   5.490  0.0037  0.3122 -0.1256
  146OSM   H12S16118   2.614   5.830   5.438 -0.0339 -1.9698  0.6144
  146OSM   H12T16119   2.763   5.750   5.476  0.7947  0.7586 -0.3840
  146OSM   C13S16120   2.786   5.963   5.425  0.0279 -0.2803 -0.1385
  146OSM   H13S16121   2.879   5.985   5.482 -0.6251 -0.0301  0.8497
  146OSM   H13T16122   2.724   6.054   5.441 -0.5861 -1.0664  2.2941
  146OSM   C14S16123   2.809   5.948   5.277  0.2600  0.1945 -0.6386
  146OSM   H14S16124   2.865   5.853   5.263  0.4978  0.0204  1.1898
  146OSM   H14T16125   2.864   6.039   5.245  0.1954  0.4655  0.0178
  146OSM   C15S16126   2.691   5.933   5.189  0.3197  0.1882  0.1683
  146OSM   H15S16127   2.636   6.029   5.200  1.6166  1.1087 -1.0249
  146OSM   H15T16128   2.633   5.848   5.231  0.1172 -0.2891 -1.0254
  146OSM   C16S16129   2.715   5.889   5.046 -0.0420 -0.8674 -0.2268
  146OSM   H16S16130   2.620   5.864   4.994  0.4880  0.3650 -1.8724
  146OSM   H16T16131   2.753   5.785   5.060 -1.6672 -1.4441  0.1322
  146OSM   C17S16132   2.801   5.987   4.959 -0.3614 -0.6426 -0.0836
  146OSM   H17S16133   2.896   5.980   5.016 -0.0193  1.0771 -0.4012
  146OSM   H17T16134   2.769   6.093   4.968 -0.9002 -0.8591  0.6129
  146OSM   C18S16135   2.839   5.933   4.830  0.3021 -0.3153  0.5966
  146OSM   H18S16136   2.873   5.828   4.842  0.8499 -0.2225 -0.0768
  146OSM   H18T16137   2.926   5.983   4.781  1.0934  0.5993  2.8300
  146OSM   H18U16138   2.762   5.927   4.750  0.7733 -0.8642  0.1783
  146OSM    C1F16139   2.296   6.206   6.161 -0.2968  0.2372 -0.3202
  146OSM     OF16140   2.352   6.319   6.157  0.1895 -0.0635 -0.3963
  146OSM    C2F16141   2.194   6.157   6.064 -0.1557 -0.5038  0.0751
  146OSM    H2F16142   2.098   6.166   6.119 -0.7931 -1.2685 -0.8824
  146OSM    H2G16143   2.210   6.050   6.038  1.0826 -0.5462  0.8955
  146OSM    C3F16144   2.188   6.250   5.938 -0.5292  0.4955  0.7830
  146OSM    H3F16145   2.290   6.277   5.903  0.7008 -1.5701  2.5103
  146OSM    H3G16146   2.144   6.348   5.967 -2.7503  0.1567 -1.0977
  146OSM    C4F16147   2.098   6.196   5.830 -0.3024 -0.0897  1.2414
  146OSM    H4F16148   2.068   6.286   5.773 -0.2471 -0.8697 -0.0753
  146OSM    H4G16149   2.013   6.142   5.878  0.5349 -2.2324  0.4703
  146OSM    C5F16150   2.174   6.099   5.745 -0.3051  0.6541 -0.4465
  146OSM    H5F16151   2.104   6.028   5.696  1.8859 -2.3710  0.4700
  146OSM    H5G16152   2.247   6.034   5.798  0.0211 -1.5807 -3.3877
  146OSM    C6F16153   2.251   6.166   5.630 -0.6581  0.2283 -0.6925
  146OSM    H6F16154   2.331   6.231   5.673 -1.5036 -0.4833  2.1222
  146OSM    H6G16155   2.181   6.233   5.577  0.8093  0.9720 -1.7677
  146OSM    C7F16156   2.306   6.054   5.542 -0.1731  0.2488 -0.9539
  146OSM    H7F16157   2.223   5.999   5.491 -0.7631  1.7606 -1.6873
  146OSM    H7G16158   2.367   5.987   5.606  2.8022  0.5346 -3.2631
  146OSM    C8F16159   2.398   6.095   5.427  0.0258 -0.4100 -0.0928
  146OSM    H8F16160   2.430   6.022   5.350 -0.3419  0.8136 -1.4510
  146OSM    H8G16161   2.494   6.119   5.478 -0.3609  0.5682  0.2058
  146OSM    C9F16162   2.358   6.231   5.368 -0.3165 -0.1272 -0.0711
  146OSM    H9F16163   2.370   6.321   5.430  1.7145 -1.7605  2.1123
  146OSM   C10F16164   2.316   6.250   5.241 -0.4227 -0.3441  1.0459
  146OSM   H10F16165   2.305   6.353   5.204 -0.6356 -0.6688  0.1971
  146OSM   C11F16166   2.309   6.148   5.134  0.3154  0.8465  0.6200
  146OSM   H11F16167   2.358   6.052   5.157 -1.6600 -0.6500 -1.0014
  146OSM   H11G16168   2.365   6.186   5.045 -2.5109  3.6761 -0.1265
  146OSM   C12F16169   2.168   6.128   5.079  0.4946 -0.3519 -0.5913
  146OSM   H12F16170   2.096   6.095   5.157 -1.6293  0.2208 -2.2106
  146OSM   H12G16171   2.166   6.051   4.998  2.5060  2.3316 -3.4203
  146OSM   C13F16172   2.125   6.267   5.021 -0.2873 -0.0882 -0.2046
  146OSM   H13F16173   2.215   6.303   4.967  0.8161  0.8381  2.1127
  146OSM   H13G16174   2.106   6.338   5.104  0.0402  0.2821 -0.4408
  146OSM   C14F16175   1.994   6.265   4.932 -0.7974  0.3013  0.0425
  146OSM   H14F16176   1.910   6.220   4.989  1.2145  0.1967  3.1625
  146OSM   H14G16177   1.974   6.372   4.909  0.4113  0.4464 -0.3989
  146OSM   C15F16178   2.021   6.194   4.802 -0.2300  0.7817 -0.3122
  146OSM   H15F16179   2.033   6.085   4.820 -3.0687  0.0329 -2.2128
  146OSM   H15G16180   2.113   6.231   4.752 -1.0877  2.0467 -1.0067
  146OSM   C16F16181   1.912   6.230   4.711 -0.4263  0.0940  0.0666
  146OSM   H16F16182   1.902   6.339   4.692 -2.6146 -0.1317 -0.3437
  146OSM   H16G16183   1.810   6.219   4.753 -1.4501  0.6018 -2.1347
  146OSM   C17F16184   1.910   6.152   4.580  0.9188  0.6491 -0.3069
  146OSM   H17F16185   1.829   6.190   4.515  1.4001  2.0832 -0.0953
  146OSM   H17G16186   1.895   6.045   4.605 -0.4613  1.0909  0.8845
  146OSM   C18F16187   2.045   6.141   4.512  0.4241 -0.1771  0.2602
  146OSM   H18F16188   2.032   6.082   4.418 -1.6125  2.0265 -0.9684
  146OSM   H18G16189   2.116   6.092   4.582  0.2878  1.0038  1.2513
  146OSM   H18H16190   2.083   6.239   4.476 -2.0064  0.3336 -1.1536
  147OSM      N16191   4.178   6.718   1.704 -0.2766 -0.1458 -0.4486
  147OSM    C1516192   4.309   6.670   1.648 -0.5351  0.3239 -0.7113
  147OSM   H15A16193   4.324   6.564   1.665  1.9767  0.7753  0.2645
  147OSM   H15B16194   4.386   6.720   1.704  0.5150 -1.5334 -0.3991
  147OSM   H15C16195   4.320   6.694   1.543 -0.5485 -2.8063 -1.5473
  147OSM    C1416196   4.186   6.869   1.688 -0.4622 -0.2174 -0.3052
  147OSM   H14A16197   4.098   6.901   1.743 -1.4177  0.1026 -1.9728
  147OSM   H14B16198   4.193   6.889   1.583 -2.2737 -2.3342 -0.9030
  147OSM   H14C16199   4.267   6.896   1.754  0.2621 -0.6808 -0.9863
  147OSM    C1316200   4.065   6.667   1.629 -0.0635  0.6668 -0.1358
  147OSM   H13A16201   3.974   6.717   1.658 -1.6342 -0.5464 -2.6101
  147OSM   H13B16202   4.050   6.565   1.660  1.3381  0.5365  0.1890
  147OSM   H13C16203   4.081   6.678   1.523  0.7593 -0.1359 -0.1095
  147OSM    C1216204   4.165   6.692   1.854  0.0679 -0.2257 -0.2340
  147OSM   H12A16205   4.070   6.729   1.891  0.3945  2.4586 -1.7964
  147OSM   H12B16206   4.244   6.744   1.907 -0.4603  1.4799 -1.0277
  147OSM    C1116207   4.175   6.539   1.890  0.2005 -0.7881 -0.0699
  147OSM   H11A16208   4.281   6.505   1.888  0.3320 -0.3577 -1.4360
  147OSM   H11B16209   4.102   6.492   1.821 -0.9904 -0.0160  0.6257
  147OSM      P16210   3.974   6.552   2.061 -0.1894 -0.0504  0.3785
  147OSM    O1316211   3.914   6.649   1.964 -0.1274 -0.0289 -0.7574
  147OSM    O1416212   3.918   6.425   2.065  0.4846  0.1691  0.0378
  147OSM    O1116213   3.962   6.609   2.206  0.1745 -0.0951  0.2496
  147OSM    O1216214   4.126   6.534   2.022 -1.0315  0.0877 -0.7740
  147OSM    C1S16215   4.050   6.720   2.242  0.9890  0.5880 -0.2405
  147OSM    H1S16216   4.056   6.795   2.160  1.3065 -0.5642 -1.3043
  147OSM    H1T16217   4.150   6.677   2.263  0.2741 -1.2119 -0.3685
  147OSM     NF16218   4.069   6.911   2.399  0.1199 -0.1760 -0.2262
  147OSM    HNF16219   4.134   6.911   2.475  0.5673 -0.4045 -0.6093
  147OSM    C2S16220   3.996   6.790   2.367  0.5842 -0.1996 -0.2499
  147OSM    H2S16221   3.896   6.831   2.344  0.5500  0.9609  1.7137
  147OSM    C3S16222   3.989   6.684   2.490 -0.1825  0.2095  0.0347
  147OSM    H3S16223   4.092   6.653   2.517 -0.1901 -0.3959 -0.6183
  147OSM     O316224   3.917   6.562   2.467 -0.2256 -0.0961  0.5036
  147OSM    HO316225   3.914   6.551   2.372 -0.9948 -0.2227  0.5388
  147OSM    C4S16226   3.943   6.742   2.620 -0.7151 -0.1716  0.4034
  147OSM    H4S16227   4.035   6.766   2.676  0.4439 -0.1680 -1.4249
  147OSM    C5S16228   3.817   6.764   2.668 -0.0349 -0.0631 -0.2072
  147OSM    H5S16229   3.735   6.727   2.605  0.2523  2.1555 -1.9799
  147OSM    C6S16230   3.777   6.814   2.805 -0.9814 -0.0907 -0.8172
  147OSM    H6S16231   3.731   6.727   2.857  1.5852 -1.2940 -0.3871
  147OSM    H6T16232   3.706   6.899   2.813  0.2126  0.7456  3.0873
  147OSM    C7S16233   3.894   6.866   2.902 -1.2096 -0.5128 -0.1985
  147OSM    H7S16234   3.947   6.956   2.861  0.8916 -1.2540  0.7266
  147OSM    H7T16235   3.958   6.777   2.919 -2.9015 -1.3947  2.0483
  147OSM    C8S16236   3.849   6.897   3.044 -0.5391  0.6241 -0.7799
  147OSM    H8S16237   3.799   6.805   3.083  0.0211  0.5841 -0.1500
  147OSM    H8T16238   3.768   6.973   3.035 -1.7708 -0.3977  1.0401
  147OSM    C9S16239   3.955   6.931   3.144  0.2879 -0.1509  0.2218
  147OSM    H9S16240   3.971   7.041   3.138 -0.7994  0.0126  0.0632
  147OSM    H9T16241   4.050   6.888   3.105  0.6210 -2.4112  3.1580
  147OSM   C10S16242   3.926   6.880   3.288 -0.9468  0.1082  0.3614
  147OSM   H10S16243   3.946   6.771   3.296  3.6164  0.6540 -0.5920
  147OSM   H10T16244   3.821   6.899   3.320  0.0453 -0.3332  4.4957
  147OSM   C11S16245   4.033   6.928   3.398  0.1112  0.3769  0.4589
  147OSM   H11S16246   4.008   7.031   3.432 -0.3199  0.0927  1.0073
  147OSM   H11T16247   4.135   6.937   3.355  0.8747 -0.1566  2.0731
  147OSM   C12S16248   4.044   6.833   3.516 -0.0921  0.0584 -0.5829
  147OSM   H12S16249   4.068   6.731   3.479  2.3943  0.5185 -0.4021
  147OSM   H12T16250   3.946   6.825   3.568  1.0315 -0.8955  1.5503
  147OSM   C13S16251   4.141   6.882   3.624 -0.4514 -0.0426  0.2595
  147OSM   H13S16252   4.143   6.992   3.608 -2.6151  0.4269  2.5352
  147OSM   H13T16253   4.244   6.844   3.608  0.3316  0.8493  2.7687
  147OSM   C14S16254   4.088   6.835   3.758  0.2662  0.2279 -0.6481
  147OSM   H14S16255   3.995   6.775   3.753 -0.1492  0.9506 -2.2218
  147OSM   H14T16256   4.058   6.927   3.813  2.3734  0.7201 -0.2280
  147OSM   C15S16257   4.190   6.761   3.841  0.2355 -0.7028  0.0850
  147OSM   H15S16258   4.271   6.835   3.860 -0.0449 -0.3652 -0.0160
  147OSM   H15T16259   4.232   6.675   3.784  0.3004  0.1730 -1.2318
  147OSM   C16S16260   4.127   6.730   3.974  0.0577  0.7719 -0.5666
  147OSM   H16S16261   4.029   6.680   3.956 -0.3702  0.8638  1.2676
  147OSM   H16T16262   4.100   6.826   4.023  0.6393  0.8360 -0.3615
  147OSM   C17S16263   4.221   6.651   4.068  1.2377 -0.2573 -0.5882
  147OSM   H17S16264   4.256   6.551   4.035  0.5766 -0.7582  0.1940
  147OSM   H17T16265   4.168   6.639   4.165 -0.4485 -0.0626 -1.4579
  147OSM   C18S16266   4.349   6.738   4.102 -0.1537  0.3954  0.4868
  147OSM   H18S16267   4.415   6.758   4.016 -0.2974 -1.0739  0.0053
  147OSM   H18T16268   4.412   6.679   4.172  1.0175  1.6898  0.5505
  147OSM   H18U16269   4.317   6.833   4.151 -0.3072  1.4803 -1.6036
  147OSM    C1F16270   4.061   7.026   2.326 -0.0617  1.1478  0.8130
  147OSM     OF16271   3.998   7.031   2.216 -0.1503  0.2149 -0.9089
  147OSM    C2F16272   4.147   7.143   2.375  0.0218 -0.9513  0.0247
  147OSM    H2F16273   4.190   7.200   2.291 -0.0439  2.0677  1.8920
  147OSM    H2G16274   4.234   7.103   2.431  0.2470  0.6318  0.8601
  147OSM    C3F16275   4.068   7.234   2.474  0.2701 -0.2469  0.5452
  147OSM    H3F16276   4.033   7.181   2.565  0.6777 -1.7950 -0.1619
  147OSM    H3G16277   3.977   7.272   2.422  1.4291  1.1490 -0.5659
  147OSM    C4F16278   4.142   7.358   2.525 -0.5219 -0.0056 -0.3319
  147OSM    H4F16279   4.197   7.399   2.437 -0.0212 -0.8116 -0.4118
  147OSM    H4G16280   4.223   7.323   2.593  0.9977  0.1536 -1.9663
  147OSM    C5F16281   4.049   7.460   2.592  0.1732 -0.1772 -0.3643
  147OSM    H5F16282   3.986   7.403   2.664  1.4340  1.4912  2.2523
  147OSM    H5G16283   3.988   7.502   2.509 -0.7109 -2.0622 -0.7011
  147OSM    C6F16284   4.133   7.573   2.672  0.4166  0.0299  0.8079
  147OSM    H6F16285   4.191   7.626   2.593 -0.6275  0.2011  0.1258
  147OSM    H6G16286   4.200   7.522   2.743  0.4155 -2.4762 -0.8447
  147OSM    C7F16287   4.041   7.670   2.753  0.7031  0.4016 -0.4496
  147OSM    H7F16288   3.965   7.709   2.682 -0.3813 -2.1120 -0.7737
  147OSM    H7G16289   4.103   7.751   2.797 -0.1429  0.1680  1.2541
  147OSM    C8F16290   3.965   7.604   2.870  0.5259  0.0699  0.5042
  147OSM    H8F16291   4.033   7.537   2.928  1.0489  0.1406 -0.0178
  147OSM    H8G16292   3.898   7.527   2.826  0.0253  1.3064 -0.9609
  147OSM    C9F16293   3.871   7.691   2.949  0.1340 -0.1857  0.7130
  147OSM    H9F16294   3.780   7.720   2.895 -0.5063 -0.4857  1.6054
  147OSM   C10F16295   3.868   7.708   3.085  0.4729  0.4973  0.4941
  147OSM   H10F16296   3.794   7.775   3.129  0.9490  1.3782 -0.0166
  147OSM   C11F16297   3.973   7.659   3.173 -0.2935  0.3071  0.5693
  147OSM   H11F16298   4.070   7.678   3.123 -0.4357 -0.1101  0.1172
  147OSM   H11G16299   3.958   7.550   3.189 -2.7039  0.4452 -0.2630
  147OSM   C12F16300   3.964   7.712   3.317  0.2513  0.3954  0.2219
  147OSM   H12F16301   3.882   7.667   3.376  0.1004  1.1688  0.6114
  147OSM   H12G16302   3.958   7.823   3.322 -0.7457  0.3011  1.3450
  147OSM   C13F16303   4.085   7.659   3.391  0.4624 -0.0964 -0.3586
  147OSM   H13F16304   4.180   7.685   3.338  0.7292 -1.0579 -0.3862
  147OSM   H13G16305   4.082   7.549   3.375 -0.5308  0.0874 -1.6239
  147OSM   C14F16306   4.099   7.699   3.540 -0.3827 -0.0670  0.1532
  147OSM   H14F16307   3.999   7.686   3.586 -0.2834 -0.6042  0.2183
  147OSM   H14G16308   4.112   7.810   3.541 -0.4935  0.1074 -3.9640
  147OSM   C15F16309   4.192   7.622   3.621 -0.9110  0.3818  0.8978
  147OSM   H15F16310   4.288   7.627   3.566 -2.2044  1.6306 -1.4039
  147OSM   H15G16311   4.156   7.518   3.640 -1.2349  0.0422 -1.2597
  147OSM   C16F16312   4.225   7.680   3.759  0.0555 -0.3984 -0.5700
  147OSM   H16F16313   4.275   7.779   3.753  0.9271 -0.8102 -0.1308
  147OSM   H16G16314   4.297   7.610   3.805 -1.4291 -0.4305  1.8941
  147OSM   C17F16315   4.095   7.697   3.847  0.3453  0.3445  0.5604
  147OSM   H17F16316   4.020   7.618   3.827 -0.0095  0.1150  2.5792
  147OSM   H17G16317   4.040   7.789   3.820  0.6037  0.2427 -0.3392
  147OSM   C18F16318   4.121   7.699   3.999 -0.1635 -0.3746  0.3530
  147OSM   H18F16319   4.158   7.795   4.040 -0.6345 -1.5701  3.9245
  147OSM   H18G16320   4.195   7.621   4.025  2.5577  1.8602 -0.2432
  147OSM   H18H16321   4.023   7.684   4.050 -0.1086 -1.4528  0.1648
  148OSM      N16322   3.158   2.232   1.777  0.4961 -0.4060  0.0364
  148OSM    C1516323   3.048   2.331   1.756  0.0345  0.1734 -0.0618
  148OSM   H15A16324   3.054   2.412   1.827 -1.9429 -1.8530  2.6379
  148OSM   H15B16325   2.954   2.280   1.774  0.8294 -0.7589  1.6726
  148OSM   H15C16326   3.049   2.373   1.657  2.1081  0.4894  0.0534
  148OSM    C1416327   3.130   2.101   1.715  0.6557 -0.0226 -0.6837
  148OSM   H14A16328   3.047   2.056   1.768  1.4202  1.5900  2.0917
  148OSM   H14B16329   3.212   2.033   1.698  0.9019  0.0508  0.1359
  148OSM   H14C16330   3.080   2.108   1.620  0.4784  1.1493 -0.5136
  148OSM    C1316331   3.277   2.291   1.704 -0.1317 -0.0453  0.0707
  148OSM   H13A16332   3.287   2.395   1.729 -1.1404 -0.3914  2.1897
  148OSM   H13B16333   3.263   2.283   1.597  0.6558  0.5439 -0.0825
  148OSM   H13C16334   3.365   2.239   1.740  0.5524  0.3590 -0.9639
  148OSM    C1216335   3.185   2.228   1.927 -0.0822 -0.3173 -0.3790
  148OSM   H12A16336   3.098   2.178   1.967 -0.2445  1.8070  2.2661
  148OSM   H12B16337   3.197   2.324   1.976 -0.0803  0.1889 -1.3603
  148OSM    C1116338   3.302   2.135   1.973 -0.1805  0.0285 -0.1507
  148OSM   H11A16339   3.283   2.033   1.932  0.2500 -0.6153  1.1954
  148OSM   H11B16340   3.304   2.112   2.081  1.7854 -1.4330 -0.4356
  148OSM      P16341   3.536   2.258   2.015  0.1314 -0.0775  0.0955
  148OSM    O1316342   3.669   2.252   1.958  0.6471  0.2743  0.4710
  148OSM    O1416343   3.493   2.399   2.043  0.5166  0.7956  0.1612
  148OSM    O1116344   3.530   2.172   2.146  0.8658 -0.2170 -0.4463
  148OSM    O1216345   3.430   2.180   1.917 -0.4465  0.9779  0.5851
  148OSM    C1S16346   3.620   2.196   2.256  0.5623  0.0867  0.2705
  148OSM    H1S16347   3.670   2.295   2.245  0.8909 -0.1969 -1.0182
  148OSM    H1T16348   3.694   2.114   2.248 -0.6843 -1.0330 -0.0933
  148OSM     NF16349   3.619   2.228   2.507 -0.0290 -0.1551 -0.1820
  148OSM    HNF16350   3.661   2.156   2.562  0.0665  0.3472  0.4113
  148OSM    C2S16351   3.535   2.183   2.397  0.1051  0.4208 -0.2596
  148OSM    H2S16352   3.454   2.259   2.390  0.7179  0.9836 -1.6865
  148OSM    C3S16353   3.477   2.034   2.414  0.1366  0.5293  0.8208
  148OSM    H3S16354   3.554   1.954   2.409 -0.7584 -0.3097  0.1290
  148OSM     O316355   3.398   1.995   2.302 -0.5086 -0.2137 -0.0489
  148OSM    HO316356   3.397   2.079   2.255  0.6394  0.9593  1.9187
  148OSM    C4S16357   3.395   2.006   2.536 -0.3256  0.8037 -0.2649
  148OSM    H4S16358   3.315   2.081   2.547 -1.5697 -0.5656  0.4185
  148OSM    C5S16359   3.410   1.903   2.622  0.6502 -0.0603  0.6524
  148OSM    H5S16360   3.504   1.850   2.599 -0.8068 -1.2965 -3.3586
  148OSM    C6S16361   3.323   1.877   2.742  0.3202  0.3627 -0.0644
  148OSM    H6S16362   3.256   1.789   2.726  0.0046  0.6214 -0.1708
  148OSM    H6T16363   3.256   1.964   2.759 -0.1938  0.0483 -0.4491
  148OSM    C7S16364   3.398   1.871   2.871 -0.8482 -0.0010 -0.2772
  148OSM    H7S16365   3.446   1.970   2.885 -0.3384 -0.0375 -1.6609
  148OSM    H7T16366   3.488   1.806   2.861  0.3680  1.5967 -0.0565
  148OSM    C8S16367   3.328   1.827   3.000  0.0281  0.0815 -0.0941
  148OSM    H8S16368   3.329   1.716   3.007 -0.3486  0.0505 -0.5416
  148OSM    H8T16369   3.225   1.867   2.992  0.4289  0.8390 -1.9556
  148OSM    C9S16370   3.388   1.903   3.130  0.3102  0.5653  0.7069
  148OSM    H9S16371   3.379   2.011   3.107  1.6239  0.3802 -0.9507
  148OSM    H9T16372   3.498   1.887   3.138  0.0996 -0.9246  1.0038
  148OSM   C10S16373   3.317   1.875   3.261  0.3388 -0.6176  0.5062
  148OSM   H10S16374   3.342   1.768   3.280  1.2652 -0.6080 -0.5634
  148OSM   H10T16375   3.208   1.883   3.240  0.6189 -1.2214 -1.3921
  148OSM   C11S16376   3.365   1.956   3.376  0.8127  0.2410 -0.5209
  148OSM   H11S16377   3.347   2.062   3.348 -0.2886  0.4356  0.7987
  148OSM   H11T16378   3.473   1.941   3.394  0.2349 -3.6311  0.5804
  148OSM   C12S16379   3.296   1.937   3.509 -0.1266 -0.5056 -0.0867
  148OSM   H12S16380   3.303   1.830   3.539 -1.3896 -0.3482  0.8263
  148OSM   H12T16381   3.188   1.956   3.491 -0.4934 -3.4125 -1.4641
  148OSM   C13S16382   3.364   2.025   3.620  0.2345 -0.6033 -0.5578
  148OSM   H13S16383   3.312   1.993   3.713  0.9750 -0.7113 -0.1718
  148OSM   H13T16384   3.346   2.134   3.606  0.9613 -0.2681  0.8824
  148OSM   C14S16385   3.518   2.008   3.645  0.6498  0.2193  0.6123
  148OSM   H14S16386   3.581   2.041   3.559  1.6992 -0.8789  0.9262
  148OSM   H14T16387   3.537   1.900   3.665 -3.4690 -0.8859 -0.5185
  148OSM   C15S16388   3.564   2.111   3.757  0.6861 -0.1394  0.2629
  148OSM   H15S16389   3.505   2.100   3.851 -0.5347  0.1208 -0.4480
  148OSM   H15T16390   3.543   2.214   3.722 -2.5470 -0.5359  0.6936
  148OSM   C16S16391   3.711   2.096   3.782 -0.3962  0.5341 -0.3048
  148OSM   H16S16392   3.771   2.096   3.688 -1.1286  1.9697 -0.7948
  148OSM   H16T16393   3.726   1.997   3.830 -1.6113 -0.1631 -1.3161
  148OSM   C17S16394   3.763   2.209   3.872 -1.3851 -0.2480  0.6150
  148OSM   H17S16395   3.705   2.196   3.966 -3.3754  0.3482 -0.4802
  148OSM   H17T16396   3.728   2.305   3.830  0.1048 -0.4188 -1.1669
  148OSM   C18S16397   3.918   2.217   3.902  0.8204 -0.9045  0.6805
  148OSM   H18S16398   3.947   2.323   3.918  1.6572 -0.9949 -0.1833
  148OSM   H18T16399   3.970   2.190   3.807 -0.8046  0.8599 -0.7887
  148OSM   H18U16400   3.952   2.156   3.988  0.8264 -1.3077  0.3955
  148OSM    C1F16401   3.658   2.349   2.530 -0.2941  0.1922 -1.5337
  148OSM     OF16402   3.641   2.428   2.442  0.5650 -0.6720  0.3375
  148OSM    C2F16403   3.711   2.393   2.668 -0.3316 -0.3530 -0.4309
  148OSM    H2F16404   3.822   2.391   2.667 -0.2172  2.1270  0.2893
  148OSM    H2G16405   3.683   2.330   2.755  0.4321  2.2294  1.8511
  148OSM    C3F16406   3.665   2.533   2.709 -0.2322 -0.0062  0.4247
  148OSM    H3F16407   3.554   2.533   2.718 -0.3291 -0.2773 -0.6537
  148OSM    H3G16408   3.699   2.598   2.625 -0.1942  1.7829  1.7749
  148OSM    C4F16409   3.714   2.591   2.843 -0.0272 -0.2658 -0.0813
  148OSM    H4F16410   3.651   2.560   2.930 -0.0178  0.7518  0.2992
  148OSM    H4G16411   3.710   2.702   2.839 -0.3967 -0.1150  2.6941
  148OSM    C5F16412   3.861   2.554   2.876  0.1825 -0.0119 -0.1849
  148OSM    H5F16413   3.918   2.576   2.783  0.5175  0.9729  0.2393
  148OSM    H5G16414   3.884   2.449   2.906  1.7533 -0.0517 -1.3900
  148OSM    C6F16415   3.921   2.647   2.990 -0.6872 -0.9931  0.0237
  148OSM    H6F16416   4.013   2.599   3.030  0.0335 -0.9717 -1.5102
  148OSM    H6G16417   3.848   2.657   3.073  0.3174  0.3520  0.7993
  148OSM    C7F16418   3.964   2.787   2.941 -0.3838 -0.6429  0.2126
  148OSM    H7F16419   3.886   2.850   2.893  0.2842 -1.0678 -1.5119
  148OSM    H7G16420   4.045   2.770   2.867  0.1327 -4.6215  1.4655
  148OSM    C8F16421   4.030   2.879   3.049 -0.2400  0.4920 -0.0721
  148OSM    H8F16422   4.074   2.974   3.014  0.5820  0.0873 -0.1649
  148OSM    H8G16423   4.109   2.810   3.087 -1.2636 -0.9844 -0.5390
  148OSM    C9F16424   3.936   2.906   3.165  0.3339 -0.4944  0.5424
  148OSM    H9F16425   3.834   2.926   3.131  0.4357  0.4869  0.7749
  148OSM   C10F16426   3.964   2.927   3.291 -0.6396  1.0967  0.3452
  148OSM   H10F16427   3.890   2.975   3.357  0.0822 -0.0923  2.0840
  148OSM   C11F16428   4.100   2.919   3.359 -0.0280  0.5032 -0.1791
  148OSM   H11F16429   4.161   2.855   3.292 -3.7247 -1.5717 -1.8483
  148OSM   H11G16430   4.092   2.867   3.456 -1.2255 -0.8926 -0.9944
  148OSM   C12F16431   4.147   3.069   3.378  0.9593  0.1577 -0.2074
  148OSM   H12F16432   4.127   3.126   3.284  0.1139  1.8266  0.9303
  148OSM   H12G16433   4.253   3.078   3.407  0.1281  1.2220  2.9524
  148OSM   C13F16434   4.064   3.151   3.477 -0.2328  0.4768 -0.6883
  148OSM   H13F16435   4.073   3.104   3.577 -0.5738  1.8360 -0.0001
  148OSM   H13G16436   3.955   3.153   3.458 -0.1060 -1.1989 -1.8112
  148OSM   C14F16437   4.118   3.297   3.479  0.2178  0.6666  0.0200
  148OSM   H14F16438   4.022   3.351   3.485 -1.0778 -1.5823  0.6031
  148OSM   H14G16439   4.158   3.317   3.378 -0.1517 -1.8730 -0.6907
  148OSM   C15F16440   4.219   3.342   3.583  0.1839 -0.0748  0.6856
  148OSM   H15F16441   4.307   3.275   3.572 -0.6545 -1.3371  1.4668
  148OSM   H15G16442   4.178   3.324   3.685 -1.5021  0.8619  0.2171
  148OSM   C16F16443   4.277   3.487   3.568  0.0207  0.3458  0.0847
  148OSM   H16F16444   4.194   3.559   3.556  0.0861  0.3653 -0.2795
  148OSM   H16G16445   4.342   3.491   3.478 -0.3186 -0.5550 -0.2163
  148OSM   C17F16446   4.357   3.533   3.692  0.6744  0.4254 -0.3614
  148OSM   H17F16447   4.421   3.447   3.722 -1.4837 -2.1032 -2.5802
  148OSM   H17G16448   4.283   3.545   3.774 -1.0797 -0.6469 -1.7239
  148OSM   C18F16449   4.448   3.653   3.668  0.7942  0.0182  0.2511
  148OSM   H18F16450   4.401   3.717   3.590  1.2628 -1.1555 -1.0232
  148OSM   H18G16451   4.552   3.629   3.640  0.9279  3.2331 -2.6193
  148OSM   H18H16452   4.465   3.711   3.761  0.4671 -0.4824  0.6318
  149OSM      N16453   3.037   4.938   1.888 -0.6121  0.0933 -0.6051
  149OSM    C1516454   3.032   5.048   1.786  0.0723  0.5852  0.3933
  149OSM   H15A16455   2.970   5.023   1.701  2.0572  2.6382 -1.8663
  149OSM   H15B16456   3.132   5.069   1.750  0.6849 -0.3490  1.4802
  149OSM   H15C16457   2.993   5.144   1.815 -1.6741  0.5529 -1.5774
  149OSM    C1416458   2.902   4.913   1.942 -0.6648 -0.7239  0.0897
  149OSM   H14A16459   2.913   4.838   2.019  1.2032 -1.8301 -1.1767
  149OSM   H14B16460   2.835   4.882   1.865  0.2163 -0.5867 -0.7521
  149OSM   H14C16461   2.859   5.000   1.990 -0.1507  1.4572 -3.1017
  149OSM    C1316462   3.089   4.809   1.828 -0.2704  1.3236 -0.0218
  149OSM   H13A16463   3.105   4.744   1.912 -0.8468  1.1147 -0.0741
  149OSM   H13B16464   3.183   4.819   1.775 -0.9437 -1.3258 -1.9040
  149OSM   H13C16465   3.016   4.769   1.759 -0.3210  1.5997 -0.1300
  149OSM    C1216466   3.132   4.989   2.000  0.1046  0.4107 -0.1653
  149OSM   H12A16467   3.106   5.092   2.019  1.2736  0.5798  0.6101
  149OSM   H12B16468   3.230   5.005   1.958  0.4060  0.8878  0.6859
  149OSM    C1116469   3.148   4.918   2.136 -0.0534 -0.3790 -0.0526
  149OSM   H11A16470   3.063   4.924   2.207 -0.0518 -0.7487 -0.0214
  149OSM   H11B16471   3.232   4.974   2.182 -0.1251  0.1812 -0.5977
  149OSM      P16472   3.324   4.731   2.072  0.1045  0.6265 -0.5078
  149OSM    O1316473   3.298   4.620   1.977  0.0027 -0.2326 -0.4175
  149OSM    O1416474   3.407   4.842   2.028 -0.7964 -0.1547 -0.2135
  149OSM    O1116475   3.384   4.677   2.202  0.1505  0.2585 -0.2302
  149OSM    O1216476   3.192   4.783   2.117  0.0600 -0.1608  0.5810
  149OSM    C1S16477   3.399   4.755   2.320  0.4659 -0.2997 -0.4026
  149OSM    H1S16478   3.295   4.769   2.354  1.9290  1.4027  4.0247
  149OSM    H1T16479   3.453   4.851   2.306  0.5333 -0.4481 -1.2555
  149OSM     NF16480   3.466   4.753   2.554  0.2323 -0.2289 -0.3876
  149OSM    HNF16481   3.552   4.781   2.597  0.1249 -0.3056 -0.1214
  149OSM    C2S16482   3.466   4.677   2.428  0.2178 -0.3879 -0.3848
  149OSM    H2S16483   3.419   4.577   2.442  1.7824 -1.0298  0.5621
  149OSM    C3S16484   3.611   4.642   2.386 -0.2698 -0.6421  0.2075
  149OSM    H3S16485   3.662   4.737   2.360 -1.5558 -0.2352 -0.8981
  149OSM     O316486   3.623   4.579   2.265 -1.0966  0.5659 -0.1110
  149OSM    HO316487   3.532   4.576   2.233 -0.3932 -0.5054 -2.2691
  149OSM    C4S16488   3.678   4.573   2.495  0.0567 -0.6519 -0.3045
  149OSM    H4S16489   3.741   4.640   2.555  0.3196 -0.8696 -0.3323
  149OSM    C5S16490   3.687   4.442   2.530  0.2497  0.1061 -0.2913
  149OSM    H5S16491   3.645   4.361   2.469 -0.2363 -1.6372  2.1962
  149OSM    C6S16492   3.771   4.396   2.647  0.6262  0.1112  0.4148
  149OSM    H6S16493   3.787   4.288   2.626 -1.2106 -0.2474  0.6184
  149OSM    H6T16494   3.704   4.391   2.735 -2.0310  3.9050 -1.1281
  149OSM    C7S16495   3.903   4.462   2.671  0.0155  0.3252 -0.2324
  149OSM    H7S16496   3.889   4.570   2.693  1.1923  0.6499 -0.9956
  149OSM    H7T16497   3.965   4.452   2.579  0.4354 -2.2777  0.2451
  149OSM    C8S16498   3.965   4.396   2.798  0.2504 -0.1079 -0.4659
  149OSM    H8S16499   3.998   4.291   2.781 -1.8382 -1.9715  5.0290
  149OSM    H8T16500   3.893   4.394   2.882  0.5294  0.2160 -0.2151
  149OSM    C9S16501   4.092   4.477   2.848 -0.0021  0.2595  0.0607
  149OSM    H9S16502   4.055   4.579   2.874 -1.3259 -0.2441  0.2527
  149OSM    H9T16503   4.152   4.480   2.755  0.0114 -2.5355 -0.0974
  149OSM   C10S16504   4.170   4.402   2.949  0.2854 -0.8452 -1.0508
  149OSM   H10S16505   4.189   4.303   2.903 -1.9626 -3.4853  3.0883
  149OSM   H10T16506   4.106   4.388   3.039  1.6324  0.1484  0.1040
  149OSM   C11S16507   4.293   4.474   2.982 -0.3486 -0.5556  0.4044
  149OSM   H11S16508   4.271   4.577   3.018  3.7360  1.2147 -1.4281
  149OSM   H11T16509   4.344   4.499   2.887  0.9963 -4.2337 -0.0104
  149OSM   C12S16510   4.383   4.402   3.094  0.0535  0.2457 -0.0247
  149OSM   H12S16511   4.487   4.423   3.063  0.0073 -0.6871 -0.8746
  149OSM   H12T16512   4.371   4.291   3.095 -0.9519  0.3450 -0.0091
  149OSM   C13S16513   4.358   4.459   3.228 -0.2932 -0.7461 -0.0298
  149OSM   H13S16514   4.258   4.424   3.263  0.4891 -0.4809  2.6571
  149OSM   H13T16515   4.369   4.569   3.222 -0.6995 -0.7700 -2.0856
  149OSM   C14S16516   4.456   4.419   3.337 -0.1475 -0.4148 -0.2912
  149OSM   H14S16517   4.543   4.483   3.309  0.9260 -0.7563  2.0832
  149OSM   H14T16518   4.488   4.314   3.320 -0.1282 -0.3251 -0.8277
  149OSM   C15S16519   4.410   4.456   3.473  0.1171  0.4037 -0.7554
  149OSM   H15S16520   4.303   4.431   3.486  0.3310  0.0149  0.3649
  149OSM   H15T16521   4.417   4.565   3.493  1.0248  0.2943 -0.4397
  149OSM   C16S16522   4.485   4.377   3.579 -0.1915 -0.6513  0.6968
  149OSM   H16S16523   4.596   4.387   3.568 -0.3300 -1.0790 -1.7863
  149OSM   H16T16524   4.454   4.272   3.561  2.4929 -1.5154  0.6305
  149OSM   C17S16525   4.444   4.414   3.714 -0.3317  0.2213 -0.0666
  149OSM   H17S16526   4.334   4.432   3.720 -0.5916 -0.4685 -2.0274
  149OSM   H17T16527   4.484   4.507   3.758 -2.1344 -0.0608  2.3636
  149OSM   C18S16528   4.466   4.298   3.818 -0.1533  0.0048 -0.1314
  149OSM   H18S16529   4.566   4.294   3.868  0.1130  0.3710 -0.6303
  149OSM   H18T16530   4.431   4.198   3.783  3.1244 -1.2025 -0.3790
  149OSM   H18U16531   4.388   4.320   3.894  0.7590  1.8628  0.3185
  149OSM    C1F16532   3.356   4.793   2.614  0.2424  0.5244  0.1396
  149OSM     OF16533   3.249   4.744   2.578  0.2871 -0.8367  1.0479
  149OSM    C2F16534   3.370   4.901   2.719 -0.5286 -0.7310  0.7366
  149OSM    H2F16535   3.410   4.990   2.666  2.2449 -1.6969  1.0317
  149OSM    H2G16536   3.453   4.869   2.786 -0.2310 -1.5083  0.0110
  149OSM    C3F16537   3.241   4.933   2.803 -0.3885 -0.2732 -0.8091
  149OSM    H3F16538   3.155   4.945   2.734 -1.3073 -0.7364  0.2221
  149OSM    H3G16539   3.248   5.032   2.855  1.5873 -0.2554 -1.0474
  149OSM    C4F16540   3.215   4.817   2.906  0.0666  0.2057  0.1115
  149OSM    H4F16541   3.307   4.805   2.967  0.4586  0.5407 -0.4094
  149OSM    H4G16542   3.202   4.725   2.844  1.4862 -0.7510  1.1543
  149OSM    C5F16543   3.098   4.831   3.000  0.2422 -0.5573 -0.0210
  149OSM    H5F16544   3.057   4.731   3.028 -1.9016  0.3588  0.3099
  149OSM    H5G16545   3.015   4.885   2.949 -1.4645  0.1099  3.2195
  149OSM    C6F16546   3.140   4.883   3.138 -0.3193 -0.0933  0.3860
  149OSM    H6F16547   3.212   4.967   3.132 -0.0585 -0.1771  1.8201
  149OSM    H6G16548   3.176   4.790   3.187 -0.2024 -0.4815 -0.4222
  149OSM    C7F16549   3.011   4.926   3.214  0.3683 -0.1472  0.5496
  149OSM    H7F16550   2.944   4.838   3.205  0.0416  0.1802 -0.3871
  149OSM    H7G16551   2.951   5.010   3.172 -0.5982 -0.0029  2.1351
  149OSM    C8F16552   3.033   4.940   3.363 -0.0914 -0.0149  0.1373
  149OSM    H8F16553   3.079   4.849   3.407  2.1599  1.2959  0.6817
  149OSM    H8G16554   2.934   4.964   3.407  0.3066  2.1943 -0.0587
  149OSM    C9F16555   3.116   5.056   3.407 -0.1492 -0.2393  0.4287
  149OSM    H9F16556   3.118   5.146   3.343  1.4626  0.9763  2.0787
  149OSM   C10F16557   3.161   5.076   3.533 -0.4149 -0.1125  0.2728
  149OSM   H10F16558   3.215   5.169   3.556  0.1988 -0.9732  2.6507
  149OSM   C11F16559   3.148   4.994   3.657  0.5046 -0.2686 -0.7789
  149OSM   H11F16560   3.247   4.949   3.681  0.8923  1.1247  0.3288
  149OSM   H11G16561   3.090   4.900   3.645 -0.5558  0.1001  1.2235
  149OSM   C12F16562   3.087   5.070   3.780  0.1177 -0.1763  0.3467
  149OSM   H12F16563   2.980   5.083   3.755 -0.0951 -2.2804  0.0054
  149OSM   H12G16564   3.115   5.178   3.776 -0.3828  0.0667  2.2671
  149OSM   C13F16565   3.113   5.002   3.917  0.2489  0.5751  0.1743
  149OSM   H13F16566   3.221   5.007   3.944  0.2016 -0.6589  0.6804
  149OSM   H13G16567   3.099   4.892   3.909  0.5717  0.4972  0.6168
  149OSM   C14F16568   3.000   5.049   4.017  0.3749 -0.0787 -0.1306
  149OSM   H14F16569   2.899   5.009   3.992 -0.1412  0.6963  0.6671
  149OSM   H14G16570   2.996   5.159   4.033  0.1895 -0.1331  0.2119
  149OSM   C15F16571   3.020   4.987   4.157  0.7391  0.0760  0.5788
  149OSM   H15F16572   3.010   4.877   4.152  1.0967 -0.0532  2.2288
  149OSM   H15G16573   2.948   5.037   4.225 -1.9130  1.5841 -2.9795
  149OSM   C16F16574   3.155   5.024   4.221  0.0257  1.4717  0.1571
  149OSM   H16F16575   3.179   5.131   4.205  0.8206  1.4964  1.4019
  149OSM   H16G16576   3.225   4.961   4.162 -0.6697 -0.2669  1.1036
  149OSM   C17F16577   3.157   5.004   4.373  0.2072  0.6259 -0.1379
  149OSM   H17F16578   3.122   4.903   4.405 -0.1609  0.9199  0.4045
  149OSM   H17G16579   3.083   5.075   4.414  0.7286  1.1379 -0.0777
  149OSM   C18F16580   3.291   5.029   4.441 -0.2683 -0.0680  0.1010
  149OSM   H18F16581   3.335   5.120   4.395 -1.4944  0.6396  0.2800
  149OSM   H18G16582   3.353   4.939   4.419  0.1287 -0.1770  1.5466
  149OSM   H18H16583   3.282   5.041   4.551 -1.2122 -0.7275  0.1093
  150OSM      N16584   6.719   3.953   2.010  0.1477 -0.0499  0.4335
  150OSM    C1516585   6.802   4.021   1.906 -0.3808 -0.2414  0.7678
  150OSM   H15A16586   6.847   3.951   1.836  0.4549  0.8805  0.1523
  150OSM   H15B16587   6.878   4.082   1.953  3.4358 -2.3058 -2.1047
  150OSM   H15C16588   6.728   4.078   1.852 -2.4230 -2.5878  0.8837
  150OSM    C1416589   6.642   4.053   2.089  0.0715 -0.9157  0.0854
  150OSM   H14A16590   6.708   4.126   2.132 -0.5466 -0.0527 -0.4151
  150OSM   H14B16591   6.585   4.010   2.170  1.0491  0.6924  1.7057
  150OSM   H14C16592   6.582   4.119   2.029  0.9427 -0.3458 -0.1750
  150OSM    C1316593   6.630   3.853   1.937 -0.2767 -0.2759 -0.3243
  150OSM   H13A16594   6.565   3.917   1.879  0.7877  1.0055 -0.1689
  150OSM   H13B16595   6.568   3.804   2.010  0.4688 -0.5540  0.1377
  150OSM   H13C16596   6.679   3.770   1.889 -0.4687 -1.7898  1.9480
  150OSM    C1216597   6.811   3.885   2.113 -0.0147  0.8092 -0.4730
  150OSM   H12A16598   6.746   3.864   2.196  0.6799 -0.5191 -0.2277
  150OSM   H12B16599   6.875   3.959   2.159  0.2676  0.2694  0.0156
  150OSM    C1116600   6.908   3.768   2.069 -0.0449  0.1957 -0.2015
  150OSM   H11A16601   6.969   3.738   2.157 -1.5452 -0.0713  0.7767
  150OSM   H11B16602   6.973   3.803   1.986  1.3125 -3.8505 -1.0607
  150OSM      P16603   6.802   3.525   2.083 -0.4175 -0.5457 -0.1832
  150OSM    O1316604   6.657   3.515   2.076  0.6270  0.3728  0.2596
  150OSM    O1416605   6.877   3.409   2.030  0.2203 -0.7281 -0.1551
  150OSM    O1116606   6.842   3.560   2.234  0.0462  0.1137 -0.0641
  150OSM    O1216607   6.846   3.655   2.006  0.2168  0.1635  0.3284
  150OSM    C1S16608   6.852   3.453   2.326 -0.2631  0.1473 -0.0578
  150OSM    H1S16609   6.934   3.380   2.308 -1.3787 -1.4503  1.1345
  150OSM    H1T16610   6.756   3.399   2.326 -0.5148  0.5586 -1.0884
  150OSM     NF16611   6.899   3.392   2.558  0.6152  0.4270 -0.0306
  150OSM    HNF16612   6.837   3.389   2.636  0.9048 -0.7157  0.1761
  150OSM    C2S16613   6.884   3.508   2.467  0.5966  0.3352  0.3519
  150OSM    H2S16614   6.982   3.562   2.462  1.4082 -1.1865 -0.8469
  150OSM    C3S16615   6.777   3.621   2.513  0.1415 -0.2664 -0.7517
  150OSM    H3S16616   6.696   3.552   2.546 -1.1175  0.7606 -1.5993
  150OSM     O316617   6.707   3.700   2.412 -0.4223  0.5214  0.3383
  150OSM    HO316618   6.732   3.649   2.335  2.0602  0.8935  0.8008
  150OSM    C4S16619   6.817   3.703   2.631  0.2431 -0.3328  0.4160
  150OSM    H4S16620   6.802   3.656   2.729  0.8271 -1.5549 -0.0638
  150OSM    C5S16621   6.863   3.834   2.636  0.0189  0.0146  0.5539
  150OSM    H5S16622   6.888   3.884   2.542 -3.3380  0.3766 -0.2425
  150OSM    C6S16623   6.886   3.911   2.763  0.3228  0.1139 -0.0693
  150OSM    H6S16624   6.804   3.985   2.775 -0.9825 -1.5873  2.7955
  150OSM    H6T16625   6.984   3.962   2.753  0.1706  0.3518 -0.3356
  150OSM    C7S16626   6.899   3.830   2.901 -0.3769 -0.1302 -0.2801
  150OSM    H7S16627   6.990   3.767   2.893  0.0713  0.3578  0.7421
  150OSM    H7T16628   6.798   3.784   2.908 -0.5396  0.4237  1.5569
  150OSM    C8S16629   6.903   3.919   3.023  0.3601 -0.1734 -0.7089
  150OSM    H8S16630   6.820   3.992   3.040  0.5358 -0.6335  2.9369
  150OSM    H8T16631   6.985   3.992   3.008 -0.0714  0.8765  1.5560
  150OSM    C9S16632   6.926   3.842   3.154  0.0776  0.3894 -0.0252
  150OSM    H9S16633   7.010   3.771   3.147 -1.1036 -1.2309  1.3868
  150OSM    H9T16634   6.842   3.771   3.171  1.1921 -0.8602  0.3860
  150OSM   C10S16635   6.943   3.923   3.279 -0.5907 -0.0918 -0.4707
  150OSM   H10S16636   6.850   3.968   3.321 -2.4523 -2.5268 -1.7448
  150OSM   H10T16637   7.011   4.007   3.252  0.8598 -1.3922 -0.9844
  150OSM   C11S16638   7.003   3.842   3.390 -0.3040 -0.3551 -0.6175
  150OSM   H11S16639   7.111   3.852   3.366 -0.1461  1.0675  0.5100
  150OSM   H11T16640   6.969   3.737   3.393 -1.2303 -0.0644  2.4123
  150OSM   C12S16641   6.977   3.908   3.523  0.2933 -0.0253  0.3615
  150OSM   H12S16642   6.868   3.916   3.539  0.2176  0.7102 -0.4026
  150OSM   H12T16643   7.014   4.013   3.524 -2.5597  1.1008  3.1863
  150OSM   C13S16644   7.039   3.838   3.639  0.4789  0.9547 -0.4193
  150OSM   H13S16645   7.150   3.829   3.639  0.4028 -0.0898 -0.5974
  150OSM   H13T16646   6.995   3.736   3.640 -0.5228  1.2680  2.9384
  150OSM   C14S16647   7.004   3.902   3.777  0.0875  0.0950  0.0522
  150OSM   H14S16648   6.902   3.945   3.790 -0.1436  0.6575 -2.8518
  150OSM   H14T16649   7.076   3.986   3.785  0.5030  0.1163 -2.8409
  150OSM   C15S16650   7.034   3.804   3.888 -0.0029  0.1555 -0.7108
  150OSM   H15S16651   7.142   3.781   3.894 -0.4461 -1.9528  0.0512
  150OSM   H15T16652   6.975   3.715   3.857 -0.4347  0.0467  0.3673
  150OSM   C16S16653   6.990   3.843   4.024  0.3797  0.0993 -0.0672
  150OSM   H16S16654   6.880   3.829   4.034  0.5237 -1.9760 -0.9575
  150OSM   H16T16655   7.011   3.951   4.041  2.3647 -0.1010 -0.9511
  150OSM   C17S16656   7.059   3.759   4.129 -0.1088  0.9059 -0.6984
  150OSM   H17S16657   7.168   3.745   4.116  0.2669 -0.5953  2.8052
  150OSM   H17T16658   7.005   3.662   4.128 -2.6242  2.0120  2.9034
  150OSM   C18S16659   7.051   3.818   4.268  0.9626 -0.3571  0.0713
  150OSM   H18S16660   7.112   3.757   4.339 -0.9293 -3.0055 -0.4158
  150OSM   H18T16661   6.942   3.817   4.290  0.5823  0.3388 -1.6258
  150OSM   H18U16662   7.068   3.928   4.261  0.7253 -0.3674 -0.7079
  150OSM    C1F16663   7.006   3.314   2.566 -0.1260  0.1347  0.4846
  150OSM     OF16664   7.100   3.334   2.486 -0.2113  0.3421 -0.1221
  150OSM    C2F16665   6.996   3.204   2.664  0.3426 -0.1580 -0.0759
  150OSM    H2F16666   6.973   3.104   2.622 -0.8830 -0.4870  1.2852
  150OSM    H2G16667   6.912   3.225   2.734  0.0354  1.0066 -0.7676
  150OSM    C3F16668   7.133   3.188   2.739  0.4792  0.4598  0.0743
  150OSM    H3F16669   7.146   3.275   2.807 -2.0505  0.4483  0.6817
  150OSM    H3G16670   7.222   3.183   2.673 -0.3130  2.3993 -1.2118
  150OSM    C4F16671   7.123   3.056   2.819  0.4495  0.3176  0.5258
  150OSM    H4F16672   7.139   2.963   2.760 -0.5579  0.6891 -0.3817
  150OSM    H4G16673   7.017   3.046   2.849  0.1424 -1.1087 -0.9252
  150OSM    C5F16674   7.203   3.047   2.946  0.5533  0.0707 -0.4064
  150OSM    H5F16675   7.165   3.135   3.002  1.9125 -0.1681  0.9332
  150OSM    H5G16676   7.312   3.038   2.927  0.0257 -2.7834 -2.7319
  150OSM    C6F16677   7.174   2.918   3.030  0.3228 -0.2059  0.0269
  150OSM    H6F16678   7.165   2.832   2.960  1.2524 -0.0901 -0.2573
  150OSM    H6G16679   7.075   2.938   3.076  0.2968  0.4194 -0.2998
  150OSM    C7F16680   7.279   2.911   3.140  0.6911 -0.1032 -0.5090
  150OSM    H7F16681   7.383   2.911   3.101  0.7982 -0.0846 -0.2266
  150OSM    H7G16682   7.262   2.817   3.198  0.4606  0.4247  0.2966
  150OSM    C8F16683   7.259   3.022   3.251 -0.0667 -0.4906 -0.2424
  150OSM    H8F16684   7.153   3.013   3.283  0.5000  0.0853  1.9839
  150OSM    H8G16685   7.255   3.121   3.202 -0.9346  0.5612  1.8384
  150OSM    C9F16686   7.366   3.015   3.357 -0.3225 -0.4709  0.0569
  150OSM    H9F16687   7.461   3.052   3.318 -0.9175  0.8371 -0.2042
  150OSM   C10F16688   7.368   2.962   3.484 -0.2295  0.4192  0.1959
  150OSM   H10F16689   7.456   2.989   3.545  0.5795  1.7834 -1.4879
  150OSM   C11F16690   7.258   2.902   3.554 -0.0355 -0.2472  0.4050
  150OSM   H11F16691   7.261   2.793   3.538 -0.0494  0.0462 -1.8729
  150OSM   H11G16692   7.162   2.944   3.515  0.3235 -1.0076 -1.3884
  150OSM   C12F16693   7.266   2.942   3.702 -0.0756 -0.0739 -0.5270
  150OSM   H12F16694   7.353   2.899   3.755 -1.2738 -0.7983  0.9304
  150OSM   H12G16695   7.175   2.904   3.753 -0.5004  1.8796  0.2703
  150OSM   C13F16696   7.268   3.096   3.732 -0.1460  0.6008 -0.9412
  150OSM   H13F16697   7.215   3.150   3.651  1.0335  1.1102 -1.4029
  150OSM   H13G16698   7.374   3.130   3.737  1.4411 -3.5928 -1.2220
  150OSM   C14F16699   7.207   3.122   3.871  0.4294 -0.4237 -0.0875
  150OSM   H14F16700   7.115   3.060   3.873 -1.3386  2.0014 -1.2133
  150OSM   H14G16701   7.172   3.227   3.883  0.4925 -0.4995  0.8154
  150OSM   C15F16702   7.296   3.090   3.997 -0.0245 -0.5094  0.8619
  150OSM   H15F16703   7.382   3.156   4.018  1.8118 -2.2009 -0.8383
  150OSM   H15G16704   7.336   2.987   3.982 -1.6500 -0.7986 -2.5612
  150OSM   C16F16705   7.223   3.104   4.134  0.2375  0.6495  0.1510
  150OSM   H16F16706   7.175   3.203   4.152 -1.1569 -0.1710  1.1045
  150OSM   H16G16707   7.295   3.091   4.218 -1.4426 -1.1182  1.3879
  150OSM   C17F16708   7.115   3.002   4.154 -0.2287  0.3474 -0.5152
  150OSM   H17F16709   7.135   2.906   4.102 -2.6119 -0.4125 -0.1589
  150OSM   H17G16710   7.032   3.046   4.095  0.0017 -0.5465 -1.5453
  150OSM   C18F16711   7.083   2.966   4.303  0.0715  0.3780 -0.3470
  150OSM   H18F16712   7.179   2.928   4.344 -0.9017 -1.5999  0.2237
  150OSM   H18G16713   7.011   2.883   4.319  0.4532  0.0537 -0.3185
  150OSM   H18H16714   7.058   3.051   4.371  0.3704 -0.4299  0.8020
  151OSM      N16715   6.795   2.610   2.186  0.0421  0.2104 -0.3593
  151OSM    C1516716   6.891   2.616   2.061  0.4354 -0.1550 -0.0983
  151OSM   H15A16717   6.996   2.622   2.083  0.6727 -0.2507 -1.1755
  151OSM   H15B16718   6.857   2.700   2.002  0.6956  0.0856  0.0896
  151OSM   H15C16719   6.882   2.520   2.014  1.5209  0.9258 -2.7358
  151OSM    C1416720   6.789   2.744   2.250 -0.5207 -0.1518  0.1593
  151OSM   H14A16721   6.763   2.817   2.175  0.4502 -0.0174 -0.0534
  151OSM   H14B16722   6.884   2.769   2.294 -0.5502  0.5408 -0.1677
  151OSM   H14C16723   6.719   2.742   2.332 -1.8444 -1.5236 -0.9220
  151OSM    C1316724   6.662   2.571   2.136 -0.2053 -0.1654 -0.4595
  151OSM   H13A16725   6.676   2.481   2.078 -2.2100 -0.2572 -0.8821
  151OSM   H13B16726   6.631   2.642   2.061 -2.2220  0.6399  1.0304
  151OSM   H13C16727   6.581   2.561   2.207  1.1179 -0.5478  1.0653
  151OSM    C1216728   6.855   2.513   2.287 -0.4575 -0.3773  0.0536
  151OSM   H12A16729   6.862   2.416   2.239 -0.6243  1.1537 -3.4195
  151OSM   H12B16730   6.782   2.492   2.364 -0.5468  2.5444  0.8864
  151OSM    C1116731   6.995   2.547   2.347 -0.3836  0.5715 -0.1362
  151OSM   H11A16732   7.008   2.477   2.432 -0.5079 -2.3605 -2.3839
  151OSM   H11B16733   6.999   2.654   2.377  2.0792 -0.2978  3.1815
  151OSM      P16734   7.147   2.377   2.220 -0.0038  0.5066 -0.2011
  151OSM    O1316735   7.023   2.306   2.184 -0.5168  0.4218  0.6202
  151OSM    O1416736   7.258   2.379   2.128 -0.3874  0.5129 -0.1609
  151OSM    O1116737   7.199   2.327   2.358 -0.5369 -0.3172  0.0132
  151OSM    O1216738   7.107   2.532   2.252  0.4001 -0.0984 -0.2430
  151OSM    C1S16739   7.304   2.409   2.428  0.5251 -0.1894 -0.2525
  151OSM    H1S16740   7.290   2.519   2.419 -0.6516 -0.1196  1.6970
  151OSM    H1T16741   7.401   2.384   2.381 -0.1533  0.5438 -2.1261
  151OSM     NF16742   7.409   2.464   2.650  0.4095  0.2196 -0.2142
  151OSM    HNF16743   7.501   2.425   2.652  0.6044  0.7051  0.8279
  151OSM    C2S16744   7.307   2.377   2.578 -0.0450  0.1858 -0.7497
  151OSM    H2S16745   7.209   2.405   2.623  0.4585 -0.1648  0.6223
  151OSM    C3S16746   7.339   2.229   2.594 -0.1340  0.0205 -0.3137
  151OSM    H3S16747   7.445   2.217   2.563 -0.5505 -2.1041 -1.0951
  151OSM     O316748   7.260   2.139   2.518  0.0978 -0.1978 -0.2447
  151OSM    HO316749   7.202   2.198   2.469 -0.6948 -0.2929  0.5646
  151OSM    C4S16750   7.335   2.206   2.743  0.2371 -0.3348 -0.2500
  151OSM    H4S16751   7.432   2.231   2.788  0.7389 -0.2332 -1.3824
  151OSM    C5S16752   7.240   2.143   2.818  0.4561  0.0599 -0.0683
  151OSM    H5S16753   7.146   2.112   2.771 -0.1906  1.6487  0.1438
  151OSM    C6S16754   7.238   2.128   2.967 -0.2442  0.6566 -1.3992
  151OSM    H6S16755   7.232   2.020   2.992  0.5462  0.8414 -0.3423
  151OSM    H6T16756   7.143   2.168   3.009  0.8156  0.7428  1.0738
  151OSM    C7S16757   7.360   2.201   3.028  0.4079 -0.1014 -0.3114
  151OSM    H7S16758   7.362   2.311   3.016  2.3918  0.1719  1.6844
  151OSM    H7T16759   7.453   2.158   2.986  1.6638  1.6667  0.5484
  151OSM    C8S16760   7.372   2.196   3.182  0.0935  0.5121 -0.2691
  151OSM    H8S16761   7.277   2.223   3.233  0.8185  0.8874  0.9089
  151OSM    H8T16762   7.445   2.274   3.212 -2.0994  3.3375 -1.7780
  151OSM    C9S16763   7.422   2.062   3.238 -0.5440 -0.2298 -0.4178
  151OSM    H9S16764   7.518   2.032   3.192  1.4404  0.9142  2.6401
  151OSM    H9T16765   7.350   1.981   3.213  0.6629 -1.9424  1.3276
  151OSM   C10S16766   7.475   2.081   3.385  0.7451 -0.1477 -0.2185
  151OSM   H10S16767   7.550   2.161   3.404  1.9765 -1.4731  0.7660
  151OSM   H10T16768   7.523   1.986   3.419  1.4590 -0.5409 -2.2090
  151OSM   C11S16769   7.353   2.098   3.474  0.6022  0.0998 -0.2573
  151OSM   H11S16770   7.273   2.032   3.436  1.0668 -1.4479  1.3526
  151OSM   H11T16771   7.317   2.203   3.469  1.5864  0.5099  0.8893
  151OSM   C12S16772   7.372   2.053   3.617 -0.2910 -0.3673  0.1562
  151OSM   H12S16773   7.452   2.119   3.658 -3.1645  2.2232  2.1019
  151OSM   H12T16774   7.409   1.949   3.623 -1.0103 -0.5847  1.1968
  151OSM   C13S16775   7.237   2.067   3.689  0.0398  0.2777  0.1508
  151OSM   H13S16776   7.172   1.985   3.651  0.7393 -0.6918  0.9873
  151OSM   H13T16777   7.205   2.172   3.672 -3.1884 -0.4505  0.9869
  151OSM   C14S16778   7.251   2.059   3.844 -0.4265  0.5100 -0.4174
  151OSM   H14S16779   7.336   2.119   3.881 -0.5232  0.9006 -0.8170
  151OSM   H14T16780   7.271   1.951   3.864 -1.0178  0.5749  0.5612
  151OSM   C15S16781   7.126   2.096   3.913  0.2103  0.5393 -0.0165
  151OSM   H15S16782   7.027   2.051   3.891 -0.1252  0.4796  1.4627
  151OSM   H15T16783   7.108   2.204   3.892 -0.5275  0.5073  0.4095
  151OSM   C16S16784   7.146   2.083   4.068 -0.7824  0.0616  0.3424
  151OSM   H16S16785   7.062   2.125   4.129  0.1235 -1.7861  3.0321
  151OSM   H16T16786   7.236   2.142   4.098  1.6036 -4.3742  2.9270
  151OSM   C17S16787   7.168   1.942   4.122 -0.0581 -0.1629 -0.0424
  151OSM   H17S16788   7.260   1.894   4.082  0.6124 -1.4531  2.8589
  151OSM   H17T16789   7.087   1.874   4.090 -0.6396  0.6434 -0.3233
  151OSM   C18S16790   7.166   1.932   4.276 -0.0257 -0.0176 -0.1407
  151OSM   H18S16791   7.066   1.958   4.317 -0.5172 -2.0296  0.0359
  151OSM   H18T16792   7.239   2.010   4.307 -0.6214  0.1036  1.0133
  151OSM   H18U16793   7.190   1.829   4.310 -1.2513 -0.7886 -1.4978
  151OSM    C1F16794   7.382   2.593   2.680 -0.0686 -0.3058 -0.5960
  151OSM     OF16795   7.274   2.645   2.650  0.9557  0.1510 -0.2127
  151OSM    C2F16796   7.490   2.675   2.735 -0.5061 -0.0516 -0.2379
  151OSM    H2F16797   7.442   2.771   2.763  2.2082  1.7466 -1.3375
  151OSM    H2G16798   7.556   2.702   2.650 -0.7686  0.3052 -0.3326
  151OSM    C3F16799   7.569   2.619   2.853  0.5161  0.2445  0.0772
  151OSM    H3F16800   7.666   2.671   2.861  1.1390 -0.5488 -1.7790
  151OSM    H3G16801   7.593   2.512   2.832  0.4041  0.0416  0.9552
  151OSM    C4F16802   7.504   2.639   2.983 -0.1652 -0.1394 -0.7472
  151OSM    H4F16803   7.412   2.577   2.974 -0.4016 -0.1500  1.2526
  151OSM    H4G16804   7.478   2.744   3.008  0.2556 -0.3885  0.8512
  151OSM    C5F16805   7.574   2.574   3.102  0.8685  0.8261 -0.0657
  151OSM    H5F16806   7.676   2.617   3.108  0.0465  2.8842 -0.0273
  151OSM    H5G16807   7.601   2.471   3.071 -1.4483  0.5621 -1.4117
  151OSM    C6F16808   7.497   2.567   3.235  0.2692  0.1538  1.4473
  151OSM    H6F16809   7.408   2.501   3.225  1.0769 -0.9508  1.3215
  151OSM    H6G16810   7.470   2.673   3.253 -0.1765  0.8384 -2.2670
  151OSM    C7F16811   7.592   2.509   3.339 -0.0699 -0.4277  0.0269
  151OSM    H7F16812   7.695   2.552   3.335 -0.5032  0.7026  0.6855
  151OSM    H7G16813   7.607   2.402   3.314 -0.0535 -0.3513 -0.2976
  151OSM    C8F16814   7.518   2.522   3.475  0.3080  0.8328 -0.3804
  151OSM    H8F16815   7.415   2.481   3.468  0.4000  0.2253  1.3726
  151OSM    H8G16816   7.511   2.628   3.508 -0.9292  0.8096 -0.5268
  151OSM    C9F16817   7.591   2.455   3.585  0.4818  0.2047 -0.6694
  151OSM    H9F16818   7.699   2.441   3.572  0.7519 -0.3709  1.8151
  151OSM   C10F16819   7.528   2.396   3.693 -0.0622  1.1452  0.0854
  151OSM   H10F16820   7.596   2.341   3.760  0.9571  1.6131 -0.5456
  151OSM   C11F16821   7.381   2.414   3.734  0.1179  0.0128 -0.6591
  151OSM   H11F16822   7.330   2.315   3.730  0.0410 -0.1157  2.1003
  151OSM   H11G16823   7.328   2.482   3.664 -0.2379 -2.2794 -2.7687
  151OSM   C12F16824   7.362   2.471   3.876  0.8522 -0.0096  0.4867
  151OSM   H12F16825   7.421   2.403   3.942 -2.1273 -1.9788  1.3486
  151OSM   H12G16826   7.255   2.456   3.900  0.4991  0.8101 -0.4946
  151OSM   C13F16827   7.388   2.616   3.902  0.9091 -0.5861 -0.2921
  151OSM   H13F16828   7.337   2.677   3.825 -1.1044 -2.7786 -0.7891
  151OSM   H13G16829   7.497   2.639   3.900  0.4501  1.7326 -1.7097
  151OSM   C14F16830   7.333   2.673   4.044 -0.0719  0.8528 -0.0491
  151OSM   H14F16831   7.226   2.703   4.044 -0.2966  0.1162  1.1950
  151OSM   H14G16832   7.390   2.767   4.064 -0.2656  0.7681  0.9555
  151OSM   C15F16833   7.363   2.571   4.157 -0.5471 -0.5209  0.1991
  151OSM   H15F16834   7.471   2.543   4.156 -0.7970 -1.5572  0.9450
  151OSM   H15G16835   7.300   2.481   4.143  0.3926 -1.1484 -0.1253
  151OSM   C16F16836   7.350   2.642   4.288 -0.2043  0.5913 -0.0239
  151OSM   H16F16837   7.343   2.564   4.366 -1.5716  0.8463  0.1329
  151OSM   H16G16838   7.259   2.705   4.297 -0.6955 -0.4009  3.0437
  151OSM   C17F16839   7.467   2.743   4.326 -0.5512 -0.2710 -0.1733
  151OSM   H17F16840   7.420   2.800   4.408  0.3593 -0.0980  0.2356
  151OSM   H17G16841   7.487   2.816   4.245 -1.1994 -1.4944 -1.4975
  151OSM   C18F16842   7.597   2.693   4.374  0.7391 -0.3606  0.0688
  151OSM   H18F16843   7.673   2.662   4.299 -1.4612 -0.0218 -2.4564
  151OSM   H18G16844   7.583   2.606   4.442  1.0613 -0.5133 -0.0537
  151OSM   H18H16845   7.659   2.765   4.433 -0.1074  1.5428 -1.2525
  152OSM      N16846   1.709   5.046   2.116 -0.2869  0.2627  0.8156
  152OSM    C1516847   1.617   4.978   2.017  0.0695 -0.1150  0.6395
  152OSM   H15A16848   1.556   5.059   1.979  0.4553 -0.5174 -0.9015
  152OSM   H15B16849   1.549   4.914   2.070  0.2414 -0.3816  0.5399
  152OSM   H15C16850   1.673   4.927   1.939  0.8499  2.9139 -0.9579
  152OSM    C1416851   1.780   5.156   2.045  0.0338  0.0275 -0.0702
  152OSM   H14A16852   1.844   5.129   1.962  1.8001  0.1388  1.2087
  152OSM   H14B16853   1.853   5.209   2.104  0.6820 -2.4717  1.4818
  152OSM   H14C16854   1.708   5.226   2.003 -0.4109 -1.2521 -1.5434
  152OSM    C1316855   1.632   5.089   2.233 -0.3266 -0.4556  0.0604
  152OSM   H13A16856   1.700   5.124   2.309  2.5376  2.0958 -3.3236
  152OSM   H13B16857   1.571   5.004   2.260 -0.0856 -0.3257  1.0423
  152OSM   H13C16858   1.555   5.161   2.207  0.2795  0.9520  1.9546
  152OSM    C1216859   1.808   4.934   2.164 -0.0241  0.0282  0.2761
  152OSM   H12A16860   1.745   4.850   2.189 -1.8391  1.7295  1.6617
  152OSM   H12B16861   1.861   4.977   2.248  0.0355  1.5813 -0.5298
  152OSM    C1116862   1.919   4.892   2.070  0.6545 -0.2003  0.2550
  152OSM   H11A16863   1.989   4.830   2.130  1.8646 -1.4264 -2.2812
  152OSM   H11B16864   1.978   4.977   2.029 -0.5391  0.0867 -0.9196
  152OSM      P16865   1.804   4.663   2.001 -0.0065  0.0130 -0.0694
  152OSM    O1316866   1.670   4.643   1.940 -0.3414 -0.0923  0.2144
  152OSM    O1416867   1.910   4.569   1.957  0.0979 -0.1618  0.0981
  152OSM    O1116868   1.785   4.661   2.161 -0.8261  0.0595  0.5058
  152OSM    O1216869   1.855   4.814   1.966 -0.5995 -0.0573 -0.2284
  152OSM    C1S16870   1.892   4.605   2.246 -0.7142  0.6701 -0.0227
  152OSM    H1S16871   1.964   4.686   2.271  2.2271 -1.2957 -1.6102
  152OSM    H1T16872   1.953   4.524   2.201  0.1915  0.5077  1.4208
  152OSM     NF16873   1.955   4.507   2.454 -0.1012  0.4873 -0.2408
  152OSM    HNF16874   1.986   4.413   2.440 -1.2873 -0.4133  2.4992
  152OSM    C2S16875   1.840   4.551   2.382 -0.1129  0.1770  0.1300
  152OSM    H2S16876   1.789   4.642   2.422  0.2862  0.4541  0.0205
  152OSM    C3S16877   1.733   4.447   2.363 -0.6167  0.1290  0.3079
  152OSM    H3S16878   1.766   4.355   2.310  0.8339  0.4729  0.5583
  152OSM     O316879   1.620   4.499   2.295  0.4909 -0.0431  0.4093
  152OSM    HO316880   1.651   4.583   2.260  1.3906 -0.3480  0.4452
  152OSM    C4S16881   1.692   4.394   2.496  0.1038  0.0754  0.1975
  152OSM    H4S16882   1.736   4.295   2.519 -2.0553 -0.9532  0.1731
  152OSM    C5S16883   1.608   4.450   2.583 -0.0903  0.8594 -0.2724
  152OSM    H5S16884   1.579   4.554   2.562  1.7069  1.4347 -0.0158
  152OSM    C6S16885   1.568   4.399   2.720 -0.4683  0.4768 -0.5134
  152OSM    H6S16886   1.626   4.311   2.754  0.0327  0.5595 -1.1337
  152OSM    H6T16887   1.463   4.361   2.718 -0.9686  1.6420  1.2696
  152OSM    C7S16888   1.559   4.502   2.836 -0.0740 -0.6798 -0.2406
  152OSM    H7S16889   1.480   4.572   2.799 -1.7454 -2.5299 -0.3177
  152OSM    H7T16890   1.662   4.545   2.833 -1.3511  2.7746  0.5449
  152OSM    C8S16891   1.529   4.442   2.978  0.1166 -0.6246 -0.3000
  152OSM    H8S16892   1.610   4.371   3.004 -0.3389  0.0431  3.4024
  152OSM    H8T16893   1.432   4.390   2.994 -0.0295  0.0645  1.2102
  152OSM    C9S16894   1.546   4.542   3.092  0.3927  0.6653  0.1888
  152OSM    H9S16895   1.497   4.640   3.070  0.5672  1.1137  1.6908
  152OSM    H9T16896   1.655   4.563   3.103  0.6016 -0.4836  0.3784
  152OSM   C10S16897   1.503   4.486   3.234  0.3136  0.0295 -0.3985
  152OSM   H10S16898   1.552   4.387   3.248 -2.1002 -1.1832  0.0651
  152OSM   H10T16899   1.394   4.465   3.233  0.1337  0.8926  0.1914
  152OSM   C11S16900   1.538   4.580   3.351 -0.4501  0.4529  0.4314
  152OSM   H11S16901   1.494   4.680   3.329 -3.8344 -0.9253  0.3075
  152OSM   H11T16902   1.649   4.582   3.357 -0.2693 -2.0704 -0.7897
  152OSM   C12S16903   1.483   4.515   3.485 -0.7107 -0.7986  0.0888
  152OSM   H12S16904   1.530   4.415   3.496  1.2053 -0.1350 -1.5306
  152OSM   H12T16905   1.372   4.502   3.480 -0.8588  0.3548  0.0824
  152OSM   C13S16906   1.532   4.584   3.616 -0.1134 -0.2530  0.3308
  152OSM   H13S16907   1.496   4.541   3.712  0.8944 -1.4078  0.2040
  152OSM   H13T16908   1.512   4.693   3.613 -3.7173 -0.7692  0.1748
  152OSM   C14S16909   1.685   4.572   3.640  0.4470  0.1277  0.3467
  152OSM   H14S16910   1.732   4.610   3.547  2.0453  2.1516  1.8752
  152OSM   H14T16911   1.709   4.464   3.650  0.3188  0.0636 -0.0063
  152OSM   C15S16912   1.735   4.666   3.751  0.3456  1.5939 -0.6778
  152OSM   H15S16913   1.719   4.774   3.729  0.3406  1.7803  0.1927
  152OSM   H15T16914   1.843   4.643   3.766 -0.1581  0.0796  1.0217
  152OSM   C16S16915   1.663   4.646   3.884  0.5399 -0.2955 -0.3554
  152OSM   H16S16916   1.645   4.537   3.899 -1.1783  0.1414  1.0462
  152OSM   H16T16917   1.560   4.686   3.880  0.0108 -1.2171  2.1741
  152OSM   C17S16918   1.748   4.708   4.007 -0.2740  0.6459 -0.4906
  152OSM   H17S16919   1.763   4.815   3.980 -3.9755  2.2406  2.8413
  152OSM   H17T16920   1.846   4.660   4.022 -0.7666  0.2466  1.7792
  152OSM   C18S16921   1.678   4.693   4.144  0.0519 -0.0581  0.0858
  152OSM   H18S16922   1.713   4.784   4.199 -1.3783  0.3079  0.4201
  152OSM   H18T16923   1.687   4.595   4.194 -1.2346 -0.2065  0.0419
  152OSM   H18U16924   1.569   4.709   4.141 -0.4014 -2.0534  2.7169
  152OSM    C1F16925   2.033   4.590   2.517 -0.3483  0.3817  0.0567
  152OSM     OF16926   2.026   4.713   2.512  0.1290 -0.6300  0.1953
  152OSM    C2F16927   2.134   4.531   2.607 -0.2815  0.2536 -0.0323
  152OSM    H2F16928   2.192   4.612   2.657 -0.0863  1.0434 -1.4722
  152OSM    H2G16929   2.197   4.468   2.540 -1.0408  0.5744 -1.0784
  152OSM    C3F16930   2.069   4.438   2.709 -0.1842 -0.2215  0.6379
  152OSM    H3F16931   2.148   4.381   2.762  1.1440  0.7066 -0.2918
  152OSM    H3G16932   1.999   4.364   2.664 -0.6946  0.0532  0.9651
  152OSM    C4F16933   1.996   4.522   2.814  0.7610  0.0032  0.1648
  152OSM    H4F16934   1.907   4.566   2.764  0.9051  2.0683  1.6107
  152OSM    H4G16935   2.052   4.608   2.855  0.8345 -0.7565  1.7259
  152OSM    C5F16936   1.936   4.440   2.929 -0.0416 -0.9422 -0.1176
  152OSM    H5F16937   1.894   4.345   2.890 -0.4165 -0.4877 -0.8362
  152OSM    H5G16938   1.859   4.504   2.976  1.0150 -0.5199  1.1128
  152OSM    C6F16939   2.034   4.420   3.034  0.0373  0.1611 -0.6382
  152OSM    H6F16940   2.057   4.518   3.083 -1.4058 -1.3523  3.4752
  152OSM    H6G16941   2.121   4.360   3.000 -0.2240 -0.2127 -0.6474
  152OSM    C7F16942   1.979   4.348   3.163  0.7564  0.4785 -0.3082
  152OSM    H7F16943   1.928   4.253   3.134  3.9027 -1.4294 -0.0316
  152OSM    H7G16944   1.894   4.411   3.198  0.1177 -0.2460 -0.5273
  152OSM    C8F16945   2.085   4.309   3.266 -0.1756 -0.6256 -0.1229
  152OSM    H8F16946   2.165   4.248   3.219 -0.1508 -0.3057 -0.5024
  152OSM    H8G16947   2.041   4.242   3.343 -0.8017 -0.2307 -0.1317
  152OSM    C9F16948   2.149   4.427   3.332  0.8726 -0.8218  1.0387
  152OSM    H9F16949   2.231   4.463   3.268 -1.0999 -2.5570 -2.7870
  152OSM   C10F16950   2.115   4.473   3.452  0.0517  0.2341 -0.0352
  152OSM   H10F16951   2.177   4.553   3.495  1.0766 -0.8351  0.5274
  152OSM   C11F16952   2.011   4.415   3.542  0.0513  0.4828 -0.5234
  152OSM   H11F16953   1.972   4.318   3.503  1.7537 -1.3057  1.8803
  152OSM   H11G16954   1.935   4.495   3.550 -0.0942  0.3313 -0.3661
  152OSM   C12F16955   2.065   4.380   3.687 -0.6831  0.1544  0.1263
  152OSM   H12F16956   2.131   4.291   3.687  2.5914  2.4079 -0.3673
  152OSM   H12G16957   1.979   4.359   3.754 -1.5074  1.8340 -0.3480
  152OSM   C13F16958   2.140   4.502   3.741 -0.3500 -0.0564 -0.4993
  152OSM   H13F16959   2.058   4.573   3.764 -0.1806 -0.2293  0.7645
  152OSM   H13G16960   2.218   4.546   3.675  0.1098  0.9128  0.6354
  152OSM   C14F16961   2.210   4.482   3.877  0.9349 -0.4902  0.3179
  152OSM   H14F16962   2.258   4.577   3.908 -1.8030  0.6756  1.2701
  152OSM   H14G16963   2.287   4.402   3.886  1.1269 -0.3205  0.2067
  152OSM   C15F16964   2.112   4.450   3.987 -0.2553  1.2572  0.6553
  152OSM   H15F16965   2.063   4.351   3.972 -1.4071  2.3000 -3.8845
  152OSM   H15G16966   2.031   4.526   3.986 -1.2093  0.2602 -0.0773
  152OSM   C16F16967   2.176   4.435   4.132 -0.0580  0.2788  0.5726
  152OSM   H16F16968   2.102   4.434   4.215 -0.2252 -1.6332  0.4449
  152OSM   H16G16969   2.248   4.517   4.153  0.9650  0.6079 -3.4072
  152OSM   C17F16970   2.269   4.311   4.151  0.1887 -0.5042  0.7952
  152OSM   H17F16971   2.350   4.309   4.074 -0.7932  1.5060 -0.3631
  152OSM   H17G16972   2.203   4.223   4.135 -0.4983  0.3057 -1.0482
  152OSM   C18F16973   2.345   4.299   4.287  0.1274 -0.5036  0.3962
  152OSM   H18F16974   2.381   4.401   4.314  0.3076  0.0091 -1.6351
  152OSM   H18G16975   2.432   4.230   4.287  1.3186  0.8172 -2.8218
  152OSM   H18H16976   2.263   4.280   4.359  0.2508 -0.0585  0.6598
  153OSM      N16977   2.248   4.038   1.948  0.5689 -0.4722  0.4301
  153OSM    C1516978   2.100   4.065   1.971  0.4388 -0.2195  0.2480
  153OSM   H15A16979   2.043   3.976   1.991  2.0297 -1.1431  0.8579
  153OSM   H15B16980   2.066   4.116   1.881  3.9677  1.7664 -0.1447
  153OSM   H15C16981   2.087   4.134   2.052  0.9988  1.4642 -1.0306
  153OSM    C1416982   2.267   3.950   1.833  1.0044 -0.0473  0.4854
  153OSM   H14A16983   2.371   3.931   1.811  0.5598 -1.9510 -0.1444
  153OSM   H14B16984   2.221   3.991   1.744  1.3048  1.2802  0.9205
  153OSM   H14C16985   2.216   3.857   1.853  2.0251 -0.5269  0.9226
  153OSM    C1316986   2.307   4.172   1.924 -0.7677 -0.0584  0.4455
  153OSM   H13A16987   2.317   4.220   2.020  1.4785 -2.7976  1.7092
  153OSM   H13B16988   2.239   4.236   1.870 -1.1856  0.2127  1.2772
  153OSM   H13C16989   2.403   4.174   1.875 -0.2628  0.0039  1.4095
  153OSM    C1216990   2.307   3.965   2.065 -0.6149 -0.4623  0.5896
  153OSM   H12A16991   2.413   3.957   2.045 -0.5903  2.2527 -0.9060
  153OSM   H12B16992   2.278   3.861   2.056  1.1886 -0.8542 -1.9257
  153OSM    C1116993   2.293   4.017   2.213  0.1512 -0.0988  1.0816
  153OSM   H11A16994   2.331   4.122   2.206 -3.0604  1.1464  0.4626
  153OSM   H11B16995   2.372   3.961   2.269 -1.4250 -1.7105  1.7763
  153OSM      P16996   2.096   3.859   2.282  0.2292  0.0418  0.3110
  153OSM    O1316997   1.987   3.867   2.186  0.5845  0.3583  0.2301
  153OSM    O1416998   2.198   3.753   2.276 -0.1277 -0.0427  0.4604
  153OSM    O1116999   2.033   3.863   2.425 -0.2563  0.2328 -0.1718
  153OSM    O1217000   2.163   4.001   2.270 -0.3950 -0.0631 -0.1016
  153OSM    C1S17001   2.116   3.906   2.533 -0.1054 -0.4290 -0.0780
  153OSM    H1S17002   2.198   3.975   2.507 -0.7837  0.4918  0.1709
  153OSM    H1T17003   2.161   3.814   2.576  0.6545  0.5370  1.2758
  153OSM     NF17004   2.133   4.015   2.750  0.3273  0.4239 -0.6859
  153OSM    HNF17005   2.129   3.974   2.841 -4.4871  0.6579 -0.5554
  153OSM    C2S17006   2.039   3.979   2.649 -0.0914  0.4232  0.4586
  153OSM    H2S17007   1.997   4.074   2.607 -0.7875 -0.0422  0.0661
  153OSM    C3S17008   1.914   3.897   2.702 -0.6210  0.2169  0.9015
  153OSM    H3S17009   1.964   3.805   2.737  0.5322  1.8577  3.9501
  153OSM     O317010   1.830   3.860   2.595  0.2766  0.2487 -0.0576
  153OSM    HO317011   1.885   3.871   2.517 -2.4264  1.2417 -1.9483
  153OSM    C4S17012   1.837   3.955   2.816 -0.0382  0.4658 -0.2134
  153OSM    H4S17013   1.827   3.878   2.893  1.3502 -0.0641 -0.5326
  153OSM    C5S17014   1.778   4.072   2.830  0.1553  0.4635 -0.6694
  153OSM    H5S17015   1.777   4.153   2.755  0.9275  0.4174 -0.7362
  153OSM    C6S17016   1.699   4.107   2.954  0.0338 -0.3295  0.5866
  153OSM    H6S17017   1.593   4.128   2.928  0.6133  1.1378 -0.8092
  153OSM    H6T17018   1.736   4.202   3.000  0.5856 -1.4684  2.6223
  153OSM    C7S17019   1.681   4.000   3.065 -0.1401  0.1217 -0.9745
  153OSM    H7S17020   1.778   3.959   3.102 -0.5560  0.2572  0.3130
  153OSM    H7T17021   1.631   3.910   3.025 -1.5832 -1.1895  3.2644
  153OSM    C8S17022   1.583   4.048   3.179  0.3195  0.2513  0.7365
  153OSM    H8S17023   1.482   4.023   3.141  0.2092  0.1647  1.0834
  153OSM    H8T17024   1.581   4.158   3.191 -1.6077  0.2226  0.9147
  153OSM    C9S17025   1.599   3.990   3.325  0.0654 -0.0567 -0.1987
  153OSM    H9S17026   1.660   3.897   3.320  0.9306  0.4912 -0.1487
  153OSM    H9T17027   1.498   3.965   3.363  0.4526 -1.5759 -0.1199
  153OSM   C10S17028   1.661   4.089   3.422  0.4281  0.0586  0.0207
  153OSM   H10S17029   1.592   4.176   3.429 -0.3441 -0.3914 -1.4259
  153OSM   H10T17030   1.758   4.134   3.394  0.4162  0.2872  0.3473
  153OSM   C11S17031   1.672   4.036   3.566  0.2497 -0.0439 -0.9236
  153OSM   H11S17032   1.759   3.968   3.581  0.3777  0.5380  1.3890
  153OSM   H11T17033   1.585   3.975   3.597  0.9385 -2.0155 -2.6350
  153OSM   C12S17034   1.688   4.156   3.661  0.2334 -0.5030 -0.5801
  153OSM   H12S17035   1.592   4.211   3.670  1.1253  0.8098  1.9869
  153OSM   H12T17036   1.762   4.230   3.625 -0.6257  0.6680 -0.0152
  153OSM   C13S17037   1.729   4.118   3.805 -0.1903  0.3875  0.7247
  153OSM   H13S17038   1.834   4.082   3.805 -0.3468 -0.2025 -1.4985
  153OSM   H13T17039   1.665   4.032   3.835  2.0260 -1.6443 -0.0714
  153OSM   C14S17040   1.721   4.239   3.900  0.4711 -0.0117  0.5390
  153OSM   H14S17041   1.621   4.286   3.883 -0.3543 -0.8334  2.7002
  153OSM   H14T17042   1.797   4.311   3.864  1.0964 -1.1488 -0.4695
  153OSM   C15S17043   1.737   4.215   4.054  0.2723 -0.0359 -0.4844
  153OSM   H15S17044   1.721   4.309   4.110 -0.1559 -2.1948  3.2994
  153OSM   H15T17045   1.833   4.160   4.068 -1.3275 -3.1399 -0.8344
  153OSM   C16S17046   1.617   4.129   4.109 -0.5596 -1.4116 -0.2132
  153OSM   H16S17047   1.626   4.031   4.058 -1.8768 -1.8059  0.2954
  153OSM   H16T17048   1.527   4.178   4.067  0.7596  0.8857 -0.5108
  153OSM   C17S17049   1.613   4.133   4.265  0.1974  0.8242 -0.2525
  153OSM   H17S17050   1.616   4.233   4.312 -0.0341  1.1824 -0.9898
  153OSM   H17T17051   1.707   4.083   4.299  0.2092 -0.0192 -1.4549
  153OSM   C18S17052   1.495   4.060   4.328 -0.6103  0.1190  0.2727
  153OSM   H18S17053   1.480   3.955   4.293  0.8454 -0.3956  1.1029
  153OSM   H18T17054   1.405   4.125   4.322  0.1331  1.0418 -1.8365
  153OSM   H18U17055   1.495   4.044   4.438 -1.9853 -0.8773  0.1561
  153OSM    C1F17056   2.230   4.105   2.730  0.2929 -0.3944 -0.0019
  153OSM     OF17057   2.230   4.174   2.627 -0.0036 -0.2920 -0.3790
  153OSM    C2F17058   2.330   4.140   2.846  0.1105 -0.2826  0.4117
  153OSM    H2F17059   2.334   4.055   2.917  3.2335  0.6596  1.5292
  153OSM    H2G17060   2.290   4.233   2.892 -1.3740 -0.8800  0.3928
  153OSM    C3F17061   2.480   4.152   2.794 -0.2893 -0.7198 -0.2327
  153OSM    H3F17062   2.485   4.232   2.717  1.4542 -2.0129 -1.5542
  153OSM    H3G17063   2.519   4.060   2.745  0.4165 -0.2407 -0.5922
  153OSM    C4F17064   2.567   4.190   2.915 -0.7014  0.0743 -0.3239
  153OSM    H4F17065   2.619   4.098   2.947 -1.0190  0.0553  0.1451
  153OSM    H4G17066   2.516   4.227   3.006  0.4610 -1.6437  1.0827
  153OSM    C5F17067   2.678   4.288   2.873  0.0758  0.7407 -0.2184
  153OSM    H5F17068   2.622   4.378   2.841  1.5131  1.6542 -0.2666
  153OSM    H5G17069   2.729   4.251   2.781  0.7254 -1.1299  0.8365
  153OSM    C6F17070   2.771   4.327   2.995  0.3276 -0.5631  0.5662
  153OSM    H6F17071   2.822   4.239   3.039  1.6524 -0.5836 -0.9135
  153OSM    H6G17072   2.701   4.382   3.062 -0.1329  0.1946 -0.4978
  153OSM    C7F17073   2.894   4.411   2.959  0.5683 -0.3403 -0.1283
  153OSM    H7F17074   2.842   4.501   2.919  1.0856 -0.2346 -0.5706
  153OSM    H7G17075   2.946   4.353   2.880 -1.0707 -1.3070 -0.5349
  153OSM    C8F17076   2.982   4.439   3.076  0.2487  0.3264  0.3654
  153OSM    H8F17077   3.067   4.503   3.044  2.2624 -2.1662  0.4601
  153OSM    H8G17078   3.029   4.344   3.111  1.9844  0.6903 -0.8642
  153OSM    C9F17079   2.918   4.504   3.197 -0.3563  0.1545 -0.4691
  153OSM    H9F17080   2.811   4.527   3.198 -0.5929 -0.9354  0.3262
  153OSM   C10F17081   2.982   4.547   3.310 -0.1908 -0.2496  0.0119
  153OSM   H10F17082   2.931   4.596   3.394 -0.3541 -0.4313  0.0175
  153OSM   C11F17083   3.128   4.518   3.342  0.0917  0.2079  0.6029
  153OSM   H11F17084   3.186   4.610   3.318  2.2784 -1.3812 -0.5641
  153OSM   H11G17085   3.168   4.440   3.274  1.3392  1.2364  0.1168
  153OSM   C12F17086   3.161   4.484   3.489  0.5633  0.2596  0.3605
  153OSM   H12F17087   3.267   4.450   3.494 -0.0752 -1.6950  1.5002
  153OSM   H12G17088   3.100   4.397   3.521 -1.2572  1.5088  0.4295
  153OSM   C13F17089   3.146   4.594   3.591 -0.1010  0.7896  0.1190
  153OSM   H13F17090   3.035   4.598   3.600 -0.5915 -4.8714  0.0135
  153OSM   H13G17091   3.193   4.682   3.543  4.7321 -1.7162 -0.2742
  153OSM   C14F17092   3.212   4.567   3.729 -0.5083 -0.4890  0.5948
  153OSM   H14F17093   3.186   4.657   3.789  0.0858  0.2929 -0.2856
  153OSM   H14G17094   3.322   4.572   3.732 -0.5713  2.2551  0.8546
  153OSM   C15F17095   3.156   4.444   3.809  0.1125  0.2606  0.0362
  153OSM   H15F17096   3.146   4.346   3.757  1.1528 -0.9865  2.0420
  153OSM   H15G17097   3.051   4.472   3.831  0.0902  0.6607 -0.5628
  153OSM   C16F17098   3.227   4.420   3.942 -0.3384 -0.0983  0.4331
  153OSM   H16F17099   3.329   4.380   3.924  0.4410  2.2927 -0.9790
  153OSM   H16G17100   3.166   4.344   3.995 -1.1203  0.5173  0.4360
  153OSM   C17F17101   3.225   4.539   4.035  0.1628 -0.0560  0.4077
  153OSM   H17F17102   3.119   4.572   4.042  0.1836  1.4025 -3.6214
  153OSM   H17G17103   3.285   4.627   4.003  0.4889 -0.2014  0.6071
  153OSM   C18F17104   3.283   4.504   4.172 -1.0402  0.9960 -0.3849
  153OSM   H18F17105   3.378   4.447   4.172 -2.0807 -0.7932 -0.5300
  153OSM   H18G17106   3.223   4.429   4.227 -1.9567  1.1068 -1.2073
  153OSM   H18H17107   3.297   4.594   4.236 -0.1099  0.2911  0.4297
  154OSM      N17108   6.221   0.336   2.198  1.0084  0.0055  0.2576
  154OSM    C1517109   6.086   0.288   2.147  0.1549 -0.1658 -0.6146
  154OSM   H15A17110   6.060   0.194   2.192  1.6962 -0.3079  0.0663
  154OSM   H15B17111   6.084   0.288   2.039 -0.4576 -0.7590 -0.6099
  154OSM   H15C17112   6.013   0.363   2.174 -1.3671 -1.1748 -1.8387
  154OSM    C1417113   6.224   0.319   2.342  0.3609 -0.2463  0.2558
  154OSM   H14A17114   6.324   0.346   2.373 -0.1782  0.9270  1.0582
  154OSM   H14B17115   6.199   0.216   2.360  1.0001 -0.6852 -1.1618
  154OSM   H14C17116   6.150   0.377   2.395  0.6214 -0.4965  0.9062
  154OSM    C1317117   6.326   0.246   2.142 -0.0574 -0.1090  0.5952
  154OSM   H13A17118   6.314   0.246   2.034 -0.1945 -1.8608  0.5809
  154OSM   H13B17119   6.305   0.144   2.171  0.9663 -0.4971  0.0185
  154OSM   H13C17120   6.423   0.284   2.170 -1.9159  2.9831  3.5164
  154OSM    C1217121   6.241   0.478   2.160  0.4103 -0.4920  0.2651
  154OSM   H12A17122   6.345   0.501   2.181  0.6980  0.0940 -1.6042
  154OSM   H12B17123   6.184   0.538   2.229 -1.7923 -0.8608 -1.1419
  154OSM    C1117124   6.217   0.529   2.010 -0.1306 -0.4224 -0.6626
  154OSM   H11A17125   6.251   0.436   1.961  1.1749 -1.4872  2.0495
  154OSM   H11B17126   6.277   0.620   1.988 -0.3757 -0.1848 -0.3597
  154OSM      P17127   6.005   0.686   2.026  0.4083 -0.1408  0.6546
  154OSM    O1317128   6.057   0.790   1.938 -0.8942  0.5535 -0.5656
  154OSM    O1417129   5.861   0.655   2.014  0.1222  0.1955  0.4818
  154OSM    O1117130   6.039   0.722   2.173 -0.1814  0.3882  0.2761
  154OSM    O1217131   6.074   0.550   1.988  0.0304 -0.1746 -0.3332
  154OSM    C1S17132   5.974   0.661   2.286  0.1667  0.4960 -0.0793
  154OSM    H1S17133   6.032   0.569   2.313  0.3802  0.6030 -0.1695
  154OSM    H1T17134   5.865   0.644   2.272  0.2993 -0.6908  0.2226
  154OSM     NF17135   5.923   0.677   2.537 -0.8152 -0.6608  0.2956
  154OSM    HNF17136   5.833   0.696   2.573 -1.5472 -1.6751 -0.9241
  154OSM    C2S17137   5.971   0.750   2.414 -0.1236 -0.6413 -0.0447
  154OSM    H2S17138   6.079   0.775   2.416 -0.1685 -0.4551  0.1954
  154OSM    C3S17139   5.901   0.880   2.383  0.6699 -0.2842  0.5888
  154OSM    H3S17140   5.793   0.861   2.369 -0.4444  3.0844  3.2337
  154OSM     O317141   5.956   0.950   2.274  0.3266 -0.4119  0.3631
  154OSM    HO317142   6.017   0.888   2.233  1.9402  0.4170  1.4275
  154OSM    C4S17143   5.899   0.965   2.505 -0.0260 -0.2159  0.0442
  154OSM    H4S17144   5.799   0.994   2.539  0.0292 -0.8200  0.7534
  154OSM    C5S17145   6.009   1.000   2.573  0.3390 -0.3673 -0.0953
  154OSM    H5S17146   6.112   0.974   2.546  0.5366 -0.3928  0.6791
  154OSM    C6S17147   6.000   1.080   2.704  0.0789  0.0479 -0.2421
  154OSM    H6S17148   5.946   1.175   2.684 -1.3543 -0.7611 -0.3612
  154OSM    H6T17149   6.107   1.108   2.720  0.5424 -0.2315 -2.4722
  154OSM    C7S17150   5.948   1.003   2.826  0.1029  0.5652 -0.2037
  154OSM    H7S17151   5.980   1.072   2.908 -0.7178 -0.3597  0.9277
  154OSM    H7T17152   6.015   0.916   2.840 -0.1446  0.5421  0.9905
  154OSM    C8S17153   5.799   0.978   2.827 -0.5426 -0.2725  0.2567
  154OSM    H8S17154   5.782   0.898   2.753  0.8360 -1.1676  0.8847
  154OSM    H8T17155   5.738   1.062   2.785 -0.9605 -0.8647 -0.3320
  154OSM    C9S17156   5.742   0.922   2.960 -0.0142  0.5163  0.5350
  154OSM    H9S17157   5.761   0.997   3.041  0.1101  0.7349  0.3049
  154OSM    H9T17158   5.794   0.829   2.992 -0.4343  0.4359  1.0012
  154OSM   C10S17159   5.600   0.872   2.950 -0.8078 -1.0194  0.4522
  154OSM   H10S17160   5.578   0.830   3.051 -1.4863  1.5246  1.4549
  154OSM   H10T17161   5.588   0.787   2.880 -2.6385 -1.2968  1.0448
  154OSM   C11S17162   5.510   0.989   2.907 -0.2503 -0.3302  0.1707
  154OSM   H11S17163   5.551   1.037   2.816  0.7171  1.3477  1.4197
  154OSM   H11T17164   5.502   1.069   2.984  0.3558 -0.6321  0.5571
  154OSM   C12S17165   5.362   0.937   2.885 -0.7667  0.0878  0.9600
  154OSM   H12S17166   5.374   0.858   2.808  1.7325  1.3909 -0.1527
  154OSM   H12T17167   5.316   1.031   2.848 -1.0284 -0.9740 -1.6317
  154OSM   C13S17168   5.277   0.902   3.011  0.4407  0.2015 -0.6701
  154OSM   H13S17169   5.294   0.986   3.081  0.9401 -0.6511  0.2492
  154OSM   H13T17170   5.318   0.816   3.067  0.6889  0.8288  0.1209
  154OSM   C14S17171   5.130   0.874   2.993 -0.0719  0.1417  0.0785
  154OSM   H14S17172   5.112   0.804   2.909 -0.8523 -2.0448  1.9642
  154OSM   H14T17173   5.076   0.970   2.975  0.5727  0.5627  0.3390
  154OSM   C15S17174   5.072   0.790   3.105  0.0061  0.1910 -0.3260
  154OSM   H15S17175   5.130   0.698   3.128 -1.3105 -0.2535  1.4736
  154OSM   H15T17176   4.967   0.758   3.089  0.1939 -0.2297 -0.7339
  154OSM   C16S17177   5.065   0.855   3.251 -0.0893 -0.2488 -0.1116
  154OSM   H16S17178   5.037   0.962   3.242 -1.3709 -0.6164 -0.6982
  154OSM   H16T17179   5.169   0.855   3.290  0.8275 -3.6904 -2.1251
  154OSM   C17S17180   4.984   0.768   3.349  0.4695  0.0313  0.1452
  154OSM   H17S17181   5.027   0.666   3.339  1.6772  0.4701  0.6747
  154OSM   H17T17182   4.883   0.784   3.306  0.1900  0.6639  1.0228
  154OSM   C18S17183   5.007   0.819   3.489 -0.4296 -0.4212 -0.1299
  154OSM   H18S17184   5.117   0.808   3.502 -0.3741  0.6803  0.4613
  154OSM   H18T17185   4.952   0.749   3.555 -2.4957 -0.4937 -1.7902
  154OSM   H18U17186   4.977   0.925   3.500 -0.0417 -0.4351  1.2375
  154OSM    C1F17187   5.996   0.578   2.589 -0.0853  0.5019  0.1828
  154OSM     OF17188   6.102   0.545   2.532 -0.0055 -0.0958  0.1188
  154OSM    C2F17189   5.925   0.504   2.695  0.0309  0.2393  0.0928
  154OSM    H2F17190   5.893   0.409   2.647 -0.7894  0.2925  0.5230
  154OSM    H2G17191   5.839   0.568   2.726 -0.6983 -0.7049  0.0631
  154OSM    C3F17192   6.018   0.465   2.814 -0.8172  0.5372 -0.2666
  154OSM    H3F17193   6.096   0.401   2.769 -3.2475 -0.6522 -3.0990
  154OSM    H3G17194   5.974   0.392   2.885  2.8301 -2.1960 -0.5783
  154OSM    C4F17195   6.071   0.594   2.882 -0.0548  0.5498 -0.6869
  154OSM    H4F17196   5.985   0.629   2.943  0.1234 -2.5995  1.6142
  154OSM    H4G17197   6.115   0.667   2.811  0.6100  1.5302  0.6895
  154OSM    C5F17198   6.172   0.556   2.988 -0.3368 -0.2131 -0.5063
  154OSM    H5F17199   6.264   0.508   2.946 -0.9335 -1.9779  0.1049
  154OSM    H5G17200   6.120   0.481   3.051 -0.1302 -0.1812 -0.2949
  154OSM    C6F17201   6.211   0.679   3.083 -0.5197  0.1129  0.5669
  154OSM    H6F17202   6.290   0.645   3.153  0.1359  2.8616  1.2900
  154OSM    H6G17203   6.128   0.693   3.155 -0.9410 -1.2360  0.3736
  154OSM    C7F17204   6.245   0.809   3.009 -0.0006 -0.0040 -0.5299
  154OSM    H7F17205   6.147   0.847   2.973 -0.0814  1.3430  0.9829
  154OSM    H7G17206   6.316   0.784   2.928 -1.9035  0.9661 -2.6040
  154OSM    C8F17207   6.303   0.923   3.100 -0.8866  0.4813  0.3179
  154OSM    H8F17208   6.397   0.878   3.138 -1.3420 -2.6875 -1.8991
  154OSM    H8G17209   6.236   0.932   3.189 -0.7122  4.1130  0.2326
  154OSM    C9F17210   6.318   1.054   3.030 -0.1874 -0.4542 -0.7139
  154OSM    H9F17211   6.394   1.054   2.950 -0.6484 -2.3461 -1.1919
  154OSM   C10F17212   6.253   1.163   3.067  0.3022 -0.0918 -0.2389
  154OSM   H10F17213   6.275   1.256   3.013 -1.1282  0.1120 -0.4970
  154OSM   C11F17214   6.126   1.170   3.140  0.0419 -0.4918 -0.1401
  154OSM   H11F17215   6.081   1.069   3.148 -1.8628  0.3804  0.9014
  154OSM   H11G17216   6.045   1.222   3.085 -0.7211 -0.8077  0.6548
  154OSM   C12F17217   6.127   1.234   3.275 -0.4774  0.3811 -0.9353
  154OSM   H12F17218   6.036   1.213   3.335  0.7675 -1.6865  0.3219
  154OSM   H12G17219   6.151   1.343   3.278  1.9672 -0.0924 -1.2962
  154OSM   C13F17220   6.223   1.160   3.371 -0.0559 -0.5592 -0.4344
  154OSM   H13F17221   6.322   1.137   3.326  0.1617 -0.3723 -0.0565
  154OSM   H13G17222   6.171   1.064   3.393 -0.2018 -0.9635 -2.3148
  154OSM   C14F17223   6.250   1.230   3.508  0.5718 -0.1091 -0.3004
  154OSM   H14F17224   6.162   1.286   3.547  1.2232  0.8126 -0.1155
  154OSM   H14G17225   6.324   1.312   3.493 -0.3983  0.9496  0.5817
  154OSM   C15F17226   6.309   1.131   3.617  0.4910 -0.2817  0.2945
  154OSM   H15F17227   6.418   1.118   3.599  0.8823  3.0223 -0.4527
  154OSM   H15G17228   6.251   1.037   3.613  1.4574 -1.0430  2.4796
  154OSM   C16F17229   6.289   1.185   3.761 -0.5154 -0.2253  1.0893
  154OSM   H16F17230   6.179   1.193   3.776 -0.6057  1.5877 -0.2051
  154OSM   H16G17231   6.332   1.287   3.757 -1.1489  0.0115 -0.8911
  154OSM   C17F17232   6.362   1.111   3.872 -0.8302  0.3450  0.3694
  154OSM   H17F17233   6.463   1.092   3.831 -0.1066 -0.4081  2.3841
  154OSM   H17G17234   6.317   1.011   3.885 -1.6112  0.5469 -0.6571
  154OSM   C18F17235   6.358   1.185   4.011  0.8183 -0.2435  0.8549
  154OSM   H18F17236   6.425   1.132   4.081  0.7472  1.5487  2.3287
  154OSM   H18G17237   6.252   1.183   4.043  0.2010  0.6096 -0.9755
  154OSM   H18H17238   6.401   1.286   3.997  0.7744 -0.4785 -1.3764
  155OSM      N17239   2.967   4.348   2.017  0.1926 -0.6330  0.4092
  155OSM    C1517240   2.915   4.477   1.960  0.6075 -0.3434 -0.9535
  155OSM   H15A17241   2.937   4.498   1.857 -0.1690 -0.8391 -1.2215
  155OSM   H15B17242   2.966   4.550   2.023 -0.0812 -1.6545  1.2366
  155OSM   H15C17243   2.813   4.481   1.994  0.1207 -2.2343 -2.0974
  155OSM    C1417244   2.893   4.226   1.959 -0.3697  0.4651  0.0225
  155OSM   H14A17245   2.887   4.244   1.853  0.0628 -0.9529 -0.2707
  155OSM   H14B17246   2.798   4.206   2.007  0.0320  0.3048  0.7681
  155OSM   H14C17247   2.957   4.140   1.969  0.6957  1.4084  1.8235
  155OSM    C1317248   3.103   4.345   1.961 -0.1608 -0.0799 -0.7129
  155OSM   H13A17249   3.168   4.420   2.002 -0.0773 -0.3229 -0.3998
  155OSM   H13B17250   3.109   4.364   1.855  0.8367 -0.3833 -0.7207
  155OSM   H13C17251   3.145   4.249   1.987  0.1995 -0.0819 -1.2830
  155OSM    C1217252   2.960   4.340   2.165 -0.3551  0.3782  0.0310
  155OSM   H12A17253   2.861   4.329   2.206  0.7105 -0.3113  2.6147
  155OSM   H12B17254   3.003   4.427   2.214  1.1925 -0.9486  1.1487
  155OSM    C1117255   3.035   4.223   2.228 -0.2469  0.0584  0.3491
  155OSM   H11A17256   3.010   4.132   2.168  0.8016  0.6838 -1.0798
  155OSM   H11B17257   2.995   4.213   2.331 -0.4344  0.7710  0.3522
  155OSM      P17258   3.241   4.339   2.330  0.3545 -0.3899 -0.1394
  155OSM    O1317259   3.382   4.361   2.291  0.0576 -0.0534 -0.6336
  155OSM    O1417260   3.163   4.458   2.362 -0.0405 -0.0926  0.1558
  155OSM    O1117261   3.255   4.255   2.458 -0.2327  0.3349 -0.3164
  155OSM    O1217262   3.174   4.246   2.228  0.2122 -0.0766  0.3893
  155OSM    C1S17263   3.373   4.255   2.541 -0.2163  0.9237  0.2385
  155OSM    H1S17264   3.415   4.357   2.558  1.4017  1.1426 -4.0057
  155OSM    H1T17265   3.456   4.195   2.499 -0.5832  0.2689  0.4369
  155OSM     NF17266   3.398   4.272   2.791  0.3175 -0.0084 -0.1827
  155OSM    HNF17267   3.459   4.219   2.848 -1.5463 -2.8104 -0.5979
  155OSM    C2S17268   3.327   4.205   2.679 -0.9231  0.2898 -0.5678
  155OSM    H2S17269   3.222   4.238   2.695 -1.2381 -1.2303  0.7702
  155OSM    C3S17270   3.317   4.050   2.691  0.0880 -1.0926 -0.1552
  155OSM    H3S17271   3.418   4.007   2.674  0.8141  0.3901  0.2065
  155OSM     O317272   3.241   3.988   2.583  0.5018  0.0054 -0.1887
  155OSM    HO317273   3.221   4.056   2.519  0.0773  1.0769  1.0239
  155OSM    C4S17274   3.272   4.009   2.833 -0.8431 -0.3292  0.0943
  155OSM    H4S17275   3.352   4.002   2.907  0.3057  1.5112 -0.9044
  155OSM    C5S17276   3.143   3.985   2.863  0.4409 -0.4800 -0.6063
  155OSM    H5S17277   3.074   3.988   2.778  1.1558  0.7234 -1.1854
  155OSM    C6S17278   3.101   3.970   3.010  0.8192  0.4397 -0.1467
  155OSM    H6S17279   3.095   3.865   3.043 -0.3128  0.3658 -0.5215
  155OSM    H6T17280   2.997   4.008   3.023  1.4925  1.9759  1.1767
  155OSM    C7S17281   3.176   4.057   3.112  0.4180  0.4244  0.4866
  155OSM    H7S17282   3.179   4.163   3.078 -1.5090  0.1391 -0.7567
  155OSM    H7T17283   3.278   4.014   3.118 -0.0568 -0.7728  0.2838
  155OSM    C8S17284   3.103   4.039   3.248 -0.0107  0.1106 -0.0422
  155OSM    H8S17285   3.043   3.946   3.253 -1.2158  0.9295  1.4971
  155OSM    H8T17286   3.025   4.117   3.260 -0.9496 -1.0286  1.6587
  155OSM    C9S17287   3.192   4.058   3.371 -1.0579  0.1497  1.1889
  155OSM    H9S17288   3.211   4.167   3.386 -5.2898  1.2155  0.1151
  155OSM    H9T17289   3.294   4.016   3.356 -0.4695  1.4291  1.4975
  155OSM   C10S17290   3.139   4.006   3.501 -0.3636 -0.5380 -0.0038
  155OSM   H10S17291   3.142   3.895   3.508  0.0276 -0.5980 -0.9655
  155OSM   H10T17292   3.039   4.052   3.513  1.7347  4.7316  0.1537
  155OSM   C11S17293   3.217   4.059   3.621 -1.1233 -0.7557 -0.3028
  155OSM   H11S17294   3.195   4.167   3.628 -1.6204 -0.8827  0.0996
  155OSM   H11T17295   3.326   4.045   3.604 -0.5745  0.6501  1.7478
  155OSM   C12S17296   3.167   3.995   3.750  0.5883 -0.2209 -0.5553
  155OSM   H12S17297   3.183   3.885   3.753 -0.7759 -0.4344  3.1192
  155OSM   H12T17298   3.057   4.005   3.750  0.3911 -1.3555  2.7865
  155OSM   C13S17299   3.214   4.039   3.888 -0.6539 -0.7990  0.9058
  155OSM   H13S17300   3.160   4.137   3.889 -1.8024 -1.4145  0.7776
  155OSM   H13T17301   3.325   4.039   3.888 -0.6537 -0.9435  0.5445
  155OSM   C14S17302   3.178   3.948   4.004  0.0405  0.0924  0.5806
  155OSM   H14S17303   3.227   3.852   3.978 -0.3916  0.6999 -2.9325
  155OSM   H14T17304   3.074   3.910   3.994  1.1387 -2.7917 -0.9401
  155OSM   C15S17305   3.222   4.012   4.135  0.7581  0.0996 -0.4692
  155OSM   H15S17306   3.236   3.934   4.213 -0.1798  0.5164  0.1326
  155OSM   H15T17307   3.147   4.089   4.162  1.6728  0.4049  1.3784
  155OSM   C16S17308   3.368   4.082   4.135  0.4293  0.0543 -0.2207
  155OSM   H16S17309   3.372   4.160   4.057  0.3624  2.0885  1.7291
  155OSM   H16T17310   3.442   4.003   4.108  0.9231  0.8327 -1.1903
  155OSM   C17S17311   3.417   4.153   4.260 -0.1071  0.6719 -0.5521
  155OSM   H17S17312   3.340   4.228   4.288 -0.2869  0.6754 -1.0340
  155OSM   H17T17313   3.522   4.184   4.244 -0.1196  0.6354 -0.7095
  155OSM   C18S17314   3.438   4.057   4.371  0.2539  0.4356 -0.8004
  155OSM   H18S17315   3.486   4.098   4.463 -0.2606  1.4602 -0.9767
  155OSM   H18T17316   3.501   3.973   4.335  0.1125 -0.7202  1.4369
  155OSM   H18U17317   3.340   4.013   4.400 -0.4716  1.7320 -1.2196
  155OSM    C1F17318   3.379   4.400   2.823  0.3161 -0.0964 -0.2953
  155OSM     OF17319   3.284   4.463   2.774  0.2622 -0.0122 -0.3275
  155OSM    C2F17320   3.480   4.454   2.920  0.4035  0.2764 -0.3145
  155OSM    H2F17321   3.561   4.377   2.920 -0.2428 -0.4233  0.3115
  155OSM    H2G17322   3.429   4.460   3.019  0.3279 -1.5178 -0.1986
  155OSM    C3F17323   3.525   4.589   2.872 -0.4202  0.1149  0.1128
  155OSM    H3F17324   3.432   4.647   2.850 -1.0164 -0.6693  0.5442
  155OSM    H3G17325   3.582   4.588   2.776 -0.9126  1.6678 -0.2307
  155OSM    C4F17326   3.606   4.665   2.976 -0.2063 -0.2147  0.5678
  155OSM    H4F17327   3.546   4.681   3.068 -0.7195  0.7826  0.0876
  155OSM    H4G17328   3.615   4.767   2.932 -1.2035  0.2199  1.3279
  155OSM    C5F17329   3.738   4.607   3.024  0.3883  0.3216 -0.1146
  155OSM    H5F17330   3.809   4.602   2.938  2.2585 -3.2352  1.4256
  155OSM    H5G17331   3.727   4.505   3.066 -0.6453 -0.0835 -1.3141
  155OSM    C6F17332   3.812   4.685   3.133 -0.1571 -0.3737 -0.8595
  155OSM    H6F17333   3.745   4.736   3.206 -1.2671 -1.0120 -1.4034
  155OSM    H6G17334   3.871   4.767   3.088  1.1482  0.5418  2.2177
  155OSM    C7F17335   3.911   4.596   3.212  0.1621 -0.0857  0.1530
  155OSM    H7F17336   3.965   4.520   3.151  2.3022  2.7767 -1.7356
  155OSM    H7G17337   3.853   4.541   3.290  0.4739 -0.3837  0.1758
  155OSM    C8F17338   4.018   4.679   3.289  0.6139 -0.4224 -0.6463
  155OSM    H8F17339   4.049   4.758   3.217 -0.6836  1.3317  0.6450
  155OSM    H8G17340   4.101   4.612   3.323 -0.2268 -0.3725  1.6933
  155OSM    C9F17341   3.958   4.744   3.413  0.2178  0.5546  0.2668
  155OSM    H9F17342   3.910   4.842   3.402 -0.4411  0.0878 -1.2925
  155OSM   C10F17343   3.925   4.689   3.528 -0.2491  0.6439  0.2533
  155OSM   H10F17344   3.869   4.757   3.593 -2.4876  0.3689 -1.2682
  155OSM   C11F17345   3.942   4.546   3.573  0.2521 -0.5448 -0.0061
  155OSM   H11F17346   4.002   4.487   3.500  0.1711 -0.3075 -0.2644
  155OSM   H11G17347   3.843   4.498   3.558 -0.5458 -0.0382  3.1020
  155OSM   C12F17348   3.974   4.520   3.718 -0.1604  0.0567 -0.6891
  155OSM   H12F17349   4.073   4.566   3.739 -0.5790  1.0234 -0.7610
  155OSM   H12G17350   3.983   4.412   3.739  1.5792  0.2531 -0.2940
  155OSM   C13F17351   3.870   4.578   3.813 -0.0151 -0.3505 -0.2272
  155OSM   H13F17352   3.773   4.525   3.813 -0.0842 -0.2552  1.0959
  155OSM   H13G17353   3.862   4.686   3.792 -2.8705 -0.3728  0.4689
  155OSM   C14F17354   3.915   4.575   3.962  0.2397  0.2300 -0.2322
  155OSM   H14F17355   3.876   4.672   4.000 -1.0789 -0.9966  1.7077
  155OSM   H14G17356   4.025   4.576   3.974  0.2321 -0.8804 -0.0343
  155OSM   C15F17357   3.851   4.459   4.044  0.1051 -0.0974 -0.0111
  155OSM   H15F17358   3.896   4.361   4.018 -0.2784  0.3610 -2.7599
  155OSM   H15G17359   3.748   4.447   4.005  0.5457  0.1927 -1.3370
  155OSM   C16F17360   3.858   4.486   4.194  0.2312  0.7518  0.7049
  155OSM   H16F17361   3.966   4.483   4.218  0.0088  1.6006  1.8741
  155OSM   H16G17362   3.797   4.405   4.239  0.8263 -1.2724 -1.8421
  155OSM   C17F17363   3.802   4.617   4.257  0.7893 -0.6337  1.0746
  155OSM   H17F17364   3.865   4.706   4.242  0.1685 -0.2762  0.5579
  155OSM   H17G17365   3.819   4.606   4.366 -0.0021 -0.7629  1.1944
  155OSM   C18F17366   3.659   4.647   4.213  0.1887 -0.0341  0.0990
  155OSM   H18F17367   3.597   4.556   4.227 -0.4769  0.3044 -0.5904
  155OSM   H18G17368   3.655   4.687   4.110 -2.0374  1.1489  0.5777
  155OSM   H18H17369   3.615   4.720   4.285 -0.1327  0.8504 -0.9705
  156OSM      N17370   6.106   3.509   2.305  0.7943  0.0989 -0.5817
  156OSM    C1517371   6.175   3.406   2.385 -0.8232 -0.3035  0.0241
  156OSM   H15A17372   6.280   3.391   2.366 -0.5823 -0.6030  1.4451
  156OSM   H15B17373   6.130   3.308   2.380 -1.0250 -0.4094  2.5330
  156OSM   H15C17374   6.174   3.435   2.489  1.5265 -1.8514  0.5691
  156OSM    C1417375   6.168   3.641   2.333 -0.1780  0.1076 -0.2820
  156OSM   H14A17376   6.104   3.713   2.282 -2.7948 -1.1287  1.0584
  156OSM   H14B17377   6.270   3.633   2.300 -0.3475  2.0846 -1.4955
  156OSM   H14C17378   6.165   3.671   2.437 -0.7369 -1.5201  0.2042
  156OSM    C1317379   6.117   3.484   2.152 -0.2562 -0.3345  0.1421
  156OSM   H13A17380   6.095   3.382   2.123  1.6415 -0.5476 -0.6960
  156OSM   H13B17381   6.218   3.500   2.118 -0.2998 -0.2497  0.0515
  156OSM   H13C17382   6.065   3.552   2.086  0.6146  2.1630  1.8653
  156OSM    C1217383   5.956   3.509   2.335 -0.1377  0.4996  0.8514
  156OSM   H12A17384   5.949   3.555   2.433 -0.5586 -0.1519  1.1348
  156OSM   H12B17385   5.917   3.409   2.331  1.5046 -0.1787  1.1505
  156OSM    C1117386   5.857   3.596   2.246 -0.8950  0.3305 -0.1573
  156OSM   H11A17387   5.757   3.572   2.288 -0.4609 -1.1304  0.0985
  156OSM   H11B17388   5.871   3.557   2.143 -0.0574 -1.5200  0.6178
  156OSM      P17389   5.866   3.837   2.353  0.3860  0.1449  0.0781
  156OSM    O1317390   5.968   3.939   2.348 -0.1259 -0.0288 -0.1942
  156OSM    O1417391   5.732   3.890   2.336 -0.3805 -0.0003 -0.1255
  156OSM    O1117392   5.886   3.755   2.483  0.1054 -0.2403  0.0290
  156OSM    O1217393   5.897   3.734   2.242 -0.3325 -0.1889  0.1114
  156OSM    C1S17394   5.836   3.810   2.600 -0.1731  0.3689 -0.3553
  156OSM    H1S17395   5.726   3.810   2.590 -0.1613 -1.2414 -0.7868
  156OSM    H1T17396   5.880   3.912   2.606  0.9423 -0.1376  0.3681
  156OSM     NF17397   5.807   3.765   2.836 -0.0250  0.3508 -0.4125
  156OSM    HNF17398   5.840   3.837   2.895  0.8445 -0.6145  0.3224
  156OSM    C2S17399   5.890   3.736   2.720 -0.3074  0.1959 -0.4890
  156OSM    H2S17400   5.880   3.625   2.716 -3.3968  0.2620  1.8370
  156OSM    C3S17401   6.037   3.777   2.746  0.2680  0.3854  0.9618
  156OSM    H3S17402   6.036   3.887   2.759 -0.4181  0.5319 -0.1795
  156OSM     O317403   6.113   3.776   2.628 -0.1141  0.2150 -0.3394
  156OSM    HO317404   6.048   3.758   2.560 -0.5347 -0.0916  0.1359
  156OSM    C4S17405   6.101   3.705   2.854  1.0640 -0.4192  0.2918
  156OSM    H4S17406   6.109   3.779   2.935 -1.2666  0.2562 -0.0180
  156OSM    C5S17407   6.115   3.572   2.866  0.3505 -0.0040 -0.7921
  156OSM    H5S17408   6.064   3.508   2.793 -2.2289 -0.3352  1.1451
  156OSM    C6S17409   6.146   3.499   2.990  0.1014  0.1788  0.0324
  156OSM    H6S17410   6.235   3.437   2.966 -1.1178 -0.5780 -2.9469
  156OSM    H6T17411   6.063   3.428   3.007  0.0135  0.3537  0.3568
  156OSM    C7S17412   6.187   3.578   3.112  0.4847 -0.5133  0.6189
  156OSM    H7S17413   6.132   3.672   3.131  1.7012  0.2008  0.7332
  156OSM    H7T17414   6.286   3.620   3.085 -0.9879  2.3912 -0.5757
  156OSM    C8S17415   6.192   3.489   3.234 -0.4287 -0.0712  0.9955
  156OSM    H8S17416   6.246   3.393   3.216  0.2249  0.5127 -0.3337
  156OSM    H8T17417   6.085   3.461   3.242 -0.5151  0.4516  1.7613
  156OSM    C9S17418   6.232   3.564   3.365 -0.1448 -0.2462 -0.6611
  156OSM    H9S17419   6.191   3.668   3.360 -0.3659 -0.4027 -2.5478
  156OSM    H9T17420   6.342   3.578   3.366  0.3123 -2.7973  2.6233
  156OSM   C10S17421   6.205   3.492   3.497 -0.2827 -0.3999  0.5529
  156OSM   H10S17422   6.256   3.394   3.490 -0.7046 -0.7175  1.6034
  156OSM   H10T17423   6.094   3.481   3.501 -0.5755  2.2220  3.0737
  156OSM   C11S17424   6.253   3.567   3.614 -0.3921 -0.1535 -1.2981
  156OSM   H11S17425   6.200   3.664   3.622  2.4908  1.4305  0.6050
  156OSM   H11T17426   6.364   3.573   3.616 -0.3881 -0.5505  0.2563
  156OSM   C12S17427   6.218   3.499   3.752  0.2024  0.0075 -0.2034
  156OSM   H12S17428   6.259   3.396   3.749  0.2524 -0.0714  1.8464
  156OSM   H12T17429   6.111   3.519   3.771  0.3002  1.0328 -0.6121
  156OSM   C13S17430   6.279   3.564   3.881  0.8527  0.4834 -0.3625
  156OSM   H13S17431   6.225   3.656   3.911  2.8879  1.3811  0.8189
  156OSM   H13T17432   6.390   3.570   3.874  1.1820 -1.8326  1.5714
  156OSM   C14S17433   6.242   3.472   3.998 -1.0618  0.2305  0.1167
  156OSM   H14S17434   6.289   3.377   3.963 -0.8262  1.1017 -2.0839
  156OSM   H14T17435   6.132   3.463   4.005 -1.0462 -1.2810 -1.0498
  156OSM   C15S17436   6.295   3.546   4.122 -0.0093  0.0998 -1.2237
  156OSM   H15S17437   6.238   3.641   4.123 -0.4213 -0.0093 -4.2812
  156OSM   H15T17438   6.403   3.573   4.117  0.3556 -0.8277  0.6821
  156OSM   C16S17439   6.273   3.463   4.252 -0.0768 -0.1385 -0.2765
  156OSM   H16S17440   6.312   3.363   4.223 -0.7919 -0.0641 -1.5899
  156OSM   H16T17441   6.165   3.442   4.267  0.4773 -1.9252  1.6050
  156OSM   C17S17442   6.334   3.516   4.374  0.0892  0.4996 -0.1989
  156OSM   H17S17443   6.301   3.620   4.392 -1.0145  0.1964 -0.3712
  156OSM   H17T17444   6.445   3.518   4.372  0.3429 -1.0792  3.5782
  156OSM   C18S17445   6.312   3.426   4.498 -0.1155 -0.0012  0.0039
  156OSM   H18S17446   6.211   3.425   4.544 -0.4808 -0.7878 -0.8109
  156OSM   H18T17447   6.384   3.456   4.577 -1.4114  0.0825  1.1980
  156OSM   H18U17448   6.333   3.320   4.476  1.1716  0.3946 -0.7807
  156OSM    C1F17449   5.675   3.723   2.845  0.2530 -0.4549 -0.1122
  156OSM     OF17450   5.625   3.636   2.770  0.0503  0.0190 -0.2260
  156OSM    C2F17451   5.584   3.786   2.943  0.0996 -0.5888 -0.2827
  156OSM    H2F17452   5.543   3.881   2.901 -0.7876 -0.5992  0.5211
  156OSM    H2G17453   5.648   3.807   3.031  1.2534 -0.5151 -1.1150
  156OSM    C3F17454   5.463   3.699   3.002 -0.2757  0.3821  0.4720
  156OSM    H3F17455   5.499   3.597   3.025 -1.1005 -0.5618 -2.0079
  156OSM    H3G17456   5.395   3.686   2.915 -0.4157 -1.2213  0.7822
  156OSM    C4F17457   5.380   3.775   3.104  0.1655  0.0130  0.1049
  156OSM    H4F17458   5.282   3.727   3.123 -1.1436  2.4559 -0.0202
  156OSM    H4G17459   5.352   3.878   3.072 -0.6580 -0.1681  0.2137
  156OSM    C5F17460   5.463   3.767   3.234  0.9293  1.0996  0.1896
  156OSM    H5F17461   5.561   3.820   3.235  0.8229  1.2963  1.1983
  156OSM    H5G17462   5.503   3.665   3.251 -0.2987  0.8518  1.8919
  156OSM    C6F17463   5.389   3.830   3.351  0.2970  0.3412  0.4392
  156OSM    H6F17464   5.293   3.776   3.369 -0.0543  1.0277  0.6694
  156OSM    H6G17465   5.363   3.935   3.327 -1.0445  0.2180  1.2158
  156OSM    C7F17466   5.470   3.825   3.480  0.7143 -0.1376 -0.2174
  156OSM    H7F17467   5.572   3.865   3.460  0.3670  0.7899 -0.1933
  156OSM    H7G17468   5.467   3.719   3.510  1.1421 -0.1473 -0.2063
  156OSM    C8F17469   5.406   3.920   3.584 -1.0029  0.3430  0.6537
  156OSM    H8F17470   5.300   3.892   3.602 -0.8043 -0.7722  0.1766
  156OSM    H8G17471   5.395   4.024   3.547  0.9042 -0.4143 -2.5240
  156OSM    C9F17472   5.486   3.906   3.712 -0.3633 -0.4103 -0.2218
  156OSM    H9F17473   5.590   3.872   3.700 -0.3818 -0.1388 -1.2400
  156OSM   C10F17474   5.444   3.917   3.840 -0.1853  0.9289 -0.1353
  156OSM   H10F17475   5.520   3.906   3.918 -0.0118  2.0035 -0.1368
  156OSM   C11F17476   5.306   3.944   3.892 -0.2412 -0.0224 -0.6896
  156OSM   H11F17477   5.232   3.955   3.810 -0.3115 -1.2085 -0.7966
  156OSM   H11G17478   5.300   4.037   3.953  0.0243 -0.9759  0.8354
  156OSM   C12F17479   5.257   3.828   3.990 -0.9594 -0.3773 -0.3225
  156OSM   H12F17480   5.259   3.726   3.946 -1.7445 -0.1217 -0.9792
  156OSM   H12G17481   5.153   3.831   4.027 -0.5012  1.5723  0.9869
  156OSM   C13F17482   5.350   3.821   4.111 -0.0887 -0.2021 -0.1191
  156OSM   H13F17483   5.365   3.926   4.144 -0.1162  0.4010 -1.9242
  156OSM   H13G17484   5.446   3.770   4.085 -0.3081 -2.2869  2.6895
  156OSM   C14F17485   5.293   3.737   4.227  0.4130  0.3418  0.2073
  156OSM   H14F17486   5.298   3.629   4.202  0.6179 -0.0336  1.7705
  156OSM   H14G17487   5.190   3.778   4.230  0.8208  1.6001 -1.2838
  156OSM   C15F17488   5.360   3.755   4.362 -0.2087 -0.1468  0.4706
  156OSM   H15F17489   5.386   3.863   4.366 -0.7753 -0.0258  1.0863
  156OSM   H15G17490   5.453   3.694   4.359 -0.9305 -1.2482 -1.5092
  156OSM   C16F17491   5.268   3.706   4.470 -0.8834  0.2448 -0.1736
  156OSM   H16F17492   5.241   3.598   4.459 -1.0883  0.3754 -1.0366
  156OSM   H16G17493   5.178   3.770   4.457 -0.0053  1.7637  0.9453
  156OSM   C17F17494   5.327   3.735   4.605 -0.3764  0.2237 -0.2935
  156OSM   H17F17495   5.353   3.843   4.610 -0.3303  0.2823 -1.4976
  156OSM   H17G17496   5.407   3.661   4.627 -0.1618 -0.1857 -2.2775
  156OSM   C18F17497   5.219   3.712   4.710 -0.3261 -0.3494  0.1201
  156OSM   H18F17498   5.269   3.700   4.808  1.0887 -1.6962 -0.7324
  156OSM   H18G17499   5.152   3.628   4.681  1.1501 -0.8933 -1.9860
  156OSM   H18H17500   5.145   3.795   4.711  0.4784  0.4903 -2.1781
  157OSM      N17501   0.040   6.064   2.004 -0.4619  0.5919 -0.0828
  157OSM    C1517502   0.017   6.196   1.954 -0.4664  0.1393 -0.4162
  157OSM   H15A17503   0.000   6.195   1.847 -1.2268  2.6041 -0.3847
  157OSM   H15B17504   0.099   6.260   1.982  0.5927 -1.5791  0.5645
  157OSM   H15C17505  -0.075   6.232   1.999 -0.9102 -1.7851  0.2949
  157OSM    C1417506   0.145   6.002   1.916  0.2911  0.4287  0.3109
  157OSM   H14A17507   0.110   5.987   1.815  0.3780  0.6728  0.2430
  157OSM   H14B17508   0.176   5.912   1.966  2.5850  0.2762 -1.2511
  157OSM   H14C17509   0.237   6.058   1.909  1.3583 -1.1586  1.1746
  157OSM    C1317510   0.091   6.069   2.147  0.0113  0.1659  0.1842
  157OSM   H13A17511   0.015   6.123   2.203 -2.1807 -1.0440 -1.4506
  157OSM   H13B17512   0.182   6.125   2.161 -0.5126  0.2522  4.4952
  157OSM   H13C17513   0.101   5.969   2.186 -4.0023 -1.5305 -2.4096
  157OSM    C1217514  -0.080   5.979   1.991  0.0204  1.0348  0.4417
  157OSM   H12A17515  -0.059   5.875   2.011  2.0480  1.1837 -0.6197
  157OSM   H12B17516  -0.103   5.972   1.886  2.2306  3.0997 -0.2797
  157OSM    C1117517  -0.205   6.030   2.073 -0.3979  0.4180  0.1378
  157OSM   H11A17518  -0.184   6.018   2.181 -1.7152 -1.8864  0.2009
  157OSM   H11B17519  -0.281   5.956   2.039 -1.4801  1.3067  0.5250
  157OSM      P17520  -0.379   6.218   2.099  0.2833 -0.5740 -0.2560
  157OSM    O1317521  -0.364   6.366   2.082  0.3125 -0.2883  0.0953
  157OSM    O1417522  -0.499   6.162   2.036  0.2707 -0.8137 -0.4360
  157OSM    O1117523  -0.380   6.180   2.256  0.4673 -0.4808 -0.1156
  157OSM    O1217524  -0.256   6.155   2.035 -0.6174 -0.6517 -0.3623
  157OSM    C1S17525  -0.286   6.219   2.361  0.7779 -0.1139  0.4232
  157OSM    H1S17526  -0.285   6.330   2.366 -0.4018 -0.1237  1.5704
  157OSM    H1T17527  -0.185   6.186   2.329  0.9905  1.3149 -0.4554
  157OSM     NF17528  -0.244   6.238   2.593  0.2252  0.1887 -0.2840
  157OSM    HNF17529  -0.167   6.181   2.622 -0.0054  1.0763  2.3275
  157OSM    C2S17530  -0.328   6.174   2.502 -0.2592 -0.8343 -0.5006
  157OSM    H2S17531  -0.429   6.220   2.512 -0.4170 -0.3745 -3.2957
  157OSM    C3S17532  -0.341   6.021   2.514 -0.0530 -0.2122 -0.0812
  157OSM    H3S17533  -0.243   5.980   2.481 -0.4952 -0.4708 -1.1294
  157OSM     O317534  -0.440   5.972   2.419 -0.4871 -0.2613 -0.2851
  157OSM    HO317535  -0.430   6.028   2.342 -0.8950 -1.5980 -1.3487
  157OSM    C4S17536  -0.376   5.986   2.657  1.0759 -1.1211 -0.1266
  157OSM    H4S17537  -0.284   5.972   2.718  1.8651  0.7857 -0.8174
  157OSM    C5S17538  -0.502   5.995   2.720 -0.7156  0.0712  0.0721
  157OSM    H5S17539  -0.585   6.018   2.652  0.5148 -1.1737 -1.9796
  157OSM    C6S17540  -0.530   5.964   2.861  0.6183 -0.2486  0.3204
  157OSM    H6S17541  -0.581   5.865   2.867 -0.5018  0.1808 -1.4253
  157OSM    H6T17542  -0.602   6.038   2.901 -0.6080 -0.9155 -0.6023
  157OSM    C7S17543  -0.413   5.949   2.962  0.2197 -0.4965 -0.0768
  157OSM    H7S17544  -0.348   6.039   2.962 -1.3061  0.8123 -3.5296
  157OSM    H7T17545  -0.348   5.865   2.929  0.9462 -1.1947  2.8453
  157OSM    C8S17546  -0.462   5.909   3.098  0.0722 -0.2341 -0.1205
  157OSM    H8S17547  -0.513   5.811   3.087 -2.3516  0.8867  0.5467
  157OSM    H8T17548  -0.530   5.987   3.138  1.2426  0.8176 -0.1085
  157OSM    C9S17549  -0.354   5.900   3.211 -0.3607  0.0690  1.1153
  157OSM    H9S17550  -0.294   5.994   3.209  1.3969 -0.9981 -1.7857
  157OSM    H9T17551  -0.290   5.811   3.198  0.4103  0.4581  2.0641
  157OSM   C10S17552  -0.422   5.881   3.352 -0.5354 -0.7838  0.4583
  157OSM   H10S17553  -0.462   5.777   3.347 -0.2732 -0.8364 -1.0955
  157OSM   H10T17554  -0.513   5.945   3.354 -0.6548 -0.9666  1.2804
  157OSM   C11S17555  -0.330   5.883   3.472 -0.4254 -0.1001  0.1017
  157OSM   H11S17556  -0.274   5.979   3.483 -0.9573  0.1973  0.2547
  157OSM   H11T17557  -0.251   5.807   3.457  0.0930  0.7677 -2.0073
  157OSM   C12S17558  -0.400   5.862   3.606 -0.4894  0.5165  0.2535
  157OSM   H12S17559  -0.406   5.751   3.609 -0.6882  0.5263  2.7664
  157OSM   H12T17560  -0.502   5.906   3.615 -1.1709 -1.1162  1.0603
  157OSM   C13S17561  -0.309   5.901   3.723 -0.5223  0.0102 -0.6260
  157OSM   H13S17562  -0.261   5.999   3.704  1.7462 -1.0228 -0.5641
  157OSM   H13T17563  -0.219   5.835   3.723  0.9256  1.8146 -3.1510
  157OSM   C14S17564  -0.378   5.894   3.860  0.0413 -0.3414 -0.0575
  157OSM   H14S17565  -0.367   5.790   3.898 -0.3358  0.0321  1.0941
  157OSM   H14T17566  -0.486   5.920   3.850  0.0516 -0.6897 -1.2282
  157OSM   C15S17567  -0.327   6.007   3.953  0.9326  0.4123 -0.3436
  157OSM   H15S17568  -0.342   6.110   3.914  0.8816  0.0755 -1.2444
  157OSM   H15T17569  -0.219   5.998   3.978  1.2299  2.2593 -0.8010
  157OSM   C16S17570  -0.401   5.984   4.087 -0.3786 -1.0699 -0.1517
  157OSM   H16S17571  -0.402   5.875   4.111  0.0179 -1.2577 -0.9322
  157OSM   H16T17572  -0.504   6.018   4.062 -0.5937 -0.6594  1.2036
  157OSM   C17S17573  -0.350   6.084   4.199  0.5581 -0.0794  1.1925
  157OSM   H17S17574  -0.433   6.112   4.267 -1.7780 -2.1969 -0.6415
  157OSM   H17T17575  -0.322   6.184   4.159 -2.4608  0.2124 -0.4089
  157OSM   C18S17576  -0.233   6.040   4.289  0.2265  0.5320  0.4723
  157OSM   H18S17577  -0.148   6.018   4.221 -0.4202 -1.7744  0.3099
  157OSM   H18T17578  -0.252   5.946   4.345  0.2577  0.5904  0.5820
  157OSM   H18U17579  -0.196   6.125   4.350  0.2974 -0.9625  2.6176
  157OSM    C1F17580  -0.248   6.371   2.634 -0.1652  0.1675  0.5335
  157OSM     OF17581  -0.332   6.450   2.589  0.1060 -0.4346 -0.3431
  157OSM    C2F17582  -0.148   6.416   2.739  0.0058  0.3170 -0.2203
  157OSM    H2F17583  -0.048   6.379   2.710  0.5413 -1.2941  3.1955
  157OSM    H2G17584  -0.164   6.363   2.835  0.3692 -0.0634 -0.3628
  157OSM    C3F17585  -0.140   6.573   2.759 -0.0209  0.8800 -0.5489
  157OSM    H3F17586  -0.239   6.620   2.775 -0.2749 -0.0835  0.9248
  157OSM    H3G17587  -0.091   6.606   2.665  2.4163  0.3083  0.4330
  157OSM    C4F17588  -0.054   6.612   2.883  0.4381  0.6520 -0.4065
  157OSM    H4F17589  -0.043   6.723   2.890 -0.4203  0.6467  1.1886
  157OSM    H4G17590   0.050   6.576   2.864  0.6190  1.1040 -0.2853
  157OSM    C5F17591  -0.083   6.558   3.025 -0.0087  0.5376  0.0310
  157OSM    H5F17592  -0.098   6.448   3.023 -0.1365  0.5333  0.9778
  157OSM    H5G17593  -0.182   6.597   3.057 -0.6363 -0.6882 -0.3667
  157OSM    C6F17594   0.013   6.583   3.140 -0.0996 -0.4570  0.9961
  157OSM    H6F17595   0.067   6.680   3.135 -0.9366  0.0155  1.0564
  157OSM    H6G17596   0.100   6.515   3.126  0.2891  0.5490 -2.0132
  157OSM    C7F17597  -0.047   6.548   3.276  0.3718 -0.3285 -0.4534
  157OSM    H7F17598  -0.061   6.439   3.294  1.0469 -0.0159  2.4522
  157OSM    H7G17599  -0.151   6.586   3.265  0.6489 -0.0127 -2.3047
  157OSM    C8F17600   0.022   6.620   3.387  0.1620  0.5758 -0.2029
  157OSM    H8F17601   0.037   6.723   3.347  0.4997 -0.7465 -3.8659
  157OSM    H8G17602   0.120   6.568   3.392  0.2354  0.5407 -1.5768
  157OSM    C9F17603  -0.061   6.617   3.509  0.3082 -0.5191 -0.1061
  157OSM    H9F17604  -0.152   6.678   3.502  1.9534  2.1095 -0.0149
  157OSM   C10F17605  -0.049   6.525   3.602  0.4706 -0.8318 -0.6537
  157OSM   H10F17606  -0.125   6.542   3.680 -0.2917  0.0586 -1.5651
  157OSM   C11F17607   0.054   6.418   3.620 -0.5419  0.0120  0.3145
  157OSM   H11F17608   0.147   6.452   3.569 -0.7746  0.5831  0.2577
  157OSM   H11G17609   0.020   6.327   3.568 -1.6665  1.1117 -0.9500
  157OSM   C12F17610   0.091   6.386   3.768 -0.7725 -0.2581  0.3355
  157OSM   H12F17611   0.172   6.451   3.808 -2.1329  1.1845  0.8849
  157OSM   H12G17612   0.126   6.282   3.782  0.6509  0.4266  2.5405
  157OSM   C13F17613  -0.024   6.393   3.866 -0.0680  0.1787 -0.1946
  157OSM   H13F17614  -0.020   6.315   3.945 -2.5918  1.0643  0.9304
  157OSM   H13G17615  -0.118   6.361   3.815 -1.5594 -0.4898  2.7287
  157OSM   C14F17616  -0.040   6.528   3.931 -0.5885  0.1536  0.3198
  157OSM   H14F17617  -0.013   6.602   3.854 -1.8427 -0.7674 -1.0675
  157OSM   H14G17618   0.022   6.540   4.023 -0.7107 -0.7320  0.5358
  157OSM   C15F17619  -0.182   6.550   3.975  0.1450  0.8166 -0.0291
  157OSM   H15F17620  -0.212   6.467   4.043  0.8160  0.8849  0.3551
  157OSM   H15G17621  -0.253   6.527   3.893 -0.3693 -1.2142  0.9198
  157OSM   C16F17622  -0.210   6.681   4.044 -0.4494  0.7535 -0.2089
  157OSM   H16F17623  -0.152   6.752   3.981  1.7967  0.2540  1.1737
  157OSM   H16G17624  -0.174   6.686   4.150  0.2634 -1.2089 -0.3139
  157OSM   C17F17625  -0.349   6.720   4.054 -0.5467  0.7731  0.2259
  157OSM   H17F17626  -0.392   6.641   4.119 -2.2588 -0.1188 -1.8493
  157OSM   H17G17627  -0.417   6.718   3.965  0.8824 -0.2198 -0.8861
  157OSM   C18F17628  -0.362   6.853   4.131  0.8328  0.2448  0.7406
  157OSM   H18F17629  -0.468   6.871   4.159  0.1245  0.9350 -2.0844
  157OSM   H18G17630  -0.336   6.944   4.073  1.0374  0.8484  1.7659
  157OSM   H18H17631  -0.314   6.859   4.231  1.8448  3.2807  0.1636
  158OSM      N17632   1.358   4.872   1.663  0.3009  0.2116 -0.1861
  158OSM    C1517633   1.431   4.995   1.689 -0.3437 -0.3474 -0.4926
  158OSM   H15A17634   1.399   5.039   1.783  1.7094 -0.1717  0.1735
  158OSM   H15B17635   1.414   5.070   1.614 -1.6702 -0.9382 -0.8086
  158OSM   H15C17636   1.539   4.986   1.689 -0.2076  0.4890  1.8142
  158OSM    C1417637   1.207   4.895   1.672 -0.3592  0.2094 -0.7944
  158OSM   H14A17638   1.185   4.960   1.756  2.3100 -0.4108  0.4859
  158OSM   H14B17639   1.153   4.806   1.702  0.2920 -0.7325 -2.3396
  158OSM   H14C17640   1.172   4.927   1.575 -0.7056  0.7491 -0.5017
  158OSM    C1317641   1.389   4.832   1.527 -0.1132  0.2643 -0.7962
  158OSM   H13A17642   1.342   4.738   1.504  1.2523 -0.2991 -1.4175
  158OSM   H13B17643   1.495   4.812   1.530 -0.4017 -1.2888  0.8563
  158OSM   H13C17644   1.368   4.895   1.442  0.4837  0.3011 -0.9209
  158OSM    C1217645   1.397   4.767   1.770  0.5959 -0.5838  0.9023
  158OSM   H12A17646   1.505   4.765   1.775  0.6325  1.5450  1.8823
  158OSM   H12B17647   1.366   4.669   1.734  2.0571 -0.1950 -1.6303
  158OSM    C1117648   1.336   4.788   1.906 -0.4149  0.8133 -0.0716
  158OSM   H11A17649   1.318   4.895   1.933 -1.8400  0.9298 -1.3866
  158OSM   H11B17650   1.417   4.750   1.972  0.8964  1.6856 -1.1092
  158OSM      P17651   1.205   4.579   1.999 -0.1632 -0.3810  0.2239
  158OSM    O1317652   1.061   4.551   2.019 -0.0607  0.0747 -0.3957
  158OSM    O1417653   1.289   4.475   1.941  0.2433  1.0206 -0.2214
  158OSM    O1117654   1.273   4.626   2.136  0.1606  0.5583  0.0661
  158OSM    O1217655   1.215   4.718   1.920 -0.0958 -0.1509 -0.2018
  158OSM    C1S17656   1.199   4.651   2.255  0.0245  0.0563  0.0590
  158OSM    H1S17657   1.135   4.562   2.276  0.9024 -0.2122  1.7752
  158OSM    H1T17658   1.130   4.738   2.262  0.0968 -0.0050  2.6436
  158OSM     NF17659   1.236   4.677   2.497 -0.1354  0.2780  0.0499
  158OSM    HNF17660   1.225   4.765   2.543  1.1973  1.4181 -1.6540
  158OSM    C2S17661   1.307   4.676   2.369 -0.2597  0.1141  0.2431
  158OSM    H2S17662   1.381   4.593   2.370 -0.2273  0.1354  1.8974
  158OSM    C3S17663   1.382   4.811   2.348 -0.2218  0.2990  0.8078
  158OSM    H3S17664   1.300   4.886   2.340 -0.0411  0.4595  0.4681
  158OSM     O317665   1.449   4.819   2.223  0.0318  0.0699  1.0859
  158OSM    HO317666   1.410   4.756   2.161 -0.2801  1.7380 -0.5226
  158OSM    C4S17667   1.466   4.858   2.461 -0.4320  0.1194 -0.1324
  158OSM    H4S17668   1.413   4.931   2.523 -1.8096 -0.3677 -0.6888
  158OSM    C5S17669   1.603   4.847   2.469 -0.2819 -0.7677  0.6096
  158OSM    H5S17670   1.655   4.785   2.395 -1.5410 -1.1022 -0.0320
  158OSM    C6S17671   1.680   4.918   2.569  0.1105  0.3450 -0.3467
  158OSM    H6S17672   1.641   5.022   2.577 -2.9530 -0.4888 -2.7120
  158OSM    H6T17673   1.784   4.924   2.531  0.4691  3.0591  0.7995
  158OSM    C7S17674   1.670   4.856   2.708  0.5693  0.0721  0.0176
  158OSM    H7S17675   1.681   4.746   2.701  0.9425  0.2157 -3.7724
  158OSM    H7T17676   1.567   4.874   2.745  0.3346  2.7128 -1.6643
  158OSM    C8S17677   1.771   4.909   2.812  0.3089  0.1331  1.3088
  158OSM    H8S17678   1.766   5.019   2.825  0.9366  0.7876 -2.6439
  158OSM    H8T17679   1.873   4.877   2.781  1.2485  1.2396  3.0890
  158OSM    C9S17680   1.733   4.854   2.952 -0.1209  0.3986 -0.3725
  158OSM    H9S17681   1.694   4.750   2.958 -1.5032  0.9957  2.8340
  158OSM    H9T17682   1.660   4.935   2.976 -0.6059  0.8808 -3.1223
  158OSM   C10S17683   1.850   4.864   3.055  0.1407  0.0480 -0.5605
  158OSM   H10S17684   1.907   4.959   3.044  0.4090 -0.2387 -1.9103
  158OSM   H10T17685   1.918   4.787   3.013 -0.4974 -0.7633 -0.1213
  158OSM   C11S17686   1.804   4.832   3.195 -0.7035 -0.3710  0.1815
  158OSM   H11S17687   1.746   4.738   3.202  4.0167 -3.7997 -1.1939
  158OSM   H11T17688   1.737   4.912   3.231  0.7868  0.9378  0.1639
  158OSM   C12S17689   1.919   4.814   3.295 -0.9143  0.1305 -0.2256
  158OSM   H12S17690   1.993   4.747   3.246  0.1095  0.0269  1.3794
  158OSM   H12T17691   1.884   4.761   3.386  2.3205 -0.8077  0.6166
  158OSM   C13S17692   1.999   4.946   3.336 -0.5375  0.4319 -0.1860
  158OSM   H13S17693   1.935   5.018   3.390 -1.3125 -1.1430  1.0775
  158OSM   H13T17694   2.021   4.999   3.241  0.2058 -1.0508 -0.8831
  158OSM   C14S17695   2.132   4.903   3.402 -0.2361 -0.0015  0.4813
  158OSM   H14S17696   2.200   4.989   3.424 -2.8024  2.0790  0.7680
  158OSM   H14T17697   2.181   4.831   3.333 -2.3364 -0.0590 -1.0314
  158OSM   C15S17698   2.117   4.836   3.535 -0.1369  0.1737  0.0661
  158OSM   H15S17699   2.212   4.792   3.572 -0.3157 -0.2643  0.0161
  158OSM   H15T17700   2.041   4.755   3.538  1.1621 -1.0607  1.9798
  158OSM   C16S17701   2.071   4.944   3.642 -0.6033 -0.1322 -0.3221
  158OSM   H16S17702   1.966   4.975   3.621 -0.9059 -0.1682  1.0454
  158OSM   H16T17703   2.130   5.038   3.628  0.0472 -0.3581  0.8019
  158OSM   C17S17704   2.073   4.903   3.792 -0.0000  0.4938  0.3008
  158OSM   H17S17705   2.162   4.838   3.807 -0.4654 -0.8856 -2.2399
  158OSM   H17T17706   1.985   4.836   3.802  1.3354 -1.5131 -0.6146
  158OSM   C18S17707   2.066   5.018   3.890  0.0934 -0.1991 -0.1161
  158OSM   H18S17708   1.967   5.066   3.877 -0.1931 -0.7835 -0.1267
  158OSM   H18T17709   2.135   5.103   3.871  0.1381 -0.1934  0.0721
  158OSM   H18U17710   2.073   4.984   3.995  0.0969  0.5114  0.1174
  158OSM    C1F17711   1.186   4.562   2.541 -0.3739 -0.1442  0.3932
  158OSM     OF17712   1.222   4.458   2.489  0.2927 -0.3681 -0.2154
  158OSM    C2F17713   1.094   4.559   2.662  0.2262  1.2361 -0.8095
  158OSM    H2F17714   1.005   4.613   2.623  0.0596  1.2549 -0.4002
  158OSM    H2G17715   1.135   4.631   2.736 -1.9536  2.0998 -0.3544
  158OSM    C3F17716   1.064   4.419   2.721 -0.2139 -0.2610 -0.3754
  158OSM    H3F17717   1.161   4.378   2.755 -1.6081 -1.1503  2.9480
  158OSM    H3G17718   1.039   4.354   2.635  0.6899  0.1598 -0.9675
  158OSM    C4F17719   0.958   4.410   2.829 -0.2427  0.1625 -0.1481
  158OSM    H4F17720   0.941   4.307   2.868 -0.7531 -0.5482 -2.1322
  158OSM    H4G17721   0.856   4.438   2.794  0.2710  1.1900 -0.8912
  158OSM    C5F17722   0.986   4.505   2.951 -0.1125  0.4160  0.8569
  158OSM    H5F17723   1.003   4.604   2.904 -0.9043 -0.1271 -0.6839
  158OSM    H5G17724   1.075   4.476   3.010  0.7491  0.0886 -0.5382
  158OSM    C6F17725   0.863   4.513   3.040 -0.5772  0.4964  0.6238
  158OSM    H6F17726   0.841   4.414   3.084 -0.2806 -0.1664 -0.6824
  158OSM    H6G17727   0.772   4.534   2.980 -0.3149  0.8580  0.3396
  158OSM    C7F17728   0.867   4.604   3.168 -0.3054 -0.4043  0.5660
  158OSM    H7F17729   0.778   4.572   3.225  0.1109 -1.3931  0.6760
  158OSM    H7G17730   0.857   4.706   3.123  1.7328 -1.4482 -2.6154
  158OSM    C8F17731   0.990   4.613   3.261 -0.0308 -0.3791  0.5288
  158OSM    H8F17732   0.980   4.705   3.322  1.3528  0.7679 -0.8789
  158OSM    H8G17733   1.081   4.635   3.201  1.0546 -0.0957  2.2082
  158OSM    C9F17734   1.011   4.483   3.332 -0.5121  0.9381  0.3344
  158OSM    H9F17735   1.028   4.393   3.271  0.7584 -0.9068  3.1609
  158OSM   C10F17736   1.023   4.465   3.468 -0.0473  0.4245  0.9868
  158OSM   H10F17737   1.047   4.362   3.498  1.5588  1.0205  1.8818
  158OSM   C11F17738   0.996   4.567   3.573  0.4425 -0.8762 -0.1404
  158OSM   H11F17739   0.902   4.540   3.626  1.4314 -0.4914  1.9195
  158OSM   H11G17740   0.981   4.671   3.538  0.0753 -0.4432  1.2585
  158OSM   C12F17741   1.111   4.566   3.681  0.5964 -0.4632  0.1516
  158OSM   H12F17742   1.208   4.594   3.634  1.3109  0.0098  1.8029
  158OSM   H12G17743   1.121   4.465   3.725 -0.1670 -0.8217 -0.4777
  158OSM   C13F17744   1.104   4.678   3.786  0.3909  0.8231  0.3031
  158OSM   H13F17745   1.019   4.654   3.853  1.2312 -2.0634  0.4890
  158OSM   H13G17746   1.095   4.780   3.742  1.5926  0.7713 -0.0881
  158OSM   C14F17747   1.217   4.676   3.891  0.3071  0.4596  0.1958
  158OSM   H14F17748   1.218   4.766   3.958  1.3273  0.9238 -0.4114
  158OSM   H14G17749   1.321   4.665   3.853  0.3440  0.1402  0.3861
  158OSM   C15F17750   1.214   4.557   3.995 -0.0988  0.0006  0.1182
  158OSM   H15F17751   1.246   4.466   3.940 -0.7105 -0.7555  0.9913
  158OSM   H15G17752   1.113   4.549   4.040 -0.2592 -0.1352 -0.2689
  158OSM   C16F17753   1.318   4.572   4.102  0.1606  0.4971 -0.6774
  158OSM   H16F17754   1.308   4.677   4.134 -1.3909 -0.6787  3.3509
  158OSM   H16G17755   1.414   4.560   4.048  0.3906  1.6877 -0.5558
  158OSM   C17F17756   1.292   4.489   4.225  0.1831  0.2797 -0.1474
  158OSM   H17F17757   1.306   4.381   4.201  0.2670  0.3011 -0.1945
  158OSM   H17G17758   1.185   4.498   4.254  0.8751  1.4166  2.2851
  158OSM   C18F17759   1.380   4.519   4.353  0.0170 -0.5909 -0.2704
  158OSM   H18F17760   1.372   4.625   4.387 -0.3350 -0.7078  0.0179
  158OSM   H18G17761   1.484   4.507   4.317 -0.5103  0.1536 -2.2022
  158OSM   H18H17762   1.355   4.453   4.438 -3.5816  1.2545  0.2883
  159OSM      N17763   5.634   2.786   2.280  0.0650  0.4359 -0.3594
  159OSM    C1517764   5.696   2.669   2.351  0.3698 -0.0528 -0.9738
  159OSM   H15A17765   5.686   2.580   2.291 -0.9300 -0.3023 -0.4347
  159OSM   H15B17766   5.629   2.650   2.434 -0.1045 -1.9560 -1.7430
  159OSM   H15C17767   5.796   2.697   2.379  0.4906  0.6869 -2.1114
  159OSM    C1417768   5.734   2.853   2.186  0.5191  0.5197 -0.3951
  159OSM   H14A17769   5.816   2.886   2.248  0.6720 -1.0666  0.3100
  159OSM   H14B17770   5.686   2.933   2.131  1.1831  0.1503 -1.5440
  159OSM   H14C17771   5.779   2.779   2.122 -0.8118  1.2501 -2.2468
  159OSM    C1317772   5.514   2.737   2.203  0.1696  0.2159  0.2806
  159OSM   H13A17773   5.537   2.684   2.112 -2.4978 -2.2084  0.8814
  159OSM   H13B17774   5.455   2.815   2.156 -2.0101 -1.9440 -0.7754
  159OSM   H13C17775   5.452   2.673   2.264  0.3328  1.1986  1.5118
  159OSM    C1217776   5.610   2.890   2.384 -0.2959 -0.2725  0.0632
  159OSM   H12A17777   5.705   2.911   2.432 -0.2526 -1.0314  0.3152
  159OSM   H12B17778   5.558   2.843   2.465  0.2287  0.7310  1.0102
  159OSM    C1117779   5.550   3.024   2.345  0.0288 -0.2523  0.0102
  159OSM   H11A17780   5.509   3.070   2.437 -1.0987 -0.5110 -0.3511
  159OSM   H11B17781   5.454   3.003   2.294  0.7279 -0.4495 -1.2765
  159OSM      P17782   5.668   3.259   2.311 -0.1867  0.0425  0.7381
  159OSM    O1317783   5.755   3.252   2.429  0.1503 -0.2083  0.0855
  159OSM    O1417784   5.729   3.335   2.195 -0.0402  0.1446 -0.0783
  159OSM    O1117785   5.536   3.320   2.344 -0.1263  0.3465  0.3315
  159OSM    O1217786   5.636   3.105   2.270 -0.1479  0.2314  0.4296
  159OSM    C1S17787   5.500   3.453   2.379 -0.2787  0.1709 -0.8684
  159OSM    H1S17788   5.435   3.501   2.303 -0.7024 -1.2825 -1.4554
  159OSM    H1T17789   5.582   3.527   2.385 -2.1820  2.3433 -0.2306
  159OSM     NF17790   5.426   3.615   2.568 -0.3700  0.3473  0.3560
  159OSM    HNF17791   5.491   3.632   2.641  0.1992  2.1732 -0.5167
  159OSM    C2S17792   5.416   3.471   2.519 -0.4478 -0.4520 -0.1518
  159OSM    H2S17793   5.312   3.444   2.493 -0.9382  0.8373  0.4237
  159OSM    C3S17794   5.460   3.378   2.643  0.2668  0.0327 -0.1167
  159OSM    H3S17795   5.559   3.416   2.676  0.7119 -0.5359 -0.7744
  159OSM     O317796   5.483   3.247   2.608 -0.7738  0.0873 -0.6051
  159OSM    HO317797   5.499   3.260   2.514 -0.4809 -2.7082 -1.0277
  159OSM    C4S17798   5.357   3.393   2.756  0.2094 -0.2691 -0.0302
  159OSM    H4S17799   5.411   3.431   2.844 -3.5390  1.0168  1.9824
  159OSM    C5S17800   5.226   3.374   2.759 -0.1397  0.5480  0.0496
  159OSM    H5S17801   5.179   3.352   2.662  0.6952  1.4291 -0.5711
  159OSM    C6S17802   5.133   3.380   2.878  0.0735  0.3522 -0.0309
  159OSM    H6S17803   5.104   3.275   2.901 -2.6120  1.2439  1.0886
  159OSM    H6T17804   5.037   3.432   2.857 -0.7556 -0.7704  0.8331
  159OSM    C7S17805   5.196   3.429   3.011 -0.1456 -1.2030 -0.1820
  159OSM    H7S17806   5.228   3.534   2.993  0.1343 -1.3162 -0.3499
  159OSM    H7T17807   5.283   3.365   3.039 -1.5975 -1.9075  3.2200
  159OSM    C8S17808   5.109   3.414   3.134 -0.0107 -0.0281 -0.2190
  159OSM    H8S17809   5.058   3.316   3.149  0.9971 -0.2466  2.3382
  159OSM    H8T17810   5.030   3.492   3.140 -0.4276 -0.3705 -1.0940
  159OSM    C9S17811   5.201   3.431   3.259 -0.2399 -0.0355  0.1971
  159OSM    H9S17812   5.235   3.535   3.278 -0.2722 -0.2538  1.5112
  159OSM    H9T17813   5.294   3.371   3.259  1.3115  2.1760  1.9814
  159OSM   C10S17814   5.131   3.394   3.391 -0.7787 -0.0879 -0.5279
  159OSM   H10S17815   5.102   3.287   3.402 -0.2353 -0.4044 -1.9574
  159OSM   H10T17816   5.039   3.456   3.401 -1.3281 -1.0106  0.2714
  159OSM   C11S17817   5.213   3.440   3.513 -0.0201  0.3283  0.2153
  159OSM   H11S17818   5.237   3.549   3.503 -0.6989  0.4130 -0.6322
  159OSM   H11T17819   5.310   3.387   3.506  0.2875  0.9553 -0.3889
  159OSM   C12S17820   5.153   3.417   3.654  0.0170 -0.1243 -0.1770
  159OSM   H12S17821   5.135   3.308   3.667  1.0116 -0.4147 -1.1086
  159OSM   H12T17822   5.063   3.476   3.680  1.5806  1.8207  1.1433
  159OSM   C13S17823   5.258   3.455   3.763 -0.1132  0.6423 -0.2716
  159OSM   H13S17824   5.295   3.559   3.775 -0.5554  0.6123  1.6751
  159OSM   H13T17825   5.347   3.388   3.756 -0.1017  0.2302  2.6915
  159OSM   C14S17826   5.207   3.404   3.899  0.6023  0.2840 -0.4450
  159OSM   H14S17827   5.291   3.419   3.971 -1.9024 -1.3758  3.1357
  159OSM   H14T17828   5.189   3.294   3.892  3.3321 -0.1697 -1.7676
  159OSM   C15S17829   5.087   3.472   3.952  0.0494  0.1190 -0.5819
  159OSM   H15S17830   5.003   3.433   3.891 -1.1304 -1.4393  1.8536
  159OSM   H15T17831   5.094   3.582   3.938  2.8877  0.0926  0.1510
  159OSM   C16S17832   5.056   3.459   4.104  0.5948  0.7871  0.2596
  159OSM   H16S17833   5.128   3.525   4.158  1.2380  0.6860 -0.4519
  159OSM   H16T17834   5.064   3.354   4.138  1.4330  0.5260 -0.6730
  159OSM   C17S17835   4.919   3.509   4.151 -0.2630  0.5483  0.3877
  159OSM   H17S17836   4.843   3.468   4.082  0.2056 -1.1367  0.8286
  159OSM   H17T17837   4.930   3.620   4.145 -0.7564  0.6455  1.0888
  159OSM   C18S17838   4.885   3.471   4.294  0.2456  1.0263 -0.6790
  159OSM   H18S17839   4.950   3.514   4.374 -1.2881  0.4893  0.9128
  159OSM   H18T17840   4.899   3.361   4.291  0.7383  1.1176 -2.6820
  159OSM   H18U17841   4.782   3.506   4.316  0.4058  2.0348 -1.4594
  159OSM    C1F17842   5.386   3.722   2.509  0.4553 -0.0316  0.7423
  159OSM     OF17843   5.329   3.729   2.400  0.0280  0.1144 -0.1976
  159OSM    C2F17844   5.417   3.840   2.594  0.1185 -0.2129  0.2246
  159OSM    H2F17845   5.522   3.829   2.631  0.4282  2.8384  0.4994
  159OSM    H2G17846   5.350   3.853   2.681 -0.5829 -1.3603 -0.1277
  159OSM    C3F17847   5.419   3.979   2.517  0.4576  0.1347 -0.4392
  159OSM    H3F17848   5.313   3.986   2.484  0.3534 -2.3968 -0.8278
  159OSM    H3G17849   5.478   3.984   2.422 -1.2583  0.6415 -1.5286
  159OSM    C4F17850   5.453   4.101   2.607  0.1974 -0.1973  0.3528
  159OSM    H4F17851   5.415   4.066   2.705  1.7659 -0.1656  1.0086
  159OSM    H4G17852   5.398   4.191   2.573 -0.3236  0.0651  1.8167
  159OSM    C5F17853   5.606   4.130   2.607  0.1190 -0.5722 -0.6698
  159OSM    H5F17854   5.637   4.146   2.501  0.7194  2.3272 -0.1512
  159OSM    H5G17855   5.659   4.039   2.639  1.4852  0.2296 -0.5861
  159OSM    C6F17856   5.652   4.248   2.699  0.2928  0.3070  0.5801
  159OSM    H6F17857   5.609   4.344   2.663 -1.0064 -0.4244  0.1284
  159OSM    H6G17858   5.763   4.243   2.697  0.2708 -0.0417 -0.2609
  159OSM    C7F17859   5.605   4.210   2.838  0.0959 -0.2101  0.5487
  159OSM    H7F17860   5.623   4.106   2.872  0.6989 -0.3216 -0.1016
  159OSM    H7G17861   5.494   4.212   2.844  0.1594  0.7005  1.7994
  159OSM    C8F17862   5.668   4.306   2.944 -0.2245  0.0779  0.0842
  159OSM    H8F17863   5.779   4.293   2.942 -0.4455 -1.9733 -0.7272
  159OSM    H8G17864   5.629   4.280   3.045  0.1535 -1.2454 -0.0956
  159OSM    C9F17865   5.647   4.454   2.915  0.4440 -0.0371  0.2848
  159OSM    H9F17866   5.622   4.475   2.810 -1.5330 -2.0471  0.2629
  159OSM   C10F17867   5.653   4.559   2.998 -0.0909 -0.4315 -0.1880
  159OSM   H10F17868   5.602   4.654   2.975  0.9926  0.2538  0.1755
  159OSM   C11F17869   5.690   4.560   3.151  0.2659 -0.0272 -0.0227
  159OSM   H11F17870   5.711   4.458   3.189  1.2705  0.2355  0.1462
  159OSM   H11G17871   5.617   4.602   3.225 -0.5639 -0.1472 -0.7496
  159OSM   C12F17872   5.817   4.638   3.175  0.1108  0.5405 -0.1862
  159OSM   H12F17873   5.796   4.747   3.170 -1.5409  0.2046 -3.0275
  159OSM   H12G17874   5.894   4.605   3.101  2.2689 -3.1784  3.3576
  159OSM   C13F17875   5.889   4.596   3.305 -1.0431  0.7041  0.3174
  159OSM   H13F17876   5.995   4.625   3.292 -0.5175 -1.2690 -0.2494
  159OSM   H13G17877   5.893   4.485   3.317  0.4609  0.6268 -0.6348
  159OSM   C14F17878   5.824   4.662   3.425 -0.3122 -0.7023 -0.2369
  159OSM   H14F17879   5.718   4.629   3.429 -0.6806  0.2626 -1.4987
  159OSM   H14G17880   5.831   4.768   3.393 -1.5236 -0.9344 -1.3394
  159OSM   C15F17881   5.900   4.626   3.556 -0.1288  0.4662 -0.4125
  159OSM   H15F17882   6.000   4.674   3.554  0.8179 -1.4472 -1.0474
  159OSM   H15G17883   5.901   4.516   3.572  0.3619  0.5539  0.2065
  159OSM   C16F17884   5.838   4.693   3.684  0.5364  0.4641 -0.9158
  159OSM   H16F17885   5.733   4.658   3.693  0.9827 -0.5708  0.5777
  159OSM   H16G17886   5.827   4.804   3.678 -0.7788  0.3418 -1.0572
  159OSM   C17F17887   5.920   4.656   3.812 -0.9949  0.0290 -0.3895
  159OSM   H17F17888   6.022   4.697   3.798 -1.0110  0.3649  0.3984
  159OSM   H17G17889   5.925   4.545   3.809  2.1480  0.0800 -0.8525
  159OSM   C18F17890   5.859   4.708   3.942  0.2594 -0.1229  0.0798
  159OSM   H18F17891   5.862   4.819   3.946  2.8088 -0.1723  2.0432
  159OSM   H18G17892   5.913   4.667   4.030  0.9237  1.5315  0.4827
  159OSM   H18H17893   5.751   4.682   3.944  0.6873 -2.0488  1.9017
  160OSM      N17894   2.470   5.329   1.916 -0.3218 -0.2524 -0.1263
  160OSM    C1517895   2.584   5.261   1.987 -0.2461 -0.0146 -1.1532
  160OSM   H15A17896   2.597   5.282   2.092 -0.5195 -0.6143 -0.9976
  160OSM   H15B17897   2.676   5.287   1.937  0.1639 -3.3963 -2.4213
  160OSM   H15C17898   2.577   5.154   1.981 -1.7759 -0.0388  0.2083
  160OSM    C1417899   2.469   5.271   1.776 -0.7005  0.3029 -0.8366
  160OSM   H14A17900   2.560   5.300   1.725 -0.6561 -0.6408 -1.3014
  160OSM   H14B17901   2.380   5.312   1.731  0.0209  2.1296 -0.6914
  160OSM   H14C17902   2.472   5.164   1.785  2.3873  0.4184  1.3415
  160OSM    C1317903   2.343   5.287   1.974  0.3877 -0.3565  0.3790
  160OSM   H13A17904   2.350   5.289   2.082 -1.8156  0.3955  0.5599
  160OSM   H13B17905   2.318   5.188   1.940 -4.4420  0.1540  1.7013
  160OSM   H13C17906   2.261   5.352   1.947  0.4360 -0.0310  0.9933
  160OSM    C1217907   2.491   5.476   1.925  0.2584  0.3766 -0.7056
  160OSM   H12A17908   2.593   5.495   1.897  0.5235 -0.1961 -0.1309
  160OSM   H12B17909   2.473   5.498   2.029  1.7034 -2.2161  0.1752
  160OSM    C1117910   2.403   5.575   1.837  0.1034  0.3598 -0.1901
  160OSM   H11A17911   2.417   5.524   1.739  3.2859 -0.4106  0.5705
  160OSM   H11B17912   2.450   5.675   1.845 -0.7700  0.8692 -1.1327
  160OSM      P17913   2.210   5.653   1.992 -0.2665 -0.1492  0.0112
  160OSM    O1317914   2.172   5.786   1.945 -0.3363  0.0224 -0.4245
  160OSM    O1417915   2.098   5.567   2.053 -0.1809  0.1212 -0.1098
  160OSM    O1117916   2.325   5.657   2.095  0.0324  0.2977 -0.3710
  160OSM    O1217917   2.266   5.576   1.875  0.3926 -0.4483 -0.2886
  160OSM    C1S17918   2.396   5.763   2.169  0.6653  0.0085  0.4376
  160OSM    H1S17919   2.342   5.859   2.157  0.7959  0.3134  2.0769
  160OSM    H1T17920   2.500   5.773   2.130  1.3715  2.0845  2.6157
  160OSM     NF17921   2.435   5.851   2.390  0.1676 -0.3221 -0.0261
  160OSM    HNF17922   2.527   5.867   2.424  0.2015 -0.0983 -0.2265
  160OSM    C2S17923   2.400   5.730   2.322  0.1548  0.1421  0.3956
  160OSM    H2S17924   2.293   5.707   2.345  0.7411 -2.0459  1.1588
  160OSM    C3S17925   2.496   5.614   2.350 -0.7028  0.6668 -0.6355
  160OSM    H3S17926   2.592   5.652   2.307 -0.2456 -0.7411 -0.9204
  160OSM     O317927   2.475   5.497   2.266  0.1712 -0.0261 -0.2401
  160OSM    HO317928   2.410   5.539   2.209 -1.3484 -1.6352  0.2359
  160OSM    C4S17929   2.509   5.576   2.490  0.1114  0.1823  0.3884
  160OSM    H4S17930   2.591   5.632   2.538 -0.8534  1.6643  0.3732
  160OSM    C5S17931   2.444   5.478   2.555 -0.4672  0.5874 -0.1117
  160OSM    H5S17932   2.375   5.412   2.500 -0.4667 -1.5887  2.3351
  160OSM    C6S17933   2.460   5.449   2.705 -1.0138  0.4304 -0.0617
  160OSM    H6S17934   2.566   5.443   2.737 -1.0624  1.6799  0.3894
  160OSM    H6T17935   2.409   5.351   2.714 -0.3657 -0.0386 -1.3097
  160OSM    C7S17936   2.386   5.533   2.803 -0.0622  0.2216 -0.1626
  160OSM    H7S17937   2.277   5.518   2.785  0.0159 -1.1369  0.4163
  160OSM    H7T17938   2.409   5.642   2.799  1.3167 -0.0802 -1.1913
  160OSM    C8S17939   2.421   5.486   2.945  0.1393  0.0619 -0.2768
  160OSM    H8S17940   2.530   5.499   2.963 -0.0727 -0.6855  1.8285
  160OSM    H8T17941   2.412   5.378   2.966 -0.9398 -0.0324 -1.1228
  160OSM    C9S17942   2.336   5.559   3.047 -0.8799 -0.2723 -0.0993
  160OSM    H9S17943   2.228   5.536   3.034 -0.5013 -1.3578 -1.7536
  160OSM    H9T17944   2.343   5.666   3.017 -4.6252  0.1366  0.0538
  160OSM   C10S17945   2.379   5.530   3.192  0.8700 -0.3022 -0.3042
  160OSM   H10S17946   2.486   5.550   3.210  0.4818  0.4668  1.3230
  160OSM   H10T17947   2.360   5.423   3.218 -0.5638  0.5768  2.7234
  160OSM   C11S17948   2.297   5.615   3.292 -1.0492  0.1058 -0.8581
  160OSM   H11S17949   2.189   5.591   3.284 -0.8413 -0.6206 -1.6662
  160OSM   H11T17950   2.305   5.724   3.273  0.3437  0.7143  2.5426
  160OSM   C12S17951   2.334   5.583   3.440 -0.1063 -0.7082 -0.2363
  160OSM   H12S17952   2.311   5.479   3.473  1.6827 -0.6517  1.2984
  160OSM   H12T17953   2.266   5.649   3.498  0.1170 -0.6791 -0.0073
  160OSM   C13S17954   2.472   5.611   3.489  0.5402  0.2556  0.1988
  160OSM   H13S17955   2.502   5.711   3.451  2.4048 -0.6614 -0.8945
  160OSM   H13T17956   2.545   5.542   3.443  3.6303  3.2525  0.1571
  160OSM   C14S17957   2.506   5.616   3.644 -0.1848  0.3165  0.0789
  160OSM   H14S17958   2.469   5.703   3.703  0.6527 -0.2289  1.4447
  160OSM   H14T17959   2.616   5.621   3.657 -0.0745 -0.3349 -0.5198
  160OSM   C15S17960   2.455   5.497   3.730  0.4114  0.1177  0.8354
  160OSM   H15S17961   2.476   5.406   3.670 -0.9382  0.5108 -0.2907
  160OSM   H15T17962   2.344   5.493   3.725  0.4029 -2.8611  1.4547
  160OSM   C16S17963   2.506   5.500   3.871 -0.0523 -0.2719 -0.2150
  160OSM   H16S17964   2.451   5.581   3.922  0.7608  0.6144 -0.7210
  160OSM   H16T17965   2.614   5.529   3.870 -0.4059  1.2860 -2.4852
  160OSM   C17S17966   2.492   5.368   3.958 -0.0845 -0.2004  0.4753
  160OSM   H17S17967   2.381   5.357   3.966 -0.4683  1.9276 -1.0676
  160OSM   H17T17968   2.522   5.385   4.063 -1.3553 -1.4295  1.0807
  160OSM   C18S17969   2.572   5.258   3.893  0.7706  0.9720 -0.1165
  160OSM   H18S17970   2.670   5.297   3.859 -0.2801  2.9788 -0.9521
  160OSM   H18T17971   2.512   5.225   3.806  0.9422  1.9733 -0.6219
  160OSM   H18U17972   2.595   5.164   3.948 -0.5206 -0.3172 -1.6822
  160OSM    C1F17973   2.340   5.940   2.423 -0.9657  0.0045  0.2018
  160OSM     OF17974   2.237   5.952   2.360  0.3903  0.4289 -0.5928
  160OSM    C2F17975   2.380   6.033   2.532 -0.1408 -0.6706 -0.2158
  160OSM    H2F17976   2.367   6.138   2.497  1.6800 -1.2511 -3.0364
  160OSM    H2G17977   2.489   6.016   2.548  0.5476  1.0235 -2.5159
  160OSM    C3F17978   2.308   5.991   2.665 -1.1363 -0.8233  0.0014
  160OSM    H3F17979   2.339   5.890   2.699 -1.6546 -1.4570 -1.3346
  160OSM    H3G17980   2.199   5.994   2.644 -1.6615  1.2612  2.4445
  160OSM    C4F17981   2.336   6.094   2.778  0.9527  0.6173  0.3575
  160OSM    H4F17982   2.301   6.197   2.755 -0.7019 -0.0606 -0.3436
  160OSM    H4G17983   2.445   6.087   2.797  0.6240 -0.9858  1.9360
  160OSM    C5F17984   2.253   6.065   2.900 -0.3253 -0.4504  0.9303
  160OSM    H5F17985   2.290   5.966   2.934  1.9151 -0.7821 -2.0793
  160OSM    H5G17986   2.144   6.057   2.879 -0.5465  2.4323  0.4885
  160OSM    C6F17987   2.261   6.169   3.011 -0.1095 -0.7651 -0.1361
  160OSM    H6F17988   2.232   6.267   2.967  0.7156 -0.0492  0.8567
  160OSM    H6G17989   2.361   6.171   3.059 -1.1611 -1.3176  2.2361
  160OSM    C7F17990   2.169   6.149   3.129  0.0791 -0.5941  0.2875
  160OSM    H7F17991   2.195   6.051   3.174 -0.1285 -1.9084 -2.2794
  160OSM    H7G17992   2.067   6.147   3.083  0.6537  1.5857 -1.2143
  160OSM    C8F17993   2.163   6.264   3.236  0.1814 -0.0308  0.5963
  160OSM    H8F17994   2.114   6.353   3.190 -0.0079  0.0537  0.9615
  160OSM    H8G17995   2.267   6.298   3.252  0.6005 -0.6127 -0.7117
  160OSM    C9F17996   2.106   6.223   3.368 -0.9080 -0.0719  0.2404
  160OSM    H9F17997   2.016   6.161   3.355 -1.7432  0.9577  0.9054
  160OSM   C10F17998   2.137   6.258   3.492  0.1513 -0.2099  0.7172
  160OSM   H10F17999   2.093   6.196   3.572  2.9957 -3.6575 -0.1134
  160OSM   C11F18000   2.244   6.361   3.535 -0.2306  0.3882  0.0669
  160OSM   H11F18001   2.214   6.421   3.624 -0.2291  1.9935 -0.9808
  160OSM   H11G18002   2.264   6.439   3.459  0.6363  0.3679  0.2727
  160OSM   C12F18003   2.386   6.298   3.546 -0.2314  0.2805  0.5470
  160OSM   H12F18004   2.455   6.384   3.533 -3.7747  3.1938 -1.1558
  160OSM   H12G18005   2.403   6.236   3.456  1.3565  1.6388 -0.1449
  160OSM   C13F18006   2.407   6.221   3.678 -0.2056  0.2650 -1.3536
  160OSM   H13F18007   2.507   6.175   3.690 -0.2837  0.5881  0.9563
  160OSM   H13G18008   2.344   6.129   3.670  1.7989 -1.4830  1.4433
  160OSM   C14F18009   2.372   6.301   3.812 -0.0940 -0.4240 -0.3070
  160OSM   H14F18010   2.358   6.230   3.896  1.6794  0.9885  1.2879
  160OSM   H14G18011   2.277   6.358   3.806  0.1254  0.2941  2.0256
  160OSM   C15F18012   2.493   6.390   3.862 -1.2215  0.1465 -0.2632
  160OSM   H15F18013   2.500   6.469   3.784 -0.4263 -0.3636 -0.7262
  160OSM   H15G18014   2.589   6.336   3.873  0.2300  2.6223 -0.0023
  160OSM   C16F18015   2.454   6.471   3.994  0.5772  0.2030 -0.1121
  160OSM   H16F18016   2.537   6.518   4.050 -2.2287  2.0474  2.8162
  160OSM   H16G18017   2.414   6.393   4.063 -1.3806  0.7604 -0.5697
  160OSM   C17F18018   2.332   6.571   3.980  0.7682 -0.2190 -0.3776
  160OSM   H17F18019   2.239   6.519   3.950 -0.3509  1.8762 -0.7468
  160OSM   H17G18020   2.366   6.640   3.899  2.2810  0.1923  0.5613
  160OSM   C18F18021   2.311   6.642   4.110 -0.1851  0.0376 -0.2492
  160OSM   H18F18022   2.305   6.575   4.198 -1.4426 -2.0951 -1.8727
  160OSM   H18G18023   2.214   6.692   4.089  0.5515  1.4257 -0.4949
  160OSM   H18H18024   2.387   6.723   4.116  0.9475 -0.7188 -2.9820
  161OSM      N18025   6.788   5.233   2.069 -0.3304  0.4514 -0.6823
  161OSM    C1518026   6.904   5.315   2.021 -0.1742 -0.2390 -0.1749
  161OSM   H15A18027   6.885   5.419   2.040  0.6701  0.7647 -3.9872
  161OSM   H15B18028   6.910   5.299   1.914  0.4079 -2.1461  0.0967
  161OSM   H15C18029   6.998   5.297   2.071 -0.2629  1.2267  0.5636
  161OSM    C1418030   6.664   5.250   1.982 -0.0439 -0.4790  0.4100
  161OSM   H14A18031   6.604   5.333   2.016  0.7945 -0.2230  1.3264
  161OSM   H14B18032   6.609   5.158   1.980  2.0451 -1.7923  0.2991
  161OSM   H14C18033   6.696   5.266   1.880 -1.5471 -1.3700 -0.2300
  161OSM    C1318034   6.832   5.090   2.044  0.6978  0.0468 -0.2766
  161OSM   H13A18035   6.931   5.072   2.083  0.2850 -0.2802  0.6532
  161OSM   H13B18036   6.846   5.075   1.938 -0.6904  0.4595 -0.5400
  161OSM   H13C18037   6.775   5.008   2.086 -1.4280 -0.0333 -3.0950
  161OSM    C1218038   6.747   5.259   2.222  0.0095  0.3500  0.2853
  161OSM   H12A18039   6.831   5.246   2.289 -1.4837  0.4380  2.2567
  161OSM   H12B18040   6.664   5.201   2.260 -0.2668  2.1726  2.7336
  161OSM    C1118041   6.707   5.401   2.255 -0.1466 -0.7185  0.8855
  161OSM   H11A18042   6.790   5.467   2.221 -0.7752  0.1252  0.9831
  161OSM   H11B18043   6.687   5.410   2.364 -1.3812 -2.0685  0.8031
  161OSM      P18044   6.543   5.590   2.191  0.3030 -0.0313  0.1041
  161OSM    O1318045   6.654   5.662   2.122 -0.5841 -0.2530 -0.4700
  161OSM    O1418046   6.408   5.605   2.138  0.5069 -0.0529  0.3568
  161OSM    O1118047   6.537   5.619   2.348  0.4734  0.2154 -0.0154
  161OSM    O1218048   6.583   5.436   2.188 -0.0107  0.2400 -0.0071
  161OSM    C1S18049   6.429   5.553   2.424  0.0653 -0.9408  0.1725
  161OSM    H1S18050   6.399   5.462   2.367  0.1889 -1.3507  0.7545
  161OSM    H1T18051   6.343   5.623   2.430 -0.0008 -1.0973  1.0322
  161OSM     NF18052   6.351   5.451   2.640  0.1130 -0.4570  0.1819
  161OSM    HNF18053   6.301   5.496   2.714  1.1984 -0.6556  1.0549
  161OSM    C2S18054   6.465   5.509   2.567  0.5814 -0.2288 -0.1964
  161OSM    H2S18055   6.540   5.429   2.550  1.2924  0.4589 -0.3489
  161OSM    C3S18056   6.522   5.636   2.638 -0.3391 -0.6869  0.3534
  161OSM    H3S18057   6.436   5.707   2.641 -1.1684 -1.6355 -0.0752
  161OSM     O318058   6.631   5.704   2.571 -0.4132 -0.4914 -1.1953
  161OSM    HO318059   6.630   5.673   2.480 -0.0399 -1.4732 -0.8799
  161OSM    C4S18060   6.548   5.604   2.787 -0.1774  0.3803 -0.1912
  161OSM    H4S18061   6.474   5.654   2.851 -0.3365  1.5833 -1.2687
  161OSM    C5S18062   6.645   5.532   2.836  0.1208  0.0564  0.5039
  161OSM    H5S18063   6.730   5.494   2.776  1.2527  2.2735  0.5944
  161OSM    C6S18064   6.674   5.493   2.973  0.1160  0.0716  0.7128
  161OSM    H6S18065   6.772   5.535   3.004  1.0506  0.1085 -2.0073
  161OSM    H6T18066   6.703   5.387   2.982 -0.4796 -0.4290 -2.2079
  161OSM    C7S18067   6.559   5.514   3.071 -0.3039  0.1926 -0.5819
  161OSM    H7S18068   6.466   5.464   3.039 -1.3888  1.7617 -0.0156
  161OSM    H7T18069   6.523   5.619   3.082 -3.8086 -0.7738 -1.5371
  161OSM    C8S18070   6.579   5.451   3.207  0.4726  0.9328  0.2477
  161OSM    H8S18071   6.504   5.498   3.274 -1.1777 -0.1525 -0.7560
  161OSM    H8T18072   6.676   5.479   3.253  0.7379 -1.1667  1.0768
  161OSM    C9S18073   6.568   5.298   3.207  0.0939 -0.4210  0.3469
  161OSM    H9S18074   6.637   5.250   3.134 -1.3791 -0.1295 -1.2998
  161OSM    H9T18075   6.465   5.270   3.177 -0.2671  0.1268  1.0415
  161OSM   C10S18076   6.584   5.240   3.355  0.3470  0.3250 -0.0316
  161OSM   H10S18077   6.686   5.266   3.390  0.1975  0.4429  0.3306
  161OSM   H10T18078   6.576   5.129   3.354  0.8445  0.2832 -1.5148
  161OSM   C11S18079   6.475   5.301   3.451 -0.1355 -0.0911 -0.3188
  161OSM   H11S18080   6.373   5.267   3.422 -0.1720 -1.6684  1.5019
  161OSM   H11T18081   6.479   5.412   3.465 -1.2448 -0.4042  3.4932
  161OSM   C12S18082   6.497   5.244   3.585 -0.3557 -0.1522 -0.1841
  161OSM   H12S18083   6.502   5.134   3.572 -0.2125 -0.2967  0.9925
  161OSM   H12T18084   6.406   5.255   3.647 -0.7329 -1.4689 -0.4792
  161OSM   C13S18085   6.617   5.305   3.657  0.1373  0.8705  0.5309
  161OSM   H13S18086   6.627   5.415   3.645 -0.5445  0.6952 -2.5635
  161OSM   H13T18087   6.704   5.260   3.606  0.3965  2.7225 -0.7674
  161OSM   C14S18088   6.625   5.260   3.806 -0.1523 -0.1372  0.4989
  161OSM   H14S18089   6.622   5.149   3.806  2.0184 -0.2517  1.8651
  161OSM   H14T18090   6.536   5.287   3.866 -1.6826 -0.2220 -1.6101
  161OSM   C15S18091   6.755   5.291   3.877 -0.9709 -0.1411 -0.0382
  161OSM   H15S18092   6.786   5.397   3.866  0.8806 -0.8177 -1.8617
  161OSM   H15T18093   6.840   5.238   3.829 -0.2242  0.8560  0.1424
  161OSM   C16S18094   6.746   5.261   4.022 -0.1130  0.3351  0.0953
  161OSM   H16S18095   6.683   5.171   4.039  0.8032 -0.2528  0.4193
  161OSM   H16T18096   6.692   5.353   4.051 -0.6036  1.0653 -2.7509
  161OSM   C17S18097   6.879   5.234   4.092 -0.4731  0.0635 -0.0419
  161OSM   H17S18098   6.955   5.309   4.061  0.0516 -0.9551 -1.3383
  161OSM   H17T18099   6.919   5.134   4.065  0.4885  1.2290 -3.5320
  161OSM   C18S18100   6.864   5.245   4.245 -0.0654 -0.4446  0.2681
  161OSM   H18S18101   6.951   5.200   4.298  0.6124 -1.8147 -1.8612
  161OSM   H18T18102   6.767   5.195   4.263 -0.3620 -1.5543 -3.4973
  161OSM   H18U18103   6.855   5.349   4.282  0.1389 -0.8661  1.5261
  161OSM    C1F18104   6.309   5.323   2.609  0.0720  0.3003  0.0992
  161OSM     OF18105   6.359   5.262   2.519 -0.0601 -0.3182  0.6819
  161OSM    C2F18106   6.210   5.257   2.708  0.3141 -0.9260  0.1765
  161OSM    H2F18107   6.113   5.306   2.683  2.0171  2.1928 -0.9253
  161OSM    H2G18108   6.221   5.298   2.811 -1.7341  2.8074 -0.9086
  161OSM    C3F18109   6.207   5.106   2.699 -0.3736 -0.1051 -0.2623
  161OSM    H3F18110   6.202   5.071   2.594  0.4049  2.2935 -1.1594
  161OSM    H3G18111   6.114   5.057   2.736 -0.2221 -0.1883  0.0111
  161OSM    C4F18112   6.318   5.044   2.781 -0.8367 -0.0523 -0.7500
  161OSM    H4F18113   6.414   5.040   2.725  0.9013 -0.8986  2.0912
  161OSM    H4G18114   6.301   4.934   2.786  1.9162 -0.4855  1.4208
  161OSM    C5F18115   6.339   5.080   2.926  0.4009 -0.1215 -0.5105
  161OSM    H5F18116   6.360   5.188   2.939  1.0691 -0.4854  1.9250
  161OSM    H5G18117   6.423   5.027   2.975 -0.8261 -0.2250  1.6001
  161OSM    C6F18118   6.207   5.053   3.001 -0.2566  0.0623  0.0351
  161OSM    H6F18119   6.191   4.947   3.031  1.0012  0.5968  2.9439
  161OSM    H6G18120   6.115   5.090   2.952 -0.0537 -0.7662 -1.0060
  161OSM    C7F18121   6.194   5.129   3.139  0.0210  0.4337  0.4754
  161OSM    H7F18122   6.178   5.236   3.117  0.9839 -0.0177 -3.0869
  161OSM    H7G18123   6.296   5.124   3.185  1.1556 -0.1558 -1.9210
  161OSM    C8F18124   6.075   5.080   3.218 -0.1454 -0.7093 -0.1625
  161OSM    H8F18125   5.980   5.093   3.163  0.3147 -0.2961 -0.8664
  161OSM    H8G18126   6.062   5.152   3.302  2.4908 -2.2760  1.7742
  161OSM    C9F18127   6.088   4.943   3.279  0.5275  0.8448 -0.3744
  161OSM    H9F18128   6.059   4.858   3.215  0.0154  2.1713 -1.9651
  161OSM   C10F18129   6.141   4.916   3.399 -0.0845 -0.6953  0.0333
  161OSM   H10F18130   6.155   4.812   3.432  1.1796 -1.6291 -3.1240
  161OSM   C11F18131   6.210   5.007   3.503 -0.1324  0.3382  0.0833
  161OSM   H11F18132   6.169   5.110   3.500 -0.7946  0.0628 -0.3698
  161OSM   H11G18133   6.321   5.017   3.493  0.1047  2.8838  3.4472
  161OSM   C12F18134   6.190   4.944   3.640 -0.0590 -0.9357 -0.3869
  161OSM   H12F18135   6.243   4.847   3.650 -0.1485 -1.1423 -1.7213
  161OSM   H12G18136   6.083   4.929   3.666  0.3920 -0.0315  2.3209
  161OSM   C13F18137   6.239   5.040   3.750 -0.1359 -0.1769 -0.1347
  161OSM   H13F18138   6.191   5.140   3.740  3.8574  1.8483 -1.2877
  161OSM   H13G18139   6.350   5.036   3.749 -0.0855  0.4340  1.1030
  161OSM   C14F18140   6.220   4.985   3.895 -0.1525  0.3665 -0.1836
  161OSM   H14F18141   6.282   4.894   3.910  0.0433  0.3908 -0.7885
  161OSM   H14G18142   6.114   4.959   3.912 -0.3013 -0.2598 -1.8447
  161OSM   C15F18143   6.265   5.089   4.000 -0.5696 -0.0725 -0.1907
  161OSM   H15F18144   6.221   5.189   3.980  0.3654 -0.0279 -2.2586
  161OSM   H15G18145   6.376   5.096   3.999 -0.6071  0.5694 -0.6575
  161OSM   C16F18146   6.229   5.045   4.140  1.1273  1.0006  0.1853
  161OSM   H16F18147   6.252   4.936   4.147 -0.8220  0.3182 -2.5255
  161OSM   H16G18148   6.121   5.066   4.158  1.0935  0.6297  0.4323
  161OSM   C17F18149   6.311   5.136   4.234 -0.2296 -0.5264 -0.5580
  161OSM   H17F18150   6.270   5.239   4.224 -1.3036 -1.0379 -1.7809
  161OSM   H17G18151   6.415   5.134   4.195 -0.6317  1.5412 -1.9210
  161OSM   C18F18152   6.309   5.105   4.385 -0.3916  0.8570 -0.5528
  161OSM   H18F18153   6.370   5.166   4.455 -0.3562 -0.3377  0.5015
  161OSM   H18G18154   6.332   4.998   4.401  0.2775  1.2010  0.9085
  161OSM   H18H18155   6.209   5.107   4.434 -0.8762 -1.2282 -1.3445
  162OSM      N18156   1.607   3.140   1.787 -0.0604 -0.1853  0.1497
  162OSM    C1518157   1.760   3.144   1.796  0.4583  0.3401 -0.3109
  162OSM   H15A18158   1.787   3.078   1.877 -0.2510  0.3791 -0.0320
  162OSM   H15B18159   1.791   3.242   1.830 -0.4332  0.0461  1.4308
  162OSM   H15C18160   1.805   3.105   1.706  0.8002 -0.1395  0.0655
  162OSM    C1418161   1.558   3.217   1.662 -0.4758  0.6176 -0.2642
  162OSM   H14A18162   1.609   3.312   1.654  0.6289  0.0745  0.0110
  162OSM   H14B18163   1.453   3.236   1.672 -0.7906 -0.8841 -0.4712
  162OSM   H14C18164   1.571   3.158   1.572 -1.0443 -0.6575  0.4707
  162OSM    C1318165   1.577   2.991   1.774 -0.4302 -0.0455 -0.1296
  162OSM   H13A18166   1.665   2.929   1.763  0.1984 -0.1281  3.8080
  162OSM   H13B18167   1.494   2.973   1.707  2.5359  0.0393 -4.2115
  162OSM   H13C18168   1.545   2.963   1.874 -0.2564 -1.4891 -0.4552
  162OSM    C1218169   1.551   3.193   1.919  0.2172  0.4948 -0.4791
  162OSM   H12A18170   1.571   3.116   1.992  0.9210  0.9029 -0.2306
  162OSM   H12B18171   1.447   3.221   1.910  0.1353  0.9264  1.3108
  162OSM    C1118172   1.609   3.324   1.978 -0.3031 -0.0491 -0.4617
  162OSM   H11A18173   1.600   3.395   1.893  0.2168  1.4395  0.6793
  162OSM   H11B18174   1.715   3.300   2.004  0.6113 -2.6567 -5.3549
  162OSM      P18175   1.395   3.447   2.074 -0.5692 -0.0705  0.0636
  162OSM    O1318176   1.405   3.581   2.015 -0.1073 -0.2409  0.4006
  162OSM    O1418177   1.309   3.356   2.004 -0.1068 -0.2840 -0.1704
  162OSM    O1118178   1.346   3.449   2.222 -0.2017  0.2690  0.5119
  162OSM    O1218179   1.528   3.369   2.090 -0.6006 -0.7530 -0.0164
  162OSM    C1S18180   1.407   3.532   2.321 -0.1727  1.3778 -0.7230
  162OSM    H1S18181   1.357   3.631   2.317 -0.4126  1.3014  0.2341
  162OSM    H1T18182   1.516   3.551   2.308 -0.2676  3.8277  1.4110
  162OSM     NF18183   1.400   3.572   2.573 -0.1242  0.0876  0.2270
  162OSM    HNF18184   1.498   3.584   2.591  0.0409 -1.4613  0.4684
  162OSM    C2S18185   1.382   3.475   2.463 -0.4256 -0.3271 -0.3610
  162OSM    H2S18186   1.275   3.448   2.474 -0.5312  0.3075  0.2310
  162OSM    C3S18187   1.466   3.346   2.470 -0.1037  0.5751  0.6661
  162OSM    H3S18188   1.572   3.375   2.455  0.2509 -1.5467 -1.5515
  162OSM     O318189   1.457   3.249   2.363  0.2048 -0.2354  0.6013
  162OSM    HO318190   1.412   3.289   2.288  0.8782 -2.2852 -0.9698
  162OSM    C4S18191   1.455   3.278   2.607  0.9508 -0.3424  0.1352
  162OSM    H4S18192   1.550   3.282   2.663  2.0788 -1.3700 -1.5945
  162OSM    C5S18193   1.355   3.196   2.639  0.0724  0.9568  0.0282
  162OSM    H5S18194   1.270   3.177   2.571 -0.8071 -2.5223  1.8671
  162OSM    C6S18195   1.362   3.105   2.757  0.3225  0.0481 -0.3436
  162OSM    H6S18196   1.401   3.006   2.726 -0.4438 -0.5812  0.6473
  162OSM    H6T18197   1.259   3.091   2.796 -0.3689 -1.1464 -2.4506
  162OSM    C7S18198   1.453   3.144   2.877 -0.3977 -0.4564 -0.3158
  162OSM    H7S18199   1.437   3.251   2.901 -0.1164 -0.3537 -0.5821
  162OSM    H7T18200   1.561   3.127   2.858 -0.5688 -1.9353 -0.1078
  162OSM    C8S18201   1.442   3.057   2.999  0.1832 -0.0472 -0.5074
  162OSM    H8S18202   1.448   2.949   2.974  1.6334 -0.9760  3.1657
  162OSM    H8T18203   1.342   3.065   3.048 -0.7576 -0.8364 -2.2016
  162OSM    C9S18204   1.551   3.093   3.101 -0.6505 -0.3024 -0.2298
  162OSM    H9S18205   1.568   3.200   3.125  0.8997 -0.3091 -1.1387
  162OSM    H9T18206   1.654   3.078   3.062 -1.5304 -0.2257 -2.8060
  162OSM   C10S18207   1.548   3.002   3.231  0.6263 -0.5305 -0.1932
  162OSM   H10S18208   1.642   3.022   3.286  1.2672  0.2713 -1.5121
  162OSM   H10T18209   1.519   2.899   3.202  2.5048 -1.2397  0.3457
  162OSM   C11S18210   1.447   3.048   3.335 -0.0957  0.0846  0.1178
  162OSM   H11S18211   1.343   3.037   3.296 -0.8337  2.5192  1.2183
  162OSM   H11T18212   1.459   3.155   3.362  1.8244  0.0112 -0.3452
  162OSM   C12S18213   1.448   2.976   3.466 -0.8410  0.2501 -0.0592
  162OSM   H12S18214   1.451   2.868   3.438 -0.8045  0.1245  0.4088
  162OSM   H12T18215   1.352   2.997   3.519 -0.1020 -1.4352  2.1291
  162OSM   C13S18216   1.570   2.997   3.552  0.5870  0.2972 -0.1592
  162OSM   H13S18217   1.658   2.976   3.488 -0.3972 -0.2523 -1.3622
  162OSM   H13T18218   1.578   2.927   3.639 -1.3703 -0.3900 -0.4917
  162OSM   C14S18219   1.586   3.134   3.615 -0.0451 -0.3194  0.1171
  162OSM   H14S18220   1.609   3.217   3.545 -0.8761  0.3106  0.5767
  162OSM   H14T18221   1.674   3.120   3.681 -0.5857 -0.8745  0.7360
  162OSM   C15S18222   1.464   3.153   3.709  0.3051  0.4135  0.7408
  162OSM   H15S18223   1.374   3.173   3.647  0.9816  1.0114 -0.0691
  162OSM   H15T18224   1.483   3.254   3.753 -0.7445  0.6920  0.5786
  162OSM   C16S18225   1.454   3.051   3.826  0.5206  1.0037 -0.7597
  162OSM   H16S18226   1.559   3.020   3.848  1.6293  2.7570 -3.0712
  162OSM   H16T18227   1.385   2.968   3.801 -0.5849  1.8341 -0.5472
  162OSM   C17S18228   1.391   3.113   3.948 -0.3267  0.7855  0.3296
  162OSM   H17S18229   1.444   3.211   3.962  1.2487  0.0081  0.0605
  162OSM   H17T18230   1.423   3.053   4.036  0.2471  1.0506  0.3082
  162OSM   C18S18231   1.244   3.128   3.934 -0.1982 -0.7411 -0.0089
  162OSM   H18S18232   1.214   3.174   3.838 -0.8815  1.5834  1.2249
  162OSM   H18T18233   1.209   3.197   4.014 -0.7244  0.7766 -1.4877
  162OSM   H18U18234   1.188   3.032   3.944  1.4556 -1.6252  1.4213
  162OSM    C1F18235   1.308   3.662   2.608 -0.7867 -0.3643  0.4773
  162OSM     OF18236   1.203   3.683   2.548 -0.1653  0.4687  0.0750
  162OSM    C2F18237   1.343   3.732   2.728  0.2335 -0.3007  0.1601
  162OSM    H2F18238   1.453   3.747   2.733  0.3469 -1.3884  1.1055
  162OSM    H2G18239   1.307   3.681   2.819  2.5789  1.8264  2.4597
  162OSM    C3F18240   1.278   3.870   2.725  0.5173  0.6162 -0.7243
  162OSM    H3F18241   1.168   3.855   2.715  0.9578 -2.1796 -2.5150
  162OSM    H3G18242   1.311   3.922   2.632  0.5310  1.4092 -0.2779
  162OSM    C4F18243   1.311   3.953   2.846  0.3202 -0.0544 -0.2260
  162OSM    H4F18244   1.421   3.969   2.845  0.1291  1.5235 -2.4519
  162OSM    H4G18245   1.288   3.907   2.945  2.6899 -0.3400  0.2589
  162OSM    C5F18246   1.239   4.090   2.841 -0.0461  0.3229 -0.1665
  162OSM    H5F18247   1.131   4.087   2.815  0.3941 -0.9607 -2.0417
  162OSM    H5G18248   1.300   4.146   2.767 -1.7856  0.9220 -1.2264
  162OSM    C6F18249   1.256   4.171   2.969  0.1092  0.6878 -0.3620
  162OSM    H6F18250   1.211   4.272   2.962 -4.3824 -0.7124  2.9715
  162OSM    H6G18251   1.365   4.178   2.988  0.4157  0.6534 -1.9510
  162OSM    C7F18252   1.201   4.106   3.095  0.2487 -0.3694 -0.1226
  162OSM    H7F18253   1.248   4.008   3.117  0.6432 -0.4227 -1.1475
  162OSM    H7G18254   1.096   4.094   3.063  0.2759 -0.6675 -0.1048
  162OSM    C8F18255   1.215   4.195   3.224  0.2110 -0.2837  0.2683
  162OSM    H8F18256   1.179   4.297   3.201 -2.2646 -0.6849  2.0457
  162OSM    H8G18257   1.326   4.199   3.231  0.1025  0.2917  2.1293
  162OSM    C9F18258   1.136   4.131   3.336  0.4001 -0.5477  0.7266
  162OSM    H9F18259   1.042   4.080   3.310  1.0594 -3.1863  3.0270
  162OSM   C10F18260   1.172   4.120   3.461 -0.2836 -0.6447  0.0261
  162OSM   H10F18261   1.109   4.075   3.539  0.8782 -0.9675  0.8079
  162OSM   C11F18262   1.299   4.182   3.520  0.5361 -0.0185  0.1293
  162OSM   H11F18263   1.326   4.278   3.471 -0.2148  1.1769  1.9902
  162OSM   H11G18264   1.369   4.096   3.531 -1.8866 -1.9837  0.9626
  162OSM   C12F18265   1.265   4.215   3.665  0.2255 -0.0338 -0.7278
  162OSM   H12F18266   1.173   4.277   3.669 -0.6720 -1.3657 -0.1042
  162OSM   H12G18267   1.330   4.297   3.701 -0.2257  0.1786 -0.3939
  162OSM   C13F18268   1.268   4.100   3.767  0.5429 -0.2494 -0.1177
  162OSM   H13F18269   1.363   4.045   3.750  1.3214  0.7642  0.8262
  162OSM   H13G18270   1.179   4.038   3.744  0.5190  0.2184 -1.3974
  162OSM   C14F18271   1.259   4.146   3.916  0.0516  0.4084 -0.0201
  162OSM   H14F18272   1.167   4.201   3.945  0.0084 -0.8407  2.5463
  162OSM   H14G18273   1.346   4.210   3.942 -1.9645  3.0779  0.5076
  162OSM   C15F18274   1.258   4.026   4.014  0.0268  0.1233 -0.2568
  162OSM   H15F18275   1.279   4.040   4.122 -1.3036 -3.4303  0.6169
  162OSM   H15G18276   1.338   3.954   3.983  0.1266  0.4314 -0.7257
  162OSM   C16F18277   1.128   3.949   4.006  0.4197  0.3056 -0.6268
  162OSM   H16F18278   1.098   3.930   3.901  0.3660  0.7980 -0.7014
  162OSM   H16G18279   1.049   4.016   4.046  1.7629  1.3951  0.2982
  162OSM   C17F18280   1.124   3.811   4.075 -0.1123 -0.2740  0.1629
  162OSM   H17F18281   1.209   3.755   4.030  0.8437  1.9438 -0.9760
  162OSM   H17G18282   1.033   3.748   4.066 -0.6767  0.1415  2.3273
  162OSM   C18F18283   1.148   3.819   4.224 -0.1950  0.5024  0.4032
  162OSM   H18F18284   1.071   3.880   4.275  0.1884  0.6995  0.7594
  162OSM   H18G18285   1.255   3.845   4.244 -0.1985  2.6513 -1.9035
  162OSM   H18H18286   1.141   3.721   4.276 -0.7303  0.5155  0.3515
  163OSM      N18287   6.237   6.421   1.756 -0.6057  0.0279 -0.1312
  163OSM    C1518288   6.171   6.562   1.781 -0.0509  0.5082  0.7242
  163OSM   H15A18289   6.065   6.560   1.803 -0.3462  2.0874 -0.3575
  163OSM   H15B18290   6.191   6.649   1.720 -0.7949  0.4711  0.4070
  163OSM   H15C18291   6.213   6.600   1.873  0.4779 -0.1387  0.7590
  163OSM    C1418292   6.217   6.384   1.614 -0.3834  0.6010  0.4207
  163OSM   H14A18293   6.270   6.295   1.585  0.6918  0.4543  2.5899
  163OSM   H14B18294   6.240   6.460   1.541 -1.7118 -0.7070 -1.4562
  163OSM   H14C18295   6.111   6.365   1.604 -0.1191 -0.6253 -0.2293
  163OSM    C1318296   6.383   6.433   1.785 -0.9304 -0.7837 -0.1184
  163OSM   H13A18297   6.438   6.342   1.764 -0.2927 -0.0366 -1.8431
  163OSM   H13B18298   6.411   6.470   1.882  1.6110  1.1067 -1.4442
  163OSM   H13C18299   6.424   6.501   1.712  1.4580 -2.1976 -0.2039
  163OSM    C1218300   6.171   6.322   1.851  0.1140 -0.2451  0.2010
  163OSM   H12A18301   6.148   6.375   1.942 -3.9863 -0.3597 -0.6055
  163OSM   H12B18302   6.227   6.232   1.871 -0.8457 -1.1661 -1.0647
  163OSM    C1118303   6.035   6.291   1.803 -0.1485  0.1344  0.3115
  163OSM   H11A18304   6.036   6.202   1.737 -2.3621  0.3895 -0.1665
  163OSM   H11B18305   5.994   6.370   1.736 -3.1763 -2.1792 -0.7917
  163OSM      P18306   5.917   6.382   2.016  0.2081  0.1681 -0.7201
  163OSM    O1318307   5.944   6.518   1.966  0.4148 -0.0582  0.5216
  163OSM    O1418308   5.793   6.373   2.089  0.0745 -0.4808 -0.3271
  163OSM    O1118309   6.028   6.354   2.126  0.1706  0.2524 -0.4656
  163OSM    O1218310   5.934   6.265   1.912 -0.3165 -0.1448  0.5013
  163OSM    C1S18311   6.056   6.436   2.236  0.6196 -0.2807  0.1322
  163OSM    H1S18312   6.029   6.544   2.228  0.2162 -0.4158 -0.3788
  163OSM    H1T18313   6.165   6.441   2.256  0.5292  1.8271  0.3880
  163OSM     NF18314   6.007   6.482   2.475 -0.2289 -0.3526 -0.1827
  163OSM    HNF18315   6.053   6.451   2.559 -0.6227  1.1932  0.6553
  163OSM    C2S18316   5.990   6.385   2.372 -0.2524 -0.8570 -0.2944
  163OSM    H2S18317   5.880   6.382   2.352 -0.7438 -2.5139  2.2602
  163OSM    C3S18318   6.025   6.238   2.406 -0.6529  0.0833 -0.8205
  163OSM    H3S18319   6.136   6.244   2.413 -0.5374 -2.2078 -0.0561
  163OSM     O318320   5.997   6.150   2.304 -0.3000  0.4051  0.0107
  163OSM    HO318321   5.958   6.211   2.240 -4.7507 -0.1912  1.7324
  163OSM    C4S18322   5.972   6.201   2.540  0.4500  0.0136 -0.3574
  163OSM    H4S18323   6.047   6.200   2.620  1.0392  0.1866 -0.8970
  163OSM    C5S18324   5.844   6.163   2.573 -0.5472 -0.0808 -0.5517
  163OSM    H5S18325   5.772   6.151   2.491  0.5227 -1.9766 -1.2850
  163OSM    C6S18326   5.806   6.099   2.706 -0.3632 -0.1071 -0.3890
  163OSM    H6S18327   5.777   5.995   2.680 -2.5836  1.0547 -3.1037
  163OSM    H6T18328   5.712   6.141   2.746  0.2163 -0.2563  1.2269
  163OSM    C7S18329   5.917   6.093   2.821  0.2815  0.5511 -0.2137
  163OSM    H7S18330   5.944   6.198   2.844  0.0331  0.5281  0.1853
  163OSM    H7T18331   6.008   6.041   2.783  0.2821 -0.6601  1.3527
  163OSM    C8S18332   5.871   6.023   2.951  0.5616 -0.2889  1.0702
  163OSM    H8S18333   5.845   5.915   2.940 -1.1181 -0.0369  2.1782
  163OSM    H8T18334   5.772   6.074   2.954  0.4826  0.0351 -2.8623
  163OSM    C9S18335   5.940   6.052   3.086  0.1573 -0.0573 -0.1242
  163OSM    H9S18336   5.947   6.163   3.093 -0.4540  0.0169 -0.6679
  163OSM    H9T18337   6.034   5.993   3.092 -0.4466 -1.0819 -0.6078
  163OSM   C10S18338   5.863   5.991   3.207 -0.5798 -0.3226 -0.1896
  163OSM   H10S18339   5.867   5.881   3.191 -0.5850 -0.6918  2.0572
  163OSM   H10T18340   5.755   6.015   3.208 -0.6305  0.0051 -3.2890
  163OSM   C11S18341   5.940   6.015   3.335 -0.5631  0.2311 -0.1844
  163OSM   H11S18342   5.934   6.121   3.369 -1.5892 -0.4884  2.1124
  163OSM   H11T18343   6.045   5.986   3.313 -0.6908 -1.5038  1.2497
  163OSM   C12S18344   5.882   5.922   3.446  0.6925  0.2694  0.3317
  163OSM   H12S18345   5.872   5.823   3.398  2.4809  0.2560 -0.1013
  163OSM   H12T18346   5.790   5.980   3.469 -0.0825 -1.1066  0.7842
  163OSM   C13S18347   5.972   5.924   3.572 -0.4910  0.0713 -0.6784
  163OSM   H13S18348   5.990   6.030   3.601 -0.7288  0.0359 -0.3868
  163OSM   H13T18349   6.066   5.865   3.560 -1.5882 -2.2725  1.3280
  163OSM   C14S18350   5.906   5.882   3.699  0.2286  0.7798  0.4023
  163OSM   H14S18351   5.886   5.773   3.686 -0.5401  0.9869 -0.2359
  163OSM   H14T18352   5.815   5.945   3.707  0.3591  1.1015 -0.4907
  163OSM   C15S18353   5.996   5.896   3.821 -0.6668  0.6311 -0.1601
  163OSM   H15S18354   6.009   6.004   3.843 -0.1152  0.4826  0.2435
  163OSM   H15T18355   6.091   5.854   3.782 -0.8413 -2.8319  2.6913
  163OSM   C16S18356   5.947   5.812   3.936  1.1404 -0.1345  0.1060
  163OSM   H16S18357   5.966   5.707   3.906 -1.4410 -0.1463 -1.7905
  163OSM   H16T18358   5.838   5.833   3.936  0.8061 -1.6025 -1.7270
  163OSM   C17S18359   6.032   5.841   4.065  0.2095  0.0868 -0.8452
  163OSM   H17S18360   6.137   5.805   4.059 -0.2663 -1.7936  0.9687
  163OSM   H17T18361   5.998   5.781   4.152  0.7420  1.9238  0.6879
  163OSM   C18S18362   6.008   5.985   4.113 -0.1816  0.2468 -0.1591
  163OSM   H18S18363   5.908   6.010   4.071  1.6849  1.0461 -4.6972
  163OSM   H18T18364   6.083   6.049   4.062  0.3574  0.4712  0.8969
  163OSM   H18U18365   6.006   5.989   4.224 -1.1495 -2.4233  0.0010
  163OSM    C1F18366   5.957   6.611   2.475  0.5929  0.6919  0.3133
  163OSM     OF18367   5.878   6.655   2.390  0.1642 -0.4303  0.3264
  163OSM    C2F18368   6.024   6.705   2.580  0.9500 -0.3640  0.3284
  163OSM    H2F18369   6.125   6.725   2.539  0.6537 -0.0629 -0.2540
  163OSM    H2G18370   6.040   6.651   2.676 -1.3463  0.3463  1.1849
  163OSM    C3F18371   5.949   6.827   2.605  0.2337 -0.8049 -0.4390
  163OSM    H3F18372   5.858   6.803   2.665  0.5326  0.6844  0.6702
  163OSM    H3G18373   5.916   6.865   2.506 -1.0416 -1.4557 -0.2879
  163OSM    C4F18374   6.036   6.939   2.673 -0.0260  0.4070  0.3442
  163OSM    H4F18375   5.971   7.028   2.658  0.6079  0.5341 -2.1679
  163OSM    H4G18376   6.134   6.956   2.625  0.4337  1.8168  1.7192
  163OSM    C5F18377   6.051   6.905   2.817  0.3605  0.2354 -0.1334
  163OSM    H5F18378   6.136   6.952   2.872 -0.4824  0.8240  0.7151
  163OSM    H5G18379   6.082   6.798   2.819  2.6025  0.8377  1.5374
  163OSM    C6F18380   5.917   6.925   2.898  0.0400 -0.6816 -0.9536
  163OSM    H6F18381   5.838   6.856   2.861 -1.1183 -0.0230  0.1996
  163OSM    H6G18382   5.876   7.028   2.883 -0.2642 -0.7236 -0.4485
  163OSM    C7F18383   5.935   6.897   3.052 -0.2339 -0.6630  0.5311
  163OSM    H7F18384   6.007   6.972   3.093  0.8386 -1.9629  1.1239
  163OSM    H7G18385   5.977   6.795   3.063 -0.3173 -0.8693 -0.8890
  163OSM    C8F18386   5.808   6.917   3.139  0.5381 -0.0385  0.0168
  163OSM    H8F18387   5.729   6.853   3.096  1.1208 -1.2637  0.7291
  163OSM    H8G18388   5.781   7.025   3.129  0.6781  0.4205  3.4080
  163OSM    C9F18389   5.826   6.874   3.280 -0.3688  0.5689 -0.2394
  163OSM    H9F18390   5.813   6.766   3.299 -2.4291  1.1492  2.0169
  163OSM   C10F18391   5.848   6.954   3.388 -0.5513 -0.8209  0.3098
  163OSM   H10F18392   5.860   6.913   3.489  1.4076  2.1056  1.4219
  163OSM   C11F18393   5.871   7.104   3.381 -0.3670 -0.1646  0.3109
  163OSM   H11F18394   5.773   7.155   3.396 -0.4534  0.2358 -1.4516
  163OSM   H11G18395   5.903   7.133   3.279 -1.2599 -1.4436 -0.3547
  163OSM   C12F18396   5.966   7.160   3.489  0.3222 -0.3716 -0.0851
  163OSM   H12F18397   5.924   7.123   3.585  0.0182 -1.7787 -0.7342
  163OSM   H12G18398   5.961   7.271   3.491  1.5827 -0.3036  0.9701
  163OSM   C13F18399   6.107   7.118   3.469 -0.1959 -0.1797  0.5205
  163OSM   H13F18400   6.163   7.184   3.399  1.0515  0.1760  1.8038
  163OSM   H13G18401   6.118   7.020   3.417  3.3087  1.6560 -2.7278
  163OSM   C14F18402   6.186   7.121   3.599  0.1920  0.2632  0.1799
  163OSM   H14F18403   6.288   7.093   3.563 -0.4723 -1.0201 -0.7573
  163OSM   H14G18404   6.156   7.048   3.677  0.4796  0.1087  0.1504
  163OSM   C15F18405   6.187   7.264   3.662 -0.0229  0.3033 -0.4417
  163OSM   H15F18406   6.083   7.295   3.687 -0.9297 -2.1961 -0.8206
  163OSM   H15G18407   6.242   7.331   3.593  0.2417 -1.7551 -2.3202
  163OSM   C16F18408   6.270   7.260   3.798  0.4089  0.2185 -0.1765
  163OSM   H16F18409   6.379   7.239   3.784  0.6426  0.8288  0.6926
  163OSM   H16G18410   6.249   7.175   3.867  0.1829 -0.3892 -0.9666
  163OSM   C17F18411   6.226   7.386   3.879 -0.2447 -0.1868  0.2995
  163OSM   H17F18412   6.150   7.359   3.955 -0.0837  1.5107  1.1177
  163OSM   H17G18413   6.194   7.466   3.809  2.1530 -1.1492 -2.0671
  163OSM   C18F18414   6.344   7.457   3.951  1.1721  0.2862 -0.2555
  163OSM   H18F18415   6.311   7.558   3.985 -0.9959  0.2472 -1.9876
  163OSM   H18G18416   6.428   7.479   3.882 -0.7851 -0.0401 -2.8792
  163OSM   H18H18417   6.380   7.394   4.035  2.1796 -2.8157 -2.8334
  164OSM      N18418   1.733   5.662   1.945 -0.7262 -0.0924 -0.3043
  164OSM    C1518419   1.791   5.570   2.050 -0.3754  0.2240 -0.0887
  164OSM   H15A18420   1.744   5.473   2.060  0.2533 -0.3947 -2.3500
  164OSM   H15B18421   1.784   5.626   2.142 -1.4125  1.8972 -1.1350
  164OSM   H15C18422   1.897   5.553   2.036  0.4315  2.4447  2.4173
  164OSM    C1418423   1.749   5.587   1.812  0.0469 -0.1321 -0.3314
  164OSM   H14A18424   1.695   5.494   1.810  0.9738 -0.6723 -2.3118
  164OSM   H14B18425   1.853   5.563   1.794 -0.4197 -2.3679 -0.2146
  164OSM   H14C18426   1.702   5.639   1.729 -1.8808 -0.6136  0.4087
  164OSM    C1318427   1.589   5.680   1.982 -0.4033 -0.4476  0.1347
  164OSM   H13A18428   1.547   5.585   2.012 -0.4820 -0.7637 -0.9658
  164OSM   H13B18429   1.533   5.707   1.894  0.4106 -3.1658 -1.3344
  164OSM   H13C18430   1.583   5.739   2.073  0.0439  0.1656 -0.2266
  164OSM    C1218431   1.808   5.795   1.932 -0.4085  0.4635 -0.3822
  164OSM   H12A18432   1.913   5.770   1.928 -0.6732 -1.4187  1.9758
  164OSM   H12B18433   1.812   5.854   2.023  2.1164  0.3671 -0.3431
  164OSM    C1118434   1.768   5.897   1.826 -0.2728 -0.1864  0.1147
  164OSM   H11A18435   1.761   5.848   1.727 -1.0044  0.9656 -0.4312
  164OSM   H11B18436   1.850   5.972   1.826 -0.9187  0.5825  1.8263
  164OSM      P18437   1.636   6.094   1.949  0.1313 -0.3302  0.3065
  164OSM    O1318438   1.728   6.199   1.894  0.2539  0.0438  0.0892
  164OSM    O1418439   1.493   6.140   1.965  0.5152  0.4555 -0.0302
  164OSM    O1118440   1.697   6.035   2.092 -0.6621  0.1265 -0.2497
  164OSM    O1218441   1.641   5.967   1.852 -0.3524  1.1059 -0.2244
  164OSM    C1S18442   1.817   6.089   2.155  0.1838  0.4632 -0.0385
  164OSM    H1S18443   1.831   6.199   2.159  2.1411  0.2218  1.2988
  164OSM    H1T18444   1.906   6.047   2.102 -0.5281 -1.7330  0.4075
  164OSM     NF18445   1.947   6.111   2.371  0.0351 -0.1264  0.0213
  164OSM    HNF18446   2.030   6.058   2.387  0.6934  0.6254 -0.7647
  164OSM    C2S18447   1.834   6.038   2.310 -0.0387 -0.0982 -0.2658
  164OSM    H2S18448   1.737   6.060   2.360  0.0803 -1.0562  0.4189
  164OSM    C3S18449   1.849   5.885   2.300  0.1447  1.1244  0.0825
  164OSM    H3S18450   1.930   5.876   2.225  0.2115 -2.2705  0.4104
  164OSM     O318451   1.740   5.815   2.244 -0.3091 -0.3803 -0.1304
  164OSM    HO318452   1.688   5.884   2.202  0.8932 -1.2384 -3.3007
  164OSM    C4S18453   1.891   5.818   2.433 -0.2047 -0.2541 -0.3614
  164OSM    H4S18454   1.822   5.847   2.514  0.5982 -0.2116  0.3117
  164OSM    C5S18455   2.000   5.739   2.451  0.0255  0.2079  0.0777
  164OSM    H5S18456   2.050   5.711   2.358  2.5149 -1.6592  1.8369
  164OSM    C6S18457   2.062   5.693   2.579 -0.3975  0.6500  0.2454
  164OSM    H6S18458   2.171   5.713   2.581  0.2562 -2.4460  0.0108
  164OSM    H6T18459   2.065   5.583   2.595 -0.0688  0.2884 -1.9824
  164OSM    C7S18460   1.994   5.759   2.704  0.6335 -0.7595  0.2030
  164OSM    H7S18461   1.891   5.719   2.706 -0.7359  2.4873  0.4722
  164OSM    H7T18462   1.983   5.869   2.702  0.1528 -0.8027  0.5003
  164OSM    C8S18463   2.054   5.727   2.845 -0.7602 -0.1418  0.1207
  164OSM    H8S18464   2.158   5.763   2.830 -0.9583 -0.0783 -1.1474
  164OSM    H8T18465   2.054   5.616   2.848 -2.3815 -0.2425 -1.8414
  164OSM    C9S18466   1.986   5.786   2.969  0.4542 -0.3175  0.2217
  164OSM    H9S18467   1.880   5.757   2.960  0.1426  0.5946  0.7779
  164OSM    H9T18468   1.991   5.897   2.970 -2.0137 -0.1527  1.2338
  164OSM   C10S18469   2.037   5.733   3.105 -0.0181  0.5402 -0.7198
  164OSM   H10S18470   2.140   5.772   3.120  0.1220 -0.9579  3.0538
  164OSM   H10T18471   2.049   5.623   3.109  0.1192  0.5341  3.9157
  164OSM   C11S18472   1.948   5.781   3.218  0.0054 -0.5977  0.7381
  164OSM   H11S18473   1.870   5.704   3.234  0.7734 -1.3225  1.1328
  164OSM   H11T18474   1.911   5.883   3.193  3.2505  0.2191 -1.3727
  164OSM   C12S18475   2.027   5.809   3.342 -0.5172 -0.3022 -0.8885
  164OSM   H12S18476   2.108   5.886   3.338 -0.7879  0.1558  1.3426
  164OSM   H12T18477   2.068   5.713   3.379  1.8843  0.6699 -0.8484
  164OSM   C13S18478   1.930   5.861   3.457  0.4813  0.2034 -0.1742
  164OSM   H13S18479   1.855   5.782   3.479 -1.8291  2.1251 -0.7850
  164OSM   H13T18480   1.863   5.933   3.406  0.1895 -0.5685 -0.9033
  164OSM   C14S18481   2.002   5.906   3.586  0.2005  0.0042  0.0884
  164OSM   H14S18482   2.069   5.988   3.552  1.5754 -0.9365  0.4665
  164OSM   H14T18483   2.050   5.816   3.629 -0.9882 -1.1019 -0.8503
  164OSM   C15S18484   1.907   5.956   3.695  0.7687  0.4158 -0.4633
  164OSM   H15S18485   1.823   5.884   3.693 -0.8960  2.2875 -2.2942
  164OSM   H15T18486   1.875   6.060   3.673  2.0133  1.2811  1.5278
  164OSM   C16S18487   1.965   5.943   3.844 -0.0280 -0.1949  0.0941
  164OSM   H16S18488   2.075   5.956   3.840  0.0744 -0.9948  0.3185
  164OSM   H16T18489   1.953   5.835   3.865  0.0530  0.1425  2.0026
  164OSM   C17S18490   1.892   6.025   3.943  0.6590  0.2677 -0.6380
  164OSM   H17S18491   1.788   5.988   3.947  0.2151  1.6030  1.2383
  164OSM   H17T18492   1.884   6.128   3.901 -0.4594  0.4575  0.0268
  164OSM   C18S18493   1.958   6.022   4.085  0.0514  0.5367 -0.0715
  164OSM   H18S18494   1.974   5.921   4.128  0.5428  0.0216 -1.3867
  164OSM   H18T18495   1.891   6.077   4.154 -0.1988  0.2770 -0.1081
  164OSM   H18U18496   2.055   6.076   4.088  0.9035 -0.6781 -2.6723
  164OSM    C1F18497   1.953   6.236   2.403  0.8191  0.0665 -0.1158
  164OSM     OF18498   1.861   6.319   2.392  0.0641 -0.0032  0.3319
  164OSM    C2F18499   2.095   6.272   2.445  0.1923 -0.0771 -0.4581
  164OSM    H2F18500   2.158   6.286   2.355 -2.9564 -0.9436 -2.9888
  164OSM    H2G18501   2.144   6.185   2.493 -0.6765 -1.7019 -2.3684
  164OSM    C3F18502   2.087   6.391   2.540 -0.0587 -0.6922 -0.7019
  164OSM    H3F18503   2.046   6.486   2.501  1.2329 -0.8437 -2.5566
  164OSM    H3G18504   2.193   6.414   2.566 -0.2005  0.0107 -0.7314
  164OSM    C4F18505   2.016   6.351   2.682 -0.1971  0.0686 -0.1945
  164OSM    H4F18506   2.052   6.250   2.713  1.7595  0.7416 -0.1595
  164OSM    H4G18507   1.906   6.348   2.669 -0.0725 -1.9792 -1.2960
  164OSM    C5F18508   2.039   6.464   2.785  0.2835 -0.1257  0.1735
  164OSM    H5F18509   2.001   6.556   2.736  0.3442  0.0420  0.4399
  164OSM    H5G18510   2.146   6.482   2.806  0.2576 -1.2008  1.3794
  164OSM    C6F18511   1.948   6.457   2.908 -0.4650  0.8766  0.2850
  164OSM    H6F18512   1.985   6.363   2.955 -1.4402 -0.8922 -2.2308
  164OSM    H6G18513   1.841   6.442   2.884 -0.9442 -2.2373  3.5933
  164OSM    C7F18514   1.948   6.577   2.999  0.3717  0.1367 -0.6134
  164OSM    H7F18515   1.942   6.668   2.935  2.5553  0.3461 -0.5776
  164OSM    H7G18516   2.044   6.579   3.055 -0.3220 -0.5848  0.6486
  164OSM    C8F18517   1.834   6.576   3.096  0.4429  0.0196  0.1372
  164OSM    H8F18518   1.852   6.492   3.167  0.8556 -1.5512 -1.7471
  164OSM    H8G18519   1.744   6.540   3.043  1.5928  0.9831 -2.6289
  164OSM    C9F18520   1.812   6.712   3.169 -0.1545  0.5042 -0.8085
  164OSM    H9F18521   1.763   6.787   3.106 -3.3837 -0.3991  0.4262
  164OSM   C10F18522   1.861   6.745   3.295  1.4355  0.0305  0.4443
  164OSM   H10F18523   1.845   6.847   3.334 -2.0165 -0.0158 -0.5289
  164OSM   C11F18524   1.941   6.661   3.389  0.2817  0.2343 -0.6003
  164OSM   H11F18525   2.039   6.713   3.395  0.0826  0.6405 -0.8153
  164OSM   H11G18526   1.949   6.565   3.335  0.6861  0.6712 -1.3373
  164OSM   C12F18527   1.862   6.652   3.523  0.8204 -1.2698  0.7563
  164OSM   H12F18528   1.769   6.594   3.506 -1.2447  1.6708  1.3905
  164OSM   H12G18529   1.826   6.750   3.560  1.4750  0.2584 -2.2925
  164OSM   C13F18530   1.946   6.588   3.638 -0.6994 -0.0556 -0.6129
  164OSM   H13F18531   2.050   6.624   3.647 -1.6789  3.5710 -1.9640
  164OSM   H13G18532   1.963   6.480   3.620  2.4814  0.4180 -0.9125
  164OSM   C14F18533   1.870   6.586   3.769 -0.3675  0.4056  0.3300
  164OSM   H14F18534   1.764   6.586   3.739  0.3121  1.1403 -2.3227
  164OSM   H14G18535   1.884   6.688   3.809  0.0534  0.3562  0.3148
  164OSM   C15F18536   1.911   6.472   3.869  0.1245  0.6608  0.9759
  164OSM   H15F18537   2.022   6.473   3.857  0.2412 -1.4996  1.5379
  164OSM   H15G18538   1.868   6.378   3.829  0.2338  0.5676  1.0802
  164OSM   C16F18539   1.852   6.504   4.010 -0.7335 -0.3390  0.8571
  164OSM   H16F18540   1.743   6.519   3.996 -0.9291  1.1445  3.2935
  164OSM   H16G18541   1.903   6.603   4.018  0.8927 -0.9656 -0.9006
  164OSM   C17F18542   1.882   6.398   4.108 -0.1296 -0.2750 -0.5304
  164OSM   H17F18543   1.985   6.360   4.092  1.2645  2.4936  1.0241
  164OSM   H17G18544   1.808   6.318   4.088 -0.7199 -0.6250  2.4576
  164OSM   C18F18545   1.853   6.432   4.259 -0.1423  0.2101  0.2012
  164OSM   H18F18546   1.926   6.509   4.294 -0.0905  0.7867 -1.1359
  164OSM   H18G18547   1.854   6.338   4.318  1.7844  0.1045  0.0892
  164OSM   H18H18548   1.757   6.486   4.264  1.1638  2.7120 -0.1122
  165SAPS     N18549   0.270   1.769   7.098  0.4171  0.2811 -0.8210
  165SAPS   HN118550   0.310   1.782   7.193  1.6557 -2.6594 -0.8570
  165SAPS   HN218551   0.194   1.699   7.088  2.2541 -1.5667 -3.0167
  165SAPS   HN318552   0.347   1.722   7.046 -0.6350 -2.6117  0.0646
  165SAPS   C1218553   0.219   1.900   7.038 -0.0300  0.4307  0.3811
  165SAPS  H12A18554   0.139   1.939   7.098  0.4127  4.9193 -1.5520
  165SAPS   C1318555   0.325   2.018   7.041  0.1796 -0.4984  0.2251
  165SAPS  O13A18556   0.434   2.006   7.103  0.0561  0.0006  0.0054
  165SAPS  O13B18557   0.298   2.130   7.002  0.5874 -0.1530  0.7848
  165SAPS   C1118558   0.178   1.874   6.889 -0.2473 -0.8241 -0.5353
  165SAPS  H11A18559   0.223   1.784   6.843  2.7546  0.2443  0.1095
  165SAPS  H11B18560   0.213   1.960   6.827  1.1079 -2.1747 -1.7097
  165SAPS     P18561  -0.057   1.964   6.823 -0.7575 -0.2654 -0.1000
  165SAPS   O1318562  -0.191   1.906   6.835 -0.1869  0.3015  0.2437
  165SAPS   O1418563  -0.036   2.097   6.890  0.3428 -0.1214  0.2257
  165SAPS   O1218564   0.035   1.860   6.884 -0.2171  0.3315  0.0474
  165SAPS   O1118565  -0.008   1.977   6.679 -0.3890 -0.2832 -0.2795
  165SAPS    C118566  -0.051   2.089   6.600  0.5433 -0.3816  0.0806
  165SAPS    HA18567  -0.158   2.074   6.572  0.5081 -1.6074  0.8088
  165SAPS    HB18568  -0.042   2.188   6.650  2.3709  0.1259 -1.1603
  165SAPS    C218569   0.020   2.100   6.457 -0.4365  0.3608  0.2050
  165SAPS    HS18570   0.015   2.205   6.422  0.3465  0.1058 -0.7034
  165SAPS   O2118571  -0.026   2.000   6.366  0.6001  0.3114 -0.1376
  165SAPS   C2118572  -0.148   2.011   6.330  0.0289  0.4766  0.2459
  165SAPS   O2218573  -0.226   2.103   6.354  1.0877 -0.2321 -0.6321
  165SAPS   C2218574  -0.184   1.897   6.233  0.4793 -0.4502  0.4712
  165SAPS   H2R18575  -0.093   1.866   6.178 -0.6619 -0.5752 -1.4335
  165SAPS   H2S18576  -0.223   1.815   6.297 -0.6974 -0.1558  0.1521
  165SAPS    C318577   0.174   2.077   6.477 -0.3788  0.2456  0.1894
  165SAPS    HX18578   0.184   1.973   6.513  0.4422  0.3515  0.2762
  165SAPS    HY18579   0.211   2.139   6.562 -0.4485  0.2598  0.2093
  165SAPS   O3118580   0.244   2.103   6.351  0.1364 -0.5049 -0.4207
  165SAPS   C3118581   0.277   2.234   6.344 -0.0790  0.1171 -0.0115
  165SAPS   O3218582   0.252   2.322   6.428 -0.8815 -0.3114  0.0734
  165SAPS   C3218583   0.356   2.263   6.217 -0.4158 -0.4875 -0.4696
  165SAPS   H2X18584   0.449   2.306   6.260 -1.3828  0.3280  0.8774
  165SAPS   H2Y18585   0.310   2.351   6.167  0.1261 -0.4260 -0.8656
  165SAPS   C2318586  -0.294   1.940   6.129  0.7476  0.1340 -0.5052
  165SAPS   H3R18587  -0.262   2.015   6.053  0.6333  1.7782  1.0096
  165SAPS   H3S18588  -0.381   1.983   6.182 -0.5148 -1.3749 -1.2961
  165SAPS   C2418589  -0.354   1.820   6.062  0.2139 -0.4604 -0.0580
  165SAPS   H4R18590  -0.439   1.849   5.997  2.0591 -0.0776 -2.4403
  165SAPS   H4S18591  -0.399   1.759   6.143 -0.4436 -3.4691 -2.4735
  165SAPS   C2518592  -0.249   1.727   5.999 -0.2332 -0.1398 -0.1096
  165SAPS   H5R18593  -0.169   1.687   6.063  0.8479 -1.7862 -2.3359
  165SAPS   C2618594  -0.236   1.701   5.871 -0.1274  0.4420 -0.1283
  165SAPS   H6R18595  -0.154   1.638   5.832 -1.6955 -0.8600 -1.5326
  165SAPS   C2718596  -0.327   1.755   5.765  0.1241 -0.4975 -0.7729
  165SAPS   H7R18597  -0.273   1.825   5.697  0.6323 -1.0304 -0.9295
  165SAPS   H7S18598  -0.407   1.816   5.813  2.0345  2.0180 -0.5423
  165SAPS   C2818599  -0.376   1.634   5.688  0.5636  0.3762 -0.1197
  165SAPS   H8R18600  -0.430   1.559   5.747  2.0078  0.1376  0.9793
  165SAPS   C2918601  -0.347   1.615   5.551  0.4919  0.5377 -0.6390
  165SAPS   H9R18602  -0.403   1.538   5.495  2.2508 -0.1027 -1.5781
  165SAPS  C21018603  -0.263   1.703   5.461 -0.1492  0.0399 -0.0599
  165SAPS  H10R18604  -0.189   1.645   5.402  2.5415  0.5860  2.5360
  165SAPS  H10S18605  -0.190   1.758   5.523  2.9748 -0.4362 -3.0465
  165SAPS  C21118606  -0.347   1.791   5.380  0.0987 -0.2336  0.0851
  165SAPS  H11R18607  -0.415   1.852   5.443  1.5474  3.1028 -1.3431
  165SAPS  C21218608  -0.347   1.819   5.249 -0.6076  0.0370  0.1269
  165SAPS  H12R18609  -0.425   1.891   5.219  0.9173  2.0232  0.7507
  165SAPS  C21318610  -0.251   1.780   5.138 -0.2502 -0.1313 -0.5046
  165SAPS  H13R18611  -0.151   1.757   5.179  0.4115  0.9213 -1.4572
  165SAPS  H13S18612  -0.224   1.859   5.065  1.9072 -0.8671 -0.5691
  165SAPS  C21418613  -0.299   1.660   5.068 -0.2260  0.2071  0.6381
  165SAPS  H14R18614  -0.306   1.573   5.136  1.0227 -0.4549 -0.0537
  165SAPS  C21518615  -0.330   1.643   4.937  0.3480  0.3455 -1.4178
  165SAPS  H15R18616  -0.385   1.552   4.912 -3.4250  2.3389 -1.1219
  165SAPS  C21618617  -0.325   1.742   4.824  1.0042 -0.1919  0.8275
  165SAPS  H16R18618  -0.282   1.840   4.852  2.1277 -0.8561  1.5022
  165SAPS  H16S18619  -0.426   1.765   4.784  0.7612  2.4411  2.6743
  165SAPS  C21718620  -0.248   1.687   4.704  0.0590 -0.1418 -0.1649
  165SAPS  H17R18621  -0.298   1.730   4.614  1.0371  1.7064  0.1214
  165SAPS  H17S18622  -0.261   1.577   4.698 -1.3358 -0.0542  0.8993
  165SAPS  C21818623  -0.098   1.724   4.716  0.0151  0.1401 -0.8323
  165SAPS  H18R18624  -0.058   1.661   4.798 -0.4523  0.8647 -0.0295
  165SAPS  H18S18625  -0.080   1.829   4.750 -2.4823  1.1964 -2.5069
  165SAPS  C21918626  -0.023   1.702   4.586 -0.2294 -0.4708  0.4506
  165SAPS  H19R18627  -0.049   1.788   4.522  0.0773 -0.3194  0.5263
  165SAPS  H19S18628  -0.050   1.604   4.541  3.7259 -1.2136 -0.7249
  165SAPS  C22018629   0.128   1.694   4.610  0.1333 -0.2311 -0.2418
  165SAPS  H20R18630   0.182   1.654   4.521  1.6005 -2.5317  1.5646
  165SAPS  H20S18631   0.153   1.631   4.697 -1.1754  1.3539  1.3595
  165SAPS  H20T18632   0.174   1.794   4.625  0.1609 -0.4570  1.2496
  165SAPS   C3318633   0.382   2.144   6.123 -0.7344  0.2295 -0.1576
  165SAPS   H3X18634   0.284   2.096   6.102 -0.7115  0.0660  0.1034
  165SAPS   H3Y18635   0.450   2.073   6.176 -1.1331  0.3969  0.6007
  165SAPS   C3418636   0.460   2.178   5.998 -0.3510 -0.0883 -0.1036
  165SAPS   H4X18637   0.445   2.100   5.921 -2.2264  0.1296  0.0017
  165SAPS   H4Y18638   0.570   2.185   6.010  0.3636 -2.3774 -3.7455
  165SAPS   C3518639   0.425   2.318   5.935 -0.5052  0.3155 -0.3428
  165SAPS   H5X18640   0.450   2.404   6.002 -2.0759 -1.7790  3.2569
  165SAPS   H5Y18641   0.314   2.323   5.941 -0.4162  0.9975  1.3825
  165SAPS   C3618642   0.496   2.342   5.799  0.1724  1.0897 -0.6423
  165SAPS   H6X18643   0.604   2.316   5.806 -0.0205  0.4974  0.3330
  165SAPS   H6Y18644   0.503   2.449   5.772  0.5818  1.9438  2.5156
  165SAPS   C3718645   0.422   2.268   5.687 -0.1521 -0.2763  0.4047
  165SAPS   H7X18646   0.319   2.309   5.679 -0.3482 -0.8464 -0.1096
  165SAPS   H7Y18647   0.411   2.158   5.699 -2.7501  0.0215  1.4956
  165SAPS   C3818648   0.486   2.287   5.549  0.3558  0.3089 -0.1068
  165SAPS   H8X18649   0.528   2.389   5.533 -2.4191  2.0468  2.4789
  165SAPS   H8Y18650   0.401   2.275   5.479  1.2562 -2.7360 -0.8069
  165SAPS   C3918651   0.583   2.173   5.516 -0.4485  0.1740  0.3843
  165SAPS   H9X18652   0.530   2.075   5.513 -0.3987  0.1515  0.1966
  165SAPS   H9Y18653   0.673   2.177   5.580 -0.7152  0.5509  0.7415
  165SAPS  C31018654   0.636   2.196   5.373  0.6897 -0.0288 -0.5611
  165SAPS  H10X18655   0.712   2.277   5.374 -0.6195  1.2734  1.7721
  165SAPS  H10Y18656   0.547   2.215   5.308 -1.0642  0.1169  1.7557
  165SAPS  C31118657   0.700   2.067   5.317 -0.0345  0.0389 -0.2386
  165SAPS  H11X18658   0.666   1.981   5.379  1.6703  0.3824  1.2760
  165SAPS  H11Y18659   0.808   2.081   5.340  0.0269 -1.7640  0.7610
  165SAPS  C31218660   0.679   2.061   5.164 -0.0394  0.2496 -0.4013
  165SAPS  H12X18661   0.776   2.024   5.123  2.2892  2.1203  2.9579
  165SAPS  H12Y18662   0.667   2.163   5.121 -0.0687  2.2912  3.9443
  165SAPS  C31318663   0.554   1.978   5.133 -0.0186  0.0414 -0.3162
  165SAPS  H13X18664   0.464   2.002   5.192 -0.0684 -2.1514  0.6062
  165SAPS  H13Y18665   0.570   1.873   5.164  1.0105 -0.2882 -1.8236
  165SAPS  C31418666   0.523   1.971   4.985  0.0276  0.0405 -0.0515
  165SAPS  H14X18667   0.502   2.064   4.928 -0.1607 -0.7861 -1.3934
  165SAPS  H14Y18668   0.434   1.905   4.977 -0.1062  0.4164 -2.9236
  165SAPS  C31518669   0.630   1.886   4.901 -0.3169  0.7564  0.4329
  165SAPS  H15X18670   0.660   1.803   4.968  1.8622  0.9077 -0.2589
  165SAPS  H15Y18671   0.717   1.952   4.881 -0.8488  1.1112 -0.7918
  165SAPS  C31618672   0.581   1.828   4.771  0.2299 -0.5383  0.3919
  165SAPS  H16X18673   0.530   1.906   4.711  1.5634  1.8059  2.0895
  165SAPS  H16Y18674   0.508   1.749   4.799 -1.0450  0.9004  1.2651
  165SAPS  C31718675   0.693   1.774   4.683 -0.2870 -0.5496  0.4441
  165SAPS  H17X18676   0.756   1.862   4.657 -1.2642  0.0137 -0.1049
  165SAPS  H17Y18677   0.651   1.733   4.588  3.1655 -1.5344 -0.8075
  165SAPS  C31818678   0.769   1.657   4.741  0.5801 -0.6814  0.5580
  165SAPS  H18X18679   0.851   1.688   4.809  3.7485 -1.7035 -2.5138
  165SAPS  H18Y18680   0.823   1.605   4.659 -0.0049  0.3824 -0.5377
  165SAPS  H18Z18681   0.698   1.595   4.801 -0.0903 -0.2177  0.2549
  166SAPS     N18682   6.589   6.543   7.027 -0.3197  0.1157  0.7672
  166SAPS   HN118683   6.538   6.454   7.008  0.4742 -0.4290  1.0882
  166SAPS   HN218684   6.621   6.577   6.935 -2.1585  1.8366  0.7024
  166SAPS   HN318685   6.674   6.517   7.081 -0.0343  0.1267  0.3281
  166SAPS   C1218686   6.496   6.643   7.094  0.2536  0.5326 -0.1117
  166SAPS  H12A18687   6.421   6.662   7.018 -0.0867  1.2083  0.3868
  166SAPS   C1318688   6.430   6.579   7.219  0.0697 -0.2282  0.4061
  166SAPS  O13A18689   6.462   6.462   7.252  0.4365 -0.4162 -0.4173
  166SAPS  O13B18690   6.352   6.646   7.293  0.0534  0.3225  0.7713
  166SAPS   C1118691   6.579   6.771   7.121  0.7835 -0.7601 -0.3448
  166SAPS  H11A18692   6.661   6.753   7.194  0.0321 -0.9758  0.4651
  166SAPS  H11B18693   6.509   6.841   7.173 -0.7652 -2.1806 -0.4227
  166SAPS     P18694   6.554   6.920   6.906 -0.1228 -0.0513 -0.2356
  166SAPS   O1318695   6.479   7.022   6.982 -0.2729  0.9216  0.2729
  166SAPS   O1418696   6.643   6.973   6.800  0.1341 -0.0836 -0.0825
  166SAPS   O1218697   6.641   6.828   7.009  0.4726 -0.2649  0.1384
  166SAPS   O1118698   6.441   6.829   6.851  0.3613  0.1327 -0.5352
  166SAPS    C118699   6.448   6.778   6.724  0.2970  0.1826  0.2183
  166SAPS    HA18700   6.550   6.749   6.691 -0.9509 -1.3018 -2.7015
  166SAPS    HB18701   6.374   6.697   6.708  0.4015  0.2251 -0.5365
  166SAPS    C218702   6.391   6.880   6.618  0.6507  0.1428  0.4809
  166SAPS    HS18703   6.431   6.983   6.626  3.2389 -0.3566 -3.4485
  166SAPS   O2118704   6.247   6.868   6.610 -0.4687  0.5534 -0.1058
  166SAPS   C2118705   6.179   6.972   6.645  0.1431 -0.1746  0.0296
  166SAPS   O2218706   6.222   7.070   6.702  0.1240 -0.7168  0.3944
  166SAPS   C2218707   6.035   6.957   6.607  0.0113  0.8011  0.1240
  166SAPS   H2R18708   6.002   6.865   6.660  0.4747  0.6499  0.1542
  166SAPS   H2S18709   5.972   7.044   6.635 -0.9238 -0.3369  1.6922
  166SAPS    C318710   6.433   6.852   6.470 -0.4735  0.0174 -0.1412
  166SAPS    HX18711   6.384   6.752   6.461 -3.6383  1.2739  1.5084
  166SAPS    HY18712   6.539   6.831   6.445 -0.5971  0.2296 -0.8765
  166SAPS   O3118713   6.380   6.937   6.365 -0.3339 -0.2192  1.0253
  166SAPS   C3118714   6.391   6.896   6.243  0.0352  0.1432  0.3641
  166SAPS   O3218715   6.443   6.794   6.204 -0.3177 -0.1567  0.0025
  166SAPS   C3218716   6.331   7.009   6.151 -0.2791  0.4429 -0.5393
  166SAPS   H2X18717   6.417   7.078   6.163  1.8087 -1.9544 -0.8655
  166SAPS   H2Y18718   6.235   7.051   6.188 -0.4588  0.8112 -1.4008
  166SAPS   C2318719   6.008   6.927   6.458 -0.1751  0.3052  0.0181
  166SAPS   H3R18720   5.915   6.868   6.445  0.3400 -0.1768 -1.9566
  166SAPS   H3S18721   6.083   6.856   6.416 -1.9971 -0.3592 -2.3912
  166SAPS   C2418722   5.995   7.057   6.381  0.0195 -0.1135  1.3518
  166SAPS   H4R18723   6.006   7.030   6.273 -0.8900 -0.3478  1.3131
  166SAPS   H4S18724   6.083   7.115   6.416  0.6086 -1.0260  1.4120
  166SAPS   C2518725   5.862   7.131   6.398 -0.1562 -0.5965 -0.7408
  166SAPS   H5R18726   5.856   7.173   6.499  0.2735 -2.5596  0.1490
  166SAPS   C2618727   5.748   7.120   6.319 -0.2008  0.0793  0.1248
  166SAPS   H6R18728   5.656   7.165   6.359  0.4204  0.8584  0.6878
  166SAPS   C2718729   5.732   7.036   6.191  0.2550  0.4065  0.2415
  166SAPS   H7R18730   5.696   6.933   6.212  0.7028  0.0715 -0.5932
  166SAPS   H7S18731   5.828   7.007   6.144  0.6548 -0.3188  1.4347
  166SAPS   C2818732   5.645   7.111   6.089  1.2256 -0.4336 -0.4594
  166SAPS   H8R18733   5.537   7.098   6.103  1.3921 -0.6616  0.7462
  166SAPS   C2918734   5.689   7.203   5.999 -0.5301 -0.0135  0.4710
  166SAPS   H9R18735   5.620   7.267   5.943  0.2428  0.0586 -0.4298
  166SAPS  C21018736   5.827   7.246   5.975 -0.6993  0.5461  0.3213
  166SAPS  H10R18737   5.877   7.274   6.070 -0.0050  0.8678 -0.1298
  166SAPS  H10S18738   5.823   7.344   5.922 -0.3314  0.7635  0.6876
  166SAPS  C21118739   5.910   7.147   5.902  0.1602  0.2848  0.5358
  166SAPS  H11R18740   5.975   7.085   5.965 -0.2821  0.8030  1.5228
  166SAPS  C21218741   5.933   7.131   5.772  0.5054 -0.4445  0.2734
  166SAPS  H12R18742   5.993   7.047   5.736  0.6579 -0.5193  0.6957
  166SAPS  C21318743   5.873   7.225   5.666  0.1260  0.9170  0.1018
  166SAPS  H13R18744   5.931   7.217   5.571  1.7987  0.4816  1.1193
  166SAPS  H13S18745   5.899   7.330   5.689 -1.2892  1.2890  0.0686
  166SAPS  C21418746   5.723   7.219   5.640  0.1275  0.2485  0.1197
  166SAPS  H14R18747   5.665   7.242   5.731  0.8935 -0.1485  0.7226
  166SAPS  C21518748   5.664   7.188   5.521  0.2140  0.0550  0.3336
  166SAPS  H15R18749   5.555   7.183   5.508  0.4453  0.0768 -2.0552
  166SAPS  C21618750   5.741   7.148   5.398  0.2131  0.2420  0.2576
  166SAPS  H16R18751   5.755   7.038   5.400  0.6746  0.2848 -0.3132
  166SAPS  H16S18752   5.842   7.192   5.381 -0.8920  2.1626 -1.9028
  166SAPS  C21718753   5.667   7.192   5.275  0.1196 -0.5942 -0.6663
  166SAPS  H17R18754   5.676   7.302   5.270  1.5624 -0.6807 -0.4803
  166SAPS  H17S18755   5.565   7.147   5.272  0.0767 -0.5472 -0.0617
  166SAPS  C21818756   5.737   7.133   5.149 -0.3486 -0.2890 -0.4091
  166SAPS  H18R18757   5.731   7.022   5.147 -0.4730 -0.3305  0.9761
  166SAPS  H18S18758   5.842   7.169   5.147  0.1791 -1.5521  1.4378
  166SAPS  C21918759   5.670   7.178   5.020 -0.3334 -0.4657 -0.1139
  166SAPS  H19R18760   5.654   7.287   5.007 -1.6590 -0.6416 -0.1893
  166SAPS  H19S18761   5.573   7.124   5.030  0.5287 -2.4355 -1.6926
  166SAPS  C22018762   5.750   7.133   4.902 -0.3404  0.1458 -0.6625
  166SAPS  H20R18763   5.762   7.023   4.917 -1.0506  0.0756 -0.5900
  166SAPS  H20S18764   5.844   7.187   4.876  0.7292 -1.1909  0.2168
  166SAPS  H20T18765   5.692   7.139   4.808 -3.3494 -0.7579  0.9962
  166SAPS   C3318766   6.305   6.966   6.005 -0.2781 -0.3911 -0.2594
  166SAPS   H3X18767   6.218   6.898   5.999 -1.0347  0.4716  0.6796
  166SAPS   H3Y18768   6.400   6.917   5.973  1.3410  2.3024  0.0916
  166SAPS   C3418769   6.306   7.090   5.920 -0.3381 -0.0349  0.7522
  166SAPS   H4X18770   6.396   7.154   5.935 -1.2027  0.9707  1.8915
  166SAPS   H4Y18771   6.223   7.155   5.955  0.7904  0.8175  1.9341
  166SAPS   C3518772   6.287   7.066   5.769  0.4017  0.3285  0.9821
  166SAPS   H5X18773   6.205   6.992   5.761 -0.0955  0.9843 -0.2940
  166SAPS   H5Y18774   6.386   7.030   5.735 -0.1292 -1.5984  1.3348
  166SAPS   C3618775   6.267   7.189   5.681 -0.5031 -0.2137 -0.5994
  166SAPS   H6X18776   6.367   7.236   5.672 -0.4647  0.3747  2.0342
  166SAPS   H6Y18777   6.203   7.270   5.723 -1.4052 -0.8104 -0.7869
  166SAPS   C3718778   6.227   7.145   5.543 -0.7898 -0.0845 -0.0577
  166SAPS   H7X18779   6.133   7.087   5.546  0.4010 -2.0410  1.2072
  166SAPS   H7Y18780   6.316   7.093   5.501  0.3205  1.7200 -0.0799
  166SAPS   C3818781   6.187   7.267   5.456 -0.7088 -0.3011 -0.2776
  166SAPS   H8X18782   6.273   7.334   5.474 -0.2947 -1.6815  4.0364
  166SAPS   H8Y18783   6.097   7.320   5.493 -0.7130  1.0547 -2.0766
  166SAPS   C3918784   6.162   7.239   5.305  0.0207  0.2708  0.2605
  166SAPS   H9X18785   6.102   7.324   5.268  0.7870  1.3386  1.3945
  166SAPS   H9Y18786   6.095   7.151   5.297  1.6695 -1.3231  2.6343
  166SAPS  C31018787   6.296   7.219   5.229  0.9422  0.3562 -0.6501
  166SAPS  H10X18788   6.329   7.123   5.274 -0.1486  0.3093  0.0765
  166SAPS  H10Y18789   6.369   7.301   5.249  1.3967 -0.0946 -0.4183
  166SAPS  C31118790   6.288   7.217   5.078  0.6346 -0.6912  0.3985
  166SAPS  H11X18791   6.276   7.321   5.042  1.9828 -0.8609 -0.6320
  166SAPS  H11Y18792   6.197   7.157   5.055  0.4918 -0.0347 -0.8341
  166SAPS  C31218793   6.411   7.163   5.000 -0.1320 -0.1675  0.3444
  166SAPS  H12X18794   6.427   7.053   5.008 -0.4438 -0.2209  0.2454
  166SAPS  H12Y18795   6.498   7.215   5.044  0.5004 -1.5336  0.7673
  166SAPS  C31318796   6.408   7.206   4.855 -0.2741  0.0938  0.2884
  166SAPS  H13X18797   6.426   7.315   4.854 -1.2212  0.3657  3.3683
  166SAPS  H13Y18798   6.308   7.191   4.809  0.1156 -0.1413 -0.5113
  166SAPS  C31418799   6.512   7.141   4.757 -0.5511 -0.2057 -0.2742
  166SAPS  H14X18800   6.510   7.031   4.773 -0.4968 -0.2549 -0.6041
  166SAPS  H14Y18801   6.609   7.191   4.778 -0.3108 -0.4043 -0.8963
  166SAPS  C31518802   6.469   7.175   4.610 -0.6816  0.2274  0.3816
  166SAPS  H15X18803   6.503   7.278   4.583 -1.2352  0.0761 -0.9866
  166SAPS  H15Y18804   6.360   7.196   4.608 -0.7187  0.0532  0.5833
  166SAPS  C31618805   6.531   7.095   4.498 -0.6397 -0.4864  0.3572
  166SAPS  H16X18806   6.496   6.990   4.501 -0.5268 -0.4906  2.0155
  166SAPS  H16Y18807   6.641   7.095   4.511 -0.5804  0.9884  0.0921
  166SAPS  C31718808   6.512   7.161   4.359  0.3393  0.1184  0.5578
  166SAPS  H17X18809   6.547   7.090   4.280  1.4157 -0.7543  1.7801
  166SAPS  H17Y18810   6.580   7.247   4.340 -0.5515  0.6140 -0.5185
  166SAPS  C31818811   6.371   7.203   4.311  0.5858 -0.1734  0.0626
  166SAPS  H18X18812   6.367   7.279   4.230 -0.9570 -0.9712 -0.6722
  166SAPS  H18Y18813   6.309   7.243   4.394  1.0811 -2.1902  1.4626
  166SAPS  H18Z18814   6.314   7.117   4.268  1.3066  0.6921 -2.8658
  167SAPS     N18815   1.458   3.021   6.494 -0.0903 -0.2044 -0.6139
  167SAPS   HN118816   1.552   3.060   6.472  0.3045 -1.4592 -1.2581
  167SAPS   HN218817   1.442   2.939   6.432  3.4947 -2.4422  1.0514
  167SAPS   HN318818   1.383   3.092   6.482  0.6695  0.8452  0.5541
  167SAPS   C1218819   1.453   2.977   6.644 -0.4748 -0.3098  0.0394
  167SAPS  H12A18820   1.514   2.888   6.647 -2.0619 -1.4328  2.3339
  167SAPS   C1318821   1.487   3.087   6.740  0.3560 -0.0078  0.3830
  167SAPS  O13A18822   1.496   3.205   6.695 -0.2447 -0.4252 -0.3247
  167SAPS  O13B18823   1.513   3.055   6.861 -0.3364 -0.4229  0.8362
  167SAPS   C1118824   1.311   2.923   6.673  0.1207 -0.0992  0.0355
  167SAPS  H11A18825   1.325   2.876   6.773  3.3269 -0.0883 -0.2853
  167SAPS  H11B18826   1.285   2.843   6.600 -0.1430  0.3017 -0.3121
  167SAPS     P18827   1.058   2.995   6.715 -0.4898 -0.1617  0.0939
  167SAPS   O1318828   1.049   2.870   6.793  0.4072 -0.0086  0.1644
  167SAPS   O1418829   1.008   3.109   6.785 -0.1129 -0.1423  0.1600
  167SAPS   O1218830   1.210   3.022   6.662 -0.0210  0.9510 -0.2772
  167SAPS   O1118831   0.981   2.982   6.579  0.4865 -0.2202  0.4074
  167SAPS    C118832   0.990   3.060   6.458  0.0550  0.0736 -0.7055
  167SAPS    HA18833   1.034   3.159   6.483 -3.3007  1.5430 -0.1218
  167SAPS    HB18834   1.060   3.006   6.392  0.9978  0.7370 -0.2756
  167SAPS    C218835   0.853   3.098   6.400 -0.4355  0.3801 -1.0328
  167SAPS    HS18836   0.798   3.155   6.477 -2.4352 -0.9565 -1.4078
  167SAPS   O2118837   0.780   2.973   6.380 -0.1256  0.5916  0.3691
  167SAPS   C2118838   0.650   2.998   6.360  0.7682  0.0316 -0.1068
  167SAPS   O2218839   0.586   3.097   6.391 -0.0794 -0.5533 -0.5666
  167SAPS   C2218840   0.587   2.875   6.299  0.7661 -0.0274 -0.6230
  167SAPS   H2R18841   0.650   2.787   6.326 -1.2078 -0.7598  2.0368
  167SAPS   H2S18842   0.482   2.868   6.335  0.6098 -0.3081 -1.1199
  167SAPS    C318843   0.868   3.199   6.277  0.1777  0.2813 -0.5810
  167SAPS    HX18844   0.918   3.296   6.301  4.0698 -1.3396 -1.4175
  167SAPS    HY18845   0.765   3.226   6.244 -1.0044 -0.0813  2.4538
  167SAPS   O3118846   0.930   3.127   6.166  0.2712  0.4329 -0.0207
  167SAPS   C3118847   1.054   3.151   6.150  0.6152  0.2493 -0.1226
  167SAPS   O3218848   1.122   3.224   6.224 -0.1371  0.4560  0.3176
  167SAPS   C3218849   1.101   3.075   6.023  0.3715  0.5695 -0.2817
  167SAPS   H2X18850   1.072   3.141   5.938  0.8284 -0.4589 -1.2646
  167SAPS   H2Y18851   1.036   2.986   6.023  0.1413  0.7339  0.3644
  167SAPS   C2318852   0.582   2.876   6.144 -0.2967  0.1167 -0.2512
  167SAPS   H3R18853   0.686   2.890   6.106  0.6779 -1.6377  1.6194
  167SAPS   H3S18854   0.525   2.968   6.117 -1.0180 -0.3233 -0.2410
  167SAPS   C2418855   0.516   2.749   6.096  0.3905  0.2620  0.7937
  167SAPS   H4R18856   0.424   2.737   6.157  0.5143 -1.5565  0.6744
  167SAPS   H4S18857   0.578   2.657   6.100  3.0602  1.8265 -0.8525
  167SAPS   C2518858   0.482   2.765   5.950  0.0326 -0.8444  0.9150
  167SAPS   H5R18859   0.574   2.794   5.897  0.0749 -0.9782  0.9120
  167SAPS   C2618860   0.375   2.731   5.874 -0.5408 -0.3742 -0.1026
  167SAPS   H6R18861   0.373   2.764   5.769 -1.7244  1.8512  0.5667
  167SAPS   C2718862   0.237   2.683   5.917 -0.6437 -0.3358  0.4221
  167SAPS   H7R18863   0.226   2.711   6.024  3.1323 -0.7770  1.0697
  167SAPS   H7S18864   0.230   2.573   5.906  1.2036 -0.3850 -0.6487
  167SAPS   C2818865   0.125   2.746   5.842 -0.3668 -0.7602  0.8902
  167SAPS   H8R18866   0.063   2.817   5.898 -0.2961 -0.7006  0.8935
  167SAPS   C2918867   0.087   2.724   5.713  0.5916  0.0980 -0.0996
  167SAPS   H9R18868   0.005   2.785   5.673 -0.3709  0.8075  2.7538
  167SAPS  C21018869   0.155   2.641   5.614  0.2764 -0.9144 -0.0039
  167SAPS  H10R18870   0.248   2.591   5.647  1.0840  1.3677  1.4432
  167SAPS  H10S18871   0.184   2.709   5.530  2.0774 -1.2942  0.2616
  167SAPS  C21118872   0.069   2.524   5.561 -0.1983  0.5528  0.2009
  167SAPS  H11R18873  -0.024   2.497   5.613 -1.0058 -0.8822 -1.8458
  167SAPS  C21218874   0.095   2.448   5.445 -0.6114 -0.2560  0.2112
  167SAPS  H12R18875   0.041   2.354   5.424 -1.0172 -0.1952  0.9290
  167SAPS  C21318876   0.215   2.453   5.350  0.5298  0.5657 -0.8867
  167SAPS  H13R18877   0.217   2.361   5.289 -2.1126  0.1312 -0.4596
  167SAPS  H13S18878   0.305   2.461   5.414 -0.5056  2.6942  0.4491
  167SAPS  C21418879   0.218   2.575   5.261  0.0564  0.4380 -0.3181
  167SAPS  H14R18880   0.132   2.644   5.258  1.2166  1.8803 -1.7466
  167SAPS  C21518881   0.314   2.604   5.173 -0.5985 -0.4284  0.0595
  167SAPS  H15R18882   0.306   2.692   5.108  2.2206 -1.2551 -1.6050
  167SAPS  C21618883   0.449   2.533   5.148  0.8343 -0.6737  0.0695
  167SAPS  H16R18884   0.482   2.472   5.234 -1.5158 -0.8146  0.9429
  167SAPS  H16S18885   0.523   2.615   5.136 -1.4493  1.3716 -1.3295
  167SAPS  C21718886   0.448   2.440   5.019  0.0525 -0.7603 -0.1003
  167SAPS  H17R18887   0.359   2.375   5.025  0.4164 -1.3266 -0.6563
  167SAPS  H17S18888   0.536   2.371   5.015 -0.3583 -1.2431 -2.2218
  167SAPS  C21818889   0.441   2.513   4.882  0.5194  0.5039 -0.3898
  167SAPS  H18R18890   0.373   2.601   4.888  0.7790  0.6448  0.8225
  167SAPS  H18S18891   0.397   2.445   4.806 -2.2883  0.4688  1.1426
  167SAPS  C21918892   0.574   2.563   4.824 -0.4354  0.4189 -0.0119
  167SAPS  H19R18893   0.641   2.483   4.786  0.9576  2.9732 -3.4805
  167SAPS  H19S18894   0.627   2.607   4.912  0.3006  3.0992 -1.6876
  167SAPS  C22018895   0.547   2.655   4.707  0.3277  0.0313  0.0544
  167SAPS  H20R18896   0.632   2.719   4.674 -0.2963  1.4253  1.0338
  167SAPS  H20S18897   0.474   2.737   4.726  2.2117  1.4336  1.7506
  167SAPS  H20T18898   0.515   2.602   4.615 -0.7236 -0.6993  0.8194
  167SAPS   C3318899   1.250   3.039   6.015 -0.2487 -0.3121 -0.3382
  167SAPS   H3X18900   1.290   3.019   6.116  0.1746 -0.1006 -0.4616
  167SAPS   H3Y18901   1.297   3.136   5.986  0.1591 -0.7452 -1.1772
  167SAPS   C3418902   1.289   2.925   5.921 -0.1434  0.2590 -1.3451
  167SAPS   H4X18903   1.215   2.841   5.922  0.4299 -0.2530 -1.2960
  167SAPS   H4Y18904   1.388   2.889   5.954  0.9676  2.2658 -2.2926
  167SAPS   C3518905   1.296   2.974   5.774 -0.2674 -0.0225 -0.1586
  167SAPS   H5X18906   1.353   3.070   5.776  0.9691 -0.7108 -0.8825
  167SAPS   H5Y18907   1.190   2.999   5.752 -0.1959  3.0634  2.2562
  167SAPS   C3618908   1.362   2.877   5.675  0.1201 -0.1044 -0.3846
  167SAPS   H6X18909   1.325   2.777   5.705 -0.3715  0.3258  0.5109
  167SAPS   H6Y18910   1.469   2.895   5.700 -0.2123 -0.4004  1.3688
  167SAPS   C3718911   1.331   2.916   5.529 -0.0597 -0.3333 -0.4832
  167SAPS   H7X18912   1.344   3.024   5.505  1.5756 -0.5669 -0.7598
  167SAPS   H7Y18913   1.223   2.900   5.510 -0.3761  0.6114  0.4148
  167SAPS   C3818914   1.419   2.840   5.431 -0.0125  0.2351 -0.3641
  167SAPS   H8X18915   1.439   2.734   5.457  0.3635 -0.1977 -2.2448
  167SAPS   H8Y18916   1.517   2.888   5.413  0.1659  0.1760  0.3941
  167SAPS   C3918917   1.347   2.835   5.294  0.0060 -0.2584  0.3457
  167SAPS   H9X18918   1.250   2.783   5.313 -0.0737 -0.4999 -0.6918
  167SAPS   H9Y18919   1.410   2.767   5.234  1.1420  0.8886  0.1922
  167SAPS  C31018920   1.322   2.968   5.225 -0.2879  0.1591  0.0174
  167SAPS  H10X18921   1.420   3.007   5.191 -0.0851 -0.0607  0.3352
  167SAPS  H10Y18922   1.278   3.044   5.293 -1.0633  0.3063 -0.6371
  167SAPS  C31118923   1.247   2.980   5.096  0.0666 -0.0877  0.5403
  167SAPS  H11X18924   1.241   3.089   5.076  2.3628  0.0743  0.3850
  167SAPS  H11Y18925   1.143   2.945   5.113  0.0352  0.2876  1.1210
  167SAPS  C31218926   1.316   2.895   4.976  0.3781  0.3417 -0.1216
  167SAPS  H12X18927   1.293   2.788   4.994 -0.8417  0.7275  0.6959
  167SAPS  H12Y18928   1.427   2.904   4.978  0.4109 -0.1416  0.3497
  167SAPS  C31318929   1.285   2.955   4.841  0.3885 -0.2291 -0.0232
  167SAPS  H13X18930   1.353   2.927   4.759  1.2159  2.4956 -0.3673
  167SAPS  H13Y18931   1.285   3.065   4.860 -2.6160 -0.4201  1.7173
  167SAPS  C31418932   1.149   2.921   4.789  0.3506 -0.3000 -0.0349
  167SAPS  H14X18933   1.075   2.932   4.871 -1.0477  0.0858 -1.3039
  167SAPS  H14Y18934   1.146   2.814   4.761 -0.2378 -0.3200  0.0961
  167SAPS  C31518935   1.112   3.006   4.665 -0.1011 -0.6622 -0.0909
  167SAPS  H15X18936   1.039   2.948   4.604  1.1740 -1.1623 -1.1943
  167SAPS  H15Y18937   1.201   3.000   4.599 -0.1858  0.8257 -0.3763
  167SAPS  C31618938   1.073   3.156   4.693  1.0451  0.2812  0.0035
  167SAPS  H16X18939   1.149   3.213   4.750 -0.6639  2.7265 -0.0353
  167SAPS  H16Y18940   0.983   3.143   4.756 -0.4184 -3.0677 -2.4688
  167SAPS  C31718941   1.037   3.232   4.566  0.1317  0.5879  0.7313
  167SAPS  H17X18942   0.972   3.171   4.500 -0.4132  0.8157  1.0484
  167SAPS  H17Y18943   1.132   3.239   4.510 -0.7874  3.1699 -0.6966
  167SAPS  C31818944   0.981   3.363   4.611  0.1664 -0.1169  0.3014
  167SAPS  H18X18945   0.896   3.339   4.677  0.8103 -1.9572  0.5239
  167SAPS  H18Y18946   0.951   3.431   4.528  1.2276  0.2139  0.1698
  167SAPS  H18Z18947   1.045   3.418   4.683 -1.1428  0.9239  0.7037
  168SAPS     N18948   5.946   3.156   7.052  0.5035  0.6857  0.5847
  168SAPS   HN118949   5.983   3.201   6.966 -0.5960 -2.4192 -1.6838
  168SAPS   HN218950   5.848   3.124   7.038  0.2876  1.2957  0.6679
  168SAPS   HN318951   5.949   3.230   7.125 -1.5763  1.3738  0.0303
  168SAPS   C1218952   6.036   3.039   7.077  0.5352 -0.5870  0.6603
  168SAPS  H12A18953   6.058   3.006   6.977 -2.6343  1.2948 -0.7900
  168SAPS   C1318954   6.166   3.075   7.145 -0.0256 -0.5576 -0.0742
  168SAPS  O13A18955   6.197   3.192   7.179  0.4321 -0.0541 -0.5540
  168SAPS  O13B18956   6.246   2.979   7.169 -0.0486  0.0294  0.0850
  168SAPS   C1118957   5.958   2.923   7.153 -0.0619 -0.2887 -0.1425
  168SAPS  H11A18958   5.928   2.989   7.238  0.9937  1.6734 -1.2054
  168SAPS  H11B18959   6.022   2.840   7.188 -1.6464 -2.0836 -1.2934
  168SAPS     P18960   5.857   2.774   6.981 -0.1191  0.5166  0.3531
  168SAPS   O1318961   5.949   2.669   7.031  0.4851 -0.4108 -0.2088
  168SAPS   O1418962   5.720   2.743   6.938  0.1444  0.3738 -0.5806
  168SAPS   O1218963   5.843   2.880   7.097  0.4131 -0.2855 -0.0549
  168SAPS   O1118964   5.924   2.867   6.869 -0.0786 -0.4697 -0.0437
  168SAPS    C118965   5.934   2.810   6.741  0.3964 -0.7850 -0.1481
  168SAPS    HA18966   6.028   2.752   6.726  0.1017 -1.2607 -0.1933
  168SAPS    HB18967   5.855   2.736   6.715 -0.6270 -0.3370  1.5186
  168SAPS    C218968   5.916   2.928   6.636  0.4500 -0.4433  0.5412
  168SAPS    HS18969   5.915   2.897   6.529  2.9138 -1.4266  0.7390
  168SAPS   O2118970   6.017   3.027   6.655 -0.4079  0.1798  0.5798
  168SAPS   C2118971   6.125   3.010   6.596  0.2817 -0.3483 -0.1207
  168SAPS   O2218972   6.152   2.916   6.522 -0.0101  0.4004 -0.2562
  168SAPS   C2218973   6.229   3.106   6.661 -0.0399  0.4229 -0.2946
  168SAPS   H2R18974   6.175   3.191   6.708 -1.9198  0.0304 -1.6301
  168SAPS   H2S18975   6.278   3.043   6.737 -1.0732  0.3870  0.3564
  168SAPS    C318976   5.783   2.996   6.665 -0.5365 -0.1602 -0.4046
  168SAPS    HX18977   5.792   3.044   6.765  0.9145 -2.3101  0.5781
  168SAPS    HY18978   5.699   2.923   6.667 -1.5934  0.9645 -1.5204
  168SAPS   O3118979   5.755   3.084   6.560  0.1543 -0.6062  0.3882
  168SAPS   C3118980   5.790   3.209   6.588  0.6639 -0.5093  0.5411
  168SAPS   O3218981   5.824   3.258   6.688 -0.1228 -0.3112 -0.7134
  168SAPS   C3218982   5.779   3.279   6.453 -0.3601  0.0579 -0.0531
  168SAPS   H2X18983   5.712   3.217   6.390 -0.4109 -0.7268  0.7450
  168SAPS   H2Y18984   5.879   3.287   6.405  0.7101 -2.7682  1.4513
  168SAPS   C2318985   6.327   3.165   6.560  0.5422 -0.4972  0.0347
  168SAPS   H3R18986   6.364   3.086   6.491  1.2642  0.9064 -1.2451
  168SAPS   H3S18987   6.422   3.191   6.611 -1.2082 -0.9856  3.8376
  168SAPS   C2418988   6.278   3.285   6.484 -0.2220  0.0872  0.4179
  168SAPS   H4R18989   6.371   3.312   6.429  0.2262 -2.0434  0.0581
  168SAPS   H4S18990   6.267   3.371   6.554  2.5277  1.5301 -0.7627
  168SAPS   C2518991   6.160   3.266   6.387  0.9978  0.5428  0.0188
  168SAPS   H5R18992   6.077   3.335   6.409 -1.3855 -2.3369  0.8372
  168SAPS   C2618993   6.173   3.217   6.263 -0.0883  0.0910  0.0871
  168SAPS   H6R18994   6.082   3.215   6.200 -1.0204  2.2867  1.2725
  168SAPS   C2718995   6.289   3.145   6.194 -0.0596 -0.4394 -0.1907
  168SAPS   H7R18996   6.389   3.157   6.240 -0.0094  1.0352 -0.6348
  168SAPS   H7S18997   6.286   3.194   6.094 -1.0247  0.4467  0.2657
  168SAPS   C2818998   6.262   2.994   6.177  0.3308  0.0237 -0.1347
  168SAPS   H8R18999   6.207   2.944   6.259 -0.0472  0.2181 -0.2656
  168SAPS   C2919000   6.290   2.925   6.065  0.0813  0.0779 -0.2236
  168SAPS   H9R19001   6.275   2.816   6.065 -1.2907  0.2505 -0.3846
  168SAPS  C21019002   6.363   2.971   5.942  0.3546 -0.1891  0.3982
  168SAPS  H10R19003   6.353   3.080   5.923  1.4683 -0.0227  0.7321
  168SAPS  H10S19004   6.307   2.931   5.855 -0.1873 -0.2992  0.7909
  168SAPS  C21119005   6.504   2.940   5.920 -1.2173 -0.4526  0.0229
  168SAPS  H11R19006   6.573   2.961   6.002  1.0067 -1.9460 -1.3459
  168SAPS  C21219007   6.563   2.886   5.809  0.4735  0.3556  0.0154
  168SAPS  H12R19008   6.670   2.864   5.817  0.6876  1.5305  0.6294
  168SAPS  C21319009   6.497   2.843   5.680  0.6301  0.3405  0.2323
  168SAPS  H13R19010   6.400   2.795   5.705  0.2552  0.2544 -1.3242
  168SAPS  H13S19011   6.557   2.765   5.630 -1.4011 -1.7561  0.8724
  168SAPS  C21419012   6.485   2.968   5.595  0.1296 -0.4256 -0.2990
  168SAPS  H14R19013   6.408   3.036   5.636 -1.2876 -0.1430 -3.1914
  168SAPS  C21519014   6.551   3.002   5.484 -0.5056 -0.1416 -0.0561
  168SAPS  H15R19015   6.535   3.099   5.435  2.2799  0.6947  0.4695
  168SAPS  C21619016   6.645   2.909   5.401  0.5420 -0.0260  0.5588
  168SAPS  H16R19017   6.691   2.835   5.470  0.4788  0.1431  0.7858
  168SAPS  H16S19018   6.730   2.962   5.353  0.3783  0.7335  1.0862
  168SAPS  C21719019   6.573   2.819   5.292 -0.2625 -0.0623  0.1976
  168SAPS  H17R19020   6.527   2.882   5.212  0.4594 -0.0810 -0.2465
  168SAPS  H17S19021   6.504   2.744   5.334  0.5483 -1.5721 -1.0426
  168SAPS  C21819022   6.678   2.740   5.213 -0.1428 -0.5872  0.2276
  168SAPS  H18R19023   6.730   2.662   5.273  2.1154  0.2676 -0.4870
  168SAPS  H18S19024   6.761   2.811   5.193  0.8543 -1.9893 -0.8118
  168SAPS  C21919025   6.625   2.703   5.073  0.0987 -0.4574 -0.4237
  168SAPS  H19R19026   6.592   2.796   5.023  1.2011 -0.5227 -1.2984
  168SAPS  H19S19027   6.542   2.629   5.070 -0.4710  0.1051  0.6667
  168SAPS  C22019028   6.739   2.619   5.006  0.0242  0.3583 -0.1119
  168SAPS  H20R19029   6.835   2.676   5.005 -0.2081  0.7822  0.6698
  168SAPS  H20S19030   6.707   2.603   4.901  1.1769 -0.8272 -0.3149
  168SAPS  H20T19031   6.752   2.518   5.051 -1.9183  0.8415  1.6933
  168SAPS   C3319032   5.693   3.402   6.467  0.1231 -0.3260  0.0569
  168SAPS   H3X19033   5.746   3.463   6.543 -1.2239  0.0707  0.7095
  168SAPS   H3Y19034   5.587   3.403   6.502  0.0245 -1.3361 -0.1936
  168SAPS   C3419035   5.703   3.482   6.331  0.4624 -0.2338 -1.1748
  168SAPS   H4X19036   5.808   3.475   6.295  0.4588 -3.2754 -0.8335
  168SAPS   H4Y19037   5.685   3.586   6.368  2.3312 -0.5993  1.0323
  168SAPS   C3519038   5.582   3.448   6.238 -0.1755  0.1378  0.2295
  168SAPS   H5X19039   5.488   3.454   6.296  0.2043 -0.5176  0.9329
  168SAPS   H5Y19040   5.592   3.344   6.202 -0.0640  0.3027 -0.2256
  168SAPS   C3619041   5.590   3.544   6.112 -0.0004  0.3135  0.7015
  168SAPS   H6X19042   5.628   3.646   6.135  0.7092 -0.2864  2.2857
  168SAPS   H6Y19043   5.483   3.555   6.083 -0.1126 -0.1226  0.9386
  168SAPS   C3719044   5.673   3.475   5.997  0.3289  0.5561  0.4940
  168SAPS   H7X19045   5.642   3.368   5.995 -0.4155  0.7658 -2.1736
  168SAPS   H7Y19046   5.779   3.463   6.026  0.4872 -3.2748 -1.1183
  168SAPS   C3819047   5.651   3.526   5.861 -0.3283 -0.5635 -0.5336
  168SAPS   H8X19048   5.674   3.635   5.860 -1.4924 -0.3016 -0.2205
  168SAPS   H8Y19049   5.541   3.525   5.847 -0.5064  0.8308  0.5181
  168SAPS   C3919050   5.720   3.444   5.750 -0.3240  0.0359 -0.3624
  168SAPS   H9X19051   5.661   3.352   5.732  2.3350 -2.1663  1.3054
  168SAPS   H9Y19052   5.817   3.405   5.787 -0.0136  1.2614  0.1938
  168SAPS  C31019053   5.730   3.511   5.618 -0.5532  0.0303 -0.2445
  168SAPS  H10X19054   5.774   3.612   5.627  3.3967 -1.3131 -2.0311
  168SAPS  H10Y19055   5.627   3.518   5.576 -0.8625  0.2497  0.5399
  168SAPS  C31119056   5.808   3.420   5.521 -0.2116 -0.1557  0.3062
  168SAPS  H11X19057   5.778   3.313   5.524  2.7379 -1.0843 -0.4861
  168SAPS  H11Y19058   5.915   3.433   5.547  1.3491  3.5650 -5.9474
  168SAPS  C31219059   5.802   3.475   5.371  1.0609 -1.1517 -1.0800
  168SAPS  H12X19060   5.852   3.573   5.358  1.8824 -1.2505  1.0440
  168SAPS  H12Y19061   5.694   3.483   5.350  0.7345  0.3082  0.9348
  168SAPS  C31319062   5.858   3.370   5.276 -0.7777 -0.0800 -0.1781
  168SAPS  H13X19063   5.819   3.271   5.307 -0.2883 -0.2080  0.0416
  168SAPS  H13Y19064   5.967   3.353   5.285 -0.5786  0.6361 -1.0882
  168SAPS  C31419065   5.839   3.391   5.130  0.5739  0.1628  0.0818
  168SAPS  H14X19066   5.890   3.484   5.098  0.1403  0.4550  0.2221
  168SAPS  H14Y19067   5.731   3.416   5.117  0.9578  0.9202 -2.0584
  168SAPS  C31519068   5.888   3.271   5.041  0.0222 -0.1801 -0.3772
  168SAPS  H15X19069   5.802   3.218   4.996 -0.4487  0.1644  0.0942
  168SAPS  H15Y19070   5.931   3.189   5.103  0.1398 -0.3758 -0.7149
  168SAPS  C31619071   5.992   3.316   4.944 -0.1138 -0.1666 -0.3255
  168SAPS  H16X19072   6.072   3.374   4.995 -0.4841  1.3301 -1.3798
  168SAPS  H16Y19073   5.934   3.369   4.866 -0.8059 -0.0581  0.2566
  168SAPS  C31719074   6.052   3.205   4.867 -0.2458 -0.0935 -0.8867
  168SAPS  H17X19075   5.965   3.156   4.817 -0.5509  2.4886 -3.1039
  168SAPS  H17Y19076   6.089   3.146   4.953 -1.5744 -0.9180 -0.8492
  168SAPS  C31819077   6.174   3.238   4.780  0.1314  0.7720 -0.6806
  168SAPS  H18X19078   6.182   3.152   4.710 -1.5141 -1.3439  1.5434
  168SAPS  H18Y19079   6.264   3.238   4.846  1.3340  0.1730 -2.2522
  168SAPS  H18Z19080   6.162   3.331   4.722  2.3498 -0.1704 -2.8295
  169SAPS     N19081   1.872   3.767   6.835 -0.3928 -0.4443 -0.0797
  169SAPS   HN119082   1.917   3.679   6.868  4.1384  1.9709  1.0166
  169SAPS   HN219083   1.793   3.747   6.770 -0.5945  0.4653 -0.1256
  169SAPS   HN319084   1.943   3.818   6.778  1.0042 -1.0394  1.0643
  169SAPS   C1219085   1.829   3.846   6.947  0.3024  0.5239  0.0479
  169SAPS  H12A19086   1.773   3.773   7.004 -1.6038  1.7743 -0.1069
  169SAPS   C1319087   1.939   3.902   7.050  0.0225 -0.3919 -0.3460
  169SAPS  O13A19088   2.058   3.906   7.018 -1.1124 -0.0640 -0.2620
  169SAPS  O13B19089   1.894   3.964   7.151 -0.1302 -0.6234 -0.3694
  169SAPS   C1119090   1.714   3.949   6.915  0.0786 -0.2250  0.2958
  169SAPS  H11A19091   1.685   3.999   7.010  2.3425 -0.9588  1.4238
  169SAPS  H11B19092   1.627   3.889   6.881  0.6073 -1.5747  1.2864
  169SAPS     P19093   1.760   4.193   6.843  0.1385 -0.1429  0.0746
  169SAPS   O1319094   1.636   4.232   6.914 -0.0264  0.3842  0.3037
  169SAPS   O1419095   1.890   4.225   6.905  0.3656 -0.0863 -0.4284
  169SAPS   O1219096   1.751   4.039   6.809  0.3691  0.4440 -0.2036
  169SAPS   O1119097   1.762   4.267   6.705  0.0494 -0.2851  0.3470
  169SAPS    C119098   1.704   4.209   6.584  0.4876 -0.1552 -0.0787
  169SAPS    HA19099   1.612   4.150   6.605 -0.9304  2.2493  0.8163
  169SAPS    HB19100   1.676   4.289   6.513 -1.4509 -1.1946 -0.5618
  169SAPS    C219101   1.794   4.114   6.494 -0.2409 -0.3082  0.4657
  169SAPS    HS19102   1.834   4.037   6.563 -1.5181  0.4840  2.1827
  169SAPS   O2119103   1.897   4.194   6.423 -0.1189 -0.3400 -0.9341
  169SAPS   C2119104   2.000   4.127   6.378 -0.0048 -0.1662 -0.1373
  169SAPS   O2219105   2.023   4.013   6.412 -0.4386 -0.0355  0.3388
  169SAPS   C2219106   2.073   4.202   6.265 -0.2473  0.0353  0.1447
  169SAPS   H2R19107   2.038   4.308   6.259 -0.0380  0.0363 -1.6068
  169SAPS   H2S19108   2.181   4.192   6.289  0.4861  2.6589 -1.6198
  169SAPS    C319109   1.709   4.029   6.399  0.7453  0.0608 -0.3512
  169SAPS    HX19110   1.668   4.106   6.330 -1.1423 -0.9200 -0.3987
  169SAPS    HY19111   1.631   3.981   6.461  2.2245 -3.6558 -1.0808
  169SAPS   O3119112   1.772   3.931   6.311 -0.2535 -0.0744 -0.4950
  169SAPS   C3119113   1.810   3.811   6.362  0.2641 -0.6573  0.4293
  169SAPS   O3219114   1.782   3.770   6.470  0.0674 -0.3056 -0.0916
  169SAPS   C3219115   1.887   3.737   6.256 -0.1453 -0.0694 -0.1190
  169SAPS   H2X19116   1.896   3.806   6.170 -0.2556 -1.3896 -1.2315
  169SAPS   H2Y19117   1.832   3.647   6.220  0.4105 -0.7117  0.5867
  169SAPS   C2319118   2.046   4.139   6.124 -0.5936 -0.0028  0.3928
  169SAPS   H3R19119   1.939   4.132   6.097  0.1683 -0.5072 -2.8132
  169SAPS   H3S19120   2.097   4.041   6.135  1.1422  0.9161  1.0097
  169SAPS   C2419121   2.122   4.214   6.010 -0.7604 -0.2113  0.5067
  169SAPS   H4R19122   2.232   4.210   6.025 -0.6600 -1.2751 -0.3687
  169SAPS   H4S19123   2.091   4.320   6.013 -1.3460 -0.3479 -0.4370
  169SAPS   C2519124   2.093   4.157   5.871 -0.1334  0.3178 -0.4584
  169SAPS   H5R19125   2.161   4.075   5.845  0.9233  1.6021 -1.8933
  169SAPS   C2619126   2.027   4.217   5.769  0.0457 -0.1485 -0.1227
  169SAPS   H6R19127   2.018   4.161   5.674 -0.9971  0.8468 -0.6343
  169SAPS   C2719128   1.959   4.357   5.773  0.0963  0.1041  0.2954
  169SAPS   H7R19129   1.930   4.404   5.869 -0.9614  0.0160  0.0356
  169SAPS   H7S19130   1.861   4.345   5.721  0.7087 -0.6664 -0.7138
  169SAPS   C2819131   2.043   4.466   5.706 -0.2776 -1.2960  0.6351
  169SAPS   H8R19132   2.122   4.514   5.766 -0.9232  1.2821 -0.4551
  169SAPS   C2919133   2.022   4.509   5.583 -0.0637  0.6683  0.9532
  169SAPS   H9R19134   2.087   4.584   5.537  0.3210 -1.1637 -1.7706
  169SAPS  C21019135   1.918   4.452   5.486 -0.4572  0.0038  0.7571
  169SAPS  H10R19136   1.886   4.532   5.416 -0.2585  0.2937  0.9898
  169SAPS  H10S19137   1.828   4.424   5.546 -1.1817  1.5287  0.4246
  169SAPS  C21119138   1.956   4.316   5.421 -0.2208  0.0931 -0.2491
  169SAPS  H11R19139   2.001   4.243   5.491 -2.9213 -0.9811  0.4753
  169SAPS  C21219140   1.946   4.284   5.293  0.0322 -0.8438  0.4108
  169SAPS  H12R19141   1.976   4.185   5.255  1.1453  0.2214 -1.6671
  169SAPS  C21319142   1.868   4.371   5.189  0.4189 -0.9150  0.3144
  169SAPS  H13R19143   1.792   4.421   5.253  0.4179 -2.3107  1.4628
  169SAPS  H13S19144   1.823   4.306   5.111  1.0624  0.1500 -0.9818
  169SAPS  C21419145   1.965   4.479   5.133  0.6387  0.0860 -0.3175
  169SAPS  H14R19146   2.005   4.551   5.205 -0.4638 -0.9200  1.3648
  169SAPS  C21519147   1.980   4.510   5.004  0.1296  1.1649 -0.2690
  169SAPS  H15R19148   2.045   4.588   4.964  1.1884 -0.4922 -1.9587
  169SAPS  C21619149   1.937   4.419   4.887  0.4115  0.8804  0.6774
  169SAPS  H16R19150   1.858   4.477   4.835 -1.1618  0.2500  2.2689
  169SAPS  H16S19151   1.897   4.320   4.918  1.4071 -0.4731 -2.0332
  169SAPS  C21719152   2.055   4.405   4.780 -0.2946  0.2642 -0.6655
  169SAPS  H17R19153   2.143   4.351   4.822 -0.7583  0.8643  1.1573
  169SAPS  H17S19154   2.091   4.503   4.742  2.0434 -1.1593 -2.3946
  169SAPS  C21819155   2.013   4.335   4.653 -0.5647  0.3375  0.2844
  169SAPS  H18R19156   1.972   4.240   4.694 -0.7366 -0.1310 -0.9470
  169SAPS  H18S19157   2.107   4.311   4.599 -0.4254  1.1246  0.1712
  169SAPS  C21919158   1.914   4.413   4.563  0.5469  0.6120 -0.2744
  169SAPS  H19R19159   1.961   4.509   4.532  1.5712 -0.4784 -2.3290
  169SAPS  H19S19160   1.825   4.440   4.624  1.0901  1.6722  0.0693
  169SAPS  C22019161   1.879   4.330   4.438  0.4536 -0.0462 -0.7721
  169SAPS  H20R19162   1.973   4.305   4.385 -0.3106 -0.3226 -2.0362
  169SAPS  H20S19163   1.817   4.393   4.370 -0.6536  1.1307  1.2284
  169SAPS  H20T19164   1.831   4.233   4.461  0.3815 -0.1200 -1.2294
  169SAPS   C3319165   2.036   3.707   6.282  0.3357  0.6171 -0.2756
  169SAPS   H3X19166   2.048   3.650   6.377  0.7184  2.0910  0.5840
  169SAPS   H3Y19167   2.070   3.812   6.295 -0.5034  1.0609 -1.5061
  169SAPS   C3419168   2.115   3.638   6.166 -0.0456  0.1994 -0.4062
  169SAPS   H4X19169   2.079   3.532   6.163  1.7255 -0.4223 -1.5371
  169SAPS   H4Y19170   2.224   3.640   6.188 -0.4257 -2.6515  2.4593
  169SAPS   C3519171   2.088   3.708   6.031 -0.3369  0.2724  0.3103
  169SAPS   H5X19172   2.084   3.819   6.045 -0.2644  0.4863 -1.2534
  169SAPS   H5Y19173   1.987   3.675   5.999  0.4171 -1.5007 -0.3386
  169SAPS   C3619174   2.196   3.672   5.923  0.0881  0.2079 -0.2768
  169SAPS   H6X19175   2.212   3.562   5.920  2.6825  0.4983  0.5111
  169SAPS   H6Y19176   2.295   3.699   5.964  0.3462 -1.3651  0.1977
  169SAPS   C3719177   2.178   3.731   5.789 -0.4628  0.0958 -0.1925
  169SAPS   H7X19178   2.281   3.748   5.753  0.1120  0.6233  1.5659
  169SAPS   H7Y19179   2.132   3.831   5.804  0.3986  0.6716 -1.2931
  169SAPS   C3819180   2.083   3.653   5.705 -0.0378  0.0033  1.1236
  169SAPS   H8X19181   1.981   3.643   5.748 -0.1110 -1.3945  0.6963
  169SAPS   H8Y19182   2.124   3.550   5.695 -1.0723 -0.2715 -0.7027
  169SAPS   C3919183   2.065   3.717   5.566 -0.5150  0.1656 -0.1837
  169SAPS   H9X19184   2.163   3.710   5.515 -0.1880  1.3859  0.2584
  169SAPS   H9Y19185   2.027   3.820   5.586 -0.1530 -0.0281  1.6848
  169SAPS  C31019186   1.963   3.644   5.480 -0.3633 -0.2689 -0.3354
  169SAPS  H10X19187   1.867   3.661   5.532  0.0880  1.1505  0.0757
  169SAPS  H10Y19188   1.977   3.534   5.480 -2.0422 -0.5096 -0.2280
  169SAPS  C31119189   1.930   3.691   5.339 -0.1135  0.2235 -0.5827
  169SAPS  H11X19190   1.983   3.788   5.327  0.5746 -0.2510 -1.5158
  169SAPS  H11Y19191   1.822   3.694   5.315  0.2931  0.1963 -2.5955
  169SAPS  C31219192   2.006   3.601   5.235 -0.0429  0.2902  0.2370
  169SAPS  H12X19193   1.983   3.493   5.249  1.9818 -0.2303 -0.0542
  169SAPS  H12Y19194   2.116   3.606   5.254  0.1604 -1.6518 -0.2174
  169SAPS  C31319195   1.982   3.640   5.084  0.9263 -0.3775  0.0755
  169SAPS  H13X19196   2.038   3.575   5.014 -1.4417 -1.3394 -1.0137
  169SAPS  H13Y19197   2.008   3.747   5.065 -1.0492  0.0629 -0.3283
  169SAPS  C31419198   1.827   3.606   5.052 -0.0026  0.0617  0.2394
  169SAPS  H14X19199   1.755   3.677   5.099  1.7409  1.5150  0.8285
  169SAPS  H14Y19200   1.797   3.505   5.087 -1.7337 -0.2056 -1.7879
  169SAPS  C31519201   1.806   3.613   4.903 -0.1866  0.2014  0.3818
  169SAPS  H15X19202   1.714   3.560   4.872 -0.4089 -0.6773  2.4086
  169SAPS  H15Y19203   1.890   3.560   4.853  1.3528  2.7598  0.0681
  169SAPS  C31619204   1.807   3.772   4.860  0.0104 -0.5395 -0.0057
  169SAPS  H16X19205   1.904   3.815   4.894 -0.2151  1.9229 -2.2008
  169SAPS  H16Y19206   1.731   3.814   4.930  1.3968  1.4114  0.4189
  169SAPS  C31719207   1.799   3.803   4.711  0.6110  0.6695  0.0646
  169SAPS  H17X19208   1.704   3.758   4.672  1.3265 -0.2216 -0.7088
  169SAPS  H17Y19209   1.878   3.747   4.656 -0.4064 -0.3511 -0.4356
  169SAPS  C31819210   1.813   3.949   4.680  1.0657 -0.2718  0.0265
  169SAPS  H18X19211   1.732   4.012   4.722 -1.1308 -2.4282 -0.7586
  169SAPS  H18Y19212   1.822   3.966   4.570  3.1202 -1.0182  0.0341
  169SAPS  H18Z19213   1.909   3.987   4.721  0.7236  0.5900  0.0595
  170SAPS     N19214   2.238   3.091   6.888  1.1214 -0.5665 -0.3035
  170SAPS   HN119215   2.272   3.027   6.963  0.1384 -0.5776  0.1562
  170SAPS   HN219216   2.244   3.051   6.793 -1.7518 -5.5137  1.2731
  170SAPS   HN319217   2.306   3.170   6.896  0.6974  0.2686 -3.6961
  170SAPS   C1219218   2.107   3.154   6.912  0.5433 -0.3514 -0.5475
  170SAPS  H12A19219   2.078   3.197   6.817  0.9420  0.6156 -0.2409
  170SAPS   C1319220   1.985   3.065   6.947  0.6026  0.4776  0.2803
  170SAPS  O13A19221   2.000   2.941   6.943  0.0018  0.3550  0.3677
  170SAPS  O13B19222   1.870   3.117   6.967 -0.0024  0.1501  0.3913
  170SAPS   C1119223   2.117   3.278   7.007 -0.1151 -0.1137  0.1817
  170SAPS  H11A19224   2.149   3.246   7.109 -1.0481 -1.2822  0.1322
  170SAPS  H11B19225   2.015   3.314   7.032 -0.1655 -0.4544  0.4710
  170SAPS     P19226   2.134   3.489   6.854 -0.1828 -0.2555  0.3723
  170SAPS   O1319227   1.997   3.529   6.899 -0.1912 -0.0793  0.0896
  170SAPS   O1419228   2.234   3.594   6.827  0.4160  0.1626 -0.8037
  170SAPS   O1219229   2.196   3.390   6.959  0.3436 -0.3014  0.0495
  170SAPS   O1119230   2.118   3.409   6.722 -0.3471  0.2037 -0.1049
  170SAPS    C119231   2.015   3.438   6.630  0.6920  0.0600  0.0893
  170SAPS    HA19232   1.912   3.434   6.672 -0.1388  1.7064 -1.6427
  170SAPS    HB19233   2.027   3.539   6.586 -0.7649 -0.2544 -1.1219
  170SAPS    C219234   2.009   3.334   6.514  0.0428 -0.3278  0.2888
  170SAPS    HS19235   2.015   3.231   6.556 -2.2191 -0.8672 -0.5710
  170SAPS   O2119236   2.112   3.369   6.419 -0.0496  0.2267  0.4142
  170SAPS   C2119237   2.155   3.260   6.360  0.2930 -0.3863  0.4953
  170SAPS   O2219238   2.116   3.146   6.381  0.0697 -0.1918  0.1755
  170SAPS   C2219239   2.264   3.300   6.257 -0.0943 -0.5588 -0.0568
  170SAPS   H2R19240   2.256   3.408   6.235  0.8507 -0.2994  0.8172
  170SAPS   H2S19241   2.360   3.282   6.311  0.4366  0.0220 -0.7890
  170SAPS    C319242   1.868   3.343   6.438 -0.3417  0.8410 -0.2555
  170SAPS    HX19243   1.842   3.448   6.415  0.7970  0.8206 -1.7880
  170SAPS    HY19244   1.804   3.304   6.520  0.6864 -2.9255 -1.0508
  170SAPS   O3119245   1.851   3.262   6.317 -0.4164 -0.0073  0.0383
  170SAPS   C3119246   1.757   3.175   6.319 -0.3256  0.2197  0.0285
  170SAPS   O3219247   1.678   3.157   6.411 -0.4267 -0.5952 -0.3419
  170SAPS   C3219248   1.770   3.091   6.190  0.7602 -0.0811  0.6717
  170SAPS   H2X19249   1.876   3.059   6.177  1.2973  0.8321  2.5700
  170SAPS   H2Y19250   1.731   3.158   6.110 -0.6740 -2.5981 -0.9002
  170SAPS   C2319251   2.265   3.213   6.139  0.0905 -0.0414 -0.4000
  170SAPS   H3R19252   2.292   3.112   6.176  1.5624  1.1855  2.1649
  170SAPS   H3S19253   2.348   3.247   6.073  0.1239 -0.5983 -0.6545
  170SAPS   C2419254   2.130   3.216   6.056 -1.1960 -0.0503 -0.8003
  170SAPS   H4R19255   2.121   3.312   6.001  3.2580 -0.1025 -2.0285
  170SAPS   H4S19256   2.040   3.209   6.120  0.9768  1.5666  2.7118
  170SAPS   C2519257   2.138   3.105   5.960 -0.6029  0.3347 -0.2042
  170SAPS   H5R19258   2.178   3.013   6.004 -1.0080  0.5416  0.6094
  170SAPS   C2619259   2.112   3.098   5.828  0.8097  0.9205 -1.0768
  170SAPS   H6R19260   2.111   2.997   5.785 -0.9258  0.7811 -0.7925
  170SAPS   C2719261   2.060   3.201   5.732  0.2264 -0.1868 -0.0158
  170SAPS   H7R19262   2.018   3.282   5.795  1.0520  2.7229 -2.9541
  170SAPS   H7S19263   1.976   3.173   5.666  0.8473 -0.5925 -0.6487
  170SAPS   C2819264   2.165   3.259   5.641  0.2159  0.1110 -0.6621
  170SAPS   H8R19265   2.239   3.320   5.696 -0.9407 -0.9446  2.2415
  170SAPS   C2919266   2.171   3.262   5.506  0.5288  0.1066  0.2857
  170SAPS   H9R19267   2.250   3.325   5.461  0.6010  0.7411  1.2659
  170SAPS  C21019268   2.081   3.191   5.400  0.8730 -0.3285  0.1514
  170SAPS  H10R19269   2.015   3.269   5.356 -0.2900 -0.8047  0.9934
  170SAPS  H10S19270   2.017   3.114   5.448 -1.3197  1.0189 -0.4600
  170SAPS  C21119271   2.170   3.124   5.302 -0.0130 -0.0362  0.6625
  170SAPS  H11R19272   2.216   3.034   5.344 -1.5653 -0.5798  1.2994
  170SAPS  C21219273   2.213   3.164   5.178 -0.2961 -0.7000  0.3916
  170SAPS  H12R19274   2.269   3.088   5.122 -1.1979 -0.0522 -1.4832
  170SAPS  C21319275   2.169   3.281   5.097  0.6740  0.1018  0.2107
  170SAPS  H13R19276   2.239   3.301   5.013  0.8382 -1.0118  0.0618
  170SAPS  H13S19277   2.169   3.372   5.161  3.9148  1.5454 -1.6115
  170SAPS  C21419278   2.027   3.247   5.054 -0.7989 -1.1922 -0.5002
  170SAPS  H14R19279   1.970   3.226   5.146  1.6277 -1.7113  0.9563
  170SAPS  C21519280   1.971   3.234   4.935  0.1050  0.3910 -0.0143
  170SAPS  H15R19281   1.862   3.220   4.938  0.3028 -1.3684 -0.1397
  170SAPS  C21619282   2.037   3.245   4.800  0.4531  0.0950 -0.1730
  170SAPS  H16R19283   2.139   3.288   4.810 -0.5852  2.2398  2.7586
  170SAPS  H16S19284   1.976   3.323   4.748  0.3278  2.2754  2.9395
  170SAPS  C21719285   2.038   3.117   4.708  0.7352 -0.4134  0.0435
  170SAPS  H17R19286   1.934   3.082   4.686  0.9793 -0.6081 -0.8314
  170SAPS  H17S19287   2.096   3.035   4.756  0.8304  1.2197  2.9220
  170SAPS  C21819288   2.108   3.157   4.579 -0.2623  0.7296 -0.4194
  170SAPS  H18R19289   2.218   3.153   4.594 -0.3918  1.1772  0.7926
  170SAPS  H18S19290   2.074   3.255   4.541  2.4598  0.5600 -3.6949
  170SAPS  C21919291   2.069   3.047   4.470  0.3701 -0.2934  0.6337
  170SAPS  H19R19292   1.960   3.038   4.451  0.4528 -1.7456  0.7311
  170SAPS  H19S19293   2.109   2.950   4.507  0.1473 -0.8859 -0.6437
  170SAPS  C22019294   2.138   3.071   4.335 -0.7100  0.8567  0.3968
  170SAPS  H20R19295   2.242   3.108   4.348  0.0346 -0.4437 -1.5210
  170SAPS  H20S19296   2.089   3.151   4.275 -1.1002  2.2993  2.5114
  170SAPS  H20T19297   2.137   2.978   4.275 -0.8519  1.0552  0.0909
  170SAPS   C3319298   1.662   2.973   6.185  0.3202 -0.1570 -0.4514
  170SAPS   H3X19299   1.555   3.004   6.191  0.7750  1.3240  0.9420
  170SAPS   H3Y19300   1.682   2.921   6.281  1.6067  0.3384 -0.4340
  170SAPS   C3419301   1.705   2.872   6.085  0.2572  0.5315 -0.3632
  170SAPS   H4X19302   1.634   2.787   6.089 -1.2770  1.8222  0.6692
  170SAPS   H4Y19303   1.809   2.837   6.102  0.3885 -0.2791 -2.4541
  170SAPS   C3519304   1.696   2.926   5.938 -0.0923 -0.1579 -0.3989
  170SAPS   H5X19305   1.755   3.020   5.938 -0.9594  0.4468  1.5511
  170SAPS   H5Y19306   1.594   2.952   5.903  0.4873  0.7876 -1.4357
  170SAPS   C3619307   1.747   2.831   5.831 -0.1570 -0.0484 -0.1018
  170SAPS   H6X19308   1.686   2.739   5.816  1.4667 -0.9946 -1.2048
  170SAPS   H6Y19309   1.842   2.805   5.882  0.1835  2.2497  0.5686
  170SAPS   C3719310   1.776   2.904   5.699 -0.0654 -0.3800  0.3134
  170SAPS   H7X19311   1.820   3.004   5.721 -1.5416  0.6924 -1.3809
  170SAPS   H7Y19312   1.681   2.936   5.653  0.2419  0.1067  0.0088
  170SAPS   C3819313   1.843   2.816   5.595  0.0980  0.6565 -0.0301
  170SAPS   H8X19314   1.768   2.752   5.544  1.5582  0.3964 -1.9436
  170SAPS   H8Y19315   1.923   2.760   5.649  1.6812  2.2015 -0.6827
  170SAPS   C3919316   1.921   2.899   5.491  0.4519  0.1553  1.0868
  170SAPS   H9X19317   2.000   2.953   5.548  1.2954  1.2259 -0.9871
  170SAPS   H9Y19318   1.863   2.977   5.438 -0.0314 -1.5412 -1.0221
  170SAPS  C31019319   2.003   2.810   5.401 -0.4324 -0.6405 -0.0993
  170SAPS  H10X19320   2.060   2.737   5.463  2.7216 -0.7074 -2.7520
  170SAPS  H10Y19321   2.073   2.874   5.343  0.8428 -1.3495  0.5983
  170SAPS  C31119322   1.915   2.740   5.293 -0.0106  0.9679  0.4905
  170SAPS  H11X19323   1.848   2.666   5.343 -1.9295  0.4748 -2.5559
  170SAPS  H11Y19324   1.980   2.682   5.224  2.1461  0.3551  2.8595
  170SAPS  C31219325   1.829   2.838   5.218  0.0651 -0.2077 -0.5378
  170SAPS  H12X19326   1.891   2.926   5.193 -1.1058  0.3690 -1.5245
  170SAPS  H12Y19327   1.757   2.878   5.293  0.2070 -1.7291  0.4461
  170SAPS  C31319328   1.750   2.785   5.100  0.2680  1.0661  0.5917
  170SAPS  H13X19329   1.810   2.804   5.009 -1.0888 -1.5131 -0.9438
  170SAPS  H13Y19330   1.659   2.847   5.089 -0.6920  0.3839  3.7068
  170SAPS  C31419331   1.696   2.637   5.107  0.2956 -0.1363  0.2629
  170SAPS  H14X19332   1.652   2.626   5.208 -1.2120  1.2070 -0.1952
  170SAPS  H14Y19333   1.779   2.564   5.093  0.3708  0.1745 -1.0813
  170SAPS  C31519334   1.580   2.613   5.009 -0.0129  0.0740 -0.8948
  170SAPS  H15X19335   1.486   2.660   5.046  1.2547  1.1808  1.0678
  170SAPS  H15Y19336   1.576   2.503   4.998  0.4793 -0.1316  0.6863
  170SAPS  C31619337   1.629   2.664   4.874  0.4081  0.0843 -0.2007
  170SAPS  H16X19338   1.736   2.642   4.857  0.4971  1.7336 -2.2590
  170SAPS  H16Y19339   1.633   2.775   4.878  1.2664  0.0339  0.6022
  170SAPS  C31719340   1.540   2.612   4.765 -0.2939 -0.9455  0.1670
  170SAPS  H17X19341   1.444   2.668   4.761  0.6371  0.6752 -0.5171
  170SAPS  H17Y19342   1.529   2.501   4.770 -0.8187 -0.8509  2.1141
  170SAPS  C31819343   1.596   2.638   4.619 -0.2251  0.4532 -0.0313
  170SAPS  H18X19344   1.688   2.578   4.599 -0.6599 -0.2730  0.1270
  170SAPS  H18Y19345   1.611   2.742   4.584 -3.1838  0.0138 -3.1426
  170SAPS  H18Z19346   1.520   2.606   4.545 -1.6878  0.9315  1.2159
  171SAPS     N19347   1.730   2.897   6.880 -0.8321 -0.6701 -0.6092
  171SAPS   HN119348   1.810   2.948   6.923 -1.0826  1.1465 -2.1416
  171SAPS   HN219349   1.757   2.879   6.781  3.0634  1.4329 -0.1322
  171SAPS   HN319350   1.648   2.961   6.878  0.9172  1.9719  2.1968
  171SAPS   C1219351   1.702   2.766   6.946  0.3467  0.2901 -0.0703
  171SAPS  H12A19352   1.768   2.685   6.920  0.2398 -0.4167  1.7423
  171SAPS   C1319353   1.705   2.780   7.102  0.6071  0.4293  0.0483
  171SAPS  O13A19354   1.701   2.892   7.153 -0.4295 -0.1476 -0.6414
  171SAPS  O13B19355   1.683   2.676   7.167 -0.0019  0.0833  0.0421
  171SAPS   C1119356   1.562   2.711   6.904  0.2264  0.5725  0.0537
  171SAPS  H11A19357   1.490   2.792   6.929  1.1731  0.9257  1.8338
  171SAPS  H11B19358   1.524   2.623   6.960 -1.1278 -0.2573 -2.0455
  171SAPS     P19359   1.611   2.547   6.706  0.7368 -0.1115  0.1146
  171SAPS   O1319360   1.698   2.577   6.591  0.3725  0.3245  0.1988
  171SAPS   O1419361   1.673   2.474   6.819  0.3525  0.4504 -0.1352
  171SAPS   O1219362   1.553   2.683   6.760 -0.3627  0.0867 -0.1355
  171SAPS   O1119363   1.486   2.456   6.666 -0.1574  0.3070  0.1360
  171SAPS    C119364   1.359   2.514   6.629 -0.6361  0.2158  0.0527
  171SAPS    HA19365   1.289   2.491   6.713  1.0582 -0.2690  1.3722
  171SAPS    HB19366   1.369   2.624   6.619 -0.3072  0.3722  1.7760
  171SAPS    C219367   1.302   2.467   6.491 -0.0262 -0.4122 -0.1465
  171SAPS    HS19368   1.279   2.360   6.509 -0.5177 -0.4379 -0.8770
  171SAPS   O2119369   1.396   2.487   6.385  0.2214 -0.2342 -0.1969
  171SAPS   C2119370   1.374   2.402   6.281  0.3608 -0.1258 -0.0217
  171SAPS   O2219371   1.289   2.315   6.274  0.6538 -0.0184 -0.1443
  171SAPS   C2219372   1.451   2.449   6.164  0.2667 -0.7103 -0.3024
  171SAPS   H2R19373   1.418   2.552   6.137  0.6523 -0.6343 -0.4970
  171SAPS   H2S19374   1.556   2.468   6.193 -0.0931 -1.8428  1.8894
  171SAPS    C319375   1.176   2.540   6.458  0.4056 -0.0536  0.1719
  171SAPS    HX19376   1.205   2.647   6.449  1.6973 -0.3569  0.5213
  171SAPS    HY19377   1.104   2.540   6.543 -0.5683  0.6081 -0.6178
  171SAPS   O3119378   1.112   2.509   6.332 -0.1076 -0.0972 -0.0125
  171SAPS   C3119379   1.033   2.400   6.332 -0.3197  0.0133 -0.8010
  171SAPS   O3219380   1.016   2.327   6.426  0.0855  0.1969  0.3418
  171SAPS   C3219381   0.971   2.388   6.195 -0.4252 -0.1092  0.2554
  171SAPS   H2X19382   1.022   2.453   6.121  0.0141 -0.5132  0.1986
  171SAPS   H2Y19383   0.864   2.418   6.204 -0.4487 -0.0480 -0.2171
  171SAPS   C2319384   1.447   2.346   6.043  0.3164 -0.2490 -0.0240
  171SAPS   H3R19385   1.338   2.334   6.022 -0.0333  3.5749 -1.3107
  171SAPS   H3S19386   1.489   2.248   6.073 -0.7903 -1.3383 -1.8336
  171SAPS   C2419387   1.514   2.400   5.922 -0.7033 -0.6583  0.1834
  171SAPS   H4R19388   1.625   2.400   5.929 -0.6853 -1.4385  0.0163
  171SAPS   H4S19389   1.486   2.505   5.900  2.3679 -0.1796 -2.0533
  171SAPS   C2519390   1.484   2.318   5.800 -0.1295  0.1111  0.0637
  171SAPS   H5R19391   1.445   2.218   5.823  0.2454 -0.5008 -1.8256
  171SAPS   C2619392   1.492   2.358   5.673 -0.1106 -0.8669 -0.4605
  171SAPS   H6R19393   1.488   2.284   5.592  0.2533 -0.1578 -1.1442
  171SAPS   C2719394   1.538   2.495   5.622 -0.2807  0.5382  0.6517
  171SAPS   H7R19395   1.635   2.515   5.673  0.0340  2.6166 -0.6248
  171SAPS   H7S19396   1.461   2.576   5.626 -0.1035  0.8036 -0.7096
  171SAPS   C2819397   1.572   2.493   5.470  0.6064 -0.2163 -0.5823
  171SAPS   H8R19398   1.677   2.501   5.437  0.2582  0.4697 -1.5730
  171SAPS   C2919399   1.480   2.464   5.374 -0.0977 -0.0613  0.1009
  171SAPS   H9R19400   1.509   2.469   5.268  1.7582 -1.4566  0.4847
  171SAPS  C21019401   1.330   2.440   5.398 -0.4846 -0.5943  0.1831
  171SAPS  H10R19402   1.267   2.517   5.349 -0.8506  0.3380  2.0231
  171SAPS  H10S19403   1.310   2.453   5.507 -2.2697 -0.7177 -0.1045
  171SAPS  C21119404   1.298   2.299   5.348 -0.2870  0.6014 -0.7424
  171SAPS  H11R19405   1.359   2.216   5.385 -1.1306 -0.1685 -1.0466
  171SAPS  C21219406   1.199   2.275   5.259 -1.4386 -0.8374 -0.1028
  171SAPS  H12R19407   1.187   2.169   5.234  0.7254 -1.6911  2.0221
  171SAPS  C21319408   1.102   2.378   5.206 -0.0667 -0.2262  0.5484
  171SAPS  H13R19409   1.141   2.402   5.105 -0.6377 -0.4901  0.2610
  171SAPS  H13S19410   1.111   2.471   5.266  1.2191 -0.5463  0.8837
  171SAPS  C21419411   0.952   2.340   5.193  0.0971 -0.4439  0.2994
  171SAPS  H14R19412   0.912   2.272   5.270  0.3536 -1.1785 -0.2051
  171SAPS  C21519413   0.868   2.400   5.105 -0.0983 -0.0995 -0.1280
  171SAPS  H15R19414   0.759   2.388   5.113 -0.1886  0.1646 -0.8203
  171SAPS  C21619415   0.904   2.498   4.997  0.6867  0.1561 -0.0321
  171SAPS  H16R19416   0.997   2.550   5.027  1.4967 -0.3651 -1.5709
  171SAPS  H16S19417   0.827   2.577   4.990  1.7308  1.0971 -1.4180
  171SAPS  C21719418   0.923   2.437   4.855  0.0160  0.1365 -0.4527
  171SAPS  H17R19419   0.822   2.404   4.823 -0.6380  0.2287  1.3939
  171SAPS  H17S19420   0.990   2.349   4.863 -1.2600 -0.9507 -1.1766
  171SAPS  C21819421   0.963   2.546   4.755  0.3433 -0.0032  0.0958
  171SAPS  H18R19422   1.059   2.587   4.791  1.2847 -1.3239 -0.8109
  171SAPS  H18S19423   0.886   2.625   4.765  1.6584  1.4369 -0.7532
  171SAPS  C21919424   0.984   2.487   4.619  0.0229 -0.3666  0.1044
  171SAPS  H19R19425   0.889   2.487   4.562  0.3150  2.0117 -0.5199
  171SAPS  H19S19426   1.020   2.382   4.629  0.2959 -0.4559 -1.4738
  171SAPS  C22019427   1.092   2.562   4.538  0.0741 -0.2719 -0.2221
  171SAPS  H20R19428   1.187   2.549   4.594  0.6997  1.2622 -0.8726
  171SAPS  H20S19429   1.062   2.669   4.542 -0.0225 -0.3231  0.7582
  171SAPS  H20T19430   1.100   2.533   4.431  0.5647 -1.4916  0.1206
  171SAPS   C3319431   0.986   2.246   6.137 -0.4165 -0.7081  0.2575
  171SAPS   H3X19432   0.919   2.181   6.197 -0.3212  0.3805  1.5655
  171SAPS   H3Y19433   1.089   2.205   6.142  0.6658  1.8163 -0.1484
  171SAPS   C3419434   0.954   2.225   5.991  0.2657  0.1839 -0.0867
  171SAPS   H4X19435   0.865   2.287   5.965 -0.8844 -1.6352 -0.7107
  171SAPS   H4Y19436   0.915   2.123   5.973 -2.6696  0.4103  3.7085
  171SAPS   C3519437   1.075   2.254   5.901 -0.6807  0.2349 -0.6815
  171SAPS   H5X19438   1.170   2.220   5.947 -0.6809  2.0607  0.7851
  171SAPS   H5Y19439   1.088   2.364   5.894 -0.8420  0.4246  1.2838
  171SAPS   C3619440   1.059   2.207   5.760 -0.1732  0.2339  0.0704
  171SAPS   H6X19441   0.976   2.133   5.747 -1.3714  1.3512  1.1084
  171SAPS   H6Y19442   1.154   2.156   5.732 -1.1590 -1.4433 -0.3900
  171SAPS   C3719443   1.029   2.313   5.657  0.8759  0.0271  0.3601
  171SAPS   H7X19444   1.021   2.269   5.555 -2.3759  1.5975 -0.1592
  171SAPS   H7Y19445   1.123   2.372   5.648  2.5826 -2.7055 -1.8306
  171SAPS   C3819446   0.900   2.391   5.680 -0.1072 -0.2779 -0.1469
  171SAPS   H8X19447   0.897   2.428   5.785 -2.5507  0.9395 -0.5765
  171SAPS   H8Y19448   0.811   2.328   5.657 -0.9968  0.7597  0.3537
  171SAPS   C3919449   0.895   2.519   5.599  0.1144  0.7391 -0.6968
  171SAPS   H9X19450   0.908   2.485   5.494  1.0701  0.5438 -0.5333
  171SAPS   H9Y19451   0.985   2.581   5.620 -0.5393  2.0858 -1.7814
  171SAPS  C31019452   0.763   2.590   5.626  0.3679 -0.3764 -0.5790
  171SAPS  H10X19453   0.736   2.601   5.733 -1.8913  1.3755 -1.2537
  171SAPS  H10Y19454   0.685   2.528   5.577  2.5281 -0.3812 -4.3430
  171SAPS  C31119455   0.751   2.733   5.573  0.2809 -0.0550  0.2647
  171SAPS  H11X19456   0.845   2.790   5.580  0.3528 -0.0260 -0.7293
  171SAPS  H11Y19457   0.677   2.795   5.627 -0.5775 -0.2590 -0.6361
  171SAPS  C31219458   0.709   2.719   5.422  0.3446  0.0594  1.0273
  171SAPS  H12X19459   0.599   2.702   5.424  0.3672 -0.5201 -0.6926
  171SAPS  H12Y19460   0.751   2.629   5.373 -1.6828 -0.0059 -0.7880
  171SAPS  C31319461   0.722   2.857   5.345  0.1472  0.0415  0.3312
  171SAPS  H13X19462   0.831   2.878   5.353  1.0390 -4.2491  2.8436
  171SAPS  H13Y19463   0.654   2.939   5.375 -0.1766 -0.1772  0.1922
  171SAPS  C31419464   0.684   2.831   5.190  0.2469 -0.2484 -0.4834
  171SAPS  H14X19465   0.574   2.847   5.188  0.0066 -1.1581  1.7409
  171SAPS  H14Y19466   0.716   2.725   5.176  2.9159  0.5864 -1.1040
  171SAPS  C31519467   0.782   2.914   5.099 -0.7554 -0.0426  0.6340
  171SAPS  H15X19468   0.775   2.872   4.996 -1.3636 -2.2508  1.5226
  171SAPS  H15Y19469   0.887   2.908   5.133 -0.3371  0.5048 -0.5045
  171SAPS  C31619470   0.733   3.063   5.105 -0.2729  0.2827 -0.2905
  171SAPS  H16X19471   0.711   3.115   5.201  0.1895  1.0814 -0.6128
  171SAPS  H16Y19472   0.642   3.061   5.041 -1.4209 -0.3293  1.2849
  171SAPS  C31719473   0.842   3.157   5.047  0.1670 -0.1195  0.6002
  171SAPS  H17X19474   0.869   3.104   4.953  0.5858 -0.7578  1.0651
  171SAPS  H17Y19475   0.933   3.149   5.111  0.8380 -0.5084 -0.3795
  171SAPS  C31819476   0.801   3.304   5.026  0.1844  0.3602  0.2290
  171SAPS  H18X19477   0.727   3.313   4.944 -0.3078  0.0076  0.6307
  171SAPS  H18Y19478   0.893   3.358   4.996  2.0322 -3.0368 -0.6689
  171SAPS  H18Z19479   0.760   3.347   5.120  0.1180 -0.7441  0.7238
  172SAPS     N19480   1.463   2.250   6.853 -0.4667 -0.4287 -0.3489
  172SAPS   HN119481   1.545   2.220   6.910  1.3910  3.0403 -0.8851
  172SAPS   HN219482   1.496   2.326   6.790 -0.3320 -0.5392 -0.4107
  172SAPS   HN319483   1.394   2.288   6.921  0.5339  1.2087 -0.1976
  172SAPS   C1219484   1.420   2.134   6.772  0.1977  0.1657 -1.1110
  172SAPS  H12A19485   1.441   2.041   6.822 -0.3150  0.3443 -0.5561
  172SAPS   C1319486   1.265   2.139   6.733  0.1550 -0.1179 -0.1787
  172SAPS  O13A19487   1.187   2.221   6.787 -0.2736 -0.4743 -0.4460
  172SAPS  O13B19488   1.226   2.028   6.685 -0.3581 -0.1079  0.1938
  172SAPS   C1119489   1.494   2.111   6.644 -0.4985  0.0089  0.3057
  172SAPS  H11A19490   1.474   2.195   6.574 -1.5452 -0.9375 -0.5837
  172SAPS  H11B19491   1.449   2.021   6.595  1.5848 -0.0462 -1.6471
  172SAPS     P19492   1.735   2.073   6.543 -0.2774  0.1244 -0.0598
  172SAPS   O1319493   1.865   2.135   6.581  0.5941 -0.3026  0.4351
  172SAPS   O1419494   1.748   1.927   6.501 -0.1595  0.0337 -0.2253
  172SAPS   O1219495   1.634   2.088   6.668 -0.6077  0.2707  0.0777
  172SAPS   O1119496   1.660   2.150   6.428 -0.2429 -0.2131  0.0734
  172SAPS    C119497   1.589   2.078   6.324  0.0662  0.4600 -0.1770
  172SAPS    HA19498   1.546   1.984   6.363  0.9592  0.6099  1.2464
  172SAPS    HB19499   1.507   2.145   6.291  1.6307  2.2364 -0.6359
  172SAPS    C219500   1.681   2.044   6.206  0.5610 -0.5773 -0.1155
  172SAPS    HS19501   1.768   1.992   6.253  1.3815  0.1965 -0.7421
  172SAPS   O2119502   1.734   2.163   6.140  0.2530  0.2441  0.3545
  172SAPS   C2119503   1.869   2.165   6.119 -0.5717  0.1323  0.4048
  172SAPS   O2219504   1.943   2.067   6.148 -0.5200  0.0329  0.1043
  172SAPS   C2219505   1.911   2.293   6.053 -0.0288  0.0192  0.0844
  172SAPS   H2R19506   1.828   2.368   6.058  0.3763  0.4712  0.1632
  172SAPS   H2S19507   1.997   2.329   6.115  0.8382 -3.3183  0.9925
  172SAPS    C319508   1.621   1.957   6.099  0.7110 -0.1887 -0.1955
  172SAPS    HX19509   1.549   2.014   6.037  0.8554 -1.3311 -1.4667
  172SAPS    HY19510   1.555   1.879   6.142  0.7000 -0.0010  0.1277
  172SAPS   O3119511   1.712   1.910   6.003 -0.2993  0.2597  0.3729
  172SAPS   C3119512   1.775   1.796   6.027 -0.5273  0.2646  0.0331
  172SAPS   O3219513   1.758   1.727   6.124 -0.3053  0.6800 -0.3155
  172SAPS   C3219514   1.880   1.762   5.922 -0.3705  0.0915  0.5562
  172SAPS   H2X19515   1.830   1.709   5.839 -0.6692  3.1899 -1.4287
  172SAPS   H2Y19516   1.948   1.688   5.969  0.6233  1.2044  0.9536
  172SAPS   C2319517   1.963   2.279   5.904  0.4031  0.3076 -0.3111
  172SAPS   H3R19518   1.882   2.273   5.829 -1.7098  0.0691  1.8824
  172SAPS   H3S19519   2.027   2.188   5.903 -0.4342 -0.2910 -0.2415
  172SAPS   C2419520   2.060   2.399   5.867  0.7006 -0.3671  0.2541
  172SAPS   H4R19521   2.003   2.492   5.886 -0.8290 -0.7066 -2.1987
  172SAPS   H4S19522   2.078   2.397   5.758  1.3665  0.3166  0.3475
  172SAPS   C2519523   2.202   2.384   5.922  0.0165 -0.1356  0.4795
  172SAPS   H5R19524   2.250   2.286   5.910 -2.2606 -1.2620 -0.1529
  172SAPS   C2619525   2.268   2.494   5.963 -0.3742 -0.5892 -0.1334
  172SAPS   H6R19526   2.372   2.477   5.996  0.0666  0.4346 -0.9321
  172SAPS   C2719527   2.235   2.646   5.965 -0.8922  0.5567 -0.3333
  172SAPS   H7R19528   2.136   2.668   5.921 -0.6096 -0.6953 -1.6790
  172SAPS   H7S19529   2.314   2.687   5.900 -0.4788 -0.4670 -0.5010
  172SAPS   C2819530   2.245   2.693   6.109  0.4889  0.2478 -0.0785
  172SAPS   H8R19531   2.149   2.692   6.163  1.3825  1.4636  1.6252
  172SAPS   C2919532   2.345   2.751   6.168 -0.6575 -0.7434 -1.1035
  172SAPS   H9R19533   2.330   2.790   6.270 -1.1965 -3.2932 -0.1215
  172SAPS  C21019534   2.481   2.774   6.113 -0.3618 -0.5634 -0.4032
  172SAPS  H10R19535   2.478   2.777   6.002 -0.9984 -1.2899 -0.4195
  172SAPS  H10S19536   2.536   2.682   6.143  0.5673  0.3656  0.8583
  172SAPS  C21119537   2.558   2.890   6.176  0.4286 -1.1478 -0.8754
  172SAPS  H11R19538   2.536   2.901   6.283 -2.5183 -0.8890 -1.4431
  172SAPS  C21219539   2.621   2.992   6.111  0.4674  0.1212  0.5879
  172SAPS  H12R19540   2.672   3.070   6.170  1.0424 -0.7139  1.2269
  172SAPS  C21319541   2.652   2.995   5.962  0.4107 -0.1149 -0.1563
  172SAPS  H13R19542   2.643   2.890   5.925  0.1138 -0.2392  0.2610
  172SAPS  H13S19543   2.757   3.027   5.945  0.1424  1.2994  0.6687
  172SAPS  C21419544   2.567   3.095   5.888 -0.3209  0.6755 -0.4822
  172SAPS  H14R19545   2.509   3.157   5.958  1.6636  1.6015  0.4406
  172SAPS  C21519546   2.546   3.109   5.757  0.2073 -0.4489  0.0003
  172SAPS  H15R19547   2.457   3.172   5.740 -0.1147 -1.4119 -2.1320
  172SAPS  C21619548   2.608   3.034   5.639  0.1235  0.2030  0.4915
  172SAPS  H16R19549   2.695   2.970   5.664  0.5627  1.2303  1.6984
  172SAPS  H16S19550   2.648   3.114   5.574 -1.9861  2.4553  1.7618
  172SAPS  C21719551   2.497   2.953   5.562 -0.5478 -0.1304 -0.2832
  172SAPS  H17R19552   2.542   2.924   5.465  2.5324  0.0943  0.9367
  172SAPS  H17S19553   2.414   3.020   5.533  0.1253  0.8544  0.0342
  172SAPS  C21819554   2.445   2.829   5.642 -0.0226 -0.1736  0.1205
  172SAPS  H18R19555   2.384   2.862   5.729  1.3067 -0.7188  1.2854
  172SAPS  H18S19556   2.530   2.771   5.683 -0.8715 -2.0303 -0.6127
  172SAPS  C21919557   2.364   2.737   5.548 -0.2345  0.2677 -0.2839
  172SAPS  H19R19558   2.412   2.730   5.448 -1.7170  0.4239 -1.0262
  172SAPS  H19S19559   2.271   2.795   5.534 -0.2313  0.6264  1.0057
  172SAPS  C22019560   2.311   2.609   5.609  0.2612  0.3157 -0.2632
  172SAPS  H20R19561   2.229   2.559   5.554 -0.9993  2.8215 -0.8255
  172SAPS  H20S19562   2.264   2.625   5.708 -0.1095 -0.9779 -0.2151
  172SAPS  H20T19563   2.394   2.538   5.631  0.2049  0.9507  2.3583
  172SAPS   C3319564   1.965   1.881   5.860  0.0421 -0.0214 -0.3770
  172SAPS   H3X19565   2.060   1.843   5.816 -0.4054  1.0198 -2.3833
  172SAPS   H3Y19566   1.980   1.949   5.946 -0.8543 -0.3187  0.0319
  172SAPS   C3419567   1.896   1.955   5.748  0.3602 -0.7183  0.1645
  172SAPS   H4X19568   1.828   2.031   5.793  3.0588  3.5769 -2.2574
  172SAPS   H4Y19569   1.831   1.884   5.694  1.7860 -1.3717 -0.7361
  172SAPS   C3519570   1.996   2.024   5.649  0.0858 -0.3234 -0.0289
  172SAPS   H5X19571   2.062   1.949   5.602 -0.0627  1.0498 -2.5752
  172SAPS   H5Y19572   2.065   2.088   5.708 -0.6661 -0.4458  1.0268
  172SAPS   C3619573   1.918   2.100   5.537  0.7291  0.0744 -0.4331
  172SAPS   H6X19574   1.885   2.192   5.591  1.3723 -0.0335  0.1578
  172SAPS   H6Y19575   1.825   2.046   5.507 -1.1050  1.5866  2.1448
  172SAPS   C3719576   2.008   2.114   5.413 -0.2907  0.9285  0.0615
  172SAPS   H7X19577   1.960   2.182   5.339  3.6988  1.6263 -2.1887
  172SAPS   H7Y19578   2.035   2.017   5.368 -0.2254  1.5318 -1.2521
  172SAPS   C3819579   2.135   2.193   5.434 -0.2786 -0.4981 -0.7152
  172SAPS   H8X19580   2.207   2.124   5.484  0.7475  1.9001  1.3362
  172SAPS   H8Y19581   2.125   2.268   5.515  2.7795 -0.8734  0.1245
  172SAPS   C3919582   2.195   2.251   5.304 -0.2351  0.8725  0.2739
  172SAPS   H9X19583   2.293   2.297   5.331 -0.5449  0.9626  1.3125
  172SAPS   H9Y19584   2.131   2.337   5.275  0.3114  1.3059  0.3407
  172SAPS  C31019585   2.207   2.159   5.183 -0.2969 -0.3551 -0.3664
  172SAPS  H10X19586   2.213   2.217   5.089  0.1884 -1.1784 -0.8588
  172SAPS  H10Y19587   2.107   2.111   5.178 -0.9330  0.5817  1.9208
  172SAPS  C31119588   2.318   2.060   5.212 -0.2097 -0.7489 -0.4978
  172SAPS  H11X19589   2.269   1.984   5.276 -2.1212 -0.7288 -1.8668
  172SAPS  H11Y19590   2.401   2.107   5.270 -2.4256  0.9261  1.5028
  172SAPS  C31219591   2.361   1.974   5.091 -0.1091  0.0614 -0.1398
  172SAPS  H12X19592   2.449   1.917   5.129 -1.8826 -1.6709  1.6223
  172SAPS  H12Y19593   2.393   2.045   5.011  0.6637  0.5283  0.5618
  172SAPS  C31319594   2.259   1.869   5.028  0.1029 -0.4170  0.1158
  172SAPS  H13X19595   2.319   1.789   4.979 -1.2469 -1.7352  0.5147
  172SAPS  H13Y19596   2.189   1.924   4.961 -0.4475  2.1554  2.6053
  172SAPS  C31419597   2.160   1.796   5.133  0.0255  0.2345 -0.0445
  172SAPS  H14X19598   2.088   1.741   5.069 -2.1510  1.2822  1.4022
  172SAPS  H14Y19599   2.098   1.873   5.184  0.2437  0.6502 -0.3929
  172SAPS  C31519600   2.231   1.691   5.223  1.1010  0.1646  0.0580
  172SAPS  H15X19601   2.270   1.744   5.313  0.1012  2.1790 -0.6348
  172SAPS  H15Y19602   2.314   1.649   5.163  0.7838  0.6925 -0.7634
  172SAPS  C31619603   2.126   1.582   5.263  0.3372 -0.4218 -0.2651
  172SAPS  H16X19604   2.077   1.544   5.171 -1.0453  0.3865  0.1080
  172SAPS  H16Y19605   2.187   1.503   5.313  4.0143  2.0935 -0.4304
  172SAPS  C31719606   2.021   1.628   5.358  0.3300 -0.1184  0.0540
  172SAPS  H17X19607   1.948   1.545   5.371  0.3813  0.1011  2.0598
  172SAPS  H17Y19608   1.960   1.710   5.313  0.2512 -0.6975 -0.9440
  172SAPS  C31819609   2.050   1.667   5.505 -0.4516 -0.3600  0.1675
  172SAPS  H18X19610   2.078   1.572   5.556  0.3892 -1.0254 -1.4541
  172SAPS  H18Y19611   1.957   1.704   5.552 -0.3002 -2.0047  1.8776
  172SAPS  H18Z19612   2.131   1.743   5.517 -0.8233  0.0680  0.0081
  173SAPS     N19613   4.687   1.563   1.725  0.7542  0.8819  0.4787
  173SAPS   HN119614   4.753   1.637   1.758  1.6060 -0.1926  1.2351
  173SAPS   HN219615   4.740   1.483   1.686 -2.4222 -0.0271 -2.5082
  173SAPS   HN319616   4.626   1.604   1.651  0.3448  2.5094  1.6518
  173SAPS   C1219617   4.597   1.510   1.838 -0.6048  0.4876 -0.3605
  173SAPS  H12A19618   4.505   1.565   1.843 -1.1335 -0.4480  0.4501
  173SAPS   C1319619   4.564   1.360   1.818 -0.7813  0.0825 -1.2165
  173SAPS  O13A19620   4.620   1.283   1.736  0.4373  0.1504  1.0006
  173SAPS  O13B19621   4.485   1.308   1.905 -0.4837 -0.2031 -0.0961
  173SAPS   C1119622   4.688   1.529   1.961 -0.0434  0.2546  0.3319
  173SAPS  H11A19623   4.785   1.480   1.941  0.5656  1.4115  0.4099
  173SAPS  H11B19624   4.648   1.466   2.044 -0.3497  0.6894  0.5156
  173SAPS     P19625   4.624   1.774   2.055  0.1868 -0.2437  0.1789
  173SAPS   O1319626   4.698   1.900   2.080  0.2293 -0.4818 -0.3904
  173SAPS   O1419627   4.495   1.774   1.980 -0.3937 -0.0212  0.5298
  173SAPS   O1219628   4.713   1.665   1.989 -0.1735  0.2716  0.2797
  173SAPS   O1119629   4.602   1.722   2.209  0.4439  0.0843  0.1331
  173SAPS    C119630   4.516   1.611   2.233  0.0415  0.0714  0.5195
  173SAPS    HA19631   4.411   1.647   2.234  0.4180  1.3109 -1.1548
  173SAPS    HB19632   4.514   1.528   2.159  0.4232 -0.4550  1.0835
  173SAPS    C219633   4.559   1.526   2.364  0.3023  0.1367  0.0195
  173SAPS    HS19634   4.501   1.432   2.354 -1.1227  1.2282 -3.2970
  173SAPS   O2119635   4.514   1.597   2.484 -0.1774  0.1343 -0.0177
  173SAPS   C2119636   4.386   1.601   2.508  0.0486  0.4099 -0.0587
  173SAPS   O2219637   4.298   1.539   2.443 -0.5913 -0.5928 -0.6088
  173SAPS   C2219638   4.356   1.677   2.642  0.2787  0.3539 -0.2324
  173SAPS   H2R19639   4.429   1.761   2.643  1.2567 -0.4625  1.4739
  173SAPS   H2S19640   4.249   1.707   2.631 -0.3018 -0.7940  1.7599
  173SAPS    C319641   4.711   1.506   2.373 -0.4421 -0.3035  0.3313
  173SAPS    HX19642   4.773   1.598   2.371 -1.0540  0.1210 -1.9088
  173SAPS    HY19643   4.735   1.450   2.280  1.9725  1.0348  0.0818
  173SAPS   O3119644   4.746   1.418   2.484 -0.5906 -0.0773 -0.3316
  173SAPS   C3119645   4.790   1.479   2.600 -0.0977 -0.2893  0.1294
  173SAPS   O3219646   4.810   1.592   2.620 -0.1631 -0.2031  0.5121
  173SAPS   C3219647   4.812   1.369   2.699 -0.5841  0.0858  1.3005
  173SAPS   H2X19648   4.916   1.333   2.681 -0.6474 -0.1422  1.3862
  173SAPS   H2Y19649   4.741   1.288   2.671 -0.2693  0.7079 -1.6272
  173SAPS   C2319650   4.375   1.580   2.766 -0.0756 -0.1312  0.2151
  173SAPS   H3R19651   4.457   1.507   2.748  0.0557  0.3591 -1.2982
  173SAPS   H3S19652   4.284   1.517   2.761 -1.7631  2.2064 -0.4816
  173SAPS   C2419653   4.380   1.653   2.900 -0.2598 -0.2840  0.0316
  173SAPS   H4R19654   4.378   1.585   2.988  2.3376 -0.1697  0.2714
  173SAPS   H4S19655   4.291   1.719   2.899  0.7263  1.0998  0.0802
  173SAPS   C2519656   4.504   1.736   2.907 -0.5663  0.3364 -0.4895
  173SAPS   H5R19657   4.529   1.794   2.817 -0.9150 -0.0583 -0.8434
  173SAPS   C2619658   4.587   1.755   3.012 -0.5357 -0.1620  0.8896
  173SAPS   H6R19659   4.680   1.813   2.996 -0.0023 -0.3788  2.9021
  173SAPS   C2719660   4.582   1.685   3.150  0.1949  0.2183 -0.4162
  173SAPS   H7R19661   4.685   1.678   3.189  0.4380  2.1532 -0.5724
  173SAPS   H7S19662   4.538   1.584   3.140  0.8337 -0.5687  3.2612
  173SAPS   C2819663   4.486   1.761   3.237 -0.2031 -0.4056  0.1873
  173SAPS   H8R19664   4.401   1.806   3.183 -1.2415 -1.3314  1.0051
  173SAPS   C2919665   4.501   1.789   3.366  0.7629  0.1956 -0.1803
  173SAPS   H9R19666   4.435   1.864   3.413  0.7255  1.5068 -2.2284
  173SAPS  C21019667   4.598   1.729   3.463 -0.0662  0.4730  0.0382
  173SAPS  H10R19668   4.667   1.809   3.496  0.5370 -0.8520  2.1144
  173SAPS  H10S19669   4.660   1.648   3.418  3.2232  1.8327  1.7952
  173SAPS  C21119670   4.522   1.674   3.580 -0.2956  0.3927  0.2614
  173SAPS  H11R19671   4.455   1.589   3.558  0.3487 -0.0977  0.1615
  173SAPS  C21219672   4.540   1.702   3.708  0.0233 -0.7745 -0.8813
  173SAPS  H12R19673   4.487   1.638   3.781  1.0262 -1.3757 -0.6674
  173SAPS  C21319674   4.627   1.806   3.770 -0.4349 -0.8402  0.5184
  173SAPS  H13R19675   4.578   1.890   3.824  1.2202 -1.1265  2.5775
  173SAPS  H13S19676   4.679   1.862   3.689 -1.2842  1.0670  1.2340
  173SAPS  C21419677   4.729   1.745   3.860 -0.3548 -0.5147 -0.1772
  173SAPS  H14R19678   4.790   1.664   3.817 -0.2063 -1.6181  1.9777
  173SAPS  C21519679   4.739   1.766   3.989 -0.3494  0.4834 -0.1220
  173SAPS  H15R19680   4.820   1.714   4.043 -1.2341 -1.4657 -0.6023
  173SAPS  C21619681   4.663   1.867   4.076 -0.6727 -0.0051  0.8588
  173SAPS  H16R19682   4.568   1.875   4.019  1.5239 -3.2035 -3.8936
  173SAPS  H16S19683   4.712   1.967   4.071  1.3167 -0.9925 -1.5537
  173SAPS  C21719684   4.618   1.837   4.217 -0.1497  0.5967  0.4174
  173SAPS  H17R19685   4.575   1.735   4.215  3.0468 -0.8305 -0.3438
  173SAPS  H17S19686   4.539   1.905   4.258  0.4642  1.8064 -0.3347
  173SAPS  C21819687   4.739   1.819   4.307  0.6252 -0.8870 -0.2095
  173SAPS  H18R19688   4.804   1.909   4.307  0.6452 -0.8098  2.6664
  173SAPS  H18S19689   4.797   1.735   4.264  1.5830  0.6391 -2.0277
  173SAPS  C21919690   4.710   1.797   4.453  0.3005 -0.6664  0.3228
  173SAPS  H19R19691   4.651   1.703   4.467  0.6329 -0.6096  2.3409
  173SAPS  H19S19692   4.653   1.886   4.486 -1.5999 -0.9454 -1.8769
  173SAPS  C22019693   4.843   1.805   4.528  0.9244  0.3566  0.1756
  173SAPS  H20R19694   4.826   1.756   4.626  0.0899  0.5284  0.1258
  173SAPS  H20S19695   4.872   1.906   4.562 -1.1784  1.0977 -0.0722
  173SAPS  H20T19696   4.920   1.755   4.466  0.7113 -0.3064  0.4316
  173SAPS   C3319697   4.788   1.415   2.837 -0.0267  0.1391 -1.0811
  173SAPS   H3X19698   4.685   1.452   2.855  0.0307 -0.8575  1.6802
  173SAPS   H3Y19699   4.859   1.498   2.861  0.1402  0.6220 -3.0210
  173SAPS   C3419700   4.800   1.306   2.947  0.0617 -1.0972  0.6482
  173SAPS   H4X19701   4.888   1.238   2.946 -0.4026 -1.7072  0.5137
  173SAPS   H4Y19702   4.716   1.234   2.940 -0.2641 -0.5699 -1.3426
  173SAPS   C3519703   4.790   1.384   3.082 -0.6447  0.6615 -0.5945
  173SAPS   H5X19704   4.706   1.456   3.070 -1.3253  0.1836  1.0458
  173SAPS   H5Y19705   4.888   1.435   3.094  0.0086 -0.7610  0.4313
  173SAPS   C3619706   4.735   1.300   3.197  0.2469 -0.1781 -0.9252
  173SAPS   H6X19707   4.791   1.204   3.203  1.3575  0.5295  4.0624
  173SAPS   H6Y19708   4.629   1.270   3.187  0.0803  0.2668 -0.5357
  173SAPS   C3719709   4.745   1.382   3.330 -0.2687  0.2147 -0.0761
  173SAPS   H7X19710   4.683   1.345   3.414  0.4722  1.2154  0.9418
  173SAPS   H7Y19711   4.704   1.484   3.321 -1.6981 -0.3720 -0.4897
  173SAPS   C3819712   4.888   1.384   3.385 -0.3025 -0.0736 -0.5981
  173SAPS   H8X19713   4.926   1.484   3.357  0.6975 -0.8291 -2.0662
  173SAPS   H8Y19714   4.941   1.313   3.317  1.7568 -0.4143  1.2673
  173SAPS   C3919715   4.904   1.354   3.531  0.1765 -0.3740 -0.7347
  173SAPS   H9X19716   5.014   1.341   3.545  0.3115  0.4093 -1.0239
  173SAPS   H9Y19717   4.869   1.252   3.554  0.9721 -0.0801  2.3120
  173SAPS  C31019718   4.838   1.458   3.627 -0.4700  0.6624  0.5117
  173SAPS  H10X19719   4.738   1.483   3.585  0.7075  0.2283 -2.8324
  173SAPS  H10Y19720   4.907   1.545   3.637  2.5398 -1.3957 -0.9929
  173SAPS  C31119721   4.823   1.399   3.769 -0.4054 -0.4207  0.5323
  173SAPS  H11X19722   4.850   1.467   3.852  1.2214 -1.5482  0.9882
  173SAPS  H11Y19723   4.892   1.313   3.784  0.5164  0.4124  1.1845
  173SAPS  C31219724   4.672   1.360   3.788 -0.6586 -0.1769 -0.1777
  173SAPS  H12X19725   4.625   1.318   3.696  1.0418 -0.5666 -0.9051
  173SAPS  H12Y19726   4.616   1.449   3.824  0.4970  0.1890  0.7569
  173SAPS  C31319727   4.668   1.258   3.903 -0.2338  1.2546 -0.4286
  173SAPS  H13X19728   4.710   1.302   3.996 -0.4782  1.7541 -0.5487
  173SAPS  H13Y19729   4.740   1.177   3.878 -1.9660  0.1897 -2.3106
  173SAPS  C31419730   4.526   1.208   3.948 -0.7888  0.2589 -0.0189
  173SAPS  H14X19731   4.473   1.172   3.858  2.5821 -1.5626 -1.4508
  173SAPS  H14Y19732   4.465   1.296   3.978 -0.1069  2.0160 -3.3527
  173SAPS  C31519733   4.523   1.099   4.055 -0.3511  0.3043 -0.4055
  173SAPS  H15X19734   4.551   1.008   3.997  1.2235 -0.4100  1.3958
  173SAPS  H15Y19735   4.416   1.094   4.084 -0.4573  1.0791 -0.6385
  173SAPS  C31619736   4.601   1.099   4.185  0.1700 -0.7059 -0.2290
  173SAPS  H16X19737   4.704   1.118   4.149 -0.1855  0.1771 -0.8121
  173SAPS  H16Y19738   4.604   1.002   4.240  0.1106  0.2862  1.6318
  173SAPS  C31719739   4.568   1.222   4.276 -0.3369  0.2693 -0.3971
  173SAPS  H17X19740   4.475   1.187   4.325 -0.6992  0.1411 -1.1698
  173SAPS  H17Y19741   4.547   1.312   4.215  1.3075  0.5652 -0.5778
  173SAPS  C31819742   4.677   1.257   4.389  0.0555  0.3489  0.3611
  173SAPS  H18X19743   4.637   1.292   4.487  1.2502  0.1349  0.9432
  173SAPS  H18Y19744   4.737   1.344   4.354 -0.2524  1.3184  2.1332
  173SAPS  H18Z19745   4.736   1.165   4.409  0.2183  0.5502  0.8295
  174SAPS     N19746   1.081   1.060   1.832 -0.2170 -0.8082 -0.1699
  174SAPS   HN119747   0.997   1.103   1.877 -0.1935 -2.2617  1.3680
  174SAPS   HN219748   1.075   1.058   1.729 -1.6873 -1.0670 -0.0993
  174SAPS   HN319749   1.090   0.962   1.865 -1.4637 -1.8426 -2.6855
  174SAPS   C1219750   1.201   1.147   1.870  0.0160  0.1843 -0.0517
  174SAPS  H12A19751   1.279   1.095   1.816 -1.6142 -3.1261  0.5705
  174SAPS   C1319752   1.197   1.294   1.830 -0.2661  0.4849  0.2782
  174SAPS  O13A19753   1.095   1.333   1.769 -0.3624  0.1023  0.3839
  174SAPS  O13B19754   1.293   1.372   1.855  0.3635  0.2080 -0.2166
  174SAPS   C1119755   1.205   1.158   2.030  0.4330 -0.6793  0.4400
  174SAPS  H11A19756   1.117   1.219   2.057  0.9094  2.2164 -3.6073
  174SAPS  H11B19757   1.287   1.227   2.059 -0.8312  1.8479 -1.6309
  174SAPS     P19758   1.354   0.967   2.122 -0.1008  0.0588  0.4254
  174SAPS   O1319759   1.344   0.821   2.162  0.3914 -0.0519  0.0036
  174SAPS   O1419760   1.445   1.001   2.011 -0.0237  0.0987  0.2549
  174SAPS   O1219761   1.214   1.024   2.085  0.5365  0.5276  0.0682
  174SAPS   O1119762   1.394   1.031   2.259 -0.0150 -0.3721  0.0400
  174SAPS    C119763   1.308   1.039   2.370  0.3425 -0.0346 -0.5621
  174SAPS    HA19764   1.218   1.100   2.346 -0.1800 -0.0213  1.2721
  174SAPS    HB19765   1.283   0.937   2.406 -0.8408 -0.3811 -2.2399
  174SAPS    C219766   1.378   1.112   2.494  0.0757 -0.7236  0.5153
  174SAPS    HS19767   1.463   1.046   2.522  0.0536 -0.8237  0.3464
  174SAPS   O2119768   1.283   1.133   2.595  0.4643 -0.5446  0.0483
  174SAPS   C2119769   1.295   1.056   2.697 -0.0726 -0.0460 -1.0675
  174SAPS   O2219770   1.378   0.967   2.707 -0.0412  0.3893  0.1581
  174SAPS   C2219771   1.190   1.102   2.801 -0.2077 -0.6904 -0.3057
  174SAPS   H2R19772   1.191   1.210   2.824 -0.1442 -0.8483  0.4853
  174SAPS   H2S19773   1.091   1.081   2.757 -0.4572 -0.2856  0.0595
  174SAPS    C319774   1.439   1.251   2.450  0.0527  0.0746 -0.3568
  174SAPS    HX19775   1.359   1.316   2.406  0.7021  1.4142  0.3613
  174SAPS    HY19776   1.510   1.249   2.365  0.6979  2.9216  0.0167
  174SAPS   O3119777   1.510   1.304   2.560 -0.1596 -0.0105 -0.6756
  174SAPS   C3119778   1.518   1.438   2.568  0.5638 -0.5711 -0.3339
  174SAPS   O3219779   1.438   1.517   2.509 -0.8038  0.2327  0.3962
  174SAPS   C3219780   1.627   1.474   2.673  0.7378  0.8272  0.0526
  174SAPS   H2X19781   1.727   1.491   2.627  0.6817 -0.2887 -0.5415
  174SAPS   H2Y19782   1.624   1.394   2.750  0.1927 -1.5743 -2.2621
  174SAPS   C2319783   1.207   1.020   2.931  0.0933 -0.4490 -0.9917
  174SAPS   H3R19784   1.209   0.911   2.906  0.7499 -1.5130  2.9887
  174SAPS   H3S19785   1.114   1.031   2.991 -0.4871 -4.8282 -0.7317
  174SAPS   C2419786   1.334   1.056   3.014  0.2501 -1.1361 -0.2142
  174SAPS   H4R19787   1.431   1.038   2.962  0.4396 -2.1710  0.4713
  174SAPS   H4S19788   1.344   0.993   3.105  1.6943  1.6727  1.7167
  174SAPS   C2519789   1.328   1.208   3.048 -0.1869  0.6173  0.4190
  174SAPS   H5R19790   1.365   1.267   2.963  2.7381 -0.1374  1.0777
  174SAPS   C2619791   1.317   1.259   3.174  0.6264  0.0531  0.1151
  174SAPS   H6R19792   1.309   1.366   3.196 -0.8585  0.0659 -0.3515
  174SAPS   C2719793   1.264   1.183   3.294  0.0304 -0.0046 -0.0518
  174SAPS   H7R19794   1.282   1.224   3.396 -0.2176  1.3586 -0.5407
  174SAPS   H7S19795   1.332   1.095   3.305  1.1602  0.7678 -0.6346
  174SAPS   C2819796   1.118   1.153   3.280 -0.4310 -0.1670  0.6556
  174SAPS   H8R19797   1.076   1.137   3.179 -2.2591  1.0983  1.1544
  174SAPS   C2919798   1.037   1.151   3.389 -0.1690  0.1201 -0.0131
  174SAPS   H9R19799   0.929   1.135   3.380 -1.2275  3.3048  3.8890
  174SAPS  C21019800   1.071   1.171   3.534 -0.5897  0.3506  0.3567
  174SAPS  H10R19801   1.168   1.121   3.553 -0.5559  0.2909  0.0384
  174SAPS  H10S19802   0.995   1.110   3.587 -1.1058  1.6080  1.1291
  174SAPS  C21119803   1.066   1.315   3.578 -0.3431  0.0878 -0.5277
  174SAPS  H11R19804   0.974   1.369   3.549  0.7106  2.4566  0.3105
  174SAPS  C21219805   1.136   1.372   3.679 -0.0772  0.3771  0.5789
  174SAPS  H12R19806   1.130   1.479   3.702 -2.2456  0.1817  1.1715
  174SAPS  C21319807   1.254   1.305   3.754 -0.0193 -0.0978  0.5842
  174SAPS  H13R19808   1.314   1.387   3.799 -1.3990  1.3723 -0.1543
  174SAPS  H13S19809   1.316   1.264   3.673 -1.1423  1.3438 -1.0979
  174SAPS  C21419810   1.210   1.209   3.856  1.1546 -0.7503  0.3606
  174SAPS  H14R19811   1.135   1.138   3.818  0.4225 -0.6212  1.5352
  174SAPS  C21519812   1.269   1.195   3.970  0.4424 -0.0100 -0.9996
  174SAPS  H15R19813   1.223   1.123   4.039 -0.8072  0.6547 -1.0998
  174SAPS  C21619814   1.371   1.280   4.037 -0.4940 -0.1397 -0.1968
  174SAPS  H16R19815   1.389   1.382   3.999  1.9077 -0.4288 -0.0338
  174SAPS  H16S19816   1.474   1.239   4.026  0.2935  1.7377 -0.2033
  174SAPS  C21719817   1.328   1.294   4.189 -0.0029 -0.4957 -0.0824
  174SAPS  H17R19818   1.321   1.192   4.232 -1.6697 -0.2009  0.4259
  174SAPS  H17S19819   1.233   1.351   4.205  0.6624  1.1540 -1.7269
  174SAPS  C21819820   1.431   1.381   4.259 -0.6341  0.2620 -0.8732
  174SAPS  H18R19821   1.442   1.483   4.216  0.5309  2.2694  3.5085
  174SAPS  H18S19822   1.525   1.327   4.236 -0.2479 -0.2373  1.5408
  174SAPS  C21919823   1.397   1.403   4.405  0.0280  0.2778 -0.2263
  174SAPS  H19R19824   1.333   1.324   4.449 -2.3852  2.5699  0.6570
  174SAPS  H19S19825   1.335   1.495   4.402  1.5601  1.4194  1.1775
  174SAPS  C22019826   1.509   1.419   4.496  0.5972  0.5434  0.1668
  174SAPS  H20R19827   1.552   1.518   4.468 -0.8160  0.5781 -2.1965
  174SAPS  H20S19828   1.589   1.342   4.502  0.3792  0.4080  1.8574
  174SAPS  H20T19829   1.471   1.425   4.600  1.0400  0.7883  0.3198
  174SAPS   C3319830   1.591   1.597   2.759  0.2963 -0.1117  0.5624
  174SAPS   H3X19831   1.494   1.587   2.813  0.2012  0.2581  0.4668
  174SAPS   H3Y19832   1.560   1.684   2.697 -0.9224 -0.5969  0.4524
  174SAPS   C3419833   1.694   1.642   2.865 -0.5459 -0.1880  0.5115
  174SAPS   H4X19834   1.677   1.738   2.917  0.9650 -0.3407  1.3557
  174SAPS   H4Y19835   1.795   1.651   2.819  1.2426 -0.5586  4.0040
  174SAPS   C3519836   1.710   1.543   2.984 -0.4247  0.3273 -1.0197
  174SAPS   H5X19837   1.813   1.562   3.022  0.1572 -1.5508 -1.5184
  174SAPS   H5Y19838   1.720   1.438   2.948  1.0679  0.5356 -1.2696
  174SAPS   C3619839   1.600   1.565   3.088 -0.6921 -0.1396  0.4132
  174SAPS   H6X19840   1.504   1.530   3.045 -1.2853  0.6825  1.0245
  174SAPS   H6Y19841   1.589   1.674   3.108 -1.6358  0.0596 -1.0536
  174SAPS   C3719842   1.623   1.490   3.217  0.5482  0.3893 -0.2701
  174SAPS   H7X19843   1.731   1.503   3.241  0.4878  0.9881 -0.3128
  174SAPS   H7Y19844   1.600   1.382   3.205 -0.1453  0.6700 -1.7230
  174SAPS   C3819845   1.548   1.538   3.340  0.3664 -0.0528 -0.4726
  174SAPS   H8X19846   1.438   1.538   3.328  0.5095 -0.3188 -2.1187
  174SAPS   H8Y19847   1.574   1.646   3.342 -0.1687  0.1314 -1.8616
  174SAPS   C3919848   1.599   1.456   3.451  0.0067  0.1196  0.8186
  174SAPS   H9X19849   1.709   1.439   3.439  0.1091 -0.0839  1.9318
  174SAPS   H9Y19850   1.549   1.358   3.446  0.4618 -0.1535  1.4636
  174SAPS  C31019851   1.579   1.525   3.588 -0.4585  0.3987  0.3244
  174SAPS  H10X19852   1.471   1.549   3.576 -0.3966  0.0185 -1.2261
  174SAPS  H10Y19853   1.622   1.627   3.598  2.4717 -0.7910  0.6879
  174SAPS  C31119854   1.613   1.434   3.709  0.6892  0.5948 -0.3766
  174SAPS  H11X19855   1.567   1.334   3.693  1.3644  0.3703 -1.0023
  174SAPS  H11Y19856   1.562   1.491   3.789 -3.2475 -0.6778 -1.7418
  174SAPS  C31219857   1.764   1.425   3.733  0.5314  0.7933 -0.0964
  174SAPS  H12X19858   1.793   1.529   3.758 -2.2375  1.5753  0.1684
  174SAPS  H12Y19859   1.818   1.391   3.641 -1.3079 -1.4611 -0.4246
  174SAPS  C31319860   1.807   1.343   3.852  0.7171  0.1781 -0.0255
  174SAPS  H13X19861   1.914   1.373   3.854  0.7758 -0.0581  0.9702
  174SAPS  H13Y19862   1.805   1.234   3.830 -0.4383 -0.0308  1.0574
  174SAPS  C31419863   1.753   1.374   3.991  0.1986 -0.6487  0.0624
  174SAPS  H14X19864   1.782   1.293   4.061  0.5985  2.2456  3.5970
  174SAPS  H14Y19865   1.642   1.386   3.993  0.1410 -0.9869  2.4982
  174SAPS  C31519866   1.819   1.501   4.062 -0.1402 -0.7691 -0.4879
  174SAPS  H15X19867   1.808   1.578   3.983 -1.6508 -1.9726 -1.5180
  174SAPS  H15Y19868   1.926   1.474   4.075  0.9618  3.2398 -0.0280
  174SAPS  C31619869   1.744   1.545   4.191 -0.3579  0.0003 -0.0653
  174SAPS  H16X19870   1.700   1.457   4.242 -0.0675  0.3702  0.8352
  174SAPS  H16Y19871   1.660   1.611   4.159  1.4016  1.1935 -2.5818
  174SAPS  C31719872   1.838   1.625   4.282 -0.6351 -0.6618  0.4633
  174SAPS  H17X19873   1.865   1.713   4.219 -0.1108 -1.9074 -1.1028
  174SAPS  H17Y19874   1.936   1.575   4.294 -0.3705 -0.6083 -1.1725
  174SAPS  C31819875   1.778   1.686   4.411 -0.2468  0.1952  0.4457
  174SAPS  H18X19876   1.744   1.617   4.490  1.3810  0.0051  1.0249
  174SAPS  H18Y19877   1.685   1.738   4.380  1.3476  1.2678 -3.0779
  174SAPS  H18Z19878   1.845   1.760   4.461 -0.0469  1.3187 -1.3775
  175SAPS     N19879   3.582   5.041   2.103  0.1568  0.1573  0.1530
  175SAPS   HN119880   3.587   4.993   2.195  0.9293 -0.2843 -0.1119
  175SAPS   HN219881   3.545   5.137   2.120 -2.1198 -0.4180 -1.1446
  175SAPS   HN319882   3.523   4.973   2.052  0.4207 -0.9111  1.2279
  175SAPS   C1219883   3.710   5.041   2.027  0.0062  0.4024  0.2554
  175SAPS  H12A19884   3.744   4.940   2.006  0.4838  0.1261  2.1513
  175SAPS   C1319885   3.702   5.120   1.888  0.6354 -1.2588  0.0786
  175SAPS  O13A19886   3.627   5.226   1.876  0.4956  0.1144 -0.4737
  175SAPS  O13B19887   3.817   5.126   1.835  0.3760  0.6405  0.5863
  175SAPS   C1119888   3.819   5.097   2.126  0.5109  0.4424  0.4297
  175SAPS  H11A19889   3.806   5.204   2.154 -0.7925  0.4456 -0.1343
  175SAPS  H11B19890   3.914   5.105   2.068  0.3400 -2.2994 -0.3655
  175SAPS     P19891   3.800   5.002   2.368  0.2606  0.0601 -0.2422
  175SAPS   O1319892   3.654   5.008   2.365 -0.4913 -0.2531  0.9419
  175SAPS   O1419893   3.863   4.888   2.436  0.1243  0.1435  0.4622
  175SAPS   O1219894   3.860   5.004   2.223  0.0292  0.3430  0.6124
  175SAPS   O1119895   3.854   5.135   2.423  0.4161 -0.4664  0.1638
  175SAPS    C119896   3.986   5.185   2.410 -0.7239 -0.4122  0.0633
  175SAPS    HA19897   4.047   5.107   2.360  0.3036  1.2883 -1.4792
  175SAPS    HB19898   3.993   5.260   2.329  0.7097 -0.6807 -0.0894
  175SAPS    C219899   4.052   5.244   2.544 -0.2644  0.3511  0.3391
  175SAPS    HS19900   4.158   5.265   2.520  0.1430 -2.0953 -0.3425
  175SAPS   O2119901   4.042   5.149   2.653 -0.1049 -0.1694  0.4286
  175SAPS   C2119902   4.103   5.028   2.629 -0.4160  0.0153  0.0180
  175SAPS   O2219903   4.180   5.009   2.539 -0.1145 -0.1984  0.6725
  175SAPS   C2219904   4.063   4.930   2.738  0.2046  0.1676 -0.6673
  175SAPS   H2R19905   4.015   4.990   2.817 -0.3202  1.3600 -1.8446
  175SAPS   H2S19906   4.002   4.842   2.710  0.6927 -1.0368  1.7799
  175SAPS    C319907   3.978   5.371   2.594  0.1715  0.2876  0.2877
  175SAPS    HX19908   3.896   5.330   2.656 -0.4228 -3.5177 -2.6530
  175SAPS    HY19909   3.932   5.420   2.506  1.4640  1.4069  0.2107
  175SAPS   O3119910   4.064   5.465   2.659 -0.1554 -0.2807 -0.6373
  175SAPS   C3119911   4.101   5.571   2.588 -0.6705 -0.7284 -0.2471
  175SAPS   O3219912   4.068   5.583   2.472 -0.4066 -0.1229 -0.1021
  175SAPS   C3219913   4.182   5.672   2.668  0.0142 -0.5228  0.3825
  175SAPS   H2X19914   4.186   5.762   2.603  2.5629 -0.9611 -0.1821
  175SAPS   H2Y19915   4.290   5.644   2.674  0.1731  0.2637  1.7546
  175SAPS   C2319916   4.197   4.872   2.787  1.0514  0.6080  0.2250
  175SAPS   H3R19917   4.248   4.812   2.709 -1.5101 -0.9409 -0.3745
  175SAPS   H3S19918   4.175   4.803   2.871 -2.4105  0.5223 -0.6089
  175SAPS   C2419919   4.301   4.975   2.835 -0.0301  0.4113 -0.3571
  175SAPS   H4R19920   4.237   5.035   2.904 -1.3944 -0.7068 -0.6001
  175SAPS   H4S19921   4.345   5.038   2.755  2.9628  1.2470  1.7624
  175SAPS   C2519922   4.419   4.918   2.908 -0.4655  0.2765 -0.2556
  175SAPS   H5R19923   4.513   4.904   2.853  0.2892  1.4505  0.6990
  175SAPS   C2619924   4.419   4.885   3.037 -1.0915 -0.3041 -0.4601
  175SAPS   H6R19925   4.512   4.846   3.079 -0.6348  0.7656 -0.4552
  175SAPS   C2719926   4.306   4.911   3.133 -0.0854  0.0966  0.2025
  175SAPS   H7R19927   4.242   4.821   3.134  0.8788 -0.5958  0.4427
  175SAPS   H7S19928   4.247   5.003   3.111 -0.5846 -0.3159 -0.2111
  175SAPS   C2819929   4.354   4.927   3.274  0.5076  0.3761  0.4462
  175SAPS   H8R19930   4.326   4.846   3.343  0.9957 -0.0193  0.1931
  175SAPS   C2919931   4.416   5.030   3.333 -0.1240  0.8100  0.1021
  175SAPS   H9R19932   4.419   5.027   3.443 -1.2005 -2.0325  0.1542
  175SAPS  C21019933   4.456   5.158   3.270 -0.0553 -0.7696 -1.3636
  175SAPS  H10R19934   4.409   5.161   3.169 -3.5492 -0.6537  0.1202
  175SAPS  H10S19935   4.566   5.142   3.264 -0.1665 -1.8446 -0.7652
  175SAPS  C21119936   4.407   5.285   3.338 -0.4559 -1.0377  0.3733
  175SAPS  H11R19937   4.313   5.326   3.298  0.1255  0.7490  0.7908
  175SAPS  C21219938   4.465   5.348   3.441 -0.1450  0.0115 -0.5656
  175SAPS  H12R19939   4.422   5.445   3.472  1.1306  0.3276  0.3309
  175SAPS  C21319940   4.586   5.311   3.526 -0.3609  0.7877 -0.3262
  175SAPS  H13R19941   4.649   5.397   3.559 -0.6896  0.6430  0.7243
  175SAPS  H13S19942   4.653   5.256   3.457 -1.2408  0.3164 -0.8174
  175SAPS  C21419943   4.572   5.227   3.646  0.7836 -0.1365 -0.2007
  175SAPS  H14R19944   4.546   5.123   3.623 -0.2147  0.3303 -1.2927
  175SAPS  C21519945   4.587   5.267   3.775  0.3440 -0.2402  0.0518
  175SAPS  H15R19946   4.580   5.194   3.857  0.1075  0.6060  0.7989
  175SAPS  C21619947   4.638   5.399   3.822  0.1826 -1.0723  0.7104
  175SAPS  H16R19948   4.549   5.455   3.858  1.0379 -0.1762  1.4998
  175SAPS  H16S19949   4.688   5.456   3.741 -2.2934 -2.0832 -1.6866
  175SAPS  C21719950   4.721   5.378   3.954 -0.0368 -0.3062  0.4691
  175SAPS  H17R19951   4.820   5.336   3.929 -0.4086 -1.2786  0.5809
  175SAPS  H17S19952   4.674   5.315   4.032  0.5962 -0.4256  0.7563
  175SAPS  C21819953   4.754   5.526   4.004  0.5073 -0.0099 -0.8777
  175SAPS  H18R19954   4.690   5.604   3.959 -2.6057 -1.3736  0.8665
  175SAPS  H18S19955   4.859   5.555   3.982  0.9306 -0.9500 -0.2095
  175SAPS  C21919956   4.734   5.541   4.158  0.0953 -0.2944  0.1356
  175SAPS  H19R19957   4.745   5.648   4.183  0.3116  0.1577 -1.7418
  175SAPS  H19S19958   4.810   5.494   4.224 -0.6222  2.4232  3.1248
  175SAPS  C22019959   4.596   5.505   4.206  0.1250  0.2452 -0.8957
  175SAPS  H20R19960   4.520   5.546   4.137 -1.0990 -0.7441 -0.1695
  175SAPS  H20S19961   4.575   5.550   4.306 -2.8055  0.4360 -1.5257
  175SAPS  H20T19962   4.573   5.397   4.217 -1.3152  0.4787 -1.4620
  175SAPS   C3319963   4.132   5.714   2.809  0.1349  0.6719 -0.8867
  175SAPS   H3X19964   4.027   5.749   2.802  0.3057  1.1265 -1.1569
  175SAPS   H3Y19965   4.193   5.797   2.849 -1.8401  0.6595  2.5657
  175SAPS   C3419966   4.156   5.608   2.912 -0.2351 -0.4761  1.0366
  175SAPS   H4X19967   4.262   5.576   2.914  0.7615  2.0296 -2.1198
  175SAPS   H4Y19968   4.105   5.512   2.890  1.6886 -1.8267  2.1687
  175SAPS   C3519969   4.096   5.658   3.047 -0.0571  0.8273 -0.1138
  175SAPS   H5X19970   3.985   5.659   3.046 -0.0788  1.1990 -1.9538
  175SAPS   H5Y19971   4.124   5.765   3.063 -3.2424  1.9037 -0.8867
  175SAPS   C3619972   4.152   5.590   3.166  0.7916 -0.0010  0.4948
  175SAPS   H6X19973   4.261   5.609   3.164  1.2946 -2.3580 -3.0059
  175SAPS   H6Y19974   4.145   5.481   3.144  0.2848  0.5530 -2.4831
  175SAPS   C3719975   4.085   5.648   3.290  0.5159  0.0682 -0.6361
  175SAPS   H7X19976   3.977   5.624   3.292  0.3853  0.6422 -0.5985
  175SAPS   H7Y19977   4.102   5.758   3.294 -0.1469  0.1867 -1.0166
  175SAPS   C3819978   4.150   5.584   3.419 -0.7186 -0.4286 -0.4344
  175SAPS   H8X19979   4.260   5.569   3.409 -0.6225 -1.2795  1.3744
  175SAPS   H8Y19980   4.105   5.483   3.434 -0.3539 -0.5988 -0.4623
  175SAPS   C3919981   4.141   5.668   3.549  0.7318 -0.4783  0.5802
  175SAPS   H9X19982   4.041   5.716   3.551  1.3196  0.9014 -0.7885
  175SAPS   H9Y19983   4.218   5.747   3.534 -1.5619  1.7337 -0.3154
  175SAPS  C31019984   4.174   5.584   3.672  0.7383 -0.1469 -0.1820
  175SAPS  H10X19985   4.182   5.660   3.753  1.9147  1.4366 -1.6996
  175SAPS  H10Y19986   4.276   5.540   3.667  1.4474  1.3715  0.0699
  175SAPS  C31119987   4.063   5.482   3.696 -0.6810 -0.0894 -0.4971
  175SAPS  H11X19988   4.070   5.413   3.609 -1.9128  2.1714 -2.5088
  175SAPS  H11Y19989   3.965   5.533   3.696 -1.4737 -1.5689 -0.6234
  175SAPS  C31219990   4.076   5.416   3.833  0.3457  0.7035 -1.1423
  175SAPS  H12X19991   4.000   5.336   3.849  2.6983 -1.5258 -0.4152
  175SAPS  H12Y19992   4.060   5.502   3.901 -1.1345 -0.4820  0.1211
  175SAPS  C31319993   4.213   5.345   3.866  0.1430 -0.0573 -0.5359
  175SAPS  H13X19994   4.291   5.423   3.872 -2.1943  2.2785  2.6687
  175SAPS  H13Y19995   4.231   5.278   3.778 -1.9290 -0.9658 -0.3448
  175SAPS  C31419996   4.220   5.250   3.983  0.2041 -0.2212 -0.0021
  175SAPS  H14X19997   4.316   5.193   3.987  1.0581  1.2119  2.3658
  175SAPS  H14Y19998   4.127   5.189   3.984 -0.5958  0.9697  1.4387
  175SAPS  C31519999   4.221   5.316   4.126  0.4229  0.4334  0.3166
  175SAPS  H15X20000   4.128   5.376   4.134  0.3611  0.2568  1.0249
  175SAPS  H15Y20001   4.311   5.380   4.121  0.9212 -0.2421  0.4642
  175SAPS  C31620002   4.223   5.222   4.245  0.8311 -0.1511  0.1894
  175SAPS  H16X20003   4.310   5.155   4.231  1.1212  0.2230  0.2165
  175SAPS  H16Y20004   4.131   5.158   4.241  1.3753 -0.9399 -0.0200
  175SAPS  C31720005   4.235   5.315   4.374  0.4709 -0.1726  0.0491
  175SAPS  H17X20006   4.147   5.384   4.370  0.3960  0.1769  4.0731
  175SAPS  H17Y20007   4.321   5.385   4.370 -0.9682  1.7803  1.4526
  175SAPS  C31820008   4.252   5.244   4.509  0.2121  0.5516 -0.8081
  175SAPS  H18X20009   4.251   5.314   4.595  0.4276 -0.5233  0.1007
  175SAPS  H18Y20010   4.346   5.184   4.513 -0.5717 -0.7879 -1.6530
  175SAPS  H18Z20011   4.177   5.164   4.522  0.3923  0.4051 -0.6556
  176SAPS     N20012   6.116   5.997   2.084 -0.4344 -0.2873 -0.2424
  176SAPS   HN120013   6.181   6.065   2.039  0.6121 -1.8700 -1.2327
  176SAPS   HN220014   6.076   6.047   2.166  3.1216  2.9343 -0.1625
  176SAPS   HN320015   6.174   5.917   2.118 -0.8716 -0.3179  0.4548
  176SAPS   C1220016   6.012   5.947   1.990  0.1622 -0.5339 -0.4992
  176SAPS  H12A20017   5.947   6.031   1.971  0.6487 -0.1676 -0.5587
  176SAPS   C1320018   6.081   5.902   1.860 -0.0514 -0.1962  0.1304
  176SAPS  O13A20019   6.201   5.913   1.836 -0.1919 -0.5719  0.7126
  176SAPS  O13B20020   6.006   5.841   1.782 -0.1511  0.1918 -0.0643
  176SAPS   C1120021   5.939   5.826   2.047  0.2412 -0.4129  0.0734
  176SAPS  H11A20022   6.009   5.739   2.048  0.4872 -0.2820 -1.7011
  176SAPS  H11B20023   5.858   5.795   1.978  2.2179  0.1340 -2.6918
  176SAPS     P20024   5.744   5.825   2.227 -0.2777 -0.4281 -0.3007
  176SAPS   O1320025   5.661   5.947   2.221  0.4997  0.5081 -0.2271
  176SAPS   O1420026   5.701   5.709   2.142 -0.4540 -0.3024 -0.3150
  176SAPS   O1220027   5.895   5.854   2.182 -0.4936  0.0691 -0.7704
  176SAPS   O1120028   5.757   5.782   2.380  0.2784  0.1113 -0.0111
  176SAPS    C120029   5.860   5.824   2.466 -0.2803 -0.1727 -0.9508
  176SAPS    HA20030   5.895   5.926   2.439  0.2554 -0.6762 -2.2307
  176SAPS    HB20031   5.825   5.818   2.571  1.3895  0.3858 -0.3242
  176SAPS    C220032   5.979   5.726   2.457 -0.6431  0.1050  0.4318
  176SAPS    HS20033   6.019   5.734   2.354 -1.1964  1.1739  0.2920
  176SAPS   O2120034   5.933   5.588   2.482 -0.3200  0.2221  0.0776
  176SAPS   C2120035   6.003   5.494   2.433  0.3162  0.8176  0.7359
  176SAPS   O2220036   6.116   5.502   2.378 -0.0467 -0.5191  0.4688
  176SAPS   C2220037   5.925   5.361   2.443  0.3521  0.6999  0.6775
  176SAPS   H2R20038   5.910   5.337   2.550  2.0802  0.9555  1.0076
  176SAPS   H2S20039   5.824   5.378   2.400  0.2421  1.0406  1.0606
  176SAPS    C320040   6.070   5.758   2.577  0.2406  0.0492 -0.0567
  176SAPS    HX20041   6.084   5.867   2.562  2.6942 -0.3599 -1.1434
  176SAPS    HY20042   6.171   5.711   2.577  0.2308 -0.0172  1.4726
  176SAPS   O3120043   6.001   5.726   2.703  1.0978 -0.5157  0.1824
  176SAPS   C3120044   6.066   5.644   2.785 -0.6118  0.2245 -0.5228
  176SAPS   O3220045   6.182   5.613   2.779 -0.9009  0.6278 -0.4757
  176SAPS   C3220046   5.971   5.585   2.888  0.2386 -0.2586  0.4748
  176SAPS   H2X20047   5.963   5.477   2.865 -2.5198 -0.7562  3.0738
  176SAPS   H2Y20048   5.870   5.627   2.865  1.1902  1.1983 -1.3614
  176SAPS   C2320049   6.002   5.249   2.368 -0.2485  0.1845 -0.4767
  176SAPS   H3R20050   6.105   5.233   2.409  0.8707  1.6905 -2.5044
  176SAPS   H3S20051   6.015   5.266   2.259 -0.7456  0.6979 -0.4574
  176SAPS   C2420052   5.930   5.112   2.371  0.5486  0.2279 -0.0217
  176SAPS   H4R20053   5.822   5.127   2.348  0.2209  1.6691  2.2710
  176SAPS   H4S20054   5.930   5.086   2.479  1.1039  2.3514  0.5271
  176SAPS   C2520055   6.001   5.002   2.295  0.1764  0.2233  0.3319
  176SAPS   H5R20056   6.050   5.026   2.200  3.0306  1.0209  1.9021
  176SAPS   C2620057   6.048   4.887   2.345  0.1600 -0.4634 -0.3590
  176SAPS   H6R20058   6.102   4.819   2.278  0.9484  0.4332 -0.6572
  176SAPS   C2720059   6.003   4.827   2.480 -0.4175  0.3797  0.3458
  176SAPS   H7R20060   6.003   4.900   2.563  0.1332  0.9890 -0.1772
  176SAPS   H7S20061   6.078   4.751   2.511 -1.0132  0.8648  3.2002
  176SAPS   C2820062   5.865   4.761   2.468  0.6006 -0.8519  0.6039
  176SAPS   H8R20063   5.849   4.693   2.383 -2.4315 -0.8970  1.0936
  176SAPS   C2920064   5.768   4.776   2.554 -0.3438 -0.0434 -0.8728
  176SAPS   H9R20065   5.671   4.731   2.531  0.2487 -1.3111 -0.9796
  176SAPS  C21020066   5.771   4.864   2.683  0.2639  1.1993 -0.0979
  176SAPS  H10R20067   5.868   4.874   2.736  0.1539 -4.3614  1.7847
  176SAPS  H10S20068   5.713   4.802   2.754 -0.4015 -0.3960 -1.9426
  176SAPS  C21120069   5.695   4.995   2.670 -0.4034 -0.3437  0.3407
  176SAPS  H11R20070   5.614   5.009   2.596 -0.4793 -1.0632  0.2761
  176SAPS  C21220071   5.709   5.095   2.756  0.3498 -0.3813  0.5689
  176SAPS  H12R20072   5.654   5.186   2.730 -1.8929 -1.1217  2.4045
  176SAPS  C21320073   5.803   5.108   2.868  0.1509 -0.5761  0.5036
  176SAPS  H13R20074   5.909   5.103   2.835  0.6186 -2.0261  2.0567
  176SAPS  H13S20075   5.793   5.018   2.933 -3.0456  0.0622  1.0287
  176SAPS  C21420076   5.780   5.237   2.949  0.1841  0.4917  0.1704
  176SAPS  H14R20077   5.833   5.325   2.908  0.5760  0.4363  0.5447
  176SAPS  C21520078   5.698   5.245   3.058  0.1423 -0.0113 -0.4541
  176SAPS  H15R20079   5.699   5.338   3.116  1.9492 -0.2675 -0.0244
  176SAPS  C21620080   5.627   5.132   3.125  0.4413 -0.1266 -0.3555
  176SAPS  H16R20081   5.621   5.048   3.052 -0.0672 -0.0537 -0.4033
  176SAPS  H16S20082   5.525   5.154   3.163  0.4095 -2.1978  0.8977
  176SAPS  C21720083   5.692   5.070   3.243 -0.1620  0.0632  0.1296
  176SAPS  H17R20084   5.800   5.051   3.226  0.3518  2.1269  0.8011
  176SAPS  H17S20085   5.644   4.972   3.263  1.7764 -0.9749 -0.0106
  176SAPS  C21820086   5.675   5.138   3.384 -0.1705  0.1645 -0.0903
  176SAPS  H18R20087   5.578   5.099   3.420  0.7299 -3.8983 -1.4772
  176SAPS  H18S20088   5.669   5.248   3.377  4.4352  0.8221  2.3257
  176SAPS  C21920089   5.779   5.086   3.485 -0.3619  0.3457  0.0787
  176SAPS  H19R20090   5.875   5.132   3.455  0.1425 -0.5447  0.2767
  176SAPS  H19S20091   5.788   4.975   3.484  0.8978  0.4370 -0.9883
  176SAPS  C22020092   5.744   5.129   3.633  0.0450 -0.1533  0.2707
  176SAPS  H20R20093   5.820   5.097   3.708  0.4183  0.1480  0.0249
  176SAPS  H20S20094   5.661   5.064   3.669  1.3534 -0.6988  2.5513
  176SAPS  H20T20095   5.716   5.236   3.640 -0.6494 -0.0785 -2.4456
  176SAPS   C3320096   5.992   5.602   3.039 -0.3427 -0.6176 -0.1493
  176SAPS   H3X20097   5.900   5.619   3.099 -0.4496  1.1200 -0.7525
  176SAPS   H3Y20098   6.056   5.693   3.047 -1.6679  0.2344  1.3303
  176SAPS   C3420099   6.092   5.493   3.096  0.0236 -0.3739  0.0549
  176SAPS   H4X20100   6.189   5.506   3.044 -0.6620  1.8289 -0.7595
  176SAPS   H4Y20101   6.052   5.391   3.076 -0.1896 -0.1922 -0.4365
  176SAPS   C3520102   6.111   5.495   3.245  0.2731 -0.4028 -0.2566
  176SAPS   H5X20103   6.136   5.598   3.276 -0.9332 -0.8612  2.5565
  176SAPS   H5Y20104   6.190   5.423   3.276 -0.4337  0.1097  3.0846
  176SAPS   C3620105   5.989   5.458   3.334 -0.5256  0.2951 -0.4227
  176SAPS   H6X20106   5.962   5.350   3.326  3.6407 -1.0676  1.2578
  176SAPS   H6Y20107   5.907   5.523   3.297  0.3448  1.8447  0.2838
  176SAPS   C3720108   6.004   5.494   3.483 -0.0073  0.5838 -0.1551
  176SAPS   H7X20109   5.915   5.454   3.537 -0.5180 -2.5243 -2.9936
  176SAPS   H7Y20110   5.999   5.604   3.500  0.2186  0.6835 -0.7358
  176SAPS   C3820111   6.132   5.441   3.554 -0.4009  0.2493  0.0050
  176SAPS   H8X20112   6.225   5.457   3.496 -2.0995  1.7451 -2.5262
  176SAPS   H8Y20113   6.118   5.336   3.587 -0.3025 -0.0472 -0.8701
  176SAPS   C3920114   6.150   5.514   3.688  0.5132  0.1280 -0.0286
  176SAPS   H9X20115   6.063   5.503   3.756  1.0904 -0.3442  0.6481
  176SAPS   H9Y20116   6.165   5.622   3.667  1.1185  0.0625  0.0365
  176SAPS  C31020117   6.274   5.473   3.775 -0.2205 -0.6325  0.3611
  176SAPS  H10X20118   6.365   5.503   3.718 -1.1577  0.7702 -0.4736
  176SAPS  H10Y20119   6.277   5.363   3.789  4.2671 -0.3602  4.2312
  176SAPS  C31120120   6.268   5.547   3.911  0.3987 -0.1470 -0.2469
  176SAPS  H11X20121   6.180   5.500   3.960 -0.1024 -0.1171 -1.1165
  176SAPS  H11Y20122   6.267   5.656   3.890 -1.4768 -0.3124 -1.2243
  176SAPS  C31220123   6.376   5.496   4.008  0.4755  0.4587 -0.2083
  176SAPS  H12X20124   6.481   5.507   3.973  0.9308 -0.0347  0.9620
  176SAPS  H12Y20125   6.341   5.398   4.045 -1.1698  1.9287  2.4175
  176SAPS  C31320126   6.384   5.576   4.145  0.0724  0.0682  0.6661
  176SAPS  H13X20127   6.280   5.574   4.183 -0.9487  0.8758 -1.8739
  176SAPS  H13Y20128   6.416   5.681   4.125 -1.9714  0.8784  1.4356
  176SAPS  C31420129   6.475   5.514   4.254 -0.2407 -0.2419 -0.0307
  176SAPS  H14X20130   6.578   5.515   4.215 -0.0616 -1.5178  0.3369
  176SAPS  H14Y20131   6.432   5.414   4.278  0.6573 -1.0348 -1.6327
  176SAPS  C31520132   6.491   5.602   4.384 -0.4839 -0.1974  0.3180
  176SAPS  H15X20133   6.392   5.631   4.427 -0.2361  0.1695  0.6538
  176SAPS  H15Y20134   6.540   5.691   4.339  2.4334 -2.0136 -0.3323
  176SAPS  C31620135   6.568   5.540   4.496 -0.5077 -0.5194 -0.3613
  176SAPS  H16X20136   6.510   5.475   4.565  1.0442 -1.0993  0.4514
  176SAPS  H16Y20137   6.615   5.617   4.560  1.0576 -2.6889  1.2467
  176SAPS  C31720138   6.683   5.458   4.454  0.7930  0.1938 -0.5603
  176SAPS  H17X20139   6.743   5.514   4.379  1.5247 -0.7424 -0.7042
  176SAPS  H17Y20140   6.657   5.361   4.405  0.7181  0.3838 -0.8985
  176SAPS  C31820141   6.762   5.430   4.579  0.1090  0.4751 -0.3405
  176SAPS  H18X20142   6.853   5.374   4.553  0.6581  1.3690 -0.4002
  176SAPS  H18Y20143   6.708   5.361   4.648 -0.4788 -0.2627 -1.5128
  176SAPS  H18Z20144   6.796   5.523   4.630  2.1579  1.2129 -2.8874
  177SAPS     N20145   6.618   0.633   1.619 -0.6318 -0.3863  0.4299
  177SAPS   HN120146   6.699   0.568   1.615  1.8954  2.5121  0.4497
  177SAPS   HN220147   6.536   0.580   1.583 -1.5070  1.0471  0.2203
  177SAPS   HN320148   6.648   0.695   1.542  1.4439 -1.4234  0.3380
  177SAPS   C1220149   6.600   0.689   1.760  0.2752 -0.3598  0.2411
  177SAPS  H12A20150   6.692   0.735   1.794 -0.0772 -1.8828  3.6637
  177SAPS   C1320151   6.495   0.796   1.756 -0.5052  0.4887  0.1911
  177SAPS  O13A20152   6.427   0.803   1.652 -0.1252 -0.2170  0.2530
  177SAPS  O13B20153   6.471   0.858   1.862  0.7097  0.4559 -0.0431
  177SAPS   C1120154   6.563   0.572   1.850  0.4793 -0.0865 -0.9150
  177SAPS  H11A20155   6.472   0.528   1.804  1.1042 -1.6729 -0.6927
  177SAPS  H11B20156   6.540   0.616   1.949 -0.1229 -0.6692 -0.7900
  177SAPS     P20157   6.638   0.345   1.941  0.1234 -0.0859 -0.2170
  177SAPS   O1320158   6.508   0.278   1.913 -0.3672  1.0144  0.4081
  177SAPS   O1420159   6.757   0.258   1.915 -0.1516  0.5979  0.0509
  177SAPS   O1220160   6.661   0.474   1.849  0.3449  0.0202  0.0233
  177SAPS   O1120161   6.629   0.407   2.080  0.3326 -0.2663 -0.0504
  177SAPS    C120162   6.743   0.486   2.124 -0.1654 -0.1854  0.3814
  177SAPS    HA20163   6.794   0.548   2.047  0.1921  0.5665  1.2135
  177SAPS    HB20164   6.716   0.561   2.201  0.6795  1.8982 -1.2580
  177SAPS    C220165   6.858   0.398   2.184  0.1993  0.3184 -0.4554
  177SAPS    HS20166   6.895   0.345   2.094 -2.0852 -2.9192  0.3428
  177SAPS   O2120167   6.814   0.307   2.293  0.2301  0.7266 -0.2114
  177SAPS   C2120168   6.889   0.198   2.304  0.1854  0.1250 -0.3131
  177SAPS   O2220169   6.989   0.178   2.249 -0.6824  0.3413  0.2380
  177SAPS   C2220170   6.820   0.097   2.397 -0.5324 -0.0957 -0.0738
  177SAPS   H2R20171   6.713   0.091   2.370 -0.5123 -1.7179  0.0870
  177SAPS   H2S20172   6.887   0.009   2.382  1.7353  1.6539 -0.9402
  177SAPS    C320173   6.988   0.474   2.226  0.3102 -0.2744 -0.5343
  177SAPS    HX20174   7.013   0.529   2.132 -0.7097  0.3642 -0.4478
  177SAPS    HY20175   7.076   0.407   2.233 -0.4090 -1.5010 -2.3384
  177SAPS   O3120176   6.970   0.561   2.336  0.1195  0.5416  0.1476
  177SAPS   C3120177   7.011   0.514   2.457 -0.4548  0.0277 -0.3804
  177SAPS   O3220178   7.092   0.425   2.469 -0.7584  0.5415  0.2750
  177SAPS   C3220179   6.956   0.597   2.568  1.0513  0.6752  0.8319
  177SAPS   H2X20180   7.008   0.695   2.556 -0.5154  1.2894 -1.9831
  177SAPS   H2Y20181   6.974   0.554   2.669  3.2799 -0.6660 -0.0631
  177SAPS   C2320182   6.837   0.126   2.550 -0.5630  0.3644 -0.5773
  177SAPS   H3R20183   6.778   0.054   2.610 -0.7240  0.8455 -0.1595
  177SAPS   H3S20184   6.779   0.217   2.572 -1.4211 -0.0336 -1.1315
  177SAPS   C2420185   6.982   0.124   2.607  0.2325  0.4494  0.1125
  177SAPS   H4R20186   6.982   0.191   2.695  1.0613 -1.7284  1.8698
  177SAPS   H4S20187   7.053   0.168   2.534  1.7586 -2.3839 -0.2756
  177SAPS   C2520188   7.046  -0.004   2.641 -0.0634 -0.1647 -0.5159
  177SAPS   H5R20189   7.045  -0.067   2.550 -0.9999  1.2806 -1.5643
  177SAPS   C2620190   7.075  -0.053   2.765  0.5680 -0.6455 -0.1273
  177SAPS   H6R20191   7.118  -0.154   2.769  0.5137 -0.6836 -0.4711
  177SAPS   C2720192   7.075   0.019   2.894 -0.6109  1.2038 -0.3918
  177SAPS   H7R20193   7.030  -0.054   2.964  3.0667 -1.2364 -0.2969
  177SAPS   H7S20194   7.008   0.107   2.886 -0.7827  1.1683  0.5801
  177SAPS   C2820195   7.223   0.055   2.925  0.2648 -0.2651  0.3787
  177SAPS   H8R20196   7.287   0.061   2.835  1.5486  0.6037  1.3282
  177SAPS   C2920197   7.277   0.085   3.040 -0.2126  0.2167 -0.6092
  177SAPS   H9R20198   7.381   0.119   3.043 -0.8483  2.2405  0.2738
  177SAPS  C21020199   7.201   0.087   3.175  0.6582 -0.5646 -0.0074
  177SAPS  H10R20200   7.111   0.022   3.176 -0.9249  1.5246 -0.3980
  177SAPS  H10S20201   7.166   0.190   3.195  1.6851 -0.3610  0.8882
  177SAPS  C21120202   7.299   0.053   3.289 -0.3328  0.3818 -0.0248
  177SAPS  H11R20203   7.406   0.049   3.263 -0.3859  1.3735 -0.4257
  177SAPS  C21220204   7.275   0.036   3.422  0.5090  0.7225  0.8975
  177SAPS  H12R20205   7.361   0.024   3.489 -0.9169 -1.9702  2.4212
  177SAPS  C21320206   7.144   0.057   3.486  0.7786  0.5537 -0.3346
  177SAPS  H13R20207   7.096  -0.040   3.511 -0.7102  0.6288 -2.6820
  177SAPS  H13S20208   7.074   0.099   3.411 -1.7872  0.0935  1.6546
  177SAPS  C21420209   7.151   0.146   3.606 -0.4147 -0.0797 -0.1102
  177SAPS  H14R20210   7.208   0.237   3.583 -2.3373  0.4690 -3.3117
  177SAPS  C21520211   7.097   0.137   3.723  1.0893 -0.3192 -1.2750
  177SAPS  H15R20212   7.111   0.209   3.805  1.6041 -1.9626  0.1434
  177SAPS  C21620213   7.014   0.019   3.763  0.8122  0.9254 -0.0455
  177SAPS  H16R20214   7.023  -0.071   3.698 -3.0971  1.6209 -1.8066
  177SAPS  H16S20215   6.906   0.037   3.751  0.8131 -0.3519 -2.7746
  177SAPS  C21720216   7.051  -0.037   3.901  0.5273  1.2373  0.0350
  177SAPS  H17R20217   6.992  -0.131   3.912  0.1520  1.0378 -2.9718
  177SAPS  H17S20218   7.018   0.036   3.978  0.3089 -0.3286  1.4888
  177SAPS  C21820219   7.202  -0.066   3.940 -0.4392  0.0540  0.5156
  177SAPS  H18R20220   7.234  -0.022   4.038  2.2992 -0.1068 -0.2209
  177SAPS  H18S20221   7.262  -0.021   3.858 -0.8898  1.1282  0.7539
  177SAPS  C21920222   7.247  -0.209   3.945 -0.4240 -0.0096  0.9274
  177SAPS  H19R20223   7.358  -0.215   3.940 -0.3686  1.1611  0.5019
  177SAPS  H19S20224   7.222  -0.273   3.858  2.6393 -0.4185  0.2462
  177SAPS  C22020225   7.192  -0.295   4.059  0.2494 -0.4846 -0.3311
  177SAPS  H20R20226   7.210  -0.404   4.046 -0.7280 -0.4431 -2.4494
  177SAPS  H20S20227   7.086  -0.265   4.071  0.7516  1.2841  0.0682
  177SAPS  H20T20228   7.253  -0.259   4.145  0.0308  0.5266 -0.5851
  177SAPS   C3320229   6.801   0.612   2.555 -0.4149  0.1929  0.6924
  177SAPS   H3X20230   6.756   0.510   2.555  0.2243 -0.0941  0.1221
  177SAPS   H3Y20231   6.780   0.668   2.462  3.3129 -0.9559 -1.0735
  177SAPS   C3420232   6.746   0.685   2.679 -0.7390  1.0483  0.0360
  177SAPS   H4X20233   6.776   0.620   2.763  0.1391  0.9065 -0.3813
  177SAPS   H4Y20234   6.635   0.689   2.670 -0.7499  0.8897  0.1079
  177SAPS   C3520235   6.802   0.824   2.701  0.0495  0.0970  0.7576
  177SAPS   H5X20236   6.783   0.872   2.603 -1.7077  2.1183  2.0136
  177SAPS   H5Y20237   6.911   0.832   2.719  0.0738  0.8019  0.3287
  177SAPS   C3620238   6.729   0.913   2.806  0.1581  0.4406 -0.0457
  177SAPS   H6X20239   6.620   0.902   2.784 -0.0479  1.6195  0.3047
  177SAPS   H6Y20240   6.756   1.020   2.795 -2.3052  1.2731  1.0367
  177SAPS   C3720241   6.758   0.866   2.960  0.0233  0.0493  0.3290
  177SAPS   H7X20242   6.867   0.869   2.983  0.0163 -1.0677  0.5423
  177SAPS   H7Y20243   6.728   0.760   2.964  1.0631 -0.1983  3.0485
  177SAPS   C3820244   6.685   0.957   3.065 -0.5507 -0.1895  0.1172
  177SAPS   H8X20245   6.577   0.936   3.058 -0.2580 -2.5733  1.4735
  177SAPS   H8Y20246   6.707   1.065   3.056 -1.4313  0.0643  0.9404
  177SAPS   C3920247   6.721   0.917   3.206  0.5940  0.2677 -0.4617
  177SAPS   H9X20248   6.830   0.937   3.215  0.9586 -1.5529 -0.5136
  177SAPS   H9Y20249   6.688   0.812   3.217 -2.2124  0.8428 -2.2420
  177SAPS  C31020250   6.642   1.001   3.304  0.4062  0.6668  0.0939
  177SAPS  H10X20251   6.533   0.982   3.315  0.1846  3.0400  3.5368
  177SAPS  H10Y20252   6.646   1.108   3.275  1.9777 -0.0348 -2.7264
  177SAPS  C31120253   6.696   1.004   3.447 -0.2874  0.6069  0.2108
  177SAPS  H11X20254   6.646   1.087   3.501 -2.1918 -0.8703  0.8546
  177SAPS  H11Y20255   6.805   1.024   3.439 -0.4784  1.4842 -0.3320
  177SAPS  C31220256   6.679   0.877   3.533  0.3421  0.5710  0.6659
  177SAPS  H12X20257   6.756   0.803   3.501 -1.1086 -0.8336  0.3046
  177SAPS  H12Y20258   6.579   0.837   3.507  1.0082 -1.0980  0.5498
  177SAPS  C31320259   6.675   0.920   3.673 -0.2114  0.0905 -0.0885
  177SAPS  H13X20260   6.583   0.979   3.695  0.8646  0.7682  3.0575
  177SAPS  H13Y20261   6.763   0.981   3.703 -2.4828  4.3684 -1.1557
  177SAPS  C31420262   6.657   0.800   3.768 -0.1829  0.4187  0.4057
  177SAPS  H14X20263   6.725   0.720   3.733 -1.5643  0.8488 -3.7075
  177SAPS  H14Y20264   6.553   0.763   3.758 -0.1166  0.0211  1.0934
  177SAPS  C31520265   6.664   0.838   3.917 -0.2097  0.5231 -0.6366
  177SAPS  H15X20266   6.567   0.864   3.964  0.3845  1.7553 -0.0525
  177SAPS  H15Y20267   6.733   0.925   3.917  2.1208 -1.0965 -3.5737
  177SAPS  C31620268   6.729   0.728   4.019  0.4795 -0.2614 -0.5728
  177SAPS  H16X20269   6.839   0.722   4.012  0.5063  0.4115 -0.7892
  177SAPS  H16Y20270   6.685   0.630   3.990  1.1782 -0.5903 -0.5338
  177SAPS  C31720271   6.703   0.758   4.169 -0.8111 -0.5510  0.0561
  177SAPS  H17X20272   6.745   0.667   4.216 -1.7376  0.1912  2.4580
  177SAPS  H17Y20273   6.594   0.767   4.186 -0.4416  2.2177  1.6624
  177SAPS  C31820274   6.768   0.894   4.217  1.1381  0.0282 -0.0952
  177SAPS  H18X20275   6.719   0.987   4.183  0.6605  0.3639  1.4163
  177SAPS  H18Y20276   6.877   0.907   4.197  0.9793  0.4057 -0.7488
  177SAPS  H18Z20277   6.756   0.892   4.327 -3.5379  1.2816 -0.3958
  178SAPS     N20278   5.603   2.187   2.092  0.1345  0.4227 -0.6194
  178SAPS   HN120279   5.565   2.160   1.999 -0.5134 -0.1177 -0.2076
  178SAPS   HN220280   5.606   2.097   2.145 -1.6036  0.1673 -0.9024
  178SAPS   HN320281   5.554   2.255   2.152  0.4506  0.8300 -0.8201
  178SAPS   C1220282   5.734   2.244   2.075 -0.8027  0.0588 -0.8241
  178SAPS  H12A20283   5.805   2.174   2.117 -0.9852  0.7791  0.7738
  178SAPS   C1320284   5.770   2.284   1.931  0.4287  0.0213 -0.4122
  178SAPS  O13A20285   5.680   2.255   1.839 -0.2493 -0.4951  0.6271
  178SAPS  O13B20286   5.887   2.317   1.904 -0.3571  0.2577  0.1503
  178SAPS   C1120287   5.741   2.372   2.164 -0.3632 -0.2862  0.2503
  178SAPS  H11A20288   5.672   2.440   2.111 -1.1544 -0.6432  0.8098
  178SAPS  H11B20289   5.841   2.421   2.168  0.9606 -2.8138  0.9669
  178SAPS     P20290   5.786   2.296   2.414 -0.0099  0.1741 -0.1961
  178SAPS   O1320291   5.881   2.197   2.356 -0.0503 -0.1609 -0.1664
  178SAPS   O1420292   5.846   2.407   2.488 -0.1759 -0.7296  0.0310
  178SAPS   O1220293   5.697   2.356   2.304 -0.2292 -0.0261  0.3268
  178SAPS   O1120294   5.689   2.214   2.509  0.1026 -0.7467 -0.0016
  178SAPS    C120295   5.584   2.288   2.579  0.3211 -0.1449  0.6447
  178SAPS    HA20296   5.633   2.359   2.647 -0.6331  1.0083  0.1637
  178SAPS    HB20297   5.536   2.346   2.497  1.3690 -2.7362 -2.0186
  178SAPS    C220298   5.502   2.188   2.656 -0.3465 -0.3564 -0.2647
  178SAPS    HS20299   5.468   2.117   2.577  2.1113 -0.3505 -1.4258
  178SAPS   O2120300   5.398   2.267   2.722 -0.3964 -0.9929 -0.0019
  178SAPS   C2120301   5.301   2.196   2.768 -0.1349  0.2563  0.4633
  178SAPS   O2220302   5.270   2.087   2.723 -0.7412 -0.6217  0.5111
  178SAPS   C2220303   5.251   2.266   2.893  0.3740  0.3763 -0.1577
  178SAPS   H2R20304   5.220   2.371   2.876  1.0600  0.3900 -1.4214
  178SAPS   H2S20305   5.172   2.198   2.932  0.9922 -1.0424 -1.2826
  178SAPS    C320306   5.600   2.114   2.766  0.8899  0.2478 -0.3380
  178SAPS    HX20307   5.642   2.201   2.821  2.4292  0.4729 -1.8010
  178SAPS    HY20308   5.678   2.056   2.712  0.4265 -0.9024  0.1891
  178SAPS   O3120309   5.526   2.023   2.850  0.4153  0.2786  0.1840
  178SAPS   C3120310   5.596   1.962   2.945 -0.7882  0.2938  0.2562
  178SAPS   O3220311   5.715   1.987   2.971  0.0820 -0.2983 -0.0303
  178SAPS   C3220312   5.496   1.879   3.030  0.5238  0.1191 -0.6360
  178SAPS   H2X20313   5.432   1.818   2.962 -0.3891 -1.5009  1.5604
  178SAPS   H2Y20314   5.434   1.949   3.090 -2.0383 -0.9292 -1.8914
  178SAPS   C2320315   5.354   2.271   3.011  0.5449 -0.3374  0.5188
  178SAPS   H3R20316   5.420   2.359   2.996  0.3393 -0.2211  0.2793
  178SAPS   H3S20317   5.425   2.186   3.015  0.2669 -0.5590  0.8542
  178SAPS   C2420318   5.285   2.298   3.144  0.1968  0.5347  0.6411
  178SAPS   H4R20319   5.248   2.402   3.133 -1.9998 -0.3190 -0.6731
  178SAPS   H4S20320   5.366   2.293   3.221  2.1572  0.4387 -1.3411
  178SAPS   C2520321   5.163   2.215   3.183  0.1528  0.4511 -0.5280
  178SAPS   H5R20322   5.088   2.194   3.105  0.7639 -0.3118 -0.9271
  178SAPS   C2620323   5.142   2.142   3.296  0.4130 -1.4618 -0.0464
  178SAPS   H6R20324   5.053   2.080   3.304  0.8444 -2.0725  0.0788
  178SAPS   C2720325   5.234   2.147   3.416  0.2724  0.0222 -0.4548
  178SAPS   H7R20326   5.174   2.178   3.504  1.9824 -0.0307  0.7594
  178SAPS   H7S20327   5.300   2.236   3.418  0.3513 -0.0042 -1.3997
  178SAPS   C2820328   5.313   2.025   3.459 -0.2631  1.1506 -0.5094
  178SAPS   H8R20329   5.270   1.934   3.416 -0.2746  0.8733  0.0901
  178SAPS   C2920330   5.415   2.020   3.546  0.6320  0.1488 -0.3455
  178SAPS   H9R20331   5.458   1.920   3.563  0.2778  0.2906  1.6471
  178SAPS  C21020332   5.480   2.134   3.613  0.4646 -0.3861  0.2196
  178SAPS  H10R20333   5.432   2.232   3.590  2.0964  0.7019  1.2432
  178SAPS  H10S20334   5.582   2.150   3.572 -0.2185  0.8641 -1.1270
  178SAPS  C21120335   5.476   2.108   3.756 -0.7002 -0.3595 -0.7369
  178SAPS  H11R20336   5.552   2.034   3.784  2.1440  2.2978 -0.8929
  178SAPS  C21220337   5.396   2.160   3.850 -0.2656 -0.0322  0.1598
  178SAPS  H12R20338   5.409   2.120   3.952  2.0807  0.7796  0.2646
  178SAPS  C21320339   5.280   2.255   3.838 -0.7455  0.1278 -0.6694
  178SAPS  H13R20340   5.287   2.306   3.740  2.8552  1.5418  0.1498
  178SAPS  H13S20341   5.304   2.322   3.924 -0.8064  2.5170 -2.4085
  178SAPS  C21420342   5.141   2.186   3.833 -0.3679 -0.2042 -0.4201
  178SAPS  H14R20343   5.113   2.134   3.740 -1.7551 -0.4373  0.0983
  178SAPS  C21520344   5.043   2.192   3.929  0.9454  0.2476  0.5871
  178SAPS  H15R20345   4.950   2.135   3.914  0.4416  1.3288 -0.5964
  178SAPS  C21620346   5.060   2.253   4.069 -0.1345 -0.3118  0.2795
  178SAPS  H16R20347   5.000   2.347   4.062 -0.4241 -0.6050 -1.7157
  178SAPS  H16S20348   5.165   2.274   4.098  0.1570  0.8513 -1.4519
  178SAPS  C21720349   4.982   2.181   4.190  0.5539 -0.0491 -0.6225
  178SAPS  H17R20350   5.045   2.095   4.222  2.2955  1.7728  1.0607
  178SAPS  H17S20351   4.888   2.145   4.143  2.0098 -1.5537 -2.6174
  178SAPS  C21820352   4.963   2.283   4.307 -0.1927  0.3552 -1.5108
  178SAPS  H18R20353   4.940   2.384   4.267 -3.3141  0.2560 -0.3028
  178SAPS  H18S20354   5.061   2.285   4.359  0.5837 -1.8320 -2.7741
  178SAPS  C21920355   4.855   2.246   4.416 -0.4202  0.1881  0.1483
  178SAPS  H19R20356   4.848   2.326   4.493 -1.5931 -0.6005  0.9128
  178SAPS  H19S20357   4.875   2.151   4.469  0.8675  0.1506 -0.3759
  178SAPS  C22020358   4.710   2.242   4.361  0.4841  0.2909 -0.4503
  178SAPS  H20R20359   4.659   2.333   4.323  0.1115  0.5381  0.6273
  178SAPS  H20S20360   4.651   2.220   4.451  2.1647 -0.7511  0.4565
  178SAPS  H20T20361   4.698   2.148   4.302  1.4389  0.1734 -0.4901
  178SAPS   C3320362   5.569   1.774   3.126  1.1154 -0.6539 -0.4699
  178SAPS   H3X20363   5.659   1.825   3.165  1.1197  0.3871 -1.7806
  178SAPS   H3Y20364   5.612   1.683   3.078  0.9527 -0.3877 -1.1234
  178SAPS   C3420365   5.476   1.726   3.242  0.1124 -0.1163  0.0661
  178SAPS   H4X20366   5.408   1.644   3.209 -0.8465  1.1455 -1.2274
  178SAPS   H4Y20367   5.406   1.808   3.266  1.0182  0.4707  0.7525
  178SAPS   C3520368   5.559   1.703   3.365 -0.0422 -0.5516  0.4030
  178SAPS   H5X20369   5.590   1.802   3.404 -1.8305  0.0774  0.2972
  178SAPS   H5Y20370   5.645   1.648   3.320  0.8657  2.7211 -2.2824
  178SAPS   C3620371   5.497   1.627   3.482  0.8429  0.0223 -0.3160
  178SAPS   H6X20372   5.485   1.522   3.448 -1.4023  0.5342 -1.3356
  178SAPS   H6Y20373   5.397   1.674   3.497  0.4855 -0.4411 -1.1758
  178SAPS   C3720374   5.580   1.632   3.612  0.0092  0.5060  0.7726
  178SAPS   H7X20375   5.586   1.737   3.649 -4.5764  0.4414  2.4730
  178SAPS   H7Y20376   5.676   1.584   3.584 -0.2175  1.1338 -1.2291
  178SAPS   C3820377   5.499   1.554   3.725 -0.1273 -0.2724 -0.3281
  178SAPS   H8X20378   5.486   1.451   3.684  1.3630  0.0203 -1.6520
  178SAPS   H8Y20379   5.400   1.601   3.741  1.0922  2.4809 -0.2244
  178SAPS   C3920380   5.565   1.554   3.864  0.0853 -0.4600  0.3418
  178SAPS   H9X20381   5.672   1.531   3.848  0.3809  0.7557  0.5265
  178SAPS   H9Y20382   5.522   1.468   3.920 -0.3225 -0.6311 -0.2176
  178SAPS  C31020383   5.556   1.685   3.941 -0.3022 -0.3592  0.0558
  178SAPS  H10X20384   5.452   1.725   3.941 -0.8693 -1.8006  0.1285
  178SAPS  H10Y20385   5.615   1.749   3.871  0.8027  1.1284  2.2239
  178SAPS  C31120386   5.628   1.684   4.082 -0.2108 -0.8999 -0.4128
  178SAPS  H11X20387   5.577   1.611   4.149 -2.0532  1.5241  1.0421
  178SAPS  H11Y20388   5.624   1.784   4.130 -0.3536 -1.2043  0.2245
  178SAPS  C31220389   5.776   1.655   4.077  0.5308 -0.0136  0.4357
  178SAPS  H12X20390   5.819   1.737   4.015 -1.9719 -0.2012 -1.7349
  178SAPS  H12Y20391   5.786   1.561   4.018  0.2050  1.2668 -1.7974
  178SAPS  C31320392   5.845   1.634   4.210 -0.2281 -0.5605  0.2932
  178SAPS  H13X20393   5.816   1.531   4.242 -1.4482 -0.0008  1.0880
  178SAPS  H13Y20394   5.820   1.722   4.273  1.4177  1.0831 -1.2344
  178SAPS  C31420395   5.996   1.651   4.197 -0.4274  0.5935  0.0180
  178SAPS  H14X20396   6.058   1.643   4.288  3.4012 -1.0836 -2.4699
  178SAPS  H14Y20397   6.009   1.751   4.149 -1.6409  2.1770  2.7507
  178SAPS  C31520398   6.062   1.541   4.107  0.2267 -0.4145 -0.1622
  178SAPS  H15X20399   5.986   1.482   4.052 -1.6109  0.7235  1.0060
  178SAPS  H15Y20400   6.133   1.477   4.163  1.0633  0.3264 -0.3466
  178SAPS  C31620401   6.151   1.599   3.998  0.5516  0.4077 -0.1018
  178SAPS  H16X20402   6.235   1.661   4.034  0.6468  1.6682 -2.3450
  178SAPS  H16Y20403   6.091   1.671   3.938  1.4399 -0.1385 -1.6921
  178SAPS  C31720404   6.202   1.498   3.897 -0.2573  0.2213 -0.9060
  178SAPS  H17X20405   6.128   1.417   3.881 -0.6898 -0.0567  1.9978
  178SAPS  H17Y20406   6.305   1.471   3.929 -0.5943 -0.5912 -0.4891
  178SAPS  C31820407   6.235   1.570   3.767 -0.3738  0.1309  0.3111
  178SAPS  H18X20408   6.268   1.673   3.792  0.1387  0.1219 -0.2838
  178SAPS  H18Y20409   6.141   1.576   3.708 -1.4230 -0.4132  1.8753
  178SAPS  H18Z20410   6.317   1.516   3.713  1.5636 -1.2364  4.2226
  179SAPS     N20411   0.798   6.170   1.754  0.0846 -0.3242  1.1946
  179SAPS   HN120412   0.726   6.135   1.687  0.6890  0.8299 -0.1049
  179SAPS   HN220413   0.756   6.224   1.831 -0.7829 -2.2178  2.1163
  179SAPS   HN320414   0.875   6.229   1.716 -1.3270  0.9586  0.1839
  179SAPS   C1220415   0.849   6.056   1.818 -0.4168 -0.5971 -0.2883
  179SAPS  H12A20416   0.760   6.005   1.852  0.7521 -2.5891 -0.0793
  179SAPS   C1320417   0.908   5.951   1.723  0.1460 -0.0150 -0.2717
  179SAPS  O13A20418   0.908   5.967   1.599 -0.1864 -0.4504 -0.4698
  179SAPS  O13B20419   0.934   5.839   1.771 -0.8773 -0.5950  0.2813
  179SAPS   C1120420   0.945   6.084   1.936  0.3813 -1.0444 -0.7419
  179SAPS  H11A20421   1.019   6.152   1.888  0.5096 -0.2047  0.5934
  179SAPS  H11B20422   1.005   5.999   1.975  1.2323  0.2725  0.9357
  179SAPS     P20423   0.781   6.097   2.147  0.0500  0.0252 -0.0831
  179SAPS   O1320424   0.665   6.192   2.155  0.2338  0.6030 -0.3408
  179SAPS   O1420425   0.761   5.955   2.111 -0.3766 -0.4047  0.0017
  179SAPS   O1220426   0.877   6.161   2.040 -0.3083  0.5009 -0.2602
  179SAPS   O1120427   0.854   6.099   2.283 -0.3318 -0.4842 -0.0007
  179SAPS    C120428   0.828   6.190   2.388 -0.3804  0.0872 -0.1807
  179SAPS    HA20429   0.927   6.201   2.438 -0.2033  1.1180 -0.7303
  179SAPS    HB20430   0.792   6.293   2.363  1.0008  1.2238  2.1460
  179SAPS    C220431   0.739   6.130   2.495 -0.2854 -0.0874  0.1746
  179SAPS    HS20432   0.641   6.112   2.446 -0.1222 -1.4976  0.3228
  179SAPS   O2120433   0.734   6.221   2.605 -0.3271  0.2114 -0.2130
  179SAPS   C2120434   0.647   6.323   2.598  0.2703 -0.3431 -0.4196
  179SAPS   O2220435   0.573   6.344   2.502  0.3128 -0.3395 -0.4826
  179SAPS   C2220436   0.650   6.391   2.738  0.1295  0.0597 -0.4339
  179SAPS   H2R20437   0.754   6.422   2.758  0.2204  0.2575 -1.1993
  179SAPS   H2S20438   0.585   6.481   2.730 -0.0394 -0.1752 -1.8494
  179SAPS    C320439   0.777   5.994   2.551  0.2444  0.4512  0.5974
  179SAPS    HX20440   0.874   6.015   2.601 -0.8890 -0.9090  3.6150
  179SAPS    HY20441   0.794   5.919   2.470 -0.8893 -0.2910  1.0227
  179SAPS   O3120442   0.687   5.943   2.653 -0.4653 -0.1457 -0.6240
  179SAPS   C3120443   0.580   5.882   2.614 -0.2459 -0.0032  0.3203
  179SAPS   O3220444   0.540   5.877   2.498 -0.8328  0.3031  0.2434
  179SAPS   C3220445   0.517   5.831   2.748  0.0472  1.1681 -0.0302
  179SAPS   H2X20446   0.528   5.720   2.748  1.2111  1.2594 -1.3826
  179SAPS   H2Y20447   0.408   5.852   2.753 -0.6655 -1.3528 -2.2999
  179SAPS   C2320448   0.600   6.303   2.849  0.4091  0.4697 -0.4901
  179SAPS   H3R20449   0.658   6.208   2.855  1.0246  0.7811 -1.3310
  179SAPS   H3S20450   0.494   6.271   2.832 -0.4856  1.6727  2.2207
  179SAPS   C2420451   0.614   6.366   2.992 -0.1796 -0.0247  0.6782
  179SAPS   H4R20452   0.720   6.397   2.991 -0.1958  0.1203 -1.3801
  179SAPS   H4S20453   0.614   6.282   3.064 -0.9303 -0.9410 -0.3449
  179SAPS   C2520454   0.530   6.483   3.032  0.4406 -0.2882  0.1752
  179SAPS   H5R20455   0.520   6.561   2.955  0.8689  2.2773  2.5749
  179SAPS   C2620456   0.457   6.504   3.145 -0.1490  0.4605  0.1631
  179SAPS   H6R20457   0.414   6.605   3.157  0.3735  0.8312 -0.9646
  179SAPS   C2720458   0.470   6.415   3.269  0.5909  0.0652 -0.5603
  179SAPS   H7R20459   0.576   6.389   3.289  0.1957 -0.3179  1.2676
  179SAPS   H7S20460   0.420   6.317   3.254 -1.1827  0.6608  1.0125
  179SAPS   C2820461   0.418   6.471   3.400 -0.3009 -0.2211 -0.7485
  179SAPS   H8R20462   0.382   6.575   3.396  1.0591  0.2499 -1.8164
  179SAPS   C2920463   0.445   6.432   3.525 -0.3266  0.0280  0.0031
  179SAPS   H9R20464   0.396   6.486   3.608  1.0013 -0.8993  1.4579
  179SAPS  C21020465   0.531   6.313   3.572  0.7352  0.2284  0.3879
  179SAPS  H10R20466   0.511   6.223   3.510 -0.9482 -0.7672  2.2671
  179SAPS  H10S20467   0.491   6.290   3.673  1.9494  2.0286  1.3392
  179SAPS  C21120468   0.678   6.339   3.589 -0.5457 -0.1595  0.5569
  179SAPS  H11R20469   0.721   6.404   3.512 -1.2260 -1.4990 -1.0276
  179SAPS  C21220470   0.757   6.303   3.694  0.1061 -0.3165  0.2525
  179SAPS  H12R20471   0.864   6.329   3.688 -0.1972  0.6525 -1.4634
  179SAPS  C21320472   0.709   6.224   3.814  0.1526  0.2809  0.1685
  179SAPS  H13R20473   0.779   6.139   3.828 -1.4331 -1.0908 -0.0191
  179SAPS  H13S20474   0.614   6.170   3.794 -0.2590  1.6297 -1.9039
  179SAPS  C21420475   0.689   6.305   3.938  1.3769  0.0467  0.3848
  179SAPS  H14R20476   0.608   6.379   3.943  0.4449 -0.9999  1.0988
  179SAPS  C21520477   0.759   6.296   4.052  0.1101 -0.2625 -0.0429
  179SAPS  H15R20478   0.746   6.369   4.133  2.4065  0.5953 -0.3733
  179SAPS  C21620479   0.868   6.201   4.073 -0.1320  0.2917  0.2167
  179SAPS  H16R20480   0.934   6.238   4.155  0.9092 -0.6534 -0.1698
  179SAPS  H16S20481   0.933   6.203   3.983  3.0054  2.7223  2.2824
  179SAPS  C21720482   0.815   6.060   4.119 -0.1473  0.1107 -0.5424
  179SAPS  H17R20483   0.751   6.020   4.037  0.1916  0.7942 -1.1573
  179SAPS  H17S20484   0.756   6.076   4.211 -3.2329 -0.2236 -2.3163
  179SAPS  C21820485   0.930   5.956   4.146 -0.0976  0.5514 -0.3224
  179SAPS  H18R20486   1.003   6.009   4.211 -0.3420  0.3954  0.0827
  179SAPS  H18S20487   0.982   5.934   4.050 -0.9411  0.8895 -0.8658
  179SAPS  C21920488   0.874   5.829   4.203  0.1386 -0.0118 -0.4711
  179SAPS  H19R20489   0.795   5.792   4.135  0.8813 -0.7466 -0.9512
  179SAPS  H19S20490   0.816   5.858   4.293  3.5155  2.3203  1.1591
  179SAPS  C22020491   0.979   5.732   4.254 -0.4694 -0.7228 -0.2733
  179SAPS  H20R20492   1.059   5.782   4.312 -2.2918  2.6867 -0.4324
  179SAPS  H20S20493   1.020   5.670   4.171  0.3959 -2.8145  1.6034
  179SAPS  H20T20494   0.934   5.655   4.321  2.2852 -1.3264  1.0111
  179SAPS   C3320495   0.569   5.884   2.885 -0.1505 -0.4463 -1.0494
  179SAPS   H3X20496   0.521   5.982   2.902  2.5961  0.8494 -0.2520
  179SAPS   H3Y20497   0.676   5.911   2.893 -0.1917 -0.3850 -0.7134
  179SAPS   C3420498   0.530   5.796   2.993  0.1566  0.6267  0.7858
  179SAPS   H4X20499   0.589   5.703   2.982 -2.0088 -1.0462  2.3879
  179SAPS   H4Y20500   0.423   5.767   2.981  0.7677 -1.5367  0.1089
  179SAPS   C3520501   0.548   5.854   3.127 -0.0586 -0.2471 -0.2201
  179SAPS   H5X20502   0.477   5.939   3.137  2.1022  1.6836 -0.5097
  179SAPS   H5Y20503   0.652   5.886   3.148 -0.6757  1.7480  0.0476
  179SAPS   C3620504   0.501   5.763   3.240  0.4441  0.6566 -0.2776
  179SAPS   H6X20505   0.521   5.660   3.202  0.3263  0.4768  0.1447
  179SAPS   H6Y20506   0.393   5.781   3.257  0.4492  0.0397  0.4983
  179SAPS   C3720507   0.567   5.784   3.374  0.4239 -0.2249  0.3287
  179SAPS   H7X20508   0.530   5.873   3.428 -0.8047 -0.2215 -0.4879
  179SAPS   H7Y20509   0.676   5.796   3.357  0.6473  0.2105  1.9249
  179SAPS   C3820510   0.539   5.664   3.471 -0.1614 -0.4447 -0.8002
  179SAPS   H8X20511   0.583   5.573   3.424 -1.3092 -0.9092 -1.0220
  179SAPS   H8Y20512   0.428   5.660   3.470 -0.2339 -2.1845  1.7237
  179SAPS   C3920513   0.585   5.692   3.615  0.3341 -0.1911 -0.5112
  179SAPS   H9X20514   0.548   5.793   3.643 -0.0251 -0.6404  0.6826
  179SAPS   H9Y20515   0.695   5.712   3.620  0.1494  1.5012  5.8020
  179SAPS  C31020516   0.542   5.579   3.710 -0.1864  0.4173  0.1102
  179SAPS  H10X20517   0.565   5.482   3.662  3.3249  0.8949  0.5572
  179SAPS  H10Y20518   0.432   5.584   3.725 -0.0326  0.6721  1.2429
  179SAPS  C31120519   0.614   5.593   3.845  0.1985 -0.3288  0.9948
  179SAPS  H11X20520   0.581   5.690   3.888 -2.7806 -0.6759 -0.2518
  179SAPS  H11Y20521   0.723   5.603   3.830 -0.0494  1.2344 -0.0664
  179SAPS  C31220522   0.579   5.474   3.946 -0.4321 -0.4787  0.9784
  179SAPS  H12X20523   0.607   5.377   3.900  0.8477 -0.2840  1.3007
  179SAPS  H12Y20524   0.472   5.472   3.974  0.0283 -0.2074  2.9359
  179SAPS  C31320525   0.649   5.492   4.076  0.7057 -0.7008 -0.0846
  179SAPS  H13X20526   0.603   5.575   4.134  2.6167  0.2085  0.2374
  179SAPS  H13Y20527   0.758   5.516   4.071  0.4771  0.1652 -1.6413
  179SAPS  C31420528   0.642   5.365   4.167  1.3505  0.1975  0.2806
  179SAPS  H14X20529   0.705   5.286   4.120 -0.9397 -0.7742 -1.3683
  179SAPS  H14Y20530   0.538   5.326   4.159  2.2151 -1.9995 -1.1732
  179SAPS  C31520531   0.688   5.379   4.307 -0.4177 -0.6505 -0.1296
  179SAPS  H15X20532   0.612   5.434   4.366  0.8411 -0.0179  0.9364
  179SAPS  H15Y20533   0.782   5.438   4.306 -1.2768  0.8292  1.7716
  179SAPS  C31620534   0.730   5.250   4.384 -0.1693 -0.4545  0.2795
  179SAPS  H16X20535   0.787   5.191   4.309 -3.4134 -1.7422 -1.3372
  179SAPS  H16Y20536   0.650   5.187   4.427  1.9422 -4.7421 -1.5299
  179SAPS  C31720537   0.829   5.282   4.503 -0.1401 -0.4520 -0.0510
  179SAPS  H17X20538   0.805   5.384   4.541  0.1601 -0.2280 -0.4503
  179SAPS  H17Y20539   0.935   5.284   4.468  0.3097 -0.4084  1.2581
  179SAPS  C31820540   0.819   5.178   4.614 -0.7937 -0.0667 -0.5783
  179SAPS  H18X20541   0.877   5.215   4.701  0.1900 -1.7719 -0.4629
  179SAPS  H18Y20542   0.857   5.082   4.573 -0.5775 -0.6498  0.9293
  179SAPS  H18Z20543   0.719   5.166   4.660 -0.1738  0.5135  0.9869
  180SAPS     N20544   0.616   5.772   2.240  0.2217  0.2867 -0.2401
  180SAPS   HN120545   0.521   5.776   2.198 -0.4457 -2.2930  0.7984
  180SAPS   HN220546   0.606   5.804   2.339 -3.2336 -0.9953 -0.0387
  180SAPS   HN320547   0.689   5.834   2.200  2.2530 -0.8787  1.4402
  180SAPS   C1220548   0.646   5.621   2.252  0.0160  0.8168 -0.1262
  180SAPS  H12A20549   0.645   5.575   2.154  0.3984 -1.4799  0.8794
  180SAPS   C1320550   0.790   5.591   2.303  0.2498  0.0778  0.1721
  180SAPS  O13A20551   0.855   5.689   2.344  0.4062 -0.0251 -0.7294
  180SAPS  O13B20552   0.834   5.474   2.299  0.4841 -0.0538 -0.0024
  180SAPS   C1120553   0.553   5.566   2.353 -0.6172 -0.1405 -0.1576
  180SAPS  H11A20554   0.572   5.609   2.454 -0.3063 -0.3163 -0.1393
  180SAPS  H11B20555   0.565   5.456   2.366 -2.6000 -0.2169  1.5539
  180SAPS     P20556   0.322   5.506   2.243 -0.1348 -0.0473 -0.3038
  180SAPS   O1320557   0.241   5.591   2.154 -0.3043 -0.0080  0.1891
  180SAPS   O1420558   0.395   5.392   2.182  0.5563 -0.2903  0.8141
  180SAPS   O1220559   0.416   5.598   2.330 -0.0433 -0.0227 -0.0048
  180SAPS   O1120560   0.224   5.451   2.355 -0.1889  0.5104  0.5280
  180SAPS    C120561   0.191   5.532   2.464  0.6297  0.5778 -0.5043
  180SAPS    HA20562   0.163   5.636   2.438  0.8454  1.3042  1.9230
  180SAPS    HB20563   0.098   5.493   2.510  2.0088  0.0116  2.0156
  180SAPS    C220564   0.281   5.533   2.589  0.0374  0.1607 -0.4530
  180SAPS    HS20565   0.363   5.606   2.575  0.3074 -0.1460 -0.4710
  180SAPS   O2120566   0.326   5.396   2.615  0.4413  0.6907  0.5580
  180SAPS   C2120567   0.449   5.391   2.664 -0.2761  0.4357 -0.3340
  180SAPS   O2220568   0.524   5.485   2.671 -0.1410  0.4303  0.7250
  180SAPS   C2220569   0.490   5.246   2.719  0.2147 -0.0787  0.0680
  180SAPS   H2R20570   0.432   5.244   2.814  0.2717  2.3002  0.2067
  180SAPS   H2S20571   0.449   5.189   2.633  2.0045  0.0079 -0.8932
  180SAPS    C320572   0.203   5.581   2.707  0.4084  0.3889  0.1006
  180SAPS    HX20573   0.115   5.514   2.701 -0.5440  1.4818  1.2067
  180SAPS    HY20574   0.172   5.685   2.682 -4.7245 -0.9446 -0.0174
  180SAPS   O3120575   0.273   5.573   2.833  0.1256 -0.0158  0.0010
  180SAPS   C3120576   0.259   5.460   2.908 -0.1615 -0.7258  0.2117
  180SAPS   O3220577   0.191   5.366   2.874 -0.3601  0.4886 -0.3379
  180SAPS   C3220578   0.318   5.493   3.050  0.0081  0.0441  0.1163
  180SAPS   H2X20579   0.304   5.599   3.078  2.7178  0.1913  1.2282
  180SAPS   H2Y20580   0.427   5.478   3.034  0.4976  0.7606  2.4148
  180SAPS   C2320581   0.646   5.225   2.736 -0.7451  0.0254 -0.5258
  180SAPS   H3R20582   0.699   5.317   2.703 -0.6565  0.2001  0.0838
  180SAPS   H3S20583   0.667   5.149   2.659  0.1824  0.6332 -0.8901
  180SAPS   C2420584   0.687   5.180   2.873  0.1889 -0.0118 -0.6897
  180SAPS   H4R20585   0.638   5.248   2.946  0.3602 -0.5682 -0.0441
  180SAPS   H4S20586   0.798   5.186   2.874  0.2410 -0.0639 -2.9312
  180SAPS   C2520587   0.637   5.042   2.908  1.0158 -0.1610 -0.2834
  180SAPS   H5R20588   0.680   4.964   2.844 -0.3098 -0.6652 -0.5763
  180SAPS   C2620589   0.568   5.011   3.021 -0.0957 -0.1581  0.4481
  180SAPS   H6R20590   0.536   4.907   3.033 -3.5306  0.7057 -0.0630
  180SAPS   C2720591   0.536   5.104   3.137  0.4530  0.2286 -0.5221
  180SAPS   H7R20592   0.440   5.064   3.177 -0.1451  2.4413  0.4136
  180SAPS   H7S20593   0.509   5.206   3.101 -0.2085  1.3394  2.7526
  180SAPS   C2820594   0.636   5.124   3.244  0.2537 -0.5468  0.6094
  180SAPS   H8R20595   0.701   5.213   3.239  1.1995 -1.2530 -0.0884
  180SAPS   C2920596   0.666   5.033   3.336  0.3913 -0.1527 -0.3469
  180SAPS   H9R20597   0.748   5.059   3.404 -0.9967 -0.7482  1.6594
  180SAPS  C21020598   0.587   4.905   3.364  0.3065  0.1275  0.2309
  180SAPS  H10R20599   0.559   4.860   3.266 -1.5432  1.4449  0.1076
  180SAPS  H10S20600   0.491   4.929   3.414 -0.8996 -1.2356 -1.3117
  180SAPS  C21120601   0.669   4.804   3.434  0.2008 -0.2073  0.1567
  180SAPS  H11R20602   0.718   4.731   3.367 -0.2672 -2.1499  1.8429
  180SAPS  C21220603   0.711   4.807   3.562 -0.1412 -0.0257  0.5111
  180SAPS  H12R20604   0.777   4.725   3.594 -0.1351  0.3220  1.4475
  180SAPS  C21320605   0.674   4.896   3.680 -0.1195  0.2698  0.5403
  180SAPS  H13R20606   0.652   4.817   3.755  2.8079 -2.4357 -1.2138
  180SAPS  H13S20607   0.584   4.959   3.668  0.4849  1.2708  1.1455
  180SAPS  C21420608   0.786   4.992   3.717 -0.4929  0.4468  0.1705
  180SAPS  H14R20609   0.839   5.032   3.630 -1.0545 -0.0650 -0.4254
  180SAPS  C21520610   0.802   5.036   3.834  0.5291 -0.4619 -0.3132
  180SAPS  H15R20611   0.875   5.118   3.846  0.8701 -0.3497 -2.7352
  180SAPS  C21620612   0.743   4.995   3.960  0.4379  0.6975  0.1017
  180SAPS  H16R20613   0.676   4.907   3.947 -0.4749  1.2661  0.7992
  180SAPS  H16S20614   0.685   5.081   3.999  0.8641  0.9747  0.1337
  180SAPS  C21720615   0.835   4.966   4.087  0.5178  0.3261 -0.4055
  180SAPS  H17R20616   0.783   4.908   4.165  0.1038  1.8125  0.4577
  180SAPS  H17S20617   0.862   5.063   4.135 -2.5992  1.7399 -1.2015
  180SAPS  C21820618   0.968   4.891   4.060  0.3759  0.6876  0.1700
  180SAPS  H18R20619   1.033   4.952   3.993 -0.4834  2.7558  1.1326
  180SAPS  H18S20620   0.949   4.795   4.007  5.0806 -0.3151 -0.1001
  180SAPS  C21920621   1.056   4.866   4.187  0.2915 -0.3650  0.2731
  180SAPS  H19R20622   1.080   4.966   4.229  1.7831  1.6304 -4.6520
  180SAPS  H19S20623   1.156   4.826   4.158  0.7335  1.6075 -1.0966
  180SAPS  C22020624   0.999   4.764   4.288  1.6768 -0.2929  0.1903
  180SAPS  H20R20625   0.960   4.670   4.243 -2.3640  1.1190  0.3611
  180SAPS  H20S20626   1.059   4.737   4.378 -0.8397 -0.0197  2.0847
  180SAPS  H20T20627   0.906   4.815   4.322  1.4115  0.5520 -1.6791
  180SAPS   C3320628   0.269   5.396   3.164  0.8204 -0.2676 -0.4588
  180SAPS   H3X20629   0.301   5.294   3.136  0.0272  0.0231 -2.6671
  180SAPS   H3Y20630   0.158   5.402   3.175  0.8914 -0.9108  0.7858
  180SAPS   C3420631   0.334   5.434   3.300  0.7475 -0.1688  0.0622
  180SAPS   H4X20632   0.321   5.538   3.336  3.0207  0.7544 -1.5175
  180SAPS   H4Y20633   0.444   5.423   3.288  0.8810  1.0046  0.1427
  180SAPS   C3520634   0.282   5.331   3.410 -0.1809  0.1584  0.7400
  180SAPS   H5X20635   0.298   5.230   3.366  1.6457  0.6908  0.0796
  180SAPS   H5Y20636   0.175   5.342   3.437  0.5567  1.2662  3.5711
  180SAPS   C3620637   0.363   5.341   3.541  0.5722 -0.2840  0.1788
  180SAPS   H6X20638   0.335   5.438   3.589 -0.2588 -0.5292  0.1902
  180SAPS   H6Y20639   0.473   5.328   3.533  0.8207 -1.8439  3.8571
  180SAPS   C3720640   0.304   5.241   3.636  0.5449  0.1859  0.3292
  180SAPS   H7X20641   0.325   5.137   3.601  0.7308 -0.0499  1.1172
  180SAPS   H7Y20642   0.194   5.250   3.636  0.6387  1.7074 -0.9921
  180SAPS   C3820643   0.366   5.255   3.776 -0.1666  0.9106 -0.6422
  180SAPS   H8X20644   0.332   5.351   3.821 -1.2114 -0.5306  1.7955
  180SAPS   H8Y20645   0.477   5.254   3.774 -0.1207 -1.4804  0.3817
  180SAPS   C3920646   0.335   5.132   3.868  0.2153  0.5805 -0.0333
  180SAPS   H9X20647   0.382   5.040   3.827  0.3357  1.3718 -1.7382
  180SAPS   H9Y20648   0.224   5.125   3.873  0.1480  0.3559 -1.4312
  180SAPS  C31020649   0.392   5.139   4.013  0.5792 -0.3529 -1.0193
  180SAPS  H10X20650   0.328   5.215   4.064  0.0642 -1.6300  0.3170
  180SAPS  H10Y20651   0.497   5.174   4.006  0.4380  0.0719 -1.0432
  180SAPS  C31120652   0.385   5.008   4.090 -0.6803  0.1435 -0.0413
  180SAPS  H11X20653   0.426   4.925   4.029 -1.9047 -0.4877 -0.0243
  180SAPS  H11Y20654   0.276   4.988   4.096 -0.2106 -2.9490 -0.1595
  180SAPS  C31220655   0.431   5.005   4.236 -0.1522 -0.4895 -0.6531
  180SAPS  H12X20656   0.387   5.089   4.294 -1.8480 -0.4815 -1.8430
  180SAPS  H12Y20657   0.541   5.004   4.251 -0.1460  2.8392  0.3479
  180SAPS  C31320658   0.374   4.881   4.313 -0.4053  0.2156 -0.2616
  180SAPS  H13X20659   0.418   4.793   4.262  0.1701  0.2419  0.1630
  180SAPS  H13Y20660   0.264   4.865   4.314 -0.7211  2.1143  0.8035
  180SAPS  C31420661   0.413   4.874   4.466 -0.6178 -0.4661 -0.0354
  180SAPS  H14X20662   0.427   4.978   4.503 -4.4951 -0.3549  1.6268
  180SAPS  H14Y20663   0.514   4.828   4.465 -0.4300 -0.0502 -0.4322
  180SAPS  C31520664   0.311   4.807   4.562  0.6858 -0.7423  0.4082
  180SAPS  H15X20665   0.211   4.855   4.556 -1.4038 -4.5604  1.6956
  180SAPS  H15Y20666   0.350   4.824   4.664  2.0750 -0.7847 -0.0956
  180SAPS  C31620667   0.291   4.655   4.554  0.2703  0.6924  0.3418
  180SAPS  H16X20668   0.379   4.590   4.573 -0.9794 -1.1686 -0.0596
  180SAPS  H16Y20669   0.248   4.633   4.454 -2.0730  1.5088  1.0921
  180SAPS  C31720670   0.183   4.601   4.650  0.6553  0.5266  0.0577
  180SAPS  H17X20671   0.100   4.674   4.643  0.4086  0.0508 -3.0117
  180SAPS  H17Y20672   0.237   4.623   4.745  1.3282  1.0156 -0.4270
  180SAPS  C31820673   0.134   4.463   4.625 -0.5082 -0.4460 -0.0985
  180SAPS  H18X20674   0.120   4.462   4.515 -0.3080  0.1090 -0.1346
  180SAPS  H18Y20675   0.036   4.454   4.675 -0.4144  0.0242  0.1755
  180SAPS  H18Z20676   0.202   4.379   4.650 -0.2672 -0.9025 -2.0754
  181POPC     N20677   6.072   6.372   7.181  0.5533  0.0280  0.3754
  181POPC   C1220678   6.007   6.283   7.071 -0.2003  0.3415  0.1153
  181POPC  H12A20679   5.902   6.309   7.065  0.0787  1.2699 -0.9921
  181POPC  H12B20680   6.017   6.180   7.100 -0.2596  0.5529  0.9012
  181POPC   C1320681   5.993   6.383   7.300  0.0337 -0.7138  0.2626
  181POPC  H13A20682   5.899   6.430   7.277  0.0793 -0.6957  0.1133
  181POPC  H13B20683   5.980   6.283   7.340 -0.5163 -0.2567  1.2510
  181POPC  H13C20684   6.044   6.442   7.375 -0.4236 -0.5151  0.4170
  181POPC   C1420685   6.201   6.319   7.221 -0.6320  0.2347 -0.2767
  181POPC  H14A20686   6.256   6.295   7.132  0.1488 -0.8303  0.4667
  181POPC  H14B20687   6.269   6.379   7.279  1.1889 -1.6818 -0.2965
  181POPC  H14C20688   6.194   6.224   7.272  0.7673  0.0912 -0.3216
  181POPC   C1520689   6.096   6.511   7.129 -0.6167  0.3275 -0.8500
  181POPC  H15A20690   6.128   6.510   7.025  1.0689  0.6094 -0.3611
  181POPC  H15B20691   6.175   6.558   7.186 -1.6856  0.5494  0.5028
  181POPC  H15C20692   6.007   6.571   7.137 -2.1027 -1.7576 -0.9687
  181POPC   C1120693   6.081   6.286   6.934  0.5779 -0.3146  0.1808
  181POPC  H11A20694   6.067   6.391   6.899 -0.5917 -0.6546 -0.4236
  181POPC  H11B20695   6.023   6.215   6.871 -2.7115  0.3933  2.2022
  181POPC     P20696   6.333   6.336   6.873 -0.1060  0.3460 -0.1093
  181POPC   O1320697   6.455   6.319   6.952 -0.7036  0.3057 -0.3097
  181POPC   O1420698   6.291   6.473   6.866 -0.3567 -0.0899  0.3993
  181POPC   O1220699   6.221   6.247   6.942  0.4515 -0.3132  0.0915
  181POPC   O1120700   6.349   6.281   6.728 -0.8048  0.4951  0.1027
  181POPC    C120701   6.313   6.142   6.702  0.1941  0.0459 -0.1156
  181POPC    HA20702   6.203   6.129   6.713  0.1105 -0.0378 -1.0524
  181POPC    HB20703   6.374   6.086   6.776 -0.1218 -0.5807 -0.3213
  181POPC    C220704   6.354   6.084   6.569  0.4292  0.0791 -0.1286
  181POPC    HS20705   6.307   5.984   6.557  0.3160  0.2436 -1.1259
  181POPC   O2120706   6.496   6.068   6.566 -0.0265 -0.1632  0.0776
  181POPC   C2120707   6.543   5.962   6.627 -0.1086  0.2082  0.0805
  181POPC   O2220708   6.475   5.878   6.682  0.0563  0.5056 -0.2968
  181POPC   C2220709   6.689   5.955   6.620 -0.1101 -0.1284  0.0726
  181POPC   H2R20710   6.719   5.936   6.725  0.7934  1.1877  0.0748
  181POPC   H2S20711   6.727   6.055   6.587 -0.8965  0.5837  1.2753
  181POPC    C320712   6.298   6.150   6.447 -0.1090 -0.9468 -0.4123
  181POPC    HX20713   6.312   6.260   6.455  2.1784 -1.2710  1.2144
  181POPC    HY20714   6.188   6.132   6.447  0.0266 -2.0383  1.1424
  181POPC   O3120715   6.361   6.095   6.329  0.5666  0.3799 -0.6586
  181POPC   C3120716   6.467   6.165   6.283  0.0837 -0.2514 -0.0232
  181POPC   O3220717   6.508   6.267   6.328  0.6330 -0.1583  0.2502
  181POPC   C3220718   6.518   6.091   6.163 -0.0869 -0.7395 -0.2376
  181POPC   H2X20719   6.448   6.007   6.141 -4.4460  1.8087  2.3175
  181POPC   H2Y20720   6.623   6.067   6.189  0.0483  1.6072  1.6704
  181POPC   C2320721   6.739   5.843   6.529 -0.9333  0.3468  0.1522
  181POPC   H3R20722   6.720   5.743   6.573 -0.3387 -0.7716 -1.9921
  181POPC   H3S20723   6.848   5.858   6.519 -0.9042  1.7389  2.0475
  181POPC   C2420724   6.696   5.845   6.376 -0.4636 -0.7416  0.2263
  181POPC   H4R20725   6.722   5.948   6.343 -0.1808 -0.5214  1.0945
  181POPC   H4S20726   6.587   5.826   6.373 -0.3138 -1.6113 -3.1669
  181POPC   C2520727   6.767   5.731   6.301  0.2959 -0.3499 -0.3620
  181POPC   H5R20728   6.723   5.634   6.333  0.2254 -0.5276 -0.9819
  181POPC   H5S20729   6.876   5.731   6.323  0.1133  1.8253  0.8004
  181POPC   C2620730   6.749   5.749   6.144 -0.3851 -0.3019 -0.1090
  181POPC   H6R20731   6.846   5.726   6.094 -0.9394  1.6164 -2.2777
  181POPC   H6S20732   6.734   5.859   6.135 -1.0478 -0.4396 -0.7246
  181POPC   C2720733   6.628   5.659   6.096 -0.3501 -0.5636  0.5769
  181POPC   H7R20734   6.541   5.689   6.159 -0.8638 -0.5969 -0.1068
  181POPC   H7S20735   6.642   5.552   6.122  0.2993 -0.3301  1.2420
  181POPC   C2820736   6.585   5.671   5.949 -0.9006  0.0426 -0.0180
  181POPC   H8R20737   6.677   5.641   5.894  0.1167  1.1117  1.0427
  181POPC   H8S20738   6.570   5.779   5.926  1.4445  0.4050 -0.1411
  181POPC   C2920739   6.477   5.578   5.901  0.3627  0.1899 -0.3780
  181POPC   H9120740   6.412   5.532   5.977 -0.9477  0.3851 -1.3455
  181POPC  C21020741   6.453   5.556   5.773  0.6445 -0.9196  0.5864
  181POPC  H10120742   6.361   5.500   5.749  0.8276 -1.1738  0.4724
  181POPC  C21120743   6.532   5.594   5.651  0.1328 -0.6539  0.2623
  181POPC  H11R20744   6.599   5.507   5.632  1.7095  0.8062 -1.1851
  181POPC  H11S20745   6.591   5.686   5.671  1.7438 -1.3594 -1.0132
  181POPC  C21220746   6.438   5.621   5.538 -0.2371  0.2808  0.5384
  181POPC  H12R20747   6.380   5.714   5.558  3.3136  2.5683  1.1062
  181POPC  H12S20748   6.370   5.534   5.529 -0.7424  0.8125 -1.1570
  181POPC  C21320749   6.500   5.648   5.398  0.3150  0.2574  0.4915
  181POPC  H13R20750   6.558   5.741   5.414 -0.2709  0.5471  0.9846
  181POPC  H13S20751   6.429   5.670   5.315  0.9324  0.8445  0.1132
  181POPC  C21420752   6.583   5.521   5.355 -0.2307 -0.4395  0.7324
  181POPC  H14R20753   6.503   5.444   5.345 -0.8427  0.2970 -0.2965
  181POPC  H14S20754   6.662   5.484   5.423  0.4026  0.7041  0.6400
  181POPC  C21520755   6.647   5.529   5.215  0.3416  0.5314  0.1880
  181POPC  H15R20756   6.710   5.439   5.195  0.4245  0.5853  0.2057
  181POPC  H15S20757   6.724   5.609   5.204  3.4079 -1.9394  1.8205
  181POPC  C21620758   6.538   5.526   5.100 -0.4994  0.5380  0.1248
  181POPC  H16R20759   6.509   5.633   5.095  0.9468  1.0168  1.0958
  181POPC  H16S20760   6.446   5.474   5.135  0.9959 -0.6928  2.5473
  181POPC  C21720761   6.580   5.471   4.966  0.4380 -0.2220  0.2345
  181POPC  H17R20762   6.679   5.512   4.936  0.0987 -0.1713 -0.8350
  181POPC  H17S20763   6.502   5.519   4.904  0.4291  3.0925  2.5477
  181POPC  C21820764   6.575   5.322   4.961  0.1262 -0.3596  0.3184
  181POPC  H18R20765   6.471   5.288   4.982 -0.1922  1.4710  1.9749
  181POPC  H18S20766   6.649   5.267   5.024  0.7619  1.8898  1.6260
  181POPC  H18T20767   6.593   5.291   4.856  3.1388 -0.5017  0.7782
  181POPC   C3320768   6.529   6.200   6.050  0.0199 -0.3969 -0.3362
  181POPC   H3X20769   6.573   6.287   6.102  1.2376 -1.7688  1.0547
  181POPC   H3Y20770   6.432   6.235   6.010  0.2164  2.2462  1.2423
  181POPC   C3420771   6.620   6.156   5.937  0.8486 -0.3087  0.0914
  181POPC   H4X20772   6.711   6.117   5.989  0.5326  0.8804  1.5979
  181POPC   H4Y20773   6.650   6.238   5.869 -0.8012 -0.1211 -0.4401
  181POPC   C3520774   6.555   6.055   5.850 -0.2030 -0.3341 -0.7884
  181POPC   H5X20775   6.478   5.993   5.900  0.4734  0.0620  0.8000
  181POPC   H5Y20776   6.631   5.981   5.817  1.3545 -0.1532  2.0669
  181POPC   C3620777   6.485   6.107   5.725 -0.4019 -0.4588  0.2780
  181POPC   H6X20778   6.562   6.164   5.670 -0.1774 -1.2538 -0.2549
  181POPC   H6Y20779   6.405   6.182   5.743 -1.1337 -0.9251 -0.9261
  181POPC   C3720780   6.426   6.001   5.642  0.2311 -0.0022 -0.0511
  181POPC   H7X20781   6.329   5.980   5.692 -0.1620  0.3798 -0.6488
  181POPC   H7Y20782   6.486   5.908   5.649  0.4443  0.1655  0.3987
  181POPC   C3820783   6.400   6.039   5.492  0.4718  0.0545 -0.2890
  181POPC   H8X20784   6.336   6.129   5.486  0.3109 -0.0672 -0.3991
  181POPC   H8Y20785   6.353   5.958   5.434  0.3342 -0.0129 -0.0859
  181POPC   C3920786   6.525   6.082   5.407 -0.8432  0.3553  0.2059
  181POPC   H9X20787   6.594   5.996   5.420 -3.0404 -1.3911  1.0043
  181POPC   H9Y20788   6.571   6.175   5.446 -0.2979  0.7979 -1.3988
  181POPC  C31020789   6.493   6.094   5.254 -0.3370  0.3815 -0.7069
  181POPC  H10X20790   6.586   6.138   5.210  0.8287 -0.5150  0.7801
  181POPC  H10Y20791   6.407   6.162   5.238 -0.2242  0.6953 -0.0160
  181POPC  C31120792   6.476   5.957   5.184 -0.3434  0.0106 -0.1000
  181POPC  H11X20793   6.393   5.897   5.227  0.6226 -1.8193 -0.7212
  181POPC  H11Y20794   6.564   5.897   5.212 -0.9967 -0.2309  1.5706
  181POPC  C31220795   6.458   5.972   5.029 -0.2105  0.3152  0.2951
  181POPC  H12X20796   6.479   5.873   4.982 -0.7839  0.2532  0.1593
  181POPC  H12Y20797   6.541   6.038   4.994 -1.6410  1.2436 -1.5210
  181POPC  C31320798   6.314   6.015   5.000  0.7982 -0.7013  0.3301
  181POPC  H13X20799   6.293   6.116   5.043  1.5436 -0.8053  0.9554
  181POPC  H13Y20800   6.236   5.947   5.039 -0.2796 -0.5753 -1.5187
  181POPC  C31420801   6.291   6.013   4.848  0.2072 -0.0985 -0.0965
  181POPC  H14X20802   6.183   6.010   4.822  0.0336  3.5514 -0.3125
  181POPC  H14Y20803   6.332   5.918   4.808 -0.4469 -0.7119  0.6499
  181POPC  C31520804   6.357   6.136   4.778 -0.2488  0.1042  0.4308
  181POPC  H15X20805   6.465   6.141   4.804 -0.3410  1.5984  0.6667
  181POPC  H15Y20806   6.319   6.235   4.810  0.0026  1.1661 -2.2652
  181POPC  C31620807   6.347   6.129   4.627  0.3369 -0.8303 -0.0161
  181POPC  H16X20808   6.375   6.031   4.582 -0.7304 -1.0347 -0.2802
  181POPC  H16Y20809   6.404   6.204   4.569 -0.6904  0.7717  0.9809
  181POPC  H16Z20810   6.243   6.160   4.602 -0.3462 -1.2547  2.1141
  182POPC     N20811   4.449   5.583   6.796 -0.1574 -0.6740 -0.5365
  182POPC   C1220812   4.387   5.635   6.664  0.5189  0.7948  0.1516
  182POPC  H12A20813   4.461   5.657   6.588 -1.5897  0.8259 -2.0241
  182POPC  H12B20814   4.345   5.731   6.690  0.4310  0.4044  1.5462
  182POPC   C1320815   4.348   5.565   6.902 -0.2288 -0.1727  0.7968
  182POPC  H13A20816   4.391   5.513   6.987 -0.0224 -0.9251  0.2463
  182POPC  H13B20817   4.294   5.653   6.932  0.7677  1.2019 -1.2140
  182POPC  H13C20818   4.280   5.492   6.861  0.7031  0.3312 -1.8537
  182POPC   C1420819   4.522   5.457   6.772  0.4231 -0.0626  0.5109
  182POPC  H14A20820   4.560   5.422   6.867 -0.5693 -1.9772  0.2481
  182POPC  H14B20821   4.467   5.370   6.740  0.2263  0.0572  0.5246
  182POPC  H14C20822   4.596   5.473   6.695  0.8525  3.0863  1.4512
  182POPC   C1520823   4.552   5.682   6.848  0.2095  0.5611  0.1564
  182POPC  H15A20824   4.630   5.700   6.776 -0.9382 -0.5782 -1.4330
  182POPC  H15B20825   4.595   5.635   6.936  1.2919 -3.1100 -2.1234
  182POPC  H15C20826   4.515   5.778   6.879  0.7609  0.3679  1.5250
  182POPC   C1120827   4.276   5.547   6.599  0.7951  0.6774 -0.1694
  182POPC  H11A20828   4.306   5.440   6.599  0.8354  0.6897  0.2950
  182POPC  H11B20829   4.261   5.574   6.492 -1.1807 -0.3252 -0.1919
  182POPC     P20830   4.073   5.711   6.650  0.3358 -0.0986 -0.2370
  182POPC   O1320831   4.168   5.828   6.638  0.2607  0.0498 -0.2828
  182POPC   O1420832   3.964   5.717   6.747 -0.2935  0.0089  0.7252
  182POPC   O1220833   4.149   5.568   6.663 -0.3711  0.2521  0.1169
  182POPC   O1120834   4.005   5.705   6.510 -0.5262 -0.4967  0.5236
  182POPC    C120835   3.910   5.602   6.487 -0.4860  0.5976 -0.5301
  182POPC    HA20836   3.836   5.601   6.570 -0.0612  0.7281 -0.1487
  182POPC    HB20837   3.963   5.505   6.490 -1.5129 -0.0069 -1.3814
  182POPC    C220838   3.836   5.633   6.349  0.1063 -0.3346 -0.7496
  182POPC    HS20839   3.769   5.549   6.318 -1.8315  0.1076  1.8869
  182POPC   O2120840   3.938   5.660   6.247 -0.3171 -0.4058  0.1263
  182POPC   C2120841   4.012   5.565   6.212 -0.5372 -1.1979  0.0238
  182POPC   O2220842   4.009   5.448   6.245  0.6736 -0.7925 -0.0966
  182POPC   C2220843   4.106   5.612   6.096  0.4686 -0.1206  0.1134
  182POPC   H2R20844   4.162   5.520   6.068 -0.2276 -1.0574  1.6627
  182POPC   H2S20845   4.177   5.682   6.146  0.0352  0.5429 -0.1966
  182POPC    C320846   3.747   5.751   6.368  0.3717  0.5930 -0.1959
  182POPC    HX20847   3.792   5.840   6.418  0.0492  0.5074  0.2522
  182POPC    HY20848   3.672   5.710   6.439  2.3402 -2.0106  0.5202
  182POPC   O3120849   3.669   5.774   6.249 -0.8653 -0.1899  0.8092
  182POPC   C3120850   3.729   5.867   6.179  0.0520 -0.6975  0.0108
  182POPC   O3220851   3.815   5.944   6.224 -0.2480 -0.9986 -0.4998
  182POPC   C3220852   3.684   5.862   6.040 -0.2902 -0.0623  0.1901
  182POPC   H2X20853   3.573   5.869   6.037 -0.2277  0.6543 -1.1298
  182POPC   H2Y20854   3.712   5.761   6.005 -1.2159  0.5274 -2.4959
  182POPC   C2320855   4.020   5.668   5.979 -0.0880 -0.9581 -0.3449
  182POPC   H3R20856   4.087   5.708   5.900 -1.3525 -1.5142 -1.7291
  182POPC   H3S20857   3.967   5.762   6.006  4.1201  1.4638  0.3860
  182POPC   C2420858   3.938   5.554   5.908  0.0427 -0.2462  0.4399
  182POPC   H4R20859   3.864   5.519   5.984 -0.9357  1.3634  0.2675
  182POPC   H4S20860   4.002   5.468   5.878 -0.4877  0.5106 -3.2817
  182POPC   C2520861   3.863   5.602   5.777  0.0924 -0.8795 -1.0706
  182POPC   H5R20862   3.787   5.680   5.800 -0.0079 -1.3869  0.3865
  182POPC   H5S20863   3.808   5.513   5.738 -0.0004 -1.7419  0.9304
  182POPC   C2620864   3.949   5.644   5.654  0.3568 -0.2007  0.4212
  182POPC   H6R20865   4.053   5.606   5.644  0.8433  0.6613  1.8373
  182POPC   H6S20866   3.973   5.751   5.673 -0.1263 -0.2448  1.3162
  182POPC   C2720867   3.873   5.628   5.522  0.4399 -0.2874  0.5219
  182POPC   H7R20868   3.785   5.697   5.529  0.0344 -0.2474 -2.9994
  182POPC   H7S20869   3.836   5.523   5.519  1.5407 -0.6654 -0.1630
  182POPC   C2820870   3.954   5.664   5.394  0.0170 -0.4283  0.0881
  182POPC   H8R20871   4.018   5.578   5.366  1.4812  0.6588 -0.0280
  182POPC   H8S20872   4.024   5.748   5.409 -0.3738 -0.1174  0.2067
  182POPC   C2920873   3.867   5.697   5.272  0.7082  0.3385 -0.3416
  182POPC   H9120874   3.803   5.785   5.288 -2.4088 -1.7704 -0.5208
  182POPC  C21020875   3.878   5.649   5.154 -0.8311  0.0770  0.5584
  182POPC  H10120876   3.818   5.705   5.081 -3.1693 -0.2967  2.0972
  182POPC  C21120877   3.970   5.543   5.106  0.0448 -0.5450  0.9116
  182POPC  H11R20878   3.909   5.473   5.045  1.2246  0.2505 -1.3143
  182POPC  H11S20879   4.006   5.483   5.192 -2.4609 -0.0871  2.3924
  182POPC  C21220880   4.079   5.576   5.001  0.1174  0.4369 -0.0386
  182POPC  H12R20881   4.154   5.495   5.014 -1.5419 -1.5278 -2.0250
  182POPC  H12S20882   4.129   5.672   5.026 -1.0513  1.2424 -0.6804
  182POPC  C21320883   4.037   5.591   4.853 -0.2127  0.2029 -0.4198
  182POPC  H13R20884   3.964   5.674   4.848  0.2772  0.6501 -0.3326
  182POPC  H13S20885   3.988   5.498   4.819  0.1641 -0.5431  0.9941
  182POPC  C21420886   4.160   5.625   4.765  0.0907 -0.6596  0.1463
  182POPC  H14R20887   4.241   5.562   4.807  0.9483  1.6042  2.1603
  182POPC  H14S20888   4.187   5.722   4.813 -1.2771  0.5181 -1.3020
  182POPC  C21520889   4.143   5.622   4.613  0.1008 -0.2782  0.0340
  182POPC  H15R20890   4.049   5.663   4.572 -1.1176 -2.1606  0.7863
  182POPC  H15S20891   4.150   5.516   4.580 -0.5017 -0.6818  1.1419
  182POPC  C21620892   4.252   5.707   4.547  0.2269 -0.3836 -0.8140
  182POPC  H16R20893   4.347   5.651   4.564 -1.4205 -2.6228  2.0476
  182POPC  H16S20894   4.261   5.807   4.594 -0.8769 -1.1042  1.0405
  182POPC  C21720895   4.240   5.711   4.393 -0.6704  0.4981 -0.0385
  182POPC  H17R20896   4.153   5.773   4.361 -1.3493 -1.0102 -1.2711
  182POPC  H17S20897   4.220   5.609   4.354  0.7655  0.2879 -0.2874
  182POPC  C21820898   4.372   5.768   4.328  0.0463  0.0524  0.1694
  182POPC  H18R20899   4.375   5.752   4.218  0.7217  0.6138  0.0961
  182POPC  H18S20900   4.466   5.739   4.380  1.5625  0.5998 -2.1045
  182POPC  H18T20901   4.367   5.879   4.333 -0.1182  0.1164 -1.0962
  182POPC   C3320902   3.743   5.959   5.934 -0.8779 -0.2802 -0.5357
  182POPC   H3X20903   3.829   5.908   5.885 -0.1762  0.3268  0.0274
  182POPC   H3Y20904   3.789   6.044   5.990  0.8573 -2.1760  1.0891
  182POPC   C3420905   3.641   6.013   5.838  0.4782 -0.3564  0.8741
  182POPC   H4X20906   3.694   6.089   5.776  2.0608 -0.1835  2.3688
  182POPC   H4Y20907   3.561   6.059   5.899 -1.4662 -2.8929  0.4061
  182POPC   C3520908   3.596   5.910   5.731 -0.4161  0.6677 -0.2057
  182POPC   H5X20909   3.595   5.816   5.789  3.0079 -0.6411 -1.9728
  182POPC   H5Y20910   3.683   5.890   5.666  0.3691 -2.4219  1.6047
  182POPC   C3620911   3.474   5.953   5.649  0.5675 -0.6269  0.4164
  182POPC   H6X20912   3.401   5.999   5.719  3.3683  2.5545  1.5473
  182POPC   H6Y20913   3.425   5.868   5.597 -0.0285  0.3421 -0.6536
  182POPC   C3720914   3.502   6.056   5.542  0.2772  0.2813  0.3813
  182POPC   H7X20915   3.563   6.138   5.585  0.0946  0.3569  0.4989
  182POPC   H7Y20916   3.405   6.096   5.507  0.7217 -1.1390 -2.8812
  182POPC   C3820917   3.573   6.005   5.411  0.5062  0.0051 -0.5886
  182POPC   H8X20918   3.501   5.936   5.362  0.9134 -1.0227  0.2120
  182POPC   H8Y20919   3.665   5.945   5.429 -0.5493 -1.2323  0.9998
  182POPC   C3920920   3.581   6.119   5.311 -0.2288  0.0983  0.1521
  182POPC   H9X20921   3.650   6.202   5.337  0.1479 -0.1863  0.0691
  182POPC   H9Y20922   3.483   6.172   5.311  0.1183  0.7693  1.0596
  182POPC  C31020923   3.598   6.051   5.170 -0.5991 -0.2975  0.1687
  182POPC  H10X20924   3.506   5.994   5.146 -1.6101  1.7165 -1.0396
  182POPC  H10Y20925   3.687   5.987   5.151  1.6449  2.2686  1.2923
  182POPC  C31120926   3.612   6.175   5.074  0.2071 -0.5060 -0.0780
  182POPC  H11X20927   3.694   6.246   5.098  0.3480 -0.2115 -1.3675
  182POPC  H11Y20928   3.518   6.235   5.084  1.3828  1.3150  0.6071
  182POPC  C31220929   3.631   6.142   4.921 -0.3387  0.0827 -1.2092
  182POPC  H12X20930   3.534   6.102   4.884 -0.8098 -1.8840  1.7863
  182POPC  H12Y20931   3.701   6.056   4.918 -1.6606 -1.0150 -1.5321
  182POPC  C31320932   3.687   6.267   4.843 -0.0202  0.3014  0.4402
  182POPC  H13X20933   3.701   6.230   4.740  0.4461  0.5076  0.4293
  182POPC  H13Y20934   3.788   6.290   4.883  0.0130  3.5743 -1.2462
  182POPC  C31420935   3.596   6.392   4.846  0.5620 -0.1652  0.1076
  182POPC  H14X20936   3.584   6.440   4.946 -3.0649  0.0361 -0.2960
  182POPC  H14Y20937   3.500   6.346   4.817 -0.6079  0.8448  2.1313
  182POPC  C31520938   3.632   6.497   4.737  0.0688 -0.4245 -0.9453
  182POPC  H15X20939   3.547   6.568   4.725 -0.0648 -0.5702 -0.8638
  182POPC  H15Y20940   3.659   6.437   4.648  2.9575 -0.2484 -0.3015
  182POPC  C31620941   3.755   6.580   4.784 -0.0317  0.5334 -0.0956
  182POPC  H16X20942   3.774   6.670   4.722 -0.7116 -0.2754 -1.5091
  182POPC  H16Y20943   3.834   6.502   4.782 -1.2557 -0.7702  0.7964
  182POPC  H16Z20944   3.753   6.617   4.889  1.7464  2.4755 -0.6677
  183POPC     N20945   4.847   2.042   7.375  0.2584  0.1481 -0.4024
  183POPC   C1220946   4.862   2.070   7.226 -0.7072  1.0482 -0.1201
  183POPC  H12A20947   4.925   1.990   7.190 -2.4770 -0.5547  0.1862
  183POPC  H12B20948   4.922   2.157   7.205 -0.4358  0.9337  0.1755
  183POPC   C1320949   4.979   2.031   7.451  0.1628 -0.4926 -0.1284
  183POPC  H13A20950   4.950   2.025   7.555 -2.1891 -0.7020 -0.7300
  183POPC  H13B20951   5.038   1.943   7.427 -0.7407 -0.7840 -1.3931
  183POPC  H13C20952   5.043   2.116   7.432  1.0740 -0.8855  1.1099
  183POPC   C1420953   4.765   2.139   7.438 -0.1913  0.3089  1.1899
  183POPC  H14A20954   4.813   2.236   7.430  0.2021 -0.0402 -2.2612
  183POPC  H14B20955   4.675   2.133   7.379  0.8911 -1.5421 -0.3853
  183POPC  H14C20956   4.748   2.108   7.540  0.1984 -2.1842  0.5635
  183POPC   C1520957   4.779   1.908   7.388  0.6431  0.5179 -0.2382
  183POPC  H15A20958   4.675   1.911   7.359  1.2145  1.8425 -2.3569
  183POPC  H15B20959   4.782   1.871   7.490 -2.9264  2.5215  0.7281
  183POPC  H15C20960   4.820   1.827   7.329 -0.5784  1.7653 -2.9769
  183POPC   C1120961   4.731   2.075   7.138 -0.2785  0.2775 -0.0549
  183POPC  H11A20962   4.753   2.085   7.030 -0.7062  0.7129 -0.1019
  183POPC  H11B20963   4.697   2.179   7.157  0.5081  0.8371 -1.5489
  183POPC     P20964   4.625   1.856   7.073  0.1965  0.0586 -0.1200
  183POPC   O1320965   4.515   1.778   7.138  0.0262  0.1198 -0.6259
  183POPC   O1420966   4.758   1.794   7.059 -0.0626  0.5581 -0.2581
  183POPC   O1220967   4.642   1.978   7.174  0.5014  0.5953 -0.3366
  183POPC   O1120968   4.578   1.927   6.938 -0.6030 -0.0679 -1.0679
  183POPC    C120969   4.664   1.927   6.823 -0.4484 -0.5571 -0.2337
  183POPC    HA20970   4.624   1.843   6.763 -2.5068  0.5207 -0.4468
  183POPC    HB20971   4.773   1.919   6.845 -0.6710  0.0903  1.1888
  183POPC    C220972   4.639   2.049   6.736  0.3785 -0.3238  0.0540
  183POPC    HS20973   4.639   2.133   6.809  1.3951 -0.7004  0.5104
  183POPC   O2120974   4.507   2.033   6.675 -0.7820  0.1188 -0.3497
  183POPC   C2120975   4.461   2.154   6.633 -0.8349  0.2975 -0.5184
  183POPC   O2220976   4.506   2.265   6.656 -0.0949 -0.0953 -0.0612
  183POPC   C2220977   4.348   2.128   6.536  0.3909  0.1144  0.1045
  183POPC   H2R20978   4.252   2.139   6.592  0.7050 -1.0864  0.9171
  183POPC   H2S20979   4.338   2.027   6.492  1.6636  0.1529 -0.3207
  183POPC    C320980   4.756   2.076   6.639 -0.1427  0.0049  0.5750
  183POPC    HX20981   4.847   2.083   6.702  0.9457 -1.4030 -0.7760
  183POPC    HY20982   4.732   2.171   6.588  0.9695  0.0455  0.1016
  183POPC   O3120983   4.757   1.969   6.540  0.0346 -0.0454  0.4772
  183POPC   C3120984   4.875   1.949   6.477 -0.5034 -0.5832  0.4302
  183POPC   O3220985   4.977   2.008   6.493 -0.4440 -0.3208 -0.1892
  183POPC   C3220986   4.871   1.835   6.379 -0.2585 -0.2178  0.3396
  183POPC   H2X20987   4.771   1.787   6.389 -1.1150  0.8710 -2.3538
  183POPC   H2Y20988   4.962   1.774   6.396 -1.1364 -1.7346 -0.1856
  183POPC   C2320989   4.355   2.226   6.425 -0.5201  0.3217  0.5204
  183POPC   H3R20990   4.367   2.327   6.468  2.9909 -0.0333  0.6475
  183POPC   H3S20991   4.263   2.221   6.364 -1.3787  0.6500  1.7504
  183POPC   C2420992   4.477   2.194   6.337 -0.0472 -0.2509  0.3017
  183POPC   H4R20993   4.567   2.209   6.401  0.1603 -1.5701  0.3491
  183POPC   H4S20994   4.470   2.277   6.264 -1.1430  0.0831  0.7673
  183POPC   C2520995   4.482   2.059   6.271 -0.0372 -0.2942 -0.6565
  183POPC   H5R20996   4.386   2.005   6.257  1.0204 -2.3207 -0.3537
  183POPC   H5S20997   4.547   1.996   6.335 -0.0410 -0.3052 -0.6637
  183POPC   C2620998   4.542   2.065   6.124  1.1691  0.2435 -0.3188
  183POPC   H6R20999   4.649   2.081   6.149  0.8080 -0.3491  1.8301
  183POPC   H6S21000   4.488   2.148   6.074  2.5449  0.9560 -0.6887
  183POPC   C2721001   4.526   1.932   6.043 -0.0532  0.4939  0.3859
  183POPC   H7R21002   4.422   1.898   6.027  0.7546 -2.0291 -0.0260
  183POPC   H7S21003   4.581   1.849   6.094  2.2727  0.3808 -2.0811
  183POPC   C2821004   4.601   1.928   5.903  0.6241 -0.0747 -0.1619
  183POPC   H8R21005   4.702   1.972   5.922  1.5396 -2.0277 -0.3116
  183POPC   H8S21006   4.549   1.995   5.832  0.8393  0.2450 -0.0229
  183POPC   C2921007   4.625   1.787   5.845  0.1984  0.2001  0.6416
  183POPC   H9121008   4.654   1.712   5.920 -0.8482 -1.9283 -0.9592
  183POPC  C21021009   4.643   1.763   5.716 -0.1370  0.1281  0.5149
  183POPC  H10121010   4.667   1.663   5.676 -1.1587  0.4031 -0.8540
  183POPC  C21121011   4.622   1.863   5.607  0.9442 -1.0044 -0.4537
  183POPC  H11R21012   4.682   1.954   5.629  0.8084 -1.0754  0.2414
  183POPC  H11S21013   4.512   1.881   5.614  0.7909 -2.4269  3.0379
  183POPC  C21221014   4.645   1.815   5.468  0.2572  0.1234  0.4655
  183POPC  H12R21015   4.590   1.721   5.441 -2.6439  1.9250 -0.3651
  183POPC  H12S21016   4.754   1.793   5.468 -0.0846 -1.9285 -1.1143
  183POPC  C21321017   4.619   1.925   5.362 -0.1005 -0.4067  0.0905
  183POPC  H13R21018   4.666   2.019   5.396 -1.5722  0.0794  0.8480
  183POPC  H13S21019   4.513   1.959   5.369 -0.6485 -1.7625 -1.0757
  183POPC  C21421020   4.671   1.893   5.218  0.2829  0.0402 -0.0309
  183POPC  H14R21021   4.624   1.798   5.185 -2.4938  0.1616  3.0514
  183POPC  H14S21022   4.781   1.882   5.229  0.1872  0.1475  1.1081
  183POPC  C21521023   4.619   2.007   5.129 -0.0533 -0.0268  0.3588
  183POPC  H15R21024   4.670   2.098   5.167 -0.4356  0.4060 -0.1518
  183POPC  H15S21025   4.511   2.019   5.153  0.4504  1.2070  2.1709
  183POPC  C21621026   4.653   1.991   4.977  0.2300 -0.3412  0.0619
  183POPC  H16R21027   4.587   1.913   4.931 -0.4659  0.2672  0.0089
  183POPC  H16S21028   4.759   1.960   4.969  0.2235 -0.6828  1.1840
  183POPC  C21721029   4.634   2.118   4.895 -0.4054  0.5458  0.5396
  183POPC  H17R21030   4.689   2.095   4.801 -0.3509  1.0281  0.4523
  183POPC  H17S21031   4.682   2.212   4.931  3.4148 -0.8963 -0.2699
  183POPC  C21821032   4.481   2.153   4.861 -0.7915 -0.0693 -0.1497
  183POPC  H18R21033   4.441   2.204   4.951 -1.7544 -0.3989 -0.3901
  183POPC  H18S21034   4.420   2.062   4.845  0.3566 -0.6782 -1.2721
  183POPC  H18T21035   4.480   2.217   4.770  0.9930  0.0463 -0.1385
  183POPC   C3321036   4.885   1.887   6.232 -0.1583 -1.0035 -0.0699
  183POPC   H3X21037   4.817   1.974   6.216 -1.9225 -1.9640  1.7944
  183POPC   H3Y21038   4.848   1.804   6.168 -0.2947 -1.5633  0.7244
  183POPC   C3421039   5.022   1.931   6.186 -0.9697  0.3026  0.8163
  183POPC   H4X21040   5.100   1.852   6.188  0.5227  1.5961 -1.1394
  183POPC   H4Y21041   5.046   2.016   6.254 -1.0041  1.2648 -0.3176
  183POPC   C3521042   5.020   1.985   6.037  0.4706 -0.4041 -0.2443
  183POPC   H5X21043   5.120   2.029   6.015 -0.1681  0.5359 -1.3055
  183POPC   H5Y21044   4.947   2.068   6.030  2.4384  1.4560  0.0490
  183POPC   C3621045   5.015   1.885   5.925 -0.1739  0.1811  0.5789
  183POPC   H6X21046   4.934   1.810   5.938  0.7554 -0.7473  1.1208
  183POPC   H6Y21047   5.109   1.826   5.930 -0.3072 -0.1917 -0.7701
  183POPC   C3721048   5.009   1.968   5.791  0.3128  0.2468 -0.8015
  183POPC   H7X21049   5.087   2.047   5.793 -0.6204  1.1715  0.9411
  183POPC   H7Y21050   4.918   2.030   5.799  1.1675  1.4355  0.2420
  183POPC   C3821051   5.013   1.884   5.663 -0.3100  0.4542 -0.5677
  183POPC   H8X21052   4.917   1.830   5.649 -1.3821  1.7045  1.4654
  183POPC   H8Y21053   5.083   1.803   5.689 -1.1600  0.3100  1.4280
  183POPC   C3921054   5.035   1.967   5.537  0.8611 -0.8854  0.3373
  183POPC   H9X21055   5.131   2.022   5.546  0.7956 -0.1634 -2.3881
  183POPC   H9Y21056   4.959   2.042   5.508  0.2657 -2.0467 -1.2492
  183POPC  C31021057   5.042   1.868   5.416 -0.9051 -0.4925  0.7504
  183POPC  H10X21058   4.949   1.811   5.400 -0.6262 -0.9371  0.6914
  183POPC  H10Y21059   5.128   1.798   5.421  0.0874  0.7347  1.6903
  183POPC  C31121060   5.065   1.962   5.293  0.4571 -0.2794 -0.4315
  183POPC  H11X21061   5.165   2.007   5.311  1.4332 -1.7918 -1.7382
  183POPC  H11Y21062   4.997   2.049   5.291 -0.7593 -1.1719  0.5949
  183POPC  C31221063   5.057   1.882   5.163  0.7721  0.3018 -0.5292
  183POPC  H12X21064   4.963   1.824   5.150  1.8750 -1.3595 -1.4473
  183POPC  H12Y21065   5.139   1.808   5.166  0.7535  0.2943 -0.2325
  183POPC  C31321066   5.077   1.975   5.050  0.4250 -0.5971  0.4585
  183POPC  H13X21067   5.158   2.049   5.069 -1.2498  1.4910 -0.0824
  183POPC  H13Y21068   4.987   2.039   5.052  0.0684 -1.1152  1.5261
  183POPC  C31421069   5.091   1.911   4.913  0.0963 -0.2621  0.5109
  183POPC  H14X21070   5.035   1.815   4.903  1.5444 -1.0791 -0.1685
  183POPC  H14Y21071   5.194   1.885   4.879 -0.2908 -1.0980 -0.0735
  183POPC  C31521072   5.046   1.990   4.789 -0.2236  0.2720  0.4126
  183POPC  H15X21073   4.942   2.022   4.809  0.3871  2.0772  0.9039
  183POPC  H15Y21074   5.050   1.927   4.697  0.6070 -1.9629  1.8814
  183POPC  C31621075   5.143   2.106   4.771  0.1965  0.4251 -0.1345
  183POPC  H16X21076   5.244   2.060   4.769 -0.0632 -0.2770  1.1522
  183POPC  H16Y21077   5.128   2.183   4.850  0.4409 -0.4519  0.7931
  183POPC  H16Z21078   5.126   2.152   4.672 -1.1943  0.6324  0.1791
  184POPC     N21079   4.543   3.348   7.254 -0.0933  0.3463 -0.2455
  184POPC   C1221080   4.580   3.469   7.172 -0.2078  0.1256 -0.6387
  184POPC  H12A21081   4.661   3.434   7.111  0.5817  0.4872  0.1754
  184POPC  H12B21082   4.610   3.555   7.230 -0.6109 -0.4322  0.4439
  184POPC   C1321083   4.494   3.236   7.166  0.5290 -0.3147  0.3664
  184POPC  H13A21084   4.565   3.217   7.086 -0.9278  2.2468 -1.7326
  184POPC  H13B21085   4.456   3.155   7.225 -1.5334  0.0992 -0.3102
  184POPC  H13C21086   4.403   3.265   7.115  0.2935 -2.2091 -0.3716
  184POPC   C1421087   4.663   3.290   7.325  0.5624 -0.4717  0.6654
  184POPC  H14A21088   4.677   3.344   7.417 -0.4245  0.7677  0.1174
  184POPC  H14B21089   4.647   3.186   7.348  2.2519 -1.2235 -1.2968
  184POPC  H14C21090   4.741   3.297   7.251 -0.4053 -0.2393 -0.3634
  184POPC   C1521091   4.436   3.361   7.354 -0.9443 -0.1053  0.1412
  184POPC  H15A21092   4.462   3.433   7.430  2.9486 -1.8249  0.6981
  184POPC  H15B21093   4.426   3.262   7.397 -0.6918  0.0966  0.6707
  184POPC  H15C21094   4.341   3.377   7.306 -0.1966  1.2012 -0.9570
  184POPC   C1121095   4.483   3.520   7.070  0.7900 -0.2002  0.0049
  184POPC  H11A21096   4.408   3.570   7.136  1.5042 -0.4764  1.0601
  184POPC  H11B21097   4.432   3.447   7.004 -1.9942  2.2454 -0.7651
  184POPC     P21098   4.475   3.716   6.898  0.4564 -0.1996 -0.4130
  184POPC   O1321099   4.567   3.822   6.852 -0.5717 -0.9386 -0.5430
  184POPC   O1421100   4.342   3.757   6.952  0.7401 -0.3967  0.0206
  184POPC   O1221101   4.558   3.620   6.996  0.0030  0.1503 -0.2090
  184POPC   O1121102   4.456   3.611   6.775 -0.5559 -0.0608 -0.9065
  184POPC    C121103   4.573   3.546   6.719  0.3863  0.2649  0.3725
  184POPC    HA21104   4.535   3.444   6.700 -0.8535  0.4095  1.8431
  184POPC    HB21105   4.657   3.533   6.790  0.3404 -0.2447  0.3353
  184POPC    C221106   4.622   3.622   6.588  0.3453 -0.2786 -0.2262
  184POPC    HS21107   4.653   3.726   6.613 -2.4875  1.1552 -2.1344
  184POPC   O2121108   4.514   3.629   6.501  0.5833  0.4730  0.1953
  184POPC   C2121109   4.516   3.706   6.396  0.2088  0.6430 -0.2320
  184POPC   O2221110   4.586   3.808   6.390  0.2660 -0.1521 -0.5927
  184POPC   C2221111   4.416   3.667   6.291 -0.8295  0.2883  0.0294
  184POPC   H2R21112   4.326   3.731   6.305 -0.6645  0.1933  1.6542
  184POPC   H2S21113   4.394   3.559   6.301  0.0106 -0.1211 -2.0582
  184POPC    C321114   4.738   3.538   6.527 -0.7544  0.2648 -0.3857
  184POPC    HX21115   4.703   3.437   6.500 -0.5688  0.7538 -2.5918
  184POPC    HY21116   4.812   3.529   6.610 -0.6513 -2.1481 -0.6696
  184POPC   O3121117   4.797   3.595   6.411 -0.2493 -1.1394 -0.3852
  184POPC   C3121118   4.864   3.708   6.432  0.0895  0.6908 -0.0151
  184POPC   O3221119   4.913   3.742   6.537  0.1565 -0.1265 -0.1117
  184POPC   C3221120   4.895   3.788   6.305 -0.2003 -0.3885 -0.3336
  184POPC   H2X21121   5.000   3.821   6.316 -0.7050  0.4504  2.9564
  184POPC   H2Y21122   4.843   3.886   6.316  1.7499  0.8947 -1.8081
  184POPC   C2321123   4.466   3.705   6.147  0.2990 -0.1316 -0.1506
  184POPC   H3R21124   4.537   3.633   6.101  1.4608  1.1263 -0.4080
  184POPC   H3S21125   4.527   3.796   6.168 -1.2204  0.3132  2.9364
  184POPC   C2421126   4.353   3.741   6.049 -0.0127 -0.1973 -0.1192
  184POPC   H4R21127   4.274   3.793   6.108  0.8303  0.7767  0.1807
  184POPC   H4S21128   4.301   3.647   6.021 -0.1342  0.1198 -1.0079
  184POPC   C2521129   4.398   3.824   5.934  0.1937 -0.7739 -0.1462
  184POPC   H5R21130   4.477   3.897   5.963 -1.1963  0.0724  1.7378
  184POPC   H5S21131   4.314   3.879   5.888  1.2247  0.4803 -0.6103
  184POPC   C2621132   4.461   3.734   5.821 -0.4277 -0.0524 -0.3727
  184POPC   H6R21133   4.385   3.653   5.805  0.8143 -1.1803 -0.7506
  184POPC   H6S21134   4.553   3.684   5.857 -0.3590 -0.5659 -1.2230
  184POPC   C2721135   4.474   3.807   5.686  0.0081  0.2640  0.0795
  184POPC   H7R21136   4.558   3.879   5.694  2.3192 -2.0552 -1.6822
  184POPC   H7S21137   4.385   3.871   5.666 -1.5209 -1.4792  1.0245
  184POPC   C2821138   4.508   3.722   5.564  0.2820  0.0999 -0.5015
  184POPC   H8R21139   4.422   3.655   5.540  1.9180 -2.4738  0.3768
  184POPC   H8S21140   4.587   3.647   5.586 -0.1672 -1.6380 -4.0733
  184POPC   C2921141   4.542   3.800   5.443  0.0193  0.5721  0.3114
  184POPC   H9121142   4.547   3.910   5.444  2.1199  0.5027  0.7557
  184POPC  C21021143   4.548   3.742   5.321 -0.5839 -0.6898  0.8833
  184POPC  H10121144   4.560   3.803   5.230  2.1655 -2.0715  0.2280
  184POPC  C21121145   4.533   3.595   5.287 -0.9563  0.8425  0.3181
  184POPC  H11R21146   4.497   3.537   5.375 -1.9317  0.1303 -0.5274
  184POPC  H11S21147   4.633   3.552   5.268 -1.2135 -0.1379  1.1060
  184POPC  C21221148   4.461   3.577   5.153  0.5480 -0.2438  0.8325
  184POPC  H12R21149   4.458   3.469   5.128 -0.6501  0.0847 -0.5455
  184POPC  H12S21150   4.526   3.633   5.083  2.8980 -1.6323  1.7735
  184POPC  C21321151   4.318   3.630   5.157 -0.0823  0.5405 -0.3014
  184POPC  H13R21152   4.329   3.738   5.177 -0.4695  0.6850 -0.8557
  184POPC  H13S21153   4.268   3.586   5.246 -0.1867  0.7510 -0.2578
  184POPC  C21421154   4.234   3.603   5.036 -0.5313  0.4834 -0.0712
  184POPC  H14R21155   4.151   3.677   5.043 -0.8147  0.0330  2.2783
  184POPC  H14S21156   4.187   3.502   5.041  0.8834 -0.2206 -0.5585
  184POPC  C21521157   4.295   3.623   4.892  0.0081  0.2597  0.1314
  184POPC  H15R21158   4.375   3.549   4.869  1.8880  1.9662  0.8548
  184POPC  H15S21159   4.361   3.712   4.883  0.3008  0.0582  0.2744
  184POPC  C21621160   4.186   3.633   4.778 -0.7796 -0.3381  0.5687
  184POPC  H16R21161   4.242   3.665   4.687  0.2152  0.9485  1.5842
  184POPC  H16S21162   4.105   3.709   4.784 -0.1769  0.4025 -0.4799
  184POPC  C21721163   4.119   3.496   4.766 -0.4063 -0.6285 -0.2056
  184POPC  H17R21164   4.070   3.482   4.865 -0.0479  0.2828  0.1088
  184POPC  H17S21165   4.194   3.414   4.766  0.2118 -0.0699 -0.2850
  184POPC  C21821166   4.027   3.487   4.646  0.3601  0.2571 -0.0546
  184POPC  H18R21167   4.082   3.471   4.552 -0.2972 -0.2334 -0.3626
  184POPC  H18S21168   3.969   3.577   4.617 -1.0310 -0.8461 -0.8120
  184POPC  H18T21169   3.956   3.402   4.653  2.0614 -1.1823  0.6783
  184POPC   C3321170   4.865   3.726   6.162 -0.6725 -0.4402 -0.0520
  184POPC   H3X21171   4.755   3.722   6.145 -0.7240  0.6634 -0.0539
  184POPC   H3Y21172   4.915   3.629   6.146 -0.1107 -0.4877  1.7777
  184POPC   C3421173   4.914   3.820   6.048 -0.2534  0.4807 -0.2200
  184POPC   H4X21174   5.020   3.852   6.050  0.4409 -1.6877  0.9648
  184POPC   H4Y21175   4.853   3.912   6.057 -2.5266 -1.0441  1.0971
  184POPC   C3521176   4.898   3.757   5.910  0.7171  0.3934  0.6665
  184POPC   H5X21177   4.798   3.757   5.862  0.7483  1.2152  0.5972
  184POPC   H5Y21178   4.929   3.650   5.915 -1.2291 -0.3287 -1.2258
  184POPC   C3621179   4.994   3.799   5.805  0.0448  0.0600  1.1944
  184POPC   H6X21180   5.093   3.758   5.835  0.9421  0.9202 -0.4627
  184POPC   H6Y21181   4.990   3.910   5.807 -3.6084  0.0797  0.0837
  184POPC   C3721182   4.962   3.731   5.668  0.0189 -0.2887 -0.2295
  184POPC   H7X21183   4.861   3.752   5.628  0.8501  0.1302 -2.2515
  184POPC   H7Y21184   4.968   3.621   5.681 -0.5630 -0.6719 -2.6139
  184POPC   C3821185   5.051   3.770   5.549  0.5890  0.4678  0.6378
  184POPC   H8X21186   5.157   3.739   5.561  0.0121 -1.6785  0.5486
  184POPC   H8Y21187   5.044   3.880   5.532  0.8029  0.5929  1.3326
  184POPC   C3921188   4.988   3.720   5.419 -0.1693 -0.1578 -0.2609
  184POPC   H9X21189   4.883   3.755   5.416 -0.3581 -0.4958  1.4269
  184POPC   H9Y21190   4.987   3.609   5.428  1.0380 -0.0460  1.9467
  184POPC  C31021191   5.055   3.755   5.285  0.6222  0.6160 -0.0505
  184POPC  H10X21192   4.985   3.720   5.205  1.9642  0.8612 -1.3767
  184POPC  H10Y21193   5.152   3.701   5.278  0.9032  1.0386  0.5362
  184POPC  C31121194   5.073   3.904   5.255 -0.5691 -0.6883 -0.8774
  184POPC  H11X21195   5.109   3.925   5.152 -0.8266  1.9196 -0.4866
  184POPC  H11Y21196   5.155   3.943   5.319  0.3557  1.5640 -3.2555
  184POPC  C31221197   4.947   3.994   5.261  0.6323  0.1398 -0.6094
  184POPC  H12X21198   4.969   4.102   5.267  3.2809 -0.4015  1.0730
  184POPC  H12Y21199   4.900   3.978   5.361  1.3010  0.6620 -0.2009
  184POPC  C31321200   4.837   3.950   5.155  0.2963  0.6407 -0.3013
  184POPC  H13X21201   4.745   4.012   5.164 -0.1548  0.1509 -1.3516
  184POPC  H13Y21202   4.804   3.847   5.181  0.6509  0.3315 -1.0233
  184POPC  C31421203   4.885   3.947   5.010 -0.1655  0.8732 -0.3629
  184POPC  H14X21204   4.963   3.869   4.999 -0.6675  0.1184  1.0924
  184POPC  H14Y21205   4.936   4.041   4.982  1.0785  0.1886 -0.4718
  184POPC  C31521206   4.772   3.897   4.903 -0.3805  0.1955 -0.7510
  184POPC  H15X21207   4.692   3.974   4.910 -0.7652 -0.3498  2.8693
  184POPC  H15Y21208   4.732   3.804   4.950 -2.4077  1.0921 -0.5924
  184POPC  C31621209   4.830   3.870   4.768 -0.3352  0.2547  0.5549
  184POPC  H16X21210   4.905   3.789   4.778 -1.7160 -1.2335 -0.6074
  184POPC  H16Y21211   4.873   3.969   4.742  0.5176 -0.7089 -2.0201
  184POPC  H16Z21212   4.759   3.838   4.689  0.5555  2.5761 -1.3225
  185POPC     N21213   3.548   1.761   2.114  0.0273  0.1161 -0.2312
  185POPC   C1221214   3.407   1.728   2.143 -0.0822 -0.5181 -0.4105
  185POPC  H12A21215   3.357   1.713   2.049 -0.5366  1.9316 -0.6305
  185POPC  H12B21216   3.363   1.814   2.190  1.7724 -1.5909  3.7224
  185POPC   C1321217   3.550   1.889   2.045 -0.7771 -0.5958 -0.2568
  185POPC  H13A21218   3.488   1.958   2.099  0.0095 -0.7611  0.8949
  185POPC  H13B21219   3.652   1.918   2.023 -1.2643  0.0039 -1.8235
  185POPC  H13C21220   3.497   1.884   1.951 -1.5401  1.1519  0.0415
  185POPC   C1421221   3.633   1.765   2.237 -0.5654 -0.5430  0.0122
  185POPC  H14A21222   3.600   1.845   2.301  0.1772 -0.6881  0.6072
  185POPC  H14B21223   3.630   1.668   2.287 -2.4684 -0.7165 -0.3831
  185POPC  H14C21224   3.733   1.803   2.225 -0.9512  0.8665  1.0144
  185POPC   C1521225   3.617   1.662   2.027  0.0031  0.0039 -0.9220
  185POPC  H15A21226   3.601   1.568   2.077 -2.5442  1.7238  1.8488
  185POPC  H15B21227   3.721   1.692   2.023 -0.2480  1.3310  0.9125
  185POPC  H15C21228   3.567   1.660   1.932 -0.3677  0.1763 -0.7313
  185POPC   C1121229   3.363   1.608   2.230 -0.3979 -0.0373  0.0746
  185POPC  H11A21230   3.253   1.611   2.238 -0.2784  0.5908  1.7070
  185POPC  H11B21231   3.413   1.638   2.324  1.7824 -0.7217 -0.8002
  185POPC     P21232   3.510   1.394   2.269 -0.0159 -0.0425 -0.4047
  185POPC   O1321233   3.534   1.434   2.405 -0.2737 -0.5539  0.3937
  185POPC   O1421234   3.633   1.374   2.185 -0.3100  0.2918  0.6121
  185POPC   O1221235   3.416   1.488   2.181 -0.3585 -0.3020 -0.2141
  185POPC   O1121236   3.435   1.260   2.274 -0.2589 -0.8635 -0.2256
  185POPC    C121237   3.299   1.262   2.325  0.2390  0.1513  0.2638
  185POPC    HA21238   3.228   1.224   2.249 -0.1999  0.6372  0.4224
  185POPC    HB21239   3.254   1.363   2.333 -0.5731 -0.1510 -0.3938
  185POPC    C221240   3.285   1.199   2.466 -0.0670  1.2412  0.0888
  185POPC    HS21241   3.177   1.206   2.490 -0.3085  3.1117 -1.3498
  185POPC   O2121242   3.352   1.264   2.576 -0.1426 -0.0686 -0.3292
  185POPC   C2121243   3.293   1.379   2.611  0.2117  0.3360  1.0682
  185POPC   O2221244   3.195   1.433   2.557  0.1138 -0.4482 -0.1169
  185POPC   C2221245   3.364   1.439   2.736 -0.4233 -0.7500  0.6541
  185POPC   H2R21246   3.305   1.530   2.759 -1.5664 -0.8125 -1.6716
  185POPC   H2S21247   3.463   1.481   2.709 -1.3964  1.2842  0.0892
  185POPC    C321248   3.327   1.046   2.467 -0.8425 -0.3948  0.2122
  185POPC    HX21249   3.434   1.044   2.438 -0.7777 -2.9866  0.4167
  185POPC    HY21250   3.272   1.009   2.378 -2.5129 -0.5573  1.2630
  185POPC   O3121251   3.295   0.975   2.586 -0.2152 -0.1042  0.5323
  185POPC   C3121252   3.397   0.940   2.662 -0.0150  0.3311  0.3467
  185POPC   O3221253   3.515   0.954   2.630 -0.1220  0.2101  0.1444
  185POPC   C3221254   3.345   0.876   2.793  0.2783 -0.6811  0.2945
  185POPC   H2X21255   3.323   0.770   2.770 -1.7355  0.1361 -1.9049
  185POPC   H2Y21256   3.252   0.934   2.811  0.2808  0.6881 -3.3428
  185POPC   C2321257   3.386   1.339   2.849 -0.1796 -0.0643  0.1525
  185POPC   H3R21258   3.460   1.262   2.822 -1.0137 -0.8303 -0.0026
  185POPC   H3S21259   3.292   1.282   2.867 -0.1048 -0.2217  0.0399
  185POPC   C2421260   3.430   1.413   2.978  0.0409 -0.8754  0.3314
  185POPC   H4R21261   3.344   1.480   3.001 -0.0322 -1.3901  1.6634
  185POPC   H4S21262   3.518   1.474   2.952 -2.2330  1.8306 -1.6561
  185POPC   C2521263   3.452   1.328   3.104 -0.3088 -0.1899  0.9366
  185POPC   H5R21264   3.530   1.253   3.078 -0.9567 -1.5424  2.7117
  185POPC   H5S21265   3.359   1.269   3.119 -1.4672  0.8788 -1.5604
  185POPC   C2621266   3.476   1.401   3.237  0.1143  0.7586  0.3145
  185POPC   H6R21267   3.562   1.469   3.220  0.4464  0.5127  0.9689
  185POPC   H6S21268   3.514   1.339   3.321 -0.6867 -0.6650 -0.3246
  185POPC   C2721269   3.357   1.472   3.299 -0.0139 -0.4674  0.6572
  185POPC   H7R21270   3.281   1.395   3.325  1.7775 -1.6697  2.6153
  185POPC   H7S21271   3.307   1.531   3.219  2.3959 -0.5166 -0.9645
  185POPC   C2821272   3.395   1.541   3.430  0.1139 -0.4569  0.1985
  185POPC   H8R21273   3.347   1.630   3.477 -2.1929 -2.1215  1.2233
  185POPC   H8S21274   3.500   1.575   3.421  0.7415 -2.0746  1.0799
  185POPC   C2921275   3.393   1.441   3.540  0.1828 -0.0873  0.7942
  185POPC   H9121276   3.317   1.364   3.524 -3.2880  2.8737  1.6695
  185POPC  C21021277   3.478   1.429   3.644  0.1720  0.4079  0.3296
  185POPC  H10121278   3.462   1.351   3.720  1.0329 -2.1147 -1.8866
  185POPC  C21121279   3.583   1.532   3.679  1.3719 -0.3253 -0.2287
  185POPC  H11R21280   3.542   1.634   3.665 -1.6421 -1.1096  1.8665
  185POPC  H11S21281   3.673   1.512   3.616 -0.3309 -0.5887 -2.7069
  185POPC  C21221282   3.619   1.525   3.831 -0.1598 -0.7489 -0.4350
  185POPC  H12R21283   3.649   1.421   3.854 -1.1807 -0.5481  2.1550
  185POPC  H12S21284   3.528   1.544   3.893  1.0133 -0.3703  1.2538
  185POPC  C21321285   3.744   1.619   3.863 -0.2865  0.1584  0.0154
  185POPC  H13R21286   3.719   1.724   3.836  0.2905 -0.0773 -1.5422
  185POPC  H13S21287   3.821   1.597   3.786  0.9076  0.8621  0.9721
  185POPC  C21421288   3.793   1.612   4.001  0.1938  1.5408  0.0305
  185POPC  H14R21289   3.823   1.506   4.018 -2.1042  1.0205  1.3932
  185POPC  H14S21290   3.705   1.637   4.064 -0.7792  0.7802 -1.0019
  185POPC  C21521291   3.905   1.713   4.027 -0.2747  0.3371  0.3454
  185POPC  H15R21292   3.885   1.807   3.972  0.6134  0.3285 -0.0120
  185POPC  H15S21293   3.988   1.670   3.967 -0.2929 -0.6490  0.9945
  185POPC  C21621294   3.939   1.732   4.177 -0.1451 -0.4053  0.4455
  185POPC  H16R21295   3.945   1.635   4.231 -1.5903 -0.1017  1.1981
  185POPC  H16S21296   3.859   1.800   4.214  0.6128  0.5754  0.3475
  185POPC  C21721297   4.082   1.794   4.193  0.2763 -0.1446 -0.0596
  185POPC  H17R21298   4.092   1.837   4.295 -0.9270  1.3639 -0.5372
  185POPC  H17S21299   4.094   1.886   4.133 -0.0490  0.3473  0.6091
  185POPC  C21821300   4.190   1.697   4.162  0.1431 -0.6379  0.2579
  185POPC  H18R21301   4.178   1.663   4.057  1.5935 -2.6541  0.6783
  185POPC  H18S21302   4.199   1.613   4.234  0.0113 -0.2224  0.7639
  185POPC  H18T21303   4.287   1.752   4.156 -1.0166  1.3326 -3.6157
  185POPC   C3321304   3.451   0.882   2.912  0.3828 -0.4627 -0.3209
  185POPC   H3X21305   3.479   0.985   2.942 -0.1845 -0.9479  2.0376
  185POPC   H3Y21306   3.539   0.829   2.870 -0.7986 -3.0528  0.2735
  185POPC   C3421307   3.398   0.804   3.032  0.6794  0.0105  0.1883
  185POPC   H4X21308   3.394   0.699   2.998 -0.0054  0.2239 -0.4169
  185POPC   H4Y21309   3.296   0.835   3.062  0.2710  1.0698 -2.1005
  185POPC   C3521310   3.498   0.821   3.146  0.2721 -0.2747 -0.2929
  185POPC   H5X21311   3.596   0.778   3.116  0.6941 -0.1709  0.8872
  185POPC   H5Y21312   3.462   0.767   3.236 -0.8591  1.2741  0.2192
  185POPC   C3621313   3.521   0.966   3.200 -0.3130 -0.2889  0.0884
  185POPC   H6X21314   3.432   1.032   3.186 -1.1648 -1.6387 -1.2347
  185POPC   H6Y21315   3.597   1.023   3.143 -0.9342 -0.0332 -0.4986
  185POPC   C3721316   3.578   0.954   3.338  0.4736  1.0746 -0.4979
  185POPC   H7X21317   3.669   0.892   3.326 -0.6406 -0.5905 -0.6034
  185POPC   H7Y21318   3.508   0.887   3.391  1.6836  0.3311  0.2115
  185POPC   C3821319   3.611   1.085   3.420  0.0144 -0.6285  0.1796
  185POPC   H8X21320   3.520   1.140   3.451  0.3197  1.5947 -2.5036
  185POPC   H8Y21321   3.661   1.161   3.357  0.3449 -0.8035  0.2243
  185POPC   C3921322   3.702   1.063   3.547 -0.0111  0.0638  0.0630
  185POPC   H9X21323   3.727   1.163   3.590  0.7335 -0.3547  0.6203
  185POPC   H9Y21324   3.806   1.034   3.522 -0.4382 -1.3562 -0.1213
  185POPC  C31021325   3.641   0.966   3.651  0.6899 -0.7023 -0.3317
  185POPC  H10X21326   3.608   0.872   3.603 -2.8065  0.5930 -0.7296
  185POPC  H10Y21327   3.546   1.012   3.686  0.4800 -0.8504 -0.7096
  185POPC  C31121328   3.746   0.945   3.771  0.2262 -0.4207 -0.4520
  185POPC  H11X21329   3.817   1.029   3.786 -2.6079  1.7605  1.5947
  185POPC  H11Y21330   3.824   0.877   3.728  0.7056 -2.0938  2.7380
  185POPC  C31221331   3.704   0.865   3.901 -0.3486 -0.3352  0.5894
  185POPC  H12X21332   3.795   0.817   3.945  1.1991  1.8854 -0.0284
  185POPC  H12Y21333   3.630   0.791   3.864  1.9391 -3.2689  1.4874
  185POPC  C31321334   3.631   0.965   4.003  0.5564 -0.1501  0.1739
  185POPC  H13X21335   3.533   1.002   3.967  1.1843  0.5672 -0.8568
  185POPC  H13Y21336   3.696   1.050   4.030  2.6630 -1.7316  0.3790
  185POPC  C31421337   3.615   0.896   4.136  0.2295  0.2219 -0.6464
  185POPC  H14X21338   3.564   0.797   4.136  1.6390 -0.5834  1.3631
  185POPC  H14Y21339   3.561   0.963   4.207 -0.5715  3.1925 -3.7938
  185POPC  C31521340   3.742   0.872   4.221 -0.2257 -0.2310  0.1833
  185POPC  H15X21341   3.809   0.806   4.161  1.1145  2.3872 -1.3804
  185POPC  H15Y21342   3.714   0.824   4.317  1.8120 -0.1420  0.8843
  185POPC  C31621343   3.839   0.989   4.266  0.5072  0.5994  0.6741
  185POPC  H16X21344   3.777   1.050   4.335  0.6497  2.2667 -0.6043
  185POPC  H16Y21345   3.865   1.044   4.172 -0.4495  0.8428  0.5333
  185POPC  H16Z21346   3.926   0.952   4.323 -0.3201 -2.2161  0.2715
  186POPC     N21347   5.689   4.135   2.044 -0.2428 -0.6973 -0.1983
  186POPC   C1221348   5.771   4.125   2.163 -0.7363  0.5097  0.1890
  186POPC  H12A21349   5.868   4.087   2.133  0.2312  1.1639  2.2718
  186POPC  H12B21350   5.740   4.055   2.239  1.3109  0.2622  0.8821
  186POPC   C1321351   5.753   4.221   1.936 -0.1060  0.2363 -0.0599
  186POPC  H13A21352   5.767   4.322   1.970 -1.6588  1.1951 -2.0667
  186POPC  H13B21353   5.846   4.177   1.901  1.2464  2.2271  0.8540
  186POPC  H13C21354   5.694   4.229   1.846  1.1668  0.0015 -0.9410
  186POPC   C1421355   5.655   3.994   2.000  0.5652 -0.4896  0.5303
  186POPC  H14A21356   5.583   3.944   2.063 -1.3860  2.2009  0.6164
  186POPC  H14B21357   5.591   4.001   1.913  2.7513  0.8002 -1.0855
  186POPC  H14C21358   5.737   3.931   1.969 -0.5784 -0.6233 -2.5610
  186POPC   C1521359   5.555   4.196   2.064 -0.2760 -0.3109 -0.4004
  186POPC  H15A21360   5.485   4.185   1.983 -2.0477  1.0894  0.8514
  186POPC  H15B21361   5.556   4.304   2.074 -1.3733 -0.2652 -0.6702
  186POPC  H15C21362   5.508   4.153   2.151 -1.2908 -0.2709 -0.9183
  186POPC   C1121363   5.797   4.252   2.248 -0.5855  0.3861  0.7318
  186POPC  H11A21364   5.835   4.212   2.345 -2.1504 -1.4192  0.6728
  186POPC  H11B21365   5.699   4.299   2.271 -0.2624  1.1065  0.6568
  186POPC     P21366   6.038   4.335   2.188  0.0345 -0.3146 -0.1606
  186POPC   O1321367   6.091   4.465   2.141 -0.6381 -0.2585  0.6823
  186POPC   O1421368   6.085   4.212   2.129  0.0758  0.5074 -0.2014
  186POPC   O1221369   5.881   4.343   2.175  0.1025  0.2634  0.3867
  186POPC   O1121370   6.069   4.322   2.345 -0.3165 -0.3834 -0.2890
  186POPC    C121371   6.029   4.428   2.433 -0.1466 -0.0096  0.0408
  186POPC    HA21372   5.950   4.391   2.502  1.0630 -0.9450  0.9772
  186POPC    HB21373   6.002   4.524   2.383 -0.9951  1.2315  2.6567
  186POPC    C221374   6.130   4.463   2.547  1.0075 -0.4119  0.4258
  186POPC    HS21375   6.202   4.539   2.509 -1.0492  1.7046  0.5301
  186POPC   O2121376   6.196   4.346   2.588 -0.2325  0.3962 -0.0916
  186POPC   C2121377   6.297   4.303   2.526  0.1841  0.0767  0.5996
  186POPC   O2221378   6.365   4.363   2.440 -0.1002  0.2440 -0.2541
  186POPC   C2221379   6.326   4.165   2.580 -0.5811 -0.2329  0.5472
  186POPC   H2R21380   6.417   4.125   2.530  1.6441  1.4886  2.9523
  186POPC   H2S21381   6.240   4.095   2.567 -0.7760 -0.1176  1.1773
  186POPC    C321382   6.045   4.515   2.666 -0.2689 -0.4843 -0.0343
  186POPC    HX21383   5.984   4.432   2.706 -0.1952 -0.4693  0.1105
  186POPC    HY21384   5.979   4.600   2.640  2.0487  1.3388 -0.3428
  186POPC   O3121385   6.134   4.567   2.760 -1.0333 -0.0001  0.3045
  186POPC   C3121386   6.157   4.504   2.876 -0.2494  1.3722 -0.2138
  186POPC   O3221387   6.101   4.401   2.914  0.0803 -0.7406 -0.0517
  186POPC   C3221388   6.270   4.579   2.952 -0.5220 -0.1608 -0.0235
  186POPC   H2X21389   6.239   4.681   2.982  0.3462  0.0721  0.0885
  186POPC   H2Y21390   6.347   4.587   2.873 -2.5061 -0.3972 -2.0889
  186POPC   C2321391   6.366   4.163   2.731  0.0244 -1.1103 -0.2304
  186POPC   H3R21392   6.306   4.232   2.793  1.1325 -0.2698 -0.0488
  186POPC   H3S21393   6.473   4.192   2.743 -0.2969 -0.6939  1.9129
  186POPC   C2421394   6.347   4.030   2.807  0.1145 -0.3402 -0.3498
  186POPC   H4R21395   6.373   3.946   2.740 -1.5664 -0.1279 -1.3250
  186POPC   H4S21396   6.237   4.026   2.825  0.1389  0.9195  0.1468
  186POPC   C2521397   6.419   4.020   2.942 -0.8419 -0.0484 -0.3883
  186POPC   H5R21398   6.400   4.111   3.004  0.2090 -1.1899  1.7118
  186POPC   H5S21399   6.529   4.018   2.934 -0.9044 -3.2624 -1.8568
  186POPC   C2621400   6.375   3.899   3.028  0.3833  0.6374 -0.2073
  186POPC   H6R21401   6.372   3.809   2.964 -0.7222 -0.2582  1.0364
  186POPC   H6S21402   6.270   3.923   3.056 -0.1476  0.6569 -2.1189
  186POPC   C2721403   6.446   3.872   3.163 -0.3373 -0.1414  0.5761
  186POPC   H7R21404   6.540   3.819   3.137  0.1757  1.2999 -0.6628
  186POPC   H7S21405   6.384   3.810   3.231 -1.5636  1.7569  1.2809
  186POPC   C2821406   6.500   4.001   3.234  0.1776  0.8139  0.9116
  186POPC   H8R21407   6.557   4.053   3.154  2.0265  0.6055  2.0373
  186POPC   H8S21408   6.562   3.973   3.321 -0.8070  0.1832  1.4283
  186POPC   C2921409   6.381   4.079   3.288 -0.0189  0.7293 -0.2122
  186POPC   H9121410   6.308   4.109   3.212 -2.7151 -1.0172  1.5258
  186POPC  C21021411   6.352   4.105   3.425 -0.4061 -0.6965  0.3945
  186POPC  H10121412   6.261   4.163   3.448  1.2793  2.1720  0.2420
  186POPC  C21121413   6.426   4.058   3.544 -0.3658  0.1793  0.7335
  186POPC  H11R21414   6.435   4.147   3.610  0.5670  1.0213 -0.4845
  186POPC  H11S21415   6.533   4.038   3.521  0.2597 -0.3327  3.6667
  186POPC  C21221416   6.373   3.937   3.602  0.3972  0.3774  0.2482
  186POPC  H12R21417   6.355   3.864   3.520 -1.3218  2.3413 -1.2443
  186POPC  H12S21418   6.271   3.939   3.646  0.1899  1.2100 -0.2431
  186POPC  C21321419   6.465   3.872   3.702 -0.2103 -0.3232  0.2728
  186POPC  H13R21420   6.561   3.851   3.650  0.4932 -1.1857  1.8566
  186POPC  H13S21421   6.422   3.771   3.719  0.2108 -0.7140 -0.8998
  186POPC  C21421422   6.478   3.952   3.824  0.0554 -0.0078 -0.1684
  186POPC  H14R21423   6.377   3.983   3.857  0.4613  1.7002 -0.4473
  186POPC  H14S21424   6.542   4.042   3.810  1.2907 -0.8828 -0.2922
  186POPC  C21521425   6.544   3.870   3.939  0.4926  0.0880 -0.2264
  186POPC  H15R21426   6.646   3.836   3.911  0.2358  0.7218 -2.0088
  186POPC  H15S21427   6.484   3.777   3.952 -0.5338  0.8862  0.9541
  186POPC  C21621428   6.547   3.948   4.074  0.5031 -0.1452 -0.7544
  186POPC  H16R21429   6.624   3.898   4.136  1.2771 -0.7636 -2.1820
  186POPC  H16S21430   6.443   3.931   4.109  0.8343  1.4324  1.2055
  186POPC  C21721431   6.580   4.101   4.078  0.0016  0.4295  0.8930
  186POPC  H17R21432   6.513   4.144   4.000 -1.0652 -1.2440  0.8245
  186POPC  H17S21433   6.684   4.120   4.046  0.9484 -0.7171  3.0513
  186POPC  C21821434   6.563   4.173   4.206 -0.7077  0.3712 -0.1999
  186POPC  H18R21435   6.605   4.276   4.211 -0.5140  0.4283 -2.2300
  186POPC  H18S21436   6.453   4.187   4.216 -0.7366  1.4199 -1.6934
  186POPC  H18T21437   6.602   4.110   4.289 -1.5946 -2.1156 -1.5459
  186POPC   C3321438   6.333   4.499   3.063 -0.7758 -0.2253 -0.2971
  186POPC   H3X21439   6.426   4.557   3.079 -0.9677 -0.1669  0.6768
  186POPC   H3Y21440   6.354   4.397   3.024  1.4954  0.8768 -2.2505
  186POPC   C3421441   6.245   4.493   3.191 -0.2953  0.2959 -0.5271
  186POPC   H4X21442   6.160   4.423   3.179  2.0574 -2.8777  0.0233
  186POPC   H4Y21443   6.199   4.593   3.208 -2.3199 -0.8635  1.5032
  186POPC   C3521444   6.318   4.452   3.319  0.0463 -0.0915 -0.6843
  186POPC   H5X21445   6.406   4.520   3.325 -1.6134  2.3618 -2.5368
  186POPC   H5Y21446   6.348   4.345   3.309 -1.8798 -0.7818  0.4269
  186POPC   C3621447   6.230   4.471   3.449  0.6568 -0.2719  0.2610
  186POPC   H6X21448   6.129   4.425   3.440  1.2467 -1.5855  0.0690
  186POPC   H6Y21449   6.206   4.579   3.454 -2.7566 -0.9367  3.5578
  186POPC   C3721450   6.298   4.419   3.566  0.6754 -0.1311  0.7440
  186POPC   H7X21451   6.406   4.405   3.542  0.0715 -1.0895 -1.7417
  186POPC   H7Y21452   6.249   4.329   3.609 -3.0876  2.9396  3.6970
  186POPC   C3821453   6.290   4.523   3.679  0.0669  0.1929 -0.1998
  186POPC   H8X21454   6.184   4.556   3.687  0.3605  0.8903  0.9609
  186POPC   H8Y21455   6.347   4.617   3.666 -1.3419  0.9377 -1.3784
  186POPC   C3921456   6.317   4.455   3.812 -0.6356  0.3432  0.5794
  186POPC   H9X21457   6.417   4.407   3.816 -1.4913 -1.6441 -0.4150
  186POPC   H9Y21458   6.259   4.362   3.830  0.2857 -0.0678  1.5477
  186POPC  C31021459   6.306   4.546   3.931  0.0338  0.8618  0.8185
  186POPC  H10X21460   6.196   4.558   3.942  0.1722  3.1228  0.2387
  186POPC  H10Y21461   6.358   4.641   3.907 -0.6873  1.8671  2.9986
  186POPC  C31121462   6.380   4.501   4.057 -0.1313 -1.0623 -0.3665
  186POPC  H11X21463   6.488   4.502   4.031 -0.4137 -0.8636 -1.6043
  186POPC  H11Y21464   6.355   4.397   4.086  1.2220 -0.6544  2.6855
  186POPC  C31221465   6.349   4.588   4.182  0.9053 -0.6599  0.3212
  186POPC  H12X21466   6.389   4.691   4.167 -0.3647 -0.5850 -3.4723
  186POPC  H12Y21467   6.394   4.537   4.270  4.0159  1.9795  0.4518
  186POPC  C31321468   6.198   4.618   4.210  0.4546  0.3791  0.0339
  186POPC  H13X21469   6.144   4.522   4.225  0.3629 -0.1753 -3.1819
  186POPC  H13Y21470   6.155   4.678   4.127 -2.2396  1.5223  2.1009
  186POPC  C31421471   6.177   4.704   4.341  0.1044  0.2466  0.4388
  186POPC  H14X21472   6.224   4.804   4.352 -2.4987  1.3978  1.8720
  186POPC  H14Y21473   6.224   4.643   4.421 -0.8042  0.0861  0.8666
  186POPC  C31521474   6.034   4.731   4.386 -0.4406 -0.1478 -0.3905
  186POPC  H15X21475   6.027   4.753   4.495  0.8544 -2.9662  0.3701
  186POPC  H15Y21476   5.975   4.637   4.377 -0.1749 -0.3667  0.1224
  186POPC  C31621477   5.966   4.836   4.306 -0.3001 -0.2094  0.0789
  186POPC  H16X21478   5.987   4.811   4.200  0.2301 -0.0451  0.1416
  186POPC  H16Y21479   6.020   4.933   4.316  1.0265 -0.7826 -1.1876
  186POPC  H16Z21480   5.856   4.836   4.319 -0.5029 -0.2962 -1.4587
  187POPC     N21481   2.809   1.647   2.279 -0.1648 -0.2303 -0.0052
  187POPC   C1221482   2.816   1.568   2.406  0.2245  0.0620 -1.6615
  187POPC  H12A21483   2.720   1.571   2.454  1.0162 -0.0788 -0.0062
  187POPC  H12B21484   2.870   1.628   2.478 -0.8085 -0.3376 -0.5292
  187POPC   C1321485   2.781   1.792   2.298 -0.1953 -0.2940  0.0944
  187POPC  H13A21486   2.693   1.802   2.359 -0.0347  0.5920  0.1969
  187POPC  H13B21487   2.866   1.836   2.348 -0.8777  2.9372 -1.3598
  187POPC  H13C21488   2.775   1.842   2.203 -0.4333 -0.0898  0.2186
  187POPC   C1421489   2.944   1.648   2.213  0.2130  0.2411 -0.5780
  187POPC  H14A21490   2.952   1.713   2.127 -1.4045 -0.7038 -1.4747
  187POPC  H14B21491   3.021   1.685   2.280  0.3414  0.4266 -0.8232
  187POPC  H14C21492   2.969   1.546   2.188 -0.2000 -0.2719  0.9980
  187POPC   C1521493   2.713   1.596   2.175 -0.3149 -0.8167 -0.1205
  187POPC  H15A21494   2.723   1.488   2.176  0.0330 -0.7937 -0.8004
  187POPC  H15B21495   2.745   1.635   2.079  2.4364  0.5306  1.2374
  187POPC  H15C21496   2.612   1.632   2.187 -0.0584 -0.1242 -0.0118
  187POPC   C1121497   2.881   1.428   2.416 -0.6188 -0.0194 -0.2048
  187POPC  H11A21498   2.863   1.405   2.523  1.1847  0.9111  0.3340
  187POPC  H11B21499   2.983   1.454   2.382 -0.6877  0.3744 -0.1100
  187POPC     P21500   2.886   1.253   2.211  0.0615 -0.0697  0.4705
  187POPC   O1321501   2.960   1.354   2.122  0.2353  0.0929 -0.4974
  187POPC   O1421502   2.783   1.162   2.146  0.2723  0.0818  0.4630
  187POPC   O1221503   2.811   1.337   2.331 -0.2240  0.3203 -0.2320
  187POPC   O1121504   2.994   1.167   2.292 -0.0111  0.0456  0.3591
  187POPC    C121505   2.958   1.032   2.341  0.6189 -0.4978  0.5292
  187POPC    HA21506   3.049   0.969   2.348  0.0930 -1.2657  0.6226
  187POPC    HB21507   2.898   0.978   2.265 -0.4096  1.2660  0.0336
  187POPC    C221508   2.898   1.026   2.482  0.0911 -0.5019  1.0232
  187POPC    HS21509   2.802   1.081   2.475  0.3501 -0.2496 -0.8334
  187POPC   O2121510   2.985   1.085   2.585  0.5906 -0.0881 -0.0828
  187POPC   C2121511   2.916   1.160   2.671  0.1720  0.0951 -0.3356
  187POPC   O2221512   2.798   1.194   2.670 -0.6389  0.1210 -0.4480
  187POPC   C2221513   3.008   1.199   2.784  0.3912  0.0059 -0.1927
  187POPC   H2R21514   3.101   1.251   2.751  0.4471 -0.7748 -1.2787
  187POPC   H2S21515   3.037   1.101   2.827 -1.8114 -0.6538 -0.1275
  187POPC    C321516   2.864   0.880   2.518  0.0149 -1.0987 -0.8987
  187POPC    HX21517   2.958   0.823   2.501 -0.3145 -1.8311 -0.3573
  187POPC    HY21518   2.786   0.845   2.448  1.6463 -3.1060 -1.8125
  187POPC   O3121519   2.826   0.871   2.660 -0.2240  0.0712 -0.0051
  187POPC   C3121520   2.770   0.765   2.715  0.0595 -0.4719 -0.0115
  187POPC   O3221521   2.745   0.660   2.657  0.3690  0.3712  0.5597
  187POPC   C3221522   2.734   0.797   2.860 -0.5147  0.3289  0.1384
  187POPC   H2X21523   2.679   0.706   2.892 -0.0328  0.4258  1.2820
  187POPC   H2Y21524   2.656   0.876   2.869 -0.5090  0.1850  1.7888
  187POPC   C2321525   2.938   1.275   2.902 -0.2227  0.0883 -0.1756
  187POPC   H3R21526   2.882   1.203   2.966 -2.1660  1.5625 -0.1338
  187POPC   H3S21527   2.858   1.340   2.860 -0.7532 -0.0141  0.6365
  187POPC   C2421528   3.039   1.354   2.994  0.1403  0.7214 -0.0082
  187POPC   H4R21529   3.091   1.416   2.918  1.5639 -0.8937 -0.3969
  187POPC   H4S21530   3.105   1.280   3.043 -2.0068 -1.4834 -0.2260
  187POPC   C2521531   2.969   1.446   3.096  0.1007 -0.1528 -0.1489
  187POPC   H5R21532   2.905   1.523   3.048 -0.5321 -0.7906 -0.3589
  187POPC   H5S21533   3.049   1.504   3.146  1.2472 -0.5431 -1.4932
  187POPC   C2621534   2.885   1.362   3.197  0.2215 -0.8783 -0.8842
  187POPC   H6R21535   2.947   1.274   3.223  0.8674 -0.2711 -0.3417
  187POPC   H6S21536   2.795   1.329   3.140 -0.3244 -0.7878 -0.0887
  187POPC   C2721537   2.829   1.437   3.331  0.3706 -0.9317 -0.1941
  187POPC   H7R21538   2.765   1.363   3.384 -0.8756  0.7306  0.6798
  187POPC   H7S21539   2.758   1.511   3.291 -1.6046 -2.2960  0.6115
  187POPC   C2821540   2.934   1.500   3.427 -0.0741  0.4602 -0.2393
  187POPC   H8R21541   2.886   1.560   3.507  0.7402  0.4033  0.3103
  187POPC   H8S21542   3.000   1.562   3.362  0.2802 -0.6119 -0.9259
  187POPC   C2921543   3.011   1.382   3.481  0.0208 -0.1293 -0.0292
  187POPC   H9121544   3.058   1.323   3.402  2.2723 -1.6928  2.3263
  187POPC  C21021545   3.043   1.351   3.605  0.4190  0.3699 -0.5953
  187POPC  H10121546   3.119   1.273   3.618 -0.0345  0.0388  0.1641
  187POPC  C21121547   2.994   1.430   3.731 -0.2709 -0.1375 -0.6056
  187POPC  H11R21548   2.934   1.356   3.789  1.2657 -0.3042  0.8672
  187POPC  H11S21549   2.931   1.515   3.698 -0.3574 -0.6100 -1.7142
  187POPC  C21221550   3.110   1.492   3.822  0.1421  0.1221 -0.0128
  187POPC  H12R21551   3.147   1.573   3.757 -0.1476  0.2316 -0.0415
  187POPC  H12S21552   3.189   1.415   3.838 -1.0629 -1.2019 -0.1851
  187POPC  C21321553   3.065   1.538   3.959 -0.2395 -0.5696  0.2690
  187POPC  H13R21554   3.005   1.461   4.012  0.5569 -1.1087  0.4112
  187POPC  H13S21555   2.998   1.626   3.960  0.1561 -0.1971 -1.7219
  187POPC  C21421556   3.193   1.567   4.040  0.1694  0.0643 -0.6088
  187POPC  H14R21557   3.266   1.485   4.021  0.7903  0.2476  0.8317
  187POPC  H14S21558   3.166   1.569   4.148 -0.2256 -0.9979 -0.6682
  187POPC  C21521559   3.271   1.689   3.991  0.2821  0.1459  0.5545
  187POPC  H15R21560   3.204   1.777   3.980 -3.4315 -2.4458  0.7250
  187POPC  H15S21561   3.324   1.680   3.894  1.6445  0.4196  1.2526
  187POPC  C21621562   3.369   1.730   4.103 -0.1502  0.6985  0.1556
  187POPC  H16R21563   3.440   1.647   4.124  0.6006  1.5856  1.2354
  187POPC  H16S21564   3.311   1.753   4.195 -0.0028  1.6217  0.0300
  187POPC  C21721565   3.457   1.854   4.064 -0.4199  1.1235 -0.0791
  187POPC  H17R21566   3.499   1.836   3.963  1.3738  0.2749  0.7789
  187POPC  H17S21567   3.547   1.865   4.128  0.1450 -0.6107 -0.5249
  187POPC  C21821568   3.393   1.990   4.071 -1.0608 -0.0014  0.5712
  187POPC  H18R21569   3.477   2.062   4.057  0.0093 -1.4802 -1.0375
  187POPC  H18S21570   3.345   2.010   4.169 -0.6906 -0.7001  0.8992
  187POPC  H18T21571   3.323   1.995   3.985  2.1631 -0.4732 -2.3429
  187POPC   C3321572   2.861   0.832   2.946  0.8064 -0.5588  0.2470
  187POPC   H3X21573   2.902   0.932   2.922  1.0156 -0.7022 -0.0092
  187POPC   H3Y21574   2.949   0.768   2.921  1.5106 -0.4464  2.2036
  187POPC   C3421575   2.825   0.827   3.092 -0.0911 -0.2563 -0.0732
  187POPC   H4X21576   2.776   0.733   3.125 -0.8930  0.3079  0.3734
  187POPC   H4Y21577   2.753   0.907   3.119  1.2693  1.1714 -0.5527
  187POPC   C3521578   2.941   0.857   3.182 -0.0085 -0.1002 -0.4256
  187POPC   H5X21579   3.022   0.793   3.140 -0.4011  0.4261 -2.0529
  187POPC   H5Y21580   2.905   0.830   3.284 -0.6329  0.4106 -0.5069
  187POPC   C3621581   3.003   0.997   3.187 -0.7389  0.0168  0.6847
  187POPC   H6X21582   2.932   1.064   3.240 -1.4750 -0.5919  0.5002
  187POPC   H6Y21583   3.021   1.028   3.082 -0.9838 -1.9005  0.0191
  187POPC   C3721584   3.130   1.021   3.261  0.0765  0.6289 -0.2172
  187POPC   H7X21585   3.185   1.114   3.236  0.2029  0.2409 -1.4596
  187POPC   H7Y21586   3.197   0.937   3.233 -2.8045 -1.5287 -1.1602
  187POPC   C3821587   3.109   1.011   3.416  0.5705 -0.5069  0.7044
  187POPC   H8X21588   3.055   0.917   3.439 -0.2157  0.2608  2.1225
  187POPC   H8Y21589   3.043   1.090   3.457  0.7359 -0.2683  0.5204
  187POPC   C3921590   3.234   1.023   3.489  0.3881  0.0154 -0.2265
  187POPC   H9X21591   3.257   1.132   3.491  1.3445 -0.1811  0.0757
  187POPC   H9Y21592   3.315   0.975   3.429  0.9077  0.8179 -0.1831
  187POPC  C31021593   3.219   0.948   3.616  0.5523  0.3082 -0.4815
  187POPC  H10X21594   3.321   0.924   3.654  0.1599 -1.0237 -0.2346
  187POPC  H10Y21595   3.180   0.848   3.589  1.2714 -0.4104  0.9829
  187POPC  C31121596   3.125   1.006   3.723  0.0852 -0.4751 -0.5060
  187POPC  H11X21597   3.024   1.035   3.687 -0.3819  0.9330  1.7229
  187POPC  H11Y21598   3.170   1.099   3.763  0.4465 -0.5081 -0.8211
  187POPC  C31221599   3.115   0.912   3.841  0.1069 -0.1469 -0.0635
  187POPC  H12X21600   3.215   0.871   3.865 -0.6075 -1.4325  0.8156
  187POPC  H12Y21601   3.052   0.826   3.811 -1.0228  0.4711  0.4835
  187POPC  C31321602   3.070   0.978   3.973 -0.4548 -0.1518 -0.4205
  187POPC  H13X21603   3.134   1.069   3.978  0.4451 -0.6616 -1.7768
  187POPC  H13Y21604   3.098   0.913   4.058  1.3532  0.7027 -0.3182
  187POPC  C31421605   2.916   0.999   3.977  0.0064  0.0153  0.6827
  187POPC  H14X21606   2.862   0.909   3.942  1.3521  0.2367 -2.1764
  187POPC  H14Y21607   2.876   1.083   3.916 -0.6221  0.5680  1.8181
  187POPC  C31521608   2.878   1.023   4.125 -0.5333 -0.1372  0.6024
  187POPC  H15X21609   2.924   1.115   4.166  0.5658  0.7658 -2.3760
  187POPC  H15Y21610   2.921   0.935   4.177  0.4948  0.1097  0.1905
  187POPC  C31621611   2.730   1.037   4.168 -0.1947 -0.3389  0.4066
  187POPC  H16X21612   2.674   0.956   4.117 -0.0209 -0.7461  0.8463
  187POPC  H16Y21613   2.691   1.137   4.139 -3.7999 -1.2635  1.5987
  187POPC  H16Z21614   2.719   1.019   4.277  2.8325 -1.3340  0.6408
  188POPC     N21615   4.323   1.099   1.628 -0.3698 -0.0991  0.0330
  188POPC   C1221616   4.386   1.031   1.743  0.6635 -0.4873  0.1258
  188POPC  H12A21617   4.474   1.085   1.774  1.0856  0.8953 -3.1274
  188POPC  H12B21618   4.426   0.938   1.705 -1.9438 -0.9505 -1.7094
  188POPC   C1321619   4.271   1.234   1.669 -0.0936  0.5638  0.3887
  188POPC  H13A21620   4.355   1.281   1.718 -0.2465  1.1117  0.1357
  188POPC  H13B21621   4.241   1.295   1.584  1.1087  0.0296 -0.4488
  188POPC  H13C21622   4.180   1.225   1.726 -0.7888 -1.0275 -0.8807
  188POPC   C1421623   4.444   1.129   1.536  0.5191 -0.0377 -0.3855
  188POPC  H14A21624   4.427   1.208   1.464  0.6566  0.8966  0.5804
  188POPC  H14B21625   4.523   1.169   1.597 -2.3129  1.3824  2.6842
  188POPC  H14C21626   4.474   1.037   1.488 -0.5422 -0.7299  0.2170
  188POPC   C1521627   4.226   1.015   1.558  0.4495  0.3989  0.8990
  188POPC  H15A21628   4.129   1.014   1.605 -0.0921 -1.1814 -0.1720
  188POPC  H15B21629   4.257   0.912   1.559  1.4977  0.7037  1.5168
  188POPC  H15C21630   4.219   1.054   1.457 -0.1835 -0.5517  0.5617
  188POPC   C1121631   4.295   1.007   1.866 -0.0371  0.2024  0.2287
  188POPC  H11A21632   4.274   1.108   1.908  2.1926  1.1340 -0.7177
  188POPC  H11B21633   4.350   0.961   1.951  0.0755 -0.9822 -0.4700
  188POPC     P21634   4.158   0.784   1.839  0.5191 -0.2681 -0.1559
  188POPC   O1321635   4.263   0.725   1.755  0.5473 -0.8090  0.0043
  188POPC   O1421636   4.025   0.742   1.789 -0.1306 -0.5066  0.3926
  188POPC   O1221637   4.170   0.942   1.839  0.2823  0.4827  0.2014
  188POPC   O1121638   4.183   0.744   1.987  0.2793  0.1386  0.2323
  188POPC    C121639   4.097   0.783   2.093 -0.0638 -0.9778 -0.2243
  188POPC    HA21640   4.073   0.690   2.149 -0.2324  0.4986  2.2549
  188POPC    HB21641   4.002   0.832   2.061  0.2591  0.6831  1.2613
  188POPC    C221642   4.174   0.864   2.198 -0.2935 -0.6387 -0.0931
  188POPC    HS21643   4.221   0.950   2.146 -1.1280 -0.3336 -0.3557
  188POPC   O2121644   4.279   0.788   2.262 -0.3795 -0.0964 -0.5675
  188POPC   C2121645   4.386   0.858   2.309  0.0049  0.3966 -0.0500
  188POPC   O2221646   4.412   0.971   2.271  0.0911  0.6628 -0.1115
  188POPC   C2221647   4.473   0.755   2.385 -0.6457 -0.0526 -0.3912
  188POPC   H2R21648   4.541   0.698   2.318  0.6006 -0.1422  0.8930
  188POPC   H2S21649   4.407   0.695   2.451 -0.5932  0.0648 -0.2308
  188POPC    C321650   4.076   0.926   2.309 -0.3200 -0.4703  0.1450
  188POPC    HX21651   4.034   0.844   2.371  1.1427 -1.4484 -0.1089
  188POPC    HY21652   3.986   0.964   2.256 -1.1500 -2.3955  0.1154
  188POPC   O3121653   4.147   1.013   2.398  0.0577 -0.4621  0.1093
  188POPC   C3121654   4.147   1.147   2.362 -0.2764 -0.3292 -0.1536
  188POPC   O3221655   4.085   1.194   2.270 -0.1412  0.6244 -0.2620
  188POPC   C3221656   4.229   1.226   2.459 -0.7488  0.2543  0.5729
  188POPC   H2X21657   4.151   1.292   2.503 -0.5401  0.1206  1.1589
  188POPC   H2Y21658   4.304   1.276   2.394 -2.3276  1.0940 -0.6674
  188POPC   C2321659   4.570   0.823   2.482  0.0930  0.3280 -0.1835
  188POPC   H3R21660   4.514   0.879   2.560  0.1057  0.3560 -0.1946
  188POPC   H3S21661   4.643   0.884   2.424  0.7042  0.8078  1.0532
  188POPC   C2421662   4.644   0.724   2.569  0.6291  1.1285 -0.2761
  188POPC   H4R21663   4.719   0.667   2.510  1.1731  0.9761  0.5512
  188POPC   H4S21664   4.574   0.647   2.607  0.4998  0.5270 -1.6682
  188POPC   C2521665   4.717   0.792   2.685  0.0845  0.5284  0.0942
  188POPC   H5R21666   4.637   0.828   2.754 -0.1832 -1.2448  0.7535
  188POPC   H5S21667   4.777   0.873   2.637  1.3798 -0.5691 -0.1991
  188POPC   C2621668   4.800   0.693   2.774 -0.4746 -0.3345 -0.3118
  188POPC   H6R21669   4.835   0.729   2.872 -0.8815 -0.5269 -0.0915
  188POPC   H6S21670   4.889   0.686   2.708 -0.9077  1.3318 -1.1482
  188POPC   C2721671   4.754   0.543   2.790  0.5386 -1.0443 -0.2502
  188POPC   H7R21672   4.834   0.478   2.831 -0.3139 -1.5246  0.7214
  188POPC   H7S21673   4.705   0.506   2.698 -0.9735  0.7772 -0.2423
  188POPC   C2821674   4.640   0.558   2.903  0.4799  0.2571  0.6265
  188POPC   H8R21675   4.587   0.460   2.899  1.9412 -0.5464 -0.0641
  188POPC   H8S21676   4.565   0.631   2.866 -0.1214 -0.6898 -0.0567
  188POPC   C2921677   4.698   0.579   3.047 -0.2074 -0.9873  0.2936
  188POPC   H9121678   4.756   0.495   3.088 -1.6555 -2.4619 -0.5419
  188POPC  C21021679   4.669   0.688   3.121 -0.4153  0.0671 -0.7730
  188POPC  H10121680   4.719   0.677   3.218 -2.9087 -0.9886  0.4678
  188POPC  C21121681   4.582   0.804   3.084 -0.0273 -0.1359 -0.0240
  188POPC  H11R21682   4.532   0.794   2.985 -0.1139  0.3392 -0.0332
  188POPC  H11S21683   4.634   0.900   3.063 -0.4556  0.3047  0.8591
  188POPC  C21221684   4.469   0.835   3.182  0.5240 -0.4551  0.1943
  188POPC  H12R21685   4.453   0.750   3.251  0.2591 -2.3988 -2.1014
  188POPC  H12S21686   4.373   0.870   3.139  0.2569 -0.9760  0.3673
  188POPC  C21321687   4.510   0.963   3.263 -0.7163  0.1545 -0.8262
  188POPC  H13R21688   4.411   0.998   3.301 -1.9689 -1.8414 -2.0566
  188POPC  H13S21689   4.552   1.046   3.203 -1.6190  0.6427 -0.8017
  188POPC  C21421690   4.625   0.951   3.361 -0.2495  0.2521  0.6187
  188POPC  H14R21691   4.681   1.046   3.373  0.2955  0.1772 -1.0528
  188POPC  H14S21692   4.689   0.868   3.324 -0.8988  0.2252 -0.4973
  188POPC  C21521693   4.571   0.905   3.493 -0.0006 -0.1103 -0.4339
  188POPC  H15R21694   4.494   0.827   3.475 -0.1983 -0.1347  0.4408
  188POPC  H15S21695   4.528   0.992   3.547  2.1282  0.8897 -0.2337
  188POPC  C21621696   4.678   0.864   3.594  0.6595 -0.2553 -0.4942
  188POPC  H16R21697   4.757   0.943   3.595  1.3524 -0.8990 -1.8763
  188POPC  H16S21698   4.724   0.771   3.555 -0.1686 -1.5435  1.4560
  188POPC  C21721699   4.623   0.841   3.736 -0.6388  0.2104 -0.2919
  188POPC  H17R21700   4.527   0.788   3.717  0.4701 -1.6313 -0.9955
  188POPC  H17S21701   4.618   0.938   3.789 -0.6585 -0.7946  1.6460
  188POPC  C21821702   4.705   0.746   3.823  0.5357 -0.8114 -0.2396
  188POPC  H18R21703   4.805   0.791   3.844 -0.5419  1.4591  0.3942
  188POPC  H18S21704   4.709   0.650   3.768  1.9345 -0.5060 -0.7351
  188POPC  H18T21705   4.652   0.731   3.919 -3.4055  1.1286 -1.8975
  188POPC   C3321706   4.290   1.143   2.578  0.6022 -0.7275  0.6974
  188POPC   H3X21707   4.351   1.057   2.545 -0.4846 -1.4037  0.4108
  188POPC   H3Y21708   4.202   1.099   2.629 -0.8455  0.6871 -0.4601
  188POPC   C3421709   4.368   1.231   2.673 -0.1143  0.3096 -0.3064
  188POPC   H4X21710   4.307   1.320   2.700  0.2314  0.8646 -1.3095
  188POPC   H4Y21711   4.444   1.265   2.599 -0.6202 -1.4792 -1.7104
  188POPC   C3521712   4.436   1.157   2.786  0.1091 -0.2839 -0.2257
  188POPC   H5X21713   4.534   1.201   2.814  0.7239 -1.9041  0.2845
  188POPC   H5Y21714   4.456   1.052   2.757 -1.6113 -0.1502 -2.1229
  188POPC   C3621715   4.360   1.140   2.913 -0.7215 -0.4534  0.2120
  188POPC   H6X21716   4.409   1.063   2.976  0.2518 -1.1515 -1.3250
  188POPC   H6Y21717   4.252   1.124   2.893 -0.5776 -1.9394  0.5185
  188POPC   C3721718   4.380   1.264   3.011  0.5137 -0.6638  0.1102
  188POPC   H7X21719   4.353   1.356   2.954  3.2001 -1.5105 -2.7891
  188POPC   H7Y21720   4.484   1.267   3.049 -0.1137  1.6430  1.8871
  188POPC   C3821721   4.289   1.254   3.136 -0.3284  0.1548 -0.5242
  188POPC   H8X21722   4.291   1.152   3.181 -2.5576  0.9008  1.5026
  188POPC   H8Y21723   4.186   1.277   3.101 -0.9491 -0.3432  0.9183
  188POPC   C3921724   4.330   1.343   3.249 -0.7988  0.4100  0.3236
  188POPC   H9X21725   4.313   1.451   3.232  0.0821  0.4970 -0.0518
  188POPC   H9Y21726   4.440   1.352   3.261 -0.5699  2.7900 -2.4108
  188POPC  C31021727   4.271   1.285   3.379 -0.2694  0.0916  0.7860
  188POPC  H10X21728   4.288   1.177   3.395 -0.0770  0.4680  3.5424
  188POPC  H10Y21729   4.160   1.295   3.376 -0.1382  1.7763  0.6079
  188POPC  C31121730   4.306   1.348   3.516 -0.1430 -0.1663  0.1158
  188POPC  H11X21731   4.269   1.452   3.512 -0.0581 -0.0760  1.2540
  188POPC  H11Y21732   4.413   1.341   3.545  0.1137 -2.4475 -1.1166
  188POPC  C31221733   4.228   1.278   3.633 -0.9167  0.1434 -0.2713
  188POPC  H12X21734   4.285   1.186   3.655  1.4206  1.2716 -1.3182
  188POPC  H12Y21735   4.133   1.233   3.597 -0.2193 -1.7685  0.1575
  188POPC  C31321736   4.230   1.372   3.755 -0.3637 -0.0816 -0.7141
  188POPC  H13X21737   4.175   1.462   3.721  2.8363  1.8442 -1.2228
  188POPC  H13Y21738   4.334   1.407   3.770 -0.1713 -0.0704 -1.9582
  188POPC  C31421739   4.162   1.302   3.877 -0.3061  0.2668 -0.0217
  188POPC  H14X21740   4.190   1.356   3.970 -0.9459  0.0103  0.3271
  188POPC  H14Y21741   4.193   1.195   3.886  0.1416  0.0204 -3.2558
  188POPC  C31521742   4.015   1.297   3.868  0.0289 -0.1678 -0.8511
  188POPC  H15X21743   3.983   1.239   3.779 -1.5620  1.9234 -1.7205
  188POPC  H15Y21744   3.963   1.393   3.848 -1.1340 -0.7696 -0.8095
  188POPC  C31621745   3.949   1.231   3.989  0.7444 -0.2603 -0.6467
  188POPC  H16X21746   3.958   1.290   4.082 -2.9661 -1.7530  0.8450
  188POPC  H16Y21747   3.998   1.132   4.003  1.1663  0.1167  0.6378
  188POPC  H16Z21748   3.839   1.225   3.976  0.7024 -2.9765  0.3364
  189SAPI   C1221749   6.023   5.793   7.133 -0.1815 -0.6912 -0.2083
  189SAPI    H221750   5.971   5.771   7.228  1.5494 -2.5877  0.3752
  189SAPI    O221751   5.926   5.820   7.030  0.0818  1.0060  0.5043
  189SAPI   HO221752   5.844   5.778   7.057  1.0031 -1.1754  0.1403
  189SAPI   C1321753   6.121   5.900   7.162 -0.5129  1.0689 -0.2226
  189SAPI    H321754   6.201   5.870   7.232 -2.7355 -2.4844  1.0731
  189SAPI    O321755   6.066   6.010   7.228 -0.0887  0.0143  0.5052
  189SAPI   HO321756   6.039   5.979   7.315  0.9056 -0.6512  0.5880
  189SAPI   C1421757   6.194   5.928   7.034 -0.6818 -0.6272  0.7746
  189SAPI    H421758   6.120   5.992   6.979  0.5935  1.0985  0.9931
  189SAPI    O421759   6.303   6.020   7.059  0.0932  0.0714  0.0195
  189SAPI   HO421760   6.284   6.105   7.021 -2.3835 -1.4346 -2.4760
  189SAPI   C1521761   6.242   5.819   6.952 -0.8533 -0.9456  0.6162
  189SAPI    H521762   6.347   5.797   6.981 -0.2033  1.4586  0.2661
  189SAPI    O521763   6.245   5.855   6.811 -0.5207 -0.6009 -0.6899
  189SAPI   HO521764   6.315   5.807   6.765 -0.5243 -2.7554  1.4077
  189SAPI   C1621765   6.169   5.686   6.969 -0.4507 -0.8652  0.4516
  189SAPI    H621766   6.087   5.676   6.894  1.2292  1.3364 -1.8533
  189SAPI    O621767   6.259   5.577   6.936  0.0782  1.0482 -0.1733
  189SAPI   HO621768   6.201   5.501   6.953 -0.7157  1.0023 -2.6733
  189SAPI   C1121769   6.098   5.662   7.097 -0.8009  0.4073 -0.3166
  189SAPI    H121770   6.176   5.641   7.173  0.3835 -2.2575 -2.1079
  189SAPI     P21771   6.033   5.403   7.128  0.2569 -0.2652  0.6749
  189SAPI   O1321772   5.905   5.333   7.123  0.6665 -0.0767 -1.0179
  189SAPI   O1421773   6.112   5.404   7.252  0.2232  0.4924  0.5503
  189SAPI   O1221774   5.998   5.559   7.094  0.4777  0.3299  0.2539
  189SAPI   O1121775   6.111   5.364   7.006  0.2950 -0.1639  0.3961
  189SAPI    C121776   6.038   5.326   6.886 -0.0691  0.5079 -0.3128
  189SAPI    HA21777   5.979   5.235   6.908 -0.4515  0.4957 -1.3404
  189SAPI    HB21778   5.965   5.404   6.857 -0.6437  0.3012  0.5514
  189SAPI    C221779   6.122   5.312   6.759 -0.0590  0.3517  0.1575
  189SAPI    HS21780   6.211   5.247   6.778  0.1893  0.7786  0.4686
  189SAPI   O2121781   6.166   5.440   6.710  0.1377 -0.2939  0.4040
  189SAPI   C2121782   6.288   5.449   6.657  0.1563 -0.1071 -0.6660
  189SAPI   O2221783   6.360   5.352   6.657 -0.5116  0.5105 -0.7408
  189SAPI   C2221784   6.306   5.587   6.594 -0.6066  0.1719 -0.1450
  189SAPI   H2R21785   6.208   5.635   6.614 -0.2881  0.6665  0.2714
  189SAPI   H2S21786   6.386   5.641   6.650 -1.4362 -0.2775  1.5191
  189SAPI    C321787   6.045   5.228   6.651  0.2293  0.0739  0.5754
  189SAPI    HX21788   5.957   5.293   6.634 -0.3821 -0.1769  2.5037
  189SAPI    HY21789   6.008   5.132   6.692 -0.1839  1.2268  3.1481
  189SAPI   O3121790   6.118   5.208   6.529  0.2160 -0.3957 -0.2734
  189SAPI   C3121791   6.190   5.096   6.534 -0.7423 -0.1978 -0.3510
  189SAPI   O3221792   6.191   5.013   6.622 -0.3973 -0.1648 -0.1503
  189SAPI   C3221793   6.275   5.093   6.403 -0.0979  0.0773 -0.3430
  189SAPI   H2X21794   6.382   5.085   6.429 -0.3368  1.3563  1.1617
  189SAPI   H2Y21795   6.275   5.195   6.359  0.7449 -0.0778 -0.7155
  189SAPI   C2321796   6.334   5.573   6.440 -0.2338  0.1464 -0.0733
  189SAPI   H3R21797   6.425   5.513   6.424  1.1296  1.9032  0.7241
  189SAPI   H3S21798   6.350   5.677   6.404 -0.0285 -0.3073 -1.3399
  189SAPI   C2421799   6.215   5.512   6.370 -0.3666 -0.7726 -0.1124
  189SAPI   H4R21800   6.125   5.574   6.390  0.8125  0.8373  0.4451
  189SAPI   H4S21801   6.193   5.409   6.403 -2.3383 -0.4100 -0.1467
  189SAPI   C2521802   6.237   5.497   6.224 -0.5597  0.3439 -0.3385
  189SAPI   H5R21803   6.261   5.404   6.172  0.0828  1.4450 -2.1164
  189SAPI   C2621804   6.207   5.596   6.134 -0.5149  0.6344  0.3684
  189SAPI   H6R21805   6.231   5.563   6.032 -1.3600  1.3610 -0.0815
  189SAPI   C2721806   6.157   5.734   6.151 -0.5898 -0.6313  0.2598
  189SAPI   H7R21807   6.221   5.787   6.224 -0.5182 -0.0810 -0.2025
  189SAPI   H7S21808   6.061   5.732   6.208  1.1050 -1.6152  3.2698
  189SAPI   C2821809   6.154   5.813   6.026 -0.1410  0.3277 -0.8851
  189SAPI   H8R21810   6.248   5.868   6.007  1.0014 -1.7411 -1.5327
  189SAPI   C2921811   6.062   5.808   5.924 -1.1067 -0.3422  0.0511
  189SAPI   H9R21812   6.081   5.874   5.838 -0.7482  0.6941  0.9157
  189SAPI  C21021813   5.938   5.729   5.916 -0.2128 -0.4266  0.0912
  189SAPI  H10R21814   5.865   5.796   5.966  0.7943  0.7141  0.0779
  189SAPI  H10S21815   5.952   5.639   5.980  0.4169 -0.0613  0.4832
  189SAPI  C21121816   5.858   5.689   5.791  0.4493 -0.6669 -0.1379
  189SAPI  H11R21817   5.753   5.685   5.821  1.1460 -0.0561  2.7055
  189SAPI  C21221818   5.906   5.665   5.664  0.1127  0.1989 -0.3373
  189SAPI  H12R21819   5.835   5.647   5.581 -0.0850  1.7867 -0.5404
  189SAPI  C21321820   6.046   5.674   5.608 -0.2625  0.5960  0.1311
  189SAPI  H13R21821   6.070   5.574   5.566 -2.1756  0.4093 -0.6264
  189SAPI  H13S21822   6.116   5.681   5.693 -2.8558  1.3824  2.3518
  189SAPI  C21421823   6.043   5.793   5.512  0.3056  0.4090  0.8840
  189SAPI  H14R21824   6.012   5.888   5.556 -0.8057 -0.0290  1.0803
  189SAPI  C21521825   6.088   5.796   5.383  0.3500 -0.4165  0.0838
  189SAPI  H15R21826   6.080   5.894   5.334  0.9360  0.3146  1.3782
  189SAPI  C21621827   6.137   5.677   5.300 -0.2183 -0.0444 -0.2092
  189SAPI  H16R21828   6.178   5.596   5.364 -1.4238 -0.3044  0.2608
  189SAPI  H16S21829   6.217   5.721   5.236 -1.6994  1.4311 -1.1477
  189SAPI  C21721830   6.026   5.616   5.220 -0.0918  0.0323 -0.0723
  189SAPI  H17R21831   5.952   5.680   5.166 -1.9270 -1.2985  0.7530
  189SAPI  H17S21832   5.971   5.558   5.298  0.7614  1.8795  2.0087
  189SAPI  C21821833   6.093   5.533   5.104  0.2459  0.8458 -0.4002
  189SAPI  H18R21834   6.009   5.469   5.070  1.4769 -1.6855  1.0187
  189SAPI  H18S21835   6.164   5.464   5.154 -0.4379 -0.6487 -1.4301
  189SAPI  C21921836   6.152   5.608   4.986  0.1285  0.1658 -0.5088
  189SAPI  H19R21837   6.236   5.666   5.030 -1.2433  1.1010  1.0074
  189SAPI  H19S21838   6.083   5.688   4.952 -0.7120 -0.3650 -0.0845
  189SAPI  C22021839   6.188   5.527   4.863 -0.9611  0.2577 -0.3664
  189SAPI  H20R21840   6.094   5.489   4.818 -1.7804 -0.4556  1.8351
  189SAPI  H20S21841   6.242   5.434   4.889  0.9496  1.9904  2.3549
  189SAPI  H20T21842   6.257   5.590   4.802  1.8139 -2.0983  0.1234
  189SAPI   C3321843   6.212   4.984   6.310 -0.6482  0.2337  1.0376
  189SAPI   H3X21844   6.202   5.035   6.212 -0.7762 -2.4310 -0.4400
  189SAPI   H3Y21845   6.107   4.955   6.330 -0.9006  0.7523  0.4933
  189SAPI   C3421846   6.302   4.864   6.286  0.4314 -0.5683  0.1448
  189SAPI   H4X21847   6.313   4.824   6.389  2.3467  0.7129  0.4914
  189SAPI   H4Y21848   6.401   4.892   6.245 -0.3577 -0.1098 -1.5475
  189SAPI   C3521849   6.244   4.759   6.188  0.6176  0.6805  0.4114
  189SAPI   H5X21850   6.140   4.730   6.212  0.4235  0.9554 -0.0658
  189SAPI   H5Y21851   6.308   4.669   6.194  1.5714  1.3871  1.2204
  189SAPI   C3621852   6.219   4.814   6.051 -0.6769 -0.1615 -0.1073
  189SAPI   H6X21853   6.318   4.833   6.005 -1.2001  0.2431 -1.0936
  189SAPI   H6Y21854   6.172   4.915   6.053  0.5573  0.4324  1.2246
  189SAPI   C3721855   6.149   4.717   5.963  0.0779 -0.6345  0.5665
  189SAPI   H7X21856   6.057   4.669   6.003  0.3028 -0.3134  1.4879
  189SAPI   H7Y21857   6.221   4.633   5.947 -2.0076 -2.5157  0.5791
  189SAPI   C3821858   6.123   4.776   5.826  0.0161 -0.4847  0.5975
  189SAPI   H8X21859   6.142   4.885   5.837 -4.8042  0.4727  1.7281
  189SAPI   H8Y21860   6.014   4.780   5.804  0.3875  0.2254 -1.2235
  189SAPI   C3921861   6.198   4.706   5.707  0.6055  0.1055 -0.7467
  189SAPI   H9X21862   6.191   4.596   5.721 -0.4033 -0.3286 -3.8985
  189SAPI   H9Y21863   6.304   4.741   5.714 -0.0371  1.9936  0.2765
  189SAPI  C31021864   6.124   4.743   5.575  0.1409 -1.1018  0.2411
  189SAPI  H10X21865   6.133   4.853   5.562  0.0934 -1.2708 -1.3986
  189SAPI  H10Y21866   6.017   4.712   5.572 -0.1209 -0.7288  3.1441
  189SAPI  C31121867   6.184   4.672   5.451 -0.2661  0.0963 -0.3145
  189SAPI  H11X21868   6.165   4.563   5.461  1.9348 -0.4888 -1.7600
  189SAPI  H11Y21869   6.294   4.689   5.452 -0.3692  0.8277 -0.4915
  189SAPI  C31221870   6.143   4.727   5.310  0.2228  0.6501 -0.3480
  189SAPI  H12X21871   6.192   4.822   5.281  0.7232  0.5484  0.1469
  189SAPI  H12Y21872   6.033   4.741   5.318  0.6334  3.8212  1.7373
  189SAPI  C31321873   6.180   4.630   5.193 -0.5563  0.2225 -0.2137
  189SAPI  H13X21874   6.129   4.533   5.211  0.1640 -0.3719 -1.2459
  189SAPI  H13Y21875   6.288   4.610   5.209  0.1078  2.5840 -1.2552
  189SAPI  C31421876   6.142   4.698   5.060 -0.0868  0.5383 -0.6706
  189SAPI  H14X21877   6.186   4.799   5.054 -0.1440  0.7053  1.1033
  189SAPI  H14Y21878   6.033   4.713   5.047  0.0965  1.1142 -1.5958
  189SAPI  C31521879   6.195   4.602   4.951  0.0248 -0.5650  0.0306
  189SAPI  H15X21880   6.133   4.511   4.962 -2.1999  0.6135 -1.7691
  189SAPI  H15Y21881   6.302   4.573   4.957  0.1155 -0.0709  1.0028
  189SAPI  C31621882   6.171   4.660   4.808 -0.3260 -0.0492 -0.4651
  189SAPI  H16X21883   6.071   4.708   4.807 -1.8410 -2.9188  0.5934
  189SAPI  H16Y21884   6.168   4.569   4.745  1.2956  0.6115 -1.5469
  189SAPI  C31721885   6.277   4.756   4.760 -0.3284 -0.1500 -0.1394
  189SAPI  H17X21886   6.287   4.844   4.827 -1.1937 -0.0487 -0.1341
  189SAPI  H17Y21887   6.233   4.792   4.665 -0.7596  2.3384  0.9206
  189SAPI  C31821888   6.413   4.688   4.743 -0.2376  0.7713 -0.2964
  189SAPI  H18X21889   6.452   4.647   4.839  0.4944  0.3232 -0.7738
  189SAPI  H18Y21890   6.495   4.758   4.716  0.6760 -0.6351 -1.3198
  189SAPI  H18Z21891   6.411   4.605   4.669 -1.5575  0.0786  0.4645
  190SAPI   C1221892   5.264   2.178   6.646  0.8368  0.1324 -0.3542
  190SAPI    H221893   5.267   2.254   6.565 -0.3220 -1.1339 -1.6452
  190SAPI    O221894   5.220   2.054   6.581  0.2481  0.2586 -0.0782
  190SAPI   HO221895   5.128   2.065   6.557  0.3829  0.4508 -0.5214
  190SAPI   C1321896   5.397   2.154   6.699 -0.8855 -0.1911  0.0498
  190SAPI    H321897   5.427   2.244   6.757 -2.6096  0.5757 -0.1959
  190SAPI    O321898   5.492   2.141   6.588  0.8828 -0.8664  0.0894
  190SAPI   HO321899   5.433   2.092   6.530 -2.1637  2.1385  0.3229
  190SAPI   C1421900   5.406   2.037   6.800 -0.0550 -0.5292  0.4247
  190SAPI    H421901   5.408   1.952   6.729  0.0100  0.8788 -1.3548
  190SAPI    O421902   5.531   2.028   6.870  0.1960  0.5536 -0.1080
  190SAPI   HO421903   5.574   1.945   6.849 -0.7903 -0.1848  0.7067
  190SAPI   C1521904   5.281   2.017   6.884 -0.0417  0.3678 -0.4912
  190SAPI    H521905   5.309   2.056   6.984  0.1322 -2.6154  0.7282
  190SAPI    O521906   5.258   1.877   6.906 -0.6684  0.7643 -0.1730
  190SAPI   HO521907   5.327   1.822   6.867 -0.0179  0.1909  1.6311
  190SAPI   C1621908   5.151   2.093   6.855  0.3792  0.3134  0.4724
  190SAPI    H621909   5.093   2.016   6.799  2.0690 -0.3594 -0.4268
  190SAPI    O621910   5.071   2.121   6.971  0.7816  0.1805  0.5056
  190SAPI   HO621911   4.999   2.181   6.948  0.4685 -1.1630 -2.5093
  190SAPI   C1121912   5.164   2.210   6.762  0.3814  0.2902  0.3813
  190SAPI    H121913   5.201   2.293   6.826 -0.5842  0.6905  0.4431
  190SAPI     P21914   5.030   2.403   6.643 -0.3649 -0.1391 -0.1027
  190SAPI   O1321915   5.130   2.488   6.716  0.7023 -0.2048 -0.7172
  190SAPI   O1421916   4.881   2.436   6.647  0.4134 -0.9232 -0.0943
  190SAPI   O1221917   5.038   2.251   6.705  0.3209  0.1742  0.0373
  190SAPI   O1121918   5.070   2.404   6.493  0.3010  0.0242 -0.2390
  190SAPI    C121919   5.016   2.306   6.400  0.4597  0.5108  0.7542
  190SAPI    HA21920   5.082   2.217   6.410 -0.0344  0.2013  1.3402
  190SAPI    HB21921   4.910   2.282   6.422  0.3511  0.1126 -0.1538
  190SAPI    C221922   5.001   2.363   6.253  0.0676  0.2178 -0.0743
  190SAPI    HS21923   5.016   2.276   6.185 -0.1911  0.1570 -0.0572
  190SAPI   O2121924   5.092   2.468   6.231  0.3237 -0.3097  0.0518
  190SAPI   C2121925   5.220   2.432   6.239 -0.5081 -0.1686 -0.1786
  190SAPI   O2221926   5.262   2.318   6.253 -0.3397  0.0106  0.7458
  190SAPI   C2221927   5.300   2.549   6.200 -0.4202  0.3538  0.6545
  190SAPI   H2R21928   5.257   2.629   6.264 -0.1585 -0.1184  1.4365
  190SAPI   H2S21929   5.409   2.529   6.212 -0.1549 -0.0484 -1.7739
  190SAPI    C321930   4.857   2.423   6.234 -0.3504  0.2642 -0.0279
  190SAPI    HX21931   4.844   2.510   6.302 -2.1935 -1.9281  2.6762
  190SAPI    HY21932   4.784   2.347   6.269 -1.3143  0.0451 -2.3488
  190SAPI   O3121933   4.844   2.444   6.094  0.1188  0.2548  0.1325
  190SAPI   C3121934   4.720   2.427   6.051 -0.4376 -0.3851 -0.1203
  190SAPI   O3221935   4.618   2.414   6.117  0.2994 -0.1075 -0.3747
  190SAPI   C3221936   4.712   2.415   5.902  0.3261 -0.3258 -0.0373
  190SAPI   H2X21937   4.773   2.495   5.855 -0.9688 -0.4105 -1.9925
  190SAPI   H2Y21938   4.605   2.435   5.878 -0.2386 -2.1061  0.8298
  190SAPI   C2321939   5.275   2.596   6.056  0.3815  0.0551 -0.0886
  190SAPI   H3R21940   5.324   2.695   6.065  2.6714 -0.9602 -0.7902
  190SAPI   H3S21941   5.167   2.617   6.044 -0.0291 -2.3407 -1.0804
  190SAPI   C2421942   5.327   2.499   5.948  0.1463 -0.3074  0.7161
  190SAPI   H4R21943   5.265   2.407   5.944  0.6818 -0.6396 -0.4578
  190SAPI   H4S21944   5.429   2.465   5.975  0.4369  0.1199  0.1848
  190SAPI   C2521945   5.335   2.564   5.814 -0.2890 -0.2182  0.8654
  190SAPI   H5R21946   5.414   2.640   5.804 -1.4731  0.9191 -0.3927
  190SAPI   C2621947   5.253   2.551   5.706  0.0429 -0.6326  0.3861
  190SAPI   H6R21948   5.274   2.611   5.615  1.2660 -2.8531 -0.8805
  190SAPI   C2721949   5.135   2.449   5.697 -0.7070  0.7650  0.0852
  190SAPI   H7R21950   5.058   2.477   5.623 -1.9103 -1.0576  0.5844
  190SAPI   H7S21951   5.080   2.430   5.792  1.0018 -1.0779  0.7854
  190SAPI   C2821952   5.181   2.318   5.645 -0.1603  0.0744 -0.0845
  190SAPI   H8R21953   5.185   2.238   5.719 -0.8418 -0.8037 -0.9774
  190SAPI   C2921954   5.229   2.294   5.522 -0.4187  0.0614 -0.1804
  190SAPI   H9R21955   5.277   2.198   5.500 -0.6494 -0.3372  1.0232
  190SAPI  C21021956   5.244   2.382   5.399  0.9346 -0.0368 -0.2661
  190SAPI  H10R21957   5.327   2.455   5.404 -0.1435  1.2258 -0.3262
  190SAPI  H10S21958   5.158   2.452   5.397  1.7641  1.0175 -0.0117
  190SAPI  C21121959   5.238   2.292   5.272  0.3111  0.0170  0.3791
  190SAPI  H11R21960   5.144   2.235   5.262  0.0990  0.7882 -3.3269
  190SAPI  C21221961   5.309   2.302   5.159 -0.0714  0.6659  0.1152
  190SAPI  H12R21962   5.310   2.217   5.089  2.4944  0.9292 -0.2665
  190SAPI  C21321963   5.422   2.397   5.144  0.2617  0.3809 -0.5693
  190SAPI  H13R21964   5.475   2.415   5.240 -0.6957  1.7069 -0.2546
  190SAPI  H13S21965   5.369   2.494   5.131 -2.3225 -0.8824 -0.1379
  190SAPI  C21421966   5.516   2.381   5.032  0.1734 -0.3597 -0.0345
  190SAPI  H14R21967   5.621   2.392   5.061 -0.5362 -1.7639  3.6655
  190SAPI  C21521968   5.487   2.404   4.900 -0.5351 -0.8556 -0.5766
  190SAPI  H15R21969   5.566   2.402   4.823 -0.8549  1.5245 -1.0538
  190SAPI  C21621970   5.348   2.427   4.848 -0.3964  0.2656  0.4403
  190SAPI  H16R21971   5.282   2.488   4.913 -0.8194  0.1853  0.0928
  190SAPI  H16S21972   5.294   2.330   4.844 -4.0708  2.1278  0.7329
  190SAPI  C21721973   5.347   2.495   4.703  0.8540  0.3918 -0.3639
  190SAPI  H17R21974   5.411   2.430   4.638 -0.4487 -0.7704 -0.5216
  190SAPI  H17S21975   5.387   2.598   4.709 -1.3055  1.6958 -4.3057
  190SAPI  C21821976   5.207   2.504   4.642  0.3629  0.2171 -0.0095
  190SAPI  H18R21977   5.133   2.553   4.708 -0.3699 -2.3992  1.2495
  190SAPI  H18S21978   5.174   2.399   4.627  1.3480 -0.1333  0.1796
  190SAPI  C21921979   5.215   2.569   4.510 -0.1418  0.2794  0.2316
  190SAPI  H19R21980   5.275   2.503   4.444 -2.2737 -0.7213 -0.8068
  190SAPI  H19S21981   5.276   2.660   4.526  0.9784 -0.4464  0.1674
  190SAPI  C22021982   5.088   2.618   4.444 -0.1827  0.5889 -0.3750
  190SAPI  H20R21983   5.026   2.526   4.442  0.7587 -0.0514 -1.6517
  190SAPI  H20S21984   5.115   2.647   4.340 -0.7030  3.8461  0.3061
  190SAPI  H20T21985   5.036   2.702   4.494 -1.7552 -0.0909 -0.8247
  190SAPI   C3321986   4.745   2.279   5.833 -0.7060 -0.3728 -0.4867
  190SAPI   H3X21987   4.673   2.204   5.873 -0.1306 -1.7324 -1.8717
  190SAPI   H3Y21988   4.844   2.236   5.855 -0.2221  1.2618  0.6745
  190SAPI   C3421989   4.718   2.274   5.687  0.1448 -0.1654  0.2931
  190SAPI   H4X21990   4.608   2.276   5.669  0.0211 -3.4512 -0.0542
  190SAPI   H4Y21991   4.745   2.168   5.665  0.7744  0.3960 -1.7689
  190SAPI   C3521992   4.799   2.357   5.594 -0.1733  0.2489  1.0651
  190SAPI   H5X21993   4.907   2.354   5.618 -0.4555  0.1915  2.3973
  190SAPI   H5Y21994   4.772   2.465   5.586 -0.7603  0.0154 -0.4442
  190SAPI   C3621995   4.788   2.302   5.445  0.0734  0.4267  0.4076
  190SAPI   H6X21996   4.687   2.284   5.403  1.7184  0.5757 -4.1513
  190SAPI   H6Y21997   4.831   2.201   5.437 -3.7672 -1.2118 -2.7871
  190SAPI   C3721998   4.864   2.385   5.341  0.2599 -0.3596 -0.4033
  190SAPI   H7X21999   4.965   2.392   5.386 -0.7261 -1.4777  2.1828
  190SAPI   H7Y22000   4.824   2.488   5.332 -1.1496 -0.8780 -0.3414
  190SAPI   C3822001   4.879   2.319   5.206  0.0485  0.5097  0.2741
  190SAPI   H8X22002   4.777   2.279   5.190  0.3513 -2.2353  3.7650
  190SAPI   H8Y22003   4.938   2.225   5.206  2.1254  1.7355 -1.1889
  190SAPI   C3922004   4.925   2.395   5.083 -0.0762  0.9329 -0.0024
  190SAPI   H9X22005   4.946   2.314   5.010 -1.8423 -1.1983  1.7165
  190SAPI   H9Y22006   5.024   2.445   5.095  0.2510  0.3485 -0.2276
  190SAPI  C31022007   4.822   2.488   5.013 -0.5568 -0.1559 -0.2377
  190SAPI  H10X22008   4.815   2.581   5.074  1.3415  0.4331 -0.8511
  190SAPI  H10Y22009   4.721   2.444   4.999 -1.5698  2.1532 -0.7887
  190SAPI  C31122010   4.859   2.526   4.868 -0.4019 -0.0172  0.1189
  190SAPI  H11X22011   4.891   2.434   4.816 -0.2541 -0.6062  1.2131
  190SAPI  H11Y22012   4.941   2.601   4.871 -1.4045  1.1461 -0.6728
  190SAPI  C31222013   4.746   2.597   4.801  0.5176 -0.3478 -0.4895
  190SAPI  H12X22014   4.739   2.700   4.843 -0.5160 -0.7576  0.3560
  190SAPI  H12Y22015   4.646   2.550   4.806 -0.1141  0.7172 -2.1463
  190SAPI  C31322016   4.776   2.616   4.653 -0.2821  0.1624 -0.3661
  190SAPI  H13X22017   4.785   2.513   4.612  1.0946 -0.3296  1.0918
  190SAPI  H13Y22018   4.868   2.677   4.644  0.2805 -0.8140 -1.5744
  190SAPI  C31422019   4.663   2.683   4.569  0.1997 -0.3116 -0.5914
  190SAPI  H14X22020   4.572   2.623   4.590  0.6732 -0.9688 -0.4137
  190SAPI  H14Y22021   4.698   2.671   4.464  1.4784  0.2137 -0.2464
  190SAPI  C31522022   4.636   2.830   4.609 -0.2135 -0.3277  0.2988
  190SAPI  H15X22023   4.723   2.893   4.583 -0.6981  0.7078  1.1084
  190SAPI  H15Y22024   4.624   2.844   4.719  0.3896  0.1766  0.3096
  190SAPI  C31622025   4.506   2.877   4.546  0.1760  0.1998 -0.1870
  190SAPI  H16X22026   4.447   2.793   4.505 -0.8403  1.9567 -2.5783
  190SAPI  H16Y22027   4.535   2.947   4.465 -0.6737  0.6289 -0.1257
  190SAPI  C31722028   4.422   2.964   4.641 -0.0349 -0.4014  0.3894
  190SAPI  H17X22029   4.489   3.044   4.680  1.2232 -2.2147  2.1315
  190SAPI  H17Y22030   4.385   2.908   4.729 -1.8146  1.0625  0.6180
  190SAPI  C31822031   4.312   3.025   4.560 -0.0897  0.1186  0.7440
  190SAPI  H18X22032   4.246   3.100   4.609 -2.0980 -1.1011  0.0414
  190SAPI  H18Y22033   4.243   2.941   4.535 -1.2032  1.0621  0.5586
  190SAPI  H18Z22034   4.357   3.067   4.467  0.5385 -0.6547  0.6873
  191SAPI   C1222035   2.310   1.176   2.249 -0.4180  0.5813  0.7557
  191SAPI    H222036   2.244   1.222   2.172  2.3663  2.6242 -0.5858
  191SAPI    O222037   2.387   1.078   2.188  0.1089  0.6314 -0.2672
  191SAPI   HO222038   2.323   1.011   2.162  1.0392  0.5244 -2.5317
  191SAPI   C1322039   2.398   1.292   2.281 -0.3870 -0.2860 -0.6542
  191SAPI    H322040   2.339   1.364   2.341  0.3487  1.6841 -2.1993
  191SAPI    O322041   2.452   1.363   2.168 -0.4908 -0.0112  0.0191
  191SAPI   HO322042   2.486   1.287   2.120 -2.6061 -1.3626  0.5136
  191SAPI   C1422043   2.508   1.243   2.382  0.3025 -0.7108  0.0892
  191SAPI    H422044   2.575   1.187   2.313  0.4067 -0.0718 -0.3291
  191SAPI    O422045   2.585   1.354   2.428 -0.4905  0.2364  0.1040
  191SAPI   HO422046   2.665   1.348   2.376 -0.8360 -0.4895 -0.3590
  191SAPI   C1522047   2.469   1.148   2.488  0.6790 -0.2549  0.0593
  191SAPI    H522048   2.439   1.220   2.567 -1.5331  0.0540 -0.9751
  191SAPI    O522049   2.577   1.068   2.551 -0.2266  0.4111  0.7282
  191SAPI   HO522050   2.636   1.125   2.602  0.9010  0.4560 -0.5593
  191SAPI   C1622051   2.339   1.066   2.472  0.3357 -0.1634  0.8357
  191SAPI    H622052   2.368   0.975   2.415 -1.6145  0.1016 -0.6958
  191SAPI    O622053   2.283   1.004   2.589 -0.2487  0.2471  0.4542
  191SAPI   HO622054   2.222   1.059   2.637 -1.4455 -1.5450  1.0799
  191SAPI   C1122055   2.238   1.125   2.368 -0.3562  0.1035  0.5285
  191SAPI    H122056   2.184   1.209   2.416 -0.2736  0.8172 -0.5857
  191SAPI     P22057   1.995   1.066   2.257 -0.2694 -0.1504  0.2853
  191SAPI   O1322058   1.930   0.942   2.217 -0.1278 -0.2890  0.9930
  191SAPI   O1422059   2.010   1.168   2.151  0.4336  0.8174  0.6820
  191SAPI   O1222060   2.147   1.020   2.325  0.0451  0.0045  0.6565
  191SAPI   O1122061   1.927   1.135   2.386  0.5241  0.5231 -0.0386
  191SAPI    C122062   1.863   1.049   2.477 -0.2029 -0.9038  0.1617
  191SAPI    HA22063   1.786   0.996   2.418  0.2881 -0.0435 -1.3105
  191SAPI    HB22064   1.934   0.977   2.524 -0.8449 -0.3563  2.0868
  191SAPI    C222065   1.792   1.136   2.580  0.1903 -0.5814  0.4314
  191SAPI    HS22066   1.693   1.154   2.532 -0.1105  0.0736  1.2725
  191SAPI   O2122067   1.842   1.268   2.589  0.2185 -0.6361 -0.0005
  191SAPI   C2122068   1.974   1.275   2.616  0.6504 -1.3333  0.1350
  191SAPI   O2222069   2.051   1.185   2.636  0.0358 -0.1096  0.2076
  191SAPI   C2222070   2.017   1.424   2.624 -0.2321  0.2723 -0.3267
  191SAPI   H2R22071   1.977   1.474   2.533  0.8516  3.1845  0.6823
  191SAPI   H2S22072   1.977   1.473   2.716  1.0134 -0.6571  0.7424
  191SAPI    C322073   1.747   1.068   2.714 -0.0205  0.0946  0.1776
  191SAPI    HX22074   1.708   0.966   2.690  0.1794  0.8444 -4.0790
  191SAPI    HY22075   1.643   1.105   2.730 -0.5356 -0.2617 -2.0352
  191SAPI   O3122076   1.843   1.081   2.827 -0.1364  0.1446  0.1098
  191SAPI   C3122077   1.938   0.981   2.821  0.5525 -0.1092  0.3135
  191SAPI   O3222078   1.917   0.879   2.759  0.2254  0.3708 -0.0181
  191SAPI   C3222079   2.058   1.018   2.901  0.2556  0.0372 -0.0910
  191SAPI   H2X22080   2.024   1.056   3.000  0.2178  1.9423 -0.7973
  191SAPI   H2Y22081   2.106   1.110   2.862  0.0954  0.5116  0.8010
  191SAPI   C2322082   2.175   1.437   2.613  0.4203  0.4557 -0.9759
  191SAPI   H3R22083   2.197   1.538   2.573  1.5124 -0.0826 -1.7843
  191SAPI   H3S22084   2.216   1.359   2.545  0.8359 -1.4859  1.3572
  191SAPI   C2422085   2.250   1.428   2.749  0.0156 -0.2175 -0.3219
  191SAPI   H4R22086   2.357   1.454   2.730  0.1084 -1.2944 -1.4338
  191SAPI   H4S22087   2.255   1.325   2.789 -1.8043  0.3099  1.4260
  191SAPI   C2522088   2.197   1.524   2.846 -0.1796 -0.2303 -1.1634
  191SAPI   H5R22089   2.194   1.626   2.805 -0.2077 -0.2699 -1.2598
  191SAPI   C2622090   2.149   1.496   2.971  0.0838 -0.5853  0.5045
  191SAPI   H6R22091   2.107   1.581   3.028 -0.4852 -0.2701 -0.3659
  191SAPI   C2722092   2.164   1.369   3.048 -0.3749  0.2770  0.2803
  191SAPI   H7R22093   2.236   1.302   2.996 -0.8944  0.7450 -1.0806
  191SAPI   H7S22094   2.061   1.328   3.056  0.6612 -2.6396 -0.0547
  191SAPI   C2822095   2.223   1.396   3.184  0.3314  0.5669 -0.8997
  191SAPI   H8R22096   2.333   1.403   3.190  0.2767  0.2543  1.5037
  191SAPI   C2922097   2.156   1.398   3.304 -0.6203  0.4943  0.6842
  191SAPI   H9R22098   2.208   1.426   3.396 -0.0535  0.9897  0.2237
  191SAPI  C21022099   2.003   1.377   3.313 -0.9171  0.3180 -0.3473
  191SAPI  H10R22100   1.951   1.413   3.222 -1.2807 -1.3636 -0.8257
  191SAPI  H10S22101   1.975   1.446   3.396 -1.3353  1.3944 -1.3523
  191SAPI  C21122102   1.953   1.237   3.338  0.4554  0.8316 -0.1480
  191SAPI  H11R22103   1.887   1.206   3.255  3.4999  0.4954 -2.6525
  191SAPI  C21222104   1.973   1.158   3.446  0.4418  0.2793  0.1342
  191SAPI  H12R22105   1.933   1.056   3.434  2.6676 -0.5291 -0.9032
  191SAPI  C21322106   2.056   1.184   3.566 -0.4095 -0.2340 -1.0144
  191SAPI  H13R22107   1.988   1.160   3.650  0.6139  2.4139  0.6770
  191SAPI  H13S22108   2.066   1.294   3.577 -1.2519 -0.4153  2.7325
  191SAPI  C21422109   2.181   1.105   3.598  0.2291  0.0757 -0.2903
  191SAPI  H14R22110   2.219   1.038   3.520  0.5314 -0.7066  0.5042
  191SAPI  C21522111   2.273   1.118   3.693 -0.0195  0.2387 -0.4551
  191SAPI  H15R22112   2.348   1.039   3.685 -1.3884 -0.9767 -2.3734
  191SAPI  C21622113   2.261   1.216   3.803  0.2056  0.6398  0.9987
  191SAPI  H16R22114   2.239   1.319   3.768 -0.5014  0.8447  2.0029
  191SAPI  H16S22115   2.360   1.236   3.848  0.1366  1.2800  0.8655
  191SAPI  C21722116   2.169   1.165   3.910 -0.2578  0.6421 -0.1516
  191SAPI  H17R22117   2.203   1.071   3.959  1.7183  0.9839 -0.7779
  191SAPI  H17S22118   2.070   1.156   3.861 -0.1505  0.3635 -0.3196
  191SAPI  C21822119   2.170   1.264   4.026 -0.1015 -0.2406 -0.0476
  191SAPI  H18R22120   2.106   1.352   4.004  0.2201  0.7491  2.6368
  191SAPI  H18S22121   2.271   1.308   4.028  0.1088 -0.7194  0.0462
  191SAPI  C21922122   2.120   1.217   4.159 -0.3320 -0.2376 -1.0559
  191SAPI  H19R22123   2.177   1.124   4.180 -0.7718 -0.0109  1.3386
  191SAPI  H19S22124   2.015   1.187   4.139 -0.0464 -0.4058 -2.4011
  191SAPI  C22022125   2.141   1.320   4.266 -0.2780  0.4698 -0.2004
  191SAPI  H20R22126   2.246   1.357   4.271 -0.5718  1.2098  2.6601
  191SAPI  H20S22127   2.114   1.282   4.367  0.5550  0.3899  0.0024
  191SAPI  H20T22128   2.065   1.398   4.245 -0.2001  0.7748  0.5955
  191SAPI   C3322129   2.157   0.904   2.909  0.4682  0.0717  0.2148
  191SAPI   H3X22130   2.255   0.947   2.940  0.1360  0.7342  0.3861
  191SAPI   H3Y22131   2.161   0.848   2.813  0.0807  0.2573  0.0888
  191SAPI   C3422132   2.120   0.806   3.027  0.7141  0.3346  0.5585
  191SAPI   H4X22133   2.187   0.717   3.022 -1.2634 -1.5781  4.2107
  191SAPI   H4Y22134   2.012   0.780   3.017 -0.4126  4.3156  0.7493
  191SAPI   C3522135   2.145   0.853   3.171 -0.0572  0.1779 -0.9037
  191SAPI   H5X22136   2.063   0.926   3.189  0.0429  0.0534  0.1069
  191SAPI   H5Y22137   2.247   0.897   3.173  1.0100 -2.1188 -1.6019
  191SAPI   C3622138   2.141   0.736   3.261 -0.5441  0.1907  0.1966
  191SAPI   H6X22139   2.225   0.669   3.234  0.0085  0.1734  1.8546
  191SAPI   H6Y22140   2.040   0.691   3.249 -1.0448  1.1857  0.5187
  191SAPI   C3722141   2.165   0.777   3.410  0.4729 -0.1011  0.2347
  191SAPI   H7X22142   2.088   0.855   3.429 -2.5361 -2.6461 -0.7611
  191SAPI   H7Y22143   2.268   0.816   3.424 -0.0365  0.9363  1.2704
  191SAPI   C3822144   2.146   0.647   3.508 -0.4491 -1.0632  0.0658
  191SAPI   H8X22145   2.202   0.561   3.466  1.5784 -0.1713  0.7725
  191SAPI   H8Y22146   2.038   0.624   3.510 -0.8518  0.5964 -0.5045
  191SAPI   C3922147   2.214   0.679   3.641  0.1007  0.4068 -0.1740
  191SAPI   H9X22148   2.158   0.767   3.680 -0.5892  0.5970 -1.5435
  191SAPI   H9Y22149   2.324   0.697   3.643  0.5850 -2.0337 -1.3464
  191SAPI  C31022150   2.186   0.564   3.747 -0.2176 -0.8102  0.3532
  191SAPI  H10X22151   2.248   0.472   3.731  2.6196  0.8174  1.2487
  191SAPI  H10Y22152   2.080   0.536   3.730 -0.9142  1.1459  1.2055
  191SAPI  C31122153   2.211   0.612   3.895  0.2944  0.2307  0.7170
  191SAPI  H11X22154   2.193   0.522   3.957 -0.9740 -0.0301 -0.0082
  191SAPI  H11Y22155   2.131   0.680   3.931 -1.6644 -2.2832  1.3899
  191SAPI  C31222156   2.344   0.678   3.927  0.5215  0.4442 -0.2794
  191SAPI  H12X22157   2.350   0.776   3.875 -2.4174  0.3508 -0.9834
  191SAPI  H12Y22158   2.427   0.622   3.878  0.0886 -0.0655 -0.4438
  191SAPI  C31322159   2.364   0.687   4.079  0.1812  0.7578  0.4234
  191SAPI  H13X22160   2.466   0.649   4.102  0.0382  0.6090  0.8238
  191SAPI  H13Y22161   2.286   0.618   4.118 -3.0821  1.2179 -4.4968
  191SAPI  C31422162   2.342   0.829   4.133 -0.1446  0.6106 -0.3176
  191SAPI  H14X22163   2.234   0.854   4.126 -0.5767 -0.9418  0.4018
  191SAPI  H14Y22164   2.393   0.898   4.063 -2.2234 -1.1464 -3.7759
  191SAPI  C31522165   2.398   0.855   4.276 -0.9397 -0.0786  0.8798
  191SAPI  H15X22166   2.508   0.847   4.287 -0.4521  1.4342 -1.9712
  191SAPI  H15Y22167   2.363   0.771   4.340  0.8493 -1.7237 -0.2175
  191SAPI  C31622168   2.369   0.991   4.326  0.3774 -0.5179  0.2219
  191SAPI  H16X22169   2.259   1.008   4.325 -0.1459 -3.2025  1.6528
  191SAPI  H16Y22170   2.413   1.064   4.256  0.2732 -0.6042  0.0652
  191SAPI  C31722171   2.425   1.015   4.462  0.3082  0.3918  0.3692
  191SAPI  H17X22172   2.428   1.125   4.477  0.1848  0.6097 -1.0387
  191SAPI  H17Y22173   2.529   0.976   4.468  0.5306  0.4658 -1.8982
  191SAPI  C31822174   2.345   0.959   4.579  0.2228 -0.0691 -0.0871
  191SAPI  H18X22175   2.244   1.006   4.586  0.9144  1.2103  2.3362
  191SAPI  H18Y22176   2.403   0.965   4.673  1.4006  3.0536 -0.9100
  191SAPI  H18Z22177   2.328   0.850   4.564  0.6218 -0.2486  0.7002
  192SAPI   C1222178   4.384   3.014   2.419  0.6831  0.5022 -0.3367
  192SAPI    H222179   4.464   2.937   2.422  2.0011  1.7418 -1.9441
  192SAPI    O222180   4.329   3.009   2.286 -0.6722 -0.0507  0.0447
  192SAPI   HO222181   4.401   3.031   2.226 -2.3921  0.0583 -2.0856
  192SAPI   C1322182   4.277   2.973   2.526  0.8432  0.2007 -0.4210
  192SAPI    H322183   4.317   2.964   2.629  0.0863 -0.7260 -0.1949
  192SAPI    O322184   4.243   2.840   2.486 -0.3385  0.1683  0.0827
  192SAPI   HO322185   4.243   2.832   2.390  0.6443 -1.4313  0.1913
  192SAPI   C1422186   4.157   3.064   2.522 -0.2464  0.5848 -0.6512
  192SAPI    H422187   4.087   3.037   2.440 -1.9131  1.9798  0.2406
  192SAPI    O422188   4.074   3.041   2.640 -0.2071  0.2588  0.1250
  192SAPI   HO422189   3.991   3.002   2.612 -0.7617  2.9811 -2.5947
  192SAPI   C1522190   4.194   3.212   2.501  0.6103 -0.2125 -1.2360
  192SAPI    H522191   4.206   3.255   2.603  1.5512  0.6467 -1.6931
  192SAPI    O522192   4.094   3.300   2.462  0.4169 -0.9546 -0.4684
  192SAPI   HO522193   4.020   3.259   2.417 -0.1357 -1.4600  0.8363
  192SAPI   C1622194   4.333   3.252   2.440  0.6699 -0.2299  0.5175
  192SAPI    H622195   4.316   3.264   2.331  1.0309 -0.4102  0.4413
  192SAPI    O622196   4.373   3.379   2.492 -0.0866  0.4490  0.2796
  192SAPI   HO622197   4.463   3.394   2.462  0.1477  0.6431  1.0592
  192SAPI   C1122198   4.438   3.152   2.459  0.2217 -0.1269  0.0411
  192SAPI    H122199   4.472   3.147   2.565  0.4960  1.6577  0.0678
  192SAPI     P22200   4.685   3.254   2.431 -0.2199 -0.4796 -0.2173
  192SAPI   O1322201   4.644   3.378   2.493 -0.0064 -0.4671  0.4622
  192SAPI   O1422202   4.796   3.259   2.326  0.1496 -0.1720  0.2592
  192SAPI   O1222203   4.553   3.175   2.381  0.4169 -0.0459  0.1020
  192SAPI   O1122204   4.731   3.157   2.549 -0.4743 -0.7970 -0.5893
  192SAPI    C122205   4.790   3.030   2.509  0.2658 -0.3758 -1.0404
  192SAPI    HA22206   4.730   2.949   2.462  1.1358 -2.5762  1.4232
  192SAPI    HB22207   4.876   3.033   2.438  0.3684 -0.6611 -0.9286
  192SAPI    C222208   4.838   2.946   2.637  0.1209  0.5814  0.3550
  192SAPI    HS22209   4.854   2.842   2.601  0.4332  0.9016 -0.4772
  192SAPI   O2122210   4.745   2.952   2.747  0.3831  0.1802  0.6852
  192SAPI   C2122211   4.638   2.881   2.723  0.1529 -0.3789 -0.2492
  192SAPI   O2222212   4.616   2.805   2.632 -0.0288  0.2587 -0.0565
  192SAPI   C2222213   4.546   2.906   2.844 -0.6843  0.4172  0.3192
  192SAPI   H2R22214   4.590   2.985   2.908  0.0573  1.7022 -1.6741
  192SAPI   H2S22215   4.452   2.942   2.797 -0.7977 -0.9233 -0.5345
  192SAPI    C322216   4.972   2.987   2.691 -0.7509 -0.6512  0.8475
  192SAPI    HX22217   4.965   3.097   2.707  0.7560 -0.8401  3.4108
  192SAPI    HY22218   5.054   2.976   2.617 -1.5963  0.7529 -0.3449
  192SAPI   O3122219   5.006   2.932   2.820  0.0372  0.0375 -0.6800
  192SAPI   C3122220   5.130   2.960   2.855  0.3830 -0.2167  0.1714
  192SAPI   O3222221   5.216   3.018   2.788 -0.9288 -0.2893  0.0877
  192SAPI   C3222222   5.146   2.911   3.000  0.3702  0.1697  0.3416
  192SAPI   H2X22223   5.147   2.800   3.009 -0.5744  0.3068  3.3590
  192SAPI   H2Y22224   5.055   2.945   3.055  1.3750 -0.5437  2.5622
  192SAPI   C2322225   4.526   2.768   2.917  0.4607  0.1696  0.2952
  192SAPI   H3R22226   4.612   2.732   2.978  1.6802  0.0880 -1.3800
  192SAPI   H3S22227   4.521   2.689   2.839  1.3486 -0.2735  0.6668
  192SAPI   C2422228   4.403   2.763   3.001  0.0639 -0.3505 -0.0433
  192SAPI   H4R22229   4.386   2.662   3.045 -1.0106 -1.3382 -2.5273
  192SAPI   H4S22230   4.316   2.777   2.934 -1.5699 -4.9922  0.7094
  192SAPI   C2522231   4.399   2.871   3.116 -0.6883  0.3576  0.1619
  192SAPI   H5R22232   4.398   2.975   3.079  3.8198  0.2442 -0.8607
  192SAPI   C2622233   4.430   2.848   3.246  0.0481  0.4188 -0.2639
  192SAPI   H6R22234   4.435   2.934   3.315 -2.9480  1.8505 -1.6105
  192SAPI   C2722235   4.467   2.713   3.298 -0.1153  0.2297 -0.5256
  192SAPI   H7R22236   4.526   2.660   3.221  2.2197  2.9784 -0.7931
  192SAPI   H7S22237   4.371   2.669   3.333 -1.1183  2.4001 -0.3758
  192SAPI   C2822238   4.550   2.718   3.421 -0.4734  0.3493  0.6726
  192SAPI   H8R22239   4.658   2.710   3.401 -0.3235  1.9393  0.7185
  192SAPI   C2922240   4.507   2.736   3.545 -0.3042  0.3429 -0.0239
  192SAPI   H9R22241   4.584   2.725   3.623 -1.5146 -0.3759  1.1207
  192SAPI  C21022242   4.373   2.775   3.595 -0.5336 -0.4147 -0.2431
  192SAPI  H10R22243   4.347   2.718   3.687 -1.3635  0.2427 -0.0593
  192SAPI  H10S22244   4.288   2.745   3.531  0.5178 -2.0258 -0.9503
  192SAPI  C21122245   4.381   2.918   3.637  0.4677 -0.3409  0.9461
  192SAPI  H11R22246   4.399   2.981   3.548 -2.1975 -0.9418 -0.1192
  192SAPI  C21222247   4.377   2.981   3.757 -0.9523  0.1632  0.2048
  192SAPI  H12R22248   4.405   3.088   3.759  2.4572 -0.5822 -0.8965
  192SAPI  C21322249   4.366   2.908   3.886 -0.3684 -0.2700 -0.0403
  192SAPI  H13R22250   4.401   2.802   3.888  0.0418 -0.1526  2.3877
  192SAPI  H13S22251   4.259   2.912   3.916 -0.4332  0.7019 -0.3929
  192SAPI  C21422252   4.447   2.972   4.009  0.0286 -0.3335  0.3090
  192SAPI  H14R22253   4.522   2.904   4.053  0.6566 -0.0333 -0.2775
  192SAPI  C21522254   4.436   3.095   4.064  0.3612  0.3794 -0.8917
  192SAPI  H15R22255   4.508   3.120   4.142  0.5134 -2.1499 -0.1304
  192SAPI  C21622256   4.338   3.205   4.028 -0.2656 -0.1068 -0.1718
  192SAPI  H16R22257   4.269   3.198   4.115  2.0281  0.8988  1.8611
  192SAPI  H16S22258   4.282   3.174   3.937  1.2191 -2.0546 -0.5012
  192SAPI  C21722259   4.401   3.337   4.025  0.0348  0.1599 -0.6580
  192SAPI  H17R22260   4.318   3.405   3.995  0.2504  0.4510 -0.6014
  192SAPI  H17S22261   4.484   3.349   3.952  1.4472  0.9346  1.0012
  192SAPI  C21822262   4.441   3.389   4.167 -0.6210 -0.1011 -0.5262
  192SAPI  H18R22263   4.519   3.325   4.213  1.0059  1.0481 -1.5388
  192SAPI  H18S22264   4.351   3.381   4.231  0.4545 -3.6750  0.7537
  192SAPI  C21922265   4.501   3.523   4.179  0.5080  0.3277 -0.8384
  192SAPI  H19R22266   4.460   3.591   4.100  0.5378  1.0227 -0.2645
  192SAPI  H19S22267   4.606   3.517   4.144  1.1946  2.2702  0.7185
  192SAPI  C22022268   4.487   3.578   4.318  0.0206 -0.4215 -0.5175
  192SAPI  H20R22269   4.391   3.544   4.363  0.9148 -1.0824  0.9385
  192SAPI  H20S22270   4.485   3.689   4.322  0.7163 -0.4342  0.6000
  192SAPI  H20T22271   4.571   3.547   4.383  0.8377  0.0183 -1.3504
  192SAPI   C3322272   5.265   2.975   3.084  0.3393  0.5770  0.6135
  192SAPI   H3X22273   5.269   3.084   3.065  2.9538  0.2441 -1.2360
  192SAPI   H3Y22274   5.361   2.932   3.049 -0.3018 -0.5177  0.1274
  192SAPI   C3422275   5.233   2.935   3.233 -0.2236  0.1833  0.4740
  192SAPI   H4X22276   5.256   2.828   3.251 -1.2071 -0.0997  0.0972
  192SAPI   H4Y22277   5.123   2.937   3.250 -0.6231  1.1975 -1.8036
  192SAPI   C3522278   5.303   3.017   3.344  0.5116  0.3909 -0.0050
  192SAPI   H5X22279   5.277   3.124   3.330  0.4931  0.2939 -0.7522
  192SAPI   H5Y22280   5.413   3.003   3.344  0.3540 -1.0158  0.9800
  192SAPI   C3622281   5.245   2.990   3.488 -0.5262  0.0798  0.2366
  192SAPI   H6X22282   5.256   2.880   3.503 -1.0963 -0.2228 -1.3646
  192SAPI   H6Y22283   5.142   3.032   3.488 -0.9406 -0.3393 -4.3005
  192SAPI   C3722284   5.330   3.053   3.596 -0.3299  0.5912 -0.5276
  192SAPI   H7X22285   5.323   3.164   3.592  0.1272  0.6391 -0.0756
  192SAPI   H7Y22286   5.436   3.023   3.578 -0.1116  0.1612  1.2747
  192SAPI   C3822287   5.289   3.015   3.740  0.0255  0.5207  0.2888
  192SAPI   H8X22288   5.284   2.904   3.745  1.6544  0.4318  0.4522
  192SAPI   H8Y22289   5.187   3.058   3.750  0.5206  1.7099  0.4212
  192SAPI   C3922290   5.390   3.071   3.841  0.2618 -0.0330  0.5489
  192SAPI   H9X22291   5.394   3.182   3.832 -2.7529  0.3392  2.3499
  192SAPI   H9Y22292   5.488   3.024   3.818  0.4441  0.1185  0.9944
  192SAPI  C31022293   5.354   3.045   3.987 -0.2316 -0.2010 -0.1266
  192SAPI  H10X22294   5.336   2.937   4.007  1.1276 -0.1092  1.9009
  192SAPI  H10Y22295   5.258   3.096   4.010 -0.0819  0.1968 -0.3800
  192SAPI  C31122296   5.470   3.090   4.075  0.4163 -0.4038  0.3302
  192SAPI  H11X22297   5.485   3.199   4.058 -0.7366 -0.4235 -0.9690
  192SAPI  H11Y22298   5.563   3.039   4.043  0.8092 -0.0467  0.8792
  192SAPI  C31222299   5.463   3.088   4.231  0.1111 -0.1922 -0.2675
  192SAPI  H12X22300   5.457   2.983   4.265 -2.3476  0.5634  1.9383
  192SAPI  H12Y22301   5.366   3.135   4.256  0.3796 -0.1478  0.7125
  192SAPI  C31322302   5.573   3.157   4.308  0.0721  0.6406  0.2966
  192SAPI  H13X22303   5.577   3.264   4.277  2.5249  0.9201  1.3321
  192SAPI  H13Y22304   5.676   3.120   4.293 -0.3763 -0.4363 -0.2640
  192SAPI  C31422305   5.546   3.165   4.464  0.2547 -0.4858 -0.5241
  192SAPI  H14X22306   5.603   3.247   4.513 -2.5423  0.0875  2.0479
  192SAPI  H14Y22307   5.583   3.073   4.513  0.4695 -0.7875 -1.2390
  192SAPI  C31522308   5.402   3.182   4.518  1.1941 -0.0776 -0.0782
  192SAPI  H15X22309   5.408   3.191   4.629 -0.0216  0.4709 -0.0462
  192SAPI  H15Y22310   5.339   3.094   4.492 -1.3192  0.5818  3.1370
  192SAPI  C31622311   5.332   3.312   4.476 -0.1488  0.4480 -0.0096
  192SAPI  H16X22312   5.391   3.361   4.395  1.8309  1.0622  1.7018
  192SAPI  H16Y22313   5.328   3.382   4.562 -0.1662 -1.3555  1.5068
  192SAPI  C31722314   5.192   3.290   4.434 -0.1800  0.4558  0.7774
  192SAPI  H17X22315   5.200   3.211   4.356  1.2608  0.6881  0.6563
  192SAPI  H17Y22316   5.140   3.372   4.381 -0.6513 -0.1361  0.3161
  192SAPI  C31822317   5.090   3.238   4.542 -0.7373  0.2677 -0.0712
  192SAPI  H18X22318   5.074   3.315   4.620 -1.2806 -0.2190  0.3030
  192SAPI  H18Y22319   5.125   3.149   4.598 -3.0066 -0.5773  0.0982
  192SAPI  H18Z22320   4.994   3.211   4.494 -2.0099  0.3364  2.2986
  193SOD    SOD22321   1.298   4.701   6.799  0.5741  0.4214  0.2627
  194SOD    SOD22322   6.739   4.835   2.508  0.2701  0.3515 -0.0051
  195SOD    SOD22323   4.087   1.343   2.079 -0.3979 -0.1657  0.2590
  196SOD    SOD22324   2.145   5.369   8.119 -0.5747  0.4339 -0.3043
  197SOD    SOD22325   6.520   3.940   7.509 -0.6580  0.2922  0.2411
  198SOD    SOD22326   5.194   4.873   1.121  0.3876 -0.4545  0.4632
  199SOD    SOD22327   0.097   0.110   1.460  0.0919  0.4013 -0.2747
  200SOD    SOD22328   5.763   5.705   8.163 -0.2514  0.4949 -0.0525
  201SOD    SOD22329   4.145   4.954   7.027  0.0223  0.2374  0.4701
  202SOD    SOD22330   0.768   0.539   1.441  0.0583 -0.1341  0.2567
  203SOD    SOD22331   6.273   5.553   7.932  0.0538 -0.1943 -0.3559
  204SOD    SOD22332   4.998   1.562   6.695  0.0210  0.0589 -0.7095
  205SOD    SOD22333   0.283   5.691   0.092  0.3161 -0.5262  0.1298
  206SOD    SOD22334   5.255   4.090   8.475  0.2760  0.1995  0.2765
  207SOD    SOD22335   5.276   5.259   2.602  0.2131  0.2726  0.6554
  208SOD    SOD22336   3.663   6.440   8.063 -0.5415  0.3688 -0.3700
  209SOD    SOD22337   0.830   3.378   1.860  0.0171  0.3132 -0.0351
  210SOD    SOD22338   6.339   2.900   8.236  0.3176  0.0682  0.0741
  211SOD    SOD22339   4.653   0.637   7.875  0.1543 -0.6319  0.0636
  212SOD    SOD22340   3.670   5.075   0.715  0.4423 -0.0184 -0.1385
  213SOD    SOD22341   1.633   3.432   7.101 -0.6716  0.4003  0.0774
  214SOD    SOD22342   4.066   5.670   2.257  0.1956  0.3358 -0.2911
  215SOD    SOD22343   0.380   2.272   0.975  0.5073 -0.0875  0.3814
  216SOD    SOD22344   3.258   6.266   8.691 -0.0071 -0.3646  0.3398
  217SOD    SOD22345   0.347   0.113   7.360 -0.4839 -0.1976 -0.1500
  218SOD    SOD22346   5.342   4.752   6.787 -0.4783  0.0546 -0.3605
  219SOD    SOD22347   6.756   5.896   0.224 -0.6412  0.4040  0.6694
  220SOD    SOD22348   2.523   0.329   2.233  0.1726  0.0938  0.2085
  221SOD    SOD22349   6.506   5.404   1.328  0.5465  0.0545 -0.0468
  222SOD    SOD22350   2.558   0.194   8.710  0.4505 -0.2781 -0.2002
  223SOD    SOD22351   0.830   0.442   7.106 -0.1475 -0.2473  0.0196
  224SOD    SOD22352   1.467   1.315   8.168  0.2626  0.2922 -0.4570
  225SOD    SOD22353   6.490   3.279   1.324 -0.0257  0.2605 -0.3422
  226SOD    SOD22354   2.059   1.590   8.542  0.1146  0.3124  0.4289
  227SOD    SOD22355   2.538   3.626   8.714  0.6678  0.5167 -0.0203
  228SOD    SOD22356   6.652   2.875   7.297 -0.4131  0.0175  0.1121
  229SOD    SOD22357   4.096   4.703   0.637  0.1390 -0.2488  0.2228
  230CLA    CLA22358   5.961   3.463   0.031  0.3980  0.0322 -0.0598
  231CLA    CLA22359   5.768   4.845   0.539  0.1579  0.0401  0.4138
  232CLA    CLA22360   2.278   0.976   1.199 -0.0476 -0.2106 -0.1560
  233CLA    CLA22361   2.164   0.003   8.599 -0.4082 -0.4912 -0.1353
  234CLA    CLA22362   4.910   0.045   0.139 -0.0873 -0.2275  0.2614
  235CLA    CLA22363   5.024   4.647   1.541 -0.2093  0.3098  0.1300
  236CLA    CLA22364   2.590   6.234   0.078  0.4207 -0.2737  0.1384
  237CLA    CLA22365   0.158   5.360   0.389 -0.2839 -0.1476  0.2736
  238CLA    CLA22366   0.744   5.930   7.654  0.1582  0.5661 -0.4467
  239CLA    CLA22367   6.097   4.489   1.412 -0.1476 -0.0075 -0.2146
  240CLA    CLA22368   6.603   2.485   0.590  0.2775 -0.3478 -0.0232
  241CLA    CLA22369   4.397   1.461   7.616  0.3538 -0.1130 -0.0417
  242CLA    CLA22370   3.117   2.026   7.656 -0.0110  0.3369 -0.0783
  243CLA    CLA22371   5.078   3.436   8.518  0.3063 -0.4511  0.2322
  244CLA    CLA22372   0.081   4.641   0.202  0.0161  0.4531 -0.1866
  245CLA    CLA22373   2.189   3.670   8.297 -0.2923 -0.1072  0.1397
  246CLA    CLA22374   6.766   5.278   8.207  0.1129  0.0225 -0.2605
  247TIP3   OH222375   4.920   6.226   7.480 -0.6795 -0.5436  0.5716
  247TIP3    H122376   4.878   6.257   7.560  0.0496 -0.1237  0.7970
  247TIP3    H222377   4.929   6.304   7.426 -1.0053 -0.7959  0.1515
  248TIP3   OH222378   2.041   4.604   0.485  0.2781  0.1822  0.1708
  248TIP3    H122379   1.998   4.519   0.487  1.3123 -0.4605  3.9444
  248TIP3    H222380   1.981   4.662   0.532 -0.6662  1.8281 -2.7997
  249TIP3   OH222381   0.271   6.318   1.299  0.2730 -0.2129  0.7531
  249TIP3    H122382   0.177   6.303   1.307  0.5143 -1.3127  1.7384
  249TIP3    H222383   0.298   6.265   1.225 -0.1666  1.6064 -0.7929
  250TIP3   OH222384   5.900   1.217   8.211  0.6336 -0.0953 -0.0070
  250TIP3    H122385   5.986   1.176   8.210  0.8796  0.4241 -0.8414
  250TIP3    H222386   5.874   1.220   8.119 -0.4983 -0.6970  0.2722
  251TIP3   OH222387   3.700   0.861   1.171  0.3951  0.0276  0.4418
  251TIP3    H122388   3.678   0.953   1.183  0.6424  0.0771  0.5106
  251TIP3    H222389   3.679   0.820   1.255  0.3850  0.0393  0.4450
  252TIP3   OH222390   5.341   2.571   2.387  0.3650 -0.0340  0.3166
  252TIP3    H122391   5.287   2.521   2.448  0.4053  0.2044  0.5497
  252TIP3    H222392   5.337   2.661   2.420 -1.7343  0.6300 -1.4758
  253TIP3   OH222393   4.215   4.826   1.103 -0.1956  0.1390 -0.5734
  253TIP3    H122394   4.304   4.821   1.139 -0.1284  0.5839 -0.6750
  253TIP3    H222395   4.216   4.904   1.047 -0.0474 -1.0029 -2.2315
  254TIP3   OH222396   0.929   5.689   7.620 -0.6440  0.3063  0.1102
  254TIP3    H122397   0.865   5.760   7.623 -1.2041 -0.0768 -1.5214
  254TIP3    H222398   0.896   5.623   7.681 -2.0717 -0.0721 -1.0363
  255TIP3   OH222399   3.305   0.581   6.918 -0.3392  0.5130  0.4353
  255TIP3    H122400   3.328   0.489   6.913 -0.9027  0.3825  0.1048
  255TIP3    H222401   3.359   0.616   6.989  1.4845  0.4168 -0.8345
  256TIP3   OH222402   5.630   3.523   2.039 -0.2086  0.1427 -0.2139
  256TIP3    H122403   5.601   3.587   2.104 -0.9922  0.5440 -0.9465
  256TIP3    H222404   5.675   3.455   2.090 -0.0170  0.9004  0.6462
  257TIP3   OH222405   4.479   4.811   1.180 -0.0506 -0.1332 -0.4176
  257TIP3    H122406   4.534   4.792   1.104 -1.5516  1.1655 -1.8949
  257TIP3    H222407   4.479   4.730   1.231 -0.2644 -1.5875 -2.6151
  258TIP3   OH222408   2.341   1.112   0.837  0.5350  0.1114 -0.1394
  258TIP3    H122409   2.351   1.048   0.907  1.4823 -1.5599 -1.7221
  258TIP3    H222410   2.430   1.125   0.804 -0.1941 -2.0244 -3.4231
  259TIP3   OH222411   1.087   0.933   0.901  0.3994 -0.5731  0.3436
  259TIP3    H122412   1.042   0.973   0.975 -0.7886 -0.9837 -0.1340
  259TIP3    H222413   1.145   1.001   0.868 -0.4519  0.2433  0.4976
  260TIP3   OH222414   6.519   4.192   8.221 -0.1101 -0.1104 -0.1386
  260TIP3    H122415   6.451   4.252   8.254 -2.0586 -0.9652 -2.3140
  260TIP3    H222416   6.581   4.248   8.175 -0.8360  0.4554 -0.4513
  261TIP3   OH222417   3.261   1.236   7.904 -0.2458 -0.1073  0.2209
  261TIP3    H122418   3.326   1.203   7.966  0.4840 -0.9515 -0.9713
  261TIP3    H222419   3.216   1.158   7.873 -0.3607  0.2705 -0.5807
  262TIP3   OH222420   3.945   0.470   6.172  0.1332  0.1272  0.6017
  262TIP3    H122421   3.852   0.484   6.154 -0.2787 -0.6939  2.0102
  262TIP3    H222422   3.979   0.558   6.188 -0.5973  0.3529  0.9566
  263TIP3   OH222423   3.052   2.838   8.372  0.0029 -0.2432  0.1536
  263TIP3    H122424   3.030   2.906   8.308 -0.1739 -0.4234  0.0213
  263TIP3    H222425   3.060   2.885   8.455 -2.1540 -0.3262  0.4684
  264TIP3   OH222426   1.565   5.561   6.698 -0.2750 -0.3804  0.4804
  264TIP3    H122427   1.521   5.538   6.780  3.3767 -1.3623  2.4012
  264TIP3    H222428   1.650   5.518   6.704  0.2966 -0.2712 -3.7901
  265TIP3   OH222429   1.158   5.598   0.104 -0.3664  0.2911  0.1268
  265TIP3    H122430   1.246   5.587   0.141 -0.2375 -1.2548 -0.5461
  265TIP3    H222431   1.101   5.611   0.180  0.2223 -0.3832  0.7020
  266TIP3   OH222432   0.453   3.538   0.838  0.1437  0.0130 -0.0114
  266TIP3    H122433   0.510   3.606   0.874  1.2405 -0.8813 -0.0412
  266TIP3    H222434   0.364   3.568   0.860  0.4107  2.5556 -1.8054
  267TIP3   OH222435   1.535   5.838   0.279  0.0627 -0.4537  0.0760
  267TIP3    H122436   1.586   5.919   0.274 -0.4915 -0.1057 -0.0857
  267TIP3    H222437   1.451   5.860   0.239 -0.4477 -0.8273  0.9027
  268TIP3   OH222438   4.114   2.961   2.094  0.6717  0.0771 -0.0291
  268TIP3    H122439   4.159   2.967   2.010  0.7397  2.0152  0.0845
  268TIP3    H222440   4.183   2.968   2.160  0.4581  0.5870  0.1536
  269TIP3   OH222441   2.321   0.677   7.728 -0.4101  0.0299  0.0947
  269TIP3    H122442   2.390   0.743   7.733 -1.0886  0.8106 -0.5263
  269TIP3    H222443   2.290   0.669   7.818 -0.4128  0.6665  0.1537
  270TIP3   OH222444   4.293   5.351   7.502  0.0430 -0.3065 -0.4351
  270TIP3    H122445   4.336   5.272   7.468  0.8902  0.1599 -0.4866
  270TIP3    H222446   4.317   5.353   7.594 -0.0842 -0.1788 -0.4054
  271TIP3   OH222447   6.307   4.374   1.114  0.1691 -0.0940 -0.4473
  271TIP3    H122448   6.239   4.323   1.157 -0.1872 -0.1024 -1.0213
  271TIP3    H222449   6.274   4.464   1.115  0.9685  0.2176  0.9179
  272TIP3   OH222450   3.194   3.847   2.069  0.6010  1.0814 -0.1557
  272TIP3    H122451   3.232   3.933   2.051  1.2503  0.5350 -1.5870
  272TIP3    H222452   3.100   3.858   2.054  0.7858  1.3462 -1.1920
  273TIP3   OH222453   0.386   4.711   7.989 -0.0080  0.2073  0.4406
  273TIP3    H122454   0.364   4.803   8.007  2.3016  0.7808  0.6737
  273TIP3    H222455   0.445   4.687   8.060  1.7352 -0.5133 -1.1708
  274TIP3   OH222456   3.745   4.268   0.830 -0.5746 -0.2938  0.0721
  274TIP3    H122457   3.681   4.198   0.843  0.3748 -1.3405 -0.6823
  274TIP3    H222458   3.696   4.349   0.845 -2.5377 -0.9558 -2.2827
  275TIP3   OH222459   5.025   5.838   2.564  0.0682 -0.5049  0.1077
  275TIP3    H122460   5.021   5.899   2.639  0.2374  1.0042 -1.0552
  275TIP3    H222461   5.118   5.815   2.558  0.5768  1.5615 -1.2332
  276TIP3   OH222462   2.715   5.814   0.278 -0.0214 -0.4847 -0.0144
  276TIP3    H122463   2.807   5.795   0.258  0.0455 -0.0972 -0.0813
  276TIP3    H222464   2.710   5.909   0.277 -0.3765 -0.5011  0.2136
  277TIP3   OH222465   6.214   4.316   8.170  0.2225  0.3385 -0.2790
  277TIP3    H122466   6.227   4.325   8.264 -2.6647  0.8705  0.1618
  277TIP3    H222467   6.287   4.364   8.131  1.3378  0.3298  1.6456
  278TIP3   OH222468   5.680   3.092   7.044  0.2145  0.2010  0.7570
  278TIP3    H122469   5.648   3.002   7.043 -0.2338  0.3538 -0.6346
  278TIP3    H222470   5.634   3.135   6.972  2.3297  0.8444 -0.2983
  279TIP3   OH222471   4.289   2.429   0.816 -0.3702  0.1789  0.5577
  279TIP3    H122472   4.348   2.419   0.741 -1.5533  2.6352 -0.8124
  279TIP3    H222473   4.250   2.342   0.827 -0.8086 -0.0873 -2.2881
  280TIP3   OH222474   4.618   0.603   0.503  0.0813  0.0530 -0.1489
  280TIP3    H122475   4.565   0.527   0.526  1.7495 -1.5529 -1.3304
  280TIP3    H222476   4.703   0.587   0.546 -0.2842  2.6166  1.8259
  281TIP3   OH222477   4.984   6.673   0.676  0.0150 -0.0159  0.4548
  281TIP3    H122478   4.935   6.637   0.602 -0.1764 -2.8032  1.7874
  281TIP3    H222479   4.967   6.612   0.748  1.1194  1.9169  2.5079
  282TIP3   OH222480   3.806   6.068   6.964  0.3736 -0.0923  0.0340
  282TIP3    H122481   3.725   6.020   6.983 -0.4120  2.1559  3.1910
  282TIP3    H222482   3.780   6.160   6.965  2.7382  0.6477 -0.3528
  283TIP3   OH222483   4.572   5.317   0.897  0.3360  0.6275 -0.2857
  283TIP3    H122484   4.666   5.329   0.909  0.3113 -1.0037  2.3522
  283TIP3    H222485   4.532   5.368   0.967 -0.7643  1.2332 -1.3294
  284TIP3   OH222486   5.807   6.085   7.863 -0.0009 -0.0377 -0.3074
  284TIP3    H122487   5.796   6.161   7.920 -1.5554  1.1082 -2.0185
  284TIP3    H222488   5.827   6.122   7.777  0.6195 -1.6409 -0.8920
  285TIP3   OH222489   2.772   4.881   8.516 -0.5011  0.2539  0.7124
  285TIP3    H122490   2.861   4.915   8.511 -1.3894  2.8406  1.2840
  285TIP3    H222491   2.783   4.788   8.538  2.0409  0.2483 -0.3132
  286TIP3   OH222492   3.371   5.628   6.781  0.1194 -0.0668  0.1402
  286TIP3    H122493   3.398   5.607   6.692 -0.2876  0.9227 -0.2300
  286TIP3    H222494   3.448   5.609   6.835  0.3056 -0.8519 -0.3833
  287TIP3   OH222495   2.023   4.225   1.673  0.1748 -0.2843 -0.0204
  287TIP3    H122496   1.992   4.256   1.758 -0.6594  0.1921 -0.4840
  287TIP3    H222497   2.113   4.259   1.666  0.7145 -1.4140  1.2072
  288TIP3   OH222498   5.279   0.194   0.433 -0.2922  0.1269  0.3477
  288TIP3    H122499   5.280   0.126   0.366 -1.1247  2.2196 -1.9301
  288TIP3    H222500   5.233   0.154   0.507 -1.5326 -1.5136 -1.2169
  289TIP3   OH222501   5.848   6.631   0.992 -0.3744 -0.1005 -0.3360
  289TIP3    H122502   5.822   6.723   0.993  1.8517  0.5620  0.1866
  289TIP3    H222503   5.941   6.632   0.970 -0.4328 -2.2786 -0.9202
  290TIP3   OH222504   6.122   5.037   7.132  0.4991 -0.5677 -0.3704
  290TIP3    H122505   6.038   5.024   7.175 -0.2125 -2.5997 -2.2138
  290TIP3    H222506   6.105   5.018   7.040  3.3556 -2.9233 -0.5430
  291TIP3   OH222507   4.554   4.084   1.310  0.4349 -0.2251  0.1107
  291TIP3    H122508   4.582   4.148   1.245  0.0371 -0.4548 -0.2926
  291TIP3    H222509   4.585   4.119   1.393 -1.1665  1.3011  0.1071
  292TIP3   OH222510   4.300   1.793   8.705  0.1589  0.2416 -0.4601
  292TIP3    H122511   4.250   1.722   8.746  1.2771 -0.7115 -0.6806
  292TIP3    H222512   4.368   1.814   8.769 -0.6482  1.7168 -0.0412
  293TIP3   OH222513   5.579   4.444   6.679 -0.0769 -0.2068  0.0346
  293TIP3    H122514   5.632   4.420   6.603 -2.1052  0.7042 -1.7557
  293TIP3    H222515   5.572   4.363   6.729  0.0253 -1.2603 -1.5661
  294TIP3   OH222516   5.436   5.966   7.116 -0.0885 -0.6921 -0.4071
  294TIP3    H122517   5.487   6.045   7.103 -0.5627  0.4140  3.2474
  294TIP3    H222518   5.481   5.899   7.065  3.0780  0.9114  0.0582
  295TIP3   OH222519   5.285   4.633   0.616  0.2745 -0.2483 -0.3156
  295TIP3    H122520   5.329   4.702   0.568  0.7270  0.9807  1.7378
  295TIP3    H222521   5.319   4.552   0.578  0.1821  0.6147 -2.3644
  296TIP3   OH222522   5.556   5.684   0.082 -0.3188  0.1731  0.5156
  296TIP3    H122523   5.580   5.751   0.146 -1.0087  0.8123  0.1199
  296TIP3    H222524   5.588   5.718  -0.001  1.4494 -1.1035  0.6234
  297TIP3   OH222525   2.072   4.700   1.489  0.2903 -0.3541  0.4403
  297TIP3    H122526   2.048   4.714   1.580 -2.1722  0.4178 -0.2582
  297TIP3    H222527   2.131   4.772   1.468 -0.1347  0.1962  1.0842
  298TIP3   OH222528   0.820   0.649   7.210  0.3656  0.6450 -0.2250
  298TIP3    H122529   0.825   0.731   7.159  0.8508  0.3038 -0.7379
  298TIP3    H222530   0.875   0.664   7.286  2.4552 -0.0358 -1.5246
  299TIP3   OH222531   0.838   6.597   0.984 -1.1689  0.2486 -0.3372
  299TIP3    H122532   0.828   6.692   0.990 -2.3620  0.4736 -3.6649
  299TIP3    H222533   0.750   6.564   0.970 -0.9402 -1.5782  1.9398
  300TIP3   OH222534   2.333   4.767   2.233 -0.3463  0.4709 -0.2815
  300TIP3    H122535   2.297   4.695   2.182 -0.6094  0.4080 -0.0124
  300TIP3    H222536   2.261   4.829   2.243 -1.5029 -1.1343  3.0497
  301TIP3   OH222537   5.475   6.615   1.063 -0.6788  0.1082 -0.1212
  301TIP3    H122538   5.483   6.698   1.110 -0.7594  0.9544 -1.5195
  301TIP3    H222539   5.468   6.641   0.971  0.6617 -1.5080 -0.7303
  302TIP3   OH222540   2.529   3.756   7.966  0.4034  0.1030  0.5535
  302TIP3    H122541   2.533   3.807   7.885 -2.3578  1.9376  1.4279
  302TIP3    H222542   2.559   3.669   7.940 -0.1559  0.6533 -2.4012
  303TIP3   OH222543   5.523   2.014   1.065  0.7601 -0.2323  0.1692
  303TIP3    H122544   5.535   2.078   0.995  2.0192 -1.0948 -0.4360
  303TIP3    H222545   5.608   2.011   1.109  0.4490 -0.8729  0.7400
  304TIP3   OH222546   2.488   1.507   7.321  0.5564  0.0684 -0.3213
  304TIP3    H122547   2.448   1.482   7.238  1.2185 -1.0997 -0.3170
  304TIP3    H222548   2.421   1.557   7.367 -0.6027 -1.1287 -0.6592
  305TIP3   OH222549   4.211   4.988   8.450  0.5737  0.2628 -0.1464
  305TIP3    H122550   4.236   5.075   8.479  0.2859  1.2414 -2.5712
  305TIP3    H222551   4.155   5.003   8.374 -0.2159 -2.0407 -0.1118
  306TIP3   OH222552   5.531   1.866   7.649 -0.3577  0.5178 -0.0405
  306TIP3    H122553   5.624   1.876   7.669 -0.1504 -1.0179 -0.1010
  306TIP3    H222554   5.498   1.808   7.718 -1.7727  2.7232  1.2329
  307TIP3   OH222555   0.115   0.697   1.822  0.1115  0.1952 -0.3143
  307TIP3    H122556   0.125   0.606   1.794 -0.1091  0.5787 -1.7408
  307TIP3    H222557   0.196   0.717   1.868 -1.0054 -1.5845  2.7579
  308TIP3   OH222558   1.510   5.901   8.291  0.1088  0.1519 -0.5895
  308TIP3    H122559   1.563   5.952   8.353  2.1292  0.6393 -2.6145
  308TIP3    H222560   1.434   5.874   8.343 -0.2478  3.7232  1.0954
  309TIP3   OH222561   0.158   3.642   8.141  0.2205 -0.4100  0.6190
  309TIP3    H122562   0.185   3.573   8.081  0.6363 -0.7520  1.1840
  309TIP3    H222563   0.211   3.718   8.116 -0.9656  0.0282 -0.6655
  310TIP3   OH222564   4.242   6.808   7.330  0.8008 -0.7232 -0.1760
  310TIP3    H122565   4.315   6.868   7.315  2.3667 -2.4767  0.0096
  310TIP3    H222566   4.165   6.855   7.297  1.0412  3.3167  3.9315
  311TIP3   OH222567   5.587   6.798   0.601  0.0711 -0.0886 -1.3937
  311TIP3    H122568   5.564   6.780   0.510 -0.7758  1.5239 -1.5336
  311TIP3    H222569   5.648   6.871   0.598  0.9684 -0.7808 -0.7050
  312TIP3   OH222570   4.549   2.264   1.973 -0.5556 -0.2977 -0.6437
  312TIP3    H122571   4.471   2.219   1.943 -2.4196  1.3327  1.4107
  312TIP3    H222572   4.582   2.210   2.044  0.5040 -1.2137 -1.7953
  313TIP3   OH222573   6.343   2.696   1.331  0.2648  0.4550  0.5680
  313TIP3    H122574   6.436   2.705   1.352  0.4328 -0.9993  0.5553
  313TIP3    H222575   6.305   2.781   1.351  1.1515  0.3585  2.8686
  314TIP3   OH222576   0.450   6.189   7.742 -0.2079 -0.4345  0.2775
  314TIP3    H122577   0.509   6.121   7.709  1.3381  0.5991  0.7552
  314TIP3    H222578   0.471   6.266   7.688  0.4065  0.5236  1.7949
  315TIP3   OH222579   6.751   1.877   8.441  0.3336 -1.3201 -0.1367
  315TIP3    H122580   6.672   1.904   8.489  0.7494 -1.6622  0.7628
  315TIP3    H222581   6.743   1.920   8.356 -1.7174 -2.7625 -0.7582
  316TIP3   OH222582   5.711   1.488   8.618 -0.2197 -0.1341  0.1536
  316TIP3    H122583   5.686   1.522   8.704 -0.5297  0.1713 -0.0550
  316TIP3    H222584   5.629   1.461   8.578 -0.1942  0.6078 -0.4234
  317TIP3   OH222585   6.504   0.333   7.695  0.4808 -0.4687 -0.2792
  317TIP3    H122586   6.478   0.344   7.786  2.6295 -0.3923  0.3621
  317TIP3    H222587   6.599   0.325   7.697  0.4981 -1.7288 -2.3916
  318TIP3   OH222588   6.746   5.520   8.019  0.1668  0.1384 -0.0115
  318TIP3    H122589   6.741   5.490   8.110  1.1026 -0.4744 -0.1405
  318TIP3    H222590   6.782   5.445   7.972 -0.7433  0.2922 -0.9771
  319TIP3   OH222591   1.092   1.339   8.312 -0.1441 -0.3863  0.1529
  319TIP3    H122592   1.149   1.407   8.348 -1.5916  0.9342  0.0653
  319TIP3    H222593   1.135   1.313   8.230  0.7853 -0.0847  0.5256
  320TIP3   OH222594   1.992   2.658   0.070  0.4479  0.3173  0.0550
  320TIP3    H122595   1.997   2.750   0.045  0.5246  1.6933  4.3048
  320TIP3    H222596   1.898   2.638   0.069  0.5065 -0.1007 -2.1964
  321TIP3   OH222597   5.691   6.283   1.777 -0.1896  0.2509  0.0351
  321TIP3    H122598   5.713   6.372   1.749  1.5543 -0.3376 -0.6458
  321TIP3    H222599   5.769   6.253   1.824 -1.1219 -0.6036  1.0957
  322TIP3   OH222600   2.865   1.720   1.917  0.2219 -0.4509  0.3745
  322TIP3    H122601   2.898   1.631   1.902 -1.6752 -1.3023  1.0048
  322TIP3    H222602   2.808   1.737   1.842  2.3728  1.2478 -1.0243
  323TIP3   OH222603   6.686   4.959   6.707  0.4901  0.2060 -0.0487
  323TIP3    H122604   6.722   4.910   6.632  0.3724 -0.1772  0.1432
  323TIP3    H222605   6.690   4.897   6.780 -2.7482 -0.7268 -0.5097
  324TIP3   OH222606   3.258   4.745   7.635  0.1070 -0.3548  0.1677
  324TIP3    H122607   3.179   4.799   7.636 -1.1108 -2.0102  2.4720
  324TIP3    H222608   3.234   4.670   7.581  0.5309 -0.3303 -0.0595
  325TIP3   OH222609   3.405   1.154   6.668  0.1224  0.9915  0.0737
  325TIP3    H122610   3.390   1.238   6.624 -0.0601  1.7613  1.5568
  325TIP3    H222611   3.454   1.176   6.747  1.0972 -0.4487 -0.0713
  326TIP3   OH222612   1.435   0.494   1.609 -0.0062 -0.3791  0.0222
  326TIP3    H122613   1.350   0.476   1.648 -0.2119 -0.7658 -0.6007
  326TIP3    H222614   1.456   0.583   1.638  0.2437 -0.9609  1.7276
  327TIP3   OH222615   1.690   5.003   0.728  0.0883  0.1286 -0.6137
  327TIP3    H122616   1.615   4.946   0.745  0.6202 -0.2084  0.7575
  327TIP3    H222617   1.741   4.957   0.661  0.6543 -1.1835  0.6747
  328TIP3   OH222618   5.799   3.197   8.227  0.0158  0.0672 -0.3413
  328TIP3    H122619   5.758   3.272   8.182  0.1736  0.4230  0.0936
  328TIP3    H222620   5.829   3.234   8.310  1.9535  0.0115 -0.9688
  329TIP3   OH222621   3.868   0.833   7.142  0.5031 -0.1385 -0.6034
  329TIP3    H122622   3.895   0.856   7.231  1.6200 -0.5881 -0.8085
  329TIP3    H222623   3.920   0.890   7.086  1.2405 -1.1818 -1.0196
  330TIP3   OH222624   1.827   1.174   0.061  0.1027 -0.1626  0.0384
  330TIP3    H122625   1.864   1.098   0.016  2.1782  1.0978 -0.5342
  330TIP3    H222626   1.742   1.144   0.093  0.5531 -2.4965 -0.7479
  331TIP3   OH222627   3.841   0.496   7.806  0.1655 -0.5081  0.9328
  331TIP3    H122628   3.879   0.576   7.768 -0.1219 -0.6111  0.4109
  331TIP3    H222629   3.750   0.520   7.826 -0.2929 -1.0433 -0.3751
  332TIP3   OH222630   6.260   0.241   7.119  0.7007 -0.0485 -0.6617
  332TIP3    H122631   6.342   0.235   7.069  0.4557  0.8843 -1.1886
  332TIP3    H222632   6.267   0.324   7.166 -0.2468  0.3868 -1.2672
  333TIP3   OH222633   2.549   6.444   0.537  0.3010 -0.1543  0.2504
  333TIP3    H122634   2.624   6.413   0.487  1.0984  1.3226  0.4758
  333TIP3    H222635   2.492   6.485   0.472 -0.3399 -1.2672  0.0804
  334TIP3   OH222636   3.849   6.462   1.757  0.6170  0.2646 -0.0442
  334TIP3    H122637   3.793   6.390   1.788  0.1361  0.2558 -0.9123
  334TIP3    H222638   3.850   6.524   1.829 -0.6489  0.3367 -0.0725
  335TIP3   OH222639   5.359   3.252   1.144 -0.2244  0.4167 -0.0019
  335TIP3    H122640   5.378   3.255   1.051  0.3209  0.2505  0.0997
  335TIP3    H222641   5.430   3.300   1.185 -0.8768  1.1717  0.2784
  336TIP3   OH222642   5.540   0.537   0.171 -0.7656 -0.1979  0.3364
  336TIP3    H122643   5.538   0.623   0.129 -1.3192  0.1416  1.0346
  336TIP3    H222644   5.448   0.516   0.187 -0.5530  0.3786  2.7187
  337TIP3   OH222645   1.812   5.840   8.596  0.5218 -0.1669 -0.2607
  337TIP3    H122646   1.894   5.890   8.596 -0.4612  1.5272  0.9629
  337TIP3    H222647   1.773   5.858   8.681 -1.0226 -1.1543 -0.7244
  338TIP3   OH222648   1.451   1.422   7.952  0.6880 -0.0722 -0.1996
  338TIP3    H122649   1.533   1.461   7.921  1.0603 -0.7585 -0.0910
  338TIP3    H222650   1.413   1.380   7.875  0.2118  0.6241 -0.3502
  339TIP3   OH222651   0.793   2.915   8.775  1.1323 -0.1279 -0.0942
  339TIP3    H122652   0.723   2.980   8.770  1.7482  0.5951  0.3789
  339TIP3    H222653   0.798   2.892   8.867  0.9392 -0.8365 -0.2559
  340TIP3   OH222654   1.891   1.587   0.952  0.1646 -0.2138  0.1163
  340TIP3    H122655   1.966   1.594   0.893  0.9169 -1.9399  0.8138
  340TIP3    H222656   1.865   1.495   0.948 -1.3476  0.1590  0.6002
  341TIP3   OH222657   5.671   2.823   0.270 -0.0436 -0.5547  0.6216
  341TIP3    H122658   5.585   2.791   0.298 -1.1302 -0.0441 -1.8370
  341TIP3    H222659   5.670   2.916   0.290 -1.1983  0.0102 -1.7193
  342TIP3   OH222660   3.820   1.566   1.784 -0.1487  0.2807  0.4072
  342TIP3    H122661   3.843   1.648   1.826  2.4168  0.5143 -1.2342
  342TIP3    H222662   3.731   1.579   1.752 -0.4028  1.7795  1.6233
  343TIP3   OH222663   0.128   0.047   0.719 -0.4180  0.3455  0.4068
  343TIP3    H122664   0.157   0.081   0.634  0.1184 -0.7091  0.1486
  343TIP3    H222665   0.194   0.078   0.781 -0.5972  0.7883  0.3809
  344TIP3   OH222666   1.144   3.989   7.518  0.1790  0.0043  0.3800
  344TIP3    H122667   1.141   4.064   7.578 -0.1389  0.4529 -0.1886
  344TIP3    H222668   1.188   4.022   7.440  1.4067 -0.8322  0.6974
  345TIP3   OH222669   6.350   2.303   6.702  0.1770  0.2304 -0.3221
  345TIP3    H122670   6.366   2.220   6.746 -1.9085 -0.4322 -0.7034
  345TIP3    H222671   6.401   2.298   6.621  0.6123 -0.3829 -0.0128
  346TIP3   OH222672   6.093   1.006   1.466 -0.0583  0.3566 -0.7725
  346TIP3    H122673   6.075   1.092   1.428  0.1838  1.2149  0.9567
  346TIP3    H222674   6.139   1.025   1.548  0.9763 -1.4731 -0.8747
  347TIP3   OH222675   5.473   3.639   1.750  0.2009  0.2395  0.1370
  347TIP3    H122676   5.478   3.621   1.657 -0.8196  1.2294 -0.1407
  347TIP3    H222677   5.443   3.557   1.789 -1.2592  0.3628 -0.6635
  348TIP3   OH222678   5.207   0.529   1.314  0.0602 -0.4332 -0.7727
  348TIP3    H122679   5.181   0.621   1.318  0.3017 -0.3933  2.6525
  348TIP3    H222680   5.124   0.481   1.315 -0.0425 -0.2476  0.5436
  349TIP3   OH222681   0.323   3.576   8.493 -0.0160 -0.4994  0.4045
  349TIP3    H122682   0.303   3.664   8.525  0.6506 -0.5498  1.0008
  349TIP3    H222683   0.360   3.590   8.406 -0.7767 -0.2676  0.1107
  350TIP3   OH222684   1.006   4.827   7.135  0.1376  0.0013 -0.1978
  350TIP3    H122685   0.968   4.747   7.098  0.7363 -0.5903  0.4209
  350TIP3    H222686   0.957   4.841   7.216  1.3637 -0.9386  0.7630
  351TIP3   OH222687   1.990   5.732   7.914  0.1436 -0.2051 -0.6818
  351TIP3    H122688   2.067   5.749   7.969  0.3662 -0.0029 -1.0561
  351TIP3    H222689   1.985   5.636   7.909 -0.5031 -0.2556  0.5668
  352TIP3   OH222690   3.548   0.004   1.562 -0.2450 -0.2362  0.1530
  352TIP3    H122691   3.525   0.079   1.507  0.1940  0.1378  0.4733
  352TIP3    H222692   3.487   0.008   1.635 -0.1983 -0.1681  0.1886
  353TIP3   OH222693   1.401   6.200   7.345 -0.0824  0.0497 -0.1717
  353TIP3    H122694   1.358   6.228   7.264  0.2461  0.2313 -0.2837
  353TIP3    H222695   1.348   6.239   7.414 -0.2117  0.1107 -0.3029
  354TIP3   OH222696   0.013   5.223   2.686 -0.3826  0.3816  0.2212
  354TIP3    H122697   0.047   5.299   2.733 -0.6031  0.6752 -0.0851
  354TIP3    H222698   0.074   5.210   2.613 -0.8221  0.8162 -0.2403
  355TIP3   OH222699   4.147   1.256   6.687  0.5713  0.1863 -0.3460
  355TIP3    H122700   4.233   1.217   6.704  0.7803  0.5186 -0.6510
  355TIP3    H222701   4.137   1.322   6.756 -0.4572 -1.4379  1.1679
  356TIP3   OH222702   4.958   5.487   8.015  0.5488  0.4405 -0.0297
  356TIP3    H122703   4.995   5.428   8.080  1.8108  1.5766  0.3045
  356TIP3    H222704   4.863   5.484   8.031  0.6605 -0.8632  0.4851
  357TIP3   OH222705   3.228   5.161   0.522 -0.7486 -0.2352  0.1688
  357TIP3    H122706   3.173   5.195   0.593 -1.9340  0.5322 -1.0734
  357TIP3    H222707   3.231   5.232   0.458  0.4915 -0.8325 -0.4639
  358TIP3   OH222708   4.131   0.287   0.512  0.2350  0.4051  0.4126
  358TIP3    H122709   4.117   0.343   0.588 -0.3012 -0.0265  0.6357
  358TIP3    H222710   4.051   0.235   0.505  0.0830  0.7660 -0.7326
  359TIP3   OH222711   4.736   6.438   7.237 -0.1021 -0.1072  0.4885
  359TIP3    H122712   4.805   6.461   7.300  2.2013 -1.0927 -1.5318
  359TIP3    H222713   4.741   6.507   7.171 -0.6120 -0.5607 -0.0241
  360TIP3   OH222714   1.424   4.322   8.324  0.2613 -0.3227 -0.4088
  360TIP3    H122715   1.404   4.303   8.416  0.4225  0.5902 -0.1750
  360TIP3    H222716   1.506   4.372   8.328  0.4281 -0.5426 -1.0723
  361TIP3   OH222717   6.043   0.939   6.575 -0.2378 -1.0456 -0.0392
  361TIP3    H122718   6.033   0.914   6.483  0.7007 -0.0685 -0.4309
  361TIP3    H222719   6.069   1.031   6.571  0.3426 -1.1473  1.1832
  362TIP3   OH222720   4.029   3.080   7.402  0.0861 -0.3458 -0.5223
  362TIP3    H122721   4.091   3.087   7.329  0.2092 -0.6151 -0.4421
  362TIP3    H222722   3.968   3.012   7.375 -0.6165  0.4158 -0.9248
  363TIP3   OH222723   1.643   6.734   6.838  0.3472  0.5072  0.3374
  363TIP3    H122724   1.669   6.658   6.890  1.0424  0.3076 -0.2817
  363TIP3    H222725   1.565   6.706   6.791  0.4051  0.2937  0.3690
  364TIP3   OH222726   4.187   2.412   2.736 -0.0311 -0.6495  0.3763
  364TIP3    H122727   4.150   2.493   2.703  1.0904 -0.0887  0.4532
  364TIP3    H222728   4.111   2.354   2.748 -0.7894  0.2157 -0.1165
  365TIP3   OH222729   4.155   1.344   0.119 -0.4002  0.0322  0.3480
  365TIP3    H122730   4.110   1.428   0.107  0.1754  0.3889  0.6469
  365TIP3    H222731   4.095   1.292   0.172 -0.1568  0.7668  1.3667
  366TIP3   OH222732   3.333   5.165   7.878 -0.2883  0.2858  0.3895
  366TIP3    H122733   3.323   5.145   7.785  2.6396  0.2126 -0.0130
  366TIP3    H222734   3.269   5.109   7.922  0.5543 -2.2293 -1.3855
  367TIP3   OH222735   2.241   0.388   7.627  0.7980 -0.2324 -0.3850
  367TIP3    H122736   2.248   0.408   7.533 -2.2191  0.7393 -0.5067
  367TIP3    H222737   2.330   0.401   7.661  1.4693  1.9764 -2.6426
  368TIP3   OH222738   5.144   4.674   8.485  0.6587  0.2436 -0.1162
  368TIP3    H122739   5.208   4.690   8.555  0.7176 -0.0842 -0.0944
  368TIP3    H222740   5.151   4.580   8.466  0.1554  0.1927 -0.0843
  369TIP3   OH222741   2.561   4.035   8.044 -0.2976 -0.6343 -0.4692
  369TIP3    H122742   2.653   4.020   8.023 -0.4573  0.2673 -1.9923
  369TIP3    H222743   2.523   3.947   8.049  0.1584 -0.9903 -2.3726
  370TIP3   OH222744   0.686   0.542   2.655  0.2356 -0.0062  0.6175
  370TIP3    H122745   0.644   0.507   2.576  2.2654 -0.5376 -0.2679
  370TIP3    H222746   0.660   0.635   2.656 -2.1530 -0.6118  0.9682
  371TIP3   OH222747   6.110   6.459   7.794  0.3840  0.4178  0.0586
  371TIP3    H122748   6.113   6.441   7.888 -1.3247  1.1451  0.3038
  371TIP3    H222749   6.201   6.466   7.767  1.1242 -3.7053  0.8275
  372TIP3   OH222750   3.970   2.803   1.596  0.0402 -0.0018  0.6097
  372TIP3    H122751   3.877   2.820   1.576  0.3139 -0.1429 -0.9275
  372TIP3    H222752   4.008   2.890   1.608 -0.2498  0.0673  1.0306
  373TIP3   OH222753   1.113   4.305   1.484  0.1183  1.0616  0.3022
  373TIP3    H122754   1.156   4.238   1.430 -0.0854  1.3722 -0.2616
  373TIP3    H222755   1.152   4.295   1.571  0.4303  0.5245  0.1077
  374TIP3   OH222756   4.128   5.718   8.725  0.0528 -0.4157  0.2662
  374TIP3    H122757   4.196   5.672   8.675 -1.0352 -1.9340  0.1430
  374TIP3    H222758   4.093   5.783   8.663  0.3940 -0.5971 -0.1256
  375TIP3   OH222759   2.626   5.815   1.551 -0.0611 -0.0261  0.6836
  375TIP3    H122760   2.548   5.870   1.540 -0.7232 -1.0564 -0.0109
  375TIP3    H222761   2.694   5.875   1.582 -0.2435  1.5658 -1.7140
  376TIP3   OH222762   4.315   5.576   8.601 -0.7391 -0.1849  0.3283
  376TIP3    H122763   4.389   5.555   8.544  0.1423  1.8171  0.6253
  376TIP3    H222764   4.350   5.567   8.690 -1.4767 -1.2094  0.5300
  377TIP3   OH222765   1.708   3.100   0.376  0.2455 -0.2860 -0.2034
  377TIP3    H122766   1.662   3.141   0.303 -0.0888 -1.1341 -0.4841
  377TIP3    H222767   1.788   3.065   0.337  1.3873  1.5616  0.3639
  378TIP3   OH222768   0.674   2.911   0.378  0.6790  0.0113 -0.5538
  378TIP3    H122769   0.582   2.917   0.350  0.7628 -0.1760 -0.8605
  378TIP3    H222770   0.678   2.830   0.429  0.6818  0.0016 -0.5695
  379TIP3   OH222771   5.417   5.400   8.257 -0.2021  0.2272  0.1765
  379TIP3    H122772   5.446   5.312   8.284  0.1350  0.8625  2.0036
  379TIP3    H222773   5.424   5.453   8.337 -2.2500  1.4633 -0.4091
  380TIP3   OH222774   0.662   1.392   1.766  0.0460 -0.5824 -0.0940
  380TIP3    H122775   0.609   1.471   1.762  1.2050  0.2615  0.6974
  380TIP3    H222776   0.604   1.325   1.802  0.2495  1.0136  3.6116
  381TIP3   OH222777   4.974   0.400   2.408  0.1370  0.4933 -0.4446
  381TIP3    H122778   5.006   0.459   2.476  0.3670  0.4500 -0.5138
  381TIP3    H222779   5.053   0.374   2.361 -0.0724  0.9059 -1.0337
  382TIP3   OH222780   0.938   0.860   2.205 -0.2116 -0.1544  0.2344
  382TIP3    H122781   0.946   0.939   2.258  0.0787 -0.5021  0.7184
  382TIP3    H222782   1.003   0.800   2.241 -0.2926 -0.5466 -0.2556
  383TIP3   OH222783   2.986   1.505   6.209  0.2894  0.0143  0.1714
  383TIP3    H122784   2.996   1.586   6.259 -1.6031 -0.2866  1.1387
  383TIP3    H222785   3.061   1.504   6.150 -0.2903  3.1175 -0.8150
  384TIP3   OH222786   6.757   3.138   0.167  0.2564  0.5318  0.3696
  384TIP3    H122787   6.750   3.229   0.136 -0.4242  0.2314 -0.3903
  384TIP3    H222788   6.734   3.085   0.091  1.0777 -0.3054  0.6794
  385TIP3   OH222789   5.031   4.297   7.575  0.0094  0.4203  0.1082
  385TIP3    H122790   5.125   4.289   7.594  0.5510  1.7725 -1.7021
  385TIP3    H222791   5.002   4.208   7.556  1.4220  0.2155 -1.2674
  386TIP3   OH222792   0.363   6.222   2.298  0.0309 -0.2498 -0.5366
  386TIP3    H122793   0.434   6.283   2.277 -1.6946  1.3317 -2.2918
  386TIP3    H222794   0.379   6.147   2.241  1.6273 -1.0890  0.9239
  387TIP3   OH222795   1.274   4.304   8.071 -0.1881 -0.4485  0.8697
  387TIP3    H122796   1.323   4.229   8.036  2.2294  0.8468  1.2546
  387TIP3    H222797   1.314   4.320   8.157 -0.3181  1.5718  0.5888
  388TIP3   OH222798   2.802   3.875   0.423  1.0140  0.6268  0.0656
  388TIP3    H122799   2.813   3.787   0.388  0.8106  1.5810 -2.5831
  388TIP3    H222800   2.879   3.888   0.479  1.5712 -0.8615 -0.3057
  389TIP3   OH222801   0.894   2.283   7.346 -0.1142  0.4422 -1.0924
  389TIP3    H122802   0.809   2.291   7.390  0.3092 -0.5283 -0.0719
  389TIP3    H222803   0.942   2.218   7.397  1.0546  0.5837 -1.9724
  390TIP3   OH222804   3.424   0.943   7.386 -0.4766  0.1315  0.0477
  390TIP3    H122805   3.393   1.008   7.323 -0.4899 -0.1633 -0.2532
  390TIP3    H222806   3.431   0.991   7.468 -0.7800  0.4412 -0.1022
  391TIP3   OH222807   2.251   5.224   2.311  0.2048  0.4649 -0.2512
  391TIP3    H122808   2.342   5.247   2.291  0.6338 -1.4057 -0.6230
  391TIP3    H222809   2.206   5.309   2.318  1.6504  1.3958 -1.5177
  392TIP3   OH222810   4.247   1.704   2.047 -0.3351  0.2847  0.2776
  392TIP3    H122811   4.227   1.785   2.094  0.8487  0.8644 -0.1996
  392TIP3    H222812   4.339   1.711   2.023 -0.7540 -0.2524 -1.6435
  393TIP3   OH222813   5.735   3.023   8.005 -0.1668 -0.1188 -0.4946
  393TIP3    H122814   5.755   3.043   8.096  0.8334 -2.6944 -0.0690
  393TIP3    H222815   5.821   3.011   7.964 -0.5833 -2.9891 -0.7211
  394TIP3   OH222816   4.423   6.808   8.071  0.0960  0.0874  0.2764
  394TIP3    H122817   4.343   6.860   8.067 -0.8305 -1.3962 -1.0666
  394TIP3    H222818   4.481   6.848   8.006  0.4649  1.0866  1.1691
  395TIP3   OH222819   0.816   5.603   8.261  0.6982  0.1921 -0.1204
  395TIP3    H122820   0.770   5.647   8.189  0.1561  1.7229  1.1101
  395TIP3    H222821   0.749   5.546   8.300  0.7346  0.0648 -0.2418
  396TIP3   OH222822   5.431   6.725   7.511  0.4260  0.1678 -0.3339
  396TIP3    H122823   5.361   6.709   7.448  1.0008  1.2983 -1.2942
  396TIP3    H222824   5.403   6.678   7.590 -2.2951  1.9793 -0.0790
  397TIP3   OH222825   0.738   2.391   7.867  0.7283  0.0719 -0.4090
  397TIP3    H122826   0.683   2.466   7.842  1.1349  0.5893  0.2126
  397TIP3    H222827   0.731   2.387   7.962  2.3276  0.6204 -0.2255
  398TIP3   OH222828   5.028   0.460   1.632  0.1029  0.0377 -0.0374
  398TIP3    H122829   5.047   0.486   1.722  0.7033 -0.0809 -0.1299
  398TIP3    H222830   4.935   0.434   1.634 -0.1922  1.0615  0.3119
  399TIP3   OH222831   1.280   4.812   0.332 -0.8605 -0.3637  0.1341
  399TIP3    H122832   1.239   4.898   0.339 -1.3731 -0.5039 -0.9119
  399TIP3    H222833   1.249   4.764   0.409 -0.4460  0.4186  0.8105
  400TIP3   OH222834   3.926   6.062   8.142 -0.3142 -0.0129 -0.1011
  400TIP3    H122835   3.835   6.047   8.169 -0.1968 -0.0922  0.2567
  400TIP3    H222836   3.951   5.981   8.097 -0.5063  0.1149 -0.4472
  401TIP3   OH222837   2.792   0.307   6.557  0.2612 -0.3061  0.2240
  401TIP3    H122838   2.756   0.218   6.555 -1.9366  0.4818  1.5267
  401TIP3    H222839   2.744   0.353   6.489  1.0801  0.0351 -0.1391
  402TIP3   OH222840   4.082   5.836   1.741 -0.2736 -0.5772  0.0792
  402TIP3    H122841   4.064   5.751   1.782  0.6023 -0.9144 -0.2238
  402TIP3    H222842   4.041   5.830   1.655  1.3965 -1.4200 -0.6892
  403TIP3   OH222843   1.793   1.325   1.019  0.2227 -0.0564 -0.2998
  403TIP3    H122844   1.812   1.323   1.113 -1.0205 -0.2557 -0.0286
  403TIP3    H222845   1.746   1.243   1.003  2.0140 -0.9281 -1.4879
  404TIP3   OH222846   1.620   5.548   7.996 -0.3799  0.5762 -0.9139
  404TIP3    H122847   1.535   5.514   8.022 -0.2806  1.1256  0.1959
  404TIP3    H222848   1.613   5.643   8.010  0.7249  0.5195  0.1681
  405TIP3   OH222849   2.368   0.380   0.415  0.4264  0.4016  0.1151
  405TIP3    H122850   2.293   0.439   0.416 -0.2110 -0.3803 -0.0466
  405TIP3    H222851   2.409   0.391   0.501  1.2012  2.1500 -0.4476
  406TIP3   OH222852   0.021   2.660   0.662  0.0719 -0.0002  0.2253
  406TIP3    H122853  -0.046   2.592   0.649  1.0040 -0.5496 -2.3802
  406TIP3    H222854  -0.026   2.742   0.649 -0.1543 -0.3777 -1.6615
  407TIP3   OH222855   4.412   3.137   8.003 -0.4097 -0.0473  0.6508
  407TIP3    H122856   4.329   3.178   8.029 -1.2051 -1.8954  1.2004
  407TIP3    H222857   4.387   3.071   7.939  0.9531  0.9274 -0.9648
  408TIP3   OH222858   4.757   4.949   1.083 -0.7457 -0.0674 -0.1075
  408TIP3    H122859   4.734   5.039   1.106  1.0796  0.5975 -0.6655
  408TIP3    H222860   4.782   4.909   1.166  1.2089  0.8764 -0.1593
  409TIP3   OH222861   5.684   3.291   7.900 -0.5546  0.4090  0.3594
  409TIP3    H122862   5.694   3.203   7.936 -0.0513 -0.4226 -1.6261
  409TIP3    H222863   5.684   3.349   7.976  1.0966 -1.1278  1.6220
  410TIP3   OH222864   2.646   2.160   8.807  0.5502 -0.5060  0.2504
  410TIP3    H122865   2.620   2.249   8.786 -0.3496 -0.8927 -0.3577
  410TIP3    H222866   2.663   2.119   8.722 -2.4993 -1.9069  0.1786
  411TIP3   OH222867   3.292   2.179   7.434  0.2059 -0.0780 -0.4725
  411TIP3    H122868   3.260   2.155   7.347 -0.1008 -0.8514 -0.1584
  411TIP3    H222869   3.234   2.133   7.494  0.3014  0.5935  0.1496
  412TIP3   OH222870   0.658   5.203   1.314 -0.3481 -0.1203  0.1071
  412TIP3    H122871   0.624   5.285   1.350  0.0292 -0.2975  0.9090
  412TIP3    H222872   0.735   5.184   1.368  1.5889  0.7212 -2.1554
  413TIP3   OH222873   2.416   4.722   8.173  0.2336  0.4623  0.1267
  413TIP3    H122874   2.330   4.759   8.154  0.3014  1.1994  1.1547
  413TIP3    H222875   2.447   4.773   8.248  1.2333 -0.3081  0.2455
  414TIP3   OH222876   6.531   2.998   1.733 -0.3510  0.0555  0.0678
  414TIP3    H122877   6.582   2.958   1.804  1.8464  2.1450 -0.1829
  414TIP3    H222878   6.440   2.974   1.752  0.2829 -0.5189  2.8758
  415TIP3   OH222879   4.361   5.416   0.425  0.3942 -0.1491  0.1960
  415TIP3    H122880   4.389   5.492   0.374  0.7696 -0.6980 -0.4291
  415TIP3    H222881   4.390   5.436   0.515 -0.5959  0.9888  0.2927
  416TIP3   OH222882   5.120   2.802   7.117  0.1653  0.1756 -0.4409
  416TIP3    H122883   5.056   2.783   7.048 -0.7990 -0.1704  0.5121
  416TIP3    H222884   5.119   2.897   7.125  0.2776  0.2175 -0.8970
  417TIP3   OH222885   6.044   0.709   7.519  0.1901 -0.0605  0.0719
  417TIP3    H122886   5.982   0.637   7.503  0.1111  0.1636 -0.6764
  417TIP3    H222887   5.999   0.765   7.582 -0.5297  0.2697 -0.7069
  418TIP3   OH222888   2.902   0.290   8.466 -0.7845  0.3692  0.3823
  418TIP3    H122889   2.833   0.331   8.517 -0.7290  1.3956 -0.3360
  418TIP3    H222890   2.891   0.326   8.378  2.8582  3.4858  0.9364
  419TIP3   OH222891   1.152   5.412   1.991  0.1756  0.5894  0.0193
  419TIP3    H122892   1.074   5.366   2.023 -1.1546  1.5363 -1.6610
  419TIP3    H222893   1.196   5.348   1.935 -1.2948  1.0326 -1.7537
  420TIP3   OH222894   4.675   4.665   0.361  0.3140  0.0146 -0.3539
  420TIP3    H122895   4.655   4.672   0.454 -0.9986  1.6924 -0.7205
  420TIP3    H222896   4.726   4.744   0.341  1.8301 -1.0210 -0.8052
  421TIP3   OH222897   4.794   6.250   8.489  0.4076 -0.1427 -0.0073
  421TIP3    H122898   4.700   6.234   8.478 -0.0654  0.0172  2.9424
  421TIP3    H222899   4.806   6.341   8.463  0.7109 -1.2688 -4.6485
  422TIP3   OH222900   2.325   1.956   1.620  0.3428 -0.3152 -0.0016
  422TIP3    H122901   2.290   1.953   1.709  0.7783  0.5959  0.2067
  422TIP3    H222902   2.263   2.009   1.571  0.0383 -0.9162 -0.2837
  423TIP3   OH222903   5.639   5.106   0.382  0.1227 -0.3268  0.1320
  423TIP3    H122904   5.650   5.015   0.410  0.3354 -0.4918 -0.4670
  423TIP3    H222905   5.664   5.158   0.459  1.6328 -0.7510 -0.0323
  424TIP3   OH222906   6.023   3.728   0.800 -0.3072  0.0932 -0.2003
  424TIP3    H122907   6.021   3.688   0.887 -1.0811  0.6888  0.0643
  424TIP3    H222908   6.103   3.780   0.799 -1.0849  1.3479  0.7408
  425TIP3   OH222909   1.367   0.488   7.553 -0.1454  0.4086  0.8271
  425TIP3    H122910   1.414   0.572   7.547  1.5348 -0.5784 -1.3039
  425TIP3    H222911   1.429   0.430   7.598  1.0061 -1.0091 -2.3255
  426TIP3   OH222912   1.475   4.716   8.203  0.2832 -0.3205  0.7253
  426TIP3    H122913   1.486   4.676   8.289  0.6030  1.2190  1.4397
  426TIP3    H222914   1.530   4.794   8.206  0.4572 -0.3391 -0.9654
  427TIP3   OH222915   1.031   1.740   2.371 -0.6062 -0.4433 -0.1833
  427TIP3    H122916   1.088   1.670   2.338 -2.1213 -0.9490 -1.9074
  427TIP3    H222917   1.030   1.728   2.466  2.2786 -0.2729 -0.0385
  428TIP3   OH222918   3.959   6.389   8.693 -0.2389 -0.7328 -0.4835
  428TIP3    H122919   3.939   6.448   8.766 -2.6938 -0.7929 -1.0199
  428TIP3    H222920   3.984   6.306   8.735  1.4567  0.1140  0.2541
  429TIP3   OH222921   3.091   6.724   7.488  0.1625 -0.0309 -0.1270
  429TIP3    H122922   3.129   6.812   7.496 -0.7796  0.3331  0.5828
  429TIP3    H222923   2.999   6.740   7.466  0.0632 -0.8553 -0.3444
  430TIP3   OH222924   1.875   3.122   8.873 -0.0842  0.4965  0.2724
  430TIP3    H122925   1.793   3.111   8.826 -1.1601 -0.0542  2.1566
  430TIP3    H222926   1.856   3.187   8.940  1.2484  0.9021  0.2949
  431TIP3   OH222927   2.566   5.210   0.144  0.0759 -0.4250  0.5862
  431TIP3    H122928   2.651   5.238   0.179  1.2808 -1.1530 -1.5832
  431TIP3    H222929   2.563   5.116   0.158 -0.4917 -0.3734  0.8585
  432TIP3   OH222930   5.582   5.130   0.646 -0.1426 -0.0663 -0.1246
  432TIP3    H122931   5.659   5.074   0.649 -0.3653 -0.3524  0.3521
  432TIP3    H222932   5.579   5.172   0.732 -0.7486 -0.3776  0.0121
  433TIP3   OH222933   4.131   5.021   6.471 -0.0961 -0.4740  0.1079
  433TIP3    H122934   4.182   5.035   6.551  1.4621  1.1622 -1.0617
  433TIP3    H222935   4.072   5.096   6.467  1.0412  0.4148 -1.0687
  434TIP3   OH222936   0.039   0.199   8.777 -0.6564  0.6877  0.4795
  434TIP3    H122937  -0.010   0.280   8.766 -0.2998  1.2018  2.2898
  434TIP3    H222938   0.127   0.227   8.800 -0.4977 -0.2006  1.0184
  435TIP3   OH222939   5.816   5.644   1.800 -0.2087 -1.5711  0.1049
  435TIP3    H122940   5.852   5.572   1.749 -1.5967 -0.3317 -2.8346
  435TIP3    H222941   5.884   5.711   1.798 -0.0308 -1.7417  0.4021
  436TIP3   OH222942   6.481   3.125   1.141 -0.4411  0.4211  0.3167
  436TIP3    H122943   6.571   3.104   1.118 -0.1486  3.1189 -1.4338
  436TIP3    H222944   6.430   3.104   1.063 -0.6096  2.7527 -0.2796
  437TIP3   OH222945   1.439   6.410   0.457  0.9177 -0.1325 -0.1137
  437TIP3    H122946   1.391   6.414   0.374  1.4590 -1.1249 -0.4813
  437TIP3    H222947   1.370   6.410   0.524  0.4944  1.6203 -0.4916
  438TIP3   OH222948   6.109   2.163   7.398 -0.2958  0.9709 -0.2367
  438TIP3    H122949   6.090   2.078   7.437 -1.9055  0.0411 -2.7771
  438TIP3    H222950   6.078   2.227   7.462 -0.4980 -0.3750  1.0497
  439TIP3   OH222951   6.572   1.402   1.208 -0.3087  0.0153 -0.5349
  439TIP3    H122952   6.557   1.330   1.147 -1.3868 -1.0140  0.8846
  439TIP3    H222953   6.555   1.364   1.295 -1.5293  2.1293  0.2238
  440TIP3   OH222954   4.579   1.506   8.841  0.1956 -0.1527 -0.3248
  440TIP3    H122955   4.552   1.459   8.920  0.4263  0.1002 -0.0943
  440TIP3    H222956   4.638   1.575   8.873  0.6298 -0.3183 -0.7595
  441TIP3   OH222957   4.363   4.219   7.691 -1.2350 -0.6919  0.4295
  441TIP3    H122958   4.337   4.155   7.757 -0.0882 -1.6901 -0.0368
  441TIP3    H222959   4.446   4.185   7.656  0.0609  1.6762  0.9901
  442TIP3   OH222960   4.112   1.838   1.001  0.3545  0.4377 -0.1583
  442TIP3    H122961   4.084   1.847   1.092  0.6246 -1.4690  0.1645
  442TIP3    H222962   4.166   1.759   1.000  1.1828  0.9700 -1.8014
  443TIP3   OH222963   2.859   0.316   7.252 -0.2323  0.7965 -0.0496
  443TIP3    H122964   2.764   0.327   7.242 -0.3053 -0.6492 -1.3095
  443TIP3    H222965   2.897   0.381   7.192 -0.4830  0.1889 -0.8915
  444TIP3   OH222966   0.182   2.022   8.892  0.7462 -0.2449  0.0515
  444TIP3    H122967   0.149   2.111   8.903  0.3143 -0.3179 -0.6175
  444TIP3    H222968   0.276   2.033   8.877  0.8807  0.0230  1.0421
  445TIP3   OH222969   0.757   5.829   6.606 -0.2052 -0.1116 -0.6142
  445TIP3    H122970   0.757   5.909   6.659 -0.6458 -1.4679  1.5391
  445TIP3    H222971   0.833   5.839   6.549 -0.4407  1.9758 -0.6372
  446TIP3   OH222972   6.182   6.730   6.885  0.4664 -0.5840 -0.3405
  446TIP3    H122973   6.215   6.641   6.874 -0.7414 -0.9216 -1.4656
  446TIP3    H222974   6.243   6.784   6.835  0.5411 -0.9257 -0.6205
  447TIP3   OH222975   3.656   1.817   0.297  0.1263  0.1204  0.3908
  447TIP3    H122976   3.592   1.747   0.308  0.9219 -0.9774 -1.4564
  447TIP3    H222977   3.674   1.848   0.386 -2.1370 -0.2418  1.0343
  448TIP3   OH222978   5.672   2.702   7.859 -0.2377  0.0122  0.2220
  448TIP3    H122979   5.586   2.742   7.868 -0.5744 -0.7247  0.3395
  448TIP3    H222980   5.709   2.742   7.781 -0.1604  1.2768  0.8902
  449TIP3   OH222981   6.684   0.638   7.383  0.5423  0.1904 -0.6558
  449TIP3    H122982   6.644   0.608   7.465 -0.2965  0.1539 -1.0709
  449TIP3    H222983   6.778   0.645   7.404  0.7773 -2.4468 -0.4552
  450TIP3   OH222984   1.456   3.276   6.987 -0.0857 -0.1471 -0.2412
  450TIP3    H122985   1.365   3.271   7.018  0.4353 -2.4709  1.1472
  450TIP3    H222986   1.469   3.197   6.935  0.9764  0.4751 -0.9693
  451TIP3   OH222987   5.770   6.519   8.555  0.0225 -0.0757 -0.2882
  451TIP3    H122988   5.693   6.536   8.609  0.5542 -1.2763  0.9021
  451TIP3    H222989   5.754   6.568   8.475 -0.8996  1.5960  0.8609
  452TIP3   OH222990   6.360   4.289   8.417  0.0982  0.3448  0.0537
  452TIP3    H122991   6.395   4.206   8.450 -0.1236  0.5628  0.8450
  452TIP3    H222992   6.400   4.355   8.473 -0.8377  0.6689  0.3469
  453TIP3   OH222993   3.678   5.080   7.630 -0.2334  0.6239  0.6998
  453TIP3    H122994   3.750   5.039   7.678 -0.8886  0.4301  1.5572
  453TIP3    H222995   3.605   5.018   7.637 -0.3964  0.6631 -0.4381
  454TIP3   OH222996   3.214   3.619   2.616 -0.4524 -0.1633  0.3989
  454TIP3    H122997   3.301   3.603   2.653 -0.2269  0.8191  0.3063
  454TIP3    H222998   3.180   3.531   2.598  0.0862 -0.6010  1.4254
  455TIP3   OH222999   2.343   3.204   7.415 -0.4693  0.1029  0.2824
  455TIP3    H123000   2.253   3.234   7.405 -0.0338  1.6317  0.6323
  455TIP3    H223001   2.379   3.261   7.484  1.1212  0.3763 -0.7334
  456TIP3   OH223002   0.863   6.196   7.533 -0.0300 -0.9577 -0.1158
  456TIP3    H123003   0.789   6.245   7.497  1.0167 -1.5567 -3.4570
  456TIP3    H223004   0.826   6.112   7.560 -0.6301 -1.3336 -1.9495
  457TIP3   OH223005   2.173   2.693   1.865 -0.1610 -0.0192 -0.9938
  457TIP3    H123006   2.213   2.607   1.856 -1.9825 -0.9758 -0.4734
  457TIP3    H223007   2.109   2.682   1.936  0.2837  2.0488 -0.2059
  458TIP3   OH223008   3.811   0.224   6.932 -0.3097 -0.6908  0.3818
  458TIP3    H123009   3.808   0.259   7.021 -0.5037  1.6065 -0.4519
  458TIP3    H223010   3.901   0.195   6.920 -0.7832 -3.1551  1.9983
  459TIP3   OH223011   4.905   0.643   6.964 -0.7481  0.2354  1.1266
  459TIP3    H123012   4.988   0.641   6.915 -0.7969 -2.0471  1.0503
  459TIP3    H223013   4.840   0.670   6.899 -0.4312 -0.3423  0.5543
  460TIP3   OH223014   4.406   3.552   8.709  0.3206 -0.1879  0.4582
  460TIP3    H123015   4.470   3.518   8.646 -0.2930 -1.5523  0.5346
  460TIP3    H223016   4.407   3.488   8.781 -1.2624 -0.3652  0.3599
  461TIP3   OH223017   0.320   2.570   8.269  0.0521  0.0833 -0.0062
  461TIP3    H123018   0.385   2.525   8.323  0.7678  0.2160 -0.7396
  461TIP3    H223019   0.256   2.503   8.246  1.2328 -0.6344 -1.2866
  462TIP3   OH223020   4.703   3.151   0.075 -0.4400  0.1462  0.1845
  462TIP3    H123021   4.781   3.099   0.056 -1.5050 -1.5870  0.2867
  462TIP3    H223022   4.678   3.187  -0.010  0.3276  0.5277  0.1094
  463TIP3   OH223023   1.884   4.296   0.708  0.2196 -0.5440  0.5838
  463TIP3    H123024   1.845   4.232   0.648 -0.6208 -0.1958  0.7361
  463TIP3    H223025   1.835   4.376   0.693  2.5624  0.6885 -1.0286
  464TIP3   OH223026   0.297   0.061   0.144 -0.0045 -0.0847 -0.0090
  464TIP3    H123027   0.313  -0.006   0.211 -0.8928  0.5792  0.9099
  464TIP3    H223028   0.288   0.142   0.194  1.5972  0.8376 -1.1515
  465TIP3   OH223029   4.551   6.710   7.396 -0.1697 -0.8417  0.5069
  465TIP3    H123030   4.487   6.640   7.389 -1.0686 -0.1366  1.4137
  465TIP3    H223031   4.553   6.750   7.310 -0.5573 -1.1878  0.3350
  466TIP3   OH223032   2.207   2.279   7.629 -0.4110 -0.3672  0.2477
  466TIP3    H123033   2.177   2.356   7.581 -0.8919 -0.6044  0.1653
  466TIP3    H223034   2.239   2.220   7.561 -1.8653 -1.0518  0.1205
  467TIP3   OH223035   3.391   3.247   0.166  0.5446  0.0328  0.4315
  467TIP3    H123036   3.459   3.252   0.234  0.2116 -0.0827  0.7796
  467TIP3    H223037   3.308   3.252   0.215  0.3028  0.0628  0.0225
  468TIP3   OH223038   4.274   2.905   1.113 -0.5741  0.2241 -0.6032
  468TIP3    H123039   4.364   2.923   1.141 -1.2130 -0.1215  1.9312
  468TIP3    H223040   4.273   2.811   1.095 -0.7054 -0.0340  0.6679
  469TIP3   OH223041   4.217   6.541   7.358 -0.1168 -0.1116  0.1150
  469TIP3    H123042   4.306   6.527   7.390 -0.2494 -0.6022  0.2765
  469TIP3    H223043   4.212   6.635   7.340  0.4848 -0.1119 -0.0544
  470TIP3   OH223044   0.695   3.660   0.321 -1.0300 -0.0627 -0.1212
  470TIP3    H123045   0.755   3.588   0.337 -1.4826 -0.2245  0.9681
  470TIP3    H223046   0.697   3.712   0.402 -0.4343  1.3781 -1.0052
  471TIP3   OH223047   2.503   3.534   6.875  0.1091  0.0719 -0.0566
  471TIP3    H123048   2.409   3.553   6.881 -0.1705 -1.1618 -0.1095
  471TIP3    H223049   2.538   3.557   6.960 -0.5171 -0.7405  0.4377
  472TIP3   OH223050   0.676   4.280   8.087 -0.5921 -0.1569  0.0108
  472TIP3    H123051   0.629   4.215   8.139  1.7790 -1.4399  0.6901
  472TIP3    H223052   0.765   4.281   8.124  0.6907  0.2456 -2.8174
  473TIP3   OH223053   0.896   3.025   2.029 -0.4650  0.2152  0.2364
  473TIP3    H123054   0.810   2.984   2.031 -0.3312 -0.0447  1.4214
  473TIP3    H223055   0.882   3.112   2.065 -0.1753  0.0163  0.8611
  474TIP3   OH223056   0.982   1.290   1.458 -0.4393 -0.1869 -0.0493
  474TIP3    H123057   0.891   1.321   1.463 -0.7782 -1.1186 -0.3025
  474TIP3    H223058   0.982   1.208   1.508 -0.2298 -1.2871 -1.7829
  475TIP3   OH223059   2.020   0.945   6.237 -0.1449  0.0055 -0.1921
  475TIP3    H123060   2.072   0.898   6.171 -0.7483 -0.4310 -0.3686
  475TIP3    H223061   1.932   0.952   6.198 -0.7116 -0.9125  0.8696
  476TIP3   OH223062   1.201   6.424   1.840  0.0847 -0.0089 -0.0384
  476TIP3    H123063   1.184   6.458   1.928 -1.3523  0.1863 -0.3548
  476TIP3    H223064   1.199   6.502   1.784  0.0267 -0.2427 -0.3642
  477TIP3   OH223065   1.540   5.354   1.924  0.1206  0.1250 -0.4176
  477TIP3    H123066   1.477   5.417   1.891  2.0860  1.6576 -1.4499
  477TIP3    H223067   1.522   5.349   2.018 -1.5996  0.3984 -0.7167
  478TIP3   OH223068   5.210   1.565   1.005  0.2898 -0.2897  0.3738
  478TIP3    H123069   5.242   1.475   1.009  1.2452  0.0697  1.1320
  478TIP3    H223070   5.289   1.619   1.005 -0.2849  0.5782  0.9281
  479TIP3   OH223071   3.539   3.561   0.247  0.0449 -0.3053 -0.2760
  479TIP3    H123072   3.536   3.632   0.183 -2.5042 -1.3622 -1.4621
  479TIP3    H223073   3.630   3.532   0.246  0.6300  1.4130 -1.4795
  480TIP3   OH223074   2.020   2.685   2.134 -0.1989 -0.2259  0.4908
  480TIP3    H123075   1.978   2.769   2.152  1.9634  1.0076  0.0952
  480TIP3    H223076   2.039   2.648   2.220  1.5940  1.1862  0.7539
  481TIP3   OH223077   4.954   6.787   8.047  0.8626 -0.0782 -0.5092
  481TIP3    H123078   4.995   6.869   8.019  0.4426  0.4717  0.4575
  481TIP3    H223079   4.863   6.794   8.018  0.4097  0.5159  0.9738
  482TIP3   OH223080   0.424   5.787   0.297  0.2219 -0.5826  0.2128
  482TIP3    H123081   0.399   5.740   0.376  3.0165 -2.2809  0.2328
  482TIP3    H223082   0.515   5.813   0.312  0.2727  0.5859 -1.7478
  483TIP3   OH223083   2.361   4.398   7.753  0.2630 -0.1422  0.2171
  483TIP3    H123084   2.272   4.366   7.745  0.3856 -0.0949 -1.9588
  483TIP3    H223085   2.414   4.321   7.774 -0.1862 -0.2628  0.9436
  484TIP3   OH223086   1.330   3.027   2.289 -0.0740 -0.0515  0.0555
  484TIP3    H123087   1.378   3.097   2.333 -1.8471  0.6896  0.9289
  484TIP3    H223088   1.262   3.072   2.239 -1.2774 -1.1319  0.6577
  485TIP3   OH223089   1.400   6.145   7.784 -0.3377  0.1181 -0.4244
  485TIP3    H123090   1.365   6.209   7.721  0.3449  1.4530  0.5012
  485TIP3    H223091   1.355   6.165   7.866  0.2249 -0.2787 -0.0149
  486TIP3   OH223092   5.534   4.757   1.254  0.0680  0.1929  0.3742
  486TIP3    H123093   5.589   4.745   1.177  0.0421 -1.5226  0.5923
  486TIP3    H223094   5.575   4.704   1.322 -1.2184 -0.2336  0.8499
  487TIP3   OH223095   4.849   6.153   0.694 -0.4853  0.0782  0.0094
  487TIP3    H123096   4.815   6.185   0.777 -0.7752  2.4155 -0.9464
  487TIP3    H223097   4.828   6.059   0.694  1.0216 -0.3653  3.2441
  488TIP3   OH223098   3.840   6.716   8.251 -0.1361  0.4162 -0.2942
  488TIP3    H123099   3.758   6.757   8.278 -0.5111 -0.4135 -0.1483
  488TIP3    H223100   3.824   6.683   8.163 -0.0332  0.0551 -0.1796
  489TIP3   OH223101   3.512   3.383   2.233 -0.6622  0.0233  0.1362
  489TIP3    H123102   3.529   3.354   2.323  0.2500  3.4525  1.2264
  489TIP3    H223103   3.556   3.468   2.226  0.5752 -0.7172 -4.0982
  490TIP3   OH223104   5.619   4.306   8.272  0.1093  0.0604  0.4939
  490TIP3    H123105   5.619   4.385   8.327  0.4927 -1.4371  2.7677
  490TIP3    H223106   5.697   4.316   8.218 -0.5165  1.7891 -0.1896
  491TIP3   OH223107   2.727   6.389   7.825  0.2784  0.0171 -0.2190
  491TIP3    H123108   2.752   6.444   7.751  1.0536  0.8508  0.6439
  491TIP3    H223109   2.678   6.447   7.884  1.7202  0.0011  1.0445
  492TIP3   OH223110   5.314   1.529   1.346 -0.3140  0.7328 -0.3487
  492TIP3    H123111   5.379   1.492   1.406  0.0293 -0.0350 -1.1644
  492TIP3    H223112   5.347   1.506   1.259 -2.2248 -0.6427 -0.7716
  493TIP3   OH223113   3.966   4.550   0.736  0.3450 -0.4561  0.2049
  493TIP3    H123114   3.935   4.500   0.811  2.7608 -1.5157  0.6021
  493TIP3    H223115   3.962   4.488   0.663  0.6449 -0.3177  0.0708
  494TIP3   OH223116   0.716   0.826   8.503 -0.1245 -0.1663 -0.0296
  494TIP3    H123117   0.754   0.914   8.511 -0.1332 -0.2725  1.3630
  494TIP3    H223118   0.705   0.796   8.593 -0.3079 -1.5272 -0.4837
  495TIP3   OH223119   6.662   4.605   0.002  0.0083 -0.1414  0.6068
  495TIP3    H123120   6.739   4.612   0.058  0.0091 -1.1974  0.7639
  495TIP3    H223121   6.595   4.658   0.045 -0.3019 -1.7084  2.1939
  496TIP3   OH223122   0.578   6.670   8.379 -0.5321  0.1778  0.3659
  496TIP3    H123123   0.664   6.629   8.388 -0.8022 -0.5368 -0.1950
  496TIP3    H223124   0.594   6.764   8.393  0.6473  0.2900 -1.4305
  497TIP3   OH223125   2.380   1.438   7.044 -0.4545  0.5702 -0.6896
  497TIP3    H123126   2.301   1.459   6.994  0.0917  0.6791 -1.5325
  497TIP3    H223127   2.451   1.448   6.980  0.0078 -2.2159 -0.7034
  498TIP3   OH223128   3.614   3.277   0.347  0.0420 -0.1768 -0.1265
  498TIP3    H123129   3.593   3.200   0.401 -0.3986  0.4993  0.7022
  498TIP3    H223130   3.572   3.350   0.393  2.4182  0.9510  0.4617
  499TIP3   OH223131   1.988   0.625   2.717  0.2404 -0.3215  0.7460
  499TIP3    H123132   2.084   0.624   2.720  0.3022 -2.0098 -0.3469
  499TIP3    H223133   1.965   0.717   2.714  1.9394  0.1121 -0.9342
  500TIP3   OH223134   6.718   3.825   8.654 -0.0033 -0.1884 -0.3403
  500TIP3    H123135   6.707   3.874   8.572  1.5900  1.7386  0.4976
  500TIP3    H223136   6.645   3.852   8.709  1.2504  2.0102  0.3898
  501TIP3   OH223137   1.971   5.505   0.500  0.3310 -0.5805 -0.8463
  501TIP3    H123138   1.929   5.584   0.534  0.3627 -1.0314  0.2936
  501TIP3    H223139   2.032   5.537   0.434  2.4577  0.7135  1.5363
  502TIP3   OH223140   0.362   2.075   0.261 -0.3005 -0.1606 -1.3846
  502TIP3    H123141   0.346   2.137   0.189  0.2106 -0.2011 -1.5336
  502TIP3    H223142   0.455   2.082   0.279 -0.2550 -0.8078 -1.3278
  503TIP3   OH223143   2.722   1.423   8.779  0.2116 -0.4558  0.2848
  503TIP3    H123144   2.728   1.424   8.684  0.6212 -0.5963  0.3063
  503TIP3    H223145   2.774   1.348   8.806 -1.6714 -1.7607  0.5102
  504TIP3   OH223146   6.354   1.179   2.686 -0.4983  0.3061 -0.0492
  504TIP3    H123147   6.286   1.226   2.733  0.0423  0.4255  0.6391
  504TIP3    H223148   6.420   1.246   2.667  0.1845 -0.1126  0.7625
  505TIP3   OH223149   3.289   3.315   7.102  0.1657  0.0726  0.4798
  505TIP3    H123150   3.352   3.348   7.038  0.3125 -0.1211  0.5228
  505TIP3    H223151   3.343   3.282   7.174  0.0373 -0.6328  0.2607
  506TIP3   OH223152   3.301   2.705   8.361  0.0131  0.5790  0.3758
  506TIP3    H123153   3.288   2.611   8.351  1.3145  0.5507 -1.6950
  506TIP3    H223154   3.220   2.737   8.401 -0.9265 -1.2583  0.0160
  507TIP3   OH223155   3.662   4.721   8.120 -0.5208  0.0219 -0.0155
  507TIP3    H123156   3.720   4.685   8.053  0.4749 -0.7462  1.1965
  507TIP3    H223157   3.720   4.772   8.177 -1.3315  0.6146  0.2970
  508TIP3   OH223158   5.436   6.464   8.046  0.0353  0.4376  0.4671
  508TIP3    H123159   5.415   6.434   8.134  0.2298  0.3990  0.5023
  508TIP3    H223160   5.366   6.428   7.991  0.6464 -0.7108  0.3958
  509TIP3   OH223161   6.304   3.035   7.705 -0.2128  0.1765 -0.2254
  509TIP3    H123162   6.306   2.955   7.757  0.8329  0.0489 -0.4338
  509TIP3    H223163   6.257   3.011   7.625 -0.2560 -0.1244 -0.1103
  510TIP3   OH223164   3.906   5.370   1.027  0.8375 -0.6112  0.1658
  510TIP3    H123165   3.929   5.387   0.936  0.2795 -2.7172 -0.4149
  510TIP3    H223166   3.965   5.299   1.053 -0.9072 -1.9934  0.5144
  511TIP3   OH223167   1.278   4.482   7.183  0.4576 -0.5425 -0.7225
  511TIP3    H123168   1.361   4.442   7.155  0.6099 -0.0439 -1.0012
  511TIP3    H223169   1.213   4.413   7.171  0.6778 -0.6330 -1.4420
  512TIP3   OH223170   2.520   0.828   6.796 -0.2749  0.0568 -0.2436
  512TIP3    H123171   2.437   0.780   6.800 -1.2044  1.5833 -0.4155
  512TIP3    H223172   2.564   0.807   6.878 -1.3978  0.1928  0.4104
  513TIP3   OH223173   1.970   6.661   8.806  0.6053 -0.1541  0.4496
  513TIP3    H123174   1.949   6.722   8.878 -1.2959  1.1433 -1.1075
  513TIP3    H223175   2.023   6.714   8.746 -0.3413 -0.2991 -0.5170
  514TIP3   OH223176   6.074   2.235   2.167 -0.4733 -0.8130 -0.0696
  514TIP3    H123177   6.007   2.264   2.105 -0.2012  0.8707  0.3803
  514TIP3    H223178   6.026   2.214   2.246 -0.6693 -1.6094 -0.3890
  515TIP3   OH223179   6.669   6.747   0.497  0.2681 -0.3235  0.4503
  515TIP3    H123180   6.606   6.745   0.426 -1.0827  0.2815  1.5737
  515TIP3    H223181   6.750   6.714   0.459 -0.9981 -2.1912 -0.7615
  516TIP3   OH223182   5.799   5.784   0.948 -0.2561 -0.1324 -0.9759
  516TIP3    H123183   5.755   5.810   0.867 -1.5851 -1.2862 -0.6638
  516TIP3    H223184   5.731   5.741   0.999  1.1727 -1.7062 -0.3283
  517TIP3   OH223185   1.867   6.621   6.966  0.1791  0.1330  0.0727
  517TIP3    H123186   1.861   6.632   7.061  1.2651 -0.9857  0.2865
  517TIP3    H223187   1.906   6.703   6.935  1.4244 -0.1576  0.8061
  518TIP3   OH223188   6.067   4.723   8.414 -0.4969 -0.3584 -0.3884
  518TIP3    H123189   6.125   4.693   8.484 -1.7281 -2.1299 -0.0503
  518TIP3    H223190   6.126   4.763   8.350  0.9442 -0.9050  0.5335
  519TIP3   OH223191   1.910   6.373   7.423 -0.0787  0.2038  0.1679
  519TIP3    H123192   1.828   6.385   7.471  0.2319  0.7173  0.5889
  519TIP3    H223193   1.936   6.283   7.443 -0.5477  0.0324  0.0165
  520TIP3   OH223194   6.483   2.566   7.688 -0.9606  0.5794 -0.1318
  520TIP3    H123195   6.410   2.600   7.637 -2.5762  2.1445  2.9517
  520TIP3    H223196   6.442   2.516   7.759  0.9291  1.2901  1.5702
  521TIP3   OH223197   2.020   0.084   0.909 -0.6002 -0.4048  0.0553
  521TIP3    H123198   2.035   0.117   0.997 -1.0601  2.2975 -0.8029
  521TIP3    H223199   2.105   0.094   0.865 -0.9037  0.2836 -0.3931
  522TIP3   OH223200   4.781   5.513   7.237  0.0934 -0.0945  0.0339
  522TIP3    H123201   4.816   5.596   7.269 -1.3065  0.3495  0.4978
  522TIP3    H223202   4.802   5.514   7.143  0.9062  0.3397  0.2038
  523TIP3   OH223203   5.580   0.288   0.820  0.1102  0.1994  0.2297
  523TIP3    H123204   5.675   0.280   0.831  0.3333  1.0611 -0.8839
  523TIP3    H223205   5.543   0.229   0.886  1.4202 -0.4714  0.3934
  524TIP3   OH223206   6.032   4.726   0.005  0.4290 -0.4270 -0.2237
  524TIP3    H123207   6.100   4.788   0.032  3.3446 -2.9160 -1.3089
  524TIP3    H223208   5.961   4.739   0.068  2.6954  1.0126  2.2242
  525TIP3   OH223209   5.759   3.394   0.265 -0.0426  0.0622  0.0838
  525TIP3    H123210   5.733   3.304   0.246 -1.4814  0.7131 -1.2709
  525TIP3    H223211   5.814   3.419   0.191  1.4051 -0.0624  1.0704
  526TIP3   OH223212   1.325   6.035   0.976  0.4413  0.5644 -0.7815
  526TIP3    H123213   1.372   6.050   0.895  0.8240  1.5198 -0.3957
  526TIP3    H223214   1.336   6.116   1.026  0.3637 -0.0679  0.2909
  527TIP3   OH223215   6.617   4.584   1.539  0.4264 -0.4438 -0.3951
  527TIP3    H123216   6.546   4.550   1.592 -0.7645  1.3969 -0.7357
  527TIP3    H223217   6.618   4.528   1.461 -1.2900  0.0737 -0.8170
  528TIP3   OH223218   4.741   6.268   7.712 -0.7241  0.0133 -0.0478
  528TIP3    H123219   4.741   6.345   7.655  0.1960  0.8981  1.0757
  528TIP3    H223220   4.692   6.296   7.789 -1.2073 -0.8619 -0.0244
  529TIP3   OH223221   1.095   6.132   0.833 -0.2161 -0.0621  0.2880
  529TIP3    H123222   1.150   6.053   0.837 -0.3251 -0.3396 -2.0266
  529TIP3    H223223   1.050   6.134   0.917  1.9156 -0.8589  1.5463
  530TIP3   OH223224   5.679   3.062   0.830  0.2779  0.6705  0.1900
  530TIP3    H123225   5.760   3.076   0.878  1.0579 -0.6835 -0.6808
  530TIP3    H223226   5.681   2.970   0.805 -1.7982  0.4580  0.6114
  531TIP3   OH223227   1.574   1.143   8.008  0.1510 -0.0902 -0.2693
  531TIP3    H123228   1.537   1.153   7.920 -0.2922  0.2060 -0.0481
  531TIP3    H223229   1.653   1.089   7.994 -0.0766 -0.2928 -0.8073
  532TIP3   OH223230   0.625   6.285   0.892  0.3078 -0.3654  0.4738
  532TIP3    H123231   0.582   6.222   0.834  1.0042 -1.3535  0.9933
  532TIP3    H223232   0.705   6.310   0.845  0.0437  0.1286  0.2787
  533TIP3   OH223233   2.276   3.720   6.590  0.1714  0.6252 -0.1303
  533TIP3    H123234   2.273   3.690   6.681  4.4714 -0.9558 -0.2786
  533TIP3    H223235   2.331   3.656   6.546 -1.9356  1.2161 -4.0080
  534TIP3   OH223236   1.920   3.336   0.143 -0.5842 -0.1276  0.0244
  534TIP3    H123237   1.983   3.408   0.146 -0.5603 -0.0291 -1.8005
  534TIP3    H223238   1.849   3.369   0.088  0.0390 -1.9176 -1.9506
  535TIP3   OH223239   5.111   4.639   2.082 -0.6920 -0.3028  0.0067
  535TIP3    H123240   5.051   4.682   2.143 -0.8916  0.5312 -0.7585
  535TIP3    H223241   5.192   4.689   2.088  0.2811 -1.9398  1.6792
  536TIP3   OH223242   6.590   5.024   7.307 -0.1984  0.1588  0.1393
  536TIP3    H123243   6.611   5.115   7.327 -1.1873  0.2842  0.7222
  536TIP3    H223244   6.503   5.011   7.346 -0.1906 -0.9515 -0.1769
  537TIP3   OH223245   1.098   2.570   7.904  0.3561  0.5407  0.0338
  537TIP3    H123246   1.088   2.543   7.813 -1.5055  0.0938  0.3282
  537TIP3    H223247   1.133   2.659   7.899  2.4716 -0.2722 -1.0356
  538TIP3   OH223248   1.323   5.510   0.766  0.2596 -0.4404 -0.5795
  538TIP3    H123249   1.372   5.551   0.694 -0.9760 -0.8293 -1.6653
  538TIP3    H223250   1.237   5.491   0.729 -0.1509 -1.3588  0.7864
  539TIP3   OH223251   6.390   5.823   0.666 -0.2596  0.1296 -0.0542
  539TIP3    H123252   6.320   5.884   0.640 -1.8906 -1.7413 -0.2635
  539TIP3    H223253   6.418   5.784   0.584  2.0686  1.8110 -0.1497
  540TIP3   OH223254   3.919   4.451   1.002 -0.0978 -0.1994 -0.0536
  540TIP3    H123255   3.915   4.444   1.098  1.9492 -1.2095  0.0233
  540TIP3    H223256   3.845   4.400   0.971  0.0754 -1.1340  0.9998
  541TIP3   OH223257   0.478   0.670   6.961  0.8235  0.0331 -0.6358
  541TIP3    H123258   0.389   0.693   6.932  0.2006  0.8525  1.6798
  541TIP3    H223259   0.534   0.736   6.922  0.0498  0.9655 -0.2209
  542TIP3   OH223260   0.724   0.862   7.905  0.2412  0.0992  0.2477
  542TIP3    H123261   0.682   0.893   7.986  1.3666  2.4811  0.0094
  542TIP3    H223262   0.817   0.862   7.926  0.4049 -1.4670 -0.3861
  543TIP3   OH223263   2.120   1.592   0.600  0.0332 -0.6396  0.0153
  543TIP3    H123264   2.128   1.687   0.602  3.0059 -0.7864 -0.5355
  543TIP3    H223265   2.121   1.566   0.693 -0.3012 -0.1659  0.1527
  544TIP3   OH223266   3.826   2.466   8.455  0.4835  0.4242 -0.1559
  544TIP3    H123267   3.778   2.463   8.537 -0.2837  0.8084 -0.5822
  544TIP3    H223268   3.818   2.378   8.419 -0.9213  0.7702 -0.7767
  545TIP3   OH223269   4.965   2.703   0.497  0.5396 -0.3332  0.3417
  545TIP3    H123270   4.935   2.612   0.489  2.5050 -1.0240  0.3639
  545TIP3    H223271   4.884   2.754   0.500 -0.6291 -2.1026  0.7534
  546TIP3   OH223272   1.102   2.973   7.587 -0.8356 -0.1343  0.3059
  546TIP3    H123273   1.188   2.986   7.628 -0.5796  0.9758 -0.5191
  546TIP3    H223274   1.123   2.942   7.498 -1.2992 -0.2571  0.2380
  547TIP3   OH223275   6.272   4.059   1.823  0.0664  0.8411 -0.2717
  547TIP3    H123276   6.333   4.110   1.769 -1.1787  2.3053 -0.3687
  547TIP3    H223277   6.188   4.102   1.809 -0.6889 -0.1409  1.1190
  548TIP3   OH223278   3.074   2.885   8.641  0.0453 -0.6086 -0.1140
  548TIP3    H123279   2.999   2.833   8.670  0.3160 -0.0928  1.6704
  548TIP3    H223280   3.051   2.975   8.665  1.9804 -0.6560  2.3157
  549TIP3   OH223281   5.309   6.146   6.902  0.2065 -0.0332 -0.6119
  549TIP3    H123282   5.322   6.068   6.849  0.3419 -2.0137  2.1188
  549TIP3    H223283   5.232   6.188   6.865 -1.2918 -2.7597 -0.8051
  550TIP3   OH223284   0.914   4.430   2.373 -0.3788 -0.2142 -0.6951
  550TIP3    H123285   0.863   4.508   2.349  0.3421  0.9092  1.2352
  550TIP3    H223286   1.005   4.453   2.355 -0.0481 -0.1625  0.8984
  551TIP3   OH223287   3.608   4.890   0.513  0.1416  0.1138  0.1955
  551TIP3    H123288   3.514   4.897   0.529  0.3286  1.5551  0.8759
  551TIP3    H223289   3.633   4.808   0.556 -0.7978 -0.2844  0.0075
  552TIP3   OH223290   3.217   2.763   8.117 -0.2198 -0.1980 -0.0826
  552TIP3    H123291   3.261   2.743   8.200 -0.9362  2.0486  0.9103
  552TIP3    H223292   3.199   2.857   8.122 -0.7167 -0.1058 -2.6021
  553TIP3   OH223293   5.516   0.276   7.083 -0.3797 -0.5651  0.6405
  553TIP3    H123294   5.589   0.338   7.083 -0.1548 -0.7725 -1.3130
  553TIP3    H223295   5.514   0.242   6.994 -1.6131 -2.0650  1.2042
  554TIP3   OH223296   2.960   5.520   1.805 -0.3068  0.2317  0.6594
  554TIP3    H123297   2.986   5.514   1.713 -0.6958  0.8357  0.5104
  554TIP3    H223298   2.983   5.434   1.842  0.4691  0.2146  0.1624
  555TIP3   OH223299   0.284   2.989   1.027  0.6342  0.1963 -0.4183
  555TIP3    H123300   0.353   2.956   0.970  0.9891 -0.5838  0.4545
  555TIP3    H223301   0.204   2.977   0.976  1.0844  0.7188 -1.2688
  556TIP3   OH223302   5.887   1.191   7.848  0.6586  0.0392  0.1985
  556TIP3    H123303   5.888   1.217   7.756 -1.1897  2.5502  0.7671
  556TIP3    H223304   5.968   1.228   7.884  0.7807  0.1380 -0.1659
  557TIP3   OH223305   4.754   6.243   7.022 -0.3239 -0.2809 -0.1866
  557TIP3    H123306   4.775   6.289   7.103 -3.4161  0.5773  0.2291
  557TIP3    H223307   4.751   6.312   6.955  1.8731 -0.9387 -1.0530
  558TIP3   OH223308   1.505   0.861   8.132 -0.2771 -0.3539  0.3140
  558TIP3    H123309   1.554   0.933   8.092 -2.5638  0.3177 -1.5024
  558TIP3    H223310   1.525   0.868   8.226  0.6452  1.7888  0.0135
  559TIP3   OH223311   5.303   0.425   0.229  0.0933 -0.9629 -0.1687
  559TIP3    H123312   5.289   0.378   0.312 -1.3996 -1.2726 -0.5645
  559TIP3    H223313   5.221   0.473   0.215  1.1566  0.8728 -0.3618
  560TIP3   OH223314   5.605   1.907   0.115 -0.2642  0.2628 -0.4352
  560TIP3    H123315   5.671   1.850   0.076 -0.1137 -1.6962  2.3839
  560TIP3    H223316   5.533   1.907   0.052  0.7654 -0.9925 -1.6598
  561TIP3   OH223317   1.292   1.744   8.289  0.0209 -0.0524 -0.6642
  561TIP3    H123318   1.277   1.815   8.227 -0.0960  0.3965 -0.1237
  561TIP3    H223319   1.278   1.783   8.375  1.1631 -0.4145 -0.2954
  562TIP3   OH223320   4.224   1.716   0.327  0.0665  0.2751 -0.1161
  562TIP3    H123321   4.247   1.753   0.412 -0.6113  1.6873 -0.5034
  562TIP3    H223322   4.298   1.738   0.271 -0.7595  2.0714 -0.5990
  563TIP3   OH223323   4.117   1.531   2.233 -0.3246  0.7625  0.1394
  563TIP3    H123324   4.177   1.521   2.307 -0.0903 -0.7511 -0.2090
  563TIP3    H223325   4.163   1.590   2.172  1.0930 -0.7618 -0.3480
  564TIP3   OH223326   5.354   5.066   1.437  0.2589  0.1495  0.1224
  564TIP3    H123327   5.314   5.153   1.443 -1.3523 -0.4590 -1.1864
  564TIP3    H223328   5.307   5.014   1.503  0.2382 -0.0752 -0.0673
  565TIP3   OH223329   3.968   5.389   0.737  0.0778  0.4941  0.5914
  565TIP3    H123330   3.962   5.400   0.643 -0.9889 -0.9821  0.4431
  565TIP3    H223331   4.062   5.394   0.757  0.6184 -1.9197 -0.9631
  566TIP3   OH223332   2.163   5.410   7.441 -0.3579  0.3618 -0.6040
  566TIP3    H123333   2.168   5.367   7.356 -0.0943  0.5577 -0.6889
  566TIP3    H223334   2.090   5.366   7.486 -0.2809  0.0292 -0.7992
  567TIP3   OH223335   1.398   0.996   0.342 -0.2532 -0.1961 -0.2300
  567TIP3    H123336   1.322   1.034   0.299  0.7124  1.8827 -0.1975
  567TIP3    H223337   1.464   0.991   0.274 -0.2160 -1.5158 -0.1314
  568TIP3   OH223338   4.415   6.630   0.595  0.4798 -0.3349 -0.6251
  568TIP3    H123339   4.504   6.623   0.559  1.2875  0.2575  1.1501
  568TIP3    H223340   4.396   6.724   0.593  0.7347 -0.2338  0.8830
  569TIP3   OH223341   4.305   1.231   0.957  0.1810  0.2558 -0.2252
  569TIP3    H123342   4.374   1.207   0.895  2.2453 -1.0449  2.3902
  569TIP3    H223343   4.271   1.314   0.924 -0.8095 -1.5679 -4.5603
  570TIP3   OH223344   3.555   6.640   1.293  0.6200  0.1437 -0.0609
  570TIP3    H123345   3.560   6.683   1.378  0.9548 -1.9472  1.0559
  570TIP3    H223346   3.470   6.596   1.293  0.0751  1.1222 -1.3695
  571TIP3   OH223347   0.812   3.270   7.636  0.1417  0.4419  0.0330
  571TIP3    H123348   0.781   3.194   7.685 -0.6063 -0.5228 -1.8373
  571TIP3    H223349   0.789   3.345   7.691  0.3038 -0.6189  1.6145
  572TIP3   OH223350   1.080   2.505   2.345  0.2934  0.1606  0.2108
  572TIP3    H123351   1.020   2.506   2.271 -0.4490  0.6352  0.8102
  572TIP3    H223352   1.067   2.589   2.387  0.7976 -0.0611  0.8214
  573TIP3   OH223353   5.709   2.868   1.369  0.5042 -0.2435  0.1985
  573TIP3    H123354   5.657   2.941   1.334  1.1988  0.5099  0.6866
  573TIP3    H223355   5.656   2.833   1.440  1.3463  1.6416  1.8551
  574TIP3   OH223356   2.848   6.523   1.858  0.0637  0.7577 -0.5493
  574TIP3    H123357   2.841   6.474   1.940  0.2563  2.3576  0.4653
  574TIP3    H223358   2.790   6.478   1.797 -1.0791  0.2921  0.8533
  575TIP3   OH223359   5.898   5.712   0.108 -0.4632  0.1406 -0.6973
  575TIP3    H123360   5.922   5.777   0.174 -0.5581 -1.4945  1.0546
  575TIP3    H223361   5.919   5.628   0.149 -1.4918 -0.9946 -2.3671
  576TIP3   OH223362   3.292   5.844   7.757 -0.3807  0.2002  0.3609
  576TIP3    H123363   3.232   5.781   7.798 -0.3603  0.1732  0.3496
  576TIP3    H223364   3.374   5.795   7.747 -0.9758 -0.4880 -1.6423
  577TIP3   OH223365   6.252   5.536   0.651  0.3011 -0.5091  1.1344
  577TIP3    H123366   6.346   5.518   0.647  0.1878 -0.9394 -0.3808
  577TIP3    H223367   6.241   5.590   0.728  2.2579  2.0748 -0.2395
  578TIP3   OH223368   5.997   2.863   7.938  0.0611 -0.4217  0.1495
  578TIP3    H123369   6.072   2.863   7.879 -0.8423  0.6763 -1.0584
  578TIP3    H223370   5.933   2.807   7.896 -0.6949  0.5844 -0.0800
  579TIP3   OH223371   2.909   4.098   7.170 -0.0653 -0.6045  0.2209
  579TIP3    H123372   2.934   4.186   7.145 -1.6615 -0.1622  0.0448
  579TIP3    H223373   2.823   4.108   7.213 -1.3577 -2.2497 -1.7567
  580TIP3   OH223374   3.440   0.719   8.341 -0.0562  0.1107 -0.0672
  580TIP3    H123375   3.412   0.774   8.268 -0.5831 -1.1392 -0.8373
  580TIP3    H223376   3.526   0.686   8.314  0.4968  0.9410  0.6233
  581TIP3   OH223377   6.798   4.924   8.001 -0.3005  0.4668  0.1018
  581TIP3    H123378   6.747   4.993   8.044  0.7981  0.6127  1.2372
  581TIP3    H223379   6.873   4.910   8.059  1.8577  1.4038 -2.2509
  582TIP3   OH223380   3.461   6.589   7.367  0.3295  0.2948 -0.2546
  582TIP3    H123381   3.476   6.503   7.329  1.8845 -0.8666  2.6118
  582TIP3    H223382   3.372   6.613   7.340 -1.3894 -3.6045  1.2079
  583TIP3   OH223383   5.612   1.342   7.464  0.0209  0.5986 -0.3073
  583TIP3    H123384   5.538   1.331   7.404 -0.8142  0.3279  0.7380
  583TIP3    H223385   5.687   1.357   7.407 -0.3566 -1.6305 -1.5224
  584TIP3   OH223386   3.069   0.200   0.628 -0.6594 -0.4082 -0.0907
  584TIP3    H123387   3.156   0.162   0.640 -0.9910 -0.7778  1.3208
  584TIP3    H223388   3.077   0.252   0.548  0.8558 -0.4360  0.0004
  585TIP3   OH223389   3.324   2.351   0.839 -0.6624 -0.4671 -0.1706
  585TIP3    H123390   3.374   2.362   0.920 -1.0106 -0.7753  0.0891
  585TIP3    H223391   3.249   2.409   0.849  0.1621  0.7786 -1.0019
  586TIP3   OH223392   2.480   1.113   8.495 -0.2183 -0.3366  0.1692
  586TIP3    H123393   2.562   1.123   8.544 -0.1740 -0.8336  0.2005
  586TIP3    H223394   2.411   1.121   8.560 -0.2322  0.7855  0.0418
  587TIP3   OH223395   5.577   3.275   7.409  0.5552  0.1130  0.1065
  587TIP3    H123396   5.632   3.340   7.451 -0.3858  0.0228  1.5374
  587TIP3    H223397   5.578   3.299   7.316 -0.2318  2.5573  0.6455
  588TIP3   OH223398   5.432   5.171   2.443  0.3501  0.2729 -0.1222
  588TIP3    H123399   5.458   5.236   2.377  0.4107  0.3696 -0.0050
  588TIP3    H223400   5.436   5.087   2.397  1.2027  0.2461 -0.0259
  589TIP3   OH223401   1.148   1.456   7.557  0.5602 -0.1486 -0.0510
  589TIP3    H123402   1.066   1.501   7.539 -0.1125 -0.9673  0.8920
  589TIP3    H223403   1.140   1.372   7.513  1.3641  0.1976 -0.8901
  590TIP3   OH223404   0.050   5.759   0.396 -0.5662  0.3579 -0.2158
  590TIP3    H123405   0.090   5.673   0.397  2.3441  1.5793  1.1322
  590TIP3    H223406   0.045   5.784   0.489 -1.9483  1.4128 -0.5342
  591TIP3   OH223407   1.001   6.174   0.468  0.1877  0.4343  0.3569
  591TIP3    H123408   1.009   6.260   0.510 -0.0200  0.2374  0.8077
  591TIP3    H223409   1.089   6.136   0.475  0.4564  0.8760 -0.4476
  592TIP3   OH223410   1.539   0.221   1.534  0.5218  0.0521 -0.0418
  592TIP3    H123411   1.519   0.308   1.568 -1.1373 -0.5963  0.7571
  592TIP3    H223412   1.620   0.196   1.578  1.7274  1.6668 -1.2398
  593TIP3   OH223413   0.869   0.121   2.070 -0.5139  0.6452 -0.3017
  593TIP3    H123414   0.851   0.114   2.164 -1.4306  1.3938 -0.4005
  593TIP3    H223415   0.928   0.195   2.062 -2.0651  1.9179 -0.4656
  594TIP3   OH223416   6.744   2.779   0.224 -0.1371  0.2451 -0.5757
  594TIP3    H123417   6.730   2.835   0.300  2.3156  0.2103 -0.0407
  594TIP3    H223418   6.837   2.787   0.203  0.3698 -3.5104 -0.5222
  595TIP3   OH223419   3.928   4.567   6.548  0.3972 -0.0898 -0.4225
  595TIP3    H123420   3.837   4.596   6.541 -0.0912 -1.2808  0.5254
  595TIP3    H223421   3.953   4.543   6.459 -1.3247 -2.8052 -0.2927
  596TIP3   OH223422   2.026   5.564   8.204  0.0061  0.6487 -0.7722
  596TIP3    H123423   2.069   5.628   8.261 -0.5137  1.7192 -1.5414
  596TIP3    H223424   1.934   5.591   8.202 -0.4597 -0.8121 -0.2219
  597TIP3   OH223425   2.530   2.201   7.216 -0.2303 -0.3580 -0.2051
  597TIP3    H123426   2.477   2.217   7.138 -0.3877 -1.1101 -0.2569
  597TIP3    H223427   2.512   2.276   7.273 -2.1733 -1.1055  0.2315
  598TIP3   OH223428   5.161   2.905   8.831  0.3006  0.6068  0.2999
  598TIP3    H123429   5.158   2.829   8.888 -0.2611  0.6607  0.3434
  598TIP3    H223430   5.222   2.881   8.761 -0.0325  0.0420  0.2029
  599TIP3   OH223431   4.773   3.046   6.747  0.1491  0.4128  0.6113
  599TIP3    H123432   4.800   3.006   6.664 -1.9182  0.5663 -0.2014
  599TIP3    H223433   4.851   3.044   6.801  1.6551  0.6064 -1.4523
  600TIP3   OH223434   0.450   3.515   8.017 -0.3900  0.4591  0.0561
  600TIP3    H123435   0.367   3.471   8.001 -0.1882 -0.1350  0.6389
  600TIP3    H223436   0.479   3.543   7.929 -0.7276 -0.1827 -0.2636
  601TIP3   OH223437   1.567   0.352   7.694 -0.1214 -0.3032  0.5300
  601TIP3    H123438   1.619   0.349   7.614  0.3068  0.7802  0.7499
  601TIP3    H223439   1.627   0.386   7.761 -1.0898  1.0041  0.7771
  602TIP3   OH223440   1.849   4.381   0.423 -0.0162 -0.0729  0.3867
  602TIP3    H123441   1.763   4.423   0.427  0.6750  1.8659 -2.2554
  602TIP3    H223442   1.832   4.294   0.387 -0.8375  0.7122 -1.2508
  603TIP3   OH223443   3.620   5.106   8.744  0.2817  0.3205  0.0960
  603TIP3    H123444   3.555   5.038   8.758 -1.0935  1.6404  0.4187
  603TIP3    H223445   3.655   5.089   8.657 -0.3335 -0.5512  0.0104
  604TIP3   OH223446   4.816   6.036   1.238  0.3274 -0.3314 -0.0466
  604TIP3    H123447   4.766   5.959   1.265 -0.1894 -0.2473 -0.7340
  604TIP3    H223448   4.835   6.082   1.320 -0.4661 -0.5263  0.2583
  605TIP3   OH223449   4.667   6.310   8.816  0.6323  0.2149  0.1191
  605TIP3    H123450   4.712   6.393   8.801  0.6716  0.6169  2.1600
  605TIP3    H223451   4.726   6.243   8.781  1.1888  0.9587 -0.3750
  606TIP3   OH223452   5.326   0.075   2.109  0.0758 -0.2131  0.5370
  606TIP3    H123453   5.381   0.003   2.141 -1.4692 -1.3732  0.7178
  606TIP3    H223454   5.386   0.149   2.100  1.6698 -1.4409  0.6101
  607TIP3   OH223455   4.079   1.381   0.521 -0.1478  0.3826 -0.1987
  607TIP3    H123456   4.021   1.457   0.525 -1.3996 -0.4252 -1.8463
  607TIP3    H223457   4.053   1.334   0.441 -0.1302 -2.3390  1.2536
  608TIP3   OH223458   2.673   2.395   8.451  0.3522 -0.0330 -0.1254
  608TIP3    H123459   2.667   2.345   8.370 -0.8973 -0.7593  0.3799
  608TIP3    H223460   2.732   2.344   8.506 -0.3674 -0.5996  0.1325
  609TIP3   OH223461   0.169   1.505   1.026  0.4082 -0.0153 -0.2638
  609TIP3    H123462   0.149   1.415   1.054  0.2909  0.6440  1.9057
  609TIP3    H223463   0.243   1.531   1.080  0.5045  1.1922 -0.9353
  610TIP3   OH223464   3.935   1.115   6.597 -0.4840 -0.4660 -0.0188
  610TIP3    H123465   4.003   1.176   6.626 -1.5573  0.9804 -0.4621
  610TIP3    H223466   3.984   1.038   6.567  0.8951  0.0962  0.6846
  611TIP3   OH223467   2.297   5.214   8.027  0.3058  0.0156 -0.6049
  611TIP3    H123468   2.280   5.185   7.937  1.1567 -0.5179 -0.6099
  611TIP3    H223469   2.392   5.200   8.038  0.2677  0.4285  0.2481
  612TIP3   OH223470   2.172   2.744   0.334  0.5377 -0.5074 -0.4531
  612TIP3    H123471   2.207   2.730   0.246 -0.3860 -3.4373 -0.4666
  612TIP3    H223472   2.093   2.689   0.337  1.1119 -1.3589  2.5065
  613TIP3   OH223473   4.638   3.065   7.711 -0.8201 -0.2205  0.2615
  613TIP3    H123474   4.708   3.129   7.722 -1.5776  0.8073 -0.7235
  613TIP3    H223475   4.678   2.982   7.738  0.2828  0.5915  1.2165
  614TIP3   OH223476   5.903   3.352   2.639  0.3023 -0.3632  0.2205
  614TIP3    H123477   5.854   3.308   2.568 -0.0648  0.8799 -0.3215
  614TIP3    H223478   5.847   3.340   2.716 -1.3313  1.6914 -0.5418
  615TIP3   OH223479   5.836   0.601   6.274  0.1328  0.6247  0.4296
  615TIP3    H123480   5.932   0.608   6.273  0.4272 -1.9608 -1.8995
  615TIP3    H223481   5.817   0.520   6.226 -3.2714  1.5488 -0.0812
  616TIP3   OH223482   0.689   6.740   7.041  0.0435  0.1802 -0.4205
  616TIP3    H123483   0.647   6.776   6.962  0.6500 -0.1732 -0.9202
  616TIP3    H223484   0.755   6.806   7.064  0.9338 -0.4204 -1.1459
  617TIP3   OH223485   4.570   4.822   8.537  1.2404  0.3823  0.6032
  617TIP3    H123486   4.475   4.836   8.544  0.7494 -2.4304  0.4795
  617TIP3    H223487   4.603   4.906   8.505 -1.0529  1.7775  1.5899
  618TIP3   OH223488   3.101   4.403   7.356 -0.5391 -0.4610  0.3762
  618TIP3    H123489   3.075   4.486   7.394  0.4126 -0.2689  0.6270
  618TIP3    H223490   3.110   4.344   7.431  2.1051  0.1202  0.6144
  619TIP3   OH223491   6.340   2.703   7.494 -0.7210  0.4347  0.0984
  619TIP3    H123492   6.363   2.795   7.479  1.6666 -0.3539 -1.8393
  619TIP3    H223493   6.255   2.706   7.536 -0.5745  3.5410  0.4190
  620TIP3   OH223494   4.189   3.348   1.406  0.2910  0.6760  0.1733
  620TIP3    H123495   4.242   3.413   1.451  0.2518  0.4395  0.5586
  620TIP3    H223496   4.099   3.373   1.426  0.2002  1.6347 -1.2323
  621TIP3   OH223497   5.754   5.166   8.050  0.1810  0.0349 -0.0880
  621TIP3    H123498   5.661   5.187   8.060 -0.0024 -1.2018  1.1026
  621TIP3    H223499   5.772   5.180   7.957 -1.3145 -0.1599 -0.4351
  622TIP3   OH223500   2.127   5.368   1.743 -0.4351 -0.3247  0.0418
  622TIP3    H123501   2.091   5.363   1.654  0.4135 -0.2370 -0.3204
  622TIP3    H223502   2.172   5.452   1.746 -0.1558 -0.4839  0.4385
  623TIP3   OH223503   4.099   1.826   1.431  0.0358  0.5182 -0.0134
  623TIP3    H123504   4.032   1.763   1.460  0.8412 -0.4080 -0.1240
  623TIP3    H223505   4.057   1.875   1.361 -0.0738 -1.0124 -1.0555
  624TIP3   OH223506   1.622   3.953   2.454  0.0377  0.4220  0.1190
  624TIP3    H123507   1.688   3.980   2.390 -0.0106 -0.8847 -0.5286
  624TIP3    H223508   1.671   3.918   2.527  0.1382 -1.8714 -0.9498
  625TIP3   OH223509   5.258   2.165   7.347 -0.2857 -0.1607  0.1082
  625TIP3    H123510   5.294   2.223   7.281  1.1030 -0.1204  0.8512
  625TIP3    H223511   5.295   2.079   7.326 -0.7552 -0.3795  0.1624
  626TIP3   OH223512   5.101   0.064   7.380 -0.3932  0.3276 -0.3931
  626TIP3    H123513   5.012   0.071   7.345  0.0995  0.0616 -1.7922
  626TIP3    H223514   5.095   0.097   7.469 -1.8047  0.7244 -0.6096
  627TIP3   OH223515   6.272   1.023   1.710 -0.1478  0.1656 -0.2452
  627TIP3    H123516   6.325   0.945   1.694 -1.1078 -0.4104 -0.7715
  627TIP3    H223517   6.293   1.048   1.799  0.4977 -0.4466 -0.2120
  628TIP3   OH223518   4.408   4.600   2.482  0.0216  0.0197 -0.6300
  628TIP3    H123519   4.364   4.515   2.474 -1.2380  0.7535 -1.9116
  628TIP3    H223520   4.403   4.638   2.394 -0.8524  2.0784  0.2453
  629TIP3   OH223521   2.124   2.259   8.891 -1.1691  0.2092  0.4422
  629TIP3    H123522   2.055   2.195   8.906 -2.3858  0.7444 -2.2204
  629TIP3    H223523   2.128   2.311   8.971 -2.8631 -0.7375  1.1820
  630TIP3   OH223524   6.764   6.796   8.132  0.7098  0.0398  0.0327
  630TIP3    H123525   6.719   6.733   8.189  1.1992  0.1255  0.5225
  630TIP3    H223526   6.856   6.791   8.158  0.9346  0.1211 -0.7200
  631TIP3   OH223527   6.258   0.593   0.735 -0.0078  0.0999 -0.0984
  631TIP3    H123528   6.247   0.557   0.647  1.5368 -0.6100 -0.0396
  631TIP3    H223529   6.353   0.595   0.748 -0.2060 -0.6191  1.8669
  632TIP3   OH223530   1.853   4.891   0.214 -0.5304  0.2336  0.0730
  632TIP3    H123531   1.903   4.849   0.285  1.0285  1.5759 -0.1640
  632TIP3    H223532   1.869   4.837   0.137  2.5599  1.7948 -0.5498
  633TIP3   OH223533   3.727   5.445   8.089 -0.3403  0.5845  0.0221
  633TIP3    H123534   3.687   5.358   8.098  0.5631  0.0861 -0.6838
  633TIP3    H223535   3.653   5.503   8.072 -0.7884 -0.3435 -1.4113
  634TIP3   OH223536   1.801   3.117   1.201  0.8079 -0.7695 -0.6941
  634TIP3    H123537   1.853   3.087   1.126 -0.3664  0.0389 -1.8893
  634TIP3    H223538   1.713   3.130   1.165  0.7010  1.7549  0.2666
  635TIP3   OH223539   5.175   3.566   0.353  0.2924  0.5106 -0.1860
  635TIP3    H123540   5.266   3.587   0.331  0.5954 -1.5966 -1.1422
  635TIP3    H223541   5.177   3.549   0.447  1.0415 -0.2048 -0.3262
  636TIP3   OH223542   1.259   6.317   8.078  0.1849 -0.0274  0.7621
  636TIP3    H123543   1.331   6.255   8.085 -0.7415 -1.3866 -1.0873
  636TIP3    H223544   1.197   6.289   8.146  0.5635  0.0208  1.1358
  637TIP3   OH223545   0.343   0.133   7.605 -0.4699 -0.2713  0.8785
  637TIP3    H123546   0.403   0.203   7.629 -1.3416  0.6374  0.4931
  637TIP3    H223547   0.287   0.121   7.681 -1.3347  0.5637  0.3934
  638TIP3   OH223548   6.067   2.685   0.361 -0.5184 -0.2519  0.4802
  638TIP3    H123549   5.992   2.642   0.403 -0.5296  0.3944  1.1420
  638TIP3    H223550   6.099   2.621   0.297 -2.0784 -0.2633 -0.3377
  639TIP3   OH223551   1.644   2.159   7.041  0.4855  0.2186  0.4711
  639TIP3    H123552   1.676   2.114   7.119  0.0585  2.8047  2.2576
  639TIP3    H223553   1.699   2.236   7.033  0.6308 -0.0665 -1.9671
  640TIP3   OH223554   2.028   6.395   6.525  0.3929 -0.1037 -0.9003
  640TIP3    H123555   2.100   6.421   6.582 -0.1488  0.4970 -0.4695
  640TIP3    H223556   2.054   6.309   6.491 -0.1202 -1.4371  1.7830
  641TIP3   OH223557   3.007   1.669   8.306  0.2508 -0.4260 -0.3227
  641TIP3    H123558   3.056   1.601   8.260  1.3963 -0.7471  1.2706
  641TIP3    H223559   3.034   1.750   8.264  0.6486 -0.7687 -0.7398
  642TIP3   OH223560   1.307   2.418   2.053 -0.0863  0.2823 -0.1591
  642TIP3    H123561   1.360   2.339   2.045  0.4228  0.3938  1.7498
  642TIP3    H223562   1.366   2.489   2.029 -0.1314  0.2071 -0.4999
  643TIP3   OH223563   3.993   3.922   0.996 -0.5982  0.1354  0.3255
  643TIP3    H123564   4.084   3.939   1.019 -0.9687  3.4356 -0.1155
  643TIP3    H223565   3.943   3.978   1.054 -2.2057 -0.0129 -0.8506
  644TIP3   OH223566   0.967   2.607   7.433 -0.0858 -0.3425 -0.2071
  644TIP3    H123567   1.031   2.620   7.362  0.5563 -0.3504  0.3567
  644TIP3    H223568   1.021   2.592   7.511 -0.7832 -2.4972 -0.0961
  645TIP3   OH223569   3.541   0.267   8.630  0.1656 -0.1335  0.1898
  645TIP3    H123570   3.635   0.254   8.623 -0.0842 -2.3912  0.1244
  645TIP3    H223571   3.521   0.336   8.567  1.7534  0.3624  0.1856
  646TIP3   OH223572   0.524   2.591   6.514  0.1264  0.2824  0.6319
  646TIP3    H123573   0.474   2.615   6.436  0.0767 -1.2115  0.1766
  646TIP3    H223574   0.491   2.648   6.583 -0.5552  0.9093 -0.1978
  647TIP3   OH223575   2.577   5.940   7.263  0.1031 -0.4797  0.1673
  647TIP3    H123576   2.553   5.962   7.173 -1.3054  0.0229  0.6203
  647TIP3    H223577   2.505   5.977   7.316  1.0019 -0.5729  1.5072
  648TIP3   OH223578   6.500   6.701   1.307 -0.0016  0.7813  0.6856
  648TIP3    H123579   6.450   6.732   1.382 -0.7015  0.5623  0.3113
  648TIP3    H223580   6.513   6.608   1.324 -1.2958  0.4461 -0.0937
  649TIP3   OH223581   3.467   0.552   1.485  0.4097 -0.5550  0.3209
  649TIP3    H123582   3.539   0.519   1.539  1.1944  1.1491  0.3933
  649TIP3    H223583   3.476   0.506   1.402  0.2339 -1.9470  1.0483
  650TIP3   OH223584   0.333   0.238   0.780  0.8514  0.1674  0.1008
  650TIP3    H123585   0.346   0.178   0.853  1.7157  1.2417  0.8699
  650TIP3    H223586   0.255   0.289   0.805  2.0681  1.6331  1.1010
  651TIP3   OH223587   2.262   2.912   7.093  0.1614  0.4151  0.1945
  651TIP3    H123588   2.203   2.839   7.113  1.5593 -0.8540 -0.1394
  651TIP3    H223589   2.305   2.932   7.176 -0.3507  1.0055  0.3266
  652TIP3   OH223590   3.595   6.428   7.611 -0.4619 -0.1632 -0.4109
  652TIP3    H123591   3.544   6.487   7.556  0.3892 -1.8141 -3.1679
  652TIP3    H223592   3.686   6.447   7.587 -0.0270 -0.6468  0.7950
  653TIP3   OH223593   2.077   3.474   7.651 -0.2243  0.1594  0.3535
  653TIP3    H123594   2.074   3.419   7.730 -1.5014  1.2093  1.0731
  653TIP3    H223595   2.009   3.539   7.665  1.3734  2.0825 -0.3590
  654TIP3   OH223596   4.976   4.769   1.846 -0.4805 -0.9929  0.6977
  654TIP3    H123597   5.012   4.739   1.930  0.5189 -1.5353  0.0928
  654TIP3    H223598   5.053   4.792   1.794 -1.1410  0.9734  0.5011
  655TIP3   OH223599   0.385   1.267   1.028 -0.2298 -0.8267  0.2387
  655TIP3    H123600   0.380   1.221   0.944 -1.2504  1.3002 -0.9260
  655TIP3    H223601   0.295   1.265   1.062 -0.5596  1.2521 -0.4048
  656TIP3   OH223602   6.185   5.722   8.070  0.1183  0.2218  0.4059
  656TIP3    H123603   6.255   5.768   8.115  0.5704 -0.5220  0.4780
  656TIP3    H223604   6.131   5.791   8.031  0.5922  0.8128  0.7909
  657TIP3   OH223605   1.516   0.851   8.872 -0.4206  0.4730  0.3312
  657TIP3    H123606   1.461   0.897   8.808  0.3730 -0.5403 -1.1447
  657TIP3    H223607   1.482   0.762   8.872 -0.5133  0.4967  1.4824
  658TIP3   OH223608   0.765   5.002   1.674  0.4329 -0.0154  0.6492
  658TIP3    H123609   0.687   4.962   1.634  0.5064  0.4694  0.0075
  658TIP3    H223610   0.821   5.024   1.599 -0.0693  2.2692  0.8926
  659TIP3   OH223611   1.496   0.160   8.467  0.1766 -0.2561 -0.3308
  659TIP3    H123612   1.438   0.087   8.488 -2.6900  1.6063 -1.1495
  659TIP3    H223613   1.536   0.136   8.383  0.9844 -1.7775  0.4648
  660TIP3   OH223614   1.460   6.804   8.794  0.0262 -0.5448 -0.0171
  660TIP3    H123615   1.459   6.847   8.879  0.2823 -3.0744  1.3350
  660TIP3    H223616   1.543   6.831   8.754  0.8241 -0.8467  1.3809
  661TIP3   OH223617   3.973   3.391   8.710  0.3041  0.4951 -0.1873
  661TIP3    H123618   4.057   3.422   8.676  1.2455 -1.1474  0.5082
  661TIP3    H223619   3.941   3.330   8.643  0.0603  0.5186 -0.0945
  662TIP3   OH223620   3.215   4.310   1.293  0.9900 -0.6827  0.7615
  662TIP3    H123621   3.230   4.264   1.375 -0.6554 -2.4595  0.1294
  662TIP3    H223622   3.227   4.244   1.225  1.2851  0.4988 -0.3922
  663TIP3   OH223623   6.419   3.811   2.219 -0.1813 -0.3471  0.4613
  663TIP3    H123624   6.493   3.857   2.256 -1.5804  1.9167  0.6135
  663TIP3    H223625   6.345   3.871   2.228 -1.3923 -1.1535 -2.5747
  664TIP3   OH223626   3.530   5.657   8.027  0.0527  0.3988  0.0720
  664TIP3    H123627   3.448   5.616   8.055 -0.8747  1.9975 -0.1831
  664TIP3    H223628   3.511   5.750   8.029  1.6358  0.7586 -0.7876
  665TIP3   OH223629   3.589   4.258   2.181  0.0866 -0.4588 -0.5123
  665TIP3    H123630   3.583   4.181   2.238  0.0995 -0.1984 -0.1577
  665TIP3    H223631   3.518   4.314   2.210 -0.4676 -0.7122 -1.3466
  666TIP3   OH223632   5.406   6.496   6.679  0.4018 -0.1151 -0.0233
  666TIP3    H123633   5.317   6.510   6.710 -0.0473 -0.2281 -1.2328
  666TIP3    H223634   5.461   6.513   6.756 -0.5989  0.7663  0.5160
  667TIP3   OH223635   1.148   3.875   0.619 -0.2183  0.7015  0.1361
  667TIP3    H123636   1.066   3.922   0.632  0.1642  1.1898  0.8186
  667TIP3    H223637   1.163   3.830   0.702 -0.8091 -1.0378 -0.6332
  668TIP3   OH223638   0.704   0.781   2.454 -0.2579  0.2517  0.1331
  668TIP3    H123639   0.780   0.737   2.416 -0.0194  0.6833  0.0944
  668TIP3    H223640   0.637   0.714   2.460  0.8332 -0.7382  2.3428
  669TIP3   OH223641   2.324   0.817   5.882 -0.6535  0.1694 -0.0490
  669TIP3    H123642   2.321   0.905   5.920 -0.1137 -0.1355  0.7390
  669TIP3    H223643   2.238   0.805   5.842 -0.7186  1.0659 -0.1872
  670TIP3   OH223644   1.210   1.838   1.665  0.3473 -0.1790 -0.7140
  670TIP3    H123645   1.263   1.902   1.713 -1.0390  0.7397 -0.3401
  670TIP3    H223646   1.126   1.883   1.650 -0.4864 -1.7209 -0.9013
  671TIP3   OH223647   2.066   5.933   8.162  0.4385  0.1726  0.1902
  671TIP3    H123648   2.067   6.004   8.098 -0.7576  1.6603  1.7239
  671TIP3    H223649   2.134   5.872   8.133  0.5688  1.2621 -1.9262
  672TIP3   OH223650   4.015   5.823   7.808 -0.1259 -0.1779  0.7301
  672TIP3    H123651   4.021   5.811   7.903  0.2869 -2.6485  0.4636
  672TIP3    H223652   4.102   5.853   7.782 -0.1862  0.3288  1.0906
  673TIP3   OH223653   5.548   5.519   8.468  0.0942 -0.2029  0.8908
  673TIP3    H123654   5.641   5.509   8.446 -0.1610 -1.0010  0.1196
  673TIP3    H223655   5.538   5.470   8.550 -0.0872 -2.1131 -0.2121
  674TIP3   OH223656   3.761   2.949   8.346  0.2896  0.0246 -0.1099
  674TIP3    H123657   3.768   2.855   8.331  2.4789  0.0897  0.0978
  674TIP3    H223658   3.810   2.988   8.274  1.7471  0.8282  1.2438
  675TIP3   OH223659   6.684   6.472   7.681 -0.1433  0.4288 -0.2589
  675TIP3    H123660   6.731   6.398   7.718  0.1398  0.4773 -0.5135
  675TIP3    H223661   6.692   6.541   7.746 -1.4018 -0.1157  0.5040
  676TIP3   OH223662   5.363   5.142   0.340 -0.1622  0.0053  0.0055
  676TIP3    H123663   5.455   5.117   0.344 -0.0739  0.5062  1.3509
  676TIP3    H223664   5.361   5.234   0.365 -0.9654  0.2050 -0.7163
  677TIP3   OH223665   1.940   1.809   6.371  0.1611  0.5077 -0.0076
  677TIP3    H123666   1.898   1.765   6.297 -0.3414  1.1671 -0.1220
  677TIP3    H223667   1.873   1.867   6.406  0.3090  0.0039  1.1525
  678TIP3   OH223668   2.263   5.757   8.105  0.8464 -0.1451 -0.1638
  678TIP3    H123669   2.302   5.674   8.131  1.3469  0.6537  1.7733
  678TIP3    H223670   2.319   5.824   8.144  0.2434  1.1089 -1.3658
  679TIP3   OH223671   5.198   6.112   1.877  0.3104 -0.5307 -0.4039
  679TIP3    H123672   5.252   6.037   1.902  1.7577  1.0277  1.4322
  679TIP3    H223673   5.112   6.092   1.913  0.0643 -2.1916 -1.7468
  680TIP3   OH223674   5.220   6.384   7.897  0.9212  0.3213  0.0078
  680TIP3    H123675   5.134   6.407   7.931  1.6799  3.1698  0.2452
  680TIP3    H223676   5.202   6.326   7.823 -0.9853 -1.7447  1.9038
  681TIP3   OH223677   0.668   2.689   1.814 -0.3532 -0.3477  0.1786
  681TIP3    H123678   0.601   2.633   1.854  0.6028 -1.8161 -0.2004
  681TIP3    H223679   0.701   2.638   1.740  0.3306  0.8773 -0.3885
  682TIP3   OH223680   4.032   5.375   7.176 -0.0427 -0.7045 -0.2881
  682TIP3    H123681   4.112   5.400   7.221 -0.8342  0.9841  0.2553
  682TIP3    H223682   4.016   5.446   7.113  1.6039 -3.4291 -4.2226
  683TIP3   OH223683   0.274   2.178   7.462 -0.1680 -0.4204 -0.7465
  683TIP3    H123684   0.236   2.263   7.484 -0.8237 -1.1770  1.3079
  683TIP3    H223685   0.356   2.174   7.513 -0.4783 -1.2636 -0.2921
  684TIP3   OH223686   4.199   0.196   8.039  0.5290 -0.3000 -0.3075
  684TIP3    H123687   4.122   0.142   8.054  0.6213 -0.1658  0.6882
  684TIP3    H223688   4.165   0.276   7.998  0.1709 -0.3189 -0.0460
  685TIP3   OH223689   5.107   0.909   0.464 -0.4853 -0.2158  0.1250
  685TIP3    H123690   5.197   0.940   0.472 -0.8315  0.7290  0.5065
  685TIP3    H223691   5.110   0.819   0.496  0.5978 -0.7165 -1.2575
  686TIP3   OH223692   2.910   5.396   0.913  0.5804 -0.0622 -0.0767
  686TIP3    H123693   2.825   5.389   0.957  0.6578  0.7258  0.2155
  686TIP3    H223694   2.965   5.444   0.975  0.7509  0.9037 -0.9440
  687TIP3   OH223695   4.707   6.507   7.540 -0.6828  0.4735  0.4280
  687TIP3    H123696   4.799   6.513   7.514 -0.7425 -0.0411  0.0855
  687TIP3    H223697   4.668   6.589   7.512 -0.9018 -0.3157 -1.7502
  688TIP3   OH223698   1.401   6.222   6.925 -0.7962  0.3535 -0.1465
  688TIP3    H123699   1.328   6.247   6.868  0.0906  3.1196 -0.2244
  688TIP3    H223700   1.369   6.239   7.014 -0.4804  0.9423 -0.1420
  689TIP3   OH223701   0.313   5.422   7.327 -0.0309 -0.3527 -0.3515
  689TIP3    H123702   0.243   5.377   7.279 -0.0841 -0.4907 -0.1481
  689TIP3    H223703   0.347   5.487   7.266  0.2570 -0.8808 -0.7578
  690TIP3   OH223704   1.004   4.171   1.029  0.0007 -0.0045 -0.2860
  690TIP3    H123705   1.080   4.228   1.031  0.2537 -0.3571  0.8834
  690TIP3    H223706   0.943   4.210   1.092  0.3238 -1.1867  0.8020
  691TIP3   OH223707   2.240   5.794   0.832  0.4494 -0.0754  0.1619
  691TIP3    H123708   2.198   5.768   0.914 -0.6888  0.4349 -0.2435
  691TIP3    H223709   2.281   5.714   0.800  0.2631 -0.4533  0.8424
  692TIP3   OH223710   4.300   6.097   7.486  0.1837  0.5626 -0.8987
  692TIP3    H123711   4.226   6.157   7.493  0.5682  0.9596 -0.1626
  692TIP3    H223712   4.368   6.135   7.542  0.1959 -0.8877  0.1244
  693TIP3   OH223713   2.449   4.821   8.895 -0.4649  0.1528 -0.1267
  693TIP3    H123714   2.355   4.808   8.888 -0.4659  0.1315 -0.0718
  693TIP3    H223715   2.471   4.795   8.985 -0.1534 -1.4490 -0.6254
  694TIP3   OH223716   5.732   6.373   0.245  0.7488 -0.2551 -0.4373
  694TIP3    H123717   5.746   6.290   0.200  1.1835 -0.2651 -0.2866
  694TIP3    H223718   5.763   6.440   0.183  1.1521 -0.2565 -0.2416
  695TIP3   OH223719   3.678   4.357   7.557  0.6527 -0.0198 -0.0873
  695TIP3    H123720   3.735   4.434   7.565  0.0323  0.3804  0.6428
  695TIP3    H223721   3.591   4.394   7.539  0.3559 -0.5573  0.2441
  696TIP3   OH223722   3.925   0.942   0.563  0.3919  0.2922  0.9167
  696TIP3    H123723   3.970   0.893   0.494 -1.3917 -1.5498  1.0040
  696TIP3    H223724   3.974   1.024   0.568  1.3562 -0.0152 -1.6563
  697TIP3   OH223725   0.154   6.257   8.333 -0.1543 -0.0578  0.5151
  697TIP3    H123726   0.133   6.192   8.267 -1.0396 -0.3693  1.0778
  697TIP3    H223727   0.116   6.338   8.300  0.5955  0.0941  0.0063
  698TIP3   OH223728   6.534   3.379   0.841  0.0214  0.6995  0.2770
  698TIP3    H123729   6.441   3.391   0.857  0.2615  0.5255  2.0081
  698TIP3    H223730   6.549   3.419   0.755 -1.3818  1.9740  0.5826
  699TIP3   OH223731   1.040   2.465   6.820  0.3440  0.0370 -0.0551
  699TIP3    H123732   0.962   2.410   6.812  0.0150  0.5316 -0.3356
  699TIP3    H223733   1.113   2.403   6.824  0.0275 -0.4069 -0.8781
  700TIP3   OH223734   0.860   4.443   7.518 -0.4250 -0.3907 -0.1285
  700TIP3    H123735   0.861   4.451   7.613 -1.3577 -1.9203  0.0289
  700TIP3    H223736   0.768   4.446   7.494 -0.2093 -0.1675 -0.9911
  701TIP3   OH223737   1.919   4.492   6.945  0.1931 -0.3024  0.0483
  701TIP3    H123738   1.941   4.522   6.857  3.4848 -0.6850  0.5913
  701TIP3    H223739   1.927   4.396   6.940  1.2149 -0.2805  0.8985
  702TIP3   OH223740   0.878   0.128   8.823 -0.2234 -0.5676 -0.0745
  702TIP3    H123741   0.881   0.065   8.751 -1.2444 -1.2851  0.4890
  702TIP3    H223742   0.954   0.185   8.808  1.0102 -2.2066 -0.3242
  703TIP3   OH223743   2.578   4.865   2.162  0.5401 -0.6856 -0.1025
  703TIP3    H123744   2.491   4.850   2.199  1.2981 -1.6268  1.4059
  703TIP3    H223745   2.625   4.913   2.230  2.2280 -3.1419  0.5789
  704TIP3   OH223746   6.747   1.029   0.885  0.3737  0.1997  0.7211
  704TIP3    H123747   6.803   1.083   0.829 -0.5854  0.7013  0.2187
  704TIP3    H223748   6.728   0.951   0.832  0.5280  0.0708  0.8558
  705TIP3   OH223749   3.565   0.163   7.458 -0.4002  0.5164  0.5706
  705TIP3    H123750   3.627   0.131   7.392 -0.2953  0.6273  0.6144
  705TIP3    H223751   3.552   0.255   7.437 -1.2557  0.2794  0.0120
  706TIP3   OH223752   3.522   5.934   8.045  0.1037 -0.0316 -0.3455
  706TIP3    H123753   3.550   5.972   7.962  1.1815 -2.1083 -1.0013
  706TIP3    H223754   3.427   5.939   8.044  0.1019 -0.1084 -1.7749
  707TIP3   OH223755   0.695   3.740   8.602 -0.1003 -0.1899 -0.3353
  707TIP3    H123756   0.748   3.675   8.554  1.3631  0.5465  0.2396
  707TIP3    H223757   0.753   3.814   8.614 -0.7614  0.0445  1.7163
  708TIP3   OH223758   4.584   5.784   2.263  0.2368 -0.0408 -0.7506
  708TIP3    H123759   4.626   5.732   2.195  1.9439 -2.6609  2.0063
  708TIP3    H223760   4.514   5.727   2.296 -0.5476  1.1422 -0.3004
  709TIP3   OH223761   4.476   5.766   6.222  0.6861  0.2280  0.1110
  709TIP3    H123762   4.547   5.818   6.187 -1.7466  1.1964 -4.1597
  709TIP3    H223763   4.396   5.813   6.196 -1.6442 -1.2516  3.7332
  710TIP3   OH223764   3.046   4.427   8.499 -0.1722 -0.0316 -0.1348
  710TIP3    H123765   2.970   4.484   8.512 -0.9313 -0.4964 -2.1420
  710TIP3    H223766   3.074   4.403   8.587 -1.9495  0.6780  0.6669
  711TIP3   OH223767   3.861   4.345   0.580 -0.1473  0.2141 -0.1342
  711TIP3    H123768   3.872   4.278   0.512 -0.2670  0.1581 -0.0992
  711TIP3    H223769   3.808   4.302   0.647  0.7469 -0.0316  0.4158
  712TIP3   OH223770   3.697   0.046   7.233 -0.2155 -0.3856  0.1597
  712TIP3    H123771   3.740  -0.024   7.184 -0.6230 -0.1680 -0.5162
  712TIP3    H223772   3.742   0.125   7.204 -0.8089 -0.1993 -0.2692
  713TIP3   OH223773   1.504   1.154   6.935 -0.1079 -0.1437  0.4693
  713TIP3    H123774   1.536   1.088   6.874  0.6158  0.0652  0.6069
  713TIP3    H223775   1.461   1.220   6.880 -2.6113 -1.6507  0.4695
  714TIP3   OH223776   2.452   0.494   2.393 -0.3055 -0.2649 -0.0747
  714TIP3    H123777   2.378   0.441   2.423  1.2681 -2.1069  0.8400
  714TIP3    H223778   2.443   0.577   2.438 -1.9339 -0.3373 -0.2043
  715TIP3   OH223779   3.668   2.476   7.640 -0.0818 -0.2711 -0.0617
  715TIP3    H123780   3.669   2.449   7.732  0.7848  0.7038  0.2413
  715TIP3    H223781   3.587   2.440   7.605  0.1522 -1.6706  0.7681
  716TIP3   OH223782   4.851   6.760   7.725  0.7281  0.4704  0.0259
  716TIP3    H123783   4.841   6.823   7.796 -1.1843 -1.2921  1.4273
  716TIP3    H223784   4.782   6.783   7.663  0.4929  0.1867  0.1840
  717TIP3   OH223785   4.797   1.467   1.324  0.1786  0.4300  0.0708
  717TIP3    H123786   4.885   1.467   1.286 -0.8485  0.5109 -2.5152
  717TIP3    H223787   4.810   1.437   1.414  3.1561  2.9473  0.6458
  718TIP3   OH223788   2.440   0.588   8.259 -0.0410  0.2403 -0.2983
  718TIP3    H123789   2.370   0.629   8.309  0.2868  1.5003 -0.8076
  718TIP3    H223790   2.509   0.655   8.256  1.0413 -0.8457 -0.0903
  719TIP3   OH223791   6.564   0.440   1.144 -0.1429 -0.5134 -0.0094
  719TIP3    H123792   6.552   0.525   1.187  0.0459  0.7063 -2.2193
  719TIP3    H223793   6.486   0.390   1.169  0.0072  0.0672  1.7812
  720TIP3   OH223794   3.816   6.560   1.392 -0.0281 -0.1499 -0.2532
  720TIP3    H123795   3.823   6.465   1.399  1.4146 -0.1442 -1.1662
  720TIP3    H223796   3.722   6.577   1.395 -0.3049 -1.5738  0.1884
  721TIP3   OH223797   1.848   0.433   1.907  0.5530 -0.3686 -0.4832
  721TIP3    H123798   1.882   0.434   1.817 -0.1306 -1.4099 -0.7667
  721TIP3    H223799   1.801   0.517   1.915  0.7988 -0.1705 -1.0240
  722TIP3   OH223800   0.591   4.772   1.979  0.1594  0.0779  0.3637
  722TIP3    H123801   0.684   4.794   1.986  0.4037 -1.2489  2.0934
  722TIP3    H223802   0.583   4.726   1.896  1.6066 -1.9628  1.2510
  723TIP3   OH223803   5.813   2.271   1.206 -0.0130  0.4233 -0.0946
  723TIP3    H123804   5.782   2.183   1.224 -0.1579  0.2754 -0.9912
  723TIP3    H223805   5.855   2.264   1.120  0.4492  1.1131  0.0659
  724TIP3   OH223806   3.228   0.320   0.383 -0.2155 -0.3704 -0.3189
  724TIP3    H123807   3.184   0.312   0.299 -1.0026 -1.0614  0.1364
  724TIP3    H223808   3.272   0.405   0.380  1.2460 -1.1148 -2.0885
  725TIP3   OH223809   2.871   0.955   0.143  0.1857 -0.1307  0.4387
  725TIP3    H123810   2.866   0.864   0.115  0.7236  0.2624 -1.0526
  725TIP3    H223811   2.831   0.956   0.229  0.8966 -1.9271  0.8437
  726TIP3   OH223812   2.698   2.557   1.128 -0.2822 -0.0678 -0.0092
  726TIP3    H123813   2.745   2.595   1.053 -0.7652 -0.4375 -0.5065
  726TIP3    H223814   2.685   2.630   1.187 -0.8051  0.4538 -0.7553
  727TIP3   OH223815   0.447   4.770   1.267 -0.1196 -0.1366  0.0776
  727TIP3    H123816   0.462   4.784   1.173  2.9189  2.0305  0.7504
  727TIP3    H223817   0.454   4.675   1.278  1.0407 -0.2950 -1.6673
  728TIP3   OH223818   3.246   0.245   7.971  0.4374 -0.0740  0.7256
  728TIP3    H123819   3.287   0.160   7.987 -0.1438 -0.8235 -1.3758
  728TIP3    H223820   3.296   0.282   7.898 -1.9598 -0.6519 -1.3804
  729TIP3   OH223821   1.920   0.207   2.047 -0.0487 -0.2371 -0.2132
  729TIP3    H123822   1.983   0.239   2.111  0.9144 -1.5369 -0.4624
  729TIP3    H223823   1.903   0.281   1.989 -1.1994  1.0684  1.6981
  730TIP3   OH223824   2.703   6.495   8.306 -0.1746 -0.1804 -0.0937
  730TIP3    H123825   2.707   6.530   8.395 -0.7633 -0.7064  0.1492
  730TIP3    H223826   2.614   6.462   8.298  0.5368 -2.2904 -0.0377
  731TIP3   OH223827   3.256   1.724   7.554  0.3696  0.0629 -0.4641
  731TIP3    H123828   3.342   1.713   7.594 -0.2518 -0.2922  0.7931
  731TIP3    H223829   3.237   1.818   7.564 -0.4948 -0.2800  1.6358
  732TIP3   OH223830   2.176   3.417   0.096  0.3650 -0.1730  0.0094
  732TIP3    H123831   2.139   3.403   0.009 -1.5377  0.9019  0.5940
  732TIP3    H223832   2.192   3.328   0.130 -0.1118 -0.6193 -0.9173
  733TIP3   OH223833   3.251   4.082   0.382 -0.3405 -0.2702  0.4424
  733TIP3    H123834   3.200   4.135   0.321  0.2922 -0.8092 -0.5842
  733TIP3    H223835   3.193   4.069   0.457 -0.6773  1.4758  0.5427
  734TIP3   OH223836   3.222   1.836   8.750 -0.2636  0.3137  0.0121
  734TIP3    H123837   3.176   1.902   8.801  0.4153  0.0139  1.0500
  734TIP3    H223838   3.273   1.787   8.814  2.1155  1.1076 -1.1516
  735TIP3   OH223839   2.847   2.412   2.067 -0.3026 -0.1008 -0.5076
  735TIP3    H123840   2.922   2.379   2.117 -0.1080  0.1870 -0.6022
  735TIP3    H223841   2.794   2.335   2.049 -1.6426  0.0706  2.2012
  736TIP3   OH223842   0.606   2.614   1.258  0.5366  0.3993  0.2723
  736TIP3    H123843   0.544   2.666   1.207  1.9690 -0.4575 -2.5583
  736TIP3    H223844   0.559   2.533   1.278  0.2897  0.2905 -0.7039
  737TIP3   OH223845   2.090   6.728   2.128 -0.3153  0.8246  0.1733
  737TIP3    H123846   2.115   6.801   2.185  0.1865  0.9191 -0.1646
  737TIP3    H223847   2.017   6.686   2.174 -1.0951  1.9708  0.0300
  738TIP3   OH223848   6.694   0.240   1.374  0.1723 -0.3323 -0.8421
  738TIP3    H123849   6.701   0.290   1.293  0.5161  1.8258  0.4687
  738TIP3    H223850   6.611   0.268   1.412  2.3149  2.7799  2.0641
  739TIP3   OH223851   3.529   1.597   1.725  0.1010 -0.3478 -0.1028
  739TIP3    H123852   3.480   1.516   1.708  0.6790 -0.5237 -1.0035
  739TIP3    H223853   3.509   1.654   1.651 -0.9416  0.6666  0.9268
  740TIP3   OH223854   5.741   2.321   8.872 -0.0689 -0.0449 -0.0196
  740TIP3    H123855   5.697   2.366   8.943  1.5570  1.6639 -0.0121
  740TIP3    H223856   5.671   2.296   8.812 -1.3731 -0.7383  1.7175
  741TIP3   OH223857   6.621   1.781   7.382  0.2093  0.4980  0.0408
  741TIP3    H123858   6.622   1.687   7.401  2.0265  0.4031 -0.3929
  741TIP3    H223859   6.549   1.792   7.320 -0.8242 -0.3903  1.0482
  742TIP3   OH223860   1.968   5.040   1.487  0.2219  0.0231  0.1762
  742TIP3    H123861   1.941   5.021   1.577  1.5053  0.5075  0.6865
  742TIP3    H223862   1.905   4.993   1.432 -1.0877  0.4052  1.3052
  743TIP3   OH223863   6.791   3.137   8.587 -0.2622 -0.0421 -0.3550
  743TIP3    H123864   6.828   3.220   8.556 -0.4107  0.8645  1.7108
  743TIP3    H223865   6.765   3.091   8.507  2.3579  0.6724 -1.7306
  744TIP3   OH223866   6.337   0.969   1.145 -0.2246 -0.1061  0.6465
  744TIP3    H123867   6.297   1.055   1.129  1.1872  0.5959  0.6407
  744TIP3    H223868   6.402   0.960   1.075  1.2297 -0.1275  1.9392
  745TIP3   OH223869   1.311   1.699   0.590 -0.0003  0.1204  0.2585
  745TIP3    H123870   1.307   1.666   0.680 -0.0340 -0.7493 -0.0508
  745TIP3    H223871   1.401   1.729   0.579 -0.1792  0.8910  0.7969
  746TIP3   OH223872   2.745   6.659   0.838  0.3638  0.2006  0.1229
  746TIP3    H123873   2.832   6.654   0.798  0.3692 -3.0251  0.3361
  746TIP3    H223874   2.762   6.678   0.930  0.5186  3.8517 -0.5125
  747TIP3   OH223875   0.965   4.218   7.396  0.5434  0.3492 -0.4057
  747TIP3    H123876   1.002   4.182   7.476 -2.0202 -2.4671 -0.3001
  747TIP3    H223877   0.953   4.311   7.415  0.1371 -0.1889  2.4552
  748TIP3   OH223878   4.617   1.613   7.936 -0.2520 -0.5270 -0.0357
  748TIP3    H123879   4.690   1.667   7.905  0.0418 -0.4970  0.6773
  748TIP3    H223880   4.591   1.654   8.019  0.0616 -1.5531  0.5831
  749TIP3   OH223881   4.448   2.415   2.668  0.0614 -0.3650  0.3010
  749TIP3    H123882   4.481   2.339   2.716  0.5316 -0.0940  0.4137
  749TIP3    H223883   4.353   2.414   2.684  0.0900 -0.8085  0.4674
  750TIP3   OH223884   0.787   0.217   0.359  0.1564 -0.4223 -0.0850
  750TIP3    H123885   0.746   0.291   0.313  2.4117 -0.4598 -2.3735
  750TIP3    H223886   0.776   0.237   0.452 -1.6870  1.3890 -0.6205
  751TIP3   OH223887   0.085   1.803   7.300 -0.2491 -0.7796  0.2904
  751TIP3    H123888   0.140   1.812   7.378  1.8873  1.5456 -1.3158
  751TIP3    H223889  -0.002   1.831   7.330  0.2682 -0.9049  2.0424
  752TIP3   OH223890   4.776   1.873   8.709 -0.4464 -0.4204  0.1574
  752TIP3    H123891   4.869   1.862   8.691 -0.5982 -1.0447 -0.3012
  752TIP3    H223892   4.743   1.922   8.633 -1.1204 -3.1938 -1.4942
  753TIP3   OH223893   2.163   5.295   8.341  0.2657  0.1609 -0.1386
  753TIP3    H123894   2.125   5.235   8.405  0.3364  0.6591  0.3751
  753TIP3    H223895   2.253   5.309   8.371  0.4697 -0.0325 -0.6530
  754TIP3   OH223896   1.701   4.372   8.231 -0.4627  0.6885 -0.4321
  754TIP3    H123897   1.780   4.395   8.280 -0.0915  2.0076 -1.5932
  754TIP3    H223898   1.706   4.425   8.152 -0.1963 -2.4911 -2.7427
  755TIP3   OH223899   1.184   6.229   0.071 -0.3533  0.0281 -1.2320
  755TIP3    H123900   1.127   6.154   0.083  0.0364 -0.1348 -0.3003
  755TIP3    H223901   1.205   6.258   0.160  0.7548  0.2693 -1.5562
  756TIP3   OH223902   0.283   2.914   6.526  0.2656 -0.3765 -0.3887
  756TIP3    H123903   0.200   2.915   6.573 -0.1832 -0.9281 -1.1377
  756TIP3    H223904   0.330   2.991   6.558  0.6069 -1.4840  2.0139
  757TIP3   OH223905   4.775   3.212   0.801 -0.3898  0.6585 -0.2783
  757TIP3    H123906   4.839   3.187   0.868 -1.4597  0.9597  0.8945
  757TIP3    H223907   4.710   3.263   0.848 -0.5173  1.9973 -1.8130
  758TIP3   OH223908   3.411   3.695   0.892 -0.3951  0.2716 -0.1266
  758TIP3    H123909   3.448   3.779   0.863 -0.5378  0.0756 -0.9015
  758TIP3    H223910   3.480   3.631   0.873 -0.2977  0.1995  0.4393
  759TIP3   OH223911   0.598   1.262   8.065  0.3097 -0.2080 -0.7742
  759TIP3    H123912   0.554   1.346   8.051 -0.2330 -0.5147 -0.9511
  759TIP3    H223913   0.627   1.236   7.977  2.0365  0.6098 -0.5034
  760TIP3   OH223914   4.339   5.025   0.912  0.3749 -0.2985  0.0555
  760TIP3    H123915   4.420   4.975   0.899  0.3457 -0.5161  0.6896
  760TIP3    H223916   4.341   5.092   0.843 -0.3132 -2.0834 -1.7911
  761TIP3   OH223917   6.756   1.564   2.249 -0.4206  0.0727 -0.1827
  761TIP3    H123918   6.767   1.578   2.343 -0.0042  0.4526 -0.2830
  761TIP3    H223919   6.661   1.557   2.237 -0.4228 -1.3157  0.4474
  762TIP3   OH223920   0.442   0.539   0.777 -0.1700  0.3113 -0.2105
  762TIP3    H123921   0.461   0.613   0.835  0.2172  0.4958 -0.5670
  762TIP3    H223922   0.525   0.491   0.771 -1.1372 -1.9813  2.5274
  763TIP3   OH223923   1.808   5.696   0.247 -0.0301 -0.6117 -0.3306
  763TIP3    H123924   1.764   5.778   0.225  1.9779  0.6580  0.1920
  763TIP3    H223925   1.824   5.654   0.162  0.6598  0.4764 -0.7530
  764TIP3   OH223926   5.468   4.373   6.960  0.1048  0.1021  0.8126
  764TIP3    H123927   5.455   4.294   6.907  2.0122 -0.6237  1.3464
  764TIP3    H223928   5.393   4.429   6.938 -0.9793 -1.5870 -0.0288
  765TIP3   OH223929   0.057   3.976   0.141 -0.0228 -0.1689 -0.5425
  765TIP3    H123930   0.147   3.997   0.117  0.1829 -1.2181 -0.7461
  765TIP3    H223931   0.005   4.045   0.102  0.6436  0.1295 -0.9202
  766TIP3   OH223932   6.479   3.927   8.118  0.0752  0.2564  0.5215
  766TIP3    H123933   6.438   3.858   8.169  0.7064 -0.5749 -0.0731
  766TIP3    H223934   6.450   4.008   8.160 -0.8698 -0.3515  1.0831
  767TIP3   OH223935   4.586   4.181   0.501  0.3228  0.3277  0.0573
  767TIP3    H123936   4.558   4.111   0.442 -0.3967  2.0047 -1.7126
  767TIP3    H223937   4.642   4.237   0.446 -0.3915  1.9669  0.9345
  768TIP3   OH223938   4.088   2.674   2.149  0.4073 -0.1919 -0.0118
  768TIP3    H123939   4.028   2.744   2.177  0.6120  0.0130 -0.0830
  768TIP3    H223940   4.150   2.718   2.091  1.1042 -0.2407  0.6783
  769TIP3   OH223941   0.308   4.985   7.956  0.6745  0.0325 -0.0997
  769TIP3    H123942   0.225   5.003   7.912  0.9250  0.7777 -0.2825
  769TIP3    H223943   0.368   5.052   7.922  1.5675 -0.9924 -0.5690
  770TIP3   OH223944   3.759   3.020   1.217  0.8554  0.5031  0.5031
  770TIP3    H123945   3.701   3.094   1.204  0.8828  0.3065 -0.9102
  770TIP3    H223946   3.843   3.048   1.181  0.1292 -1.1607 -2.9625
  771TIP3   OH223947   0.679   1.806   7.792 -0.3044 -0.4812 -0.1208
  771TIP3    H123948   0.759   1.787   7.841 -1.2603 -1.2004  1.2418
  771TIP3    H223949   0.609   1.768   7.845 -1.4999 -0.4315 -1.5836
  772TIP3   OH223950   3.344   6.527   2.376  0.0925  0.2076 -0.3529
  772TIP3    H123951   3.299   6.515   2.460  0.0088  1.5273 -0.1963
  772TIP3    H223952   3.436   6.541   2.401  0.5262 -1.7445 -0.6341
  773TIP3   OH223953   0.031   3.439   8.274  0.0102  0.0924 -0.2076
  773TIP3    H123954   0.092   3.493   8.224  0.4818 -1.6779 -1.6661
  773TIP3    H223955   0.073   3.427   8.359  2.1187 -1.6596 -1.4105
  774TIP3   OH223956   4.061   6.100   6.569  0.0702  0.1682  0.1892
  774TIP3    H123957   4.053   6.060   6.482  0.6855  1.4601 -0.5037
  774TIP3    H223958   4.009   6.045   6.627 -2.2602  0.5628 -1.4220
  775TIP3   OH223959   0.237   5.964   8.359  0.1669 -0.3422  0.2117
  775TIP3    H123960   0.227   6.029   8.289  0.4650 -1.0563 -0.5141
  775TIP3    H223961   0.300   6.003   8.419 -1.6473  1.1914  1.2107
  776TIP3   OH223962   1.057   0.501   0.625 -0.1131 -0.0490 -0.6179
  776TIP3    H123963   1.150   0.501   0.604  0.4111 -0.7008  1.5112
  776TIP3    H223964   1.035   0.593   0.641  0.9029 -0.1801  1.7619
  777TIP3   OH223965   2.724   2.849   0.793  0.4408  0.0690 -0.0147
  777TIP3    H123966   2.782   2.777   0.819  2.2048  0.8704 -1.5821
  777TIP3    H223967   2.692   2.885   0.876 -1.3293 -3.0737  0.8385
  778TIP3   OH223968   4.764   5.669   1.126  0.3983 -0.1117 -0.4498
  778TIP3    H123969   4.819   5.655   1.203 -0.7812  0.9311  0.6352
  778TIP3    H223970   4.674   5.663   1.159 -0.1656 -0.8736 -2.0007
  779TIP3   OH223971   5.014   4.752   0.702 -0.2052  0.0751  0.0329
  779TIP3    H123972   5.010   4.831   0.757  1.3960  1.3743 -1.5864
  779TIP3    H223973   5.087   4.701   0.738 -0.0277  0.2647 -0.0554
  780TIP3   OH223974   3.134   3.584   6.837 -0.6005 -0.4268  0.4342
  780TIP3    H123975   3.181   3.666   6.819  0.5140 -0.9387  0.9535
  780TIP3    H223976   3.202   3.521   6.857 -1.4315 -1.5610 -0.1861
  781TIP3   OH223977   3.908   4.539   1.708  0.0948 -0.1169  0.1896
  781TIP3    H123978   3.957   4.458   1.695 -0.6248 -0.5987  0.3914
  781TIP3    H223979   3.940   4.573   1.792  0.3864 -0.1976  0.1127
  782TIP3   OH223980   6.164   0.219   8.122  0.2320  0.3281  0.3353
  782TIP3    H123981   6.069   0.223   8.108  0.2308 -0.2074  0.1638
  782TIP3    H223982   6.193   0.148   8.065  0.4595 -0.8269  1.8294
  783TIP3   OH223983   4.270   4.617   8.145  0.4628  0.3373 -0.0939
  783TIP3    H123984   4.193   4.593   8.197  0.3693  0.4633 -0.1730
  783TIP3    H223985   4.344   4.589   8.199  0.4788 -4.5092 -2.1227
  784TIP3   OH223986   1.756   3.225   6.755  0.0984 -0.0419  0.0534
  784TIP3    H123987   1.805   3.187   6.827  1.1317  0.0969 -0.5582
  784TIP3    H223988   1.673   3.178   6.754  1.1503 -1.9691 -0.4033
  785TIP3   OH223989   3.876   4.135   0.386 -0.4893  0.4204  0.0544
  785TIP3    H123990   3.823   4.058   0.362 -0.0190 -0.9766  3.0333
  785TIP3    H223991   3.948   4.135   0.323 -0.5213 -1.6075 -0.0619
  786TIP3   OH223992   6.458   5.255   8.252 -0.4524  0.4341  0.3830
  786TIP3    H123993   6.547   5.262   8.218 -0.9899  2.2531 -0.7935
  786TIP3    H223994   6.443   5.338   8.297 -1.1201 -0.3881  1.7741
  787TIP3   OH223995   1.604   6.632   0.900  0.5976 -0.2872 -0.4862
  787TIP3    H123996   1.659   6.603   0.828  0.0270  2.4457 -2.1470
  787TIP3    H223997   1.563   6.713   0.869  0.1098  0.8915  2.7990
  788TIP3   OH223998   6.787   1.054   6.958  0.0917 -0.2173  0.0993
  788TIP3    H123999   6.786   1.139   6.915  0.0688 -0.4723 -0.4189
  788TIP3    H224000   6.800   0.991   6.886 -0.2516 -0.6751  0.4299
  789TIP3   OH224001   0.670   4.231   0.923  0.4217  0.0330  0.0824
  789TIP3    H124002   0.666   4.282   0.843 -1.4613 -0.9515 -0.4927
  789TIP3    H224003   0.609   4.274   0.982  0.5522 -0.2291  0.4114
  790TIP3   OH224004   6.597   4.242   1.237 -0.6689 -0.5141 -0.2031
  790TIP3    H124005   6.535   4.308   1.267 -0.1487  0.1313 -0.5162
  790TIP3    H224006   6.602   4.254   1.142  2.6459  2.0100  0.0730
  791TIP3   OH224007   3.331   0.232   8.223  0.0458  0.4543  0.7656
  791TIP3    H124008   3.330   0.293   8.149  0.8708 -0.6725 -0.2162
  791TIP3    H224009   3.252   0.179   8.211  0.3587  0.0424  0.4643
  792TIP3   OH224010   0.469   1.270   1.422 -0.3904 -0.1081 -0.2893
  792TIP3    H124011   0.431   1.355   1.399 -0.3597  0.0733  0.3082
  792TIP3    H224012   0.426   1.247   1.505  2.8087  1.4693  2.0305
  793TIP3   OH224013   1.692   6.182   6.938  0.5501 -0.2863  0.6652
  793TIP3    H124014   1.727   6.252   6.883  1.2463 -1.0363  0.1302
  793TIP3    H224015   1.598   6.184   6.922  0.4724  0.9209  1.1335
  794TIP3   OH224016   3.115   5.694   0.889  0.1928 -0.9560  0.0274
  794TIP3    H124017   3.200   5.737   0.888 -0.2043 -0.1219  0.9694
  794TIP3    H224018   3.104   5.661   0.799  0.5407  0.8436 -0.7242
  795TIP3   OH224019   3.935   3.725   0.153  0.0892 -0.1586 -0.0973
  795TIP3    H124020   3.899   3.647   0.110 -1.1372  1.2666 -1.7871
  795TIP3    H224021   4.026   3.704   0.170  0.3160 -1.2349 -2.3825
  796TIP3   OH224022   3.392   1.526   8.862  0.7276  0.2676  0.3436
  796TIP3    H124023   3.378   1.602   8.918  1.9438  0.5502  0.3087
  796TIP3    H224024   3.487   1.524   8.849  0.5317 -0.2179 -1.1194
  797TIP3   OH224025   5.639   0.771   0.579 -0.2005  0.1470 -0.1979
  797TIP3    H124026   5.672   0.749   0.492 -0.3832  2.0448 -0.8034
  797TIP3    H224027   5.632   0.687   0.625  0.0053 -0.8771 -1.9679
  798TIP3   OH224028   5.121   3.435   2.082 -0.3864  0.1057  0.0715
  798TIP3    H124029   5.051   3.461   2.022  1.3983  2.1986 -1.3037
  798TIP3    H224030   5.105   3.484   2.162 -0.6682  0.3223 -0.1185
  799TIP3   OH224031   2.813   1.145   5.802 -0.6931  0.4279  0.5589
  799TIP3    H124032   2.828   1.184   5.888  3.0973  2.5288 -0.7906
  799TIP3    H224033   2.822   1.051   5.817  1.0426  0.8014  2.3442
  800TIP3   OH224034   6.598   1.031   1.583  0.5414  0.4090  0.2434
  800TIP3    H124035   6.527   0.969   1.571  2.2595 -1.6893  0.4022
  800TIP3    H224036   6.678   0.980   1.570  2.0670  2.3835  1.2449
  801TIP3   OH224037   5.054   1.475   8.503  0.1897 -0.7419 -0.2098
  801TIP3    H124038   5.139   1.510   8.531 -0.8560  2.6358 -0.8171
  801TIP3    H224039   5.009   1.454   8.585  1.0193 -1.0462  0.1839
  802TIP3   OH224040   4.277   2.175   7.215 -0.1263  0.0890 -0.2608
  802TIP3    H124041   4.352   2.143   7.266 -0.1035 -0.1723 -0.4560
  802TIP3    H224042   4.306   2.168   7.124  0.5132  2.2234 -0.2767
  803TIP3   OH224043   4.690   1.769   1.332 -0.1573  0.4906 -0.8809
  803TIP3    H124044   4.729   1.682   1.322  1.6572  1.2432 -0.6987
  803TIP3    H224045   4.618   1.769   1.269  0.0244 -1.0169 -1.1459
  804TIP3   OH224046   3.148   1.829   2.315  0.2625  0.4268  0.9969
  804TIP3    H124047   3.112   1.793   2.396 -0.4596  0.6378  0.7787
  804TIP3    H224048   3.232   1.868   2.341 -0.0626  0.6839  1.6837
  805TIP3   OH224049   6.361   6.760   0.923  0.3594 -0.8646  0.0625
  805TIP3    H124050   6.397   6.678   0.957  1.3178 -0.3348  0.3832
  805TIP3    H224051   6.353   6.816   1.000  0.5708 -0.3564 -0.2759
  806TIP3   OH224052   6.683   4.136   1.646 -0.2169  0.5301 -0.2922
  806TIP3    H124053   6.589   4.155   1.635 -0.2726  0.1018 -0.6406
  806TIP3    H224054   6.706   4.090   1.565  0.4229  1.0994 -0.4354
  807TIP3   OH224055   0.110   0.172   7.362  0.4164 -0.0569 -0.0190
  807TIP3    H124056   0.053   0.096   7.375  1.5120 -0.8382  0.4440
  807TIP3    H224057   0.053   0.240   7.328 -0.8071 -0.7734  0.5429
  808TIP3   OH224058   5.040   1.108   1.137  0.1152 -0.4581  0.4532
  808TIP3    H124059   4.975   1.175   1.120  0.4822 -0.3556 -0.5902
  808TIP3    H224060   4.992   1.039   1.183 -0.7301 -0.3725 -0.2842
  809TIP3   OH224061   4.571   6.342   1.687 -0.2380 -0.3408  0.0835
  809TIP3    H124062   4.478   6.330   1.669  0.0444 -2.0146 -0.4064
  809TIP3    H224063   4.593   6.270   1.747  0.8150 -0.1578 -0.0756
  810TIP3   OH224064   4.021   0.165   8.465 -0.5698  0.4877 -0.1830
  810TIP3    H124065   4.009   0.071   8.477 -3.1879  0.9695  2.1891
  810TIP3    H224066   4.106   0.173   8.423  0.2192 -2.8821  0.4516
  811TIP3   OH224067   5.306   2.004   0.503 -0.1600  0.1139  0.1017
  811TIP3    H124068   5.289   1.915   0.471  1.9830 -0.0476 -0.7443
  811TIP3    H224069   5.256   2.061   0.445 -2.9771 -0.5298  1.7071
  812TIP3   OH224070   4.212   4.371   0.449  0.0739  0.9140  0.0701
  812TIP3    H124071   4.174   4.307   0.388  1.0679  0.6788 -0.3298
  812TIP3    H224072   4.305   4.371   0.428  0.2819  1.5606  0.9418
  813TIP3   OH224073   5.474   0.730   7.436  0.4781  1.0063 -0.3860
  813TIP3    H124074   5.468   0.824   7.417  1.8249  1.5946  1.6910
  813TIP3    H224075   5.510   0.691   7.357 -1.1354  2.0256 -1.6980
  814TIP3   OH224076   0.947   3.944   8.623 -0.3860  0.0133  0.0811
  814TIP3    H124077   0.997   4.010   8.672  1.8842 -2.0173  0.7132
  814TIP3    H224078   1.007   3.914   8.555 -1.3190 -1.4410 -0.1494
  815TIP3   OH224079   0.778   4.000   8.348  0.4171  0.0123  0.0971
  815TIP3    H124080   0.855   4.045   8.313  0.8660  0.7214  1.8770
  815TIP3    H224081   0.705   4.030   8.294  1.1339  0.6836 -0.5186
  816TIP3   OH224082   5.162   6.104   8.666 -0.6478  0.0592  0.1970
  816TIP3    H124083   5.133   6.105   8.575  1.4081 -0.7340 -0.5158
  816TIP3    H224084   5.123   6.183   8.704 -0.2051  1.3350 -1.8307
  817TIP3   OH224085   0.813   3.704   0.825 -0.2480 -0.4649 -0.5164
  817TIP3    H124086   0.886   3.765   0.819  1.1482 -1.9151  0.5873
  817TIP3    H224087   0.844   3.626   0.779 -1.0766 -1.1147  0.0021
  818TIP3   OH224088   4.355   3.405   0.772 -0.1745  0.4588 -0.2607
  818TIP3    H124089   4.261   3.410   0.756 -0.5000  0.3689  1.5184
  818TIP3    H224090   4.380   3.318   0.742 -0.6546  0.4463 -0.6458
  819TIP3   OH224091   6.337   2.502   8.837 -0.3895 -0.0299 -0.1278
  819TIP3    H124092   6.333   2.563   8.763  1.5347  1.1612  0.6904
  819TIP3    H224093   6.298   2.551   8.910 -0.0799 -0.2961  0.2181
  820TIP3   OH224094   3.380   0.298   6.883 -1.0425  0.5725  0.6302
  820TIP3    H124095   3.461   0.317   6.835 -0.5911 -0.3122  1.0187
  820TIP3    H224096   3.406   0.297   6.975 -1.6473  1.0121  0.8056
  821TIP3   OH224097   1.890   1.232   6.863 -0.1811 -0.1711  0.1759
  821TIP3    H124098   1.964   1.203   6.916 -1.0047  0.5423  1.7887
  821TIP3    H224099   1.918   1.218   6.773  1.6170 -0.6110  0.7618
  822TIP3   OH224100   0.255   5.425   7.897  0.0613  0.2009 -0.4340
  822TIP3    H124101   0.309   5.352   7.928 -0.1735  0.6733  1.2106
  822TIP3    H224102   0.172   5.384   7.872  0.5093 -0.2930 -1.1249
  823TIP3   OH224103   3.799   1.952   7.746 -0.5409  0.2643 -0.1972
  823TIP3    H124104   3.826   1.971   7.656  0.6845  2.6464  0.5722
  823TIP3    H224105   3.872   1.900   7.782 -1.0956 -0.8091 -0.5842
  824TIP3   OH224106   2.211   2.922   0.913 -1.1618 -0.6946 -0.0486
  824TIP3    H124107   2.280   2.856   0.923 -0.5645 -0.2129 -0.8947
  824TIP3    H224108   2.257   3.001   0.883 -2.0547 -0.3024 -0.4144
  825TIP3   OH224109   6.267   1.719   7.498  0.1443  0.0421  0.2297
  825TIP3    H124110   6.316   1.707   7.417  0.4668  0.7141  0.3221
  825TIP3    H224111   6.210   1.642   7.503 -0.3029  0.2734 -0.9237
  826TIP3   OH224112   4.494   4.333   8.777  0.4482  0.2823  0.7379
  826TIP3    H124113   4.574   4.385   8.783  1.0457 -0.6593  1.1133
  826TIP3    H224114   4.489   4.308   8.685  0.1596  0.9717  0.5552
  827TIP3   OH224115   5.555   0.699   8.375 -0.2415  0.1545  0.1725
  827TIP3    H124116   5.551   0.738   8.462 -0.7603  1.6303 -0.4683
  827TIP3    H224117   5.508   0.616   8.382  1.3247 -0.6480  1.7139
  828TIP3   OH224118   3.425   5.703   1.332  0.6226 -0.3947 -0.0138
  828TIP3    H124119   3.520   5.698   1.344  0.9964  0.5957 -2.1278
  828TIP3    H224120   3.413   5.762   1.257 -1.6930 -0.0826  0.5240
  829TIP3   OH224121   5.550   5.078   7.766  0.0757  0.2744  0.2473
  829TIP3    H124122   5.509   5.038   7.843  0.3776  0.1688  0.3554
  829TIP3    H224123   5.525   5.021   7.693  2.0966 -1.2813  0.6637
  830TIP3   OH224124   0.614   5.436   8.457  0.6237  0.3015  0.1406
  830TIP3    H124125   0.535   5.440   8.402 -0.1150  0.2483  1.1641
  830TIP3    H224126   0.587   5.387   8.534  1.2877  1.3813  1.0965
  831TIP3   OH224127   6.657   1.119   6.555 -0.2425 -0.6726  0.7169
  831TIP3    H124128   6.677   1.178   6.628  0.3807 -0.2081  0.1893
  831TIP3    H224129   6.741   1.106   6.511 -0.9055  0.6126 -1.0579
  832TIP3   OH224130   5.242   4.389   0.800 -0.4294  0.1192  0.2457
  832TIP3    H124131   5.332   4.369   0.773 -1.4477 -0.4013 -3.3800
  832TIP3    H224132   5.233   4.483   0.786 -0.5725  0.0802  0.0638
  833TIP3   OH224133   5.224   4.319   0.278 -0.2398  0.2947  0.1169
  833TIP3    H124134   5.268   4.260   0.217 -0.0527  0.3338  0.2133
  833TIP3    H224135   5.158   4.264   0.321  0.3743 -0.0188  0.6812
  834TIP3   OH224136   2.867   5.744   6.952 -0.0166 -0.3244 -0.5178
  834TIP3    H124137   2.952   5.755   6.910  0.1140  0.1271 -0.1471
  834TIP3    H224138   2.814   5.695   6.889  0.5507 -0.6975 -0.7075
  835TIP3   OH224139   0.278   0.454   0.576  0.1534  0.0072  0.0302
  835TIP3    H124140   0.308   0.472   0.666  2.0540  1.0534 -0.7509
  835TIP3    H224141   0.207   0.516   0.562 -0.7514 -0.7508  1.0822
  836TIP3   OH224142   0.477   3.677   7.105  0.1052  0.5622 -0.5982
  836TIP3    H124143   0.449   3.753   7.053  1.0543  1.2201 -0.1737
  836TIP3    H224144   0.473   3.604   7.043  0.5378  1.2004 -1.4117
  837TIP3   OH224145   3.280   1.692   0.640  0.3455 -0.1371 -0.4473
  837TIP3    H124146   3.215   1.626   0.616  0.9774 -1.7141  1.8261
  837TIP3    H224147   3.235   1.749   0.702  1.2835 -1.8924  2.0122
  838TIP3   OH224148   1.833   3.381   1.245  0.1178  0.0243 -0.0622
  838TIP3    H124149   1.822   3.294   1.206  1.8293 -0.7141  0.9719
  838TIP3    H224150   1.925   3.401   1.233  0.3614  0.4802  2.0664
  839TIP3   OH224151   3.559   0.399   0.248  0.5235 -0.3062  0.7350
  839TIP3    H124152   3.525   0.413   0.160 -1.7036 -0.6035  1.4702
  839TIP3    H224153   3.577   0.305   0.252  2.2528 -0.0335  0.1105
  840TIP3   OH224154   5.249   3.330   1.550  0.2138 -0.1928  0.0760
  840TIP3    H124155   5.320   3.315   1.611 -0.0436  1.6594  0.9125
  840TIP3    H224156   5.190   3.256   1.562 -0.2415  0.5070  2.7317
  841TIP3   OH224157   0.868   3.362   7.372  0.1953  0.0534 -0.3119
  841TIP3    H124158   0.847   3.454   7.389  2.8810  0.6036  0.5790
  841TIP3    H224159   0.825   3.314   7.442 -1.1224  0.6175 -0.7080
  842TIP3   OH224160   3.647   6.705   1.937  0.5606 -0.1086 -0.0191
  842TIP3    H124161   3.741   6.704   1.954  0.2412  1.0223  2.2493
  842TIP3    H224162   3.622   6.612   1.941  1.3161 -0.2859  1.2612
  843TIP3   OH224163   3.123   6.776   8.731 -0.0219  0.0591 -0.2845
  843TIP3    H124164   3.106   6.806   8.641  0.9633 -1.4652 -1.0364
  843TIP3    H224165   3.218   6.779   8.739 -0.0064 -1.0715  0.2186
  844TIP3   OH224166   6.155   2.499   0.652 -0.6409  0.8366  0.4023
  844TIP3    H124167   6.205   2.428   0.612 -0.8822  1.6385 -1.4329
  844TIP3    H224168   6.079   2.511   0.594 -1.3018  1.7116  1.4055
  845TIP3   OH224169   1.624   2.767   7.417 -0.2361  0.5256 -0.7835
  845TIP3    H124170   1.641   2.751   7.324 -0.3799 -0.8984 -0.5794
  845TIP3    H224171   1.554   2.833   7.418 -0.3213  0.4553 -1.6828
  846TIP3   OH224172   6.183   1.518   1.045  0.1064 -0.0938 -1.0058
  846TIP3    H124173   6.235   1.531   1.124  0.8523 -2.4782 -1.0277
  846TIP3    H224174   6.115   1.585   1.050 -0.3572 -0.6522  2.0882
  847TIP3   OH224175   6.810   0.853   1.575  0.0523  0.3803 -0.2694
  847TIP3    H124176   6.858   0.824   1.653 -2.5471  1.6963  2.0084
  847TIP3    H224177   6.869   0.834   1.502  2.6984 -0.8378  1.9882
  848TIP3   OH224178   0.221   1.488   2.576  0.7512 -0.4599 -0.0198
  848TIP3    H124179   0.195   1.408   2.530  2.0765 -1.0717  0.2549
  848TIP3    H224180   0.290   1.526   2.521  0.9725 -0.1451  0.4747
  849TIP3   OH224181   5.482   6.811   6.844  0.3313 -0.8150 -0.4086
  849TIP3    H124182   5.508   6.740   6.903 -1.1825  0.9975  2.6693
  849TIP3    H224183   5.542   6.882   6.864 -1.9896  0.8093  1.1982
  850TIP3   OH224184   2.413   4.009   7.576  0.0184  0.3190 -0.7546
  850TIP3    H124185   2.325   4.014   7.539  0.0758 -0.6127 -1.0590
  850TIP3    H224186   2.458   4.086   7.543 -0.8198  1.0530 -0.2195
  851TIP3   OH224187   1.192   5.279   1.172  0.0542 -0.0743  0.0497
  851TIP3    H124188   1.147   5.205   1.130  0.9097 -0.7181  0.2220
  851TIP3    H224189   1.180   5.264   1.266 -0.7626  0.6631  0.0786
  852TIP3   OH224190   3.503   6.595   0.494 -0.1570  0.0885  0.6232
  852TIP3    H124191   3.541   6.636   0.572  0.3864  0.2718  0.2688
  852TIP3    H224192   3.414   6.571   0.521  1.0600 -2.9414  2.3817
  853TIP3   OH224193   1.837   4.651   0.916  0.0901 -0.1044 -0.0400
  853TIP3    H124194   1.843   4.664   0.822  0.3762  0.4326  0.0471
  853TIP3    H224195   1.764   4.591   0.928 -3.6446  3.8542 -0.3181
  854TIP3   OH224196   4.500   5.244   8.470 -0.2715 -0.1846  0.4177
  854TIP3    H124197   4.411   5.245   8.506 -0.7429 -1.6463 -0.6316
  854TIP3    H224198   4.507   5.327   8.422 -0.6828  0.4113  1.3499
  855TIP3   OH224199   6.145   4.431   1.721 -0.1420 -0.0423 -0.1031
  855TIP3    H124200   6.240   4.431   1.719 -0.1400 -0.7909 -0.6334
  855TIP3    H224201   6.119   4.436   1.629 -0.6530  1.8527  0.0888
  856TIP3   OH224202   3.197   1.119   7.263 -0.4086  0.4065  0.2123
  856TIP3    H124203   3.201   1.179   7.188 -1.4387 -0.0894 -0.2633
  856TIP3    H224204   3.106   1.089   7.264 -0.6922  1.1778  2.2845
  857TIP3   OH224205   1.617   4.451   0.930  0.0883  0.6918  0.1964
  857TIP3    H124206   1.592   4.403   1.009 -2.5072  1.1114 -0.2693
  857TIP3    H224207   1.602   4.389   0.859  1.0044  0.7821 -0.0821
  858TIP3   OH224208   4.814   3.812   0.755 -0.9656 -0.1858  0.6929
  858TIP3    H124209   4.855   3.732   0.790  1.7108  0.1800 -1.3060
  858TIP3    H224210   4.862   3.883   0.797  0.6666  0.2596 -1.7696
  859TIP3   OH224211   5.366   0.135   7.274  0.2290  0.8222 -0.2095
  859TIP3    H124212   5.415   0.192   7.214 -0.1807  1.6961  0.2600
  859TIP3    H224213   5.274   0.159   7.259  0.0395  0.1695 -0.1070
  860TIP3   OH224214   5.269   5.258   7.315 -0.2896 -0.3530  0.1473
  860TIP3    H124215   5.221   5.330   7.355  0.0505 -0.5090  0.8590
  860TIP3    H224216   5.342   5.243   7.374 -1.3840 -2.5297  1.0449
  861TIP3   OH224217   1.528   2.018   0.603  0.2149 -0.3085  0.5498
  861TIP3    H124218   1.532   1.944   0.664  1.6374 -2.1543 -1.6727
  861TIP3    H224219   1.441   2.011   0.563  0.7049 -1.4426 -0.3743
  862TIP3   OH224220   2.716   5.906   1.905 -0.4741  0.4457 -0.3738
  862TIP3    H124221   2.797   5.903   1.956 -1.5299 -0.1776  1.3845
  862TIP3    H224222   2.676   5.990   1.928 -1.9951 -0.7417  1.6454
  863TIP3   OH224223   2.838   3.106   6.544 -0.0841  0.8053  0.3245
  863TIP3    H124224   2.744   3.112   6.563 -0.2608 -2.4426  0.9820
  863TIP3    H224225   2.849   3.021   6.502  2.6498  0.9026  0.6489
  864TIP3   OH224226   4.272   5.957   8.064 -0.6241 -0.3201  0.2490
  864TIP3    H124227   4.353   5.917   8.096 -0.4391  0.3079  0.5990
  864TIP3    H224228   4.205   5.890   8.074 -0.1352 -0.8622 -0.0925
  865TIP3   OH224229   3.449   6.306   1.546  0.4776  0.0314  0.6156
  865TIP3    H124230   3.502   6.378   1.511  1.8092 -0.8690  0.7267
  865TIP3    H224231   3.362   6.320   1.508  0.5136  2.0897  1.1997
  866TIP3   OH224232   5.614   2.889   8.341  0.2383  0.3579 -0.3765
  866TIP3    H124233   5.669   2.959   8.306 -0.3582  1.4118  0.7254
  866TIP3    H224234   5.641   2.811   8.293  1.6319  1.1435 -0.9173
  867TIP3   OH224235   5.346   2.270   7.590 -1.1148  0.5343  0.2803
  867TIP3    H124236   5.332   2.231   7.504  0.8636  0.1020  0.1055
  867TIP3    H224237   5.321   2.361   7.580 -4.1545 -0.1951  0.2157
  868TIP3   OH224238   6.661   0.252   8.110 -0.4214  0.1130 -0.1156
  868TIP3    H124239   6.695   0.295   8.189  3.2705 -0.0022 -1.4792
  868TIP3    H224240   6.696   0.164   8.113 -0.0541  0.1603 -1.9633
  869TIP3   OH224241   2.042   2.930   7.462 -0.3610 -0.0752  0.3620
  869TIP3    H124242   2.061   3.006   7.518  1.0379  1.0479 -1.5246
  869TIP3    H224243   2.014   2.968   7.379 -1.5936 -1.6892 -0.0161
  870TIP3   OH224244   5.826   2.262   6.405  0.4677 -0.0958  0.2792
  870TIP3    H124245   5.850   2.174   6.375  0.8673 -0.1653  0.7884
  870TIP3    H224246   5.780   2.247   6.488 -1.0695  0.0584 -0.5056
  871TIP3   OH224247   0.850   1.203   0.066  0.2357  0.0175  0.0447
  871TIP3    H124248   0.847   1.260   0.142  1.3340 -1.1905  1.0476
  871TIP3    H224249   0.881   1.119   0.100  2.1826 -0.1655 -1.9336
  872TIP3   OH224250   6.538   0.995   7.897 -0.9610  0.4785  0.2786
  872TIP3    H124251   6.523   0.903   7.917 -1.1353 -0.2547 -2.7955
  872TIP3    H224252   6.630   0.999   7.871 -1.0833  1.0527 -0.0789
  873TIP3   OH224253   5.834   5.975   1.616 -0.2416  0.6461 -0.4589
  873TIP3    H124254   5.896   5.940   1.680  0.9385  1.0337 -1.3411
  873TIP3    H224255   5.753   5.987   1.664  0.5925  0.8774  0.9387
  874TIP3   OH224256   5.393   4.899   8.184 -0.4610  0.4872  0.2591
  874TIP3    H124257   5.399   4.883   8.090  1.9659  3.8571 -0.3775
  874TIP3    H224258   5.448   4.832   8.224 -1.2001 -0.7452 -0.7335
  875TIP3   OH224259   4.565   6.430   1.304 -0.2639 -0.4260  0.3708
  875TIP3    H124260   4.490   6.398   1.254  0.6058  0.9183 -1.9860
  875TIP3    H224261   4.599   6.353   1.350 -1.1268 -1.7906 -1.1701
  876TIP3   OH224262   1.072   3.093   0.358  0.1449  0.0865 -0.2837
  876TIP3    H124263   1.118   3.160   0.307  0.3672  1.3489  1.4800
  876TIP3    H224264   1.129   3.017   0.354 -0.6653 -0.4995 -3.3222
  877TIP3   OH224265   5.001   2.023   0.775 -0.2789 -0.0917  0.5767
  877TIP3    H124266   5.075   2.081   0.756 -0.9932  0.6630  0.0059
  877TIP3    H224267   5.022   1.941   0.730  0.0190  0.2572  0.0766
  878TIP3   OH224268   3.086   6.761   7.911 -0.3518 -0.1589  0.1337
  878TIP3    H124269   3.076   6.682   7.964 -1.6667 -0.4857 -0.5527
  878TIP3    H224270   3.176   6.758   7.880 -0.6201 -1.8967 -0.6116
  879TIP3   OH224271   3.501   5.978   0.398  0.1375  0.4506  0.2772
  879TIP3    H124272   3.535   6.006   0.483  0.9690 -0.5117  0.2793
  879TIP3    H224273   3.442   5.905   0.418  0.9592 -0.3173 -0.0128
  880TIP3   OH224274   5.374   2.724   7.082  0.4701  0.2624  0.2646
  880TIP3    H124275   5.375   2.649   7.022  0.9028 -0.0856  0.6942
  880TIP3    H224276   5.281   2.749   7.088  0.3995  0.1529 -0.3620
  881TIP3   OH224277   6.751   3.079   1.032  0.0574  0.1197 -0.6379
  881TIP3    H124278   6.821   3.114   1.088 -0.6417  0.6724 -0.1049
  881TIP3    H224279   6.774   3.110   0.944  0.5390  0.2060 -0.4887
  882TIP3   OH224280   0.574   2.323   1.425 -0.6282 -0.8011 -0.1439
  882TIP3    H124281   0.619   2.354   1.503 -0.4110 -1.3216 -0.0579
  882TIP3    H224282   0.489   2.291   1.457 -0.9187 -0.1480 -0.2554
  883TIP3   OH224283   4.730   1.196   7.427  0.7489  0.3056 -0.1860
  883TIP3    H124284   4.735   1.218   7.334  1.7334 -0.2344 -0.2678
  883TIP3    H224285   4.662   1.128   7.432 -1.4930  2.4097 -0.0778
  884TIP3   OH224286   2.248   2.933   1.798 -0.1881  0.0681 -0.0104
  884TIP3    H124287   2.312   2.923   1.728 -0.5038 -1.7790 -0.0760
  884TIP3    H224288   2.222   2.844   1.821  0.8956  0.4843  3.3850
  885TIP3   OH224289   0.765   3.037   1.620  0.1184  0.1315 -0.1145
  885TIP3    H124290   0.671   3.054   1.616 -0.3648 -2.1057  0.4717
  885TIP3    H224291   0.798   3.065   1.535 -0.8416  2.0453  0.0899
  886TIP3   OH224292   5.894   1.035   8.604  0.0818  0.8482  0.0151
  886TIP3    H124293   5.887   1.130   8.599  0.1120  0.8247 -0.4776
  886TIP3    H224294   5.919   1.018   8.695 -0.5548  1.2707  0.2826
  887TIP3   OH224295   5.858   2.954   1.796  0.5354  0.2491  0.7446
  887TIP3    H124296   5.807   2.996   1.866 -1.2937 -1.0035  0.2309
  887TIP3    H224297   5.864   2.862   1.822  0.7470 -0.0260 -0.2414
  888TIP3   OH224298   1.835   6.464   1.466  0.6395  0.1211 -0.2412
  888TIP3    H124299   1.915   6.446   1.418  1.5512  0.8401  0.9470
  888TIP3    H224300   1.833   6.397   1.535  0.4461  0.3549 -0.0160
  889TIP3   OH224301   3.247   1.010   0.227 -0.3149 -0.4701 -0.4670
  889TIP3    H124302   3.249   1.038   0.318 -1.6549 -3.3450  0.5526
  889TIP3    H224303   3.198   1.078   0.181  2.8628  2.5670  0.2316
  890TIP3   OH224304   2.463   1.720   6.767  0.4055  0.7184 -0.2750
  890TIP3    H124305   2.542   1.769   6.786 -0.1600  0.7551  2.3954
  890TIP3    H224306   2.396   1.758   6.824 -0.1730 -2.7464  1.7001
  891TIP3   OH224307   0.557   1.537   8.274  0.3744  0.1796 -0.1229
  891TIP3    H124308   0.470   1.527   8.237  1.1190 -0.5074 -1.7979
  891TIP3    H224309   0.552   1.495   8.360 -1.1503  0.9293  0.1790
  892TIP3   OH224310   6.328   0.091   0.634 -0.8056  0.3500 -0.0215
  892TIP3    H124311   6.279   0.012   0.656  0.4397 -0.5138 -0.2356
  892TIP3    H224312   6.317   0.149   0.710 -0.2138 -0.7847  0.9627
  893TIP3   OH224313   5.898   0.999   8.887  0.3055  0.1325  0.6691
  893TIP3    H124314   5.828   0.937   8.908 -0.1712  0.1059 -0.8495
  893TIP3    H224315   5.853   1.083   8.878  1.0114  0.8707  3.1913
  894TIP3   OH224316   4.233   2.074   1.485 -0.5826  0.4584 -0.9069
  894TIP3    H124317   4.154   2.129   1.483 -1.4711 -0.6873  0.2850
  894TIP3    H224318   4.200   1.985   1.469  0.7478  0.1784 -2.3229
  895TIP3   OH224319   2.511   4.184   7.794  0.1034 -0.5574 -0.0244
  895TIP3    H124320   2.549   4.125   7.859  0.6732  0.8594  0.9863
  895TIP3    H224321   2.574   4.184   7.722  0.7528 -0.2413  0.5203
  896TIP3   OH224322   0.206   2.719   0.437 -0.1110 -0.6587  0.0869
  896TIP3    H124323   0.158   2.708   0.519  1.7076  1.6328  1.5729
  896TIP3    H224324   0.233   2.631   0.413 -3.3301 -1.8002  0.1713
  897TIP3   OH224325   4.649   2.939   7.983  0.1442 -0.1247  0.9011
  897TIP3    H124326   4.681   2.861   7.938  0.6065 -0.9711  2.5844
  897TIP3    H224327   4.595   2.985   7.918 -2.3538 -3.2093  0.5755
  898TIP3   OH224328   5.798   4.164   0.024 -0.4176  0.0818  0.0403
  898TIP3    H124329   5.857   4.229   0.063 -1.7582  0.8477  0.8552
  898TIP3    H224330   5.855   4.111  -0.032  0.6758  2.1659 -0.9319
  899TIP3   OH224331   4.617   5.857   7.090 -0.0417 -0.5070 -0.4357
  899TIP3    H124332   4.535   5.821   7.123  0.1871 -1.2174 -0.6119
  899TIP3    H224333   4.685   5.809   7.138  0.3589 -2.7149 -2.9490
  900TIP3   OH224334   2.439   5.925   8.212 -0.3837 -0.1640 -0.3221
  900TIP3    H124335   2.414   6.009   8.251 -0.6139  0.1814 -1.1966
  900TIP3    H224336   2.490   5.881   8.281 -1.5306  0.0493  0.6979
  901TIP3   OH224337   0.660   0.297   0.617 -0.2649 -0.3290 -0.0986
  901TIP3    H124338   0.580   0.320   0.570 -0.9372 -0.5097  0.9273
  901TIP3    H224339   0.693   0.380   0.650 -1.7696 -0.5598  2.1572
  902TIP3   OH224340   1.942   1.467   7.117 -0.0132  0.5341  0.2077
  902TIP3    H124341   1.931   1.398   7.182 -0.0475  0.0545 -0.2955
  902TIP3    H224342   1.856   1.473   7.074 -0.2154  1.3724  0.7109
  903TIP3   OH224343   4.664   1.881   1.602 -0.0826  0.2361  0.0275
  903TIP3    H124344   4.698   1.840   1.523 -1.5888 -0.1249 -0.4615
  903TIP3    H224345   4.674   1.975   1.586  0.1423  0.1507 -0.3473
  904TIP3   OH224346   0.349   6.578   1.386 -0.0300  0.5803 -0.2094
  904TIP3    H124347   0.397   6.544   1.461 -0.5893  0.5005  0.1230
  904TIP3    H224348   0.314   6.501   1.342 -0.5116  0.6678  0.0080
  905TIP3   OH224349   2.666   0.581   0.444  0.1723  0.3111 -0.0597
  905TIP3    H124350   2.614   0.617   0.516 -0.4558 -1.1287  0.2475
  905TIP3    H224351   2.734   0.529   0.488  0.8776  0.8657 -0.4878
  906TIP3   OH224352   5.138   5.702   8.805  0.1791  0.1430  0.5276
  906TIP3    H124353   5.200   5.767   8.771 -1.1620  0.9188 -0.5438
  906TIP3    H224354   5.188   5.653   8.870  1.7313  1.1303  0.1354
  907TIP3   OH224355   5.756   0.430   6.706 -0.3192 -0.2859  0.0118
  907TIP3    H124356   5.809   0.508   6.691  0.7017 -1.3782 -2.8690
  907TIP3    H224357   5.666   0.458   6.686 -0.5532  0.9246  2.4013
  908TIP3   OH224358   1.700   1.781   1.422 -0.1388 -0.4231  0.0163
  908TIP3    H124359   1.699   1.860   1.368 -1.8620 -1.1555 -1.1233
  908TIP3    H224360   1.734   1.810   1.507  0.3599  1.2752 -0.7222
  909TIP3   OH224361   1.661   4.367   1.188  0.2968  0.2126 -0.6984
  909TIP3    H124362   1.751   4.390   1.165  0.5190  0.0108 -0.0632
  909TIP3    H224363   1.661   4.271   1.192 -0.4891  0.0668 -2.8127
  910TIP3   OH224364   6.321   2.423   1.783  0.0652 -0.2699 -0.4501
  910TIP3    H124365   6.291   2.374   1.705  1.2116 -2.2597  0.2838
  910TIP3    H224366   6.396   2.473   1.752  0.4619 -0.9817 -0.6538
  911TIP3   OH224367   2.277   2.711   2.460  0.0187 -0.3678 -0.1354
  911TIP3    H124368   2.199   2.764   2.472  0.8044  0.6898  0.4517
  911TIP3    H224369   2.250   2.643   2.398 -1.3119  0.0645 -0.0669
  912TIP3   OH224370   4.220   1.559   1.645  0.2106 -0.2933  0.0375
  912TIP3    H124371   4.155   1.518   1.588  0.6728  1.3868 -1.7861
  912TIP3    H224372   4.198   1.527   1.732 -2.5201 -0.4824 -0.6179
  913TIP3   OH224373   4.861   5.936   1.810 -0.0644  0.0088 -0.4477
  913TIP3    H124374   4.898   6.010   1.857 -1.1105  0.3987 -0.2177
  913TIP3    H224375   4.859   5.865   1.874  0.9398 -0.2385 -0.6694
  914TIP3   OH224376   5.606   0.404   7.369 -0.1792 -0.3332 -0.6770
  914TIP3    H124377   5.657   0.323   7.366  0.7451  0.2323 -0.8247
  914TIP3    H224378   5.552   0.396   7.447  0.1640 -0.9414 -0.4986
  915TIP3   OH224379   5.391   2.741   7.968  0.1921 -0.2789  0.3107
  915TIP3    H124380   5.366   2.669   7.910 -0.7089  0.3742 -0.1421
  915TIP3    H224381   5.317   2.750   8.027  0.3086  0.2623  0.3748
  916TIP3   OH224382   5.316   2.961   0.381 -0.5906  0.1055  0.5261
  916TIP3    H124383   5.335   2.922   0.295 -0.7005  0.5318  0.3041
  916TIP3    H224384   5.254   3.031   0.362  1.1304  1.7332  0.6389
  917TIP3   OH224385   0.100   3.844   0.847 -0.3254  0.3418 -0.5600
  917TIP3    H124386   0.019   3.810   0.809  0.2853 -0.7569 -0.9023
  917TIP3    H224387   0.071   3.901   0.918 -1.4440  1.0515 -1.5439
  918TIP3   OH224388   1.448   5.554   0.296  0.4498 -0.9929 -0.4634
  918TIP3    H124389   1.423   5.558   0.388  0.3940  0.1742 -0.5140
  918TIP3    H224390   1.498   5.635   0.281 -0.5576 -0.5762 -1.7295
  919TIP3   OH224391   1.212   2.304   1.264  0.0022 -0.4244 -0.0333
  919TIP3    H124392   1.162   2.228   1.292  0.9300  0.2187  4.1107
  919TIP3    H224393   1.157   2.379   1.286  0.0130  0.2081 -1.9880
  920TIP3   OH224394   4.701   4.701   0.990 -0.3739 -1.1855  0.5154
  920TIP3    H124395   4.773   4.639   0.978  1.5415  0.9744  0.2292
  920TIP3    H224396   4.744   4.784   1.012 -2.5496  0.8874 -2.2865
  921TIP3   OH224397   3.565   6.262   8.145 -0.3027  0.4018 -0.6422
  921TIP3    H124398   3.612   6.190   8.186  0.5388  1.3178  0.0584
  921TIP3    H224399   3.477   6.258   8.183 -0.4841 -0.6817 -1.1604
  922TIP3   OH224400   4.798   1.246   1.136 -0.1282  0.6111  0.2567
  922TIP3    H124401   4.789   1.290   1.220  0.9342  0.6670  0.3612
  922TIP3    H224402   4.733   1.287   1.079  0.0733  1.5236  0.6749
  923TIP3   OH224403   2.067   4.295   7.524 -0.2383  0.1693  0.1074
  923TIP3    H124404   2.013   4.357   7.475  0.9601  1.2829  0.1333
  923TIP3    H224405   2.058   4.322   7.616 -0.7721 -0.5531  0.2743
  924TIP3   OH224406   6.497   0.764   2.165 -0.3132 -0.8694 -0.1994
  924TIP3    H124407   6.585   0.797   2.183 -0.5064 -1.2355  1.6761
  924TIP3    H224408   6.482   0.783   2.073  1.0849  0.7114 -0.1417
  925TIP3   OH224409   0.105   5.571   0.156 -0.0133 -0.1429 -0.4635
  925TIP3    H124410   0.010   5.571   0.144 -0.0633 -1.5604 -0.2507
  925TIP3    H224411   0.122   5.495   0.211  0.8239  2.5501  3.3884
  926TIP3   OH224412   1.621   4.716   7.047 -0.2222 -0.9165  0.5548
  926TIP3    H124413   1.549   4.774   7.071 -0.3602 -0.7777 -0.1642
  926TIP3    H224414   1.594   4.678   6.963  0.4808 -0.9637  0.3433
  927TIP3   OH224415   6.439   4.452   8.035 -0.3291 -0.4350 -0.2504
  927TIP3    H124416   6.437   4.524   7.973  1.5371 -0.9774 -1.0243
  927TIP3    H224417   6.532   4.429   8.042 -0.7506 -2.0174  0.8312
  928TIP3   OH224418   3.441   6.498   7.989  0.0410 -0.4408 -0.2973
  928TIP3    H124419   3.371   6.528   8.047  1.2063 -0.6099  1.2500
  928TIP3    H224420   3.424   6.543   7.906 -0.8280  0.9639  0.6022
  929TIP3   OH224421   2.507   4.055   2.503 -0.9149 -0.2575  0.0855
  929TIP3    H124422   2.578   4.119   2.500 -1.3528  0.2062 -0.8855
  929TIP3    H224423   2.428   4.106   2.483 -1.0353 -1.3756 -2.9050
  930TIP3   OH224424   1.410   2.604   7.242  0.3818  0.3503 -0.2573
  930TIP3    H124425   1.448   2.567   7.322 -0.9063  0.9930  0.7156
  930TIP3    H224426   1.482   2.649   7.199  0.7899  1.4572  1.4648
  931TIP3   OH224427   4.867   4.163   6.856  0.1365  0.7648 -0.6526
  931TIP3    H124428   4.829   4.130   6.775  1.5670 -3.0270  0.0521
  931TIP3    H224429   4.821   4.116   6.925  1.4415  1.1812  0.5529
  932TIP3   OH224430   6.449   6.212   1.580  0.3144  0.6234  0.3591
  932TIP3    H124431   6.434   6.153   1.654  1.1146  0.0833  0.1030
  932TIP3    H224432   6.511   6.165   1.525  0.0715  1.2200 -0.4306
  933TIP3   OH224433   3.786   4.615   6.853  0.3441  0.4723 -0.2446
  933TIP3    H124434   3.877   4.587   6.838  0.6601  0.8121  0.9740
  933TIP3    H224435   3.786   4.708   6.831  0.3417  0.5245 -0.0205
  934TIP3   OH224436   5.742   0.817   0.296  0.3537 -0.3489 -0.7176
  934TIP3    H124437   5.700   0.822   0.210 -2.2053 -1.4133  0.3559
  934TIP3    H224438   5.773   0.727   0.303 -0.9889 -0.7776  0.0797
  935TIP3   OH224439   2.780   0.815   1.544  0.5090  0.2895  0.8759
  935TIP3    H124440   2.870   0.810   1.512  1.2627 -0.3104  2.9343
  935TIP3    H224441   2.769   0.907   1.569  1.2446 -0.0223  2.4256
  936TIP3   OH224442   5.467   5.899   8.509 -0.4331 -0.0094  0.3488
  936TIP3    H124443   5.387   5.893   8.457 -0.0937  3.1742 -0.7768
  936TIP3    H224444   5.437   5.898   8.600 -1.3941 -1.9157  0.0586
  937TIP3   OH224445   5.616   0.268   0.102 -0.1391 -0.0660 -0.0075
  937TIP3    H124446   5.622   0.359   0.131 -1.3390 -0.4481  1.5246
  937TIP3    H224447   5.531   0.261   0.060  0.1738 -0.3679 -0.6096
  938TIP3   OH224448   1.889   5.952   0.588 -0.1365 -0.0399 -0.0447
  938TIP3    H124449   1.879   6.036   0.542 -0.1988  0.3738  0.7188
  938TIP3    H224450   1.984   5.942   0.599 -0.1771  0.5797  1.0253
  939TIP3   OH224451   1.296   2.153   8.701 -0.7556  0.0648 -0.0222
  939TIP3    H124452   1.345   2.184   8.778  1.9524  0.0094 -1.5903
  939TIP3    H224453   1.289   2.230   8.645 -0.2257 -0.5129 -0.9041
  940TIP3   OH224454   4.165   3.029   8.491 -0.4729 -0.4256  0.0840
  940TIP3    H124455   4.215   3.014   8.571 -0.0536 -2.1031 -0.4439
  940TIP3    H224456   4.207   3.103   8.449 -0.1669 -0.0758  0.9902
  941TIP3   OH224457   3.589   5.903   6.937 -0.0957 -0.3556  0.0322
  941TIP3    H124458   3.630   5.865   6.859 -0.9358  0.2960 -0.7509
  941TIP3    H224459   3.495   5.890   6.923 -0.4384  2.1397 -0.3707
  942TIP3   OH224460   6.484   3.118   0.728  0.0492 -0.1871  0.2048
  942TIP3    H124461   6.523   3.205   0.722  1.2712 -0.7259  0.1230
  942TIP3    H224462   6.437   3.108   0.645  2.5225 -0.8137 -1.2035
  943TIP3   OH224463   0.597   6.079   1.601 -0.0150 -0.3472  0.0587
  943TIP3    H124464   0.565   6.146   1.540 -2.7092  0.3799  2.0983
  943TIP3    H224465   0.576   5.996   1.557 -0.9692  0.1495 -0.4740
  944TIP3   OH224466   5.668   6.387   7.897 -0.8681 -0.7556 -0.6097
  944TIP3    H124467   5.707   6.455   7.842 -0.5712 -1.2476 -1.0255
  944TIP3    H224468   5.598   6.431   7.945  0.0053  0.0661 -0.0851
  945TIP3   OH224469   2.874   5.912   2.143 -0.6348  0.7113  0.2435
  945TIP3    H124470   2.845   5.911   2.234  2.3967  1.6464  1.3373
  945TIP3    H224471   2.912   5.999   2.131  2.1310 -0.5145 -0.7925
  946TIP3   OH224472   6.342   1.869   6.538  0.4981 -0.1642  0.2969
  946TIP3    H124473   6.377   1.781   6.520 -0.0382 -0.2903 -0.1500
  946TIP3    H224474   6.267   1.877   6.480  0.0706  0.2933  0.9086
  947TIP3   OH224475   2.865   4.301   7.543 -0.6054  0.3718 -0.3912
  947TIP3    H124476   2.843   4.391   7.518 -1.4960  0.4642  0.6423
  947TIP3    H224477   2.958   4.293   7.523 -1.0319  0.7008 -2.7910
  948TIP3   OH224478   6.746   1.363   7.752 -0.1910 -0.1322 -0.2878
  948TIP3    H124479   6.772   1.442   7.704  0.2235 -0.1853 -0.1535
  948TIP3    H224480   6.702   1.396   7.830  0.3316 -0.0235 -0.0333
  949TIP3   OH224481   5.424   6.570   1.603  0.1090 -0.2766 -0.0356
  949TIP3    H124482   5.505   6.575   1.552 -0.0592 -0.8487 -0.3585
  949TIP3    H224483   5.454   6.559   1.694  0.4035  0.5313 -0.0235
  950TIP3   OH224484   3.860   4.051   1.706 -0.3462  0.5209  0.2456
  950TIP3    H124485   3.843   4.013   1.792  0.9387 -0.6985 -0.0060
  950TIP3    H224486   3.916   3.987   1.662 -1.8613  0.5582 -1.9203
  951TIP3   OH224487   5.224   2.608   2.762  0.0675 -0.0341  0.3538
  951TIP3    H124488   5.195   2.527   2.719 -0.5251 -0.9620  2.3919
  951TIP3    H224489   5.143   2.647   2.795 -0.1272  3.0996 -3.1401
  952TIP3   OH224490   5.441   3.389   0.067  0.2753  0.0799 -0.1334
  952TIP3    H124491   5.436   3.485   0.064  2.0477  0.2585  1.2090
  952TIP3    H224492   5.428   3.367   0.159  0.9636 -0.8903 -0.2571
  953TIP3   OH224493   2.621   1.900   7.435  0.0786 -0.4093  0.1262
  953TIP3    H124494   2.617   1.898   7.531  1.4599  1.3168  0.2726
  953TIP3    H224495   2.690   1.838   7.413  0.2705 -0.2657  0.3135
  954TIP3   OH224496   0.365   0.822   7.499 -0.3170 -0.0102  0.0456
  954TIP3    H124497   0.415   0.891   7.455  1.2371 -0.0388  1.6554
  954TIP3    H224498   0.426   0.784   7.562 -0.7065 -3.6965 -1.5294
  955TIP3   OH224499   2.649   4.181   7.262  0.1859  0.1125 -0.0820
  955TIP3    H124500   2.554   4.173   7.256  0.2511 -1.0095  0.0492
  955TIP3    H224501   2.665   4.273   7.280 -0.9954 -0.0118  1.8999
  956TIP3   OH224502   3.563   3.476   0.837 -0.0069 -0.3253  0.0509
  956TIP3    H124503   3.588   3.399   0.786 -0.9025  0.2752 -1.3466
  956TIP3    H224504   3.644   3.504   0.880  0.3251 -2.0397  0.6073
  957TIP3   OH224505   0.852   1.548   0.023 -0.1748  0.0263  0.3285
  957TIP3    H124506   0.861   1.631  -0.024  0.4442  0.0257  0.4438
  957TIP3    H224507   0.758   1.529   0.018 -0.2499  0.4697 -0.1430
  958TIP3   OH224508   4.721   6.098   0.939 -0.0705  0.9353  0.4288
  958TIP3    H124509   4.629   6.086   0.961 -0.0178 -2.0866 -0.4972
  958TIP3    H224510   4.769   6.052   1.008  0.6368  0.8437 -0.1089
  959TIP3   OH224511   1.304   6.559   0.681  0.1755  0.1976 -0.4456
  959TIP3    H124512   1.384   6.608   0.702 -0.1287  0.6588 -0.3766
  959TIP3    H224513   1.243   6.580   0.751 -0.2769  0.4442 -0.9092
  960TIP3   OH224514   0.877   5.415   1.408  0.4554  0.0030 -0.7360
  960TIP3    H124515   0.927   5.460   1.339  1.7124  0.0984  0.2150
  960TIP3    H224516   0.918   5.444   1.490 -0.5806 -0.6427  0.0272
  961TIP3   OH224517   4.501   0.413   2.434 -0.0012 -0.7583  0.5280
  961TIP3    H124518   4.517   0.358   2.510  0.5450 -0.6277  0.5124
  961TIP3    H224519   4.587   0.449   2.412 -0.1356 -0.8470 -0.1881
  962TIP3   OH224520   5.786   4.657   1.022 -0.5157  0.0424  0.0671
  962TIP3    H124521   5.816   4.627   1.108 -1.6825  0.3591  0.5964
  962TIP3    H224522   5.863   4.701   0.985 -0.7829  2.5141  2.1856
  963TIP3   OH224523   0.338   6.284   0.503 -0.1018 -0.6003 -0.3707
  963TIP3    H124524   0.246   6.312   0.509 -0.4304 -1.2979 -1.7339
  963TIP3    H224525   0.378   6.346   0.443  0.1439 -0.7227 -0.3350
  964TIP3   OH224526   3.920   2.417   2.342  0.4054 -0.0279  0.1036
  964TIP3    H124527   3.842   2.458   2.379 -0.2690  1.3537 -2.5916
  964TIP3    H224528   3.986   2.487   2.343  1.1584 -0.7256  0.9239
  965TIP3   OH224529   4.076   1.594   8.640 -0.3835 -0.0069 -0.9047
  965TIP3    H124530   4.038   1.626   8.722  2.1811  0.4347  0.1872
  965TIP3    H224531   4.055   1.662   8.576  1.0913  1.7008  0.3567
  966TIP3   OH224532   2.250   3.719   1.530 -0.2433  0.3978 -0.1831
  966TIP3    H124533   2.161   3.711   1.567  0.1975 -0.4064  0.7598
  966TIP3    H224534   2.238   3.767   1.449 -1.6543 -0.3208 -0.4394
  967TIP3   OH224535   5.847   0.766   8.026 -0.3132  0.4696  0.1415
  967TIP3    H124536   5.881   0.798   7.943  0.8724 -1.2036 -0.0688
  967TIP3    H224537   5.785   0.833   8.054 -0.7706  1.0714 -2.0942
  968TIP3   OH224538   3.235   1.410   7.400 -0.0618 -0.4413 -0.1801
  968TIP3    H124539   3.263   1.441   7.486  0.7937  0.8727 -0.9008
  968TIP3    H224540   3.197   1.324   7.417  1.4392 -0.8708  1.3123
  969TIP3   OH224541   2.540   3.372   0.182 -0.4930 -0.2264  0.3320
  969TIP3    H124542   2.615   3.412   0.137 -1.3529  0.0072 -0.9561
  969TIP3    H224543   2.504   3.443   0.235 -0.7821  0.1413 -0.3429
  970TIP3   OH224544   4.088   5.170   7.016 -0.1116 -0.0878  0.1936
  970TIP3    H124545   4.116   5.235   6.951 -2.6004 -0.3420 -1.2426
  970TIP3    H224546   4.042   5.221   7.083 -0.7881 -0.2263 -0.1697
  971TIP3   OH224547   4.873   0.415   0.358  0.3286  0.6895 -0.0761
  971TIP3    H124548   4.919   0.335   0.380  1.0263  0.8218 -1.0017
  971TIP3    H224549   4.781   0.397   0.379  0.6523  0.0845  0.8641
  972TIP3   OH224550   6.387   5.199   8.856  0.4214  0.2048 -0.1982
  972TIP3    H124551   6.456   5.139   8.827 -0.4615 -1.8416  1.7148
  972TIP3    H224552   6.403   5.210   8.950 -0.7185  1.2808 -0.1079
  973TIP3   OH224553   3.046   2.471   7.364 -0.1072 -0.0160  0.3308
  973TIP3    H124554   2.997   2.537   7.316 -0.9850 -0.6890  0.2745
  973TIP3    H224555   3.112   2.439   7.301  0.9899  1.4719  0.6679
  974TIP3   OH224556   4.776   3.781   1.163 -0.3964  0.4833  0.4483
  974TIP3    H124557   4.856   3.799   1.212 -0.2923  1.4268 -0.0442
  974TIP3    H224558   4.785   3.690   1.135 -0.7118 -0.2751  2.6203
  975TIP3   OH224559   1.530   5.194   8.415  0.4399  0.1478  0.3778
  975TIP3    H124560   1.591   5.202   8.489  0.7510 -1.5209  0.3225
  975TIP3    H224561   1.586   5.204   8.338  0.1695  1.5264  0.3335
  976TIP3   OH224562   1.938   2.532   1.778  0.0397  0.1075 -0.3564
  976TIP3    H124563   1.869   2.471   1.754 -0.4529  0.4379  0.1841
  976TIP3    H224564   2.002   2.525   1.708 -0.3598 -0.4865 -0.6712
  977TIP3   OH224565   2.643   6.202   0.796 -0.4673  0.1909  0.0823
  977TIP3    H124566   2.569   6.197   0.856 -0.6444  0.9533 -0.0610
  977TIP3    H224567   2.660   6.296   0.786  2.6071  0.0683  2.6361
  978TIP3   OH224568   2.870   3.795   2.196 -0.5134 -0.0879  0.4578
  978TIP3    H124569   2.910   3.859   2.254  0.2767 -0.2055  0.0637
  978TIP3    H224570   2.790   3.768   2.241 -1.5995  2.1531  0.0137
  979TIP3   OH224571   6.248   2.664   6.514  0.2019  0.0725  0.0427
  979TIP3    H124572   6.331   2.673   6.560  0.6992  0.9683 -0.9652
  979TIP3    H224573   6.204   2.748   6.527 -0.1822 -0.1022 -0.1059
  980TIP3   OH224574   3.952   4.756   1.530 -0.0493  0.4598 -0.2320
  980TIP3    H124575   3.986   4.816   1.597  0.4848  0.2935 -0.3475
  980TIP3    H224576   3.957   4.670   1.571  1.3580  0.2140 -0.8864
  981TIP3   OH224577   5.283   0.214   1.552 -0.6368 -0.3453 -0.1657
  981TIP3    H124578   5.318   0.190   1.638  1.1086  0.9503 -0.4469
  981TIP3    H224579   5.292   0.309   1.548 -0.5642 -0.3913 -1.8210
  982TIP3   OH224580   3.470   4.653   6.661 -0.6035 -0.6822  0.4771
  982TIP3    H124581   3.503   4.665   6.750 -1.4596  0.4988  0.6589
  982TIP3    H224582   3.443   4.561   6.657 -0.3236 -0.8065  1.3424
  983TIP3   OH224583   0.156   4.935   1.404 -0.0437 -0.0044  0.0271
  983TIP3    H124584   0.134   4.863   1.464  0.1489 -0.2703 -0.2169
  983TIP3    H224585   0.237   4.972   1.440  0.2791 -0.4047 -0.2716
  984TIP3   OH224586   1.579   3.393   8.209 -0.0204  0.0507  0.0549
  984TIP3    H124587   1.665   3.385   8.250 -0.0261  1.6131  0.4065
  984TIP3    H224588   1.588   3.347   8.125  0.9546 -0.3587  0.3731
  985TIP3   OH224589   1.170   0.037   7.618 -0.8406  0.1035  0.0338
  985TIP3    H124590   1.258   0.056   7.585 -0.4008  1.2302  1.7301
  985TIP3    H224591   1.183   0.013   7.709 -2.2550 -0.2587  0.1579
  986TIP3   OH224592   0.845   0.880   7.054 -0.6781 -0.2406 -0.0683
  986TIP3    H124593   0.779   0.942   7.086  0.6351  1.2655 -0.1528
  986TIP3    H224594   0.869   0.913   6.968  1.3538  0.2355  0.6276
  987TIP3   OH224595   5.928   2.074   0.532 -0.5517  0.2542 -0.3753
  987TIP3    H124596   5.922   1.986   0.497  1.8643  0.4535 -1.5251
  987TIP3    H224597   5.859   2.123   0.488 -1.2024 -0.8135 -0.5508
  988TIP3   OH224598   3.790   1.093   0.123 -0.4056 -0.1573 -0.1223
  988TIP3    H124599   3.725   1.133   0.066  0.7492 -0.2084 -1.5273
  988TIP3    H224600   3.823   1.019   0.073  0.3787 -0.4329  0.7775
  989TIP3   OH224601   1.229   5.102   0.316 -0.4049  0.0996 -0.3264
  989TIP3    H124602   1.203   5.134   0.230  0.1000 -0.5320 -0.7191
  989TIP3    H224603   1.166   5.142   0.376 -0.2892  1.1761 -0.8893
  990TIP3   OH224604   3.326   2.422   1.433  0.2994  0.2778  0.4779
  990TIP3    H124605   3.249   2.384   1.392  0.0046  2.0686 -0.7364
  990TIP3    H224606   3.399   2.367   1.405 -0.2810 -0.2037 -0.0939
  991TIP3   OH224607   5.538   5.358   1.344 -0.7094 -0.3534  0.2495
  991TIP3    H124608   5.496   5.438   1.375 -0.2623 -0.7640  1.9989
  991TIP3    H224609   5.547   5.303   1.422  0.7348 -1.3151 -0.5419
  992TIP3   OH224610   6.271   0.128   8.387  0.1736  0.0625  0.2229
  992TIP3    H124611   6.221   0.109   8.466  1.5149  1.8452  1.6008
  992TIP3    H224612   6.210   0.174   8.330  0.0314  1.8946  1.7302
  993TIP3   OH224613   1.776   1.028   7.857 -0.2416  0.1501 -0.1847
  993TIP3    H124614   1.842   0.959   7.864  0.3227  0.5035 -1.5555
  993TIP3    H224615   1.705   0.988   7.808  1.0349  1.0878 -3.0425
  994TIP3   OH224616   5.534   0.995   8.547  0.0788 -0.7444 -0.0210
  994TIP3    H124617   5.470   0.941   8.593  0.7131 -3.4643 -2.0724
  994TIP3    H224618   5.614   0.943   8.547  1.0461  0.6735 -1.1719
  995TIP3   OH224619   1.122   1.128   0.648  1.2002  0.2740 -0.3188
  995TIP3    H124620   1.029   1.109   0.659  1.4799 -0.7290  0.5254
  995TIP3    H224621   1.125   1.207   0.594 -0.1526  0.9564  0.5739
  996TIP3   OH224622   2.395   2.328   6.492  0.6653  0.2750  0.2664
  996TIP3    H124623   2.415   2.419   6.512  0.3086  1.1701 -2.9103
  996TIP3    H224624   2.313   2.332   6.442  0.3729 -1.8546  0.4808
  997TIP3   OH224625   6.782   2.295   2.491 -0.1638  0.2496 -0.0605
  997TIP3    H124626   6.699   2.273   2.448  0.0671 -0.4209 -0.1744
  997TIP3    H224627   6.792   2.228   2.558  0.1670  0.4802  0.1221
  998TIP3   OH224628   2.454   3.311   8.089 -0.5062 -0.1442 -0.7076
  998TIP3    H124629   2.404   3.355   8.158  0.0804  0.1834 -0.4914
  998TIP3    H224630   2.433   3.218   8.100  1.2357 -0.3672  1.3111
  999TIP3   OH224631   2.525   3.702   1.840 -0.4290  0.3719 -0.7410
  999TIP3    H124632   2.525   3.652   1.758  0.7273  0.3277 -0.7313
  999TIP3    H224633   2.434   3.698   1.870 -0.4201 -1.5814 -0.8199
 1000TIP3   OH224634   4.905   5.433   7.743 -0.3281 -0.5590  0.0139
 1000TIP3    H124635   4.942   5.477   7.820  1.1875  0.2311 -1.0895
 1000TIP3    H224636   4.980   5.386   7.705 -1.0652 -0.9988 -0.9209
 1001TIP3   OH224637   5.660   0.733   2.610 -1.0672  0.2145 -0.5506
 1001TIP3    H124638   5.612   0.816   2.607  0.6976  1.2791 -0.9705
 1001TIP3    H224639   5.622   0.686   2.684 -2.3467  1.2570 -0.5160
 1002TIP3   OH224640   4.262   4.182   1.500  0.0251 -0.5676  0.0843
 1002TIP3    H124641   4.281   4.167   1.408  2.6652  0.3901  0.3793
 1002TIP3    H224642   4.303   4.108   1.545 -0.9428 -0.8473  0.5127
 1003TIP3   OH224643   0.209   3.411   8.009 -0.0786 -0.2989  0.5023
 1003TIP3    H124644   0.129   3.426   7.958  1.2991  0.1961 -1.6407
 1003TIP3    H224645   0.222   3.316   8.006  1.0298 -0.1416 -1.8943
 1004TIP3   OH224646   0.530   5.108   8.214 -0.0003 -0.2058 -0.6934
 1004TIP3    H124647   0.489   5.192   8.193 -0.2604 -0.4796 -1.3018
 1004TIP3    H224648   0.614   5.131   8.253 -1.3406  0.4378  2.1220
 1005TIP3   OH224649   4.178   6.175   0.868  0.7785  0.0434  0.2178
 1005TIP3    H124650   4.242   6.109   0.841  0.4706 -0.0908 -0.1937
 1005TIP3    H224651   4.182   6.174   0.964 -0.0765 -1.4379  0.2681
 1006TIP3   OH224652   0.356   3.970   7.660 -0.5314 -0.3061 -0.3560
 1006TIP3    H124653   0.401   4.051   7.685 -0.2839 -0.4382 -0.3663
 1006TIP3    H224654   0.300   3.950   7.735 -0.1875 -0.4157 -0.1271
 1007TIP3   OH224655   3.220   5.579   8.664  0.2135  0.1078 -0.5437
 1007TIP3    H124656   3.261   5.493   8.665 -1.3800 -0.6898 -0.0318
 1007TIP3    H224657   3.252   5.620   8.583  0.0748 -1.4399 -1.4296
 1008TIP3   OH224658   2.452   0.997   7.748 -0.1379  0.0959 -0.0083
 1008TIP3    H124659   2.359   0.999   7.725 -0.0128  1.9965 -0.4522
 1008TIP3    H224660   2.455   1.032   7.837  0.3221  1.8774 -0.7039
 1009TIP3   OH224661   4.255   3.988   8.318 -0.3736 -0.0561  0.3159
 1009TIP3    H124662   4.279   3.900   8.345  1.0599 -0.1687 -1.1838
 1009TIP3    H224663   4.239   3.981   8.224 -0.3209  1.2642  0.1887
 1010TIP3   OH224664   4.772   4.279   8.403  0.9814  0.2048 -0.5852
 1010TIP3    H124665   4.730   4.215   8.460 -0.0213  1.2533 -0.0785
 1010TIP3    H224666   4.792   4.353   8.461  2.7827  0.0767 -1.0063
 1011TIP3   OH224667   1.564   5.803   1.226 -0.1780  0.6728 -0.4144
 1011TIP3    H124668   1.513   5.865   1.279 -0.0082  0.4074  0.0679
 1011TIP3    H224669   1.654   5.831   1.236 -0.1913  0.8953 -0.9369
 1012TIP3   OH224670   1.997   0.401   7.335  0.1555  0.4860  0.1298
 1012TIP3    H124671   1.917   0.412   7.386  0.6951 -1.7370  1.5998
 1012TIP3    H224672   2.054   0.472   7.363 -0.5581  0.9036  0.5575
 1013TIP3   OH224673   5.859   1.610   7.675 -0.6559 -0.1266  0.4839
 1013TIP3    H124674   5.948   1.590   7.646  0.0069  2.2720  0.6520
 1013TIP3    H224675   5.809   1.621   7.594  0.1835  2.3082  0.1949
 1014TIP3   OH224676   5.060   0.829   8.846  0.3212 -0.1855 -0.2619
 1014TIP3    H124677   5.081   0.876   8.927  0.4957 -0.2463 -0.2714
 1014TIP3    H224678   5.094   0.885   8.776 -2.5688  1.4717 -0.5284
 1015TIP3   OH224679   3.385   6.630   7.752  0.0888  0.0211  0.4535
 1015TIP3    H124680   3.333   6.581   7.688 -0.6737  1.0623  0.2618
 1015TIP3    H224681   3.405   6.713   7.709  2.0032 -0.3674  0.4984
 1016TIP3   OH224682   2.022   2.114   0.510 -0.6867  0.3180 -0.2926
 1016TIP3    H124683   2.047   2.206   0.515  1.6321 -0.2782  0.1221
 1016TIP3    H224684   1.926   2.115   0.512 -0.7144  2.6218  1.4874
 1017TIP3   OH224685   5.394   4.397   8.743  0.3559 -0.3770  0.0622
 1017TIP3    H124686   5.477   4.360   8.713  1.5673  2.2216 -0.0127
 1017TIP3    H224687   5.389   4.370   8.835 -0.1597 -2.8796 -0.6295
 1018TIP3   OH224688   2.565   6.787   0.684 -0.2477  0.1724  0.2212
 1018TIP3    H124689   2.542   6.776   0.776 -1.7464 -0.8105 -0.2246
 1018TIP3    H224690   2.643   6.733   0.672 -0.1856  0.1165  0.8810
 1019TIP3   OH224691   3.810   0.210   8.630 -0.2456 -0.1440  1.2137
 1019TIP3    H124692   3.793   0.120   8.659  0.2605 -0.3203  0.9782
 1019TIP3    H224693   3.891   0.204   8.580  0.0285  0.5239  1.5682
 1020TIP3   OH224694   6.251   0.700   0.448  0.0937 -0.1188  0.2505
 1020TIP3    H124695   6.231   0.793   0.440 -1.8400 -0.4896  0.3015
 1020TIP3    H224696   6.336   0.689   0.405  0.6826  1.7652  0.8500
 1021TIP3   OH224697   0.879   1.537   7.468  0.2264  0.1773 -0.2462
 1021TIP3    H124698   0.888   1.543   7.373  2.2320  1.2876 -0.0277
 1021TIP3    H224699   0.802   1.591   7.489 -0.4509 -0.3777 -1.2408
 1022TIP3   OH224700   5.412   1.360   6.319  0.1413  0.3793 -0.1978
 1022TIP3    H124701   5.411   1.270   6.352  1.9310 -0.2169 -1.6260
 1022TIP3    H224702   5.503   1.376   6.297 -0.6011  1.4997 -2.7661
 1023TIP3   OH224703   6.542   2.140   7.930 -0.4771  0.3021 -0.4041
 1023TIP3    H124704   6.578   2.118   8.016 -2.6588 -1.5079  0.1512
 1023TIP3    H224705   6.507   2.228   7.940 -0.4743  0.2063  0.4916
 1024TIP3   OH224706   0.708   1.311   0.985 -0.1989 -0.0672 -0.2779
 1024TIP3    H124707   0.761   1.391   0.987 -2.4068  1.6925 -3.0679
 1024TIP3    H224708   0.622   1.339   1.016 -1.3417 -1.0046 -2.3888
 1025TIP3   OH224709   6.452   5.200   2.271  0.3571  0.0503 -0.0979
 1025TIP3    H124710   6.501   5.272   2.232  2.4313 -0.0062  2.1287
 1025TIP3    H224711   6.409   5.239   2.347 -0.8238 -0.5110 -0.4505
 1026TIP3   OH224712   0.328   1.770   0.575 -0.1583 -0.1779  0.5531
 1026TIP3    H124713   0.413   1.812   0.561  0.5097 -1.2422  1.3059
 1026TIP3    H224714   0.280   1.831   0.631  0.3081  0.1844  0.5631
 1027TIP3   OH224715   2.206   1.070   5.953  0.5295 -0.3864 -0.2632
 1027TIP3    H124716   2.269   1.137   5.978  0.8790 -0.8293  0.0545
 1027TIP3    H224717   2.136   1.118   5.908  0.2275  0.3383  0.9346
 1028TIP3   OH224718   5.188   3.470   7.187  0.3642  0.5824  0.5435
 1028TIP3    H124719   5.269   3.514   7.163 -0.2273  1.5417  0.2759
 1028TIP3    H224720   5.162   3.423   7.108 -1.1926  3.1492 -0.5860
 1029TIP3   OH224721   5.995   0.509   0.305 -0.4056  0.4435 -0.2899
 1029TIP3    H124722   5.909   0.473   0.328  0.5465 -1.8647 -0.1020
 1029TIP3    H224723   6.015   0.569   0.377 -0.1614 -2.0405  1.8541
 1030TIP3   OH224724   3.025   3.401   1.914 -0.5368 -0.2914  0.2200
 1030TIP3    H124725   3.000   3.326   1.968 -1.1118  0.3278  0.8314
 1030TIP3    H224726   3.000   3.377   1.825 -1.7794 -0.3714  0.5787
 1031TIP3   OH224727   2.082   3.337   7.408 -0.3954 -0.1141  0.9060
 1031TIP3    H124728   2.069   3.405   7.474  0.5110  1.7390 -0.7412
 1031TIP3    H224729   2.127   3.381   7.336 -0.8149 -2.1922 -0.7289
 1032TIP3   OH224730   1.790   6.001   0.201 -0.3560 -0.0220  0.5365
 1032TIP3    H124731   1.745   6.079   0.232  1.3562  0.5701  1.6786
 1032TIP3    H224732   1.802   6.016   0.107  1.2294  1.8363  0.9588
 1033TIP3   OH224733   0.549   5.373   6.584  0.0290  0.0137 -0.5509
 1033TIP3    H124734   0.571   5.286   6.616 -1.0412  0.5710  1.9260
 1033TIP3    H224735   0.632   5.421   6.587  0.2609 -0.4099 -0.0913
 1034TIP3   OH224736   1.577   1.511   7.334 -0.2814  0.0766 -0.2360
 1034TIP3    H124737   1.603   1.575   7.268 -1.0094 -0.4911 -1.0971
 1034TIP3    H224738   1.502   1.467   7.296 -1.5919  0.6507  1.5310
 1035TIP3   OH224739   6.743   3.300   7.920  0.7533 -0.3884  0.2852
 1035TIP3    H124740   6.734   3.383   7.875  2.1880  0.6992  1.8980
 1035TIP3    H224741   6.764   3.237   7.851  0.2106  0.6727 -0.8758
 1036TIP3   OH224742   4.443   5.178   6.919 -0.1626  0.2508 -0.8907
 1036TIP3    H124743   4.461   5.222   7.002  0.1360  2.5136 -2.0669
 1036TIP3    H224744   4.527   5.138   6.895 -0.6592 -1.8260  0.6122
 1037TIP3   OH224745   4.326   2.073   1.965  0.1595 -0.2595  0.3548
 1037TIP3    H124746   4.352   2.034   1.881 -1.4894  0.9256 -0.7735
 1037TIP3    H224747   4.278   2.003   2.010 -0.1925 -0.4778 -0.3367
 1038TIP3   OH224748   3.034   0.769   1.497 -0.1154 -0.3852 -0.7637
 1038TIP3    H124749   3.033   0.729   1.583 -0.8706 -1.0587 -1.0823
 1038TIP3    H224750   3.126   0.792   1.482  0.1376 -0.9559 -0.1006
 1039TIP3   OH224751   1.283   5.865   0.185  0.1935  0.6975  0.3711
 1039TIP3    H124752   1.206   5.887   0.239  0.0795 -0.2935  0.6498
 1039TIP3    H224753   1.259   5.782   0.143  1.7635 -0.6078  1.8671
 1040TIP3   OH224754   6.180   4.118   6.615 -0.3010 -0.9637 -0.0692
 1040TIP3    H124755   6.250   4.067   6.572 -0.6813 -0.3143 -1.5380
 1040TIP3    H224756   6.179   4.086   6.705  0.2727 -2.7016 -0.6323
 1041TIP3   OH224757   5.491   4.867   7.590 -0.5754 -0.1264 -0.8798
 1041TIP3    H124758   5.457   4.821   7.667 -0.3253  0.6947 -0.2646
 1041TIP3    H224759   5.586   4.861   7.599 -0.4902 -2.3100 -2.5319
 1042TIP3   OH224760   0.342   4.021   0.113  0.0782  0.2628  0.3775
 1042TIP3    H124761   0.390   4.079   0.054 -0.7209  1.0484  0.4769
 1042TIP3    H224762   0.410   3.972   0.159  0.8190  1.8465  1.0263
 1043TIP3   OH224763   5.526   1.489   1.191  0.2887  0.3512  0.2391
 1043TIP3    H124764   5.568   1.403   1.183 -1.3412 -0.3380 -1.8696
 1043TIP3    H224765   5.565   1.541   1.121  0.5990  1.0642  0.9272
 1044TIP3   OH224766   2.354   4.281   2.404 -0.3065 -0.0583 -0.2119
 1044TIP3    H124767   2.286   4.263   2.468 -0.3109  0.3794 -0.0842
 1044TIP3    H224768   2.419   4.334   2.451 -0.7079  0.9742 -0.7677
 1045TIP3   OH224769   5.736   0.456   7.097  0.6504 -0.6384 -0.2014
 1045TIP3    H124770   5.731   0.481   7.189  0.2242 -1.8871  0.1374
 1045TIP3    H224771   5.816   0.497   7.065  0.0100  1.1002  0.2971
 1046TIP3   OH224772   3.216   2.588   6.921  0.1598 -0.2147 -0.4103
 1046TIP3    H124773   3.278   2.525   6.886 -1.2745 -1.3254 -1.0362
 1046TIP3    H224774   3.140   2.581   6.865 -1.0192  0.2015  1.0695
 1047TIP3   OH224775   0.183   3.528   1.814  0.3299  0.2812  0.0419
 1047TIP3    H124776   0.133   3.566   1.741  0.9468 -0.7675 -0.9730
 1047TIP3    H224777   0.118   3.486   1.869 -0.0669  0.3938 -0.3365
 1048TIP3   OH224778   5.228   0.976   8.666  0.1154 -0.0772  0.0494
 1048TIP3    H124779   5.271   0.903   8.623 -0.2050 -0.6452  0.6874
 1048TIP3    H224780   5.159   1.003   8.605 -0.3381 -0.8808  0.1962
 1049TIP3   OH224781   0.790   5.559   0.465 -0.0168  0.2095  0.4331
 1049TIP3    H124782   0.756   5.647   0.478  1.2667  0.3942  3.4388
 1049TIP3    H224783   0.780   5.517   0.551 -1.3716 -2.9185 -1.1131
 1050TIP3   OH224784   3.823   4.270   8.402  0.2895  0.0900  0.2523
 1050TIP3    H124785   3.890   4.294   8.466  0.6917  0.0048 -0.1287
 1050TIP3    H224786   3.740   4.289   8.445  0.5736  1.1414  0.3597
 1051TIP3   OH224787   3.329   4.032   8.553  0.2495  0.9084  0.0587
 1051TIP3    H124788   3.323   3.937   8.541  0.5422  1.0379 -1.2747
 1051TIP3    H224789   3.249   4.066   8.513 -1.1002  1.1065  2.6814
 1052TIP3   OH224790   2.992   6.374   1.617 -0.2060  0.4964 -0.1049
 1052TIP3    H124791   2.901   6.375   1.585  0.0775 -0.0017 -0.9446
 1052TIP3    H224792   2.984   6.342   1.707 -0.5591 -3.2867 -1.3168
 1053TIP3   OH224793   1.182   6.311   6.746 -0.3661  0.1002  0.2291
 1053TIP3    H124794   1.186   6.406   6.757 -1.7543  0.0807  1.1082
 1053TIP3    H224795   1.115   6.282   6.808 -1.8075 -1.1732 -1.7995
 1054TIP3   OH224796   0.249   2.598   8.889  0.0626  0.4386  0.0868
 1054TIP3    H124797   0.214   2.622   8.803 -1.1545  0.6362  0.6120
 1054TIP3    H224798   0.230   2.674   8.944  1.7527  0.7348  0.3060
 1055TIP3   OH224799   5.646   5.403   7.090 -0.2913  0.1520  0.0874
 1055TIP3    H124800   5.590   5.328   7.071  0.2160 -0.0768 -0.4968
 1055TIP3    H224801   5.732   5.365   7.110 -0.1113  0.5581  0.0946
 1056TIP3   OH224802   6.380   2.015   0.642  0.0883  0.3396 -0.3760
 1056TIP3    H124803   6.406   2.103   0.670 -2.9914  1.8905 -1.9206
 1056TIP3    H224804   6.400   1.959   0.717  0.9321  2.5609  1.1603
 1057TIP3   OH224805   2.409   3.134   0.983 -0.4863 -0.7444  0.8877
 1057TIP3    H124806   2.435   3.206   0.925 -2.5845 -0.1576  0.5897
 1057TIP3    H224807   2.442   3.158   1.069  2.0416 -1.2672  0.1433
 1058TIP3   OH224808   2.113   1.865   0.630 -0.4360 -0.2358  0.0336
 1058TIP3    H124809   2.157   1.906   0.704 -3.5709  1.9405  0.8716
 1058TIP3    H224810   2.096   1.936   0.569 -0.0309 -1.5756 -1.7097
 1059TIP3   OH224811   6.661   1.946   0.887  0.0836  0.6800 -0.8681
 1059TIP3    H124812   6.622   1.869   0.845 -2.8961  1.2395  0.6071
 1059TIP3    H224813   6.656   2.015   0.821  2.1500 -0.1380 -1.9631
 1060TIP3   OH224814   0.560   3.324   2.547  0.3741 -0.2974  0.0619
 1060TIP3    H124815   0.608   3.344   2.466 -0.0461  0.2046 -0.0679
 1060TIP3    H224816   0.472   3.301   2.517 -0.3051  1.6027  0.4686
 1061TIP3   OH224817   4.066   1.030   7.883 -0.0575 -0.2144  0.4358
 1061TIP3    H124818   4.117   1.105   7.914 -2.1380  0.8721  1.4385
 1061TIP3    H224819   4.096   1.017   7.793 -0.3980  2.6357 -0.2009
 1062TIP3   OH224820   3.855   0.255   7.462  0.2585 -0.2127 -0.3783
 1062TIP3    H124821   3.908   0.293   7.532 -1.4971 -1.6970  1.8995
 1062TIP3    H224822   3.807   0.183   7.504 -2.3550  0.0342 -2.6461
 1063TIP3   OH224823   4.745   0.532   8.055 -0.2485  0.8607  0.5341
 1063TIP3    H124824   4.839   0.546   8.043 -0.1554  1.0519  1.4563
 1063TIP3    H224825   4.728   0.554   8.147 -1.0539  0.0825  0.5920
 1064TIP3   OH224826   0.856   3.838   2.029  0.3068 -0.0703  0.4656
 1064TIP3    H124827   0.889   3.924   2.054  1.7423 -0.5738  0.4013
 1064TIP3    H224828   0.799   3.812   2.101 -0.3646  1.0317  0.3586
 1065TIP3   OH224829   3.566   3.209   1.225  0.1685  0.2775  0.0480
 1065TIP3    H124830   3.561   3.296   1.187 -0.5834  0.4218  0.4533
 1065TIP3    H224831   3.564   3.223   1.319 -0.3447 -0.1931  0.1148
 1066TIP3   OH224832   6.358   0.366   7.967 -0.4737  0.1450  0.3744
 1066TIP3    H124833   6.313   0.316   8.035 -0.6297  0.2479  0.3464
 1066TIP3    H224834   6.399   0.439   8.014  1.5083 -1.1468  0.7456
 1067TIP3   OH224835   6.298   4.531   0.268 -0.4279 -0.3501 -0.2783
 1067TIP3    H124836   6.337   4.446   0.287  1.2342  0.5777  0.6463
 1067TIP3    H224837   6.263   4.561   0.351 -0.0006  0.3564 -0.3439
 1068TIP3   OH224838   3.797   4.413   7.058 -0.9095 -0.4592 -0.7358
 1068TIP3    H124839   3.822   4.328   7.022 -0.0759  0.2888 -1.9792
 1068TIP3    H224840   3.800   4.473   6.984 -1.0257  0.7579  0.2090
 1069TIP3   OH224841   1.658   4.935   1.441  0.1721 -0.5087  0.6813
 1069TIP3    H124842   1.649   5.026   1.413  0.8694 -0.6709 -0.1039
 1069TIP3    H224843   1.702   4.940   1.526  1.3444 -0.1586  0.0704
 1070TIP3   OH224844   2.543   4.964   6.897 -0.2165  0.3431  0.1417
 1070TIP3    H124845   2.597   4.924   6.828 -1.6509 -0.9809 -0.2685
 1070TIP3    H224846   2.475   5.012   6.849 -0.5346  0.3872  0.6338
 1071TIP3   OH224847   3.636   1.632   2.541  0.5076 -0.1552 -0.0128
 1071TIP3    H124848   3.728   1.619   2.518  0.3040 -0.1135 -0.8625
 1071TIP3    H224849   3.589   1.566   2.491 -0.0668  0.7858 -0.7531
 1072TIP3   OH224850   3.088   5.625   1.537 -0.4996 -0.0646 -0.4812
 1072TIP3    H124851   3.090   5.718   1.517 -1.6858  0.0279 -0.2458
 1072TIP3    H224852   3.178   5.604   1.563 -0.3187  1.1052 -0.1135
 1073TIP3   OH224853   5.241   4.437   1.144  0.1138  0.2781 -0.4059
 1073TIP3    H124854   5.305   4.469   1.207  0.3164 -0.6193 -0.1414
 1073TIP3    H224855   5.239   4.503   1.076  1.8928 -0.0446 -0.8083
 1074TIP3   OH224856   5.070   6.165   8.416  0.0577 -0.1868  0.1579
 1074TIP3    H124857   5.099   6.184   8.327  0.6149  0.9694  0.5577
 1074TIP3    H224858   4.979   6.196   8.419  0.6655  1.6835  0.5324
 1075TIP3   OH224859   4.086   1.154   0.637  0.3737 -0.1417 -0.3103
 1075TIP3    H124860   4.031   1.175   0.712  1.7690  3.8507 -0.1521
 1075TIP3    H224861   4.085   1.233   0.584  2.5624 -1.4278 -2.4670
 1076TIP3   OH224862   2.068   3.655   0.606  0.4864 -0.1202  0.2374
 1076TIP3    H124863   2.096   3.564   0.590  0.3238  0.0309 -0.9729
 1076TIP3    H224864   2.148   3.706   0.599  0.5839 -0.1568  0.9552
 1077TIP3   OH224865   5.729   4.814   1.635 -0.0338  0.0255  0.5626
 1077TIP3    H124866   5.751   4.891   1.583 -0.9944 -0.0956 -0.0659
 1077TIP3    H224867   5.810   4.765   1.641  0.4800  0.8660  0.5823
 1078TIP3   OH224868   4.918   0.427   1.278  0.2498 -0.5692 -0.1247
 1078TIP3    H124869   4.892   0.518   1.265  2.2441  0.7439  3.5872
 1078TIP3    H224870   4.840   0.385   1.314  0.3217  0.7440  1.7052
 1079TIP3   OH224871   2.981   5.130   0.909  0.1376 -0.4866  0.3191
 1079TIP3    H124872   2.976   5.225   0.894  1.2913 -0.4515  0.0778
 1079TIP3    H224873   2.962   5.092   0.823  0.5201 -0.4480  0.2157
 1080TIP3   OH224874   2.402   2.043   0.413 -0.0955  0.3974 -0.7780
 1080TIP3    H124875   2.368   2.132   0.404  0.3373  0.4941 -1.5573
 1080TIP3    H224876   2.341   1.989   0.363 -0.9204  0.0915  0.4967
 1081TIP3   OH224877   5.166   3.496   7.446 -0.6468  0.3830 -0.3689
 1081TIP3    H124878   5.147   3.491   7.353  0.2258 -2.6231 -0.5018
 1081TIP3    H224879   5.261   3.504   7.451 -0.5755 -0.6856  0.2288
 1082TIP3   OH224880   1.783   1.677   1.707  1.4664 -0.4084 -0.2770
 1082TIP3    H124881   1.873   1.689   1.678  0.8927  3.7665 -0.9224
 1082TIP3    H224882   1.755   1.764   1.736 -1.8666 -1.8768  1.5067
 1083TIP3   OH224883   3.422   0.585   8.631  0.2172 -0.1432 -0.5299
 1083TIP3    H124884   3.426   0.557   8.540 -0.6303 -2.3282  0.0410
 1083TIP3    H224885   3.502   0.635   8.644  2.1376 -2.7291 -1.5832
 1084TIP3   OH224886   6.315   5.351   8.029  0.2784  0.8058 -0.1030
 1084TIP3    H124887   6.318   5.327   8.122 -2.7333 -1.1708 -0.3908
 1084TIP3    H224888   6.327   5.269   7.982 -1.3810  1.2197 -1.3514
 1085TIP3   OH224889   1.621   4.731   7.811 -0.4505 -0.5102 -0.2699
 1085TIP3    H124890   1.543   4.712   7.863 -0.1408 -2.3560 -0.4337
 1085TIP3    H224891   1.650   4.816   7.843 -1.5275 -0.5873  1.0223
 1086TIP3   OH224892   2.446   5.285   7.499 -0.4526  0.0728 -0.2119
 1086TIP3    H124893   2.381   5.346   7.536 -1.3477 -0.4110 -0.9381
 1086TIP3    H224894   2.427   5.284   7.405 -0.0845 -0.8956 -0.2825
 1087TIP3   OH224895   6.517   2.497   8.232 -0.0497 -0.2089 -0.2079
 1087TIP3    H124896   6.444   2.440   8.206  0.1922 -0.0811 -1.2151
 1087TIP3    H224897   6.584   2.437   8.263 -0.0194 -0.4424 -0.7101
 1088TIP3   OH224898   2.878   5.899   1.044 -0.4043 -0.9199  0.0752
 1088TIP3    H124899   2.831   5.888   0.961 -0.2401 -1.8626  0.0888
 1088TIP3    H224900   2.931   5.819   1.051  0.8151 -0.1107  0.3036
 1089TIP3   OH224901   5.311   6.591   7.015  0.1304 -0.1592 -0.6056
 1089TIP3    H124902   5.395   6.598   6.970  1.3846 -0.4543  1.5523
 1089TIP3    H224903   5.268   6.675   6.998  0.8320 -0.0047 -1.7463
 1090TIP3   OH224904   3.474   1.323   0.993  0.3583 -0.2328  0.1652
 1090TIP3    H124905   3.506   1.398   0.944  1.8349 -2.2065 -2.1149
 1090TIP3    H224906   3.493   1.248   0.937  0.5255 -2.4955  3.0342
 1091TIP3   OH224907   1.066   5.660   0.825  0.1092 -0.1496  0.2214
 1091TIP3    H124908   1.133   5.689   0.886  0.8823 -2.4110  0.5313
 1091TIP3    H224909   0.995   5.628   0.881  0.0878 -0.6405 -0.0829
 1092TIP3   OH224910   0.895   6.434   2.126  0.6253  0.5646 -0.5549
 1092TIP3    H124911   0.886   6.347   2.086  0.3672  0.4111 -0.1730
 1092TIP3    H224912   0.958   6.421   2.197  0.0630  0.5280 -0.0527
 1093TIP3   OH224913   2.402   3.055   8.183  0.6119 -0.1094  0.2294
 1093TIP3    H124914   2.476   2.996   8.169  0.2036 -1.1855  2.2481
 1093TIP3    H224915   2.343   3.007   8.241 -1.3374  1.0084 -0.7109
 1094TIP3   OH224916   5.075   1.493   7.579 -0.0434  0.3441 -0.6688
 1094TIP3    H124917   5.024   1.566   7.614  0.2664 -0.1920  0.9930
 1094TIP3    H224918   5.140   1.475   7.646  0.7450 -0.6092 -1.6466
 1095TIP3   OH224919   4.834   6.147   6.313 -0.0124 -0.4800  0.6376
 1095TIP3    H124920   4.746   6.185   6.310  0.5023  0.7435 -0.1552
 1095TIP3    H224921   4.826   6.064   6.267 -0.7686 -0.4212  0.6497
 1096TIP3   OH224922   3.163   2.845   7.721  0.5712  0.0888 -0.1368
 1096TIP3    H124923   3.175   2.761   7.678  0.5907  0.5940 -1.1289
 1096TIP3    H224924   3.069   2.849   7.741  0.8692 -1.0146  1.7225
 1097TIP3   OH224925   0.892   4.777   2.000 -0.2990 -0.9793  0.7060
 1097TIP3    H124926   0.904   4.792   2.094  1.4442 -2.5859  0.8003
 1097TIP3    H224927   0.925   4.688   1.985 -1.3731 -1.1079 -1.2939
 1098TIP3   OH224928   3.328   5.188   1.975 -0.1848 -0.5510 -0.6708
 1098TIP3    H124929   3.367   5.254   2.032 -2.0003 -0.6063  0.7064
 1098TIP3    H224930   3.352   5.216   1.887  0.8069  0.7883 -0.0147
 1099TIP3   OH224931   5.050   5.759   0.194  0.2116 -0.0603 -0.0067
 1099TIP3    H124932   5.014   5.768   0.282 -2.4241  1.5271 -1.1221
 1099TIP3    H224933   5.145   5.758   0.207 -0.0975 -1.1266  2.9084
 1100TIP3   OH224934   2.897   5.485   8.623  0.0813  0.1695 -0.2077
 1100TIP3    H124935   2.933   5.409   8.577  0.0827 -0.6366  1.0751
 1100TIP3    H224936   2.823   5.450   8.673  1.0987  0.6507  1.7246
 1101TIP3   OH224937   6.244   3.277   1.361  0.3500  0.3890  0.5177
 1101TIP3    H124938   6.279   3.202   1.408 -2.2027 -2.8420 -2.2332
 1101TIP3    H224939   6.164   3.299   1.408  0.3122  0.3861  0.4535
 1102TIP3   OH224940   3.710   3.655   1.034  0.2565 -0.3049  0.6721
 1102TIP3    H124941   3.758   3.704   1.102 -0.3749 -1.5171  2.0562
 1102TIP3    H224942   3.768   3.583   1.011  0.3408 -0.0681  0.1406
 1103TIP3   OH224943   1.638   1.374   2.155  0.3295  0.4304 -0.3026
 1103TIP3    H124944   1.649   1.311   2.084 -0.3413 -1.9594  1.6175
 1103TIP3    H224945   1.548   1.406   2.144 -0.5730 -1.6094  0.6830
 1104TIP3   OH224946   6.511   0.233   7.447 -0.6265  0.2278  0.2687
 1104TIP3    H124947   6.509   0.263   7.537 -0.5368  1.0665  0.0000
 1104TIP3    H224948   6.469   0.147   7.449 -1.3259  0.5737  0.9877
 1105TIP3   OH224949   1.873   2.451   1.345 -0.4532 -0.0945 -0.5531
 1105TIP3    H124950   1.909   2.413   1.426 -2.9199  1.3548  1.3886
 1105TIP3    H224951   1.949   2.489   1.300  0.9769 -0.6618  1.2559
 1106TIP3   OH224952   5.385   5.175   8.022 -0.5981 -0.0621  0.1299
 1106TIP3    H124953   5.409   5.157   8.113  2.2566 -0.3422 -0.5917
 1106TIP3    H224954   5.385   5.089   7.979  0.2290  0.2697 -0.5686
 1107TIP3   OH224955   4.176   2.181   0.937 -0.0444 -0.7859 -0.4635
 1107TIP3    H124956   4.097   2.187   0.883  0.2416  0.9395 -0.7439
 1107TIP3    H224957   4.143   2.191   1.027 -0.2387 -0.9134 -0.5195
 1108TIP3   OH224958   4.478   1.234   8.717 -0.2258 -0.0501  0.4314
 1108TIP3    H124959   4.505   1.319   8.753 -0.9476  0.1913  0.4251
 1108TIP3    H224960   4.477   1.175   8.793  0.3672 -0.0793  0.4191
 1109TIP3   OH224961   4.171   6.451   8.116  0.2835  0.3263 -0.3692
 1109TIP3    H124962   4.113   6.425   8.045  1.0006 -0.4115 -0.7086
 1109TIP3    H224963   4.180   6.373   8.171 -0.0501  0.8078  0.3944
 1110TIP3   OH224964   0.086   5.304   7.189  0.0016  0.6429  0.0843
 1110TIP3    H124965   0.010   5.251   7.162 -0.3352  1.3492 -0.3706
 1110TIP3    H224966   0.161   5.246   7.177 -0.1148  0.8956 -2.3980
 1111TIP3   OH224967   3.403   1.728   6.636 -0.6467 -0.6730  0.1691
 1111TIP3    H124968   3.446   1.672   6.572 -0.7663 -0.4550 -0.1043
 1111TIP3    H224969   3.310   1.725   6.612 -0.3306  2.4450 -2.1173
 1112TIP3   OH224970   1.131   6.558   6.905  0.1072 -0.8163 -0.0992
 1112TIP3    H124971   1.073   6.520   6.972 -1.1902 -0.5661 -1.0252
 1112TIP3    H224972   1.211   6.580   6.951  0.2622 -3.0616  0.8529
 1113TIP3   OH224973   5.047   4.123   7.156 -0.6956 -0.1027  0.3779
 1113TIP3    H124974   5.020   4.141   7.246  0.1831  0.9432  0.4626
 1113TIP3    H224975   5.121   4.183   7.142 -0.0299 -1.1340 -0.6212
 1114TIP3   OH224976   1.427   3.149   0.711  0.3257  0.0369  0.6860
 1114TIP3    H124977   1.427   3.231   0.760  0.2033  0.7798 -0.5133
 1114TIP3    H224978   1.519   3.135   0.688  0.1060  0.9782 -0.9024
 1115TIP3   OH224979   6.150   2.955   7.461  0.3496 -0.0868 -0.3273
 1115TIP3    H124980   6.098   2.876   7.454  1.0065 -0.5709  0.1306
 1115TIP3    H224981   6.184   2.969   7.372  0.9704 -0.8414 -0.2183
 1116TIP3   OH224982   4.089   6.079   6.978  0.5839 -0.0752 -0.3670
 1116TIP3    H124983   4.146   6.045   7.047  0.7181  0.3810 -0.2511
 1116TIP3    H224984   4.007   6.101   7.023 -0.1482 -1.8643 -0.7299
 1117TIP3   OH224985   5.598   1.360   7.000  0.9100  0.3012  0.2699
 1117TIP3    H124986   5.624   1.388   6.912  0.9489 -2.3904 -0.6531
 1117TIP3    H224987   5.677   1.321   7.037  0.5267  0.1626  0.9602
 1118TIP3   OH224988   0.412   2.122   8.770 -0.0803  0.4485  0.1416
 1118TIP3    H124989   0.476   2.115   8.700  1.0279 -1.2799  1.2349
 1118TIP3    H224990   0.373   2.209   8.759 -0.3831  0.0417 -2.9188
 1119TIP3   OH224991   5.353   6.384   1.126 -0.1238  0.0812  0.2308
 1119TIP3    H124992   5.384   6.469   1.094  0.6600  0.3420  1.6035
 1119TIP3    H224993   5.417   6.321   1.093 -0.5736  0.0442 -0.5880
 1120TIP3   OH224994   1.636   0.722   0.844  0.0132 -0.0483 -0.1133
 1120TIP3    H124995   1.643   0.750   0.935 -0.4028  0.1735 -0.1472
 1120TIP3    H224996   1.640   0.803   0.793 -1.9205  0.0412 -0.1714
 1121TIP3   OH224997   1.365   1.845   1.059 -0.3382 -0.6330 -0.0186
 1121TIP3    H124998   1.383   1.831   1.152 -0.0360  2.0878  0.4180
 1121TIP3    H224999   1.360   1.940   1.050 -0.1811 -0.8155 -2.8400
 1122TIP3   OH225000   1.703   1.431   1.579 -0.0750  0.7124  0.7114
 1122TIP3    H125001   1.682   1.519   1.609 -0.8201  0.0215  2.4406
 1122TIP3    H225002   1.627   1.379   1.607 -0.3922 -0.2174 -1.6787
 1123TIP3   OH225003   2.158   2.745   6.494 -0.3044  0.1678 -0.0900
 1123TIP3    H125004   2.216   2.676   6.460 -0.8121  0.6028 -1.9161
 1123TIP3    H225005   2.084   2.697   6.531 -0.4371 -0.2989 -0.9308
 1124TIP3   OH225006   5.474   1.446   0.155  0.3662 -0.5675 -0.1383
 1124TIP3    H125007   5.485   1.467   0.247 -0.2307  0.6821 -0.3348
 1124TIP3    H225008   5.417   1.369   0.155  0.6830 -0.8095  0.5350
 1125TIP3   OH225009   5.327   3.108   0.069  0.5624  0.2143 -0.1664
 1125TIP3    H125010   5.330   3.197   0.035  0.3066  0.3047  0.0393
 1125TIP3    H225011   5.269   3.061   0.009 -1.9612  0.9959  1.5042
 1126TIP3   OH225012   4.742   3.002   7.128  0.2801 -0.6250  0.3648
 1126TIP3    H125013   4.803   3.000   7.055 -1.2485  0.3188 -0.9864
 1126TIP3    H225014   4.732   2.910   7.153  1.6059 -0.8610  0.0868
 1127TIP3   OH225015   1.563   4.273   0.708 -0.7454 -0.3791  0.1091
 1127TIP3    H125016   1.510   4.317   0.641  2.4148  4.2033  0.1771
 1127TIP3    H225017   1.615   4.209   0.660 -0.9196  0.4756 -1.2720
 1128TIP3   OH225018   4.070   0.110   0.108 -0.2437 -0.0836 -0.0425
 1128TIP3    H125019   4.117   0.172   0.164  0.6281  0.5712 -1.4417
 1128TIP3    H225020   4.095   0.024   0.140 -0.9431  0.2527  1.5070
 1129TIP3   OH225021   4.033   4.255   1.692  0.3925  0.2608 -0.3239
 1129TIP3    H125022   3.962   4.192   1.705  0.0401  0.7550  0.2322
 1129TIP3    H225023   4.097   4.209   1.638  0.0931 -0.5354 -0.0166
 1130TIP3   OH225024   2.688   0.568   7.220  0.1677 -0.6740  0.2630
 1130TIP3    H125025   2.604   0.586   7.179  0.5004  1.3539  0.3402
 1130TIP3    H225026   2.753   0.585   7.151  0.5732 -1.0240  0.5497
 1131TIP3   OH225027   5.728   0.522   0.402 -0.4245 -0.1977  0.6890
 1131TIP3    H125028   5.697   0.474   0.478 -0.6492 -2.6244 -0.8253
 1131TIP3    H225029   5.653   0.525   0.343  0.6224 -1.3798 -0.7931
 1132TIP3   OH225030   5.824   5.560   8.467 -0.4376  0.3203  0.0248
 1132TIP3    H125031   5.914   5.535   8.447 -0.6030 -0.0721 -0.2567
 1132TIP3    H225032   5.826   5.655   8.474 -0.2609  0.4340 -1.3523
 1133TIP3   OH225033   1.357   5.607   8.126 -0.0943 -0.0455  0.5788
 1133TIP3    H125034   1.266   5.635   8.115 -0.3940 -0.7670  1.1919
 1133TIP3    H225035   1.375   5.616   8.219 -0.3856 -2.3803  0.9210
 1134TIP3   OH225036   6.715   5.921   7.847  0.0720  0.2048  0.1677
 1134TIP3    H125037   6.747   5.885   7.930  0.4458 -1.1466 -0.5384
 1134TIP3    H225038   6.764   5.874   7.780 -1.1880  0.3162 -0.8709
 1135TIP3   OH225039   2.731   3.214   2.251 -0.2844 -0.0070  0.0565
 1135TIP3    H125040   2.717   3.192   2.159 -2.3605 -1.7508  0.6980
 1135TIP3    H225041   2.695   3.302   2.261  0.8786  0.6058 -0.9751
 1136TIP3   OH225042   1.562   1.747   6.536  0.1520 -0.1610  0.0206
 1136TIP3    H125043   1.638   1.805   6.528 -1.0832  1.2633 -2.6716
 1136TIP3    H225044   1.501   1.795   6.593 -0.3602  0.6606 -1.1883
 1137TIP3   OH225045   2.624   2.485   7.115 -0.4277  0.2574 -0.0090
 1137TIP3    H125046   2.579   2.497   7.199 -1.6353  0.2916 -0.6465
 1137TIP3    H225047   2.596   2.560   7.062 -0.4732 -0.2992 -0.7864
 1138TIP3   OH225048   0.334   5.445   6.431 -0.6355  0.0061 -0.5907
 1138TIP3    H125049   0.365   5.526   6.392 -1.1330 -0.4158 -1.9026
 1138TIP3    H225050   0.410   5.410   6.477 -0.5090  1.3640  0.2983
 1139TIP3   OH225051   4.804   6.477   0.880 -0.1546 -0.3138  0.5562
 1139TIP3    H125052   4.890   6.441   0.901  0.1104  0.3015  0.5622
 1139TIP3    H225053   4.784   6.536   0.952 -0.4652 -0.2516  0.4246
 1140TIP3   OH225054   6.103   3.837   1.599  0.1887 -0.3068  0.4940
 1140TIP3    H125055   6.146   3.848   1.683 -1.6922  0.1214  1.4522
 1140TIP3    H225056   6.122   3.918   1.551  1.5173 -0.6810  0.3518
 1141TIP3   OH225057   1.017   1.499   6.372  0.1679 -0.2238  0.1680
 1141TIP3    H125058   1.020   1.554   6.293 -2.8991 -0.7465 -0.4332
 1141TIP3    H225059   0.990   1.559   6.442  1.5315 -0.0421  0.5566
 1142TIP3   OH225060   2.926   3.652   1.829  0.6748  0.4375 -0.1653
 1142TIP3    H125061   3.002   3.678   1.777  1.3080 -0.0600  0.4911
 1142TIP3    H225062   2.956   3.575   1.878 -0.4169 -0.0901 -0.2944
 1143TIP3   OH225063   3.986   0.635   8.086 -0.4411 -0.0025  0.3069
 1143TIP3    H125064   4.073   0.600   8.070 -0.3421 -0.1157  1.0712
 1143TIP3    H225065   3.965   0.684   8.006  0.0120 -0.5859 -0.1753
 1144TIP3   OH225066   5.289   3.689   0.894 -0.3515 -0.6033  0.3201
 1144TIP3    H125067   5.233   3.645   0.958 -1.3065  1.7187  1.1558
 1144TIP3    H225068   5.337   3.755   0.944 -0.8717  1.0724 -1.2767
 1145TIP3   OH225069   4.993   4.463   1.277  0.1888 -0.1555  0.4325
 1145TIP3    H125070   5.004   4.522   1.351  2.5426 -1.1673  0.9797
 1145TIP3    H225071   5.078   4.464   1.233 -1.4405  1.2787 -3.0067
 1146TIP3   OH225072   1.617   0.096   7.258 -0.1581  0.1989 -0.5803
 1146TIP3    H125073   1.642   0.123   7.170 -0.5770 -0.6238 -0.9583
 1146TIP3    H225074   1.521   0.091   7.256 -0.1767  0.2248 -0.0597
 1147TIP3   OH225075   5.814   3.905   7.916  0.6320 -0.4377 -0.0469
 1147TIP3    H125076   5.760   3.844   7.966 -1.4887  1.2908 -0.0566
 1147TIP3    H225077   5.812   3.871   7.827 -0.7938 -0.2532 -0.1151
 1148TIP3   OH225078   2.148   3.902   7.769 -0.5116 -0.1599 -0.1251
 1148TIP3    H125079   2.171   3.981   7.818  0.1641  0.5968 -1.5908
 1148TIP3    H225080   2.133   3.836   7.836 -0.3536  1.0147  1.1189
 1149TIP3   OH225081   5.041   2.327   7.488 -0.1585  0.0118 -0.4211
 1149TIP3    H125082   5.020   2.368   7.404  1.0700 -0.6485 -1.0850
 1149TIP3    H225083   5.135   2.312   7.484 -0.2014 -0.6900  0.7867
 1150TIP3   OH225084   6.108   1.020   8.265 -0.7101 -0.5970  0.4988
 1150TIP3    H125085   6.162   1.033   8.187 -2.8302  0.5539 -0.8697
 1150TIP3    H225086   6.162   0.967   8.323  2.7419  2.1825  0.1313
 1151TIP3   OH225087   1.020   5.526   1.218  0.1826 -0.1309  0.3916
 1151TIP3    H125088   1.035   5.621   1.218  1.3646 -0.2354 -1.8321
 1151TIP3    H225089   1.108   5.488   1.220 -0.2543 -1.1665  0.5308
 1152TIP3   OH225090   0.042   4.999   2.369 -0.3408 -0.0886 -0.1192
 1152TIP3    H125091   0.107   5.055   2.414 -1.2932  0.8477  0.1434
 1152TIP3    H225092   0.090   4.963   2.294  1.0094 -0.9034  1.0830
 1153TIP3   OH225093   4.248   5.993   1.932 -0.3970  0.2938 -0.2679
 1153TIP3    H125094   4.211   6.082   1.937 -0.4549  0.2657 -0.1878
 1153TIP3    H225095   4.232   5.966   1.842  0.5652  0.7680 -0.5992
 1154TIP3   OH225096   1.427   6.478   0.177  0.1686  0.0278 -0.1425
 1154TIP3    H125097   1.334   6.456   0.186 -0.4039  1.2195 -2.4450
 1154TIP3    H225098   1.449   6.453   0.087  2.1042 -0.2109  0.3494
 1155TIP3   OH225099   5.318   2.196   0.054 -0.3168  0.0382  0.1949
 1155TIP3    H125100   5.359   2.262  -0.002 -0.4902  0.1612  0.2116
 1155TIP3    H225101   5.308   2.120  -0.003  0.3515 -0.1449  0.3204
 1156TIP3   OH225102   1.938   2.968   6.444  0.2841 -0.0706  0.1219
 1156TIP3    H125103   1.983   2.890   6.411  0.9918  0.1369  0.5604
 1156TIP3    H225104   1.993   3.041   6.416 -0.1676  0.2453  0.0492
 1157TIP3   OH225105   3.557   1.603   7.931 -0.4022 -0.1670 -0.1146
 1157TIP3    H125106   3.497   1.540   7.972 -2.4021  2.3820  1.1058
 1157TIP3    H225107   3.534   1.601   7.838 -0.2236 -1.4135 -0.1517
 1158TIP3   OH225108   3.025   6.764   6.093  0.1962  0.0577  0.2090
 1158TIP3    H125109   3.117   6.788   6.109  0.0919  0.0794  0.7990
 1158TIP3    H225110   2.978   6.848   6.098  0.1348  0.0401 -0.0492
 1159TIP3   OH225111   2.837   2.423   0.694 -0.5159 -0.1732  0.4355
 1159TIP3    H125112   2.914   2.368   0.684  1.1936  2.3696 -2.5294
 1159TIP3    H225113   2.767   2.374   0.652 -0.2606 -1.9298  1.9236
 1160TIP3   OH225114   6.055   3.618   7.957  0.0642  0.1343  0.3091
 1160TIP3    H125115   5.972   3.597   7.914 -0.6906  2.0518  0.7219
 1160TIP3    H225116   6.030   3.643   8.046  0.8197  2.4305 -0.0539
 1161TIP3   OH225117   4.126   6.355   7.182  0.0306 -0.1827 -0.1151
 1161TIP3    H125118   4.121   6.286   7.248 -0.7827  0.8042  0.9040
 1161TIP3    H225119   4.118   6.436   7.232 -1.1391  0.5849 -1.4809
 1162TIP3   OH225120   1.593   1.744   0.704  0.3785 -0.1638  0.3227
 1162TIP3    H125121   1.609   1.661   0.659 -1.6731  0.3273 -1.4801
 1162TIP3    H225122   1.572   1.719   0.794 -2.1242 -1.8406 -0.6396
 1163TIP3   OH225123   3.813   2.786   1.349  0.2429 -0.4044 -0.3738
 1163TIP3    H125124   3.809   2.869   1.301  2.5664 -0.1637 -0.2988
 1163TIP3    H225125   3.905   2.780   1.377  0.1258 -2.9608 -0.3214
 1164TIP3   OH225126   2.433   2.721   7.690  0.5622 -0.2363 -0.2699
 1164TIP3    H125127   2.382   2.652   7.731  0.5342  0.6000  1.1845
 1164TIP3    H225128   2.455   2.687   7.603  1.9079 -2.7143  0.9419
 1165TIP3   OH225129   6.162   4.060   7.294 -0.0749  0.6766 -0.5961
 1165TIP3    H125130   6.103   4.018   7.357 -0.2106 -0.9155 -1.7037
 1165TIP3    H225131   6.246   4.062   7.338 -0.2705  0.0024 -0.1691
 1166TIP3   OH225132   3.112   4.188   8.421  0.3116 -0.7977 -0.5722
 1166TIP3    H125133   3.067   4.271   8.436  1.9576 -0.1051  0.8890
 1166TIP3    H225134   3.087   4.163   8.332 -1.7711  0.2384 -0.3403
 1167TIP3   OH225135   0.778   5.550   6.634 -0.8521 -0.3509 -0.2590
 1167TIP3    H125136   0.853   5.568   6.690 -0.9187 -0.5996 -0.0899
 1167TIP3    H225137   0.759   5.634   6.592  0.7073 -0.6876 -1.7546
 1168TIP3   OH225138   3.916   1.915   1.222  0.0231  0.2578 -0.2126
 1168TIP3    H125139   3.852   1.865   1.170 -0.8318 -0.0115  1.0644
 1168TIP3    H225140   3.903   2.005   1.194 -1.0590  0.2312  0.1595
 1169TIP3   OH225141   5.492   4.102   0.895 -0.3071 -0.0687 -0.3234
 1169TIP3    H125142   5.423   4.060   0.843  1.4794  0.9534 -3.8020
 1169TIP3    H225143   5.481   4.196   0.878  1.6691  0.1389 -0.6523
 1170TIP3   OH225144   1.814   0.426   7.793  0.2718  0.2089 -0.1861
 1170TIP3    H125145   1.883   0.375   7.749  0.3158  1.0206 -1.0921
 1170TIP3    H225146   1.834   0.517   7.771 -1.6047  0.4214 -1.2685
 1171TIP3   OH225147   1.938   6.223   7.720  0.0503 -0.1024  0.3980
 1171TIP3    H125148   1.928   6.161   7.647  0.6384  0.7158 -0.3990
 1171TIP3    H225149   1.870   6.197   7.782  0.7714 -2.0448  0.4598
 1172TIP3   OH225150   2.480   0.282   0.667  0.1037  0.0537  0.1867
 1172TIP3    H125151   2.452   0.323   0.749 -1.3659  0.7969 -0.6380
 1172TIP3    H225152   2.470   0.188   0.682  0.3439  0.1513  1.0188
 1173TIP3   OH225153   6.279   3.567   7.374  0.4986 -0.3144  0.6432
 1173TIP3    H125154   6.242   3.498   7.319  1.6957 -1.4252  1.1863
 1173TIP3    H225155   6.261   3.538   7.464  1.1717 -0.0117  0.8789
 1174TIP3   OH225156   0.487   1.555   0.935  0.1152 -0.1977  0.5101
 1174TIP3    H125157   0.448   1.554   1.022  1.1326  1.1558  1.0141
 1174TIP3    H225158   0.465   1.642   0.900 -0.2408 -0.7045 -0.5870
 1175TIP3   OH225159   4.894   3.412   7.183 -0.3910  0.4743  1.0251
 1175TIP3    H125160   4.935   3.473   7.245  0.5552  0.1045  0.7901
 1175TIP3    H225161   4.968   3.371   7.138 -1.0229 -0.6301  0.9640
 1176TIP3   OH225162   4.067   0.240   6.772  0.0518  0.1580  0.1726
 1176TIP3    H125163   4.122   0.194   6.708  2.3258  1.1259  1.2912
 1176TIP3    H225164   4.048   0.325   6.731  0.1705  0.1681  0.1384
 1177TIP3   OH225165   3.917   1.614   0.752  0.1730  0.3660  0.2048
 1177TIP3    H125166   3.908   1.707   0.772 -1.2721  0.1865  0.5262
 1177TIP3    H225167   3.944   1.612   0.660 -2.2418  1.1184 -0.6162
 1178TIP3   OH225168   6.605   5.213   0.581  0.2293 -0.0156 -1.0394
 1178TIP3    H125169   6.538   5.161   0.535 -0.3739  0.6866 -0.9685
 1178TIP3    H225170   6.677   5.152   0.594 -1.0127 -1.2611  0.3171
 1179TIP3   OH225171   4.219   3.964   6.794  0.5512 -0.2394  0.3654
 1179TIP3    H125172   4.271   3.906   6.851  1.3079 -0.4049 -0.4722
 1179TIP3    H225173   4.202   4.041   6.848 -0.9877 -1.4452  1.7248
 1180TIP3   OH225174   6.121   6.006   1.571  0.3884 -0.2296  0.7871
 1180TIP3    H125175   6.124   5.939   1.639  1.6086 -2.4375 -1.3159
 1180TIP3    H225176   6.031   6.003   1.539  0.8052 -2.0772 -0.3514
 1181TIP3   OH225177   3.531   1.090   0.007 -0.2126  0.5326  0.1644
 1181TIP3    H125178   3.468   1.072  -0.063  2.0341 -2.1971 -1.3764
 1181TIP3    H225179   3.518   1.019   0.070  0.2857  0.8201  0.6028
 1182TIP3   OH225180   4.075   3.793   7.277 -0.1735  0.5735  0.1141
 1182TIP3    H125181   4.037   3.705   7.274 -0.1428  0.5503  0.3752
 1182TIP3    H225182   4.000   3.852   7.268 -0.3065  0.5311  0.8572
 1183TIP3   OH225183   3.679   1.024   0.421 -0.4435 -0.3809 -0.0732
 1183TIP3    H125184   3.750   1.019   0.356 -0.3813 -0.8717  0.0285
 1183TIP3    H225185   3.715   0.981   0.499 -0.6416 -0.0973  0.1769
 1184TIP3   OH225186   4.359   5.254   2.258 -0.3766  0.1403 -0.5216
 1184TIP3    H125187   4.397   5.166   2.266  0.3525  0.5035  0.1009
 1184TIP3    H225188   4.392   5.302   2.334  0.7182  1.4956 -1.7831
 1185TIP3   OH225189   2.392   1.910   2.085  0.0284 -0.1495  0.9322
 1185TIP3    H125190   2.319   1.935   2.029 -0.5456  0.0791  1.7556
 1185TIP3    H225191   2.468   1.911   2.028 -0.3792  1.0346  0.3758
 1186TIP3   OH225192   4.992   2.839   0.255  0.6061  0.6729  0.4623
 1186TIP3    H125193   5.019   2.763   0.203 -0.4759  0.8022 -0.3094
 1186TIP3    H225194   5.025   2.820   0.343 -1.9648 -2.0319  0.9791
 1187TIP3   OH225195   6.792   5.035   0.684 -0.5582  0.0944 -0.0918
 1187TIP3    H125196   6.749   4.950   0.693 -3.1713  1.2407 -0.8274
 1187TIP3    H225197   6.827   5.034   0.595  2.6803 -1.5011  1.0593
 1188TIP3   OH225198   6.610   6.310   8.260  0.3004  0.5357 -0.1353
 1188TIP3    H125199   6.590   6.309   8.166  0.4240  0.9356 -0.1664
 1188TIP3    H225200   6.668   6.385   8.271 -0.0154  0.7143  0.3267
 1189TIP3   OH225201   0.771   5.121   8.628 -0.4872 -0.6402  0.6391
 1189TIP3    H125202   0.755   5.031   8.656  0.3223 -0.8784  0.3532
 1189TIP3    H225203   0.836   5.154   8.690  1.2130 -1.1227 -0.8114
 1190TIP3   OH225204   2.324   3.129   7.810  0.2667 -0.2448  0.2203
 1190TIP3    H125205   2.406   3.136   7.763 -0.7121 -2.0420 -1.9569
 1190TIP3    H225206   2.337   3.054   7.869 -0.0852 -1.1234 -0.8012
 1191TIP3   OH225207   4.248   6.330   8.497  0.2508  0.4296 -0.3418
 1191TIP3    H125208   4.263   6.320   8.591 -2.7973 -0.3962  0.1626
 1191TIP3    H225209   4.224   6.243   8.467  1.8875  0.5216 -2.1102
 1192TIP3   OH225210   0.532   0.755   0.946 -0.0975 -0.2323 -0.1996
 1192TIP3    H125211   0.587   0.780   1.020  0.3586  2.4946 -1.3474
 1192TIP3    H225212   0.477   0.832   0.929 -0.1657 -0.7331 -2.6761
 1193TIP3   OH225213   4.406   2.131   6.975  0.4006  0.9695  0.2607
 1193TIP3    H125214   4.390   2.195   6.905  0.1496  1.0136  0.3571
 1193TIP3    H225215   4.490   2.092   6.953  0.4055  1.1095  0.0286
 1194TIP3   OH225216   0.141   1.211   2.537 -0.0217  0.5539  0.3216
 1194TIP3    H125217   0.195   1.133   2.527  0.1311  0.7434 -0.3799
 1194TIP3    H225218   0.131   1.246   2.449  0.9004  1.9932  0.7429
 1195TIP3   OH225219   1.129   4.054   1.300  0.3008 -0.2644  0.2290
 1195TIP3    H125220   1.206   3.998   1.309 -0.7767 -1.8136  0.1429
 1195TIP3    H225221   1.138   4.093   1.213  2.0527  1.3139  1.0403
 1196TIP3   OH225222   3.429   6.191   8.840 -0.2911 -0.0470 -0.0036
 1196TIP3    H125223   3.420   6.190   8.935 -1.5174  0.9826 -0.0784
 1196TIP3    H225224   3.447   6.100   8.817 -0.2566 -0.3627  1.1820
 1197TIP3   OH225225   0.264   2.666   6.402  0.0187 -0.1728  0.6272
 1197TIP3    H125226   0.206   2.700   6.334  0.9604 -0.8936 -0.5711
 1197TIP3    H225227   0.296   2.744   6.448 -1.1110  0.2856  0.6878
 1198TIP3   OH225228   3.098   4.012   1.576  0.4060  0.7835 -0.3372
 1198TIP3    H125229   3.024   4.058   1.615  0.5404 -0.1874  1.1220
 1198TIP3    H225230   3.168   4.077   1.573  0.3462  0.9236  0.9100
 1199TIP3   OH225231   0.317   2.246   1.506 -0.2726 -0.5417  0.6069
 1199TIP3    H125232   0.298   2.159   1.471 -0.6893 -0.1493 -0.1767
 1199TIP3    H225233   0.233   2.291   1.504  0.0897  0.1363  0.2398
 1200TIP3   OH225234   0.543   4.255   2.384  0.5267 -0.7022 -0.1007
 1200TIP3    H125235   0.477   4.217   2.444 -0.2246 -2.0376 -1.6745
 1200TIP3    H225236   0.590   4.318   2.438 -0.2880 -1.6252  1.8304
 1201TIP3   OH225237   1.730   3.343   0.886  0.3448  0.5198  0.0892
 1201TIP3    H125238   1.825   3.348   0.890  0.5954 -1.5590 -1.4285
 1201TIP3    H225239   1.707   3.383   0.802  0.1328 -0.8878 -0.5596
 1202TIP3   OH225240   3.560   0.841   1.700  0.1718 -0.0102  0.6145
 1202TIP3    H125241   3.550   0.868   1.791 -1.3823  3.8862 -0.4994
 1202TIP3    H225242   3.476   0.802   1.677 -0.3033  1.1245  0.3274
 1203TIP3   OH225243   4.503   2.050   8.218  0.2753  0.0067  0.3171
 1203TIP3    H125244   4.564   2.116   8.251 -0.5884  1.3193 -0.6111
 1203TIP3    H225245   4.424   2.100   8.195  0.2470 -1.0452 -2.1486
 1204TIP3   OH225246   0.019   4.375   0.354 -0.5277  0.6041  0.0642
 1204TIP3    H125247   0.039   4.453   0.302  1.5213  0.0214 -0.1292
 1204TIP3    H225248   0.089   4.313   0.332 -1.5516 -0.9441  0.9382
 1205TIP3   OH225249   3.738   6.041   1.325 -0.7715 -0.0549  0.2301
 1205TIP3    H125250   3.777   5.961   1.288 -1.2939  0.6593 -2.0661
 1205TIP3    H225251   3.673   6.009   1.388 -1.3230 -1.5101 -1.0042
 1206TIP3   OH225252   3.785   2.141   1.597  0.0143  1.0142 -0.4634
 1206TIP3    H125253   3.752   2.058   1.564 -1.6120  1.8546 -1.0932
 1206TIP3    H225254   3.791   2.129   1.692 -4.4443  1.4146  0.0873
 1207TIP3   OH225255   3.188   1.944   0.763  0.0968  0.4453  0.3701
 1207TIP3    H125256   3.229   2.012   0.709 -1.3300  1.3146  0.3127
 1207TIP3    H225257   3.100   1.934   0.725  0.0050 -0.8521  0.8942
 1208TIP3   OH225258   0.937   4.223   8.273 -0.6811  0.1043  0.2366
 1208TIP3    H125259   0.942   4.292   8.339 -1.8076  2.0639 -1.6139
 1208TIP3    H225260   1.028   4.200   8.255 -0.1946  1.9838  0.0695
 1209TIP3   OH225261   3.220   5.735   8.369 -0.1438 -0.3978  0.0134
 1209TIP3    H125262   3.162   5.667   8.336 -1.6042  1.0747 -0.5954
 1209TIP3    H225263   3.259   5.774   8.291  0.4498 -0.3266  0.3372
 1210TIP3   OH225264   0.597   0.640   2.114  0.2614  0.9863 -0.1984
 1210TIP3    H125265   0.667   0.582   2.145  0.7377  0.0657 -2.7393
 1210TIP3    H225266   0.636   0.728   2.116  0.9955  0.6720 -0.1673
 1211TIP3   OH225267   6.474   6.074   8.305  0.2432  0.8630  0.3659
 1211TIP3    H125268   6.524   6.044   8.381  0.7238  1.5503  0.3293
 1211TIP3    H225269   6.515   6.157   8.281  0.8424  0.1229 -1.3353
 1212TIP3   OH225270   1.112   3.280   1.311 -0.1862 -0.6934  0.0661
 1212TIP3    H125271   1.177   3.346   1.286 -1.1641  0.8761  1.4402
 1212TIP3    H225272   1.120   3.273   1.406 -1.7153 -0.7879  0.2116
 1213TIP3   OH225273   2.325   3.504   0.727 -0.0663  0.7507 -0.2145
 1213TIP3    H125274   2.279   3.567   0.782 -0.0138  0.3747  0.2678
 1213TIP3    H225275   2.405   3.485   0.775  0.5361  1.2939 -0.9822
 1214TIP3   OH225276   5.891   3.063   7.576 -0.2006  0.1718  0.0117
 1214TIP3    H125277   5.892   3.123   7.501  0.7292  0.6587  0.3979
 1214TIP3    H225278   5.983   3.056   7.602 -0.3706 -0.9005  0.3955
 1215TIP3   OH225279   3.537   3.308   8.586  0.0635  0.1342  0.4726
 1215TIP3    H125280   3.571   3.219   8.593 -0.8329 -0.2566  0.1140
 1215TIP3    H225281   3.609   3.359   8.549  1.6076  0.2149  3.3110
 1216TIP3   OH225282   4.603   6.222   1.940 -0.2621 -0.4585 -0.2256
 1216TIP3    H125283   4.655   6.249   2.015 -2.7902  0.3268  1.3824
 1216TIP3    H225284   4.564   6.138   1.965 -0.2337 -0.7696 -1.1528
 1217TIP3   OH225285   1.582   5.256   1.654 -0.1814  0.3608 -0.1753
 1217TIP3    H125286   1.546   5.337   1.618  0.1813  1.1802  1.2122
 1217TIP3    H225287   1.582   5.270   1.749  0.7054 -0.9233  0.0434
 1218TIP3   OH225288   5.859   4.139   1.624  0.2212  0.4943 -0.4026
 1218TIP3    H125289   5.930   4.115   1.683 -1.8596 -0.5280  1.9063
 1218TIP3    H225290   5.789   4.076   1.645 -2.6545  3.5831  0.1169
 1219TIP3   OH225291   5.690   3.454   8.414  0.3001 -0.0007 -0.2352
 1219TIP3    H125292   5.653   3.468   8.501  1.4544 -1.1044  0.4724
 1219TIP3    H225293   5.782   3.432   8.431  0.0256 -2.5005 -1.5543
 1220TIP3   OH225294   3.583   0.026   7.943  0.3011  0.3081 -0.1409
 1220TIP3    H125295   3.627   0.105   7.976 -0.3160  0.1963  0.9850
 1220TIP3    H225296   3.559   0.048   7.853 -0.2565  1.5662  0.2995
 1221TIP3   OH225297   4.828   3.516   0.855  0.3714  0.2230  0.2669
 1221TIP3    H125298   4.740   3.494   0.826  0.2933 -1.2225  1.4600
 1221TIP3    H225299   4.819   3.533   0.949  1.6201 -1.8558  0.8349
 1222TIP3   OH225300   1.849   3.994   1.217 -0.3017 -0.0157  0.0270
 1222TIP3    H125301   1.907   4.050   1.268 -1.0251  0.0943  0.7499
 1222TIP3    H225302   1.895   3.981   1.134  0.2088  1.0619  0.1188
 1223TIP3   OH225303   3.522   6.009   0.666  0.5849  0.0691 -0.2673
 1223TIP3    H125304   3.594   6.070   0.681  0.4441  0.0123  0.7072
 1223TIP3    H225305   3.546   5.930   0.714  0.9372 -0.8054 -1.8081
 1224TIP3   OH225306   6.351   6.143   0.754 -0.2846  0.2029  0.4551
 1224TIP3    H125307   6.275   6.200   0.766  0.4344  1.4580 -0.7120
 1224TIP3    H225308   6.425   6.203   0.744  0.9407 -0.9993  1.9213
 1225TIP3   OH225309   1.705   5.629   8.846 -0.9796  0.0509  0.1953
 1225TIP3    H125310   1.640   5.570   8.884 -0.7342 -0.6365 -0.4419
 1225TIP3    H225311   1.786   5.578   8.845 -0.8349  0.2832 -0.6487
 1226TIP3   OH225312   2.806   5.176   8.530  0.3705  0.2942  0.4166
 1226TIP3    H125313   2.769   5.090   8.550  0.2813  0.5225  1.2644
 1226TIP3    H225314   2.769   5.234   8.597 -1.5788  1.5316 -1.6019
 1227TIP3   OH225315   6.650   2.810   7.516 -0.4144  0.0430  0.0140
 1227TIP3    H125316   6.587   2.848   7.578 -1.0167  0.9752 -1.1315
 1227TIP3    H225317   6.731   2.804   7.565 -0.8071  1.0395  0.8114
 1228TIP3   OH225318   5.381   4.321   2.338  0.3303 -0.2394 -0.4730
 1228TIP3    H125319   5.311   4.319   2.273 -0.3753  1.6029  0.1869
 1228TIP3    H225320   5.337   4.336   2.421  1.4953  6.8160 -0.5164
 1229TIP3   OH225321   4.824   5.589   0.096  0.2680  0.4335  0.6716
 1229TIP3    H125322   4.898   5.634   0.136  1.4360  0.9518 -1.8353
 1229TIP3    H225323   4.794   5.527   0.162  2.9845  0.1729  1.7729
 1230TIP3   OH225324   3.442   5.063   0.703  0.2677  0.0389  0.4906
 1230TIP3    H125325   3.376   5.107   0.650 -0.2327 -0.9725  0.2519
 1230TIP3    H225326   3.403   5.057   0.790 -0.2744 -1.1943  0.1810
 1231TIP3   OH225327   2.241   4.758   7.666 -0.0658  0.5422  0.5383
 1231TIP3    H125328   2.164   4.717   7.705  0.6165 -1.4396 -0.0978
 1231TIP3    H225329   2.298   4.778   7.740 -1.1265  1.9617  1.0052
 1232TIP3   OH225330   5.170   2.409   0.266 -0.2851 -0.0404  0.2019
 1232TIP3    H125331   5.104   2.357   0.220  0.7603 -1.6106  0.4048
 1232TIP3    H225332   5.237   2.427   0.201  0.0510 -0.2026  0.4969
 1233TIP3   OH225333   2.051   6.123   7.400  0.3856 -0.3237 -0.0134
 1233TIP3    H125334   1.976   6.086   7.446 -0.1152 -1.1145 -1.4030
 1233TIP3    H225335   2.124   6.066   7.422  1.0454  1.4122  2.7163
 1234TIP3   OH225336   3.314   4.945   0.933  0.0147 -0.0236 -0.1877
 1234TIP3    H125337   3.233   4.895   0.921  0.1391 -0.3585  0.3407
 1234TIP3    H225338   3.314   4.967   1.027  0.9558 -0.7458 -0.0160
 1235TIP3   OH225339   0.181   0.218   6.473  0.1203  0.3935 -0.2800
 1235TIP3    H125340   0.185   0.151   6.404  0.2236 -1.0203  1.0471
 1235TIP3    H225341   0.109   0.191   6.529  0.0405  1.5231  0.1856
 1236TIP3   OH225342   5.197   5.620   8.379 -0.1312 -0.3462 -0.1881
 1236TIP3    H125343   5.210   5.687   8.446  2.5548 -1.1525  0.2023
 1236TIP3    H225344   5.236   5.656   8.300  0.4415 -1.0420 -0.2314
 1237TIP3   OH225345   2.430   1.259   1.146  0.5828 -0.3441 -0.1220
 1237TIP3    H125346   2.406   1.169   1.170 -0.3608 -0.5951 -1.8934
 1237TIP3    H225347   2.365   1.285   1.081  1.7883  1.0503 -0.8204
 1238TIP3   OH225348   6.601   5.260   7.427 -0.0228  0.2967 -0.2074
 1238TIP3    H125349   6.519   5.309   7.417  0.7380  1.2616 -2.2958
 1238TIP3    H225350   6.669   5.321   7.398  1.0053 -1.8693 -2.6685
 1239TIP3   OH225351   6.405   3.103   1.455  0.0907  0.1146 -0.5768
 1239TIP3    H125352   6.445   3.072   1.536  2.2514  2.2699 -0.6937
 1239TIP3    H225353   6.367   3.025   1.416  0.1991 -1.2512  1.8085
 1240TIP3   OH225354   6.148   2.517   6.965  0.0954 -0.3959  0.4124
 1240TIP3    H125355   6.135   2.498   6.872  0.3866 -0.4270  0.3792
 1240TIP3    H225356   6.065   2.557   6.993 -0.3725 -1.2905  0.3768
 1241TIP3   OH225357   4.733   5.336   8.082 -0.0099  0.4795  0.4791
 1241TIP3    H125358   4.651   5.385   8.086 -0.3454  0.2001 -1.7843
 1241TIP3    H225359   4.706   5.244   8.083  0.1005  0.3725 -1.7025
 1242TIP3   OH225360   2.373   1.793   1.220  0.0548  0.4975  0.1712
 1242TIP3    H125361   2.419   1.808   1.137  0.2055 -0.1200  0.1373
 1242TIP3    H225362   2.337   1.705   1.212 -1.4609  1.0983  0.0534
 1243TIP3   OH225363   6.519   2.239   7.328  0.4770  0.1019  0.5538
 1243TIP3    H125364   6.587   2.305   7.316 -0.1710  0.9488  1.3738
 1243TIP3    H225365   6.498   2.210   7.239  1.4305  0.3139  0.2464
 1244TIP3   OH225366   1.306   3.310   0.518 -0.0764  0.0070  0.3841
 1244TIP3    H125367   1.321   3.230   0.570 -2.7793 -1.7471 -1.3006
 1244TIP3    H225368   1.261   3.369   0.578 -0.7591 -0.9485  0.8472
 1245TIP3   OH225369   5.769   5.661   7.395  0.4404  0.8999 -0.1189
 1245TIP3    H125370   5.787   5.636   7.305  0.8097  0.8778 -0.0424
 1245TIP3    H225371   5.676   5.644   7.407  0.3799  0.9453 -0.5089
 1246TIP3   OH225372   3.081   1.672   2.525  0.2088 -0.1737  0.5562
 1246TIP3    H125373   3.127   1.588   2.521  1.1044  0.3014  0.6314
 1246TIP3    H225374   3.016   1.660   2.595 -0.6202 -1.2492 -0.3534
 1247TIP3   OH225375   1.480   4.117   7.107 -0.0438 -0.4011 -0.4290
 1247TIP3    H125376   1.435   4.044   7.064  1.1284 -0.3079 -1.8973
 1247TIP3    H225377   1.499   4.178   7.036  0.6414  0.4686  0.4796
 1248TIP3   OH225378   3.850   5.622   2.258 -0.1136  0.2428 -0.9948
 1248TIP3    H125379   3.789   5.655   2.324  1.1433 -1.5163  1.1821
 1248TIP3    H225380   3.803   5.550   2.216  1.1119 -2.8467  2.4454
 1249TIP3   OH225381   0.176   1.377   2.281  0.3322 -0.3738 -0.1838
 1249TIP3    H125382   0.223   1.460   2.292  2.7161 -1.3499 -1.9153
 1249TIP3    H225383   0.103   1.399   2.224 -0.1410  0.8255  0.8240
 1250TIP3   OH225384   1.443   4.865   0.774 -0.2290 -0.3877 -0.1299
 1250TIP3    H125385   1.388   4.816   0.713 -0.5690  0.0729 -0.1972
 1250TIP3    H225386   1.450   4.808   0.850  0.0002 -0.8638 -0.5048
 1251TIP3   OH225387   2.265   2.942   8.648 -0.2447 -0.0734 -0.0901
 1251TIP3    H125388   2.228   3.018   8.602 -0.6986  0.6758  1.4333
 1251TIP3    H225389   2.205   2.870   8.628 -0.5031  0.2722 -0.5658
 1252TIP3   OH225390   4.897   1.438   1.600 -0.4177  0.1302 -0.3283
 1252TIP3    H125391   4.977   1.481   1.568  0.1386 -0.5034  0.1797
 1252TIP3    H225392   4.924   1.394   1.680 -1.1239 -0.6434 -0.5003
 1253TIP3   OH225393   2.081   1.796   1.007 -0.1177 -0.1147 -0.4239
 1253TIP3    H125394   1.987   1.778   1.014  0.0271 -0.8403 -0.2760
 1253TIP3    H225395   2.115   1.727   0.951  0.3158  0.1973 -0.5507
 1254TIP3   OH225396   1.049   4.474   7.992  0.2075 -0.1378  1.0789
 1254TIP3    H125397   1.136   4.438   7.975 -0.0357 -0.1703 -0.2032
 1254TIP3    H225398   0.996   4.443   7.919 -0.7662  0.2847  1.5910
 1255TIP3   OH225399   5.687   0.110   7.697  0.1436  0.5133 -0.2099
 1255TIP3    H125400   5.621   0.147   7.638  0.2882 -0.6523 -1.1395
 1255TIP3    H225401   5.758   0.174   7.696 -0.3778  1.1022 -0.3235
 1256TIP3   OH225402   2.760   1.501   7.256 -0.3135 -0.2852  0.6320
 1256TIP3    H125403   2.665   1.485   7.258 -0.4412  0.3859  0.3152
 1256TIP3    H225404   2.778   1.531   7.167  0.2300 -0.5802  0.6396
 1257TIP3   OH225405   0.213   6.317   7.906 -0.2559 -0.6092  0.0491
 1257TIP3    H125406   0.193   6.356   7.821  0.4535 -0.3843 -0.0230
 1257TIP3    H225407   0.257   6.235   7.884 -2.7985 -2.1196  0.1792
 1258TIP3   OH225408   0.837   4.439   7.789  0.0773 -0.5579  0.4996
 1258TIP3    H125409   0.851   4.344   7.794  0.7981 -0.4007  1.6149
 1258TIP3    H225410   0.757   4.453   7.840  0.7069 -0.4235  1.4796
 1259TIP3   OH225411   1.649   3.637   7.924  0.2568 -0.6619  0.3200
 1259TIP3    H125412   1.664   3.546   7.898 -1.0735 -0.7323 -0.2961
 1259TIP3    H225413   1.558   3.655   7.897  1.1231  1.4822 -1.4742
 1260TIP3   OH225414   0.502   4.929   0.710  0.2170  0.4547  0.1364
 1260TIP3    H125415   0.486   4.999   0.772 -1.4538  0.9722 -0.8039
 1260TIP3    H225416   0.431   4.866   0.726  0.7296 -0.2123 -0.1466
 1261TIP3   OH225417   1.666   2.373   0.497  0.0121  0.3059 -0.3363
 1261TIP3    H125418   1.682   2.445   0.436 -1.0488 -0.8320 -2.0375
 1261TIP3    H225419   1.688   2.294   0.447 -1.5809 -0.7096  0.4864
 1262TIP3   OH225420   1.965   2.291   7.263  0.6553 -0.2777  0.1811
 1262TIP3    H125421   1.898   2.224   7.254 -0.2764  0.4080  1.6930
 1262TIP3    H225422   2.013   2.288   7.180 -0.4667 -1.5971 -0.4578
 1263TIP3   OH225423   2.411   3.644   2.648  0.2178  0.4284  0.8199
 1263TIP3    H125424   2.383   3.723   2.602  0.1540  0.6283  1.1959
 1263TIP3    H225425   2.420   3.578   2.580 -0.0640  0.6694  0.5486
 1264TIP3   OH225426   4.008   1.787   8.451  0.2640  0.2673  0.4649
 1264TIP3    H125427   3.919   1.773   8.483  0.9763 -0.2851  2.3747
 1264TIP3    H225428   4.037   1.867   8.495  0.1284  1.4760 -1.5494
 1265TIP3   OH225429   0.539   4.600   6.676 -0.1197 -0.0241 -0.0985
 1265TIP3    H125430   0.597   4.524   6.677 -0.6413 -0.4291  1.2196
 1265TIP3    H225431   0.451   4.562   6.682 -0.3437  0.6973  1.6376
 1266TIP3   OH225432   3.639   2.303   1.443  0.6413  0.4276  0.0932
 1266TIP3    H125433   3.683   2.388   1.438  1.7948 -0.1544  0.1756
 1266TIP3    H225434   3.689   2.254   1.508  0.6796 -0.7155 -0.7763
 1267TIP3   OH225435   2.940   5.039   6.928  0.2372 -0.1968 -0.2228
 1267TIP3    H125436   2.876   5.109   6.935 -0.3791 -0.3178 -3.1306
 1267TIP3    H225437   2.952   5.027   6.833  3.4120 -1.2392  0.1775
 1268TIP3   OH225438   2.776   0.807   7.351  0.0386 -0.5823 -0.5458
 1268TIP3    H125439   2.731   0.795   7.435 -1.3880  2.1415 -0.7760
 1268TIP3    H225440   2.775   0.721   7.310  0.2609 -1.8640  1.9690
 1269TIP3   OH225441   2.541   2.965   7.591  0.4629  0.7772  0.2506
 1269TIP3    H125442   2.475   2.907   7.630  2.1734 -0.4429  1.5113
 1269TIP3    H225443   2.543   3.042   7.648  0.4610  0.5846  0.5159
 1270TIP3   OH225444   3.340   6.804   8.072  0.3256 -0.5509  0.2847
 1270TIP3    H125445   3.424   6.826   8.032  0.9946 -1.4172  1.1699
 1270TIP3    H225446   3.360   6.790   8.164 -0.7460 -1.0285  0.4605
 1271TIP3   OH225447   6.488   0.111   1.114 -0.5700 -0.1472 -0.1233
 1271TIP3    H125448   6.525   0.050   1.178  2.2416  0.4462 -1.0429
 1271TIP3    H225449   6.556   0.121   1.048 -2.4182  1.1401 -1.9760
 1272TIP3   OH225450   6.487   2.785   0.589  0.4766  0.3690  0.2986
 1272TIP3    H125451   6.550   2.831   0.643  2.1875 -2.4209  0.9215
 1272TIP3    H225452   6.513   2.693   0.595  0.1808 -0.3045 -4.4418
 1273TIP3   OH225453   3.201   6.152   1.215  0.2504  0.2576  0.0255
 1273TIP3    H125454   3.281   6.198   1.190 -0.0781  1.0743  0.4608
 1273TIP3    H225455   3.141   6.166   1.142  0.2844  0.1970 -0.0137
 1274TIP3   OH225456   1.667   3.325   8.888 -0.7347  0.3055  0.5653
 1274TIP3    H125457   1.625   3.408   8.864 -1.1394 -0.0494  0.0133
 1274TIP3    H225458   1.652   3.268   8.812 -0.0303 -0.1188  0.7393
 1275TIP3   OH225459   4.527   1.751   0.166  0.5140 -0.6556  0.7705
 1275TIP3    H125460   4.516   1.801   0.085  0.8951 -0.9726  0.5228
 1275TIP3    H225461   4.613   1.777   0.199 -0.1214  0.3693  1.7047
 1276TIP3   OH225462   5.577   1.968   2.277  0.2022 -0.2231 -0.2497
 1276TIP3    H125463   5.616   1.887   2.310  2.1275  1.7256  2.7182
 1276TIP3    H225464   5.499   1.981   2.331  0.3694  0.3324 -0.1374
 1277TIP3   OH225465   1.666   6.573   0.367 -0.4884 -0.0079  0.3946
 1277TIP3    H125466   1.573   6.555   0.384 -0.3135 -0.1219  1.2458
 1277TIP3    H225467   1.665   6.658   0.321 -0.9789  0.2753  0.9092
 1278TIP3   OH225468   1.307   2.090   7.635 -0.2414  0.4423  0.1536
 1278TIP3    H125469   1.313   2.185   7.640 -0.8671  0.4340  1.3833
 1278TIP3    H225470   1.374   2.058   7.696  0.1515  0.0885 -0.4562
 1279TIP3   OH225471   4.257   6.042   7.196  0.6197  0.6125  0.0010
 1279TIP3    H125472   4.313   6.104   7.150 -0.7086  1.1273 -0.9997
 1279TIP3    H225473   4.287   6.044   7.287  0.0806  3.4240  0.2119
 1280TIP3   OH225474   0.499   2.135   8.292  0.3494  0.2266  0.0490
 1280TIP3    H125475   0.509   2.046   8.258  0.2635  0.4770 -0.6419
 1280TIP3    H225476   0.450   2.181   8.225 -0.4818  0.5409  0.8502
 1281TIP3   OH225477   5.689   3.748   1.039  0.0300  0.3179 -0.4872
 1281TIP3    H125478   5.691   3.833   0.997 -0.8433  0.0051 -1.1911
 1281TIP3    H225479   5.657   3.766   1.128 -2.1161  0.5110 -1.2487
 1282TIP3   OH225480   3.728   4.875   0.787  0.3111  0.5763  0.3978
 1282TIP3    H125481   3.817   4.860   0.754  1.0081 -0.5528  2.6441
 1282TIP3    H225482   3.682   4.793   0.769 -0.3788  1.2103 -0.8949
 1283TIP3   OH225483   5.439   1.378   1.564  0.9647  0.3465  0.3057
 1283TIP3    H125484   5.441   1.421   1.649  0.0989  2.5502 -0.6909
 1283TIP3    H225485   5.363   1.320   1.567  1.4916 -0.3006  1.3243
 1284TIP3   OH225486   3.472   4.689   0.254  0.1918 -0.4006  0.1405
 1284TIP3    H125487   3.398   4.740   0.289  0.7509 -0.2818  1.1838
 1284TIP3    H225488   3.484   4.618   0.317  1.4450  0.0179  0.3966
 1285TIP3   OH225489   5.571   4.684   6.814 -0.5934 -0.0065 -0.0827
 1285TIP3    H125490   5.651   4.737   6.812 -0.7539  0.2228 -1.2217
 1285TIP3    H225491   5.596   4.602   6.770 -0.6709 -0.4039  0.6072
 1286TIP3   OH225492   1.746   5.616   8.362 -0.0796 -0.2025 -0.2959
 1286TIP3    H125493   1.678   5.661   8.313 -0.3768 -1.3989 -1.0418
 1286TIP3    H225494   1.734   5.644   8.452 -0.4557  0.9278 -0.6883
 1287TIP3   OH225495   0.155   0.720   0.964 -0.5919  0.7264  0.1055
 1287TIP3    H125496   0.178   0.627   0.975  1.8886  0.9472 -2.2500
 1287TIP3    H225497   0.059   0.720   0.964 -0.6883 -1.9044 -0.3007
 1288TIP3   OH225498   3.716   5.274   1.625  0.2602  0.3137  0.4193
 1288TIP3    H125499   3.711   5.230   1.710  0.5043 -0.4666  0.0371
 1288TIP3    H225500   3.725   5.203   1.561 -2.4999  0.6571 -0.5247
 1289TIP3   OH225501   2.864   2.140   0.429 -0.1865 -0.5735 -0.4745
 1289TIP3    H125502   2.952   2.171   0.408 -0.3018  0.2056  0.1414
 1289TIP3    H225503   2.808   2.176   0.360 -0.4964  1.6182  0.8115
 1290TIP3   OH225504   0.287   2.759   7.447  0.5425  0.2445  0.2201
 1290TIP3    H125505   0.353   2.827   7.462 -0.1111  0.7215  0.9836
 1290TIP3    H225506   0.336   2.687   7.406  1.8713 -0.0228  2.1306
 1291TIP3   OH225507   0.983   1.449   8.028 -0.0093  0.2193  0.0913
 1291TIP3    H125508   1.018   1.504   8.098 -2.1553  0.2293  1.2616
 1291TIP3    H225509   0.968   1.364   8.070 -0.7824  0.0586 -0.4864
 1292TIP3   OH225510   3.340   1.232   6.104  0.5073 -0.5427 -0.0665
 1292TIP3    H125511   3.385   1.268   6.181  0.0915  0.7072 -0.3863
 1292TIP3    H225512   3.362   1.293   6.033 -0.7725 -0.5339 -0.4744
 1293TIP3   OH225513   3.689   0.462   1.632  0.7395 -0.5445  0.1544
 1293TIP3    H125514   3.741   0.470   1.712  1.4226 -0.2689 -0.3082
 1293TIP3    H225515   3.730   0.391   1.584 -0.5977 -1.7591  0.7209
 1294TIP3   OH225516   5.998   0.911   1.159 -0.2351  0.2233  0.1699
 1294TIP3    H125517   6.009   0.988   1.102 -0.5309 -1.6984 -2.7102
 1294TIP3    H225518   6.064   0.923   1.227  0.9768  2.1613 -1.2193
 1295TIP3   OH225519   3.994   4.722   8.208 -0.2301 -0.6638 -0.4220
 1295TIP3    H125520   3.986   4.813   8.237  0.3604 -0.7508  0.0267
 1295TIP3    H225521   4.016   4.673   8.287  0.8010 -0.9925 -0.8947
 1296TIP3   OH225522   3.998   0.695   7.645  0.1368 -0.3994  0.3855
 1296TIP3    H125523   4.015   0.637   7.570 -2.3980 -1.5157  0.5710
 1296TIP3    H225524   3.996   0.783   7.607 -0.5158 -0.8822 -0.7593
 1297TIP3   OH225525   5.144   2.906   1.163  0.6275  0.5681 -0.1348
 1297TIP3    H125526   5.128   2.812   1.153  1.8330  0.3329  0.0638
 1297TIP3    H225527   5.138   2.921   1.257  2.9021  0.1834  0.1393
 1298TIP3   OH225528   3.870   5.873   0.658  0.0883 -0.5330 -0.0449
 1298TIP3    H125529   3.851   5.816   0.584  0.7765  0.2294 -0.8327
 1298TIP3    H225530   3.829   5.956   0.635 -0.0988 -0.4248  0.6516
 1299TIP3   OH225531   5.445   5.592   6.454  0.3447  0.5791 -0.4571
 1299TIP3    H125532   5.435   5.497   6.465  1.4116  0.5408  0.3661
 1299TIP3    H225533   5.521   5.614   6.508  1.8341  1.4799 -2.7487
 1300TIP3   OH225534   2.755   0.544   8.441 -0.0752  0.0354 -0.3444
 1300TIP3    H125535   2.691   0.613   8.424  0.9877  0.9424 -0.7991
 1300TIP3    H225536   2.806   0.577   8.515 -0.1902 -0.7347  0.0912
 1301TIP3   OH225537   2.803   3.958   7.909 -0.3329 -0.2405 -0.0467
 1301TIP3    H125538   2.850   3.881   7.940  3.1188  0.8644 -1.9689
 1301TIP3    H225539   2.751   3.927   7.836 -0.1608 -0.9971  0.1456
 1302TIP3   OH225540   2.277   4.051   1.126  1.0049  0.2429 -0.0908
 1302TIP3    H125541   2.263   4.050   1.031 -0.5607  0.2766  0.1205
 1302TIP3    H225542   2.261   4.142   1.152  2.9247  0.5958  0.0408
 1303TIP3   OH225543   1.104   2.674   6.969 -0.1714 -0.5325  0.7232
 1303TIP3    H125544   1.087   2.598   6.914 -0.2708  0.5785 -0.8358
 1303TIP3    H225545   1.079   2.749   6.915  2.4528  0.7774  1.1574
 1304TIP3   OH225546   2.131   3.858   0.305 -0.2043  0.1508 -0.1581
 1304TIP3    H125547   2.197   3.862   0.374 -2.5816 -2.0895  2.4929
 1304TIP3    H225548   2.096   3.947   0.300  1.2378  0.7665  0.1871
 1305TIP3   OH225549   1.384   0.106   1.246  0.2544  0.2170  0.1727
 1305TIP3    H125550   1.407   0.187   1.291 -1.1837  0.5188  0.4081
 1305TIP3    H225551   1.468   0.063   1.230  0.8682  0.3946  2.5392
 1306TIP3   OH225552   5.680   6.524   1.272  0.2788 -0.5160  0.1421
 1306TIP3    H125553   5.606   6.566   1.228  0.9076 -1.0106 -1.4481
 1306TIP3    H225554   5.712   6.459   1.209  0.7998 -1.7460  1.6144
 1307TIP3   OH225555   6.338   5.770   0.157  0.1270  0.0818 -0.4490
 1307TIP3    H125556   6.320   5.844   0.099  0.4944  0.0176 -0.6530
 1307TIP3    H225557   6.303   5.694   0.111  0.1638  0.0679 -0.4540
 1308TIP3   OH225558   4.927   4.799   2.209 -0.1183 -0.1503  0.0255
 1308TIP3    H125559   4.979   4.874   2.240  0.8868  1.0399 -3.9766
 1308TIP3    H225560   4.864   4.837   2.149 -0.8548 -2.3684 -0.6819
 1309TIP3   OH225561   6.103   1.727   6.473  0.0285 -0.1690 -0.4205
 1309TIP3    H125562   6.056   1.699   6.552  1.4465  0.3815  0.6701
 1309TIP3    H225563   6.071   1.669   6.404 -1.5239 -0.4288  0.4729
 1310TIP3   OH225564   4.002   4.637   0.436 -0.4206  0.3868 -1.0547
 1310TIP3    H125565   4.060   4.573   0.394 -2.3592 -0.6494 -2.3048
 1310TIP3    H225566   3.938   4.659   0.368 -2.4131  0.2930  0.6942
 1311TIP3   OH225567   4.989   1.006   8.466 -0.2868 -0.1379  0.4658
 1311TIP3    H125568   4.954   1.068   8.529 -2.5420 -0.9370  0.0896
 1311TIP3    H225569   4.912   0.971   8.420  1.0517 -1.6140 -0.8210
 1312TIP3   OH225570   0.217   1.215   6.576  0.5644  0.1473  0.3394
 1312TIP3    H125571   0.143   1.193   6.633  0.7486 -0.3673  0.3903
 1312TIP3    H225572   0.194   1.179   6.491 -0.0253  1.5380 -0.1060
 1313TIP3   OH225573   4.216   4.322   1.238  0.4314 -0.1319  0.0749
 1313TIP3    H125574   4.180   4.317   1.150 -1.3108  0.8268  0.6772
 1313TIP3    H225575   4.240   4.414   1.250  1.9165 -0.5038  0.1610
 1314TIP3   OH225576   1.859   2.440   8.429 -0.0223  0.0977  0.2212
 1314TIP3    H125577   1.845   2.463   8.337 -0.2137  3.2676  0.9323
 1314TIP3    H225578   1.931   2.376   8.427  1.7341  1.9713 -2.0035
 1315TIP3   OH225579   6.154   5.859   1.164 -0.1698 -0.0992 -0.0459
 1315TIP3    H125580   6.193   5.833   1.248 -0.0748 -1.3216 -0.4558
 1315TIP3    H225581   6.071   5.812   1.161 -0.4177  0.3581 -0.4083
 1316TIP3   OH225582   3.868   6.200   1.146 -0.4104  0.2414 -0.1999
 1316TIP3    H125583   3.807   6.154   1.204 -0.2088  1.2823  0.8600
 1316TIP3    H225584   3.823   6.282   1.125 -0.0397  0.3179 -0.7179
 1317TIP3   OH225585   3.957   4.937   0.992 -0.4102 -0.1760 -0.0110
 1317TIP3    H125586   3.881   4.904   0.945 -0.8829  0.4352  0.3184
 1317TIP3    H225587   3.929   4.943   1.084 -0.3393  1.1210 -0.0561
 1318TIP3   OH225588   0.740   3.767   1.803  0.0131  0.5443 -0.1516
 1318TIP3    H125589   0.787   3.794   1.882  0.3958  2.6433 -1.0062
 1318TIP3    H225590   0.699   3.848   1.772 -2.6094 -0.8134 -0.5189
 1319TIP3   OH225591   3.815   0.550   1.879  0.2526 -0.0163  0.3533
 1319TIP3    H125592   3.889   0.601   1.846  0.7977 -1.2449 -0.4227
 1319TIP3    H225593   3.853   0.496   1.948  0.3234 -1.3257 -0.6702
 1320TIP3   OH225594   1.272   6.122   8.475 -0.4533  0.2942 -0.0260
 1320TIP3    H125595   1.231   6.133   8.561  0.1202 -2.5163  0.6901
 1320TIP3    H225596   1.366   6.117   8.494 -0.1272  1.6853 -1.0993
 1321TIP3   OH225597   5.733   3.980   0.934  0.5422 -0.6490  0.2753
 1321TIP3    H125598   5.658   4.029   0.901 -0.9859 -0.7864  3.2208
 1321TIP3    H225599   5.798   3.986   0.864 -1.8110  0.3348 -1.9915
 1322TIP3   OH225600   5.707   1.426   8.244 -0.3509  0.0138 -0.0976
 1322TIP3    H125601   5.773   1.357   8.233  0.3049  0.4472  0.9161
 1322TIP3    H225602   5.630   1.393   8.198  0.4879 -0.6181 -1.0984
 1323TIP3   OH225603   2.246   3.573   2.849 -0.1366 -0.2642  1.1005
 1323TIP3    H125604   2.253   3.478   2.863 -0.3813 -0.1677  1.9438
 1323TIP3    H225605   2.314   3.593   2.785 -1.7521 -1.3850 -1.0515
 1324TIP3   OH225606   1.397   4.111   8.887  0.0746  0.2080  0.1405
 1324TIP3    H125607   1.304   4.116   8.865  0.4258  0.6298 -1.3899
 1324TIP3    H225608   1.408   4.025   8.928 -1.3604  1.0076  2.3918
 1325TIP3   OH225609   6.477   2.485   0.865  0.1605  0.1649 -0.3322
 1325TIP3    H125610   6.528   2.564   0.878 -0.9240  0.6383  1.3465
 1325TIP3    H225611   6.499   2.457   0.776  1.0341  1.9882 -0.7395
 1326TIP3   OH225612   0.801   3.978   8.850 -0.1414  0.3514 -0.1673
 1326TIP3    H125613   0.772   3.915   8.915  0.2127  1.0643  0.7030
 1326TIP3    H225614   0.863   3.930   8.795  1.2524  0.3055  1.3772
 1327TIP3   OH225615   3.637   1.507   1.423 -0.1544  0.0487 -0.2385
 1327TIP3    H125616   3.575   1.579   1.408 -0.8494 -0.5717 -0.4118
 1327TIP3    H225617   3.617   1.477   1.512 -0.9439 -0.9285 -0.7164
 1328TIP3   OH225618   5.101   2.644   0.067 -0.0683 -0.5434  0.0170
 1328TIP3    H125619   5.129   2.587  -0.004 -0.8759 -0.6761 -0.2125
 1328TIP3    H225620   5.008   2.621   0.080 -0.5245  0.9863 -0.3468
 1329TIP3   OH225621   5.593   0.313   8.091  0.2265  0.1833 -0.4686
 1329TIP3    H125622   5.519   0.373   8.088 -0.4542 -0.6651 -1.9378
 1329TIP3    H225623   5.555   0.226   8.080  1.4958 -0.1648 -2.9895
 1330TIP3   OH225624   3.005   3.810   0.593  0.1701  0.2214  0.4574
 1330TIP3    H125625   2.985   3.736   0.651 -1.6189 -0.3247 -0.7380
 1330TIP3    H225626   3.064   3.773   0.527  0.3059  0.1945  0.5954
 1331TIP3   OH225627   1.441   2.215   1.356  0.2192  0.4395 -0.0807
 1331TIP3    H125628   1.356   2.241   1.320 -1.6590 -3.7919  0.6185
 1331TIP3    H225629   1.491   2.183   1.281 -0.5582 -0.9658 -0.0385
 1332TIP3   OH225630   0.335   2.907   7.148 -0.1223 -0.2513 -0.0453
 1332TIP3    H125631   0.279   2.845   7.101  1.0967  0.3712 -2.4548
 1332TIP3    H225632   0.412   2.855   7.172  0.5378  0.0808 -1.3518
 1333TIP3   OH225633   6.406   1.288   1.907  0.4747 -0.3425  0.0211
 1333TIP3    H125634   6.470   1.220   1.888  0.0004 -1.0659  0.8945
 1333TIP3    H225635   6.458   1.364   1.935  0.9812 -0.5419 -0.3774
 1334TIP3   OH225636   3.835   0.822   0.941 -0.1400  0.4217  0.0037
 1334TIP3    H125637   3.782   0.833   1.020 -1.8582  2.5921 -1.3364
 1334TIP3    H225638   3.863   0.911   0.918  1.4246 -0.3199 -1.1251
 1335TIP3   OH225639   4.002   4.999   8.261  0.3966  0.4072 -0.1077
 1335TIP3    H125640   3.937   5.063   8.290  0.8378  0.6998  0.2488
 1335TIP3    H225641   4.043   5.038   8.184 -1.2162 -0.6456 -1.5779
 1336TIP3   OH225642   0.918   0.916   8.266 -0.0143 -0.5972 -0.1735
 1336TIP3    H125643   0.846   0.955   8.316 -0.0744  0.1194 -0.7959
 1336TIP3    H225644   0.954   0.990   8.216  1.0461 -0.9808  0.0121
 1337TIP3   OH225645   3.389   3.806   2.419  0.0030  0.7959 -0.2600
 1337TIP3    H125646   3.410   3.742   2.487 -1.2765 -0.1676 -0.7316
 1337TIP3    H225647   3.345   3.877   2.466  1.6998  1.5265  0.3120
 1338TIP3   OH225648   1.261   1.657   1.851 -0.1785 -0.0777 -0.0014
 1338TIP3    H125649   1.264   1.564   1.827 -0.4049  0.4668 -2.3906
 1338TIP3    H225650   1.241   1.702   1.769  2.8762  2.3270  0.3962
 1339TIP3   OH225651   5.176   4.878   8.792 -0.1191 -0.2747  0.2084
 1339TIP3    H125652   5.135   4.810   8.738  0.0560  1.2678 -2.0032
 1339TIP3    H225653   5.267   4.879   8.763  0.8527 -1.5353  2.8601
 1340TIP3   OH225654   2.217   2.672   0.678 -0.0529  0.3269 -0.2980
 1340TIP3    H125655   2.209   2.763   0.647  0.3459  0.4676  0.0102
 1340TIP3    H225656   2.273   2.630   0.614 -0.6014  0.1770 -0.6885
 1341TIP3   OH225657   1.891   5.404   8.409 -0.1949 -0.2209 -0.1302
 1341TIP3    H125658   1.976   5.447   8.401 -0.0095 -0.8430 -2.2083
 1341TIP3    H225659   1.828   5.467   8.374 -0.3284 -0.4427 -0.2986
 1342TIP3   OH225660   6.628   6.607   1.762  0.0889  0.0969  0.0434
 1342TIP3    H125661   6.708   6.607   1.814 -0.4904 -1.5504  1.0169
 1342TIP3    H225662   6.597   6.697   1.764  0.5996  0.2683  1.7821
 1343TIP3   OH225663   0.481   3.359   8.407  0.0703  0.4510  0.2818
 1343TIP3    H125664   0.539   3.366   8.482  0.2723  0.9237  0.0861
 1343TIP3    H225665   0.480   3.447   8.369 -1.2178  0.5982  0.6086
 1344TIP3   OH225666   2.720   4.440   7.305  0.2050 -0.0391  0.2919
 1344TIP3    H125667   2.717   4.506   7.375 -0.4161  0.6562 -0.3791
 1344TIP3    H225668   2.706   4.489   7.224  1.0886 -0.8144 -0.3539
 1345TIP3   OH225669   4.266   3.037   8.751 -0.2032 -0.5878 -0.0636
 1345TIP3    H125670   4.353   3.071   8.770 -0.6949  0.4696  0.3661
 1345TIP3    H225671   4.210   3.074   8.819 -1.2651 -0.0042 -1.2085
 1346TIP3   OH225672   6.140   5.082   0.489 -0.2574 -0.9794 -0.0476
 1346TIP3    H125673   6.074   5.027   0.446 -0.9115 -0.5029  0.3117
 1346TIP3    H225674   6.107   5.092   0.579 -0.5037  0.5355 -0.2817
 1347TIP3   OH225675   6.758   6.341   1.613 -0.2641 -0.1136 -0.3745
 1347TIP3    H125676   6.846   6.303   1.609 -0.4821 -0.5217 -2.5288
 1347TIP3    H225677   6.773   6.434   1.630  0.4943 -0.4021  0.6253
 1348TIP3   OH225678   4.831   6.775   6.337 -0.7861  0.7067  0.4873
 1348TIP3    H125679   4.759   6.742   6.390 -1.6270  0.4005 -0.8232
 1348TIP3    H225680   4.894   6.703   6.335 -0.9280  0.5740  0.7385
 1349TIP3   OH225681   4.621   0.479   6.509  0.0827  0.0280  0.1974
 1349TIP3    H125682   4.643   0.396   6.467  1.1820  0.8464 -0.9364
 1349TIP3    H225683   4.695   0.536   6.490 -1.0408  1.5554  0.1696
 1350TIP3   OH225684   5.575   2.755   1.593  0.8025  0.5415  0.5192
 1350TIP3    H125685   5.594   2.692   1.663  0.7800  0.0378  0.0749
 1350TIP3    H225686   5.558   2.837   1.640  0.2838  0.0924  1.1410
 1351TIP3   OH225687   6.755   5.482   7.319 -0.0832  0.1416  0.0098
 1351TIP3    H125688   6.841   5.450   7.292 -1.0176 -1.6818 -1.0385
 1351TIP3    H225689   6.716   5.516   7.238  0.1507  2.3406  0.7476
 1352TIP3   OH225690   4.339   2.001   8.518  0.2952  0.0594 -0.6834
 1352TIP3    H125691   4.314   1.967   8.432  0.1535 -1.3842 -0.1115
 1352TIP3    H225692   4.315   1.931   8.578  0.7614  0.8854  0.4884
 1353TIP3   OH225693   3.029   3.485   1.498  0.1015  0.1495 -0.4777
 1353TIP3    H125694   2.958   3.515   1.555 -1.0249 -0.0037 -1.7452
 1353TIP3    H225695   3.034   3.552   1.429 -1.1754 -1.5420 -2.3031
 1354TIP3   OH225696   5.957   5.380   0.745 -0.1786 -0.2584  0.0958
 1354TIP3    H125697   6.022   5.395   0.676 -0.2226 -2.1633 -0.4185
 1354TIP3    H225698   5.903   5.308   0.713 -1.1984 -0.1548  1.4545
 1355TIP3   OH225699   4.018   5.134   7.474  0.0227  0.0932  0.4909
 1355TIP3    H125700   4.094   5.143   7.531 -0.5851  0.0654  1.3366
 1355TIP3    H225701   3.991   5.224   7.456  0.5173  0.1107 -0.1806
 1356TIP3   OH225702   4.261   3.379   1.044 -0.0641  0.7306 -0.2919
 1356TIP3    H125703   4.183   3.329   1.021 -0.0211 -0.4138  1.7840
 1356TIP3    H225704   4.269   3.445   0.976 -1.4784 -0.6274 -1.8416
 1357TIP3   OH225705   2.756   1.938   1.264 -0.6753  0.7242 -0.0147
 1357TIP3    H125706   2.674   1.985   1.278 -1.2399 -0.6196  1.5535
 1357TIP3    H225707   2.822   1.990   1.309 -0.8120  1.3663 -0.5495
 1358TIP3   OH225708   2.071   0.042   8.027  0.4650  0.3122  0.0681
 1358TIP3    H125709   1.993   0.097   8.040 -0.4260 -0.6545 -0.9391
 1358TIP3    H225710   2.139   0.103   7.999 -0.8749  0.7999 -2.4620
 1359TIP3   OH225711   3.993   0.056   6.481  0.5517  0.0717 -0.0128
 1359TIP3    H125712   4.017   0.047   6.389 -0.0847 -1.4692 -0.0488
 1359TIP3    H225713   4.067   0.017   6.528 -0.1792 -1.3078  0.0201
 1360TIP3   OH225714   2.294   0.446   7.374  0.0407 -0.1464  0.4181
 1360TIP3    H125715   2.383   0.476   7.390 -0.0967  0.6256 -0.2063
 1360TIP3    H225716   2.298   0.405   7.287  0.0501 -1.2476  0.9200
 1361TIP3   OH225717   2.493   6.004   8.660  0.4890 -0.1072  0.0115
 1361TIP3    H125718   2.566   6.065   8.646 -1.0593  2.2668  1.6889
 1361TIP3    H225719   2.415   6.053   8.636 -0.7059 -2.1851 -0.5843
 1362TIP3   OH225720   1.483   2.981   8.177 -0.4867 -0.0146  0.3840
 1362TIP3    H125721   1.418   3.050   8.186  0.0267  0.5529 -0.2012
 1362TIP3    H225722   1.437   2.901   8.204 -0.6468  0.7544  2.4871
 1363TIP3   OH225723   1.239   4.922   7.262  0.0687 -0.1478 -0.1920
 1363TIP3    H125724   1.160   4.903   7.212 -0.0213  0.4384 -0.2776
 1363TIP3    H225725   1.232   5.015   7.284  0.7548 -0.0825 -0.2355
 1364TIP3   OH225726   1.372   6.475   7.889 -0.0376 -0.1405 -0.3407
 1364TIP3    H125727   1.464   6.459   7.909  0.0570  1.8677  1.1151
 1364TIP3    H225728   1.324   6.429   7.957  0.0867  1.8285  1.1783
 1365TIP3   OH225729   5.074   6.227   0.315  0.4302 -0.7047 -0.3612
 1365TIP3    H125730   5.022   6.261   0.388  1.3545  1.6966 -0.7153
 1365TIP3    H225731   5.011   6.177   0.263 -0.9805  0.0821  0.4967
 1366TIP3   OH225732   0.188   5.257   8.758 -0.7758  0.0270  0.1156
 1366TIP3    H125733   0.279   5.285   8.761 -0.8390  0.3616 -0.7215
 1366TIP3    H225734   0.139   5.337   8.740 -1.1664 -0.2627 -0.1157
 1367TIP3   OH225735   6.768   3.993   1.352 -0.1167 -0.1676 -0.0793
 1367TIP3    H125736   6.702   4.051   1.314 -1.1308 -0.5407  1.0342
 1367TIP3    H225737   6.842   4.051   1.370 -0.8161  0.6563  0.2909
 1368TIP3   OH225738   0.681   0.010   6.741  0.0505 -0.4810 -0.1655
 1368TIP3    H125739   0.645  -0.011   6.654  2.1766  1.5569 -1.6770
 1368TIP3    H225740   0.768   0.043   6.722  1.1942 -1.4298  2.9622
 1369TIP3   OH225741   1.584   5.065   7.910  0.1760  0.6844  0.1728
 1369TIP3    H125742   1.623   5.033   7.828 -0.1120  0.4959  0.1110
 1369TIP3    H225743   1.586   5.160   7.902 -3.1791  0.7293 -1.6474
 1370TIP3   OH225744   4.548   2.364   0.052 -0.2222 -0.1306  0.5660
 1370TIP3    H125745   4.525   2.452   0.081 -0.2496 -0.0787  0.3919
 1370TIP3    H225746   4.643   2.358   0.067 -0.3685 -0.3868  1.3900
 1371TIP3   OH225747   2.898   3.907   1.921  0.0336 -0.2374  0.1069
 1371TIP3    H125748   2.886   3.893   2.015 -1.0595  0.3951  0.0771
 1371TIP3    H225749   2.901   3.819   1.884 -0.6706 -0.4800  0.6047
 1372TIP3   OH225750   0.190   3.966   7.918 -1.1406 -0.1734  0.4594
 1372TIP3    H125751   0.254   4.035   7.937 -1.3770  0.6934 -1.5741
 1372TIP3    H225752   0.132   3.965   7.993 -1.2327  2.0023  0.4731
 1373TIP3   OH225753   5.625   1.828   2.599  0.1128  0.5276  0.5742
 1373TIP3    H125754   5.537   1.832   2.636 -0.1095 -0.2447  0.1538
 1373TIP3    H225755   5.636   1.736   2.574  0.5448  0.8745 -0.5729
 1374TIP3   OH225756   1.487   3.625   1.767  0.9972 -0.0614  0.5299
 1374TIP3    H125757   1.424   3.555   1.748 -0.9771  1.6083  0.5011
 1374TIP3    H225758   1.493   3.628   1.862 -0.6958  1.1123  0.6507
 1375TIP3   OH225759   5.722   5.359   1.130 -0.0838 -0.5875  0.0445
 1375TIP3    H125760   5.742   5.452   1.132 -2.2518 -0.0641 -0.3059
 1375TIP3    H225761   5.676   5.343   1.212 -0.0048 -1.3005 -0.0423
 1376TIP3   OH225762   4.757   3.557   8.129 -0.0672 -0.8161 -0.3252
 1376TIP3    H125763   4.824   3.505   8.174 -0.7415 -2.0528 -0.6884
 1376TIP3    H225764   4.754   3.640   8.177  2.2398 -0.4125 -0.7613
 1377TIP3   OH225765   4.788   6.374   0.261  0.0244  0.2958 -0.0686
 1377TIP3    H125766   4.737   6.425   0.198 -0.2517  0.4868  0.3061
 1377TIP3    H225767   4.857   6.433   0.289  0.2882  0.1305 -0.3673
 1378TIP3   OH225768   1.550   3.902   7.310  1.0534  0.1890  0.4329
 1378TIP3    H125769   1.495   3.925   7.385  1.5697  0.7059  0.6709
 1378TIP3    H225770   1.546   3.979   7.253 -1.2937 -1.1211 -1.2996
 1379TIP3   OH225771   2.757   6.505   7.557 -0.4425  0.5641 -0.2037
 1379TIP3    H125772   2.756   6.593   7.518 -0.1037  0.7113  0.1177
 1379TIP3    H225773   2.721   6.448   7.489  1.8506  0.5002 -1.4653
 1380TIP3   OH225774   4.724   1.081   7.830  0.2305  0.0853  0.1309
 1380TIP3    H125775   4.783   1.153   7.847 -0.7212  0.6676  1.0845
 1380TIP3    H225776   4.637   1.121   7.829 -0.1392 -0.6321 -1.8760
 1381TIP3   OH225777   4.127   2.517   6.686  0.2248  0.1992 -0.3593
 1381TIP3    H125778   4.151   2.609   6.697  1.6338 -0.1864  0.0273
 1381TIP3    H225779   4.031   2.517   6.687  0.1959  1.6400 -0.2566
 1382TIP3   OH225780   2.763   1.244   7.971  0.1971  0.1414 -0.1937
 1382TIP3    H125781   2.749   1.338   7.986  2.1456  0.4212  0.2273
 1382TIP3    H225782   2.677   1.204   7.983 -0.6304  1.8461 -0.1583
 1383TIP3   OH225783   0.277   5.700   1.759  0.2069 -0.1194 -0.4442
 1383TIP3    H125784   0.200   5.698   1.815  0.5554  0.4147  0.0590
 1383TIP3    H225785   0.287   5.609   1.729 -0.0153 -0.4006  0.3104
 1384TIP3   OH225786   0.497   0.924   1.846  0.1707 -0.1044  0.7733
 1384TIP3    H125787   0.509   1.009   1.889 -1.3658  0.4185  0.2187
 1384TIP3    H225788   0.573   0.915   1.789  0.7826  0.4868  1.4641
 1385TIP3   OH225789   6.118   4.551   7.465  0.1388 -0.2971 -0.2437
 1385TIP3    H125790   6.136   4.626   7.522  0.0205  0.8559 -1.6836
 1385TIP3    H225791   6.178   4.561   7.391  0.1564 -1.6694 -0.4530
 1386TIP3   OH225792   3.889   3.592   1.878  0.2296 -0.0445 -0.6501
 1386TIP3    H125793   3.945   3.616   1.951  0.3749 -0.9487 -0.4482
 1386TIP3    H225794   3.803   3.577   1.916 -1.1072  4.4451 -1.3619
 1387TIP3   OH225795   4.322   0.448   8.763 -0.2882  0.1318  0.2421
 1387TIP3    H125796   4.236   0.414   8.738  0.2054 -1.4052  0.5741
 1387TIP3    H225797   4.312   0.474   8.854 -0.0831 -1.2581  0.6843
 1388TIP3   OH225798   0.677   4.787   8.774 -0.3119  0.2303 -0.9250
 1388TIP3    H125799   0.644   4.845   8.705  1.5442  0.2622 -1.8329
 1388TIP3    H225800   0.764   4.761   8.745  0.6734  0.4694  1.5406
 1389TIP3   OH225801   1.244   4.866   8.200  0.1919 -0.5271  0.1534
 1389TIP3    H125802   1.322   4.811   8.209  0.9288 -0.0072 -2.3756
 1389TIP3    H225803   1.205   4.839   8.117 -1.1150  0.7163  0.3316
 1390TIP3   OH225804   2.638   5.837   0.541 -0.0705 -0.1387  0.2175
 1390TIP3    H125805   2.566   5.879   0.493 -0.2583 -1.0607 -0.3337
 1390TIP3    H225806   2.695   5.803   0.472  0.5143 -0.0592  0.6559
 1391TIP3   OH225807   6.058   1.968   8.508  0.0196  0.5625 -0.4423
 1391TIP3    H125808   5.979   1.948   8.458 -0.9715  1.4873  0.6685
 1391TIP3    H225809   6.031   2.039   8.567  1.2633 -0.1146  1.0120
 1392TIP3   OH225810   2.078   3.700   0.971  0.3654 -0.2988 -0.0793
 1392TIP3    H125811   2.173   3.712   0.968  0.3753 -0.2914  0.2067
 1392TIP3    H225812   2.043   3.789   0.966  0.3984 -0.2399  0.5603
 1393TIP3   OH225813   5.224   3.962   7.962 -0.0331 -0.1596  0.4001
 1393TIP3    H125814   5.307   3.914   7.964  0.1220  0.0573  3.1406
 1393TIP3    H225815   5.250   4.054   7.968 -0.4051 -0.1443  2.8024
 1394TIP3   OH225816   6.603   4.090   7.642  0.4231  0.0876 -0.1971
 1394TIP3    H125817   6.610   4.070   7.735 -2.2798  0.7197  0.2113
 1394TIP3    H225818   6.671   4.155   7.626 -0.1715  1.2419  1.7493
 1395TIP3   OH225819   5.856   1.452   0.512  0.1399  0.0525  0.1025
 1395TIP3    H125820   5.875   1.503   0.591  0.5308  1.9512 -1.1428
 1395TIP3    H225821   5.940   1.412   0.489 -0.0821 -0.9030  0.8710
 1396TIP3   OH225822   5.304   4.740   0.946  0.4439  0.0714  0.5028
 1396TIP3    H125823   5.380   4.683   0.961 -0.8040 -1.7363  0.3140
 1396TIP3    H225824   5.326   4.788   0.866  1.2609 -0.6496  0.2676
 1397TIP3   OH225825   1.041   0.898   7.927  0.1880  0.5080  0.0089
 1397TIP3    H125826   1.087   0.825   7.886 -2.1198 -1.3768  0.6086
 1397TIP3    H225827   1.060   0.888   8.021 -0.3218  0.5215  0.1169
 1398TIP3   OH225828   2.056   1.430   1.346  0.4838  0.6089  0.5492
 1398TIP3    H125829   2.110   1.462   1.419 -0.1564  0.4821  1.0928
 1398TIP3    H225830   2.115   1.431   1.271  1.2346  0.5224  1.1140
 1399TIP3   OH225831   5.166   4.993   0.911 -0.3359  0.6429 -0.3711
 1399TIP3    H125832   5.184   5.054   0.840  2.1867 -0.2541 -0.6241
 1399TIP3    H225833   5.071   4.982   0.911 -0.4445  0.8913 -3.4084
 1400TIP3   OH225834   3.735   1.087   6.208  0.0379 -0.1561  0.1036
 1400TIP3    H125835   3.809   1.033   6.235  1.9117  1.7921 -0.8655
 1400TIP3    H225836   3.733   1.081   6.113 -0.5379  0.4818  0.0652
 1401TIP3   OH225837   5.047   3.278   8.088 -0.3505 -0.9706  0.3032
 1401TIP3    H125838   5.039   3.347   8.022 -1.3930 -1.4621 -0.1186
 1401TIP3    H225839   4.979   3.299   8.152 -0.5222 -1.4757  0.2913
 1402TIP3   OH225840   3.654   0.562   1.003 -0.4748 -0.1164 -0.0849
 1402TIP3    H125841   3.644   0.533   0.912 -0.9985 -1.5794  0.4069
 1402TIP3    H225842   3.747   0.547   1.023 -0.1405  1.1142 -0.6563
 1403TIP3   OH225843   6.697   6.546   6.767  0.1587  0.1524 -0.3316
 1403TIP3    H125844   6.659   6.488   6.701 -1.2428 -0.8126  1.2306
 1403TIP3    H225845   6.760   6.599   6.719 -1.1164 -0.1849 -2.5283
 1404TIP3   OH225846   1.107   1.907   7.734 -0.6439  0.0986  0.1998
 1404TIP3    H125847   1.029   1.920   7.788 -1.4850  0.5409 -1.0625
 1404TIP3    H225848   1.161   1.984   7.750 -1.0527  0.3961  0.1519
 1405TIP3   OH225849   0.258   1.513   0.594 -0.2256 -0.3685 -0.7589
 1405TIP3    H125850   0.349   1.492   0.576  0.7218  0.2401  2.6002
 1405TIP3    H225851   0.253   1.608   0.588 -0.3819 -0.3238 -0.0537
 1406TIP3   OH225852   4.678   2.778   8.791 -0.1216 -0.1027  0.1713
 1406TIP3    H125853   4.641   2.824   8.717  0.3694 -1.1688 -0.7653
 1406TIP3    H225854   4.773   2.780   8.777  0.1283  1.2732  1.7434
 1407TIP3   OH225855   0.300   1.885   8.173  0.5716  0.2436  1.0211
 1407TIP3    H125856   0.262   1.935   8.245  0.5217  1.1012  0.4060
 1407TIP3    H225857   0.261   1.922   8.094  0.2611 -1.0069  0.5668
 1408TIP3   OH225858   1.836   4.622   7.159 -0.1576 -0.2704 -0.2928
 1408TIP3    H125859   1.749   4.655   7.136 -0.5099 -1.7377 -1.2022
 1408TIP3    H225860   1.866   4.579   7.079  0.6887 -1.2551  0.5397
 1409TIP3   OH225861   3.791   0.277   8.314  0.0431  0.4156  0.2128
 1409TIP3    H125862   3.783   0.353   8.373  0.0929  1.5880 -1.2363
 1409TIP3    H225863   3.870   0.233   8.344  0.2247  1.1478  0.8677
 1410TIP3   OH225864   3.939   0.308   7.995  0.2075 -0.2641 -0.0858
 1410TIP3    H125865   3.868   0.292   8.058  1.2373  0.7222  1.4061
 1410TIP3    H225866   3.908   0.383   7.944 -0.3496 -0.6456 -0.3255
 1411TIP3   OH225867   6.407   5.088   1.385  0.8093  0.3155 -0.0410
 1411TIP3    H125868   6.441   5.136   1.310  0.6564 -1.1878 -1.1177
 1411TIP3    H225869   6.484   5.071   1.440  1.5203 -1.1894 -1.3976
 1412TIP3   OH225870   0.655   1.929   1.434  0.3926  0.0105  0.0090
 1412TIP3    H125871   0.702   1.983   1.497  1.4025  0.4397 -1.0625
 1412TIP3    H225872   0.615   1.992   1.374 -0.6882 -0.3849  0.2945
 1413TIP3   OH225873   6.074   1.262   1.119  0.3087  0.3247  0.4257
 1413TIP3    H125874   6.076   1.353   1.091 -1.0164  0.1317 -0.3723
 1413TIP3    H225875   6.064   1.267   1.215 -0.8528  1.0408  0.2876
 1414TIP3   OH225876   4.600   5.538   8.521 -0.2722  0.5188  0.8916
 1414TIP3    H125877   4.608   5.502   8.609  0.3847 -2.0751 -0.1199
 1414TIP3    H225878   4.670   5.495   8.471 -1.3069  1.0533 -1.1364
 1415TIP3   OH225879   2.516   0.019   0.960  0.1652 -0.3662 -0.2623
 1415TIP3    H125880   2.562  -0.054   1.003  1.5464  0.0498 -0.9720
 1415TIP3    H225881   2.578   0.092   0.964 -0.7405  0.4358 -0.6089
 1416TIP3   OH225882   5.215   5.830   1.010  0.1071  0.2418 -0.5136
 1416TIP3    H125883   5.197   5.912   0.964  0.9489  0.7802  0.0560
 1416TIP3    H225884   5.295   5.797   0.969 -0.5824 -0.6332 -1.1625
 1417TIP3   OH225885   5.125   0.382   7.430  0.4106 -0.5376  0.3627
 1417TIP3    H125886   5.130   0.296   7.472  2.3280 -1.0312 -0.7808
 1417TIP3    H225887   5.128   0.363   7.337 -0.0450  0.7479  0.0668
 1418TIP3   OH225888   4.055   3.113   1.466 -0.1402  0.3865 -0.2258
 1418TIP3    H125889   4.109   3.189   1.447  1.0610 -0.2597  0.4799
 1418TIP3    H225890   4.014   3.091   1.382  2.9173 -0.7792 -1.5451
 1419TIP3   OH225891   0.507   6.126   7.051 -0.0699 -0.1016 -0.6093
 1419TIP3    H125892   0.501   6.030   7.046  1.3323 -0.1561 -2.0699
 1419TIP3    H225893   0.598   6.145   7.027 -0.2309  1.5939  0.0077
 1420TIP3   OH225894   4.823   1.408   8.363 -0.3161 -0.4576 -0.1450
 1420TIP3    H125895   4.909   1.426   8.402  0.2719  1.4216 -2.1337
 1420TIP3    H225896   4.761   1.433   8.432  0.7004  0.8761  0.3385
 1421TIP3   OH225897   5.732   1.801   7.065  0.2201 -0.5220  0.0924
 1421TIP3    H125898   5.722   1.826   6.973 -1.3463 -2.6222 -0.3656
 1421TIP3    H225899   5.815   1.753   7.068  0.9251  0.6487  0.0780
 1422TIP3   OH225900   0.481   4.259   0.376 -0.3374 -0.2992 -0.2108
 1422TIP3    H125901   0.482   4.176   0.424  0.0480 -0.8354 -1.1241
 1422TIP3    H225902   0.562   4.259   0.326 -1.0736 -0.1055 -1.4477
 1423TIP3   OH225903   3.287   0.370   1.596  0.3342 -0.4846 -0.3612
 1423TIP3    H125904   3.322   0.449   1.556  0.5012 -0.0881  0.5472
 1423TIP3    H225905   3.340   0.357   1.675  0.3082 -1.5002 -0.4906
 1424TIP3   OH225906   4.024   2.560   8.635  0.3448  0.3819  0.2692
 1424TIP3    H125907   4.003   2.506   8.559  0.7849 -0.3131  0.6284
 1424TIP3    H225908   4.087   2.624   8.603 -2.4996  2.7948 -0.9456
 1425TIP3   OH225909   0.767   1.730   0.232 -0.3816 -0.5060  0.5107
 1425TIP3    H125910   0.790   1.650   0.184 -3.3924 -0.7110 -0.8240
 1425TIP3    H225911   0.824   1.797   0.194 -0.6122 -1.2561 -1.2800
 1426TIP3   OH225912   0.466   4.657   8.882  0.0030 -0.7397 -0.4345
 1426TIP3    H125913   0.544   4.712   8.887  0.6478 -1.6590 -0.1086
 1426TIP3    H225914   0.471   4.615   8.797  0.0942 -1.1259 -0.2408
 1427TIP3   OH225915   6.758   1.017   7.422 -0.1002  0.1721 -0.5682
 1427TIP3    H125916   6.763   0.949   7.489  0.9204  1.1154  0.3507
 1427TIP3    H225917   6.692   0.985   7.360 -1.5140 -0.4526  1.1805
 1428TIP3   OH225918   1.245   5.530   0.514  0.0072 -0.1018  0.0819
 1428TIP3    H125919   1.213   5.441   0.532  0.1732 -0.5541 -1.7428
 1428TIP3    H225920   1.176   5.570   0.462  0.3671  0.5162  0.0719
 1429TIP3   OH225921   4.729   4.812   1.658 -0.0883 -0.0994 -0.0149
 1429TIP3    H125922   4.682   4.747   1.606 -1.3618 -0.3048  1.3204
 1429TIP3    H225923   4.811   4.769   1.681 -0.3550 -0.7371 -0.2296
 1430TIP3   OH225924   6.724   5.051   1.453 -0.2744 -0.5687 -0.0408
 1430TIP3    H125925   6.808   5.018   1.421 -0.5305 -1.4645  0.1705
 1430TIP3    H225926   6.668   4.973   1.457 -1.3433  0.1234 -0.8750
 1431TIP3   OH225927   0.888   6.387   1.360  0.6132  0.0067  0.6959
 1431TIP3    H125928   0.912   6.295   1.369  0.0617 -0.1265  0.8545
 1431TIP3    H225929   0.911   6.427   1.444 -1.9892 -0.6568  1.8454
 1432TIP3   OH225930   5.337   4.219   7.972 -0.4831 -0.5844  0.1004
 1432TIP3    H125931   5.391   4.274   7.915  2.7266 -0.6805  2.7247
 1432TIP3    H225932   5.263   4.274   7.995  0.1818  0.8692 -1.0412
 1433TIP3   OH225933   2.336   3.631   8.605 -0.3782 -0.5145 -0.0072
 1433TIP3    H125934   2.299   3.620   8.518 -0.4473  0.4386 -0.1048
 1433TIP3    H225935   2.273   3.685   8.653 -1.1974 -2.4356  1.2128
 1434TIP3   OH225936   5.975   5.394   1.980 -0.2957 -0.8913  0.7060
 1434TIP3    H125937   6.053   5.426   2.023 -0.6756  0.2197  0.6084
 1434TIP3    H225938   5.996   5.397   1.887 -0.1280 -1.5075  0.7193
 1435TIP3   OH225939   1.087   2.811   2.084  0.0428  0.6831  0.4367
 1435TIP3    H125940   1.041   2.745   2.031  0.9458 -1.1522  1.7963
 1435TIP3    H225941   1.034   2.890   2.076 -2.7608 -1.0032  1.0312
 1436TIP3   OH225942   2.281   6.433   2.176 -0.2399 -0.0525  0.1397
 1436TIP3    H125943   2.188   6.411   2.167 -0.6211  2.1375 -2.2165
 1436TIP3    H225944   2.282   6.508   2.235 -0.0493  0.4047 -0.4434
 1437TIP3   OH225945   0.395   2.488   1.025 -0.1766  0.0777 -0.1164
 1437TIP3    H125946   0.479   2.534   1.021 -0.2008  0.0795 -0.6559
 1437TIP3    H225947   0.329   2.557   1.017 -0.2774  0.2644  1.8713
 1438TIP3   OH225948   5.721   0.056   8.896  0.2591  0.5113 -0.1764
 1438TIP3    H125949   5.654   0.103   8.946 -0.8891 -0.1685 -1.0157
 1438TIP3    H225950   5.802   0.102   8.915 -0.4242  1.2825  0.9838
 1439TIP3   OH225951   6.601   4.661   7.231  0.1450  0.2084 -0.3347
 1439TIP3    H125952   6.674   4.644   7.289  1.0585  0.2627 -1.4258
 1439TIP3    H225953   6.604   4.590   7.167  0.7139  1.4501 -1.7608
 1440TIP3   OH225954   1.841   1.402   2.336 -0.0650 -0.1010  0.1341
 1440TIP3    H125955   1.775   1.389   2.268  1.7441 -1.7087 -1.4063
 1440TIP3    H225956   1.870   1.314   2.359  1.0728  0.5342  1.2600
 1441TIP3   OH225957   4.804   6.060   7.232  0.3905  0.6575 -0.1577
 1441TIP3    H125958   4.751   5.981   7.229 -1.1041  1.5817  0.5559
 1441TIP3    H225959   4.785   6.105   7.150  1.3287  0.2440 -0.6158
 1442TIP3   OH225960   0.373   5.468   0.034 -0.2825  0.1609  0.2994
 1442TIP3    H125961   0.459   5.482  -0.005 -0.4093  1.6512  0.4788
 1442TIP3    H225962   0.386   5.397   0.096  0.6928  0.0019 -0.0682
 1443TIP3   OH225963   4.505   4.463   1.122  0.0461  0.0737 -0.0482
 1443TIP3    H125964   4.515   4.384   1.069 -0.4065 -0.4101  0.5634
 1443TIP3    H225965   4.454   4.522   1.067  0.6915  0.0790 -0.6501
 1444TIP3   OH225966   0.396   6.715   0.380  0.0004  0.3640  0.3255
 1444TIP3    H125967   0.487   6.723   0.349  0.2770 -2.0936  0.2952
 1444TIP3    H225968   0.398   6.754   0.468  0.9189  0.9196  0.0812
 1445TIP3   OH225969   2.068   1.632   0.153  0.5646  0.2791 -0.1957
 1445TIP3    H125970   2.144   1.590   0.195 -1.1826 -1.8138  1.0630
 1445TIP3    H225971   2.022   1.675   0.225  0.4505  1.4579 -0.9410
 1446TIP3   OH225972   3.262   6.389   0.330  0.1184 -0.0019 -0.1383
 1446TIP3    H125973   3.179   6.346   0.309 -0.1258  0.3778  0.0248
 1446TIP3    H225974   3.253   6.477   0.293  0.5480 -0.0387 -0.3344
 1447TIP3   OH225975   1.370   2.525   8.149  0.7533 -0.3786 -0.3434
 1447TIP3    H125976   1.410   2.446   8.187  1.0098 -0.4003 -0.6559
 1447TIP3    H225977   1.376   2.511   8.055  2.7486  0.9569 -0.4691
 1448TIP3   OH225978   3.445   4.902   8.731  0.1535 -0.7677  0.2001
 1448TIP3    H125979   3.473   4.818   8.694 -1.0282 -1.1546  0.1267
 1448TIP3    H225980   3.357   4.915   8.697 -0.0970 -0.0320  1.0912
 1449TIP3   OH225981   5.551   4.315   7.417  0.4015 -0.2899 -0.9800
 1449TIP3    H125982   5.584   4.309   7.327 -0.0614  1.2155 -1.2734
 1449TIP3    H225983   5.628   4.304   7.472  0.8665 -0.0790 -1.5869
 1450TIP3   OH225984   4.173   1.607   7.482  0.5601 -0.4855 -0.4185
 1450TIP3    H125985   4.230   1.556   7.540 -0.4471 -1.0025  0.1440
 1450TIP3    H225986   4.127   1.542   7.430 -2.3088 -0.3810  1.7603
 1451TIP3   OH225987   1.465   1.998   0.212 -0.7715 -0.1421  0.0540
 1451TIP3    H125988   1.488   1.959   0.297 -0.6767  1.6638  0.9229
 1451TIP3    H225989   1.392   1.946   0.180 -1.5059 -0.2453  1.7682
 1452TIP3   OH225990   6.203   5.746   1.433  0.0332 -0.7735  0.1010
 1452TIP3    H125991   6.196   5.714   1.523 -1.0448 -2.6213 -0.5923
 1452TIP3    H225992   6.289   5.716   1.404  0.3192 -0.3077  0.4535
 1453TIP3   OH225993   4.866   4.589   2.385  0.8685  0.5814  0.9665
 1453TIP3    H125994   4.794   4.603   2.447 -2.8110 -0.7904 -2.6077
 1453TIP3    H225995   4.871   4.670   2.335 -0.3069 -0.2660 -0.6339
 1454TIP3   OH225996   4.683   4.667   2.568 -0.3599 -0.1243 -0.4940
 1454TIP3    H125997   4.605   4.617   2.590 -0.8688  1.3164  1.1861
 1454TIP3    H225998   4.650   4.745   2.523 -0.0037  0.8379  0.8447
 1455TIP3   OH225999   3.019   2.398   8.884 -0.3939 -0.0541  0.2329
 1455TIP3    H126000   3.104   2.355   8.877 -1.2327 -1.6553 -0.6884
 1455TIP3    H226001   3.031   2.463   8.954  1.8733  0.5512 -0.6230
 1456TIP3   OH226002   3.648   6.555   2.353 -0.2463  0.4352 -0.3589
 1456TIP3    H126003   3.655   6.650   2.345 -1.9185  0.6832  0.5432
 1456TIP3    H226004   3.725   6.529   2.403  0.5685  1.2145 -1.1821
 1457TIP3   OH226005   6.389   5.093   1.958 -0.8095 -0.1751  0.4837
 1457TIP3    H126006   6.313   5.036   1.948 -1.1395  0.5310 -1.3366
 1457TIP3    H226007   6.446   5.046   2.020 -1.1507 -2.4148 -0.7714
 1458TIP3   OH226008   4.663   4.708   8.194 -0.7464 -0.1877  0.0586
 1458TIP3    H126009   4.575   4.747   8.195 -0.8526 -0.3049 -1.4735
 1458TIP3    H226010   4.705   4.746   8.116  0.1989 -0.9020  0.2051
 1459TIP3   OH226011   4.895   5.961   8.206 -0.6260  0.2196  1.0842
 1459TIP3    H126012   4.930   5.900   8.141 -0.0832  0.6267  0.9812
 1459TIP3    H226013   4.933   6.045   8.182 -2.0584  0.7795  0.7108
 1460TIP3   OH226014   0.459   3.639   8.262 -0.1276 -0.1963 -0.1335
 1460TIP3    H126015   0.548   3.674   8.267  0.5989 -2.1124  1.6967
 1460TIP3    H226016   0.449   3.612   8.171  0.1551  2.3557 -1.0108
 1461TIP3   OH226017   2.970   1.249   8.175  0.0739 -0.8834  0.4037
 1461TIP3    H126018   2.932   1.319   8.227 -0.1287 -0.6747 -0.0229
 1461TIP3    H226019   2.895   1.206   8.133  0.3577  0.7303 -1.9780
 1462TIP3   OH226020   0.283   3.238   0.041 -0.1525  0.0635  0.7298
 1462TIP3    H126021   0.222   3.312   0.032 -0.3760 -0.0703  1.1314
 1462TIP3    H226022   0.363   3.278   0.073  1.0512  0.7385 -2.7097
 1463TIP3   OH226023   6.745   6.112   0.157 -0.3218 -0.3062  0.0638
 1463TIP3    H126024   6.840   6.113   0.145 -0.1527  0.3324  1.3148
 1463TIP3    H226025   6.710   6.103   0.068  0.9054 -1.3807 -0.3556
 1464TIP3   OH226026   5.459   1.089   1.081  0.0905  0.8951  0.2401
 1464TIP3    H126027   5.381   1.034   1.082 -0.3880  1.5453  1.9018
 1464TIP3    H226028   5.478   1.106   1.174  2.1709  0.8084 -0.1239
 1465TIP3   OH226029   1.145   2.152   7.923  0.4930  0.1662 -0.4205
 1465TIP3    H126030   1.061   2.128   7.884  1.6750 -0.3273 -2.8367
 1465TIP3    H226031   1.126   2.230   7.975 -1.5194 -0.1788 -0.5591
 1466TIP3   OH226032   6.019   1.270   1.379 -0.1380  0.2856  0.1325
 1466TIP3    H126033   6.081   1.343   1.380  1.1033 -0.6835 -1.5942
 1466TIP3    H226034   5.934   1.311   1.399  0.5306  2.1991 -0.6915
 1467TIP3   OH226035   3.023   2.243   0.700  0.0012 -0.4984 -0.0604
 1467TIP3    H126036   3.118   2.235   0.711  0.2205  0.9575 -0.7059
 1467TIP3    H226037   2.986   2.202   0.779  1.2200  0.6417  1.1382
 1468TIP3   OH226038   6.118   5.703   8.781 -0.3513  0.5298 -0.3194
 1468TIP3    H126039   6.058   5.744   8.843  2.4258  1.2179  2.1647
 1468TIP3    H226040   6.100   5.609   8.789  1.3369  0.3202  3.4883
 1469TIP3   OH226041   0.738   4.701   0.656  0.5833  0.3664  0.2838
 1469TIP3    H126042   0.703   4.712   0.744  2.2315 -0.4024  1.0636
 1469TIP3    H226043   0.661   4.709   0.599 -0.2329  2.8165  1.6053
 1470TIP3   OH226044   3.913   0.731   0.116  0.3805 -0.0484  0.4392
 1470TIP3    H126045   3.843   0.673   0.088  1.3206 -0.9461 -0.1272
 1470TIP3    H226046   3.915   0.800   0.050 -0.5012  0.4470  0.9156
 1471TIP3   OH226047   5.979   6.176   1.023 -0.3072  0.0023 -0.3637
 1471TIP3    H126048   5.992   6.094   0.975  1.4311 -0.0494  0.1168
 1471TIP3    H226049   6.003   6.156   1.113  0.1874  1.0303 -0.2452
 1472TIP3   OH226050   3.962   3.535   7.919 -0.9596  0.2086 -0.8932
 1472TIP3    H126051   4.034   3.504   7.864 -1.9921 -1.5395 -1.3668
 1472TIP3    H226052   3.955   3.470   7.989 -1.4095  0.9312 -0.2525
 1473TIP3   OH226053   1.130   0.207   2.021 -1.1418 -0.2081 -0.2763
 1473TIP3    H126054   1.194   0.245   2.082  2.4481  0.9150 -4.2492
 1473TIP3    H226055   1.158   0.116   2.011 -1.5119 -0.3041 -0.4574
 1474TIP3   OH226056   2.422   1.732   2.288 -0.3675  0.4910 -0.1480
 1474TIP3    H126057   2.438   1.799   2.222  0.9930  0.6290  0.2978
 1474TIP3    H226058   2.359   1.773   2.348 -0.6626  0.8176 -0.6649
 1475TIP3   OH226059   4.043   4.042   8.627  0.3761  0.3370 -0.3108
 1475TIP3    H126060   3.975   4.107   8.647 -1.0594 -1.1809 -0.0614
 1475TIP3    H226061   4.090   4.032   8.710  0.4447  0.8698 -0.2801
 1476TIP3   OH226062   2.664   1.004   8.707  0.1667  0.4334  0.1433
 1476TIP3    H126063   2.653   0.917   8.745 -0.7530  0.6932  0.5018
 1476TIP3    H226064   2.728   1.047   8.763  1.5814 -0.4116 -0.7536
 1477TIP3   OH226065   1.795   3.805   7.326  0.2963  0.3387  0.0061
 1477TIP3    H126066   1.812   3.868   7.256 -0.3910  2.1382  1.3886
 1477TIP3    H226067   1.707   3.828   7.357 -0.5248 -2.1574 -0.2674
 1478TIP3   OH226068   3.054   6.479   6.128 -0.0038  0.4244 -0.0409
 1478TIP3    H126069   2.982   6.441   6.178  0.3835  1.1782  1.1491
 1478TIP3    H226070   3.029   6.571   6.117  0.9851  0.8166  0.8392
 1479TIP3   OH226071   1.687   3.366   0.500 -0.3643  0.1012 -0.3314
 1479TIP3    H126072   1.635   3.359   0.421  1.4674 -1.6067 -1.4812
 1479TIP3    H226073   1.692   3.276   0.534 -0.9389  0.7561  1.6593
 1480TIP3   OH226074   4.100   2.651   0.797 -0.2404  0.2845 -0.2680
 1480TIP3    H126075   4.165   2.582   0.783  0.3494  0.9688 -0.9447
 1480TIP3    H226076   4.073   2.639   0.888 -0.3381 -0.9967 -0.4372
 1481TIP3   OH226077   3.730   4.077   8.714  0.2097  0.1093 -0.3293
 1481TIP3    H126078   3.748   4.168   8.690 -0.5992  0.4071  0.1387
 1481TIP3    H226079   3.645   4.080   8.758  0.0016 -0.9275 -0.6165
 1482TIP3   OH226080   1.317   1.755   6.690 -0.5016 -0.1956 -0.6223
 1482TIP3    H126081   1.250   1.708   6.740  0.9865 -1.4090  0.2953
 1482TIP3    H226082   1.292   1.847   6.699 -1.4996 -0.5385  0.5126
 1483TIP3   OH226083   5.358   4.890   6.999  0.4843 -0.1502 -0.1603
 1483TIP3    H126084   5.421   4.871   7.069  0.7112  1.0056 -0.0222
 1483TIP3    H226085   5.318   4.973   7.026 -0.6131 -0.5230 -0.5901
 1484TIP3   OH226086   0.530   4.463   1.776 -0.1326  0.3191 -0.4395
 1484TIP3    H126087   0.558   4.526   1.710  2.0113 -0.9343 -0.8337
 1484TIP3    H226088   0.480   4.398   1.726 -1.9118  1.3865 -0.1154
 1485TIP3   OH226089   2.084   2.009   7.490  0.1456 -0.3375 -0.2950
 1485TIP3    H126090   2.135   1.943   7.538  0.3306 -0.6675 -0.9279
 1485TIP3    H226091   2.146   2.044   7.425  0.0164  0.3896 -0.0273
 1486TIP3   OH226092   3.144   0.754   1.016  0.5238 -0.2245 -0.4319
 1486TIP3    H126093   3.239   0.756   1.007  0.6712  0.7439  0.9217
 1486TIP3    H226094   3.110   0.783   0.932  1.3519 -2.0613 -1.4605
 1487TIP3   OH226095   1.650   0.588   0.594  0.3682  0.0633 -0.3717
 1487TIP3    H126096   1.694   0.647   0.533  2.7284 -0.1537  0.9989
 1487TIP3    H226097   1.612   0.645   0.660  1.8164  0.1393  0.4270
 1488TIP3   OH226098   1.638   1.176   1.981 -0.0980  0.4495 -0.1495
 1488TIP3    H126099   1.703   1.131   1.927 -0.1545  1.4900 -1.1203
 1488TIP3    H226100   1.562   1.118   1.980  0.3126 -0.0997 -0.1822
 1489TIP3   OH226101   1.076   4.296   7.159 -0.7260  0.2422 -0.0636
 1489TIP3    H126102   1.050   4.258   7.243 -0.1726 -0.2618 -0.1071
 1489TIP3    H226103   1.051   4.230   7.094 -1.4092  0.7532 -0.3289
 1490TIP3   OH226104   4.697   3.955   1.723  0.5503 -0.5443  0.2454
 1490TIP3    H126105   4.733   3.899   1.654  1.3895 -2.5011  2.1281
 1490TIP3    H226106   4.629   3.901   1.765 -0.9501  1.1352  0.0758
 1491TIP3   OH226107   2.698   3.918   8.367 -0.0168  1.1869  0.0864
 1491TIP3    H126108   2.621   3.877   8.327  0.4529 -0.7433  1.0535
 1491TIP3    H226109   2.768   3.906   8.303  0.4688 -0.9137  0.9433
 1492TIP3   OH226110   1.110   4.208   0.373 -0.5234 -0.0855  0.6227
 1492TIP3    H126111   1.082   4.295   0.343  0.0965 -0.7093 -2.0211
 1492TIP3    H226112   1.198   4.197   0.336  0.2795 -1.0295  2.6879
 1493TIP3   OH226113   6.548   0.456   0.520 -0.1476 -0.3282 -0.2234
 1493TIP3    H126114   6.493   0.454   0.442 -0.0007 -0.4819 -0.3231
 1493TIP3    H226115   6.535   0.371   0.561 -1.1720  0.1813  0.5845
 1494TIP3   OH226116   1.259   5.304   8.140 -0.1105 -0.3123  0.7141
 1494TIP3    H126117   1.219   5.280   8.224 -0.0648  1.7798  1.3696
 1494TIP3    H226118   1.324   5.371   8.162  0.5331 -0.3636 -0.9026
 1495TIP3   OH226119   1.752   2.397   6.355 -0.2890  0.4926 -0.6883
 1495TIP3    H126120   1.740   2.451   6.432  0.4453  2.0871 -1.6460
 1495TIP3    H226121   1.722   2.310   6.382 -0.6858  1.1558  1.1564
 1496TIP3   OH226122   3.911   1.943   2.147 -0.0190  0.4146  0.2464
 1496TIP3    H126123   4.003   1.954   2.171 -0.1072  0.5527  0.5297
 1496TIP3    H226124   3.873   2.029   2.160  0.0786  0.6861 -1.0921
 1497TIP3   OH226125   0.600   2.451   8.790 -0.5470 -0.8245  1.0417
 1497TIP3    H126126   0.614   2.496   8.707 -2.5612 -1.8196  0.1195
 1497TIP3    H226127   0.679   2.398   8.802  0.0857 -0.1101  0.1654
 1498TIP3   OH226128   1.488   6.516   8.807 -0.4115  0.2811  0.2489
 1498TIP3    H126129   1.425   6.586   8.788 -1.5946 -1.1589 -1.5553
 1498TIP3    H226130   1.572   6.550   8.775 -0.6902  1.3784  0.6388
 1499TIP3   OH226131   0.509   4.052   1.589  0.1127  0.1064 -0.0270
 1499TIP3    H126132   0.598   4.088   1.592 -0.4831  1.9054 -1.5517
 1499TIP3    H226133   0.487   4.033   1.681  2.3086 -1.1262  0.3013
 1500TIP3   OH226134   2.730   1.393   1.757 -0.3594  0.1960 -0.3592
 1500TIP3    H126135   2.687   1.347   1.829 -0.6470  0.7076 -0.1938
 1500TIP3    H226136   2.731   1.331   1.685 -0.8887 -0.0082 -0.1924
 1501TIP3   OH226137   1.296   1.075   1.470  0.0302 -0.6767 -0.4401
 1501TIP3    H126138   1.271   1.144   1.409 -0.0987 -0.6345 -0.3403
 1501TIP3    H226139   1.390   1.085   1.481  0.1972 -1.2435 -1.3224
 1502TIP3   OH226140   1.786   3.698   8.750  0.2467  0.2187  0.0248
 1502TIP3    H126141   1.850   3.648   8.699 -0.4481  0.1760 -0.8359
 1502TIP3    H226142   1.722   3.729   8.685 -0.5112  0.4025  0.8298
 1503TIP3   OH226143   5.533   3.760   0.761 -0.4322 -1.0040  0.0700
 1503TIP3    H126144   5.600   3.694   0.776  0.4480  0.2006  1.6649
 1503TIP3    H226145   5.450   3.711   0.766  0.2506 -2.3856 -1.2604
 1504TIP3   OH226146   0.817   4.750   7.801  0.3971 -0.5398  0.6243
 1504TIP3    H126147   0.814   4.655   7.812  1.3260 -0.7575 -0.7663
 1504TIP3    H226148   0.732   4.773   7.764  1.6773 -1.5377 -3.4488
 1505TIP3   OH226149   4.687   0.322   7.468 -0.0837 -0.0879 -0.1224
 1505TIP3    H126150   4.747   0.391   7.439  0.7376  0.1528  1.9312
 1505TIP3    H226151   4.602   0.365   7.475  0.3331  0.6432  0.7251
 1506TIP3   OH226152   5.587   2.446   1.286 -0.3010 -0.7974 -0.1081
 1506TIP3    H126153   5.648   2.407   1.222 -0.9035  0.3064 -1.4037
 1506TIP3    H226154   5.641   2.507   1.336 -0.5560  1.4380 -2.3551
 1507TIP3   OH226155   2.566   1.971   8.245  0.5528 -0.0124  0.1630
 1507TIP3    H126156   2.626   2.035   8.206  0.7374 -0.8980 -1.0899
 1507TIP3    H226157   2.624   1.906   8.285  0.7218 -2.4315 -3.5017
 1508TIP3   OH226158   5.134   1.739   6.576 -0.3651 -0.1231  0.0400
 1508TIP3    H126159   5.213   1.687   6.593 -1.3323 -1.9670 -0.7081
 1508TIP3    H226160   5.162   1.830   6.585  1.6353 -0.7393  0.6013
 1509TIP3   OH226161   0.833   3.250   8.303 -0.0414 -0.3861  0.1623
 1509TIP3    H126162   0.782   3.294   8.235 -1.1166  1.0408  1.7880
 1509TIP3    H226163   0.829   3.157   8.280 -1.3189 -0.0643 -1.0918
 1510TIP3   OH226164   2.237   0.446   0.801  0.2123 -0.0083  0.0508
 1510TIP3    H126165   2.186   0.382   0.751 -0.8763  0.7989  0.1061
 1510TIP3    H226166   2.188   0.459   0.882  0.2491  1.1334 -0.0931
 1511TIP3   OH226167   0.374   0.353   7.345  0.4703  0.1786 -0.6924
 1511TIP3    H126168   0.441   0.366   7.412 -0.3414  0.7889  0.0065
 1511TIP3    H226169   0.394   0.419   7.279 -1.2085  2.4339  0.9342
 1512TIP3   OH226170   0.864   3.052   1.022 -0.0977  0.4352  0.0799
 1512TIP3    H126171   0.949   3.010   1.028 -0.0265  0.6287  0.4746
 1512TIP3    H226172   0.808   3.003   1.081 -0.6076 -0.4922 -1.1362
 1513TIP3   OH226173   5.074   3.307   2.411  0.2072 -0.0165  0.2190
 1513TIP3    H126174   4.985   3.281   2.389 -0.0315 -0.2216  1.3622
 1513TIP3    H226175   5.097   3.373   2.345 -0.3901 -0.7198 -0.7123
 1514TIP3   OH226176   4.702   0.601   1.650 -0.0809 -0.3006  0.1725
 1514TIP3    H126177   4.625   0.582   1.704  1.9775 -0.8417  3.2339
 1514TIP3    H226178   4.757   0.523   1.658  1.4718  0.6666 -0.5430
 1515TIP3   OH226179   1.118   6.178   8.248 -0.2684  0.1852  0.0329
 1515TIP3    H126180   1.175   6.112   8.289 -1.7890 -0.8088  0.6155
 1515TIP3    H226181   1.085   6.230   8.320 -1.8281 -0.6626 -0.0351
 1516TIP3   OH226182   0.760   2.115   1.584 -0.5948  0.4903  0.2196
 1516TIP3    H126183   0.845   2.156   1.570  0.7722 -1.4118  2.1727
 1516TIP3    H226184   0.742   2.130   1.677 -2.3608  0.7180 -0.1228
 1517TIP3   OH226185   3.890   6.589   1.122  0.5658 -0.1462 -0.0717
 1517TIP3    H126186   3.866   6.587   1.214 -0.3895 -0.2802 -0.3081
 1517TIP3    H226187   3.984   6.574   1.121  0.6736  0.4217  0.9079
 1518TIP3   OH226188   1.841   6.787   1.899  0.6994  0.2727  0.3819
 1518TIP3    H126189   1.878   6.858   1.953  1.0254  0.5473 -0.2008
 1518TIP3    H226190   1.915   6.732   1.877  0.7361  0.6869 -0.5787
 1519TIP3   OH226191   1.633   4.808   0.005 -0.0643 -0.9491 -0.4998
 1519TIP3    H126192   1.722   4.836   0.024  0.3376 -1.4927 -1.5076
 1519TIP3    H226193   1.577   4.866   0.057  0.8804 -0.8284  0.4111
 1520TIP3   OH226194   1.784   3.714   0.936 -0.4920  0.0071 -0.7820
 1520TIP3    H126195   1.723   3.674   0.874  0.2986 -0.8935 -1.0003
 1520TIP3    H226196   1.862   3.658   0.933  1.1553  2.2232 -1.9918
 1521TIP3   OH226197   6.173   6.627   0.604 -0.1785 -0.1586  0.1953
 1521TIP3    H126198   6.254   6.590   0.639  0.4255  0.5927 -0.3639
 1521TIP3    H226199   6.138   6.559   0.547  0.9383  0.1226 -0.8548
 1522TIP3   OH226200   5.707   3.388   1.796  0.7884 -0.1563  0.3510
 1522TIP3    H126201   5.652   3.441   1.854 -0.1902 -0.2022 -0.5092
 1522TIP3    H226202   5.793   3.430   1.801 -0.1052  2.0114 -0.8551
 1523TIP3   OH226203   4.895   6.755   1.493  0.6095  0.0054  0.2227
 1523TIP3    H126204   4.936   6.779   1.576  4.3978  1.4527 -1.7731
 1523TIP3    H226205   4.902   6.660   1.489  2.9819  0.1020  0.5118
 1524TIP3   OH226206   4.550   3.764   7.366 -0.7401 -0.0239 -0.9997
 1524TIP3    H126207   4.489   3.730   7.432 -1.6942  0.3229 -1.6744
 1524TIP3    H226208   4.493   3.799   7.298  0.1559  3.3292 -0.1943
 1525TIP3   OH226209   2.143   1.143   0.651 -0.7517  0.3689  0.2042
 1525TIP3    H126210   2.208   1.120   0.717 -2.2825  3.0548  2.9393
 1525TIP3    H226211   2.176   1.224   0.612 -0.3798 -0.6425 -1.6994
 1526TIP3   OH226212   5.421   1.550   1.785  0.6320  0.2331 -0.4451
 1526TIP3    H126213   5.509   1.560   1.823  0.3073 -0.0022  0.3811
 1526TIP3    H226214   5.386   1.639   1.784 -0.2552 -0.0003  2.0524
 1527TIP3   OH226215   0.120   2.260   8.526  0.3781 -0.4835 -0.3972
 1527TIP3    H126216   0.063   2.219   8.592 -0.8791  1.7495  0.0062
 1527TIP3    H226217   0.195   2.292   8.576 -0.4965  1.0630 -0.0205
 1528TIP3   OH226218   6.792   0.307   7.673 -0.5261  0.4954  0.2290
 1528TIP3    H126219   6.815   0.219   7.703 -1.2654  1.1574  3.0090
 1528TIP3    H226220   6.849   0.322   7.597  2.8485 -0.7571  2.2599
 1529TIP3   OH226221   6.567   3.798   1.155  0.4714 -0.0837 -0.2641
 1529TIP3    H126222   6.642   3.762   1.202 -0.4972 -0.9874  0.6552
 1529TIP3    H226223   6.563   3.749   1.073  0.2879 -0.7622  0.1440
 1530TIP3   OH226224   3.738   5.606   8.549 -0.1283 -0.6334 -0.1403
 1530TIP3    H126225   3.778   5.691   8.532 -1.0865 -0.1230  0.0914
 1530TIP3    H226226   3.774   5.548   8.482  2.5376 -0.7317  1.2212
 1531TIP3   OH226227   4.318   1.957   0.489 -0.4477 -0.5302 -0.0354
 1531TIP3    H126228   4.295   1.959   0.582 -1.5566 -0.3032 -0.3033
 1531TIP3    H226229   4.392   1.895   0.484  2.2619  2.2796  1.5424
 1532TIP3   OH226230   1.553   3.422   6.562 -0.0735 -0.3034  0.1347
 1532TIP3    H126231   1.558   3.335   6.602 -1.9875 -0.2288  0.6683
 1532TIP3    H226232   1.531   3.405   6.471 -0.4093 -0.4002  0.2304
 1533TIP3   OH226233   2.499   0.511   6.787 -0.2646  0.3205  0.1847
 1533TIP3    H126234   2.562   0.483   6.721  0.0388 -1.7537  1.2519
 1533TIP3    H226235   2.441   0.435   6.798 -0.6810  0.8283  1.8196
 1534TIP3   OH226236   5.973   2.088   2.863  0.2869  0.4615 -0.0735
 1534TIP3    H126237   5.962   2.176   2.827 -0.0267  1.0609  1.4203
 1534TIP3    H226238   5.892   2.072   2.912 -0.2005 -1.1794 -1.3415
 1535TIP3   OH226239   3.797   2.766   8.657 -0.4662 -0.0245 -0.0138
 1535TIP3    H126240   3.711   2.765   8.615 -0.3447 -2.2882 -0.3522
 1535TIP3    H226241   3.814   2.674   8.680  0.9032  0.6587  2.0732
 1536TIP3   OH226242   0.548   5.718   7.749 -0.1948 -0.1000 -0.1748
 1536TIP3    H126243   0.589   5.653   7.806 -0.7978 -0.5029 -0.1921
 1536TIP3    H226244   0.619   5.778   7.726  0.4352 -0.9372 -0.4243
 1537TIP3   OH226245   5.831   4.867   1.326  0.1182 -0.5440  0.8202
 1537TIP3    H126246   5.873   4.911   1.400 -1.8581  0.0198  1.6727
 1537TIP3    H226247   5.853   4.921   1.250 -0.3333  0.6071  1.4895
 1538TIP3   OH226248   1.042   6.168   1.118 -0.1509  0.3581  0.4877
 1538TIP3    H126249   1.099   6.137   1.188 -0.2607 -0.8843  0.0602
 1538TIP3    H226250   0.991   6.238   1.158  1.9582  1.8449  0.7607
 1539TIP3   OH226251   3.474   4.243   1.769  0.2788 -0.0407  0.2093
 1539TIP3    H126252   3.501   4.154   1.746 -1.4692 -0.1110 -2.0205
 1539TIP3    H226253   3.432   4.234   1.855  0.0279 -1.4248 -0.0298
 1540TIP3   OH226254   0.175   6.199   0.995 -0.0202  0.5164 -0.4862
 1540TIP3    H126255   0.160   6.105   0.990  1.2524  0.2467  0.2688
 1540TIP3    H226256   0.270   6.208   0.995 -0.1233  1.7837 -0.2165
 1541TIP3   OH226257   6.733   6.000   8.794 -0.2056  0.0373 -0.0047
 1541TIP3    H126258   6.695   6.027   8.711  0.4961  0.9284 -0.0559
 1541TIP3    H226259   6.827   5.989   8.774 -0.2705 -1.2493  0.3153
 1542TIP3   OH226260   3.418   6.329   1.151  1.0163 -0.5271  0.4356
 1542TIP3    H126261   3.430   6.411   1.198 -0.0227 -0.6568  0.9462
 1542TIP3    H226262   3.490   6.328   1.087  2.1720 -0.1155  1.6673
 1543TIP3   OH226263   6.464   3.276   8.547  0.4245 -0.1165  0.0319
 1543TIP3    H126264   6.515   3.332   8.488 -1.4999  1.3866 -0.2950
 1543TIP3    H226265   6.467   3.321   8.631  2.3344 -1.7472  0.9244
 1544TIP3   OH226266   0.229   0.480   7.550  0.5811 -0.8682 -0.5684
 1544TIP3    H126267   0.261   0.432   7.474  0.0700 -0.5432 -0.9986
 1544TIP3    H226268   0.210   0.568   7.517  4.3902  0.6668  0.8312
 1545TIP3   OH226269   2.406   1.243   6.632 -0.1917  0.2479  0.2784
 1545TIP3    H126270   2.358   1.292   6.566 -0.2858 -1.5234 -1.0660
 1545TIP3    H226271   2.343   1.178   6.664  0.8952 -1.3266 -0.6461
 1546TIP3   OH226272   4.212   3.841   6.549  0.1096  0.5432 -0.1323
 1546TIP3    H126273   4.224   3.869   6.639 -0.7475  2.4438 -0.5589
 1546TIP3    H226274   4.225   3.747   6.551  0.4468  0.5940  1.9059
 1547TIP3   OH226275   4.777   1.885   0.858 -0.8321  0.1107 -0.0665
 1547TIP3    H126276   4.841   1.929   0.803 -1.6849 -0.9175 -1.9710
 1547TIP3    H226277   4.829   1.842   0.926  0.6151 -1.2726 -1.9518
 1548TIP3   OH226278   6.798   4.223   0.016 -0.2019  0.0764 -0.3485
 1548TIP3    H126279   6.718   4.264  -0.016  0.4007  1.7657  0.1638
 1548TIP3    H226280   6.849   4.296   0.051  1.5962 -0.9505 -0.7296
 1549TIP3   OH226281   4.392   4.853   1.696 -0.4003  0.0130 -0.0462
 1549TIP3    H126282   4.419   4.761   1.693 -0.2421 -0.0226  1.6226
 1549TIP3    H226283   4.319   4.854   1.757  0.3945  1.1645  0.9300
 1550TIP3   OH226284   4.627   3.859   2.225  0.3470  0.0275 -0.1984
 1550TIP3    H126285   4.716   3.884   2.200  0.6423 -0.8214 -0.0260
 1550TIP3    H226286   4.636   3.770   2.259 -0.9311 -1.0814 -2.5285
 1551TIP3   OH226287   5.905   5.576   7.982 -0.1687 -0.0316 -0.5222
 1551TIP3    H126288   5.830   5.585   7.923 -1.8544 -0.2885  1.4592
 1551TIP3    H226289   5.935   5.486   7.969 -2.0355 -0.8803  0.6223
 1552TIP3   OH226290   0.456   0.313   0.404 -0.4063  0.3444 -0.1078
 1552TIP3    H126291   0.472   0.408   0.400 -0.0499  0.2303 -3.1062
 1552TIP3    H226292   0.378   0.305   0.459 -1.0375  2.4673 -0.5892
 1553TIP3   OH226293   0.694   2.027   7.621  0.1186  0.2641  0.2349
 1553TIP3    H126294   0.619   2.024   7.561  0.7632 -0.6315 -0.5661
 1553TIP3    H226295   0.706   1.936   7.649  0.7554  0.4343  0.5308
 1554TIP3   OH226296   3.006   2.904   7.304  0.0141 -0.1793  0.1287
 1554TIP3    H126297   2.920   2.896   7.346 -0.3472  0.0260 -0.5684
 1554TIP3    H226298   2.987   2.929   7.214  0.8426  1.0223  0.2621
 1555TIP3   OH226299   3.771   6.291   1.440 -0.3880 -0.2194 -0.1040
 1555TIP3    H126300   3.746   6.275   1.531  1.5149 -0.7342  0.3643
 1555TIP3    H226301   3.770   6.204   1.399 -1.6987  0.0682 -0.7240
 1556TIP3   OH226302   4.546   1.245   7.159  0.3297 -0.1822  0.2355
 1556TIP3    H126303   4.560   1.221   7.068 -0.7498  1.3346 -0.3720
 1556TIP3    H226304   4.549   1.341   7.160  2.0482 -0.1865  2.1090
 1557TIP3   OH226305   5.169   6.575   1.506 -0.3807 -0.2271 -0.0232
 1557TIP3    H126306   5.258   6.551   1.532 -0.8854 -0.0925  1.9937
 1557TIP3    H226307   5.180   6.651   1.449  0.7695  0.2743  0.8325
 1558TIP3   OH226308   3.143   3.036   1.547 -0.8112 -0.4458 -0.8824
 1558TIP3    H126309   3.137   3.055   1.454  1.7347  1.8114 -0.7188
 1558TIP3    H226310   3.236   3.046   1.567 -1.5547  1.5361  2.3171
 1559TIP3   OH226311   3.397   5.462   7.679 -0.0811 -0.1133  0.2675
 1559TIP3    H126312   3.440   5.540   7.713  0.2071 -0.6547  1.1607
 1559TIP3    H226313   3.467   5.409   7.642 -0.3416  0.2825 -0.8232
 1560TIP3   OH226314   5.695   1.440   1.432  0.1143 -0.1183  0.0011
 1560TIP3    H126315   5.743   1.444   1.515 -0.4578 -1.7017  0.4456
 1560TIP3    H226316   5.603   1.433   1.459 -0.4155  2.4632 -0.8267
 1561TIP3   OH226317   4.959   1.310   2.062 -0.1454 -0.2839 -0.2105
 1561TIP3    H126318   4.931   1.219   2.061 -2.6148  0.3901  0.0376
 1561TIP3    H226319   4.970   1.332   2.154 -0.0177 -0.1877 -0.2472
 1562TIP3   OH226320   1.977   0.846   7.861  0.6196  0.2080 -0.1219
 1562TIP3    H126321   1.945   0.777   7.802 -2.1443  1.4461 -0.2073
 1562TIP3    H226322   2.011   0.799   7.937  0.1152 -1.2710 -0.7797
 1563TIP3   OH226323   1.946   3.938   0.924 -0.3640 -0.7661 -0.0154
 1563TIP3    H126324   1.912   4.027   0.921 -0.4187 -0.6535  2.3516
 1563TIP3    H226325   1.868   3.882   0.923 -0.3211 -0.9181 -2.3905
 1564TIP3   OH226326   1.905   1.716   8.408 -0.3911  0.5077  0.0252
 1564TIP3    H126327   1.910   1.719   8.312  0.5076 -0.7914 -0.0012
 1564TIP3    H226328   1.826   1.765   8.429 -1.4142 -0.4072 -1.4843
 1565TIP3   OH226329   5.576   2.691   8.833 -0.0083 -0.1568 -0.5836
 1565TIP3    H126330   5.548   2.765   8.886 -0.7991 -0.7398 -0.1794
 1565TIP3    H226331   5.667   2.711   8.810  0.5267 -0.1153  1.3799
 1566TIP3   OH226332   0.370   3.671   0.420 -0.1520  0.2056  0.2779
 1566TIP3    H126333   0.451   3.705   0.456  0.4099 -1.5877  0.7879
 1566TIP3    H226334   0.384   3.671   0.325  0.5041 -0.2257  0.3698
 1567TIP3   OH226335   3.302   3.396   0.795  0.2336  0.2296  0.1138
 1567TIP3    H126336   3.394   3.421   0.809  0.4642 -0.8859  0.7213
 1567TIP3    H226337   3.269   3.462   0.734  1.4878  0.5562 -0.2604
 1568TIP3   OH226338   1.952   3.505   0.827  0.0472 -0.7628 -0.3035
 1568TIP3    H126339   1.939   3.530   0.735  0.6646 -0.8415 -0.4202
 1568TIP3    H226340   2.023   3.561   0.857 -2.0243  1.3143  1.0099
 1569TIP3   OH226341   4.360   3.599   1.220  0.5677 -0.2330 -0.1379
 1569TIP3    H126342   4.324   3.665   1.280 -0.4748  0.3963 -1.3842
 1569TIP3    H226343   4.412   3.542   1.275 -1.4001 -0.4733  1.6055
 1570TIP3   OH226344   2.598   0.918   1.109 -0.6243  0.1488 -0.1988
 1570TIP3    H126345   2.507   0.940   1.130 -0.8683 -1.0068  0.0405
 1570TIP3    H226346   2.604   0.824   1.126  1.0009  0.4442  1.1961
 1571TIP3   OH226347   0.277   6.694   7.377 -0.0571 -0.0927  0.2062
 1571TIP3    H126348   0.249   6.661   7.462 -0.0371  0.6762  0.5270
 1571TIP3    H226349   0.233   6.638   7.313 -1.1725  0.1781  0.7136
 1572TIP3   OH226350   2.358   1.610   1.973  0.2723 -0.2369  0.5016
 1572TIP3    H126351   2.388   1.582   1.886 -1.0997  0.3414 -0.1780
 1572TIP3    H226352   2.374   1.534   2.029  1.4800 -0.5060 -0.1667
 1573TIP3   OH226353   2.005   5.776   8.394  0.3797  0.1119 -0.3532
 1573TIP3    H126354   1.958   5.837   8.450  1.8414  1.4949 -0.5544
 1573TIP3    H226355   2.026   5.827   8.315  2.4247 -0.3240 -0.1461
 1574TIP3   OH226356   4.750   1.247   6.717  0.6567 -0.7615  0.0243
 1574TIP3    H126357   4.806   1.311   6.760  0.8001 -1.3329  0.7198
 1574TIP3    H226358   4.714   1.293   6.641  0.4136  0.2794  0.7475
 1575TIP3   OH226359   3.596   6.562   0.977 -0.3819 -0.1441  0.3006
 1575TIP3    H126360   3.650   6.547   1.055 -0.6353  0.5603  0.6173
 1575TIP3    H226361   3.586   6.475   0.938  1.4295 -0.2220 -0.0693
 1576TIP3   OH226362   4.458   0.816   8.849 -0.2613  0.3413  0.0062
 1576TIP3    H126363   4.535   0.862   8.817 -0.8684  2.0830  0.8828
 1576TIP3    H226364   4.390   0.834   8.784 -0.5662  0.9670  0.4732
 1577TIP3   OH226365   3.329   5.428   0.335  0.4690  0.1046  0.1986
 1577TIP3    H126366   3.373   5.416   0.419 -0.1234 -0.4288  0.4491
 1577TIP3    H226367   3.392   5.474   0.280  0.9456  0.2572  0.8664
 1578TIP3   OH226368   6.012   5.942   7.979  0.3804 -0.1526  0.1809
 1578TIP3    H126369   5.951   6.015   7.977  0.6999  0.2508  2.3913
 1578TIP3    H226370   6.099   5.982   7.972  0.6130 -0.1289  2.3535
 1579TIP3   OH226371   1.230   5.122   2.463  0.4637 -0.0522 -0.3592
 1579TIP3    H126372   1.175   5.198   2.445  0.5027  0.0597 -0.0226
 1579TIP3    H226373   1.317   5.158   2.478  0.3311 -0.0901  0.5360
 1580TIP3   OH226374   6.310   3.726   0.267 -0.4233  0.2642 -0.4427
 1580TIP3    H126375   6.323   3.637   0.299  0.2527  0.0162 -1.3597
 1580TIP3    H226376   6.222   3.725   0.229 -0.0324 -0.3127 -1.3670
 1581TIP3   OH226377   0.382   4.129   1.013  0.2989 -0.3137 -0.4576
 1581TIP3    H126378   0.288   4.135   1.030  0.6475  1.2592  1.3481
 1581TIP3    H226379   0.395   4.177   0.931 -0.3619  0.5100 -0.0992
 1582TIP3   OH226380   5.746   3.475   8.689  0.1761 -0.1606 -0.0302
 1582TIP3    H126381   5.821   3.444   8.739 -0.0065  0.0439  0.3807
 1582TIP3    H226382   5.761   3.569   8.680  0.2387 -0.2083 -0.4135
 1583TIP3   OH226383   5.824   1.178   7.254  0.2282  0.0394  0.4444
 1583TIP3    H126384   5.897   1.157   7.196  0.5656 -1.6522  1.4422
 1583TIP3    H226385   5.823   1.274   7.256  1.1679  0.1251 -1.1152
 1584TIP3   OH226386   5.138   1.796   1.901  0.3422  0.3153  0.0260
 1584TIP3    H126387   5.066   1.793   1.838 -0.7680 -0.8895  1.2872
 1584TIP3    H226388   5.100   1.836   1.979  1.1400 -0.0496  0.6082
 1585TIP3   OH226389   5.721   3.659   1.573 -0.2440 -1.1127  0.6292
 1585TIP3    H126390   5.776   3.589   1.608  0.4922 -1.2736 -0.7594
 1585TIP3    H226391   5.660   3.614   1.514 -1.8074 -0.9143  2.0097
 1586TIP3   OH226392   0.161   4.715   8.511  0.0507  0.0791 -0.3479
 1586TIP3    H126393   0.079   4.678   8.541 -0.1999  0.8635 -0.0423
 1586TIP3    H226394   0.147   4.810   8.513  0.3875  0.1927 -1.9120
 1587TIP3   OH226395   1.357   0.075   1.671 -0.2775 -0.6787 -0.1119
 1587TIP3    H126396   1.316   0.151   1.712 -2.0335 -1.8127  0.3505
 1587TIP3    H226397   1.419   0.112   1.609 -0.3050  1.1091  0.8713
 1588TIP3   OH226398   5.136   3.334   1.251 -0.3924 -0.0192 -0.1725
 1588TIP3    H126399   5.197   3.281   1.200 -0.5044 -1.0735  0.7427
 1588TIP3    H226400   5.105   3.275   1.319 -1.3582  0.9230  0.2301
 1589TIP3   OH226401   0.825   1.760   1.650  0.4915  0.0296 -0.6015
 1589TIP3    H126402   0.879   1.832   1.617 -1.6757  1.8303 -0.5000
 1589TIP3    H226403   0.778   1.728   1.573  0.0575  0.0059 -0.3302
 1590TIP3   OH226404   2.012   5.000   8.284 -0.1357  0.5240  0.1253
 1590TIP3    H126405   1.919   5.018   8.293 -0.0914  1.1649 -0.6086
 1590TIP3    H226406   2.051   5.027   8.367 -0.4108  1.6018 -0.0833
 1591TIP3   OH226407   1.485   4.148   7.444 -0.5403 -0.2106  0.1650
 1591TIP3    H126408   1.504   4.222   7.385 -0.2895 -0.1529  0.3150
 1591TIP3    H226409   1.439   4.188   7.518  1.0725  0.0825  1.0551
 1592TIP3   OH226410   5.107   1.181   0.814 -0.3908  0.1150 -0.6611
 1592TIP3    H126411   5.014   1.204   0.809 -0.2039  1.1685  0.3577
 1592TIP3    H226412   5.132   1.201   0.904  0.8954  0.1117 -0.9979
 1593TIP3   OH226413   2.686   0.106   7.954 -0.3182 -0.0317  0.2610
 1593TIP3    H126414   2.681   0.201   7.942  0.3213  0.2925  2.2733
 1593TIP3    H226415   2.617   0.086   8.017 -1.5606 -1.1995 -1.3762
 1594TIP3   OH226416   6.406   3.584   2.079 -0.1048 -0.0486 -0.1240
 1594TIP3    H126417   6.405   3.668   2.125  1.7601  0.6974 -1.3197
 1594TIP3    H226418   6.499   3.564   2.068 -0.4357 -0.2623 -3.3697
 1595TIP3   OH226419   3.897   1.828   0.160 -0.5774 -0.0784  0.1538
 1595TIP3    H126420   3.838   1.845   0.233  0.0219 -2.1941  1.2202
 1595TIP3    H226421   3.967   1.893   0.169  0.0556 -0.9635  2.1743
 1596TIP3   OH226422   4.774   0.898   0.989 -0.1228  0.2439  0.5078
 1596TIP3    H126423   4.794   0.983   1.028  1.7700  0.4482 -0.7434
 1596TIP3    H226424   4.858   0.851   0.990 -0.4754 -0.5011 -1.3651
 1597TIP3   OH226425   1.121   3.829   7.779 -0.1773  0.5626 -0.1138
 1597TIP3    H126426   1.186   3.899   7.777 -0.6669  1.0325 -2.1376
 1597TIP3    H226427   1.170   3.749   7.761  0.1842  0.5414  0.8948
 1598TIP3   OH226428   5.932   3.290   8.461 -0.5157 -0.2256  0.1063
 1598TIP3    H126429   6.018   3.285   8.420 -1.5082  0.2841 -2.2611
 1598TIP3    H226430   5.940   3.240   8.542  0.9985 -3.6165 -1.9338
 1599TIP3   OH226431   2.262   4.328   1.139 -0.7069 -0.8053 -0.2033
 1599TIP3    H126432   2.198   4.367   1.199  0.4821  0.7154  0.1559
 1599TIP3    H226433   2.346   4.356   1.174  0.1152 -1.8667 -1.2757
 1600TIP3   OH226434   0.913   2.145   2.510 -0.0456  0.1194 -0.1705
 1600TIP3    H126435   1.003   2.118   2.529  0.2396 -1.1261 -2.8418
 1600TIP3    H226436   0.888   2.093   2.433 -3.7159 -0.9257  1.4776
 1601TIP3   OH226437   3.121   6.460   7.890 -0.2852  0.4928  0.1334
 1601TIP3    H126438   3.130   6.483   7.797  1.6680  0.4463  0.2627
 1601TIP3    H226439   3.190   6.395   7.905 -1.3061 -0.3389  1.3738
 1602TIP3   OH226440   2.341   2.481   7.819 -0.5445 -0.6279  0.7128
 1602TIP3    H126441   2.362   2.393   7.851 -1.1616 -1.4373 -0.9805
 1602TIP3    H226442   2.247   2.477   7.800 -0.4397  0.1821 -0.0269
 1603TIP3   OH226443   0.988   2.458   8.665 -0.5786  0.6670 -0.2823
 1603TIP3    H126444   0.961   2.396   8.733  1.6713 -1.9064 -1.5553
 1603TIP3    H226445   0.928   2.442   8.593 -0.3056  0.3317 -0.4338
 1604TIP3   OH226446   2.534   2.303   1.613 -0.7235 -0.2777  0.6023
 1604TIP3    H126447   2.465   2.338   1.669  0.3416 -0.1768  1.8988
 1604TIP3    H226448   2.488   2.271   1.535 -2.1006  0.7713  0.9499
 1605TIP3   OH226449   5.248   5.343   1.480  0.4107  0.0519 -0.0386
 1605TIP3    H126450   5.289   5.391   1.407  0.6770  1.5337  1.0353
 1605TIP3    H226451   5.198   5.410   1.527  0.3177 -0.8526  1.1888
 1606TIP3   OH226452   1.238   3.086   8.123  0.0402 -0.1036 -0.2702
 1606TIP3    H126453   1.186   3.118   8.049 -2.1996  0.0923  1.2762
 1606TIP3    H226454   1.227   2.991   8.121 -0.4208 -0.0616  0.0602
 1607TIP3   OH226455   5.814   5.181   7.780 -0.0846  0.0470 -0.3812
 1607TIP3    H126456   5.729   5.161   7.740 -1.1554  0.9602  1.3260
 1607TIP3    H226457   5.846   5.257   7.732 -1.0564  0.7447  0.0440
 1608TIP3   OH226458   3.985   2.030   8.632 -0.4512 -0.1102  0.4689
 1608TIP3    H126459   3.922   2.055   8.564  0.1259  0.1021  0.0137
 1608TIP3    H226460   4.015   2.114   8.668  0.0628 -0.1957  0.2390
 1609TIP3   OH226461   4.658   5.698   0.624 -0.0374  0.0590  0.6102
 1609TIP3    H126462   4.680   5.614   0.584 -0.9247  0.8081 -1.5633
 1609TIP3    H226463   4.565   5.710   0.606 -0.4158  0.6100  2.6683
 1610TIP3   OH226464   1.569   6.048   7.178 -0.0224  0.0535 -0.2621
 1610TIP3    H126465   1.629   6.112   7.140 -2.4931  1.7670 -1.5564
 1610TIP3    H226466   1.509   6.100   7.232 -1.6308 -1.2438 -0.7126
 1611TIP3   OH226467   0.231   5.597   1.176 -0.0278 -0.1846 -0.0678
 1611TIP3    H126468   0.268   5.510   1.166 -1.4159 -0.7934 -0.1629
 1611TIP3    H226469   0.176   5.590   1.255 -0.6068  0.4189 -0.4053
 1612TIP3   OH226470   1.572   5.582   7.713  0.4615 -0.2237 -0.1928
 1612TIP3    H126471   1.637   5.578   7.784  1.0013 -2.2279 -0.7270
 1612TIP3    H226472   1.506   5.644   7.744  2.4080  1.5609  0.5452
 1613TIP3   OH226473   2.969   5.516   2.477 -0.1055 -0.2660 -0.4839
 1613TIP3    H126474   2.981   5.605   2.511 -0.1584 -0.6880  0.6876
 1613TIP3    H226475   3.058   5.480   2.472  0.0016  0.1218 -1.7803
 1614TIP3   OH226476   6.608   5.033   8.825  0.6095  0.2273  0.3634
 1614TIP3    H126477   6.569   4.957   8.868  1.3611  0.4550  1.4968
 1614TIP3    H226478   6.693   5.044   8.868  0.8945  1.1660 -0.4021
 1615TIP3   OH226479   3.621   3.163   7.624  0.6126  0.3858  0.6167
 1615TIP3    H126480   3.651   3.072   7.620 -0.7901 -0.0767 -0.4826
 1615TIP3    H226481   3.692   3.214   7.586  0.8424 -0.4381 -0.0912
 1616TIP3   OH226482   0.936   4.182   7.867 -0.1945 -0.0022 -0.2217
 1616TIP3    H126483   0.874   4.179   7.939  1.4388 -0.7346  1.2149
 1616TIP3    H226484   1.009   4.126   7.895  1.3614  1.2320 -1.5897
 1617TIP3   OH226485   4.208   5.338   1.692  0.8826  0.4967  0.0700
 1617TIP3    H126486   4.160   5.358   1.611  0.2196  3.6309  1.0981
 1617TIP3    H226487   4.297   5.316   1.662  0.3160  0.2720 -1.5581
 1618TIP3   OH226488   5.433   1.197   1.320 -0.4044 -0.4459  0.1574
 1618TIP3    H126489   5.409   1.109   1.351  0.6915 -1.0152 -0.5811
 1618TIP3    H226490   5.465   1.242   1.398 -0.4460 -0.8792  0.4250
 1619TIP3   OH226491   0.698   4.382   6.782 -0.0664 -0.4572 -0.0102
 1619TIP3    H126492   0.708   4.320   6.710  1.1264 -3.3989  2.4580
 1619TIP3    H226493   0.688   4.327   6.860  0.9601  2.4830  2.3992
 1620TIP3   OH226494   3.832   0.915   1.771 -0.0199 -0.8375 -0.3808
 1620TIP3    H126495   3.906   0.861   1.800 -0.4638 -0.8064  0.8968
 1620TIP3    H226496   3.779   0.857   1.718  1.7301 -0.4204 -2.7724
 1621TIP3   OH226497   2.079   0.960   8.115  0.9259  0.3318  0.1373
 1621TIP3    H126498   2.039   1.024   8.056 -1.2507 -1.5149 -0.5495
 1621TIP3    H226499   2.165   0.997   8.137 -0.7050  4.0861  0.8928
 1622TIP3   OH226500   6.387   6.637   7.723  0.0856  0.0798 -0.6395
 1622TIP3    H126501   6.438   6.558   7.707 -0.7526 -0.2358 -1.8545
 1622TIP3    H226502   6.392   6.649   7.818  2.7996  0.3528 -0.7130
 1623TIP3   OH226503   1.947   4.738   8.893 -0.3762 -0.0374  0.1457
 1623TIP3    H126504   1.896   4.691   8.960  0.5829  1.2634  1.8596
 1623TIP3    H226505   2.003   4.671   8.855 -1.6730 -1.0198 -0.1333
 1624TIP3   OH226506   1.262   5.845   8.390  0.1001  0.1817 -1.0371
 1624TIP3    H126507   1.258   5.913   8.457 -0.5488 -1.0713  0.2483
 1624TIP3    H226508   1.173   5.811   8.385  0.5485 -1.0162 -1.1676
 1625TIP3   OH226509   3.962   1.324   1.133 -0.0227 -0.0064 -0.0413
 1625TIP3    H126510   4.013   1.244   1.127  0.4351  0.2884 -0.1238
 1625TIP3    H226511   3.994   1.379   1.061 -1.2639 -0.2658 -0.8247
 1626TIP3   OH226512   2.064   0.465   0.209  0.4746 -0.4675 -0.0689
 1626TIP3    H126513   2.127   0.536   0.223  0.2810 -0.5343  1.2652
 1626TIP3    H226514   2.055   0.424   0.295 -2.7009  0.6194  0.2315
 1627TIP3   OH226515   6.148   5.928   0.594 -0.0292  0.3334 -0.0962
 1627TIP3    H126516   6.129   6.020   0.578 -0.5801  0.2936  0.3212
 1627TIP3    H226517   6.128   5.915   0.686  1.5984  0.1817  0.2654
 1628TIP3   OH226518   5.654   1.573   1.932 -0.6135  0.1663 -0.5173
 1628TIP3    H126519   5.682   1.660   1.904  3.9277 -1.0284 -0.5236
 1628TIP3    H226520   5.674   1.571   2.026 -0.2238 -0.9584 -0.6032
 1629TIP3   OH226521   1.943   4.846   1.084  0.0446 -0.0289 -0.0093
 1629TIP3    H126522   1.926   4.770   1.029 -0.2130 -0.2941  0.4277
 1629TIP3    H226523   1.909   4.920   1.034 -1.1953 -0.3919  0.2682
 1630TIP3   OH226524   2.310   0.744   2.218  0.1227 -0.1042 -0.0422
 1630TIP3    H126525   2.263   0.776   2.295 -0.8737 -0.8521 -0.3187
 1630TIP3    H226526   2.399   0.731   2.249  0.3434  1.9324  0.3335
 1631TIP3   OH226527   3.520   4.208   0.436 -0.4222 -0.4223  0.1920
 1631TIP3    H126528   3.434   4.176   0.407  0.4385 -0.8194 -2.2024
 1631TIP3    H226529   3.552   4.139   0.494 -2.1358  0.2755  2.1023
 1632TIP3   OH226530   2.578   1.181   8.231 -0.2724  0.1300 -0.0226
 1632TIP3    H126531   2.533   1.151   8.310 -1.6095 -0.2508 -0.8809
 1632TIP3    H226532   2.663   1.137   8.232 -1.0393 -1.4179  0.2344
 1633TIP3   OH226533   0.073   2.534   1.738 -0.3180  0.5180 -0.0394
 1633TIP3    H126534   0.052   2.455   1.788 -0.6375 -0.4779 -1.6976
 1633TIP3    H226535   0.072   2.506   1.647  0.1489  2.3178 -0.6327
 1634TIP3   OH226536   1.967   5.268   7.749 -0.2601 -0.1154 -0.1080
 1634TIP3    H126537   1.888   5.299   7.794  1.1845  2.4485  0.9082
 1634TIP3    H226538   1.935   5.224   7.671 -2.7046  1.1195  0.0994
 1635TIP3   OH226539   2.352   3.277   1.745 -0.1581  0.4228  0.3449
 1635TIP3    H126540   2.313   3.223   1.814 -0.0445 -0.8230 -0.5308
 1635TIP3    H226541   2.284   3.282   1.678  0.8859 -1.2719 -0.9360
 1636TIP3   OH226542   5.459   5.605   1.422 -0.3415  0.1631  0.3641
 1636TIP3    H126543   5.530   5.663   1.449 -0.0996 -0.8576  2.0888
 1636TIP3    H226544   5.379   5.654   1.441 -0.1423 -0.0636  1.8722
 1637TIP3   OH226545   4.053   2.249   6.886 -0.9253  0.8241 -0.6590
 1637TIP3    H126546   4.023   2.331   6.849 -0.8057  1.3978  0.4721
 1637TIP3    H226547   3.980   2.218   6.940 -0.8952  0.2784 -0.9174
 1638TIP3   OH226548   4.502   4.044   7.244  0.2578 -0.4253 -0.0331
 1638TIP3    H126549   4.453   4.124   7.262  1.3256 -0.2660  2.5768
 1638TIP3    H226550   4.436   3.975   7.245 -0.4000  0.1783 -0.3516
 1639TIP3   OH226551   0.306   5.605   8.515 -0.5126  0.1011  0.6223
 1639TIP3    H126552   0.371   5.544   8.480  0.1302  0.9224  0.3422
 1639TIP3    H226553   0.270   5.649   8.438 -0.6595  0.3728  0.8429
 1640TIP3   OH226554   2.481   0.672   1.560 -0.0091 -0.2998 -0.4482
 1640TIP3    H126555   2.540   0.730   1.608 -0.7152 -0.6505  0.8814
 1640TIP3    H226556   2.538   0.623   1.501  0.9027  0.0400  0.1374
 1641TIP3   OH226557   6.026   1.872   7.837  0.1064  0.4552  0.3303
 1641TIP3    H126558   6.115   1.906   7.845 -0.4249  1.5972  2.0539
 1641TIP3    H226559   5.980   1.936   7.783  0.2791 -0.0445 -0.4157
 1642TIP3   OH226560   2.594   1.840   7.688  0.0696  0.2188 -0.9279
 1642TIP3    H126561   2.646   1.763   7.711  1.7232  1.6400  0.3255
 1642TIP3    H226562   2.555   1.868   7.771 -0.3392  0.8741 -1.3339
 1643TIP3   OH226563   2.117   4.992   0.739  0.4149 -0.1016  0.2053
 1643TIP3    H126564   2.179   4.972   0.669 -0.2111 -0.1178 -0.3544
 1643TIP3    H226565   2.098   5.085   0.729  0.3052 -0.1098  0.3362
 1644TIP3   OH226566   0.511   5.615   0.673  0.3191 -1.0805  0.3713
 1644TIP3    H126567   0.549   5.688   0.723 -0.0777 -0.8460  0.3420
 1644TIP3    H226568   0.573   5.544   0.683  0.3555 -0.9649  1.0247
 1645TIP3   OH226569   0.838   5.410   1.808  0.7789 -0.5110 -0.3591
 1645TIP3    H126570   0.767   5.345   1.801  0.0088  0.1187  1.1249
 1645TIP3    H226571   0.866   5.405   1.900  0.9690  0.9795 -0.3139
 1646TIP3   OH226572   6.368   4.841   2.412 -0.4836 -0.3854 -0.1290
 1646TIP3    H126573   6.366   4.757   2.365  3.5324 -0.6297 -0.2117
 1646TIP3    H226574   6.315   4.900   2.359 -0.3009 -1.9498 -2.1638
 1647TIP3   OH226575   6.016   1.633   7.948 -0.5575  0.2135 -0.4390
 1647TIP3    H126576   6.044   1.718   7.913  0.7788  0.1374  0.3931
 1647TIP3    H226577   5.922   1.645   7.965 -0.6985  1.0530 -1.6439
 1648TIP3   OH226578   2.009   3.150   8.027  0.5026  0.3138 -0.1800
 1648TIP3    H126579   2.005   3.157   8.122  1.2228 -0.4937 -0.0765
 1648TIP3    H226580   2.074   3.216   8.001  0.9047 -0.0118 -0.0230
 1649TIP3   OH226581   3.198   3.063   8.196  0.2024 -0.0941 -0.3241
 1649TIP3    H126582   3.248   2.999   8.247 -0.9084  0.6923  1.9148
 1649TIP3    H226583   3.258   3.138   8.186  0.2978 -0.0913  0.2352
 1650TIP3   OH226584   3.946   4.238   0.095  0.3284  0.5006 -0.0822
 1650TIP3    H126585   4.025   4.186   0.111  0.2182  0.7276  1.3291
 1650TIP3    H226586   3.973   4.328   0.114 -0.9073  0.3125  3.1941
 1651TIP3   OH226587   4.064   2.718   1.866  0.0626  0.7783  0.2622
 1651TIP3    H126588   4.045   2.782   1.796  0.1114  0.8620  0.3249
 1651TIP3    H226589   3.977   2.688   1.894  0.0728 -0.1994 -0.6960
 1652TIP3   OH226590   2.506   2.386   0.038  0.2336 -0.6447  0.7057
 1652TIP3    H126591   2.495   2.365  -0.054  1.1239 -0.7986  0.6251
 1652TIP3    H226592   2.437   2.450   0.057  0.8676  0.3945 -0.4029
 1653TIP3   OH226593   5.346   1.855   2.648  0.0988  0.2564 -0.3807
 1653TIP3    H126594   5.320   1.923   2.709 -1.4188 -1.5503  1.1237
 1653TIP3    H226595   5.266   1.804   2.633  1.3709 -1.8608 -0.4841
 1654TIP3   OH226596   6.656   1.432   8.254 -0.1819 -0.1996  0.1336
 1654TIP3    H126597   6.599   1.367   8.296 -2.8473  1.3420 -0.8707
 1654TIP3    H226598   6.694   1.481   8.328 -1.7107 -0.0185  0.8351
 1655TIP3   OH226599   2.350   6.433   1.053  0.2948 -0.1316  0.5458
 1655TIP3    H126600   2.299   6.512   1.067 -1.0870 -1.0119  0.6797
 1655TIP3    H226601   2.415   6.457   0.987 -0.0426  1.1267  0.6546
 1656TIP3   OH226602   2.914   3.502   8.447  0.4031  0.0988 -0.5937
 1656TIP3    H126603   2.919   3.595   8.470 -1.5139  0.0050  0.3850
 1656TIP3    H226604   2.967   3.494   8.368  2.1866  1.6361  0.3739
 1657TIP3   OH226605   5.521   1.885   0.676 -0.7115  0.7001 -0.2704
 1657TIP3    H126606   5.483   1.943   0.610 -2.9969  1.1551  1.3274
 1657TIP3    H226607   5.462   1.891   0.751  1.0606 -0.7984  1.3720
 1658TIP3   OH226608   3.981   1.647   0.470 -0.2117 -0.2925  0.1091
 1658TIP3    H126609   3.942   1.735   0.475 -0.0885 -0.2034 -0.4484
 1658TIP3    H226610   4.045   1.653   0.399  2.4038  0.1674  2.3684
 1659TIP3   OH226611   1.120   2.289   1.894 -0.0277 -0.2217 -0.5495
 1659TIP3    H126612   1.170   2.349   1.948  1.7071 -1.3054 -0.8722
 1659TIP3    H226613   1.071   2.235   1.957 -1.9800  1.7265 -0.2677
 1660TIP3   OH226614   2.111   1.113   1.911  0.4394 -0.3666  0.1106
 1660TIP3    H126615   2.072   1.115   1.999  0.5661 -2.4084  0.2532
 1660TIP3    H226616   2.163   1.193   1.907 -0.0758  0.0907  1.6643
 1661TIP3   OH226617   2.094   5.236   7.233  0.2083 -0.0664  0.5290
 1661TIP3    H126618   1.999   5.252   7.234  0.6904  3.6933  0.2969
 1661TIP3    H226619   2.115   5.223   7.141 -0.0004 -0.4274  0.5292
 1662TIP3   OH226620   6.618   4.379   2.491  0.3149 -0.4267 -0.0917
 1662TIP3    H126621   6.676   4.305   2.473 -0.1997 -0.8249 -0.1198
 1662TIP3    H226622   6.530   4.342   2.485  0.0815 -0.0605  1.0356
 1663TIP3   OH226623   6.023   1.200   1.727  0.2072  0.4542 -0.7292
 1663TIP3    H126624   6.088   1.230   1.792 -1.0970  0.7425  0.4986
 1663TIP3    H226625   6.008   1.108   1.749 -2.5567  1.3191  1.5264
 1664TIP3   OH226626   2.634   6.264   7.444  0.2823 -0.6183 -0.4806
 1664TIP3    H126627   2.564   6.199   7.450 -0.7408  0.3300 -1.8992
 1664TIP3    H226628   2.686   6.249   7.524 -0.6951 -2.2660 -0.1011
 1665TIP3   OH226629   0.493   1.188   1.951 -0.4957 -0.5119 -0.0799
 1665TIP3    H126630   0.436   1.263   1.934  0.8998  0.4019 -0.9498
 1665TIP3    H226631   0.566   1.224   2.001  0.9689 -0.9081 -1.8015
 1666TIP3   OH226632   4.680   4.425   8.150 -0.1485 -0.6079  0.2292
 1666TIP3    H126633   4.663   4.512   8.185 -2.1643 -1.2087  0.9226
 1666TIP3    H226634   4.700   4.371   8.227  2.9792 -0.4424 -0.3591
 1667TIP3   OH226635   1.525   5.237   0.281  0.1159  0.0186 -0.1811
 1667TIP3    H126636   1.571   5.316   0.310  2.4527 -1.6265  0.8909
 1667TIP3    H226637   1.464   5.217   0.353  1.7890 -0.8333  1.0806
 1668TIP3   OH226638   2.062   3.855   6.647 -0.2097 -0.0880  0.3008
 1668TIP3    H126639   2.025   3.907   6.576 -0.2100 -0.9719 -0.3625
 1668TIP3    H226640   2.145   3.822   6.612  1.4502  2.1254  1.8743
 1669TIP3   OH226641   5.713   3.398   6.889 -0.0452  0.3927 -0.2423
 1669TIP3    H126642   5.622   3.411   6.862 -0.5674 -0.5369  0.9654
 1669TIP3    H226643   5.744   3.327   6.833 -0.9598 -1.1692  1.1115
 1670TIP3   OH226644   3.304   0.745   1.658  0.0944  0.0644 -0.0625
 1670TIP3    H126645   3.335   0.673   1.604  2.0556  0.8953 -0.1294
 1670TIP3    H226646   3.253   0.703   1.728  0.2984 -1.2763 -0.7035
 1671TIP3   OH226647   5.734   2.514   6.440  0.0856 -0.0560  0.5996
 1671TIP3    H126648   5.808   2.572   6.460  0.2025 -0.3480  1.0365
 1671TIP3    H226649   5.775   2.432   6.413 -0.0784 -0.1183  0.5418
 1672TIP3   OH226650   0.502   4.895   0.441  0.5938  0.3007 -0.1717
 1672TIP3    H126651   0.407   4.885   0.434  0.6403  0.6335 -1.4923
 1672TIP3    H226652   0.517   4.916   0.533 -0.8313  2.5877 -0.3859
 1673TIP3   OH226653   4.069   5.910   6.369  0.4886 -0.3278  0.1017
 1673TIP3    H126654   4.077   5.827   6.416  1.4212 -0.4609 -0.2753
 1673TIP3    H226655   3.978   5.912   6.340  0.3006 -0.9346  0.6266
 1674TIP3   OH226656   1.315   1.967   0.443  0.0050 -0.3575 -0.7961
 1674TIP3    H126657   1.266   1.949   0.363 -1.5150  0.7311 -0.1608
 1674TIP3    H226658   1.300   2.060   0.461  2.2473  0.0148 -0.4814
 1675TIP3   OH226659   5.790   3.932   1.301  0.3654  0.4090 -0.1913
 1675TIP3    H126660   5.859   3.944   1.367  1.0710  1.1552 -1.0344
 1675TIP3    H226661   5.718   3.892   1.349  1.0853  0.3690  0.8998
 1676TIP3   OH226662   2.928   0.861   2.000  0.1064  0.1169  0.4876
 1676TIP3    H126663   2.858   0.925   2.007 -1.4259 -0.9438 -3.0678
 1676TIP3    H226664   3.000   0.908   1.959  1.6648  1.1514  3.9599
 1677TIP3   OH226665   3.087   4.767   0.448  0.0687 -0.1588  0.1961
 1677TIP3    H126666   3.085   4.710   0.524 -2.2470  3.1783  2.9548
 1677TIP3    H226667   3.170   4.813   0.453  1.2183 -1.9678 -1.1125
 1678TIP3   OH226668   5.122   4.715   8.040  0.0933  1.2405 -0.2704
 1678TIP3    H126669   5.045   4.757   8.079  1.5489  4.7563 -0.7896
 1678TIP3    H226670   5.094   4.692   7.951 -2.4243 -4.4465  1.5297
 1679TIP3   OH226671   2.170   6.576   1.191  0.2849 -0.1165  0.7439
 1679TIP3    H126672   2.113   6.649   1.216  1.0504  0.3500  1.1654
 1679TIP3    H226673   2.111   6.501   1.181 -0.3462  0.2632  1.5603
 1680TIP3   OH226674   0.253   6.622   2.295 -0.4417  0.0724 -0.5721
 1680TIP3    H126675   0.248   6.695   2.233 -0.3363  2.6666  2.1953
 1680TIP3    H226676   0.346   6.616   2.318 -0.3148 -1.5925 -1.3845
 1681TIP3   OH226677   0.602   2.125   8.539  0.5829 -0.0616 -0.5146
 1681TIP3    H126678   0.557   2.116   8.455  1.7199 -1.4821 -0.9852
 1681TIP3    H226679   0.639   2.039   8.556  2.2051  0.7855  0.3931
 1682TIP3   OH226680   3.493   3.994   8.854  0.3745 -0.4786 -0.4189
 1682TIP3    H126681   3.449   4.076   8.831  0.2079 -0.4088  0.1277
 1682TIP3    H226682   3.438   3.925   8.816 -1.4104 -0.5140  1.9953
 1683TIP3   OH226683   3.477   0.100   7.710 -0.3922 -0.2186  0.1494
 1683TIP3    H126684   3.425   0.179   7.725 -0.6885  0.1410 -2.3766
 1683TIP3    H226685   3.507   0.108   7.620  0.7170 -2.3644  0.2697
 1684TIP3   OH226686   0.604   5.456   1.663 -0.5121 -0.0418 -0.6086
 1684TIP3    H126687   0.570   5.493   1.745 -1.8668 -0.1762 -1.0843
 1684TIP3    H226688   0.694   5.487   1.659 -0.8447  1.1295  0.2497
 1685TIP3   OH226689   6.724   6.784   7.425 -0.6847  0.0352  0.0127
 1685TIP3    H126690   6.730   6.700   7.471 -2.4347 -1.2056 -1.9021
 1685TIP3    H226691   6.648   6.827   7.464 -0.1629  0.4770  0.5586
 1686TIP3   OH226692   5.495   2.979   1.759  0.1037 -0.0197 -0.3702
 1686TIP3    H126693   5.555   3.010   1.826  1.1871 -2.3343 -0.1532
 1686TIP3    H226694   5.463   3.058   1.715  1.6269  1.3744  0.9446
 1687TIP3   OH226695   4.772   4.704   8.696 -0.0793  0.2249  0.5099
 1687TIP3    H126696   4.697   4.757   8.670  0.5772  0.6471 -0.6112
 1687TIP3    H226697   4.805   4.668   8.613  0.5383 -0.5181  1.0629
 1688TIP3   OH226698   0.474   3.102   2.048  0.3197 -0.3890  0.0983
 1688TIP3    H126699   0.462   3.094   2.143 -0.8686 -0.6900 -0.0522
 1688TIP3    H226700   0.526   3.025   2.024  1.5610  0.2599  0.6366
 1689TIP3   OH226701   5.364   6.277   0.037 -0.0751 -0.6211  0.3962
 1689TIP3    H126702   5.444   6.291  -0.014  1.3253 -0.2656  2.5905
 1689TIP3    H226703   5.331   6.192   0.008 -0.7093  0.5175 -2.7537
 1690TIP3   OH226704   0.420   1.943   1.160 -0.3015 -0.6721  0.0623
 1690TIP3    H126705   0.392   2.034   1.168 -0.4434 -0.7119  0.0203
 1690TIP3    H226706   0.495   1.947   1.099  0.1247 -0.5033  0.5915
 1691TIP3   OH226707   3.092   5.793   1.257  0.4807  0.3309 -0.4118
 1691TIP3    H126708   3.180   5.780   1.292  0.4816  0.9970 -0.1652
 1691TIP3    H226709   3.053   5.860   1.314 -0.3437 -0.2828 -0.2353
 1692TIP3   OH226710   2.271   4.981   0.508 -0.2264  0.0018  0.5201
 1692TIP3    H126711   2.359   4.990   0.545 -0.2484  0.5691  0.4429
 1692TIP3    H226712   2.269   5.046   0.437 -0.9739  0.5448  1.0268
 1693TIP3   OH226713   6.473   3.478   2.380 -0.2341  0.1970 -0.0666
 1693TIP3    H126714   6.507   3.405   2.329 -0.9681 -0.1989  0.0064
 1693TIP3    H226715   6.474   3.552   2.320  1.1333  0.3076  0.0482
 1694TIP3   OH226716   0.185   2.079   8.313 -0.2457  0.0928 -0.1812
 1694TIP3    H126717   0.094   2.105   8.297 -0.1651  0.0671 -0.7136
 1694TIP3    H226718   0.203   2.109   8.402 -1.0730 -0.7589  0.2880
 1695TIP3   OH226719   0.886   0.625   8.193 -0.1419  0.3218  0.1764
 1695TIP3    H126720   0.905   0.548   8.247  0.9273  0.4231 -0.0384
 1695TIP3    H226721   0.922   0.698   8.242 -0.7849  0.6357  0.1813
 1696TIP3   OH226722   1.844   0.861   8.260 -0.4259 -0.4170 -0.0961
 1696TIP3    H126723   1.869   0.769   8.261  0.5423 -0.1757  1.6412
 1696TIP3    H226724   1.914   0.904   8.210 -0.9738 -0.6184 -1.0670
 1697TIP3   OH226725   1.440   6.127   2.442  0.4078 -0.3228 -0.3019
 1697TIP3    H126726   1.357   6.080   2.446  0.6417 -0.6641  1.0250
 1697TIP3    H226727   1.436   6.177   2.360 -1.0440 -0.4269 -0.3127
 1698TIP3   OH226728   6.297   4.637   2.245 -0.0877  0.2995  0.8138
 1698TIP3    H126729   6.211   4.598   2.228 -0.6320  1.6429  0.2993
 1698TIP3    H226730   6.353   4.563   2.268 -0.7527 -0.9537 -1.2751
 1699TIP3   OH226731   0.199   4.017   8.493 -0.5201  0.0369 -0.6047
 1699TIP3    H126732   0.274   3.989   8.545 -1.0144 -0.0222  0.0956
 1699TIP3    H226733   0.155   4.083   8.547  0.4701  2.0344 -2.1128
 1700TIP3   OH226734   1.943   1.391   1.711  0.2168 -0.3251  0.3260
 1700TIP3    H126735   1.924   1.380   1.805 -1.2307 -0.3460  0.0591
 1700TIP3    H226736   1.857   1.406   1.672  0.8493  0.0315 -0.9596
 1701TIP3   OH226737   2.640   4.018   1.868 -0.2377  1.2615  0.2538
 1701TIP3    H126738   2.609   4.011   1.958 -1.2362 -0.2228 -0.1635
 1701TIP3    H226739   2.725   3.974   1.867 -0.5000  0.7426  0.3663
 1702TIP3   OH226740   1.189   2.882   7.270 -0.0644 -0.1440 -0.1259
 1702TIP3    H126741   1.160   2.814   7.209 -0.0783 -0.4893  0.2597
 1702TIP3    H226742   1.284   2.873   7.274 -0.2321 -1.8878  1.8950
 1703TIP3   OH226743   3.639   6.007   0.978 -0.2725  0.2506 -0.4585
 1703TIP3    H126744   3.626   5.914   0.956 -0.0234 -0.5025  2.1678
 1703TIP3    H226745   3.728   6.027   0.948  0.6135 -1.1360  1.0515
 1704TIP3   OH226746   1.241   5.721   7.767 -0.2631  0.2908  0.1938
 1704TIP3    H126747   1.175   5.754   7.828 -1.1264 -0.2601 -0.4122
 1704TIP3    H226748   1.299   5.796   7.752  1.0213 -0.0054  2.9810
 1705TIP3   OH226749   2.810   2.869   1.563  0.1606 -0.0377  0.1618
 1705TIP3    H126750   2.789   2.921   1.486 -1.4896 -0.9354 -0.0378
 1705TIP3    H226751   2.897   2.833   1.545  0.6676  1.3758 -0.3565
 1706TIP3   OH226752   1.470   4.561   6.859  0.3523  0.5171  0.1257
 1706TIP3    H126753   1.503   4.502   6.791  1.4033 -0.9108  1.7867
 1706TIP3    H226754   1.469   4.508   6.939 -1.0255  2.0710  1.2238
 1707TIP3   OH226755   4.654   4.281   7.080  0.4461  0.2302  0.7457
 1707TIP3    H126756   4.711   4.237   7.143 -2.1603 -0.3932  2.8403
 1707TIP3    H226757   4.617   4.355   7.128 -2.8926 -1.1970  0.6848
 1708TIP3   OH226758   1.299   4.777   7.473  0.1356 -0.5800  0.3170
 1708TIP3    H126759   1.275   4.840   7.405  4.0490  1.2028  0.3272
 1708TIP3    H226760   1.325   4.831   7.548  0.6197 -2.3510  1.4938
 1709TIP3   OH226761   5.838   3.020   2.539 -0.5301 -0.2356 -0.6085
 1709TIP3    H126762   5.808   3.097   2.491 -0.1711 -0.1065 -0.6224
 1709TIP3    H226763   5.806   3.033   2.629 -0.2450  0.0496 -0.5503
 1710TIP3   OH226764   4.514   6.311   0.873 -0.5983 -0.3990  0.4804
 1710TIP3    H126765   4.456   6.235   0.873  0.2928 -1.1105 -0.4352
 1710TIP3    H226766   4.590   6.283   0.925 -0.7016  0.2288  0.9820
 1711TIP3   OH226767   4.515   6.633   6.991 -0.1097  0.0626  0.3760
 1711TIP3    H126768   4.445   6.568   6.994  0.6331 -0.7161  1.8379
 1711TIP3    H226769   4.505   6.675   6.906 -1.8938 -0.5250  0.2615
 1712TIP3   OH226770   4.011   6.121   1.756  0.3394  0.3870 -0.1059
 1712TIP3    H126771   4.028   6.026   1.752 -0.1455  0.3204 -0.5923
 1712TIP3    H226772   4.008   6.140   1.850  1.9487  0.1931  0.0170
 1713TIP3   OH226773   1.736   1.441   6.952  0.3895  0.5290  0.3069
 1713TIP3    H126774   1.776   1.368   6.905  1.4309  0.4946  1.2252
 1713TIP3    H226775   1.718   1.506   6.884  0.2108 -0.2282 -0.3946
 1714TIP3   OH226776   4.707   6.242   1.438  0.2404 -0.4004  0.5511
 1714TIP3    H126777   4.679   6.286   1.518  2.7041  2.0266  0.2225
 1714TIP3    H226778   4.799   6.219   1.453  1.5748  2.3066 -2.2885
 1715TIP3   OH226779   6.606   1.188   1.051  0.5147  0.3187 -0.4016
 1715TIP3    H126780   6.632   1.130   1.122  1.2614 -1.4879 -2.0895
 1715TIP3    H226781   6.668   1.171   0.981  0.2781  2.6286 -1.2642
 1716TIP3   OH226782   6.333   4.594   1.976  0.0627 -0.5673 -0.3217
 1716TIP3    H126783   6.247   4.614   1.937 -0.0884 -1.7110 -0.6110
 1716TIP3    H226784   6.335   4.645   2.057 -0.8994 -0.5431 -0.3011
 1717TIP3   OH226785   0.906   3.570   8.000  0.1981  0.2322 -0.5852
 1717TIP3    H126786   0.903   3.665   7.989 -0.1208  0.2379 -0.4657
 1717TIP3    H226787   0.989   3.553   8.046  1.5567  0.2074 -2.9047
 1718TIP3   OH226788   4.723   6.128   0.452  0.0842 -0.0464 -0.0524
 1718TIP3    H126789   4.745   6.144   0.544  1.8267  1.8956 -0.7382
 1718TIP3    H226790   4.774   6.051   0.428 -1.3922 -1.3923  0.8912
 1719TIP3   OH226791   0.098   3.777   7.743 -0.3365  0.0987 -0.6345
 1719TIP3    H126792   0.139   3.837   7.805 -0.8697  0.3920 -0.5609
 1719TIP3    H226793   0.111   3.819   7.657  0.7672 -0.5115 -0.7754
 1720TIP3   OH226794   5.004   4.766   1.042  0.6076 -0.7841 -0.1400
 1720TIP3    H126795   4.931   4.784   1.101  2.3792 -0.2421  2.0046
 1720TIP3    H226796   4.995   4.673   1.019 -0.1701 -0.9808  0.9227
 1721TIP3   OH226797   5.904   2.842   0.608  0.1246 -0.9420 -0.2696
 1721TIP3    H126798   5.995   2.829   0.581  0.3759  0.2386 -0.0555
 1721TIP3    H226799   5.902   2.817   0.700  1.3162  2.9757  1.0434
 1722TIP3   OH226800   4.479   4.444   0.445 -0.0542 -0.1984  0.0316
 1722TIP3    H126801   4.506   4.378   0.509 -0.8485  0.9504  1.6302
 1722TIP3    H226802   4.560   4.489   0.421  0.5173 -1.8321 -1.2186
 1723TIP3   OH226803   1.675   4.169   2.042  0.1954  0.2392  0.0131
 1723TIP3    H126804   1.618   4.239   2.073 -0.7211 -0.4466 -0.0791
 1723TIP3    H226805   1.623   4.124   1.975  0.5257 -0.8922  0.4902
 1724TIP3   OH226806   5.191   0.860   1.126 -0.3924 -0.0706  0.0409
 1724TIP3    H126807   5.183   0.829   1.216  1.0332 -1.8710 -0.3836
 1724TIP3    H226808   5.118   0.921   1.115 -1.0751 -0.4092  2.1453
 1725TIP3   OH226809   0.304   3.901   8.266  0.7113  0.5028 -0.1719
 1725TIP3    H126810   0.261   3.923   8.349 -0.8894 -1.2819 -0.4558
 1725TIP3    H226811   0.357   3.824   8.286 -1.2967 -1.2343 -1.1592
 1726TIP3   OH226812   2.454   1.016   0.417  0.2502 -0.1915 -0.0012
 1726TIP3    H126813   2.387   0.988   0.480  1.1311 -1.2482  0.5056
 1726TIP3    H226814   2.413   1.087   0.369 -1.2772 -0.8603  0.2407
 1727TIP3   OH226815   3.470   3.064   1.000  0.1953  0.4772 -0.7638
 1727TIP3    H126816   3.493   3.125   1.070  0.4415  0.4119 -0.7862
 1727TIP3    H226817   3.405   3.005   1.039  1.3087 -0.3992 -0.1676
 1728TIP3   OH226818   3.317   4.017   7.753  0.3375 -0.4018 -0.7432
 1728TIP3    H126819   3.259   4.083   7.790  1.0177 -0.0884 -0.2069
 1728TIP3    H226820   3.279   3.933   7.781 -0.0091 -0.2119 -0.6347
 1729TIP3   OH226821   4.123   0.594   7.149  0.0998 -0.0646  0.7554
 1729TIP3    H126822   4.110   0.640   7.066  1.3321  0.5826  0.9000
 1729TIP3    H226823   4.187   0.647   7.196 -1.2383  0.0510  2.5174
 1730TIP3   OH226824   4.581   3.948   8.805  0.7034  0.1566 -0.1084
 1730TIP3    H126825   4.639   3.934   8.879  1.8002  1.0567 -0.7631
 1730TIP3    H226826   4.504   3.894   8.824  0.4009  1.3036  2.2544
 1731TIP3   OH226827   5.910   3.279   7.361  0.5656  0.5585 -0.6530
 1731TIP3    H126828   5.879   3.348   7.302  1.1597  1.4155  0.0161
 1731TIP3    H226829   5.986   3.317   7.404  1.0256 -0.6054 -0.4198
 1732TIP3   OH226830   6.322   1.639   1.599  0.1118  0.4120 -0.0595
 1732TIP3    H126831   6.344   1.698   1.671  2.0567  0.6132 -0.7575
 1732TIP3    H226832   6.406   1.610   1.565 -0.7882 -2.0407 -0.3736
 1733TIP3   OH226833   0.560   1.120   8.634 -0.4867 -0.2891 -0.0758
 1733TIP3    H126834   0.645   1.131   8.592  0.2489  0.5293  1.5517
 1733TIP3    H226835   0.510   1.197   8.608  0.2551  0.6396  1.1662
 1734TIP3   OH226836   4.885   4.108   8.217  0.1634  0.1663  0.0752
 1734TIP3    H126837   4.906   4.155   8.137 -0.4721  0.1110 -0.1298
 1734TIP3    H226838   4.874   4.177   8.283  2.1567  0.1551  0.5037
 1735TIP3   OH226839   0.722   5.079   7.425  0.3253  0.4100 -0.0063
 1735TIP3    H126840   0.715   5.052   7.517 -1.5353  0.2922 -0.1520
 1735TIP3    H226841   0.782   5.016   7.386  2.0148  1.1085  1.3364
 1736TIP3   OH226842   4.164   1.807   1.782 -0.2523  0.5353 -0.1414
 1736TIP3    H126843   4.248   1.846   1.808 -1.0123  0.6449  2.3686
 1736TIP3    H226844   4.183   1.764   1.698  1.6395  2.7456 -0.9762
 1737TIP3   OH226845   4.892   3.723   1.617 -0.1507  0.8234 -0.3234
 1737TIP3    H126846   4.923   3.788   1.681 -0.4743  1.3828 -0.7294
 1737TIP3    H226847   4.972   3.679   1.589 -0.0324  0.3559  0.6898
 1738TIP3   OH226848   1.651   0.896   7.424 -0.2340  0.1010 -0.0118
 1738TIP3    H126849   1.742   0.896   7.394 -0.0865 -1.7026  0.3374
 1738TIP3    H226850   1.637   0.985   7.456  1.6224  0.2486  0.5453
 1739TIP3   OH226851   0.629   6.743   7.716  0.1129  0.1772  0.0003
 1739TIP3    H126852   0.724   6.734   7.702  0.0907 -1.9285  0.8392
 1739TIP3    H226853   0.601   6.808   7.651  2.1199  0.8628 -0.2450
 1740TIP3   OH226854   0.060   6.495   8.104  0.2116  0.6298 -0.1838
 1740TIP3    H126855   0.066   6.420   8.044 -0.5599 -0.3445  0.9019
 1740TIP3    H226856   0.115   6.562   8.065  2.7122 -1.2482 -0.0930
 1741TIP3   OH226857   1.232   0.900   8.124 -0.4409  0.1551  0.3411
 1741TIP3    H126858   1.181   0.823   8.150  1.6776 -2.1154 -1.5905
 1741TIP3    H226859   1.321   0.880   8.153  0.2848  1.5825 -0.7857
 1742TIP3   OH226860   1.261   4.225   6.824  0.3148 -0.4303 -0.2328
 1742TIP3    H126861   1.304   4.196   6.904  1.7914  2.5537  0.1786
 1742TIP3    H226862   1.169   4.200   6.835  0.5274 -0.3105  2.2715
 1743TIP3   OH226863   2.609   5.458   7.764  0.3390  0.2077 -0.1438
 1743TIP3    H126864   2.595   5.550   7.741 -0.4285  0.3335  0.7822
 1743TIP3    H226865   2.547   5.410   7.710  0.1296  0.3113  0.0019
 1744TIP3   OH226866   0.900   0.419   6.701  0.2323 -0.1733 -0.1161
 1744TIP3    H126867   0.995   0.414   6.695  0.1638 -0.8423 -0.7773
 1744TIP3    H226868   0.868   0.356   6.636 -0.6516 -0.8217  0.8972
 1745TIP3   OH226869   0.606   1.872   8.633 -0.4296  0.6620 -0.3942
 1745TIP3    H126870   0.563   1.847   8.551  0.4284 -2.7931  0.0386
 1745TIP3    H226871   0.534   1.896   8.692 -1.0963  2.5765 -1.9086
 1746TIP3   OH226872   3.105   6.082   8.754 -0.0024  0.1062  0.2491
 1746TIP3    H126873   3.013   6.058   8.745  0.0947  0.1968 -1.1927
 1746TIP3    H226874   3.153   6.001   8.736  0.2184  0.2662  0.1184
 1747TIP3   OH226875   2.818   3.505   7.453 -0.6484 -0.2075 -0.0073
 1747TIP3    H126876   2.738   3.506   7.400  0.5645  2.1627 -2.0211
 1747TIP3    H226877   2.876   3.445   7.406 -0.4156 -0.0104  0.0289
 1748TIP3   OH226878   4.504   5.995   2.041  0.3040 -0.1717 -0.9641
 1748TIP3    H126879   4.412   5.984   2.018 -0.3678  3.0622 -0.3166
 1748TIP3    H226880   4.520   5.929   2.109 -1.5992 -0.6071 -0.8887
 1749TIP3   OH226881   3.690   1.503   0.859  0.5299  0.3849  0.8027
 1749TIP3    H126882   3.712   1.486   0.951  1.6407 -2.1536  0.1628
 1749TIP3    H226883   3.774   1.515   0.816  0.4394 -2.7057 -0.5254
 1750TIP3   OH226884   4.447   1.352   0.137 -0.0717  0.0979 -0.2592
 1750TIP3    H126885   4.356   1.369   0.159  0.3530 -0.0311  1.8470
 1750TIP3    H226886   4.479   1.298   0.209  1.3708 -0.8505 -1.5492
 1751TIP3   OH226887   0.087   3.669   7.042  0.0105 -0.1242  0.2056
 1751TIP3    H126888   0.122   3.618   6.968 -0.4684  0.7212 -0.6323
 1751TIP3    H226889   0.022   3.727   7.002  0.9883  1.6091  1.0228
 1752TIP3   OH226890   3.960   0.434   2.080  0.4927  0.0791 -0.0956
 1752TIP3    H126891   3.921   0.478   2.155 -0.8755 -1.5801  0.2206
 1752TIP3    H226892   3.971   0.343   2.108  0.4565 -0.4610 -1.7187
 1753TIP3   OH226893   4.457   3.454   2.170  0.3857 -0.4343 -0.7350
 1753TIP3    H126894   4.373   3.415   2.143 -0.0619 -0.9779  1.2342
 1753TIP3    H226895   4.503   3.383   2.215  1.3089  0.2348 -0.5855
 1754TIP3   OH226896   5.156   3.161   2.093  0.2398  0.0378 -0.0511
 1754TIP3    H126897   5.141   3.252   2.068  0.5188 -0.2068 -1.1277
 1754TIP3    H226898   5.125   3.110   2.018  0.2848 -0.7491  0.4567
 1755TIP3   OH226899   4.092   1.044   0.930  0.2385 -0.4356 -0.1673
 1755TIP3    H126900   4.113   1.020   0.840  0.6786  1.3258 -0.5799
 1755TIP3    H226901   4.177   1.054   0.973  0.0306 -1.1852  0.4366
 1756TIP3   OH226902   6.111   4.176   8.620  0.4404  0.3585 -0.3788
 1756TIP3    H126903   6.178   4.156   8.555  0.1406  0.3414 -0.6842
 1756TIP3    H226904   6.033   4.198   8.569  0.9854  3.3274 -0.1039
 1757TIP3   OH226905   6.551   4.862   1.532 -0.1031 -0.5757 -0.6453
 1757TIP3    H126906   6.464   4.838   1.501  0.1258 -0.7823 -1.1365
 1757TIP3    H226907   6.595   4.778   1.546 -0.6031 -0.5496  1.4424
 1758TIP3   OH226908   0.687   4.392   2.557 -0.0242  0.1262  0.5623
 1758TIP3    H126909   0.729   4.476   2.574  0.3533  0.0819 -0.0888
 1758TIP3    H226910   0.757   4.337   2.521 -0.5306 -0.0867 -0.1253
 1759TIP3   OH226911   2.823   3.067   0.656 -0.6703 -0.4330  0.1777
 1759TIP3    H126912   2.889   3.038   0.592  0.1164 -0.3645  0.9459
 1759TIP3    H226913   2.808   2.990   0.711  2.6345  0.8589  3.2712
 1760TIP3   OH226914   1.119   6.528   7.781  0.3782 -0.0714  0.3197
 1760TIP3    H126915   1.066   6.590   7.731 -0.5361 -1.2844 -0.2494
 1760TIP3    H226916   1.058   6.488   7.843  0.7676 -1.0004  0.1195
 1761TIP3   OH226917   3.738   6.533   7.371  0.1680  0.8459 -0.7813
 1761TIP3    H126918   3.653   6.576   7.373  0.3209  1.1451  0.4075
 1761TIP3    H226919   3.719   6.444   7.340 -0.8363  0.4338  0.8629
 1762TIP3   OH226920   6.278   6.051   8.094  0.1560  0.3191  0.2278
 1762TIP3    H126921   6.203   6.064   8.152  0.4900  1.1694  0.4732
 1762TIP3    H226922   6.354   6.056   8.151  0.4597  0.5998 -0.1936
 1763TIP3   OH226923   4.342   3.828   7.195  0.9102  0.3406 -0.2962
 1763TIP3    H126924   4.350   3.836   7.100  3.3227  0.1922 -0.1562
 1763TIP3    H226925   4.248   3.826   7.210  0.3940  2.3326 -2.5123
 1764TIP3   OH226926   5.023   0.097   7.044  0.2757  0.3663 -0.0888
 1764TIP3    H126927   5.025   0.017   6.992  0.6077  1.4837 -1.8915
 1764TIP3    H226928   4.940   0.094   7.091  0.4040 -1.1404  0.0784
 1765TIP3   OH226929   1.140   6.148   7.561  0.2853 -0.1349 -0.7122
 1765TIP3    H126930   1.048   6.163   7.538  0.8248  0.1902 -2.9662
 1765TIP3    H226931   1.170   6.232   7.594  0.2498  0.3803 -1.9212
 1766TIP3   OH226932   2.557   3.504   7.359 -0.5061 -0.0157  0.5826
 1766TIP3    H126933   2.499   3.563   7.312 -0.2431 -1.2367 -1.4083
 1766TIP3    H226934   2.499   3.452   7.414 -1.2318 -0.6090 -0.7004
 1767TIP3   OH226935   1.934   3.692   7.894 -0.2152 -0.1762  0.1980
 1767TIP3    H126936   1.860   3.649   7.936 -0.0253 -0.0521  0.6647
 1767TIP3    H226937   1.916   3.685   7.800 -1.5433  1.1049  0.3181
 1768TIP3   OH226938   5.336   1.522   6.545  0.1722 -0.0974  0.1227
 1768TIP3    H126939   5.426   1.556   6.540 -0.3714  1.3042 -0.8387
 1768TIP3    H226940   5.329   1.463   6.470  0.3572 -0.3908  0.3346
 1769TIP3   OH226941   6.037   2.563   2.393 -0.6834  0.4696  0.1190
 1769TIP3    H126942   6.021   2.650   2.430 -3.9961  0.8376 -1.7578
 1769TIP3    H226943   5.964   2.510   2.425  1.1988 -1.7076  1.1282
 1770TIP3   OH226944   1.486   6.332   1.494  0.5840  0.1634  0.1493
 1770TIP3    H126945   1.576   6.310   1.472  1.0087  2.1297 -0.2557
 1770TIP3    H226946   1.465   6.276   1.569  1.5660 -1.4691 -0.7274
 1771TIP3   OH226947   4.228   4.444   1.604 -0.3471 -0.1770  0.3527
 1771TIP3    H126948   4.175   4.424   1.681 -0.5177 -1.3629 -0.0553
 1771TIP3    H226949   4.266   4.360   1.578 -2.8474 -0.5278 -2.7707
 1772TIP3   OH226950   2.240   1.854   7.670  0.1212 -0.3568 -0.4964
 1772TIP3    H126951   2.277   1.941   7.681  0.2292 -0.5439  0.7001
 1772TIP3    H226952   2.215   1.827   7.758  1.3274 -2.0993 -0.6519
 1773TIP3   OH226953   5.485   0.366   7.788 -0.2611  0.3086 -0.2660
 1773TIP3    H126954   5.578   0.371   7.805 -0.4214  1.6616  0.3858
 1773TIP3    H226955   5.476   0.298   7.721  1.1879  0.2309 -0.4080
 1774TIP3   OH226956   6.630   1.174   0.057 -0.2333  0.6340 -0.2347
 1774TIP3    H126957   6.564   1.135  -0.001  0.5886 -1.4734  0.1636
 1774TIP3    H226958   6.600   1.264   0.070 -1.2052  0.7697 -2.7651
 1775TIP3   OH226959   2.685   3.715   0.871  0.2918  0.2302  0.0708
 1775TIP3    H126960   2.633   3.667   0.935 -0.6405  0.3987 -0.5266
 1775TIP3    H226961   2.769   3.669   0.867 -0.5997 -1.4203 -0.5476
 1776TIP3   OH226962   1.061   0.405   8.324 -0.3266 -0.7643 -0.4504
 1776TIP3    H126963   1.065   0.371   8.413 -0.0361 -0.7217 -0.4451
 1776TIP3    H226964   1.104   0.490   8.328 -2.5323  0.4059 -0.1161
 1777TIP3   OH226965   1.580   5.792   7.100 -0.7143  0.2118  0.0652
 1777TIP3    H126966   1.545   5.879   7.118 -1.3863 -0.0896  0.2339
 1777TIP3    H226967   1.563   5.777   7.007 -0.9669  0.1025  0.1267
 1778TIP3   OH226968   3.909   3.272   7.169 -0.1100 -0.3180  0.3921
 1778TIP3    H126969   3.823   3.315   7.167  0.7026  1.4024 -0.6090
 1778TIP3    H226970   3.936   3.270   7.077  0.3850 -2.0512  0.5485
 1779TIP3   OH226971   5.463   3.238   1.718  0.4739  0.4448  0.0976
 1779TIP3    H126972   5.417   3.300   1.775  1.3011  1.3220 -0.1654
 1779TIP3    H226973   5.555   3.248   1.742  0.5495 -1.4344  0.7706
 1780TIP3   OH226974   1.466   6.272   2.197 -0.0523 -0.4205  0.3105
 1780TIP3    H126975   1.550   6.315   2.182  0.1524 -0.1795  1.9495
 1780TIP3    H226976   1.461   6.204   2.129  0.4846  0.8958 -1.1077
 1781TIP3   OH226977   0.554   1.112   1.215 -0.0980 -0.1465 -0.7633
 1781TIP3    H126978   0.538   1.154   1.300 -0.4869  0.2500 -1.0307
 1781TIP3    H226979   0.561   1.184   1.153  1.1253 -0.3812 -0.9327
 1782TIP3   OH226980   4.177   3.588   0.524 -0.0599  0.5368 -0.6205
 1782TIP3    H126981   4.085   3.583   0.547  0.2718  2.4194  1.4248
 1782TIP3    H226982   4.206   3.674   0.555  2.0713  0.5964 -2.4561
 1783TIP3   OH226983   6.352   4.980   8.616 -0.2723  0.4345  0.4062
 1783TIP3    H126984   6.314   5.005   8.701  0.1028  1.2987  0.3295
 1783TIP3    H226985   6.359   4.884   8.620  1.9495  0.5817  2.3367
 1784TIP3   OH226986   4.388   4.143   8.574  0.1079  0.5809 -0.1725
 1784TIP3    H126987   4.331   4.128   8.649 -0.4395  3.4122  0.0876
 1784TIP3    H226988   4.475   4.115   8.604 -0.5601 -0.9614  0.4570
 1785TIP3   OH226989   6.328   3.235   2.099  0.7377 -0.5445  0.5365
 1785TIP3    H126990   6.400   3.230   2.163  0.7371  1.6097  0.8087
 1785TIP3    H226991   6.362   3.293   2.030 -0.0296 -1.1287 -0.3517
 1786TIP3   OH226992   6.302   4.759   7.533 -0.8627 -0.0245  0.2058
 1786TIP3    H126993   6.345   4.843   7.518 -0.1974 -0.3041  0.4890
 1786TIP3    H226994   6.296   4.718   7.447 -0.0418 -0.2208  0.2352
 1787TIP3   OH226995   5.523   0.664   8.036  0.1599  0.4370  0.6972
 1787TIP3    H126996   5.611   0.674   8.072  1.7900 -1.4655 -2.3189
 1787TIP3    H226997   5.536   0.663   7.941 -2.9070 -1.5448  0.1599
 1788TIP3   OH226998   2.308   6.712   7.839  0.7999  0.1085 -0.4346
 1788TIP3    H126999   2.329   6.786   7.782  0.6131  1.9387  1.7218
 1788TIP3    H227000   2.219   6.689   7.816  0.5638  1.1301 -0.6058
 1789TIP3   OH227001   0.707   3.456   1.002 -0.2090  0.1076  0.6774
 1789TIP3    H127002   0.689   3.545   0.971 -2.5833  0.4329  2.7014
 1789TIP3    H227003   0.802   3.454   1.015 -0.0632  2.1960  0.2350
 1790TIP3   OH227004   3.306   6.270   8.308 -0.6718  0.5565  0.6216
 1790TIP3    H127005   3.288   6.328   8.234  0.8359 -0.3288 -0.4934
 1790TIP3    H227006   3.286   6.322   8.385 -1.0560  1.9399 -0.3773
 1791TIP3   OH227007   6.214   3.170   8.805  0.0958 -0.6907  0.0224
 1791TIP3    H127008   6.195   3.119   8.884  0.3151  1.2580  1.4193
 1791TIP3    H227009   6.128   3.197   8.773  0.0385 -0.8867  0.0090
 1792TIP3   OH227010   5.373   5.802   1.620  0.0070 -0.0445 -0.2924
 1792TIP3    H127011   5.460   5.843   1.631  0.7241 -1.2093 -1.3885
 1792TIP3    H227012   5.314   5.876   1.607  1.2136  0.7089 -1.8824
 1793TIP3   OH227013   1.476   5.800   1.705 -0.1218 -0.0087 -0.0405
 1793TIP3    H127014   1.514   5.866   1.763  0.2985 -0.3086  0.0213
 1793TIP3    H227015   1.382   5.804   1.724 -0.3093  1.5870 -1.0581
 1794TIP3   OH227016   6.196   5.460   2.112  0.1898  0.1774  0.3292
 1794TIP3    H127017   6.173   5.450   2.204  1.1606  0.5207  0.6184
 1794TIP3    H227018   6.264   5.527   2.111  0.0183  0.3564 -0.6661
 1795TIP3   OH227019   4.415   4.743   7.590  0.0885 -0.4294  0.3554
 1795TIP3    H127020   4.504   4.718   7.617  0.4952 -1.6359 -1.8717
 1795TIP3    H227021   4.373   4.661   7.565 -1.0968  0.3155 -0.1847
 1796TIP3   OH227022   6.301   3.503   7.961 -0.5979  0.1343  0.5317
 1796TIP3    H127023   6.340   3.504   7.874  1.2835  0.8464  1.3221
 1796TIP3    H227024   6.213   3.538   7.949 -0.6232 -0.4528 -1.1692
 1797TIP3   OH227025   3.857   2.534   0.760  0.0971 -0.2333 -0.1264
 1797TIP3    H127026   3.813   2.602   0.811  1.7859  1.1491 -0.4068
 1797TIP3    H227027   3.948   2.563   0.754  0.8437 -2.4224 -0.4754
 1798TIP3   OH227028   0.741   4.220   0.295  0.0272 -0.0758  0.1737
 1798TIP3    H127029   0.721   4.221   0.201  0.1552  1.0334  0.1430
 1798TIP3    H227030   0.791   4.139   0.308  4.3274  1.9566 -1.6831
 1799TIP3   OH227031   6.417   5.291   0.219  0.4244  0.3816  0.3958
 1799TIP3    H127032   6.428   5.212   0.271  1.1299  0.5570  0.5344
 1799TIP3    H227033   6.389   5.358   0.282 -2.1236 -0.1732 -0.0354
 1800TIP3   OH227034   5.054   4.966   7.286  0.1800  0.9750 -0.1053
 1800TIP3    H127035   4.986   5.012   7.336  0.1737  0.4428  0.3891
 1800TIP3    H227036   5.005   4.911   7.225  0.1894  2.1061 -1.1729
 1801TIP3   OH227037   1.705   0.155   7.009 -0.0797  0.1421 -0.4602
 1801TIP3    H127038   1.698   0.091   6.937  0.9366 -0.1972 -0.2691
 1801TIP3    H227039   1.682   0.238   6.968 -0.6274 -0.2166 -0.9092
 1802TIP3   OH227040   0.209   2.811   0.147 -0.0915  0.2689 -0.6219
 1802TIP3    H127041   0.223   2.835   0.239 -0.3975 -0.0719 -0.4815
 1802TIP3    H227042   0.220   2.893   0.099 -0.0371  0.4726 -0.2708
 1803TIP3   OH227043   4.448   6.035   0.882  0.0345 -0.0005  0.1438
 1803TIP3    H127044   4.482   5.982   0.810 -2.0127 -0.9057 -0.2138
 1803TIP3    H227045   4.454   5.978   0.958  1.3388  0.6318  0.5360
 1804TIP3   OH227046   0.243   6.156   0.037 -0.6796 -0.8947 -0.0413
 1804TIP3    H127047   0.224   6.198  -0.046  0.9898 -1.4975 -0.7785
 1804TIP3    H227048   0.304   6.215   0.081 -0.5524 -1.1828  0.1780
 1805TIP3   OH227049   2.611   0.813   1.844 -0.8044 -0.1742 -0.5550
 1805TIP3    H127050   2.617   0.795   1.938 -0.4211  0.3373 -0.4754
 1805TIP3    H227051   2.632   0.729   1.802 -3.0854 -0.9876 -0.1965
 1806TIP3   OH227052   1.257   4.954   0.988  0.1704 -0.3141 -0.1459
 1806TIP3    H127053   1.186   5.018   0.980 -1.1341 -1.7781 -0.9073
 1806TIP3    H227054   1.291   4.945   0.899  1.2048  0.2144  0.1770
 1807TIP3   OH227055   2.767   5.870   2.392 -0.5881  0.3130  0.0111
 1807TIP3    H127056   2.814   5.834   2.467  2.2017  0.9768 -1.3136
 1807TIP3    H227057   2.757   5.963   2.412 -1.9609  0.0949  0.5173
 1808TIP3   OH227058   0.058   0.014   7.712  0.4665  0.5159  0.2067
 1808TIP3    H127059   0.097  -0.062   7.669 -1.1729 -1.2395  1.6578
 1808TIP3    H227060  -0.016  -0.021   7.760  0.4739  2.8412  2.0839
 1809TIP3   OH227061   4.264   0.940   8.143  0.2708  0.1206 -0.4355
 1809TIP3    H127062   4.257   0.845   8.152  0.4638 -0.1104 -2.2395
 1809TIP3    H227063   4.209   0.961   8.068  0.6222  1.3659 -0.3723
 1810TIP3   OH227064   5.605   4.289   1.614 -0.0111 -0.1431  0.0260
 1810TIP3    H127065   5.621   4.209   1.564  0.3504 -0.3059  0.3911
 1810TIP3    H227066   5.689   4.306   1.658 -0.2583  0.1138  0.3995
 1811TIP3   OH227067   5.163   6.231   7.152  0.8671 -0.2165 -0.3790
 1811TIP3    H127068   5.250   6.268   7.168  0.6722  0.6988 -1.2648
 1811TIP3    H227069   5.107   6.308   7.137 -0.5241 -0.6721  1.9479
 1812TIP3   OH227070   1.730   1.935   0.942 -0.3884  0.6278  0.1000
 1812TIP3    H127071   1.772   1.893   0.867 -2.9699  0.3378 -1.2898
 1812TIP3    H227072   1.721   1.864   1.006 -0.2250  0.2952 -0.2371
 1813TIP3   OH227073   0.966   2.467   0.815 -0.0063 -0.5890  0.1978
 1813TIP3    H127074   1.058   2.465   0.788 -0.3768  1.2480 -1.4075
 1813TIP3    H227075   0.929   2.386   0.779  0.5058 -0.2682 -1.1167
 1814TIP3   OH227076   6.655   2.598   1.104  0.1672  0.0636  0.0160
 1814TIP3    H127077   6.629   2.643   1.184  0.9053  1.8041 -0.6916
 1814TIP3    H227078   6.648   2.664   1.035  1.4084 -0.8554 -1.0400
 1815TIP3   OH227079   3.133   4.742   8.099  0.3461  0.7396 -0.3071
 1815TIP3    H127080   3.053   4.794   8.094 -0.0828  0.2074  0.7389
 1815TIP3    H227081   3.109   4.665   8.150  1.6445  0.8357  0.5135
 1816TIP3   OH227082   0.925   0.899   1.276 -0.4651 -0.3110  0.1855
 1816TIP3    H127083   0.866   0.867   1.208  1.2422 -1.2763 -0.9240
 1816TIP3    H227084   0.980   0.964   1.231 -1.7676  1.8911  1.6227
 1817TIP3   OH227085   5.128   1.782   0.197  0.2333  0.1741  0.2503
 1817TIP3    H127086   5.205   1.838   0.207  0.5874 -0.3165  0.3420
 1817TIP3    H227087   5.104   1.759   0.287 -1.3228  2.0258  0.3711
 1818TIP3   OH227088   0.719   3.780   0.567 -0.3133  0.0554 -0.3625
 1818TIP3    H127089   0.736   3.856   0.623  1.8492 -0.6540  0.0816
 1818TIP3    H227090   0.777   3.712   0.602 -1.6531 -1.5928 -1.1825
 1819TIP3   OH227091   1.524   0.457   8.730  0.4603  0.5738  0.3565
 1819TIP3    H127092   1.591   0.389   8.729 -1.2057 -1.1871 -0.9323
 1819TIP3    H227093   1.526   0.493   8.641 -0.0827  0.6915  0.3882
 1820TIP3   OH227094   5.627   5.025   1.434  0.0249 -0.1502  0.8414
 1820TIP3    H127095   5.646   4.941   1.393  1.1775 -0.7512  2.4991
 1820TIP3    H227096   5.531   5.031   1.433 -0.0174  0.0933 -2.2287
 1821TIP3   OH227097   6.234   1.514   8.066  0.2253 -0.3454 -0.3815
 1821TIP3    H127098   6.150   1.549   8.036  0.0996 -0.9769 -0.7879
 1821TIP3    H227099   6.300   1.563   8.017  0.0413 -0.8550 -1.1564
 1822TIP3   OH227100   2.203   1.498   6.831 -0.3929 -0.4419 -0.8475
 1822TIP3    H127101   2.114   1.472   6.808 -0.5085  0.8323 -1.9333
 1822TIP3    H227102   2.217   1.580   6.784  0.9556 -0.0301  0.2149
 1823TIP3   OH227103   3.689   0.717   8.514 -1.0226  0.2485 -0.1574
 1823TIP3    H127104   3.686   0.788   8.578 -0.9697  0.6125 -0.5543
 1823TIP3    H227105   3.721   0.758   8.434  2.0532 -0.8068  0.3762
 1824TIP3   OH227106   6.354   0.458   0.334  0.0179 -0.0393 -0.0022
 1824TIP3    H127107   6.307   0.432   0.413 -0.0458  0.7857  0.2293
 1824TIP3    H227108   6.286   0.463   0.267 -0.1319  0.5428  0.1911
 1825TIP3   OH227109   3.779   3.073   0.926 -0.4563 -0.1191  0.1634
 1825TIP3    H127110   3.716   3.128   0.879  0.3762 -0.2505 -1.1473
 1825TIP3    H227111   3.729   3.037   1.000 -1.5676  0.7526 -0.1311
 1826TIP3   OH227112   0.397   3.348   1.757  0.2631  0.4894 -0.1652
 1826TIP3    H127113   0.311   3.375   1.789  0.3330  1.2017 -0.5644
 1826TIP3    H227114   0.418   3.411   1.688  0.6361 -0.3224 -0.8085
 1827TIP3   OH227115   1.085   4.097   8.877  0.2390  0.2204  0.0129
 1827TIP3    H127116   0.992   4.082   8.888  0.3162  1.0739  2.2128
 1827TIP3    H227117   1.126   4.012   8.892 -0.0064  0.4535  2.2769
 1828TIP3   OH227118   1.387   0.449   7.967  0.5016  0.1352 -0.2429
 1828TIP3    H127119   1.433   0.378   7.922 -0.5559  0.8193 -2.5993
 1828TIP3    H227120   1.294   0.434   7.947  0.1636  1.5742  0.0924
 1829TIP3   OH227121   5.356   2.860   8.647 -0.4139  0.0542  0.4262
 1829TIP3    H127122   5.427   2.803   8.675 -1.0901 -0.5067  1.0633
 1829TIP3    H227123   5.399   2.932   8.602  0.4476 -1.1666 -0.7725
 1830TIP3   OH227124   3.361   0.602   6.651  0.0277  0.3686  0.0190
 1830TIP3    H127125   3.335   0.596   6.743 -0.2844  0.5878 -0.0517
 1830TIP3    H227126   3.356   0.513   6.619  2.1526 -0.0563  0.7409
 1831TIP3   OH227127   4.894   5.129   8.659 -0.4474  0.2931  0.3037
 1831TIP3    H127128   4.921   5.087   8.741  0.1686  0.2028  0.0555
 1831TIP3    H227129   4.868   5.218   8.686  0.8145  0.6358  0.4530
 1832TIP3   OH227130   4.962   6.159   7.874  0.6411 -0.2310  0.0450
 1832TIP3    H127131   4.924   6.171   7.962  0.6919 -2.5139  0.4342
 1832TIP3    H227132   4.904   6.210   7.817  0.3056  0.8913  1.3197
 1833TIP3   OH227133   1.598   1.813   8.340  0.0214  0.5305  0.2285
 1833TIP3    H127134   1.599   1.908   8.334 -0.6363  0.6303  1.4218
 1833TIP3    H227135   1.623   1.783   8.252  1.4341  1.7917  0.1660
 1834TIP3   OH227136   4.616   3.029   1.376  0.0117  0.8187  0.2721
 1834TIP3    H127137   4.564   3.054   1.300 -1.7811 -0.2255  1.0961
 1834TIP3    H227138   4.687   2.975   1.341  0.2581  1.8024 -0.8109
 1835TIP3   OH227139   1.331   2.943   0.838  0.6850 -0.0844  0.5230
 1835TIP3    H127140   1.393   2.878   0.806  0.3709  0.8445 -2.2075
 1835TIP3    H227141   1.362   3.026   0.802  0.3327  1.1197  2.8362
 1836TIP3   OH227142   6.085   5.416   8.823 -0.6034 -0.1271 -0.4043
 1836TIP3    H127143   6.171   5.380   8.800  0.3909  2.1148 -0.4241
 1836TIP3    H227144   6.023   5.364   8.772  0.6922 -1.8661 -0.3197
 1837TIP3   OH227145   3.778   6.130   0.537 -0.8633  0.6884 -0.3381
 1837TIP3    H127146   3.724   6.207   0.521  0.1880  0.9794 -2.9572
 1837TIP3    H227147   3.837   6.156   0.608 -0.6862  2.2445 -1.0062
 1838TIP3   OH227148   1.794   5.603   1.199  0.2579 -0.0837  0.6500
 1838TIP3    H127149   1.830   5.539   1.260  0.1197 -0.3347  0.4679
 1838TIP3    H227150   1.708   5.569   1.176 -0.4915  0.9631  1.7834
 1839TIP3   OH227151   2.632   0.859   8.156  0.2426 -0.1143 -0.1084
 1839TIP3    H127152   2.597   0.831   8.071  1.5096 -1.0167 -0.3541
 1839TIP3    H227153   2.705   0.916   8.133  1.1491 -1.0637  0.3572
 1840TIP3   OH227154   1.355   1.033   8.717 -0.3604  0.2128 -0.3181
 1840TIP3    H127155   1.296   1.053   8.645 -0.7259  0.1566 -0.0372
 1840TIP3    H227156   1.396   1.117   8.739  0.3784  0.0771 -1.1367
 1841TIP3   OH227157   4.986   0.972   0.715  0.1098 -0.1133 -0.2498
 1841TIP3    H127158   5.009   0.940   0.628 -0.5153 -1.3667  0.0298
 1841TIP3    H227159   5.047   1.044   0.730  1.2722 -0.8774 -1.0935
 1842TIP3   OH227160   1.710   1.033   8.671 -0.4191 -0.1096 -0.8652
 1842TIP3    H127161   1.669   0.950   8.696  0.1840 -0.3397 -0.6167
 1842TIP3    H227162   1.788   1.007   8.622  0.1412  0.2990 -0.2000
 1843TIP3   OH227163   0.092   4.722   7.731  0.3290  0.0500 -0.0303
 1843TIP3    H127164   0.045   4.650   7.774  0.6091  0.6610  1.3623
 1843TIP3    H227165   0.184   4.696   7.735  0.3237 -0.0952 -0.7010
 1844TIP3   OH227166   0.140   3.817   0.433  0.3785 -0.2311 -0.2266
 1844TIP3    H127167   0.230   3.783   0.439  0.3957 -0.5020 -1.6787
 1844TIP3    H227168   0.126   3.831   0.339 -0.8827  0.4213  0.0391
 1845TIP3   OH227169   0.097   0.696   0.441 -0.0531 -0.5321 -0.1072
 1845TIP3    H127170   0.067   0.616   0.399  0.7098 -2.8681  3.3846
 1845TIP3    H227171   0.017   0.748   0.452 -0.5444 -0.6389 -2.5275
 1846TIP3   OH227172   3.067   0.193   6.670  0.0982  0.0059 -0.4296
 1846TIP3    H127173   3.096   0.107   6.701  1.1982  0.3574 -0.4496
 1846TIP3    H227174   2.994   0.174   6.612  0.7017 -0.9660 -0.8970
 1847TIP3   OH227175   2.974   4.994   6.647  0.1142  0.2908  0.1314
 1847TIP3    H127176   2.922   4.918   6.622 -2.5465  1.1653  2.5103
 1847TIP3    H227177   2.967   5.054   6.572  0.4479 -0.8888 -0.8752
 1848TIP3   OH227178   4.725   4.720   0.693  0.0233  0.3722  0.2543
 1848TIP3    H127179   4.817   4.707   0.672 -0.2627 -1.3582 -0.0921
 1848TIP3    H227180   4.719   4.707   0.787 -0.2478 -2.4865 -0.0701
 1849TIP3   OH227181   3.577   3.775   7.069  0.3523 -0.3253  0.0597
 1849TIP3    H127182   3.633   3.849   7.048 -0.4286  0.0220 -0.8583
 1849TIP3    H227183   3.597   3.710   7.001 -0.2554 -0.2491 -0.1977
 1850TIP3   OH227184   2.567   0.754   2.305 -0.1706 -0.1471  0.0291
 1850TIP3    H127185   2.616   0.808   2.242  0.6407 -0.6382  0.2247
 1850TIP3    H227186   2.617   0.673   2.311 -0.3245 -0.1706  1.1860
 1851TIP3   OH227187   0.553   6.563   0.976  0.0746  0.3615 -0.8938
 1851TIP3    H127188   0.529   6.488   1.031 -0.9991  1.4658  0.2118
 1851TIP3    H227189   0.545   6.530   0.887  0.4341 -1.0647 -0.4415
 1852TIP3   OH227190   1.796   6.790   7.702 -0.7544  0.6671  0.3712
 1852TIP3    H127191   1.843   6.729   7.760 -2.5763 -1.8767 -0.6300
 1852TIP3    H227192   1.862   6.854   7.676  1.0758 -0.3653  2.2004
 1853TIP3   OH227193   6.521   1.909   1.150  0.2807  0.4062 -0.0954
 1853TIP3    H127194   6.601   1.906   1.202  0.0252  2.7421  0.5234
 1853TIP3    H227195   6.550   1.941   1.064  0.0210  1.5089  0.2078
 1854TIP3   OH227196   3.861   3.299   0.561 -0.5278 -0.2174  0.0494
 1854TIP3    H127197   3.924   3.329   0.626  1.4799 -1.2961 -1.2848
 1854TIP3    H227198   3.851   3.374   0.501  0.6863 -0.5027 -0.5499
 1855TIP3   OH227199   1.693   2.081   7.325 -0.6845 -0.0799 -0.0391
 1855TIP3    H127200   1.758   2.016   7.349 -0.5351  0.4074  0.8997
 1855TIP3    H227201   1.610   2.045   7.358 -0.8684 -0.5443 -0.9483
 1856TIP3   OH227202   3.843   3.533   0.377  0.1828 -0.1787 -0.6583
 1856TIP3    H127203   3.917   3.525   0.317  0.4547  1.9721 -0.6675
 1856TIP3    H227204   3.854   3.619   0.418 -2.0773  0.0228 -0.3533
 1857TIP3   OH227205   3.788   1.111   1.012 -0.1277  0.1666 -0.0407
 1857TIP3    H127206   3.754   1.103   1.101  0.2599 -1.8024 -0.0442
 1857TIP3    H227207   3.883   1.102   1.021 -0.1863 -1.5162 -0.7735
 1858TIP3   OH227208   1.191   4.733   0.055  0.3726  0.2508 -0.1655
 1858TIP3    H127209   1.238   4.742   0.138 -0.6044  0.1574  0.4190
 1858TIP3    H227210   1.158   4.821   0.037  1.6522  0.5564 -1.1352
 1859TIP3   OH227211   2.627   1.199   1.919  0.1857  0.0964  0.5658
 1859TIP3    H127212   2.644   1.124   1.863 -0.5468  0.1279  0.2963
 1859TIP3    H227213   2.684   1.186   1.995  0.0780 -0.7183  0.5086
 1860TIP3   OH227214   0.655   1.671   1.353 -0.2393  0.1144 -0.1189
 1860TIP3    H127215   0.709   1.672   1.274 -1.3852  0.0433 -0.9239
 1860TIP3    H227216   0.649   1.762   1.380  0.7866  0.0576  0.3460
 1861TIP3   OH227217   6.206   2.502   8.389  0.2042 -0.0459 -0.1951
 1861TIP3    H127218   6.219   2.541   8.303  1.2344 -0.4146 -0.2183
 1861TIP3    H227219   6.148   2.427   8.373  0.4978 -0.1930 -0.5891
 1862TIP3   OH227220   5.838   1.886   0.296 -0.3040 -0.5024  0.2371
 1862TIP3    H127221   5.872   1.945   0.228 -0.0588 -0.3572  0.4818
 1862TIP3    H227222   5.744   1.880   0.279 -0.2247 -0.5516 -0.1796
 1863TIP3   OH227223   6.763   3.075   7.338 -0.4802 -0.1277 -0.0115
 1863TIP3    H127224   6.709   3.136   7.389  0.7369  0.0919  1.0749
 1863TIP3    H227225   6.852   3.090   7.370 -0.0764 -2.0968 -0.0949
 1864TIP3   OH227226   3.185   3.460   0.502  0.0595 -0.4433  0.0436
 1864TIP3    H127227   3.180   3.513   0.421  0.7256  1.4029  1.1409
 1864TIP3    H227228   3.179   3.370   0.472  0.4683  0.1806 -2.0976
 1865TIP3   OH227229   3.978   0.770   1.483 -0.3529 -0.1417 -0.3136
 1865TIP3    H127230   3.980   0.767   1.579  0.2687  2.0192 -0.2029
 1865TIP3    H227231   4.062   0.733   1.456 -1.0986 -2.0747 -0.1342
 1866TIP3   OH227232   5.368   5.366   2.774 -0.1408  0.0901 -0.3584
 1866TIP3    H127233   5.342   5.451   2.810  2.7339  0.8812  0.1007
 1866TIP3    H227234   5.458   5.380   2.743  0.0241 -2.5229 -1.2727
 1867TIP3   OH227235   2.431   1.075   0.052 -0.3166 -0.0862  0.9193
 1867TIP3    H127236   2.428   1.010   0.122  1.7533 -1.1898  0.0663
 1867TIP3    H227237   2.472   1.151   0.092 -0.3849 -0.2261  1.2593
 1868TIP3   OH227238   3.521   4.935   1.637 -0.2076  0.2588 -0.0458
 1868TIP3    H127239   3.599   4.988   1.620 -0.0955  1.0124  2.3839
 1868TIP3    H227240   3.553   4.863   1.691 -0.9166 -0.3965 -0.4993
 1869TIP3   OH227241   2.232   5.075   1.587  0.2722 -0.4573  0.3349
 1869TIP3    H127242   2.150   5.069   1.538  1.0998 -2.9878 -0.9017
 1869TIP3    H227243   2.259   5.167   1.577 -3.1610  0.9817  2.2446
 1870TIP3   OH227244   6.431   0.506   8.224 -0.0326  1.0001 -0.0251
 1870TIP3    H127245   6.433   0.467   8.311  1.1522  0.6740 -0.1797
 1870TIP3    H227246   6.378   0.585   8.234 -0.7378  0.4440  0.7546
 1871TIP3   OH227247   2.011   6.665   0.367  0.1030  0.3636  0.4681
 1871TIP3    H127248   2.090   6.705   0.329  0.9016 -0.2021  1.4581
 1871TIP3    H227249   2.013   6.692   0.459 -2.4427  2.7229 -0.0542
 1872TIP3   OH227250   2.183   3.909   8.517 -0.1349 -0.7523 -0.2201
 1872TIP3    H127251   2.095   3.929   8.550 -0.2015 -0.3064 -0.6589
 1872TIP3    H227252   2.173   3.824   8.474 -0.5863 -0.2635 -1.1247
 1873TIP3   OH227253   0.824   3.416   8.821  0.0207  0.4796  0.0731
 1873TIP3    H127254   0.803   3.418   8.728  0.3794 -0.1550 -0.0300
 1873TIP3    H227255   0.761   3.354   8.859 -0.4005  1.0602  0.3274
 1874TIP3   OH227256   0.141   4.087   0.510  0.6003 -0.0429 -0.3176
 1874TIP3    H127257   0.174   4.117   0.426  2.2652  1.1250  0.6916
 1874TIP3    H227258   0.146   3.992   0.506  2.7441  0.0384 -0.7905
 1875TIP3   OH227259   4.336   1.060   0.155 -0.1868 -0.3231 -0.2651
 1875TIP3    H127260   4.365   1.067   0.246  1.7526 -0.5665 -0.8236
 1875TIP3    H227261   4.416   1.040   0.105 -1.1576  0.0322 -2.0597
 1876TIP3   OH227262   0.169   5.433   0.738  0.0124  0.4683 -0.7335
 1876TIP3    H127263   0.133   5.427   0.650 -1.1097 -0.2710 -0.2415
 1876TIP3    H227264   0.119   5.370   0.789 -0.5672  2.0995  0.8289
 1877TIP3   OH227265   6.540   3.427   6.736 -0.4480  0.2453  0.0637
 1877TIP3    H127266   6.584   3.434   6.651 -0.7999 -0.8211 -0.2257
 1877TIP3    H227267   6.568   3.342   6.770  0.0568  0.8688  1.2425
 1878TIP3   OH227268   2.532   0.290   7.622  0.0301 -0.0178  0.1317
 1878TIP3    H127269   2.517   0.329   7.535 -0.7092  0.0784  0.2908
 1878TIP3    H227270   2.623   0.309   7.641 -0.2868  1.6365  0.1843
 1879TIP3   OH227271   5.352   2.919   8.272  0.7016  0.3572 -0.3957
 1879TIP3    H127272   5.356   3.014   8.268 -0.0002  0.7535  3.7207
 1879TIP3    H227273   5.433   2.894   8.316  0.0091 -0.7164  0.3210
 1880TIP3   OH227274   5.628   6.053   1.332 -0.1072 -0.2308  0.2523
 1880TIP3    H127275   5.636   6.023   1.242 -0.9685 -0.2546  0.1717
 1880TIP3    H227276   5.534   6.054   1.349 -0.0459  1.1943  0.6655
 1881TIP3   OH227277   4.898   2.583   7.628  0.3142 -0.1087  0.4200
 1881TIP3    H127278   4.990   2.592   7.654  0.7402  0.7219 -1.2257
 1881TIP3    H227279   4.899   2.598   7.533 -1.3836 -1.1366  0.2029
 1882TIP3   OH227280   5.897   5.274   8.275 -0.0425 -0.1257  0.1983
 1882TIP3    H127281   5.838   5.331   8.226 -0.0293 -0.1857  0.1117
 1882TIP3    H227282   5.838   5.217   8.325 -0.0943 -1.1058 -0.9364
 1883TIP3   OH227283   2.861   6.799   0.051  0.1558 -0.0625 -0.1281
 1883TIP3    H127284   2.887   6.851   0.127 -0.7010 -0.2203  0.2825
 1883TIP3    H227285   2.935   6.808  -0.010  0.1611  1.4022  0.0449
 1884TIP3   OH227286   5.849   4.284   1.369  0.2489 -0.0778  0.2000
 1884TIP3    H127287   5.841   4.250   1.458  1.1087  1.4113  0.8812
 1884TIP3    H227288   5.909   4.358   1.377 -2.2541  2.2512 -1.0145
 1885TIP3   OH227289   2.556   6.291   7.030  0.0896  0.1651 -0.0246
 1885TIP3    H127290   2.499   6.332   6.965  1.0486  0.6292 -0.5982
 1885TIP3    H227291   2.510   6.304   7.113 -0.7806  0.2499 -0.5007
 1886TIP3   OH227292   0.747   0.524   0.780 -0.3707 -0.2177  0.3143
 1886TIP3    H127293   0.841   0.544   0.781 -0.2194 -0.5032 -2.2124
 1886TIP3    H227294   0.708   0.597   0.733 -1.0989 -1.1474 -0.5728
 1887TIP3   OH227295   4.318   2.605   1.064 -0.1572 -0.0086  0.4968
 1887TIP3    H127296   4.244   2.603   1.124 -1.1188  0.0006 -0.6428
 1887TIP3    H227297   4.305   2.528   1.008  0.8875 -0.1946  0.4796
 1888TIP3   OH227298   0.902   3.500   0.639 -0.2530  0.4422  0.4945
 1888TIP3    H127299   0.892   3.408   0.615 -3.7269  0.6642  0.5889
 1888TIP3    H227300   0.977   3.530   0.588 -0.7391 -1.7346 -1.6791
 1889TIP3   OH227301   1.034   6.427   0.568  0.5917  0.3115  0.1869
 1889TIP3    H127302   0.977   6.464   0.634  1.3268  0.2194  0.8956
 1889TIP3    H227303   1.119   6.468   0.584  0.8538  0.0627 -0.5109
 1890TIP3   OH227304   4.510   1.750   0.454 -0.2482 -0.2427 -0.6742
 1890TIP3    H127305   4.533   1.731   0.363  1.5624 -1.2708 -0.0476
 1890TIP3    H227306   4.467   1.671   0.485  1.0620 -0.7430 -0.0553
 1891TIP3   OH227307   1.160   0.407   0.090 -0.2214 -0.5118  0.3978
 1891TIP3    H127308   1.227   0.404   0.158  1.3256  1.0642 -0.9602
 1891TIP3    H227309   1.087   0.453   0.131  1.2070  1.6860  0.6442
 1892TIP3   OH227310   0.630   6.405   1.209 -0.0340  0.0283  0.6717
 1892TIP3    H127311   0.715   6.434   1.177 -0.4650  3.6405  2.2990
 1892TIP3    H227312   0.636   6.411   1.304 -1.7551 -0.8312  0.8875
 1893TIP3   OH227313   3.676   3.823   8.646  0.1657 -0.0908  0.0382
 1893TIP3    H127314   3.760   3.779   8.644 -0.0843 -0.5563 -0.7703
 1893TIP3    H227315   3.697   3.915   8.665  0.8491 -0.2042 -0.1545
 1894TIP3   OH227316   2.542   6.790   7.251 -0.5643  0.0540  0.0591
 1894TIP3    H127317   2.471   6.838   7.295 -0.4423  0.7675 -0.5085
 1894TIP3    H227318   2.575   6.851   7.185  0.9671 -0.0501  0.6846
 1895TIP3   OH227319   4.311   5.357   8.192 -0.3167  0.1527  0.3255
 1895TIP3    H127320   4.255   5.293   8.149  1.4094 -0.2854 -1.4456
 1895TIP3    H227321   4.256   5.433   8.204 -1.3831 -0.3460 -1.0916
 1896TIP3   OH227322   5.902   1.200   7.553  0.1414  0.2973 -0.4399
 1896TIP3    H127323   5.814   1.236   7.538  0.2351  0.9134  0.4210
 1896TIP3    H227324   5.949   1.217   7.471  0.0223  1.7162 -0.2442
 1897TIP3   OH227325   2.217   1.330   0.971  0.0534 -0.0771  0.5880
 1897TIP3    H127326   2.232   1.252   0.918  0.2563  1.3888 -1.6152
 1897TIP3    H227327   2.137   1.310   1.020 -0.9404 -1.0016 -1.2913
 1898TIP3   OH227328   3.574   6.308   7.336 -0.0812  0.4716 -0.7956
 1898TIP3    H127329   3.573   6.223   7.293  1.6758  0.5843 -1.1434
 1898TIP3    H227330   3.532   6.293   7.421  1.1906 -1.0278 -0.3894
 1899TIP3   OH227331   3.799   2.518   1.503  0.4683 -0.1977 -1.0387
 1899TIP3    H127332   3.754   2.598   1.477  1.4521  0.5977 -0.3453
 1899TIP3    H227333   3.833   2.537   1.590 -1.4225 -2.2447  0.2601
 1900TIP3   OH227334   0.940   3.999   1.748  0.7206 -0.0250 -0.0536
 1900TIP3    H127335   0.925   4.007   1.842  0.4869 -0.2804 -0.0689
 1900TIP3    H227336   0.987   3.916   1.738  1.2849  0.2949 -0.1043
 1901TIP3   OH227337   4.263   5.130   6.719  0.3639 -0.5234 -0.4885
 1901TIP3    H127338   4.216   5.214   6.716  0.0645 -0.7112 -1.5290
 1901TIP3    H227339   4.329   5.142   6.788 -0.0047  0.3851 -0.2741
 1902TIP3   OH227340   6.599   5.880   1.465 -0.2130 -0.1419 -0.0682
 1902TIP3    H127341   6.507   5.904   1.457 -0.1045  1.0263  1.6301
 1902TIP3    H227342   6.647   5.950   1.421 -0.0949 -0.2914 -0.1824
 1903TIP3   OH227343   5.454   2.966   0.608 -0.1748  0.0262  0.1381
 1903TIP3    H127344   5.523   2.901   0.596  1.4788  1.7117 -0.0056
 1903TIP3    H227345   5.406   2.967   0.525  1.2290  0.5667 -0.6915
 1904TIP3   OH227346   4.555   2.776   8.474 -0.4108 -0.5573 -0.0306
 1904TIP3    H127347   4.636   2.823   8.489 -0.4851 -0.6848  0.7906
 1904TIP3    H227348   4.549   2.769   8.379  0.1903  0.0514 -0.1219
 1905TIP3   OH227349   5.633   5.665   0.495 -0.0783  0.2776 -0.5760
 1905TIP3    H127350   5.611   5.727   0.425 -0.4692  0.5947 -0.1742
 1905TIP3    H227351   5.726   5.647   0.483  0.3914  2.0676  0.1768
 1906TIP3   OH227352   1.608   0.403   1.288  0.0716 -0.1196  0.2472
 1906TIP3    H127353   1.607   0.337   1.358 -1.8197 -0.9074 -0.4394
 1906TIP3    H227354   1.515   0.424   1.275  0.5277  1.3798 -0.7744
 1907TIP3   OH227355   4.075   2.721   8.037  0.5459  0.3467  0.2808
 1907TIP3    H127356   3.982   2.742   8.028 -0.1406 -2.3752  0.0105
 1907TIP3    H227357   4.086   2.704   8.130  1.0636  1.7470  0.4873
 1908TIP3   OH227358   6.071   6.046   8.272 -1.0888 -0.3486  0.5221
 1908TIP3    H127359   6.123   6.043   8.352 -0.0664 -0.8131 -0.1335
 1908TIP3    H227360   6.000   5.983   8.286 -0.5101 -0.9514  0.8032
 1909TIP3   OH227361   6.506   3.378   7.271  0.4956  0.8731 -0.1360
 1909TIP3    H127362   6.505   3.457   7.326 -0.2605  0.4605  0.4624
 1909TIP3    H227363   6.504   3.412   7.182  0.9938  1.5455  0.0971
 1910TIP3   OH227364   0.151   1.198   2.043  0.3573 -0.0203 -0.0047
 1910TIP3    H127365   0.062   1.230   2.032  0.2793 -0.3037 -0.2058
 1910TIP3    H227366   0.183   1.241   2.123 -0.4419 -0.9773  0.8609
 1911TIP3   OH227367   6.509   4.864   0.568  0.1317 -0.4429 -0.6729
 1911TIP3    H127368   6.546   4.822   0.646  0.3018  0.6917 -0.1233
 1911TIP3    H227369   6.536   4.808   0.495  3.2652  0.4471 -0.3668
 1912TIP3   OH227370   2.025   1.923   0.318 -0.2157 -0.0377 -0.6406
 1912TIP3    H127371   2.112   1.940   0.283  0.8740 -1.6943  1.0412
 1912TIP3    H227372   2.012   1.991   0.385 -0.2292  0.2111 -0.8937
 1913TIP3   OH227373   1.882   1.708   8.125 -0.0490  0.2095 -0.3750
 1913TIP3    H127374   1.799   1.732   8.083  0.3947 -1.0098 -2.0671
 1913TIP3    H227375   1.944   1.773   8.094 -0.1088  0.4004 -0.0975
 1914TIP3   OH227376   2.187   5.134   1.226 -0.3407 -0.3715 -0.2627
 1914TIP3    H127377   2.099   5.168   1.210 -0.6147 -0.3105  1.2393
 1914TIP3    H227378   2.245   5.203   1.194 -0.7892 -0.7805 -2.0766
 1915TIP3   OH227379   1.630   1.174   7.426  0.1093  0.2943 -0.6140
 1915TIP3    H127380   1.638   1.262   7.389 -2.0039  1.0569  0.5990
 1915TIP3    H227381   1.694   1.171   7.497 -0.1725  1.0584 -0.3185
 1916TIP3   OH227382   0.426   6.021   2.116  0.5244 -0.3733 -0.5011
 1916TIP3    H127383   0.502   6.061   2.075  1.2813  0.8081  1.8722
 1916TIP3    H227384   0.415   5.937   2.071  1.9681  0.3054 -2.2337
 1917TIP3   OH227385   5.300   3.056   1.481 -0.2374  0.3104  0.6792
 1917TIP3    H127386   5.267   2.971   1.453  0.3754  0.9894 -2.4921
 1917TIP3    H227387   5.393   3.041   1.501  0.1447  0.3803 -0.9306
 1918TIP3   OH227388   1.964   2.791   7.936  0.5531 -0.1631 -0.8369
 1918TIP3    H127389   1.952   2.847   7.859 -0.9653 -0.9130 -1.1787
 1918TIP3    H227390   1.886   2.808   7.990  0.6809 -1.0335 -0.3655
 1919TIP3   OH227391   1.541   6.255   8.061 -0.4158 -0.5880 -0.2600
 1919TIP3    H127392   1.543   6.281   8.154 -1.4352  1.3919 -0.7266
 1919TIP3    H227393   1.630   6.269   8.031  0.0475 -1.7328  0.5269
 1920TIP3   OH227394   6.661   2.326   7.628 -0.0027 -0.1071 -0.2508
 1920TIP3    H127395   6.674   2.362   7.540 -4.3343 -1.0952 -1.5696
 1920TIP3    H227396   6.599   2.387   7.669 -1.5993 -2.0175  0.3036
 1921TIP3   OH227397   3.389   1.681   8.176  0.2233 -0.4865  0.4358
 1921TIP3    H127398   3.480   1.700   8.152  0.9793 -2.4706  1.4826
 1921TIP3    H227399   3.375   1.728   8.258  0.9922 -1.6759  1.2894
 1922TIP3   OH227400   6.701   1.840   1.977 -0.4101  0.1255 -0.6693
 1922TIP3    H127401   6.715   1.872   1.887 -2.0556  0.2637 -0.9112
 1922TIP3    H227402   6.704   1.745   1.968  0.6824  0.1419 -0.6281
 1923TIP3   OH227403   1.304   6.281   0.689  0.0167 -0.5571 -0.3632
 1923TIP3    H127404   1.306   6.376   0.702  0.3344 -0.3010 -2.0703
 1923TIP3    H227405   1.241   6.250   0.754  1.1812  0.5963  1.4047
 1924TIP3   OH227406   5.462   1.703   6.827  0.4290  0.4137  0.3159
 1924TIP3    H127407   5.500   1.658   6.903  0.7415  0.0064 -0.0814
 1924TIP3    H227408   5.537   1.728   6.773  0.1373 -1.1400 -0.8901
 1925TIP3   OH227409   3.283   3.279   2.053 -0.2687 -0.5772 -0.1431
 1925TIP3    H127410   3.331   3.303   2.132 -2.4267  1.1038  0.7704
 1925TIP3    H227411   3.345   3.293   1.982  1.2689 -0.6988  1.1295
 1926TIP3   OH227412   5.656   5.426   0.104 -0.2578 -0.0772 -0.0012
 1926TIP3    H127413   5.635   5.514   0.072  2.5301  0.6711 -0.0698
 1926TIP3    H227414   5.733   5.438   0.160 -0.0644 -2.4160  0.3539
 1927TIP3   OH227415   0.860   3.542   8.496  0.0798  0.3112  0.2806
 1927TIP3    H127416   0.802   3.466   8.502  1.6652 -0.8524  1.9450
 1927TIP3    H227417   0.933   3.513   8.442  0.5912  0.7246  0.7409
 1928TIP3   OH227418   3.164   6.407   8.524 -0.4057 -0.3914 -0.3388
 1928TIP3    H127419   3.204   6.494   8.525  0.4156 -0.7195 -1.7090
 1928TIP3    H227420   3.074   6.422   8.552  0.0958  0.6814  0.7930
 1929TIP3   OH227421   1.281   2.768   2.266 -0.1815  0.0732  0.0463
 1929TIP3    H127422   1.203   2.761   2.211 -1.1933  1.9895  1.1185
 1929TIP3    H227423   1.282   2.859   2.294  0.1057 -0.8398  3.4225
 1930TIP3   OH227424   4.885   5.879   1.538  0.3917  0.0912  0.2060
 1930TIP3    H127425   4.881   5.896   1.632  0.6039  0.1744  0.2011
 1930TIP3    H227426   4.794   5.881   1.509  0.3479  0.3333  0.3624
 1931TIP3   OH227427   1.902   4.385   0.042 -0.5123 -0.3612  0.0176
 1931TIP3    H127428   1.910   4.292   0.061 -0.0732 -0.0780  1.3281
 1931TIP3    H227429   1.970   4.403  -0.022  0.4546 -0.6559  0.9241
 1932TIP3   OH227430   5.613   1.676   7.460 -0.3575 -0.2766  0.1414
 1932TIP3    H127431   5.539   1.617   7.446 -0.3168 -0.1946 -0.4657
 1932TIP3    H227432   5.578   1.746   7.515 -0.2666 -1.1276  1.3135
 1933TIP3   OH227433   5.129   4.634   0.145 -0.3162 -0.2164  0.6288
 1933TIP3    H127434   5.102   4.639   0.237 -3.0353 -1.0155 -0.0487
 1933TIP3    H227435   5.153   4.724   0.122 -1.2539  0.3238  1.6673
 1934TIP3   OH227436   1.020   4.062   6.702 -0.1140  0.1786  0.1747
 1934TIP3    H127437   1.107   4.022   6.703 -0.2653 -0.1529  0.3077
 1934TIP3    H227438   0.974   4.017   6.631 -0.2663  0.1565  0.2868
 1935TIP3   OH227439   2.913   5.753   8.535 -0.6320 -0.0663 -0.3073
 1935TIP3    H127440   2.926   5.719   8.447 -0.9561  0.8055 -0.7060
 1935TIP3    H227441   2.892   5.676   8.588 -1.2822 -0.4913 -1.1628
 1936TIP3   OH227442   3.414   5.909   2.668  0.1940  0.0455  0.2509
 1936TIP3    H127443   3.462   5.951   2.597  0.4610  0.7784  0.8465
 1936TIP3    H227444   3.435   5.816   2.660 -0.2428  0.0306 -0.9729
 1937TIP3   OH227445   5.006   6.560   7.640 -0.0775  0.3683 -0.0705
 1937TIP3    H127446   4.959   6.635   7.676  0.6639  0.1986  1.3163
 1937TIP3    H227447   5.007   6.495   7.710  1.8891  0.2328 -0.1631
 1938TIP3   OH227448   3.791   2.786   8.015 -0.1060  0.0216 -0.4516
 1938TIP3    H127449   3.791   2.765   8.108  0.3607  1.1834 -0.1739
 1938TIP3    H227450   3.723   2.729   7.977 -0.7468  0.0009  0.6968
 1939TIP3   OH227451   1.588   1.808   7.566 -0.4129 -0.4901  0.0095
 1939TIP3    H127452   1.539   1.866   7.508  1.4182  0.8544 -0.2909
 1939TIP3    H227453   1.679   1.838   7.559 -0.0495 -0.2790  3.4810
 1940TIP3   OH227454   6.674   0.701   1.091  0.4055  0.4112 -0.5970
 1940TIP3    H127455   6.680   0.785   1.044  1.2833  0.6349 -0.1177
 1940TIP3    H227456   6.589   0.666   1.066  0.5047  0.9034 -1.7197
 1941TIP3   OH227457   2.404   3.432   8.328 -0.3269 -0.0157  0.6940
 1941TIP3    H127458   2.474   3.473   8.379 -0.4223  1.0129  0.0319
 1941TIP3    H227459   2.334   3.498   8.325 -0.1980  0.0906 -1.0188
 1942TIP3   OH227460   5.641   2.451   0.186  0.1309 -0.2697 -0.3815
 1942TIP3    H127461   5.620   2.473   0.277  0.6805 -0.4985 -0.1929
 1942TIP3    H227462   5.564   2.477   0.136  0.4768  1.4636 -0.0782
 1943TIP3   OH227463   4.568   4.352   6.837  0.1084  0.5680 -0.6437
 1943TIP3    H127464   4.621   4.337   6.759 -1.8125  0.7492 -2.0511
 1943TIP3    H227465   4.615   4.307   6.907  0.2696 -2.4701 -2.5031
 1944TIP3   OH227466   1.657   6.758   2.150 -0.3630  0.5629  0.1674
 1944TIP3    H127467   1.720   6.704   2.198 -0.5645  0.3640  0.2113
 1944TIP3    H227468   1.688   6.755   2.060 -0.5232  0.1474  0.1214
 1945TIP3   OH227469   0.896   1.183   8.142  0.1587 -0.2411 -0.1837
 1945TIP3    H127470   0.832   1.202   8.073 -1.0680  0.8032  1.1744
 1945TIP3    H227471   0.855   1.215   8.222  1.3731 -1.7529  1.1160
 1946TIP3   OH227472   2.930   2.219   8.459  0.3931 -0.5209  0.0022
 1946TIP3    H127473   2.994   2.165   8.504  1.0569  1.5274  1.6851
 1946TIP3    H227474   2.924   2.299   8.512 -0.6524  0.9963 -2.2317
 1947TIP3   OH227475   1.451   2.046   8.172  0.5779  0.3671 -0.0419
 1947TIP3    H127476   1.406   2.109   8.228  0.2344 -0.1610  0.2838
 1947TIP3    H227477   1.544   2.057   8.192  0.4035 -0.3784  1.2378
 1948TIP3   OH227478   6.409   3.027   8.412 -0.2045 -0.1148  0.6036
 1948TIP3    H127479   6.441   3.115   8.432  0.4938 -0.2513  0.1334
 1948TIP3    H227480   6.401   2.984   8.497  1.4108 -0.2556  0.7167
 1949TIP3   OH227481   5.116   5.668   1.924 -0.2273  0.2130 -0.3721
 1949TIP3    H127482   5.183   5.723   1.965  0.7589 -1.1824 -0.0485
 1949TIP3    H227483   5.156   5.640   1.842 -0.6095 -0.2498 -0.4009
 1950TIP3   OH227484   5.009   2.974   0.709  0.2168  0.1065  0.5896
 1950TIP3    H127485   4.959   2.893   0.707  1.2054 -0.5409  1.0781
 1950TIP3    H227486   4.955   3.035   0.758 -0.8223 -0.0448 -0.3195
 1951TIP3   OH227487   6.028   2.828   2.461 -0.5921  0.5079 -0.2448
 1951TIP3    H127488   5.975   2.901   2.494  1.3169  1.6325  0.5354
 1951TIP3    H227489   6.088   2.869   2.398 -0.0264 -0.5319 -0.4042
 1952TIP3   OH227490   1.869   5.144   7.522  0.3471  0.4380 -0.3000
 1952TIP3    H127491   1.864   5.067   7.466 -0.3407  0.3743 -0.1566
 1952TIP3    H227492   1.832   5.215   7.469 -1.1098  0.2063  0.3500
 1953TIP3   OH227493   2.080   2.598   1.198 -0.0698 -0.0642  0.1527
 1953TIP3    H127494   2.157   2.640   1.236  0.4547 -1.4199  0.6770
 1953TIP3    H227495   2.104   2.585   1.106 -0.3537  1.0257 -0.0780
 1954TIP3   OH227496   6.401   2.360   7.920  0.3683 -0.4889  0.2777
 1954TIP3    H127497   6.319   2.370   7.872  0.0857  1.4434  1.0757
 1954TIP3    H227498   6.377   2.313   7.999  0.4097 -1.6386 -0.3785
 1955TIP3   OH227499   2.492   6.760   0.414 -0.0416 -0.1257  0.3402
 1955TIP3    H127500   2.490   6.758   0.510 -0.9866  0.1473  0.3426
 1955TIP3    H227501   2.402   6.738   0.388  0.1245  0.1073 -0.4758
 1956TIP3   OH227502   6.005   3.697   7.440 -0.4734  0.3925 -0.3413
 1956TIP3    H127503   6.039   3.787   7.447  0.2385  0.0182  2.9209
 1956TIP3    H227504   6.037   3.666   7.356 -0.7285  3.1524 -1.5757
 1957TIP3   OH227505   4.893   4.988   0.822 -0.0897  0.3798  0.1468
 1957TIP3    H127506   4.814   5.010   0.872 -0.0098 -0.3116  0.5802
 1957TIP3    H227507   4.922   5.072   0.787 -1.2282  0.6062 -0.3268
 1958TIP3   OH227508   1.082   4.021   8.023  0.5569  0.4720 -0.2688
 1958TIP3    H127509   1.136   3.944   8.042  0.4875  0.4804 -0.0387
 1958TIP3    H227510   1.075   4.067   8.107  2.3787  1.8638 -0.8192
 1959TIP3   OH227511   0.717   0.913   1.686  0.0856 -0.5245  0.6865
 1959TIP3    H127512   0.702   0.969   1.610 -0.1247 -2.0150 -0.4225
 1959TIP3    H227513   0.801   0.943   1.721 -0.5581  1.2170  0.8434
 1960TIP3   OH227514   6.074   4.204   7.960  0.1216 -0.5513 -0.4419
 1960TIP3    H127515   6.109   4.266   8.024 -1.7722 -0.2035  0.3240
 1960TIP3    H227516   6.054   4.126   8.011 -1.0441 -0.4099 -0.6566
 1961TIP3   OH227517   4.770   1.542   0.523 -0.0470  0.7413 -0.4936
 1961TIP3    H127518   4.693   1.532   0.579 -0.2318  1.0028 -0.6962
 1961TIP3    H227519   4.808   1.454   0.518 -0.5903  0.5207 -0.7564
 1962TIP3   OH227520   4.304   1.280   2.085  0.2975 -0.2166 -0.2750
 1962TIP3    H127521   4.369   1.309   2.020 -0.9018  0.3410 -1.2686
 1962TIP3    H227522   4.356   1.247   2.158  1.7281 -1.5722 -1.8229
 1963TIP3   OH227523   2.331   4.819   1.564 -0.0825 -0.1134 -0.4122
 1963TIP3    H127524   2.315   4.781   1.650  0.9924  0.4641  0.0713
 1963TIP3    H227525   2.301   4.910   1.573  0.1062 -0.0307 -0.6187
 1964TIP3   OH227526   3.830   3.525   1.365 -0.1233  0.5089  0.1211
 1964TIP3    H127527   3.892   3.505   1.296 -0.1063  3.6945 -0.9711
 1964TIP3    H227528   3.868   3.487   1.444  1.5852 -0.3064 -1.0342
 1965TIP3   OH227529   4.221   0.656   1.385 -0.1697 -0.1051  0.0161
 1965TIP3    H127530   4.301   0.623   1.426  0.5008  0.0245 -1.1560
 1965TIP3    H227531   4.248   0.684   1.298 -1.1036  1.7829  0.2867
 1966TIP3   OH227532   1.688   2.571   0.946  0.5455  0.7831 -1.0843
 1966TIP3    H127533   1.708   2.646   1.002  0.4695 -0.0873  0.1422
 1966TIP3    H227534   1.603   2.540   0.976  1.1095 -0.5152 -0.7663
 1967TIP3   OH227535   2.749   1.778   8.377 -0.1300 -0.2040  0.1951
 1967TIP3    H127536   2.788   1.828   8.449 -0.7707  3.8819 -2.0288
 1967TIP3    H227537   2.824   1.743   8.329  0.6632  2.6551 -0.7825
 1968TIP3   OH227538   3.653   6.452   2.088  0.1171 -0.3790  0.0437
 1968TIP3    H127539   3.738   6.413   2.068  0.0821 -0.3220 -0.2151
 1968TIP3    H227540   3.668   6.498   2.171  1.1569  2.0867 -1.3874
 1969TIP3   OH227541   1.899   1.261   8.297 -0.0657  0.0758 -0.5383
 1969TIP3    H127542   1.972   1.231   8.351  0.3156  1.7089 -0.0905
 1969TIP3    H227543   1.912   1.219   8.212  0.1165 -1.4091  0.2012
 1970TIP3   OH227544   5.220   5.121   7.065 -0.2764  0.2738 -0.1431
 1970TIP3    H127545   5.133   5.126   7.026  0.2026  0.0418 -1.2803
 1970TIP3    H227546   5.205   5.137   7.158 -1.4709  0.7247 -0.3890
 1971TIP3   OH227547   6.787   5.422   1.702  0.0395  0.0669  0.0518
 1971TIP3    H127548   6.719   5.482   1.732  0.9309  0.7224  0.7939
 1971TIP3    H227549   6.756   5.391   1.616 -0.3111  1.7794 -0.4680
 1972TIP3   OH227550   0.349   6.272   1.838 -0.9073  0.2740  0.1677
 1972TIP3    H127551   0.326   6.348   1.891  0.5118  1.8216 -1.3312
 1972TIP3    H227552   0.399   6.216   1.898 -1.5817  0.6986  1.1687
 1973TIP3   OH227553   1.925   3.982   8.616 -0.2011 -1.1302 -0.1295
 1973TIP3    H127554   1.884   4.061   8.651  0.3124 -1.1059  0.4262
 1973TIP3    H227555   1.961   3.937   8.693 -2.0136 -2.8233 -0.1784
 1974TIP3   OH227556   3.918   3.380   8.121 -0.5779 -0.2641  0.0086
 1974TIP3    H127557   3.852   3.433   8.166 -1.4881 -1.2028 -0.1736
 1974TIP3    H227558   3.927   3.302   8.177 -0.1673 -0.4748 -0.3502
 1975TIP3   OH227559   2.179   1.009   7.713  0.0423  0.0603 -0.3386
 1975TIP3    H127560   2.141   0.967   7.790  1.0877  0.9101  0.6560
 1975TIP3    H227561   2.131   0.969   7.639 -1.5836 -0.1418  0.7605
 1976TIP3   OH227562   6.169   0.310   1.071  0.4130  0.2578 -0.7427
 1976TIP3    H127563   6.158   0.294   1.165 -0.9171 -2.1064 -1.2339
 1976TIP3    H227564   6.143   0.402   1.060  0.4746  0.5563  1.1515
 1977TIP3   OH227565   0.046   6.721   8.758 -0.5253 -0.1246  0.2429
 1977TIP3    H127566   0.097   6.683   8.829 -1.7933  0.0559  1.2804
 1977TIP3    H227567   0.036   6.813   8.783 -0.7521  0.0010 -0.3054
 1978TIP3   OH227568   5.135   0.343   7.170 -0.4213  0.4228 -0.2550
 1978TIP3    H127569   5.090   0.264   7.141  1.0532 -0.7786  0.5888
 1978TIP3    H227570   5.193   0.364   7.096 -0.0571  0.0941 -0.0667
 1979TIP3   OH227571   4.970   4.329   2.327 -0.0086 -0.7306 -0.4251
 1979TIP3    H127572   4.954   4.423   2.334  0.3840 -0.6290 -0.8259
 1979TIP3    H227573   4.883   4.289   2.326 -0.3986 -0.1022 -4.0632
 1980TIP3   OH227574   4.557   5.164   7.419  0.9090 -0.5419  1.2140
 1980TIP3    H127575   4.583   5.146   7.328 -1.5387  0.0251  0.3209
 1980TIP3    H227576   4.618   5.233   7.447  1.1351 -0.0531 -0.3377
 1981TIP3   OH227577   0.824   2.238   0.708  0.3056 -0.1941 -0.1553
 1981TIP3    H127578   0.782   2.152   0.711 -1.3416  0.6125  1.5100
 1981TIP3    H227579   0.770   2.289   0.648  1.5743 -0.3986 -1.5493
 1982TIP3   OH227580   1.049   0.402   7.107 -0.3996 -0.5167 -0.1280
 1982TIP3    H127581   1.125   0.420   7.163 -1.5833  0.1387  1.3400
 1982TIP3    H227582   1.082   0.412   7.018  0.5589  2.9126  0.4656
 1983TIP3   OH227583   5.796   2.630   1.303  0.5746  0.0816 -0.7460
 1983TIP3    H127584   5.750   2.707   1.336  1.8313  0.4880  0.1850
 1983TIP3    H227585   5.877   2.665   1.265  1.0733 -0.7554 -0.4879
 1984TIP3   OH227586   6.107   5.412   8.345 -0.0601  0.6598  0.2634
 1984TIP3    H127587   6.032   5.375   8.299  0.5193 -1.4936  0.9559
 1984TIP3    H227588   6.120   5.355   8.421  1.7789  1.4647  0.6175
 1985TIP3   OH227589   4.860   0.669   0.646  0.5427  0.1788  0.0057
 1985TIP3    H127590   4.836   0.623   0.726  0.1163  1.6077  0.7454
 1985TIP3    H227591   4.955   0.677   0.651  0.4347  1.1827  0.9407
 1986TIP3   OH227592   4.402   3.131   0.679  0.0943  0.3945  0.0087
 1986TIP3    H127593   4.320   3.089   0.651  1.0269 -1.2711 -0.4046
 1986TIP3    H227594   4.425   3.084   0.760  0.1247  1.5704  0.6974
 1987TIP3   OH227595   0.794   5.335   0.299  0.4374  0.3844  0.2541
 1987TIP3    H127596   0.721   5.292   0.343  0.0651  0.4537 -0.2807
 1987TIP3    H227597   0.806   5.418   0.346  1.1280 -0.2654  1.2580
 1988TIP3   OH227598   0.607   5.133   0.353  1.0604 -0.6709  0.3264
 1988TIP3    H127599   0.540   5.073   0.387 -4.0311  2.2246 -3.0508
 1988TIP3    H227600   0.636   5.092   0.271  0.1065 -0.1135 -0.3113
 1989TIP3   OH227601   5.787   0.685   7.239 -0.6173  0.0759  0.4769
 1989TIP3    H127602   5.774   0.743   7.314  0.0319  0.8059  0.0459
 1989TIP3    H227603   5.830   0.741   7.173 -1.9826 -0.2962 -0.7710
 1990TIP3   OH227604   0.702   4.215   6.555 -0.1927  0.4994  0.4119
 1990TIP3    H127605   0.630   4.244   6.499 -0.0687  1.9722  0.9634
 1990TIP3    H227606   0.752   4.155   6.500 -1.8904 -0.6776  0.0621
 1991TIP3   OH227607   4.147   4.849   7.596 -0.0308  0.2405 -0.0990
 1991TIP3    H127608   4.229   4.799   7.592  0.6959  1.4466 -1.9536
 1991TIP3    H227609   4.101   4.825   7.516 -0.7081  0.8541  0.0984
 1992TIP3   OH227610   5.280   3.417   7.734 -0.3746  0.0187  0.8517
 1992TIP3    H127611   5.272   3.324   7.755 -0.3365  0.1002  1.2275
 1992TIP3    H227612   5.342   3.419   7.661 -0.7360 -0.2881  0.5279
 1993TIP3   OH227613   2.845   1.002   1.282  0.0623 -0.7349  0.8006
 1993TIP3    H127614   2.793   1.026   1.206 -2.4199 -2.5246  1.7990
 1993TIP3    H227615   2.805   1.050   1.355  2.5392  1.1458  1.0513
 1994TIP3   OH227616   2.634   2.022   0.568 -0.1360 -0.7221 -0.3339
 1994TIP3    H127617   2.703   2.057   0.511 -0.8691  2.3952  0.4928
 1994TIP3    H227618   2.552   2.046   0.525 -0.6925  0.7154  1.4106
 1995TIP3   OH227619   4.143   3.244   0.002  0.2134  0.2201 -0.0071
 1995TIP3    H127620   4.111   3.272   0.087  0.1430 -1.0554  0.4020
 1995TIP3    H227621   4.089   3.291  -0.061 -3.2855 -2.6041  0.6276
 1996TIP3   OH227622   1.488   6.036   0.758 -0.0215 -0.5011 -0.1808
 1996TIP3    H127623   1.548   5.961   0.755 -0.0629 -0.5637  0.4462
 1996TIP3    H227624   1.500   6.080   0.674  2.6834  0.8818  0.8042
 1997TIP3   OH227625   4.963   4.475   0.471  0.2587 -0.1620 -0.0485
 1997TIP3    H127626   4.881   4.523   0.461  0.4433 -0.1802 -1.8357
 1997TIP3    H227627   5.027   4.542   0.494 -0.1215 -0.0616  0.7553
 1998TIP3   OH227628   2.126   4.535   7.236  0.5903 -0.0986  0.9272
 1998TIP3    H127629   2.070   4.604   7.200  0.4995  0.5340  2.2019
 1998TIP3    H227630   2.083   4.510   7.318  1.6443 -0.2926  1.4401
 1999TIP3   OH227631   5.386   6.630   0.038  0.4891  0.1593  0.1389
 1999TIP3    H127632   5.334   6.553   0.060  1.8693 -0.6132  0.7886
 1999TIP3    H227633   5.328   6.683  -0.017 -1.3783 -0.1269  1.7297
 2000TIP3   OH227634   3.549   0.103   8.324 -0.1765 -0.1716 -0.2000
 2000TIP3    H127635   3.618   0.166   8.346 -0.9993  0.5793  0.3193
 2000TIP3    H227636   3.470   0.157   8.316 -1.1399 -1.2502  1.4360
 2001TIP3   OH227637   0.074   4.470   1.192 -0.3659  0.4369 -0.3278
 2001TIP3    H127638   0.049   4.393   1.140  0.8872 -0.3187  0.1637
 2001TIP3    H227639  -0.008   4.498   1.232 -1.0173 -0.0771 -1.2545
 2002TIP3   OH227640   0.565   2.604   7.824 -0.3225 -0.4509  0.7618
 2002TIP3    H127641   0.522   2.638   7.902 -0.0328 -0.2808  0.8525
 2002TIP3    H227642   0.501   2.614   7.753 -0.1022  0.6587  0.7047
 2003TIP3   OH227643   1.872   0.611   0.961 -0.0654  0.0869 -0.5339
 2003TIP3    H127644   1.821   0.624   0.881 -0.0640 -1.2158 -0.7745
 2003TIP3    H227645   1.871   0.696   1.004 -1.4644  0.3976 -1.1098
 2004TIP3   OH227646   2.438   5.271   6.935  0.2770  0.5630  0.0593
 2004TIP3    H127647   2.458   5.185   6.897 -2.6219  1.0883 -3.2187
 2004TIP3    H227648   2.511   5.326   6.908  0.0686  0.0353 -1.7357
 2005TIP3   OH227649   6.732   0.806   0.715 -0.3000 -0.0557 -0.3223
 2005TIP3    H127650   6.806   0.746   0.713  0.2777  0.6653 -1.3666
 2005TIP3    H227651   6.715   0.828   0.623 -1.4127  0.2759 -0.0603
 2006TIP3   OH227652   4.508   6.254   7.229 -0.1886  0.2041  0.0710
 2006TIP3    H127653   4.471   6.278   7.314  2.5653  0.9206  1.1492
 2006TIP3    H227654   4.590   6.303   7.223  0.5098 -1.0907 -2.2936
 2007TIP3   OH227655   3.659   0.961   8.638 -0.0891  0.0018  0.4960
 2007TIP3    H127656   3.571   0.976   8.673  0.0976  0.5571  0.7410
 2007TIP3    H227657   3.678   1.040   8.587 -0.8372 -1.2843 -1.9131
 2008TIP3   OH227658   4.092   4.196   6.926  0.2904  0.5629  0.4839
 2008TIP3    H127659   3.997   4.207   6.929  0.3800  1.1851  1.8423
 2008TIP3    H227660   4.113   4.145   7.005  0.7813 -2.4672 -1.4307
 2009TIP3   OH227661   3.263   3.522   1.104 -0.0764  0.0158  0.0076
 2009TIP3    H127662   3.346   3.475   1.102  0.8114  1.5660 -1.6345
 2009TIP3    H227663   3.274   3.594   1.042 -1.8396  1.6214  1.4372
 2010TIP3   OH227664   1.932   1.313   0.420 -0.6582 -0.0687 -0.3779
 2010TIP3    H127665   1.967   1.325   0.508  0.6492  0.6847 -0.9812
 2010TIP3    H227666   1.900   1.222   0.419 -1.4383  0.1539  1.1037
 2011TIP3   OH227667   2.307   6.174   8.893  0.1534  0.4779 -0.3336
 2011TIP3    H127668   2.262   6.233   8.954  0.8166  0.2143  0.4243
 2011TIP3    H227669   2.400   6.184   8.914  0.3670  0.1742 -1.1188
 2012TIP3   OH227670   0.160   3.810   8.745  0.1674 -0.3919 -0.4198
 2012TIP3    H127671   0.193   3.891   8.783 -2.0612 -0.0632  0.9625
 2012TIP3    H227672   0.070   3.829   8.721 -0.5219 -2.5361  0.2272
 2013TIP3   OH227673   0.942   4.460   8.487 -0.6251  0.3213 -0.0986
 2013TIP3    H127674   0.892   4.480   8.567 -0.8085  0.3391 -0.2160
 2013TIP3    H227675   1.023   4.421   8.519 -1.1253 -0.6278  0.0743
 2014TIP3   OH227676   3.131   1.078   6.035  0.0939  0.6506 -0.7248
 2014TIP3    H127677   3.205   1.122   6.076  0.0980 -0.7225  0.8935
 2014TIP3    H227678   3.065   1.146   6.024  0.2018  1.1843  1.4055
 2015TIP3   OH227679   1.239   2.411   1.615 -0.4965  0.6435 -0.7968
 2015TIP3    H127680   1.305   2.472   1.582  1.1305 -0.2502  0.6573
 2015TIP3    H227681   1.186   2.465   1.674  0.8204  0.7572  0.3423
 2016TIP3   OH227682   6.491   0.860   7.398 -0.1727 -0.0333  0.4547
 2016TIP3    H127683   6.438   0.828   7.471  1.4844 -1.9280  0.9163
 2016TIP3    H227684   6.545   0.785   7.373  2.2481  1.7444 -0.0132
 2017TIP3   OH227685   2.434   6.295   1.544 -0.5191  0.3245  0.3633
 2017TIP3    H127686   2.507   6.249   1.586 -0.4023 -0.3469 -0.5717
 2017TIP3    H227687   2.358   6.239   1.559 -0.8727  1.0227  1.3347
 2018TIP3   OH227688   1.892   5.740   7.567  0.1175  0.2762  0.1999
 2018TIP3    H127689   1.881   5.670   7.632 -1.1594  1.9816  1.9265
 2018TIP3    H227690   1.817   5.731   7.509 -1.5862  1.7996  2.0563
 2019TIP3   OH227691   1.407   2.158   2.093 -0.2789 -0.1969 -0.1718
 2019TIP3    H127692   1.354   2.092   2.138  2.2705 -1.7437  0.8094
 2019TIP3    H227693   1.463   2.195   2.161 -0.4979  1.8550 -1.0316
 2020TIP3   OH227694   2.901   1.489   1.377 -0.1249  0.0185 -0.2454
 2020TIP3    H127695   2.909   1.450   1.290 -1.4913  1.2624 -0.9917
 2020TIP3    H227696   2.821   1.542   1.372 -0.6554 -0.4497  2.0016
 2021TIP3   OH227697   0.687   5.024   0.080 -0.8099 -0.0865 -0.2013
 2021TIP3    H127698   0.606   5.015   0.030 -1.2288 -1.8332  0.7424
 2021TIP3    H227699   0.732   5.098   0.039 -2.8088  0.8546 -0.8238
 2022TIP3   OH227700   4.179   3.361   6.790  0.4804  0.1253  0.3202
 2022TIP3    H127701   4.161   3.440   6.841 -0.1491  1.2648 -1.5525
 2022TIP3    H227702   4.110   3.299   6.816 -0.4420  1.0503  0.1189
 2023TIP3   OH227703   1.163   5.057   1.385  0.3487 -0.0740  0.1587
 2023TIP3    H127704   1.093   4.995   1.369 -0.2209  0.5611  0.1438
 2023TIP3    H227705   1.238   5.022   1.337 -0.5517  0.3409 -1.6381
 2024TIP3   OH227706   5.549   3.187   7.691 -0.3060 -0.1838  0.2138
 2024TIP3    H127707   5.612   3.175   7.620 -1.8317 -1.4095 -0.9960
 2024TIP3    H227708   5.596   3.241   7.756  2.0023 -1.1438 -0.5624
 2025TIP3   OH227709   1.349   1.989   8.469 -0.1843 -0.2488 -0.4067
 2025TIP3    H127710   1.327   2.041   8.547  0.3711  0.7847 -0.9161
 2025TIP3    H227711   1.445   1.990   8.466 -0.1138 -1.9591 -0.0256
 2026TIP3   OH227712   0.047   5.876   2.558  0.3128  0.3212 -0.0985
 2026TIP3    H127713  -0.027   5.815   2.549  0.1059  0.5169  0.2937
 2026TIP3    H227714   0.067   5.901   2.468 -0.5613  0.8181 -0.1657
 2027TIP3   OH227715   3.083   0.071   8.462 -0.3470 -0.5605 -0.6506
 2027TIP3    H127716   3.031   0.149   8.482  0.9688  0.3178 -0.5278
 2027TIP3    H227717   3.091   0.072   8.367  1.0658  0.4295 -0.5520
 2028TIP3   OH227718   1.649   1.100   0.952 -0.3809 -0.3995  0.7063
 2028TIP3    H127719   1.586   1.043   0.995 -0.5510 -0.1044  0.8548
 2028TIP3    H227720   1.616   1.111   0.863 -1.0374  0.4787  1.0413
 2029TIP3   OH227721   6.696   5.502   0.320 -0.0256  0.2720 -0.5930
 2029TIP3    H127722   6.636   5.431   0.297 -0.7550  1.3133 -2.0404
 2029TIP3    H227723   6.760   5.461   0.378 -1.7373 -1.0322  0.4752
 2030TIP3   OH227724   4.530   0.943   8.142  0.0313  0.1780 -0.5484
 2030TIP3    H127725   4.588   0.994   8.199  0.2662 -0.9912  0.2733
 2030TIP3    H227726   4.442   0.975   8.162 -0.0580 -1.2746  1.6457
 2031TIP3   OH227727   0.604   3.475   1.377 -0.0989 -0.1225  0.1868
 2031TIP3    H127728   0.530   3.516   1.421 -1.0358 -0.6778 -0.8209
 2031TIP3    H227729   0.566   3.430   1.302  1.2727 -0.3698 -0.4029
 2032TIP3   OH227730   5.814   6.678   0.704  0.4773 -0.0543 -0.3891
 2032TIP3    H127731   5.795   6.637   0.788  3.5949  0.1142  0.5052
 2032TIP3    H227732   5.728   6.703   0.670 -1.0154 -1.6675  1.9111
 2033TIP3   OH227733   4.110   6.425   6.155 -0.0131 -0.2182 -0.2615
 2033TIP3    H127734   4.081   6.355   6.214  1.6851 -0.2299  0.6279
 2033TIP3    H227735   4.197   6.448   6.187 -0.1222  1.6201 -1.1595
 2034TIP3   OH227736   0.752   1.408   1.472  0.0416 -0.0425  0.2326
 2034TIP3    H127737   0.714   1.481   1.422 -0.1168 -0.5175 -0.3470
 2034TIP3    H227738   0.688   1.389   1.540 -1.5701 -1.8380 -1.6298
 2035TIP3   OH227739   2.243   5.898   7.491  0.5550 -0.1705  0.0426
 2035TIP3    H127740   2.188   5.838   7.442 -0.5505  2.7223 -2.6434
 2035TIP3    H227741   2.236   5.870   7.582 -1.2149 -2.9674 -0.8610
 2036TIP3   OH227742   3.854   6.458   0.853 -0.2762  0.1320  0.4086
 2036TIP3    H127743   3.863   6.517   0.928  0.7082  0.7205 -0.1490
 2036TIP3    H227744   3.824   6.515   0.782  1.4772  0.1776 -0.3522
 2037TIP3   OH227745   0.702   3.743   8.237  0.6802 -0.8150 -0.3206
 2037TIP3    H127746   0.780   3.749   8.181 -0.1631  2.0913 -1.3767
 2037TIP3    H227747   0.721   3.802   8.310 -1.1923  1.5733 -1.6306
 2038TIP3   OH227748   1.304   4.502   7.441 -0.1532 -0.3115  0.5187
 2038TIP3    H127749   1.283   4.481   7.350 -0.2790 -0.8613  0.6677
 2038TIP3    H227750   1.315   4.597   7.442 -2.2589 -0.0207  0.3530
 2039TIP3   OH227751   1.903   4.158   8.012 -0.2054  0.4724  0.8241
 2039TIP3    H127752   1.918   4.081   8.068  1.8742  0.2148  0.0275
 2039TIP3    H227753   1.832   4.132   7.954  1.4199 -1.5234 -0.4282
 2040TIP3   OH227754   1.731   3.520   7.274  0.2359  0.2702  0.2242
 2040TIP3    H127755   1.777   3.453   7.326 -0.5851  1.0362  2.0295
 2040TIP3    H227756   1.764   3.603   7.308 -1.1102  0.7984  0.2863
 2041TIP3   OH227757   5.958   6.423   8.720 -0.0096 -0.4053  0.2929
 2041TIP3    H127758   5.921   6.436   8.632  1.4108  0.6693 -0.1720
 2041TIP3    H227759   5.921   6.494   8.772  1.3575  0.6794 -0.1768
 2042TIP3   OH227760   2.657   1.551   0.751 -0.2611  0.5262  0.2682
 2042TIP3    H127761   2.613   1.629   0.715 -0.5944  0.1228 -0.2112
 2042TIP3    H227762   2.682   1.500   0.674  0.9771  0.6996  0.5392
 2043TIP3   OH227763   6.216   0.033   7.911 -0.2577 -0.3088  0.1315
 2043TIP3    H127764   6.283  -0.035   7.908 -1.7400 -1.8237 -0.8325
 2043TIP3    H227765   6.154   0.009   7.842 -2.0474  0.7421  1.2665
 2044TIP3   OH227766   2.322   4.224   0.530  0.0379  0.5566  0.0234
 2044TIP3    H127767   2.398   4.227   0.588 -0.8844  0.5421  1.2757
 2044TIP3    H227768   2.250   4.260   0.582 -0.6872  1.2162 -1.3622
 2045TIP3   OH227769   1.059   2.354   8.075  0.3073  0.3338  0.5561
 2045TIP3    H127770   0.964   2.355   8.078  0.2480  0.5580 -0.7131
 2045TIP3    H227771   1.082   2.433   8.026  0.8338 -2.3172 -4.0788
 2046TIP3   OH227772   4.578   4.202   1.651 -0.3944 -0.1001  0.7007
 2046TIP3    H127773   4.543   4.202   1.740 -2.0915 -0.3613  0.0619
 2046TIP3    H227774   4.637   4.127   1.648  0.8923  0.8129  2.0352
 2047TIP3   OH227775   2.756   1.592   7.689  0.4515 -0.5596 -0.7238
 2047TIP3    H127776   2.767   1.511   7.639  1.5176 -2.3759  2.1892
 2047TIP3    H227777   2.837   1.642   7.672  0.2147 -0.5067 -1.7822
 2048TIP3   OH227778   5.955   0.102   0.989 -0.8723 -0.3116  0.0468
 2048TIP3    H127779   5.876   0.151   0.966 -1.4480 -1.1659  0.1508
 2048TIP3    H227780   6.027   0.155   0.954 -1.5318  0.1073 -0.7252
 2049TIP3   OH227781   6.025   2.518   7.254 -0.1463  0.0187  0.2187
 2049TIP3    H127782   6.086   2.450   7.224 -1.0529 -1.4771  1.6543
 2049TIP3    H227783   5.993   2.558   7.173  0.4135 -1.2547 -0.6587
 2050TIP3   OH227784   5.723   2.211   6.977 -0.5434 -0.0669 -0.6346
 2050TIP3    H127785   5.675   2.145   6.927 -1.5570 -0.8716  1.2961
 2050TIP3    H227786   5.676   2.292   6.962 -0.4251 -0.1542 -1.5139
 2051TIP3   OH227787   6.683   2.986   0.385 -0.3330  0.1207  0.3413
 2051TIP3    H127788   6.706   3.022   0.300  0.5469 -2.8165 -0.7690
 2051TIP3    H227789   6.745   3.027   0.446  0.5004  0.6011 -0.7961
 2052TIP3   OH227790   3.572   6.709   0.742 -0.3117 -0.2917 -0.0937
 2052TIP3    H127791   3.570   6.672   0.831 -1.2810  0.7118  0.3281
 2052TIP3    H227792   3.654   6.758   0.738 -0.0325 -0.7426  0.0777
 2053TIP3   OH227793   4.136   0.328   7.044  0.2905  0.0414 -0.4910
 2053TIP3    H127794   4.121   0.419   7.072 -0.7841 -0.2523 -0.0751
 2053TIP3    H227795   4.099   0.324   6.955 -3.9881 -1.0893  1.0944
 2054TIP3   OH227796   3.559   2.789   0.493  0.2229  0.3141 -0.0578
 2054TIP3    H127797   3.528   2.765   0.406  0.3398  1.1212 -0.3330
 2054TIP3    H227798   3.651   2.762   0.494  0.1448  0.0487 -0.0851
 2055TIP3   OH227799   4.830   0.797   8.411 -0.5333  0.2313 -0.0916
 2055TIP3    H127800   4.768   0.755   8.351 -1.1681  1.1489 -0.0830
 2055TIP3    H227801   4.811   0.758   8.496  0.2355 -0.9281 -0.4085
 2056TIP3   OH227802   2.084   4.171   0.324  0.4769 -0.4787  0.1716
 2056TIP3    H127803   2.137   4.190   0.401 -0.5354  1.4664  0.4498
 2056TIP3    H227804   2.129   4.213   0.251  0.3293 -0.4969  0.0679
 2057TIP3   OH227805   1.268   1.847   0.170 -0.5831 -0.0594  0.0914
 2057TIP3    H127806   1.229   1.761   0.190 -1.7047  0.2840 -0.5429
 2057TIP3    H227807   1.243   1.863   0.079  1.7927 -0.1988 -0.6511
 2058TIP3   OH227808   4.102   1.144   8.810  0.1092  0.7172  0.4506
 2058TIP3    H127809   4.095   1.066   8.864 -0.9259  0.7890  0.4493
 2058TIP3    H227810   4.129   1.213   8.870 -0.8851  0.7636  0.8614
 2059TIP3   OH227811   1.550   6.753   7.640  0.0762 -0.1514  0.1997
 2059TIP3    H127812   1.565   6.667   7.602  1.7595 -0.0532  0.5187
 2059TIP3    H227813   1.639   6.788   7.655 -0.5325  2.0500 -0.8653
 2060TIP3   OH227814   4.517   3.582   0.573  0.0980 -0.4720 -0.1773
 2060TIP3    H127815   4.482   3.514   0.631 -0.6434 -0.2060 -0.2976
 2060TIP3    H227816   4.612   3.573   0.579  0.1487  0.8900  2.7330
 2061TIP3   OH227817   2.761   3.044   1.339  0.5224  0.6496  0.1802
 2061TIP3    H127818   2.824   3.083   1.279 -0.5748 -0.2146 -1.6255
 2061TIP3    H227819   2.688   3.106   1.342 -0.4940 -0.3922 -1.3878
 2062TIP3   OH227820   5.715   0.802   1.313 -0.1562  0.5292 -0.3567
 2062TIP3    H127821   5.753   0.731   1.262 -0.7452  0.5234 -0.8014
 2062TIP3    H227822   5.777   0.874   1.305  1.0048 -0.2706  1.0178
 2063TIP3   OH227823   4.730   4.499   1.605 -0.2972 -0.0335 -0.3353
 2063TIP3    H127824   4.804   4.558   1.590  0.0439  0.2655  2.1482
 2063TIP3    H227825   4.769   4.420   1.643 -1.2350  0.3661  1.6167
 2064TIP3   OH227826   5.121   4.474   1.780  0.1161 -0.1739 -0.0344
 2064TIP3    H127827   5.133   4.549   1.838  0.4964 -0.2674  0.0103
 2064TIP3    H227828   5.099   4.513   1.695  1.5924  0.0491 -0.3320
 2065TIP3   OH227829   6.589   2.871   7.069 -0.0852  0.1192  0.5023
 2065TIP3    H127830   6.643   2.862   6.991 -1.8393 -0.4824 -0.7171
 2065TIP3    H227831   6.541   2.952   7.056 -1.0268 -0.4212  0.5079
 2066TIP3   OH227832   0.354   3.193   6.530  0.3891 -0.2776  0.1032
 2066TIP3    H127833   0.328   3.284   6.515 -0.6899 -0.8833 -2.1721
 2066TIP3    H227834   0.447   3.191   6.505  0.7128  0.3913  1.1992
 2067TIP3   OH227835   6.070   2.577   7.789  0.0848  0.1016 -0.2334
 2067TIP3    H127836   6.112   2.492   7.779  0.5493  0.0865  1.5197
 2067TIP3    H227837   5.976   2.559   7.779  0.1831 -0.6068  0.0655
 2068TIP3   OH227838   4.164   4.240   0.973  0.1457 -0.0545  0.0886
 2068TIP3    H127839   4.177   4.210   0.883 -1.4162  1.4311 -0.6871
 2068TIP3    H227840   4.069   4.250   0.982  0.1854 -0.9848  2.2093
 2069TIP3   OH227841   2.963   6.575   8.212 -0.4448  0.1833 -0.1017
 2069TIP3    H127842   2.972   6.669   8.229 -0.7109  0.0842  0.5941
 2069TIP3    H227843   2.874   6.554   8.239 -0.7580 -0.0626 -1.2744
 2070TIP3   OH227844   1.412   2.816   6.303  0.1059  0.9654  0.3377
 2070TIP3    H127845   1.479   2.749   6.316  0.7334  1.7824  1.4752
 2070TIP3    H227846   1.357   2.781   6.233  0.0074 -1.0623  1.3543
 2071TIP3   OH227847   4.645   2.133   1.527  0.1129  0.1319 -0.1382
 2071TIP3    H127848   4.716   2.190   1.558  1.0780 -1.0984 -0.0289
 2071TIP3    H227849   4.565   2.179   1.554  0.8038  1.9520 -0.9669
 2072TIP3   OH227850   0.286   0.208   8.566  0.3543  0.5566 -0.3424
 2072TIP3    H127851   0.314   0.298   8.584 -2.0119  1.0282  1.5107
 2072TIP3    H227852   0.319   0.158   8.641  0.1165  0.2220 -0.4611
 2073TIP3   OH227853   6.716   0.333   7.283 -0.4246 -0.6138 -0.6875
 2073TIP3    H127854   6.676   0.409   7.242  0.0204  0.7350  1.2483
 2073TIP3    H227855   6.643   0.287   7.324 -0.3488  0.5309  0.8038
 2074TIP3   OH227856   6.697   3.772   0.656 -0.5114 -0.0939 -0.6806
 2074TIP3    H127857   6.639   3.697   0.644  0.8703 -1.5779  1.3112
 2074TIP3    H227858   6.748   3.777   0.576 -1.2209 -0.7362 -1.1803
 2075TIP3   OH227859   5.375   5.999   0.380  0.7979 -0.0688  0.3871
 2075TIP3    H127860   5.333   5.949   0.450 -0.9539  2.1519  1.0272
 2075TIP3    H227861   5.417   6.072   0.425  1.4510  0.2581 -0.7196
 2076TIP3   OH227862   5.142   1.542   1.559 -0.0467  0.3252  0.6975
 2076TIP3    H127863   5.193   1.474   1.603  0.2413  0.8615  1.2110
 2076TIP3    H227864   5.201   1.578   1.493 -0.3432 -0.2049  0.1346
 2077TIP3   OH227865   0.394   4.298   1.527  0.0007  0.3113  0.3709
 2077TIP3    H127866   0.406   4.348   1.447  1.7872  1.2951  1.1830
 2077TIP3    H227867   0.435   4.213   1.509 -1.7112 -0.3871 -0.5021
 2078TIP3   OH227868   3.677   3.700   1.744  0.6644  0.0626 -0.0493
 2078TIP3    H127869   3.705   3.785   1.711 -0.2482 -0.0796 -1.2432
 2078TIP3    H227870   3.758   3.654   1.766  1.1547  1.6548  1.7817
 2079TIP3   OH227871   0.933   6.681   1.999 -0.5682 -0.5610 -0.5973
 2079TIP3    H127872   0.909   6.751   2.059 -1.2720  0.2742 -1.8207
 2079TIP3    H227873   0.932   6.601   2.053 -0.2843  0.2734  0.6865
 2080TIP3   OH227874   2.187   0.264   7.917  0.5126 -0.4051 -0.3515
 2080TIP3    H127875   2.226   0.338   7.870  0.7632 -0.9831 -1.0863
 2080TIP3    H227876   2.109   0.300   7.958  1.9366  0.8580  1.4084
 2081TIP3   OH227877   2.048   0.420   1.019  0.3491 -0.0998 -0.2064
 2081TIP3    H127878   2.088   0.429   1.105  0.5639 -1.3140 -0.1561
 2081TIP3    H227879   1.991   0.497   1.011 -1.3541 -1.0009  1.9413
 2082TIP3   OH227880   5.058   3.979   7.741  0.0291 -0.2253 -0.5699
 2082TIP3    H127881   5.108   3.985   7.660 -0.0328  0.2952 -0.5761
 2082TIP3    H227882   5.123   3.960   7.808  0.1423 -0.2234 -0.6792
 2083TIP3   OH227883   4.542   1.905   8.838 -0.5593  0.3248 -0.1615
 2083TIP3    H127884   4.506   1.987   8.802  0.1616  0.7287  0.0310
 2083TIP3    H227885   4.610   1.880   8.776 -1.3636 -0.6208 -0.7012
 2084TIP3   OH227886   1.934   6.650   0.817  0.1252 -0.5144  0.6794
 2084TIP3    H127887   1.901   6.681   0.733  2.2091 -0.5210 -0.2127
 2084TIP3    H227888   1.937   6.728   0.872  2.4465  0.3723 -0.5733
 2085TIP3   OH227889   2.789   0.927   6.622 -0.5531  0.2703 -0.1830
 2085TIP3    H127890   2.835   0.873   6.557  1.2996  0.8653  0.5788
 2085TIP3    H227891   2.721   0.870   6.657  0.6006 -1.2040 -0.2506
 2086TIP3   OH227892   0.940   4.409   0.278 -0.5840  0.0011  0.5184
 2086TIP3    H127893   0.868   4.348   0.264  0.0245 -0.2951 -1.6923
 2086TIP3    H227894   0.932   4.471   0.205  1.5689 -0.2283  0.0435
 2087TIP3   OH227895   4.771   3.306   6.853 -0.0051  0.4721  0.5893
 2087TIP3    H127896   4.754   3.249   6.777 -0.9565  0.8221  0.5219
 2087TIP3    H227897   4.791   3.246   6.924 -1.2227  0.0319  0.5740
 2088TIP3   OH227898   3.431   5.913   8.756 -0.5663 -0.0504 -0.3815
 2088TIP3    H127899   3.369   5.878   8.692 -0.9814 -1.2976  0.6552
 2088TIP3    H227900   3.410   5.868   8.838  1.6291 -0.4453  0.0490
 2089TIP3   OH227901   2.970   0.523   7.077 -0.3216 -0.3497  0.5753
 2089TIP3    H127902   3.033   0.453   7.060 -0.6982 -0.7012  0.6212
 2089TIP3    H227903   2.946   0.556   6.991 -1.1255 -1.1523  0.4753
 2090TIP3   OH227904   5.593   0.994   0.865  0.1342 -0.1159 -0.4722
 2090TIP3    H127905   5.602   0.902   0.892  1.9338  0.1972  0.1512
 2090TIP3    H227906   5.532   1.031   0.929  1.5207 -0.2616  1.0064
 2091TIP3   OH227907   3.030   6.466   0.199  0.3513  0.8551  0.0835
 2091TIP3    H127908   2.944   6.483   0.161  0.4424  0.0398 -0.5147
 2091TIP3    H227909   3.021   6.383   0.245  1.0616  0.2512 -0.8195
 2092TIP3   OH227910   6.461   0.836   0.922 -0.0414  0.4225 -0.1117
 2092TIP3    H127911   6.448   0.915   0.869 -0.8182 -0.0964 -0.7140
 2092TIP3    H227912   6.424   0.765   0.869  0.5601 -0.3370  0.4620
 2093TIP3   OH227913   4.955   0.491   0.938 -0.3317 -0.7215 -0.1615
 2093TIP3    H127914   4.971   0.585   0.929 -1.2939 -0.6038 -0.8347
 2093TIP3    H227915   5.007   0.464   1.013 -1.1755  0.6366  0.9463
 2094TIP3   OH227916   0.914   0.079   8.192  0.5191  0.1317  0.4462
 2094TIP3    H127917   0.846   0.018   8.218  0.9955 -1.4062 -1.6531
 2094TIP3    H227918   0.981   0.071   8.260 -0.7075  0.5868  1.7601
 2095TIP3   OH227919   0.624   0.894   0.508 -0.3560 -0.4137  0.8391
 2095TIP3    H127920   0.531   0.907   0.487  0.1859  0.1876 -1.5315
 2095TIP3    H227921   0.628   0.898   0.603 -2.3227  3.1715  0.9601
 2096TIP3   OH227922   4.398   5.761   0.504  0.2305 -0.0739 -0.2099
 2096TIP3    H127923   4.391   5.737   0.596  1.4934 -1.2234 -0.3820
 2096TIP3    H227924   4.438   5.849   0.505  2.4774 -1.0252  0.3452
 2097TIP3   OH227925   2.413   4.527   8.730  0.4701  0.0379  0.1130
 2097TIP3    H127926   2.389   4.616   8.705  1.8281 -0.0310 -1.6126
 2097TIP3    H227927   2.370   4.471   8.666  1.5302 -0.3661 -0.2703
 2098TIP3   OH227928   2.991   3.921   2.412 -0.5169 -0.0968  0.1946
 2098TIP3    H127929   2.954   3.859   2.476 -1.4757 -1.8331 -1.8991
 2098TIP3    H227930   3.027   3.992   2.465 -2.0519 -0.9936  2.6165
 2099TIP3   OH227931   0.693   4.080   7.441 -0.1928  0.5642 -0.4580
 2099TIP3    H127932   0.753   4.154   7.431  1.0998 -0.0352  2.0146
 2099TIP3    H227933   0.656   4.091   7.529 -1.4072 -0.7304 -0.7707
 2100TIP3   OH227934   1.114   5.853   0.639  0.4271 -0.0727  0.1000
 2100TIP3    H127935   1.101   5.789   0.709  0.0573  0.4463  0.5147
 2100TIP3    H227936   1.196   5.827   0.598  0.6773 -0.3466  0.7609
 2101TIP3   OH227937   5.165   1.566   8.189  0.2255  0.2092 -0.4592
 2101TIP3    H127938   5.195   1.477   8.209  0.1900  0.3842  0.4256
 2101TIP3    H227939   5.197   1.583   8.101  0.2802 -0.6608 -0.6166
 2102TIP3   OH227940   5.604   5.587   2.455 -0.1035  0.0605  0.0427
 2102TIP3    H127941   5.530   5.602   2.396  0.2157  0.8992 -0.1620
 2102TIP3    H227942   5.676   5.638   2.417  0.4759 -0.4472  0.4381
 2103TIP3   OH227943   6.763   4.531   7.856 -0.2050 -0.4971 -0.2801
 2103TIP3    H127944   6.778   4.452   7.908  0.4800  1.2911  2.5056
 2103TIP3    H227945   6.735   4.596   7.921 -3.2167  0.9437 -2.7960
 2104TIP3   OH227946   3.432   0.014   1.123  0.0065  0.3087  0.3431
 2104TIP3    H127947   3.503  -0.036   1.163 -0.0664 -1.2321 -1.3406
 2104TIP3    H227948   3.364   0.017   1.190 -1.3348 -4.7555 -0.3533
 2105TIP3   OH227949   5.022   0.589   8.084 -0.3743  0.6691 -0.1102
 2105TIP3    H127950   5.080   0.541   8.024 -2.0509 -0.1231 -1.1514
 2105TIP3    H227951   5.042   0.681   8.067  1.0605  0.4108  0.0488
 2106TIP3   OH227952   3.664   4.324   0.215  0.8863  0.3291 -0.2706
 2106TIP3    H127953   3.752   4.290   0.228  0.3499 -0.8949  0.2846
 2106TIP3    H227954   3.622   4.316   0.301 -0.1187 -0.1400 -0.7936
 2107TIP3   OH227955   0.632   6.589   6.357 -0.0087  0.6823 -0.1281
 2107TIP3    H127956   0.592   6.540   6.429 -0.2569 -2.1465 -1.9961
 2107TIP3    H227957   0.558   6.626   6.309 -0.0045  0.6090 -0.1923
 2108TIP3   OH227958   2.675   0.177   0.407  0.2245  0.1225 -0.3851
 2108TIP3    H127959   2.610   0.118   0.368  0.9407 -0.8121 -0.1963
 2108TIP3    H227960   2.629   0.215   0.483 -0.3821  0.1345 -0.7491
 2109TIP3   OH227961   5.807   5.662   7.677  0.7887  0.0598 -0.0082
 2109TIP3    H127962   5.755   5.736   7.706 -1.1243 -1.2424  0.1087
 2109TIP3    H227963   5.783   5.651   7.584 -2.7208 -3.1253  0.9954
 2110TIP3   OH227964   6.432   2.359   1.379 -0.3092  0.0985 -0.2787
 2110TIP3    H127965   6.380   2.280   1.364 -0.7239  0.6625 -2.1431
 2110TIP3    H227966   6.377   2.431   1.347  1.4329  0.7419 -2.0705
 2111TIP3   OH227967   5.665   3.904   1.700 -0.4341  0.3555 -0.1378
 2111TIP3    H127968   5.588   3.934   1.650 -0.2538  0.6035 -0.2697
 2111TIP3    H227969   5.676   3.813   1.675 -2.4730 -0.6284  2.0749
 2112TIP3   OH227970   6.137   2.512   1.526  0.0475 -0.0403  0.0987
 2112TIP3    H127971   6.072   2.454   1.486 -0.1695  0.3341 -0.1005
 2112TIP3    H227972   6.177   2.558   1.451 -1.6241  2.0143  0.3621
 2113TIP3   OH227973   1.800   0.608   7.378 -0.5540  0.8707  0.6695
 2113TIP3    H127974   1.843   0.647   7.302  0.5348  0.3676  1.0063
 2113TIP3    H227975   1.722   0.566   7.342  0.4165 -0.1564 -0.3450
 2114TIP3   OH227976   2.053   0.229   1.524  0.4561  0.0912  0.3621
 2114TIP3    H127977   2.001   0.204   1.447 -0.6210  1.0221  0.7650
 2114TIP3    H227978   2.116   0.158   1.534 -0.4340 -0.8465 -0.4277
 2115TIP3   OH227979   6.450   6.786   7.502  0.3302  0.1052 -0.0281
 2115TIP3    H127980   6.416   6.749   7.583 -1.3130  2.8394  0.6657
 2115TIP3    H227981   6.407   6.737   7.432 -2.1373  0.8951  0.8388
 2116TIP3   OH227982   1.599   4.403   7.376  0.5415 -0.2496  0.2729
 2116TIP3    H127983   1.694   4.409   7.375  0.5057  0.3968 -0.5014
 2116TIP3    H227984   1.572   4.465   7.444  0.6871 -0.8539  0.8937
 2117TIP3   OH227985   1.797   4.055   2.252  0.1930 -0.5921  0.0843
 2117TIP3    H127986   1.743   4.101   2.187  0.6445 -1.0524 -0.6271
 2117TIP3    H227987   1.821   3.973   2.210 -0.3038 -1.3424  1.2069
 2118TIP3   OH227988   6.225   1.365   6.858 -0.1550 -0.1486 -0.0553
 2118TIP3    H127989   6.186   1.284   6.892  0.5558 -0.7436 -0.5920
 2118TIP3    H227990   6.296   1.334   6.801  0.8205  0.8723  0.5602
 2119TIP3   OH227991   5.923   6.360   8.312 -0.0366  0.1680 -0.0717
 2119TIP3    H127992   5.855   6.424   8.334 -0.2966  0.6516 -2.0898
 2119TIP3    H227993   5.886   6.310   8.239 -0.2119 -2.9546  1.9607
 2120TIP3   OH227994   1.168   0.239   1.395  0.3889  0.1172  0.1855
 2120TIP3    H127995   1.094   0.254   1.336 -0.9401  1.3365  2.0156
 2120TIP3    H227996   1.141   0.164   1.448  1.2103 -0.4760 -0.2342
 2121TIP3   OH227997   3.427   3.311   7.346 -0.3310  0.1466 -0.1771
 2121TIP3    H127998   3.506   3.339   7.392  0.4247 -2.3432  0.2290
 2121TIP3    H227999   3.355   3.355   7.391  0.7384  1.4407  0.2944
 2122TIP3   OH228000   5.567   4.704   8.003 -0.7042  0.3896 -0.5611
 2122TIP3    H128001   5.646   4.758   7.997 -0.0758 -0.6081 -1.7536
 2122TIP3    H228002   5.563   4.678   8.095  0.5094  0.2602 -0.5201
 2123TIP3   OH228003   1.689   0.150   0.518 -0.0541  0.0256 -0.4587
 2123TIP3    H128004   1.685   0.157   0.613 -3.4396 -2.5880 -0.1830
 2123TIP3    H228005   1.617   0.205   0.487  0.0173 -0.3681 -1.3469
 2124TIP3   OH228006   5.824   3.536   0.950 -0.3314  0.3100  0.3679
 2124TIP3    H128007   5.766   3.609   0.969 -0.3284 -0.1576  2.4268
 2124TIP3    H228008   5.898   3.548   1.009 -0.1276 -1.1240  0.4377
 2125TIP3   OH228009   2.753   2.005   7.173 -0.3271  0.4040 -0.1798
 2125TIP3    H128010   2.762   1.932   7.235 -0.5426  1.0880  0.6760
 2125TIP3    H228011   2.682   2.058   7.208  0.4446  1.5333 -0.2625
 2126TIP3   OH228012   1.397   6.222   1.182  0.2820  0.2485  0.4861
 2126TIP3    H128013   1.345   6.193   1.257 -0.9515 -0.6839 -0.6649
 2126TIP3    H228014   1.367   6.312   1.166  0.1832  0.2726  0.8032
 2127TIP3   OH228015   6.384   4.361   7.516 -0.3321  0.0728 -0.6890
 2127TIP3    H128016   6.340   4.285   7.557 -0.1906  0.8802  1.0477
 2127TIP3    H228017   6.313   4.407   7.472 -0.8750  0.1859  0.2564
 2128TIP3   OH228018   6.207   1.877   1.487 -0.0395 -0.0912  0.1499
 2128TIP3    H128019   6.164   1.874   1.572 -1.4865  0.1015 -0.5572
 2128TIP3    H228020   6.240   1.788   1.474  0.6551  0.0082  1.1247
 2129TIP3   OH228021   5.375   5.301   8.696  0.7939 -0.4345  0.3392
 2129TIP3    H128022   5.407   5.224   8.649  0.0155 -0.7028  0.2384
 2129TIP3    H228023   5.323   5.348   8.631  1.6111  0.4066  0.2764
 2130TIP3   OH228024   0.790   2.253   0.234 -0.2665 -0.0025  0.4644
 2130TIP3    H128025   0.841   2.322   0.192  0.6074 -0.5376  0.6136
 2130TIP3    H228026   0.708   2.296   0.260  0.0352  0.8357  0.0730
 2131TIP3   OH228027   5.747   6.556   1.680 -0.1333  0.7764  0.1249
 2131TIP3    H128028   5.814   6.580   1.616  0.0930 -0.0170  0.0633
 2131TIP3    H228029   5.750   6.626   1.746  1.7543 -0.0025  0.9045
 2132TIP3   OH228030   3.111   1.665   7.338  0.4755  0.0107  0.1691
 2132TIP3    H128031   3.140   1.687   7.427 -2.1856  0.5198  1.0049
 2132TIP3    H228032   3.125   1.571   7.331  1.8076  0.1454  0.6629
 2133TIP3   OH228033   2.848   1.768   8.067  0.0919  0.2461  0.1154
 2133TIP3    H128034   2.938   1.798   8.074  0.6834 -1.5672  0.8285
 2133TIP3    H228035   2.816   1.807   7.985  1.1165  1.8447  0.4366
 2134TIP3   OH228036   6.411   2.827   0.316  0.0024 -0.1662 -0.2934
 2134TIP3    H128037   6.376   2.738   0.318 -1.3399  0.3471 -0.0637
 2134TIP3    H228038   6.496   2.821   0.361 -1.0161 -0.9258  1.6111
 2135TIP3   OH228039   2.302   3.728   7.574  0.2541 -0.5947  0.1532
 2135TIP3    H128040   2.218   3.712   7.531  0.8675  0.7023 -1.6514
 2135TIP3    H228041   2.289   3.811   7.621  0.9080  0.3797 -1.3251
 2136TIP3   OH228042   4.119   0.378   0.763 -0.1125  0.0674 -0.4526
 2136TIP3    H128043   4.063   0.456   0.769 -0.0205  0.0975  0.0832
 2136TIP3    H228044   4.187   0.393   0.829 -0.8890 -1.1074  0.6585
 2137TIP3   OH228045   3.934   2.319   0.299 -0.0471  0.3712 -0.3157
 2137TIP3    H128046   3.959   2.410   0.286 -1.5010  0.5962 -1.8904
 2137TIP3    H228047   3.857   2.323   0.357  0.5411  0.0458  0.5079
 2138TIP3   OH228048   4.656   5.216   0.644  0.3531 -0.1901 -0.5908
 2138TIP3    H128049   4.675   5.260   0.727  0.9644  0.6908 -1.1760
 2138TIP3    H228050   4.645   5.288   0.581 -1.4991 -0.7946 -1.0072
 2139TIP3   OH228051   6.710   2.371   1.268  0.1289 -0.7800 -0.6181
 2139TIP3    H128052   6.623   2.366   1.308  1.1089  0.2446  1.8783
 2139TIP3    H228053   6.699   2.431   1.194 -1.0206  0.5254  0.5565
 2140TIP3   OH228054   5.351   1.365   8.160 -0.5903  0.1161 -0.1304
 2140TIP3    H128055   5.376   1.297   8.223 -1.2396 -0.6967 -0.7272
 2140TIP3    H228056   5.412   1.352   8.087 -1.2403 -0.3771 -0.5996
 2141TIP3   OH228057   2.810   1.746   0.922 -0.1671  0.4581 -0.1142
 2141TIP3    H128058   2.888   1.729   0.974 -0.7762  0.9043  0.9831
 2141TIP3    H228059   2.799   1.668   0.868  1.0079  0.3818 -0.2663
 2142TIP3   OH228060   4.712   5.017   0.134  0.1017  0.3937  0.0443
 2142TIP3    H128061   4.741   4.950   0.196  0.5121 -0.7150 -1.2974
 2142TIP3    H228062   4.792   5.047   0.091 -0.0585  1.8770  0.7041
 2143TIP3   OH228063   4.950   3.457   1.451  0.6372  0.2077 -0.4070
 2143TIP3    H128064   5.004   3.490   1.522  0.4064  0.5302 -0.3744
 2143TIP3    H228065   5.010   3.443   1.378  0.7852  0.4297 -0.3274
 2144TIP3   OH228066   0.976   0.572   1.822 -0.2329 -0.0833 -0.0325
 2144TIP3    H128067   0.890   0.576   1.778 -0.4464 -1.0707  0.2572
 2144TIP3    H228068   1.038   0.556   1.751  0.1442  3.4183 -0.6550
 2145TIP3   OH228069   1.485   2.219   0.787 -0.0110 -0.0965  0.3298
 2145TIP3    H128070   1.426   2.183   0.853 -1.8771 -1.0189 -1.7079
 2145TIP3    H228071   1.547   2.148   0.769 -0.3099 -0.3205  0.1770
 2146TIP3   OH228072   6.403   2.044   6.740 -0.0681  0.2982  0.1217
 2146TIP3    H128073   6.377   1.993   6.664  0.4177 -0.4307  0.4380
 2146TIP3    H228074   6.478   1.997   6.777 -1.5075 -0.5170  2.2131
 2147TIP3   OH228075   2.242   4.416   1.726 -0.3051  0.3249 -0.1399
 2147TIP3    H128076   2.333   4.431   1.750  0.3534 -1.4955 -1.3449
 2147TIP3    H228077   2.212   4.500   1.691  0.6785  1.1259  0.8689
 2148TIP3   OH228078   5.498   1.982   7.224 -0.1912  0.9553  0.7778
 2148TIP3    H128079   5.586   1.989   7.262 -0.4611  0.7612  1.4499
 2148TIP3    H228080   5.514   1.970   7.130  0.4974  1.0445  0.8758
 2149TIP3   OH228081   5.054   5.011   1.257 -0.3487  0.1858 -0.4747
 2149TIP3    H128082   5.016   5.016   1.345  1.9507 -0.9594  0.6886
 2149TIP3    H228083   5.049   5.100   1.223 -2.8060  0.3278  0.0787
 2150TIP3   OH228084   6.776   5.532   6.851  0.0595  0.4922  0.0168
 2150TIP3    H128085   6.827   5.452   6.837  0.5860  0.8266  0.0138
 2150TIP3    H228086   6.687   5.501   6.866 -0.0260 -0.0170 -1.4369
 2151TIP3   OH228087   4.298   3.809   0.720 -0.0411  0.3064 -0.5072
 2151TIP3    H128088   4.262   3.796   0.808 -2.0176  0.9999 -1.1630
 2151TIP3    H228089   4.392   3.819   0.734 -0.2408 -0.1144  1.4622
 2152TIP3   OH228090   0.715   6.625   1.798 -0.4146  0.1042 -0.1898
 2152TIP3    H128091   0.804   6.644   1.826 -0.4056 -0.1503 -0.0450
 2152TIP3    H228092   0.662   6.694   1.837 -0.4160 -0.3048  0.5469
 2153TIP3   OH228093   2.586   6.130   0.536  0.0684 -1.1703  0.0938
 2153TIP3    H128094   2.609   6.150   0.627  1.8873 -1.9547 -0.1582
 2153TIP3    H228095   2.522   6.197   0.512  0.0049 -0.5936  1.7512
 2154TIP3   OH228096   5.090   4.800   6.813  0.3443 -0.8244  0.1941
 2154TIP3    H128097   5.126   4.846   6.737 -1.4469  1.4176  0.5729
 2154TIP3    H228098   5.006   4.843   6.829  0.2460 -1.8190  2.9009
 2155TIP3   OH228099   4.556   4.000   0.305 -0.1121  0.2946  0.3547
 2155TIP3    H128100   4.641   3.985   0.347 -0.0201 -1.0809 -0.2969
 2155TIP3    H228101   4.519   3.913   0.294 -0.2097  0.6118 -2.2937
 2156TIP3   OH228102   2.142   6.193   8.380  0.5566  0.2610 -0.3233
 2156TIP3    H128103   2.099   6.110   8.398  2.4620 -0.6281  0.5022
 2156TIP3    H228104   2.189   6.213   8.461  0.0227  2.2423 -0.4589
 2157TIP3   OH228105   4.484   0.622   1.169 -0.2468 -0.1394 -0.2639
 2157TIP3    H128106   4.418   0.681   1.133  0.0440  0.1953 -0.2504
 2157TIP3    H228107   4.560   0.634   1.112 -0.2931 -0.7383 -0.4545
 2158TIP3   OH228108   6.718   5.410   1.186 -0.6194  0.2419 -0.1248
 2158TIP3    H128109   6.801   5.364   1.175 -0.5822  0.2294  0.1754
 2158TIP3    H228110   6.703   5.454   1.103 -0.2413  0.3615 -0.1328
 2159TIP3   OH228111   4.074   4.095   7.406 -0.4685 -0.1088 -0.1302
 2159TIP3    H128112   4.050   4.144   7.484 -0.9959 -1.1757  0.4000
 2159TIP3    H228113   4.079   4.004   7.435  3.3184 -0.1426 -0.4040
 2160TIP3   OH228114   2.070   0.444   0.482 -0.1347 -0.3830  0.3223
 2160TIP3    H128115   2.105   0.373   0.535  1.6407  1.4322  1.7439
 2160TIP3    H228116   1.995   0.476   0.532  0.6482  0.3764  1.0474
 2161TIP3   OH228117   3.244   3.360   1.356  0.0735  0.5758 -0.0202
 2161TIP3    H128118   3.202   3.420   1.417  1.0746  0.5114  0.7645
 2161TIP3    H228119   3.251   3.409   1.274  0.5122  1.3815  0.4941
 2162TIP3   OH228120   0.906   2.415   2.576  0.1132  0.0684 -0.5015
 2162TIP3    H128121   0.985   2.439   2.527  1.1515  0.5359  1.2800
 2162TIP3    H228122   0.894   2.322   2.559  0.2521  0.2836 -1.8603
 2163TIP3   OH228123   2.856   0.365   1.134  0.0731 -0.2570  0.1764
 2163TIP3    H128124   2.940   0.406   1.114  0.3810 -0.5163  0.9053
 2163TIP3    H228125   2.852   0.363   1.229 -0.4503 -0.8825  0.1479
 2164TIP3   OH228126   6.207   4.926   1.267 -0.0415 -0.0241  0.1264
 2164TIP3    H128127   6.271   4.989   1.301  2.3566 -1.7005 -0.9600
 2164TIP3    H228128   6.124   4.973   1.269  0.9006  1.7888  3.0359
 2165TIP3   OH228129   1.380   2.520   2.310 -0.7032  0.6354 -0.5228
 2165TIP3    H128130   1.356   2.612   2.318 -2.0014  0.4127 -1.5083
 2165TIP3    H228131   1.321   2.485   2.243  1.9151 -0.1451 -2.6401
 2166TIP3   OH228132   6.325   1.050   2.288  0.1471 -0.1191 -0.0094
 2166TIP3    H128133   6.263   1.006   2.230  0.3180  1.7552 -1.7087
 2166TIP3    H228134   6.382   0.980   2.321 -2.6903 -1.9097  1.5268
 2167TIP3   OH228135   2.165   4.279   0.734 -0.1085  0.4867 -0.1833
 2167TIP3    H128136   2.147   4.186   0.730  1.0212  0.2621 -0.4825
 2167TIP3    H228137   2.079   4.321   0.734 -0.6703 -0.5802  1.1564
 2168TIP3   OH228138   6.732   3.511   0.368  0.2216 -0.2548  0.4159
 2168TIP3    H128139   6.697   3.448   0.304  0.4867 -0.5974  0.6030
 2168TIP3    H228140   6.732   3.595   0.322 -0.4264 -0.3358  0.2688
 2169TIP3   OH228141   5.927   6.204   8.091 -0.6853  0.7643  0.1052
 2169TIP3    H128142   5.983   6.276   8.064  0.1363  0.1154  0.0414
 2169TIP3    H228143   5.965   6.174   8.174  0.7322 -1.4007 -1.2230
 2170TIP3   OH228144   1.276   4.627   1.182  0.3395  0.1820 -0.5500
 2170TIP3    H128145   1.309   4.578   1.257  0.4006 -0.4627 -0.9950
 2170TIP3    H228146   1.354   4.665   1.141  0.3667  0.0348 -0.6355
 2171TIP3   OH228147   2.181   3.363   7.940 -0.1223  0.0320  0.5571
 2171TIP3    H128148   2.246   3.301   7.909  0.3519  0.7240  0.1319
 2171TIP3    H228149   2.228   3.446   7.946 -0.4090  0.0879  2.3844
 2172TIP3   OH228150   6.504   5.478   1.760  0.4777  0.3201  0.1950
 2172TIP3    H128151   6.454   5.409   1.805 -0.9755  0.4536 -1.1363
 2172TIP3    H228152   6.455   5.558   1.778  0.6754  0.5875 -0.4398
 2173TIP3   OH228153   3.514   5.681   7.757  0.1793  1.0255 -0.0876
 2173TIP3    H128154   3.600   5.673   7.716 -0.3385  1.2876 -1.2803
 2173TIP3    H228155   3.529   5.663   7.850  1.4762  0.8645 -0.3158
 2174TIP3   OH228156   4.192   3.970   0.514 -0.4885 -0.1377  0.2306
 2174TIP3    H128157   4.242   3.939   0.590 -1.9250 -2.1125  0.4585
 2174TIP3    H228158   4.103   3.985   0.548 -0.8882  0.0115 -0.8385
 2175TIP3   OH228159   6.090   1.262   8.452  0.2608 -0.5354 -0.2322
 2175TIP3    H128160   6.158   1.287   8.389  1.2060  0.0975  0.9972
 2175TIP3    H228161   6.025   1.216   8.399  1.1439 -0.2617 -1.6265
 2176TIP3   OH228162   4.581   2.615   6.282  0.2869 -0.1609 -1.0735
 2176TIP3    H128163   4.610   2.554   6.350  0.3044 -1.3185 -2.0864
 2176TIP3    H228164   4.529   2.561   6.223 -0.1989  0.9519 -1.6848
 2177TIP3   OH228165   2.075   3.377   1.973 -0.2993  0.0286 -0.1537
 2177TIP3    H128166   2.064   3.285   1.947 -0.9712  0.0935 -0.1089
 2177TIP3    H228167   2.012   3.424   1.919 -0.5933  0.3562  0.4703
 2178TIP3   OH228168   5.805   6.666   7.787 -0.4048 -0.2156  0.4140
 2178TIP3    H128169   5.794   6.747   7.737  0.2846 -0.9094 -0.9051
 2178TIP3    H228170   5.852   6.692   7.866  1.9476  0.3519 -1.0779
 2179TIP3   OH228171   5.120   3.955   0.231  0.7380  0.4717  0.1117
 2179TIP3    H128172   5.028   3.981   0.231  0.6943  0.3186  0.1872
 2179TIP3    H228173   5.134   3.915   0.316  1.3025  1.9439  0.7475
 2180TIP3   OH228174   0.780   2.619   2.348 -0.2146 -0.5701  0.0570
 2180TIP3    H128175   0.791   2.542   2.404  0.2097 -0.4495  0.1456
 2180TIP3    H228176   0.850   2.678   2.375 -0.6413 -0.0787  0.1118
 2181TIP3   OH228177   6.436   0.758   0.238 -0.1525  0.1074 -0.1041
 2181TIP3    H128178   6.363   0.757   0.175 -0.5751  0.6974  0.3605
 2181TIP3    H228179   6.508   0.716   0.192 -0.2537  1.1169 -1.2548
 2182TIP3   OH228180   2.114   3.288   1.549 -0.1632 -0.4970  0.4707
 2182TIP3    H128181   2.072   3.210   1.512 -0.2033  0.1433 -0.9060
 2182TIP3    H228182   2.042   3.348   1.568 -0.0705 -0.4749  0.7553
 2183TIP3   OH228183   2.841   6.350   7.261 -0.5263  0.6284  0.6314
 2183TIP3    H128184   2.812   6.440   7.251 -1.1026  0.3663 -0.1593
 2183TIP3    H228185   2.765   6.304   7.297 -0.0713  0.5564  1.5181
 2184TIP3   OH228186   5.213   5.870   8.061 -0.4552  0.3688  0.6692
 2184TIP3    H128187   5.263   5.789   8.060  0.4976  0.9127  1.8652
 2184TIP3    H228188   5.149   5.859   7.991 -0.4363 -1.4489  0.8954
 2185TIP3   OH228189   2.509   0.333   8.540  0.5338 -0.0759  0.0167
 2185TIP3    H128190   2.528   0.426   8.547  1.4009 -0.2680  0.4162
 2185TIP3    H228191   2.499   0.317   8.446 -1.0144  0.6652  0.0303
 2186TIP3   OH228192   0.565   4.819   7.348  0.3293  0.1338 -0.4000
 2186TIP3    H128193   0.474   4.846   7.361 -0.0426 -1.3295  0.2050
 2186TIP3    H228194   0.582   4.834   7.255 -1.4271 -2.1130 -1.1598
 2187TIP3   OH228195   4.174   3.526   8.575 -0.1877 -0.2071 -0.3170
 2187TIP3    H128196   4.139   3.615   8.570  0.4865  0.0357 -1.0277
 2187TIP3    H228197   4.255   3.535   8.625 -0.6527 -0.6080  0.5272
 2188TIP3   OH228198   2.499   1.978   7.927  0.0231 -0.5948  0.0454
 2188TIP3    H128199   2.473   1.896   7.968 -0.0010 -0.0265  1.2003
 2188TIP3    H228200   2.538   2.029   7.998 -0.8460  0.7793 -0.4251
 2189TIP3   OH228201   5.532   3.831   1.326 -0.2135  0.2154 -0.6716
 2189TIP3    H128202   5.474   3.852   1.252 -0.2434 -1.0833 -1.0351
 2189TIP3    H228203   5.479   3.775   1.382  0.7311 -1.1367 -1.0973
 2190TIP3   OH228204   2.500   2.960   8.456  0.0577 -0.4717 -0.0631
 2190TIP3    H128205   2.426   2.930   8.403  0.2911  0.3556 -0.8783
 2190TIP3    H228206   2.506   3.054   8.438  1.5193 -0.5830 -0.2854
 2191TIP3   OH228207   4.665   5.252   1.206 -1.1621  0.8006 -0.1861
 2191TIP3    H128208   4.694   5.245   1.297 -2.2036 -0.4271  0.0757
 2191TIP3    H228209   4.589   5.195   1.200 -2.7552  2.8751 -1.1714
 2192TIP3   OH228210   2.730   2.515   0.261  0.6729 -0.5532 -0.2113
 2192TIP3    H128211   2.725   2.601   0.302  0.5320 -0.8884  0.4848
 2192TIP3    H228212   2.642   2.478   0.270  0.4323 -0.3444 -1.4772
 2193TIP3   OH228213   0.224   3.055   7.962 -0.8574  0.0267 -0.1264
 2193TIP3    H128214   0.153   3.084   8.019 -0.4898 -1.6796  1.2779
 2193TIP3    H228215   0.187   2.982   7.913  0.0145 -1.1978  0.9737
 2194TIP3   OH228216   2.857   0.755   8.637 -0.2141  0.5199  0.1645
 2194TIP3    H128217   2.790   0.793   8.581 -1.5239  0.3016  1.5192
 2194TIP3    H228218   2.924   0.823   8.644  0.5751  0.1422 -2.5352
 2195TIP3   OH228219   2.197   2.167   1.499 -0.4114 -0.1867 -0.4366
 2195TIP3    H128220   2.270   2.201   1.447 -0.4593 -0.3475 -0.6073
 2195TIP3    H228221   2.218   2.193   1.589  0.4411 -1.2233 -0.3140
 2196TIP3   OH228222   3.476   3.832   7.313 -0.3814  0.8179 -0.6685
 2196TIP3    H128223   3.501   3.807   7.224 -1.6281  1.8679 -1.3483
 2196TIP3    H228224   3.391   3.792   7.327 -0.0700  0.4222  0.1770
 2197TIP3   OH228225   1.118   5.985   8.728 -0.0453 -0.3179  0.1496
 2197TIP3    H128226   1.083   5.924   8.793 -1.4829 -0.0737 -0.3648
 2197TIP3    H228227   1.066   5.968   8.649  1.0207  0.0597 -0.6634
 2198TIP3   OH228228   5.945   6.683   7.427 -0.3594 -0.0672 -0.6921
 2198TIP3    H128229   6.010   6.694   7.496 -0.3336 -0.7947 -0.5890
 2198TIP3    H228230   5.989   6.713   7.348 -0.0711 -0.0955 -0.5422
 2199TIP3   OH228231   0.648   1.547   6.636  0.1959  0.2691  0.2091
 2199TIP3    H128232   0.648   1.640   6.659  0.7144 -0.2630  2.6487
 2199TIP3    H228233   0.731   1.514   6.671  1.4125 -0.6310 -3.1141
 2200TIP3   OH228234   4.059   6.127   7.776  0.8322 -0.5101  0.6342
 2200TIP3    H128235   4.127   6.076   7.822  0.7193  0.4358  1.9045
 2200TIP3    H228236   4.058   6.211   7.821  0.9310  0.6210 -1.3570
 2201TIP3   OH228237   2.823   3.213   7.551  0.1683 -0.2572  0.1426
 2201TIP3    H128238   2.905   3.167   7.571 -0.2226 -0.5048  1.2081
 2201TIP3    H228239   2.848   3.276   7.484  1.3035 -0.1256  0.6581
 2202TIP3   OH228240   2.306   1.973   8.200 -0.2584  0.1437  0.5394
 2202TIP3    H128241   2.299   1.877   8.195  2.8021 -0.1362 -0.3903
 2202TIP3    H228242   2.393   1.989   8.235 -1.0335  2.6514  1.5493
 2203TIP3   OH228243   4.717   4.898   7.601 -0.1520 -0.0123 -0.5242
 2203TIP3    H128244   4.698   4.821   7.653 -0.2750  0.1746 -0.2905
 2203TIP3    H228245   4.810   4.890   7.579 -0.0619 -0.0112 -0.1432
 2204TIP3   OH228246   3.637   4.208   7.806 -0.2558 -0.1774 -0.1826
 2204TIP3    H128247   3.658   4.234   7.716  0.8722  0.7808  0.3338
 2204TIP3    H228248   3.587   4.281   7.841 -0.8826 -0.6453 -0.0885
 2205TIP3   OH228249   5.464   3.772   7.476 -0.3543  0.5346 -0.1098
 2205TIP3    H128250   5.512   3.851   7.500  0.2567  0.5260 -1.2769
 2205TIP3    H228251   5.487   3.756   7.385  1.0725 -2.0960  0.6344
 2206TIP3   OH228252   0.220   2.496   7.901  0.0325  0.4326 -0.5993
 2206TIP3    H128253   0.187   2.444   7.975 -2.5444  2.5568 -0.0720
 2206TIP3    H228254   0.288   2.551   7.939 -0.5865  0.8052 -0.0016
 2207TIP3   OH228255   3.757   1.249   7.944 -0.0339  0.6084  0.1184
 2207TIP3    H128256   3.818   1.189   7.988 -0.3825  0.2471  0.1163
 2207TIP3    H228257   3.703   1.284   8.015 -1.0421 -0.4861 -0.0748
 2208TIP3   OH228258   1.185   3.324   0.211  0.1999  0.3367 -0.2878
 2208TIP3    H128259   1.121   3.350   0.144  0.4754  0.8222 -0.3747
 2208TIP3    H228260   1.270   3.342   0.170  0.3665  0.9206  0.3003
 2209TIP3   OH228261   0.241   6.549   1.734 -0.9969 -0.4263 -0.2107
 2209TIP3    H128262   0.204   6.477   1.684 -0.2496 -0.3223 -0.9277
 2209TIP3    H228263   0.171   6.575   1.794 -1.5317 -1.2461 -0.4689
 2210TIP3   OH228264   0.938   1.889   7.305 -0.7309  0.0237 -0.5345
 2210TIP3    H128265   0.851   1.875   7.267  0.2610 -0.0198 -2.9753
 2210TIP3    H228266   0.925   1.961   7.367 -2.8913 -1.4239  0.8747
 2211TIP3   OH228267   6.333   2.710   7.004 -0.1140  0.4619  0.7776
 2211TIP3    H128268   6.301   2.771   7.070 -1.1815 -0.3627  1.0498
 2211TIP3    H228269   6.262   2.647   6.992  1.1027 -1.0035  0.8394
 2212TIP3   OH228270   1.344   0.115   6.848  0.1153  0.6086  0.1283
 2212TIP3    H128271   1.378   0.195   6.809 -1.7168  0.4103 -2.0927
 2212TIP3    H228272   1.348   0.050   6.778 -1.5427 -0.3027  0.8109
 2213TIP3   OH228273   0.564   4.580   8.360  0.6861  0.3355 -0.4166
 2213TIP3    H128274   0.609   4.658   8.394  1.0253 -0.2521  0.5135
 2213TIP3    H228275   0.612   4.558   8.280  0.9765  0.7179 -0.3516
 2214TIP3   OH228276   5.975   1.139   0.535 -0.6170  0.6951 -0.7143
 2214TIP3    H128277   6.040   1.204   0.559 -1.4992  0.9887  1.0404
 2214TIP3    H228278   5.900   1.157   0.592 -1.2612 -1.2260 -0.8619
 2215TIP3   OH228279   1.934   0.709   2.353 -0.3592 -0.4621  0.0250
 2215TIP3    H128280   1.943   0.789   2.301  2.6298 -1.5845 -1.4342
 2215TIP3    H228281   1.997   0.721   2.425 -0.5699 -1.1135  0.3262
 2216TIP3   OH228282   0.073   6.435   0.933 -0.5144  0.4062 -0.5753
 2216TIP3    H128283   0.111   6.474   0.855 -0.4205  2.5826  0.4950
 2216TIP3    H228284   0.112   6.348   0.938  2.3484  1.5874 -0.9371
 2217TIP3   OH228285   4.492   3.544   1.921  0.4956 -0.8989  0.1100
 2217TIP3    H128286   4.486   3.518   2.014  1.6438 -0.4388  0.3186
 2217TIP3    H228287   4.542   3.473   1.880  0.9122 -0.5735  0.0564
 2218TIP3   OH228288   3.092   2.776   6.721 -0.1407 -0.5000  0.1138
 2218TIP3    H128289   3.012   2.818   6.751  0.8389  1.5896 -0.0453
 2218TIP3    H228290   3.162   2.838   6.742  1.5863 -2.6381  1.0611
 2219TIP3   OH228291   4.474   5.060   1.251 -0.6144  0.0915  0.1607
 2219TIP3    H128292   4.396   5.041   1.303  0.5021 -0.4199  1.7316
 2219TIP3    H228293   4.486   4.984   1.195 -1.4803  0.3754 -0.4324
 2220TIP3   OH228294   3.362   3.762   1.468 -0.0526 -0.9202  0.0781
 2220TIP3    H128295   3.418   3.840   1.465  0.1014 -0.9611  1.2474
 2220TIP3    H228296   3.421   3.691   1.494 -0.4519 -1.1675  0.3193
 2221TIP3   OH228297   2.620   2.660   0.019  0.1558  0.2735 -0.1721
 2221TIP3    H128298   2.548   2.657  -0.043 -0.6834  0.4079  0.7708
 2221TIP3    H228299   2.604   2.587   0.079  1.7377 -0.7511 -0.9288
 2222TIP3   OH228300   2.332   2.609   7.449 -0.0339  0.4160 -0.0736
 2222TIP3    H128301   2.305   2.680   7.391 -0.5819  0.6482  0.4554
 2222TIP3    H228302   2.250   2.577   7.487  0.4205  1.0458  1.4820
 2223TIP3   OH228303   0.463   1.454   7.941  0.5366 -1.0852  0.4379
 2223TIP3    H128304   0.466   1.550   7.941  0.6313 -1.0771 -0.3911
 2223TIP3    H228305   0.370   1.433   7.946  0.4290 -0.9172 -0.5158
 2224TIP3   OH228306   3.121   2.505   8.427 -0.2088  0.1760 -0.2705
 2224TIP3    H128307   3.077   2.566   8.487 -0.2334  0.9901 -1.0873
 2224TIP3    H228308   3.057   2.490   8.357  0.0494 -0.2570 -0.4179
 2225TIP3   OH228309   4.744   3.552   2.076  0.4587  0.0283  0.3118
 2225TIP3    H128310   4.733   3.558   2.171 -1.1756 -1.6617  0.3008
 2225TIP3    H228311   4.656   3.563   2.041  1.0692  0.8631 -1.0536
 2226TIP3   OH228312   6.636   5.296   1.498 -0.0951 -0.2553  0.0250
 2226TIP3    H128313   6.661   5.204   1.491 -1.7196 -0.7471  0.1399
 2226TIP3    H228314   6.592   5.302   1.583  0.7765  0.8492  0.4245
 2227TIP3   OH228315   0.961   0.415   2.026 -0.4903 -0.3818 -0.2754
 2227TIP3    H128316   0.967   0.479   1.954 -1.6759 -0.6070 -0.5944
 2227TIP3    H228317   1.016   0.342   1.997  0.8120  0.4381  0.0549
 2228TIP3   OH228318   1.072   3.206   8.792 -0.8225 -0.3372 -0.6649
 2228TIP3    H128319   1.017   3.219   8.715 -0.9141 -0.7088 -0.6660
 2228TIP3    H228320   1.012   3.171   8.858 -1.2324  1.9961  0.2917
 2229TIP3   OH228321   2.544   4.305   1.231  0.1001  0.6460  0.0233
 2229TIP3    H128322   2.586   4.306   1.317  1.3240 -0.3299 -0.5418
 2229TIP3    H228323   2.601   4.357   1.175 -0.2245  0.5392 -0.4180
 2230TIP3   OH228324   3.190   5.552   7.483 -0.2101  0.0495  0.3376
 2230TIP3    H128325   3.255   5.513   7.542 -0.6708  0.5308  1.1850
 2230TIP3    H228326   3.126   5.592   7.541 -0.7866  0.3724 -0.4996
 2231TIP3   OH228327   0.429   6.263   1.096  0.3853 -0.6008 -0.2916
 2231TIP3    H128328   0.486   6.274   1.020  0.2993 -3.1331 -0.7996
 2231TIP3    H228329   0.485   6.284   1.171  0.9467  0.2902 -0.9354
 2232TIP3   OH228330   3.370   2.682   1.113 -0.2955 -0.0142  0.1264
 2232TIP3    H128331   3.300   2.745   1.128  1.4360  2.0003  0.2671
 2232TIP3    H228332   3.397   2.655   1.201 -1.4062 -1.4472  0.0551
 2233TIP3   OH228333   4.266   1.303   8.194  0.0960 -0.4010 -0.2253
 2233TIP3    H128334   4.302   1.230   8.245 -0.8419 -0.6125  0.1624
 2233TIP3    H228335   4.342   1.353   8.167  0.7893 -1.6742 -0.7255
 2234TIP3   OH228336   3.491   0.475   1.219 -0.5147  0.1425 -0.3901
 2234TIP3    H128337   3.554   0.511   1.156 -0.8758  0.1912 -0.7346
 2234TIP3    H228338   3.519   0.384   1.232 -0.9309 -0.1394 -1.3047
 2235TIP3   OH228339   5.794   1.896   2.101 -0.3857 -0.5740  0.4934
 2235TIP3    H128340   5.780   1.845   2.181  0.7217  1.4482  2.0715
 2235TIP3    H228341   5.866   1.852   2.056  0.5830 -0.4207  1.8454
 2236TIP3   OH228342   2.018   0.654   1.459 -0.5758 -0.2892  0.5414
 2236TIP3    H128343   2.104   0.681   1.426 -1.4137  0.1253 -1.4378
 2236TIP3    H228344   1.983   0.597   1.391 -0.4926 -3.3836  2.8583
 2237TIP3   OH228345   6.167   2.687   1.751  0.6199  0.0654 -0.2506
 2237TIP3    H128346   6.234   2.633   1.792  0.4376 -0.2394 -0.3521
 2237TIP3    H228347   6.152   2.646   1.666 -1.7009 -1.5597  0.8329
 2238TIP3   OH228348   5.007   3.746   8.628 -0.1814  0.2467  0.2681
 2238TIP3    H128349   4.919   3.763   8.596  0.2974  0.9577 -0.7151
 2238TIP3    H228350   5.036   3.669   8.578 -0.0619  0.3097  0.2412
 2239TIP3   OH228351   1.151   2.501   0.524  0.7252 -0.4396  0.3073
 2239TIP3    H128352   1.244   2.500   0.544  0.5501 -2.1542  1.1851
 2239TIP3    H228353   1.109   2.528   0.605  0.5147  3.1307 -0.8081
 2240TIP3   OH228354   1.007   3.912   2.389 -0.0830  0.5120  0.7245
 2240TIP3    H128355   0.957   3.993   2.381  0.2100  0.6027 -0.2869
 2240TIP3    H228356   1.097   3.941   2.402  0.4208  0.4062 -2.0511
 2241TIP3   OH228357   3.088   5.011   7.979  0.0534 -0.3070 -0.3485
 2241TIP3    H128358   3.066   4.987   7.889 -1.3106  0.1424 -0.1676
 2241TIP3    H228359   3.014   4.979   8.031  1.2706 -1.4448  0.7677
 2242TIP3   OH228360   1.040   4.476   1.144  0.5853 -0.8964  0.2715
 2242TIP3    H128361   1.078   4.562   1.124  0.8643 -0.2408  3.2636
 2242TIP3    H228362   1.109   4.414   1.121  0.6853 -0.2952 -1.1513
 2243TIP3   OH228363   3.277   3.563   0.230 -0.1680 -0.6070  0.4919
 2243TIP3    H128364   3.372   3.549   0.229  0.2931  1.9315  1.1650
 2243TIP3    H228365   3.249   3.541   0.141  1.9444  3.2560 -1.3897
 2244TIP3   OH228366   3.802   4.688   0.235  0.2892  0.1328 -0.3105
 2244TIP3    H128367   3.709   4.668   0.241  0.1027  1.0152 -0.0107
 2244TIP3    H228368   3.806   4.768   0.182  0.7566  0.8355  0.7468
 2245TIP3   OH228369   1.427   5.640   1.461 -0.7249 -0.2948  0.2612
 2245TIP3    H128370   1.447   5.695   1.537 -1.2188 -1.1281  1.0130
 2245TIP3    H228371   1.484   5.673   1.392 -0.2513  0.4704  0.9999
 2246TIP3   OH228372   3.882   1.387   7.564 -0.1274 -0.3590  0.5456
 2246TIP3    H128373   3.846   1.462   7.612 -0.9337 -0.3314 -0.0737
 2246TIP3    H228374   3.931   1.426   7.492 -1.3632 -0.4139 -0.3535
 2247TIP3   OH228375   3.472   3.446   0.528  0.0087  0.2579  0.0813
 2247TIP3    H128376   3.491   3.521   0.471 -1.1694  0.8471  0.4319
 2247TIP3    H228377   3.378   3.433   0.519  0.0916 -0.7666  0.5552
 2248TIP3   OH228378   6.247   6.721   0.166 -0.2892  0.3118 -0.7243
 2248TIP3    H128379   6.206   6.797   0.207  1.9143  1.6025 -0.7732
 2248TIP3    H228380   6.341   6.739   0.171  0.2378 -1.8766 -1.8010
 2249TIP3   OH228381   4.782   0.139   7.891  0.0688 -0.0336 -1.0457
 2249TIP3    H128382   4.687   0.146   7.898 -0.2080 -2.3569 -1.5734
 2249TIP3    H228383   4.806   0.201   7.822 -0.8833  1.4280 -0.1031
 2250TIP3   OH228384   3.093   0.488   1.084  0.5557 -0.1865 -0.1299
 2250TIP3    H128385   3.097   0.583   1.079  1.4322 -0.1896  0.2679
 2250TIP3    H228386   3.144   0.458   1.008  0.8773 -0.3277  0.1392
 2251TIP3   OH228387   6.423   1.738   7.201 -0.2399 -0.2240  0.5330
 2251TIP3    H128388   6.342   1.689   7.184 -0.6465  0.2184  1.1451
 2251TIP3    H228389   6.481   1.713   7.129  0.0744 -2.6747  1.5326
 2252TIP3   OH228390   5.519   2.134   0.285  0.9684 -0.3046 -0.3005
 2252TIP3    H128391   5.492   2.042   0.294 -0.6992  0.1793 -0.0246
 2252TIP3    H228392   5.487   2.159   0.198  0.4836  0.3049  0.0526
 2253TIP3   OH228393   3.357   3.508   7.979 -0.2429 -0.2365  0.2963
 2253TIP3    H128394   3.416   3.433   7.972  0.3658  0.2355  0.2596
 2253TIP3    H228395   3.405   3.580   7.939  0.7553  1.0597  3.5496
 2254TIP3   OH228396   1.470   1.617   7.708 -0.2291 -0.1513 -0.2840
 2254TIP3    H128397   1.388   1.610   7.659  0.7943 -1.1556 -1.9552
 2254TIP3    H228398   1.521   1.682   7.660  0.6993 -0.9657 -0.4331
 2255TIP3   OH228399   3.732   1.779   8.409  0.7338 -0.0711 -0.4828
 2255TIP3    H128400   3.666   1.766   8.341  0.4171  0.9065 -0.3779
 2255TIP3    H228401   3.760   1.870   8.398  2.1079 -0.4787 -0.5555
 2256TIP3   OH228402   1.336   5.386   1.408 -0.4158  0.1057  0.1442
 2256TIP3    H128403   1.355   5.476   1.431 -1.1761  0.1435  0.6483
 2256TIP3    H228404   1.371   5.376   1.319  1.2391  0.3770  0.7284
 2257TIP3   OH228405   5.033   1.800   8.707  0.6560 -0.3474 -0.0817
 2257TIP3    H128406   5.097   1.851   8.657  0.0494  1.7503  1.1840
 2257TIP3    H228407   5.082   1.723   8.735  1.9529  0.0714 -1.0773
 2258TIP3   OH228408   2.880   6.016   1.298  0.1110 -0.1584 -0.0074
 2258TIP3    H128409   2.787   6.033   1.309  0.0351 -1.1793  1.1420
 2258TIP3    H228410   2.889   5.988   1.206 -0.8687 -0.9638  0.1214
 2259TIP3   OH228411   1.157   6.548   0.927  0.1204 -0.1482  0.2794
 2259TIP3    H128412   1.079   6.495   0.913  0.9680 -1.1250 -0.9603
 2259TIP3    H228413   1.171   6.546   1.022 -2.2063  1.3461  0.7479
 2260TIP3   OH228414   1.552   1.201   8.344  0.2534  0.1645  0.1986
 2260TIP3    H128415   1.556   1.248   8.426 -1.2993  0.2415  0.2620
 2260TIP3    H228416   1.585   1.113   8.365  0.2574  0.3072  0.8025
 2261TIP3   OH228417   5.401   0.846   0.666 -0.1580 -0.1576  0.0220
 2261TIP3    H128418   5.447   0.849   0.750  0.0879  0.7546 -0.1367
 2261TIP3    H228419   5.470   0.829   0.601 -0.1912  0.2403 -0.1149
 2262TIP3   OH228420   1.724   5.346   0.438 -0.2372  0.4078  0.7387
 2262TIP3    H128421   1.792   5.411   0.458  0.4839  0.1961 -0.9000
 2262TIP3    H228422   1.700   5.311   0.524  1.3497  0.8533  1.4127
 2263TIP3   OH228423   5.114   6.540   8.147  0.1633 -0.5131  0.1524
 2263TIP3    H128424   5.092   6.631   8.168  3.2315  0.6616 -1.2278
 2263TIP3    H228425   5.190   6.520   8.202 -1.4518 -2.9396  1.7012
 2264TIP3   OH228426   4.464   5.618   2.463  0.0551 -0.4496 -0.2662
 2264TIP3    H128427   4.480   5.524   2.455  2.6006 -0.1891  0.7672
 2264TIP3    H228428   4.504   5.643   2.546  0.3325  1.7004 -0.9622
 2265TIP3   OH228429   4.433   2.348   0.578  0.0254  0.3253  0.0126
 2265TIP3    H128430   4.463   2.436   0.555 -0.4794  0.8311  1.2277
 2265TIP3    H228431   4.513   2.302   0.603  0.1424  0.8354  0.6047
 2266TIP3   OH228432   1.183   6.598   8.892 -0.3129  0.0514  0.1799
 2266TIP3    H128433   1.129   6.546   8.951 -1.3647  2.8521  1.9254
 2266TIP3    H228434   1.232   6.657   8.950  0.0336  1.6936 -1.6606
 2267TIP3   OH228435   3.612   6.555   1.612  0.1031  0.7413 -0.1220
 2267TIP3    H128436   3.699   6.543   1.649 -0.1485  0.9226  0.5386
 2267TIP3    H228437   3.600   6.650   1.609 -0.2049  0.7123  0.1133
 2268TIP3   OH228438   2.811   1.093   7.665  0.8406 -0.3520  0.7791
 2268TIP3    H128439   2.873   1.164   7.681  0.7295 -0.2252  0.6531
 2268TIP3    H228440   2.782   1.066   7.752  2.0755 -1.3103  0.9225
 2269TIP3   OH228441   1.678   2.695   8.157 -0.7489  0.0315  0.2198
 2269TIP3    H128442   1.690   2.786   8.129  0.6411  0.1049  0.9677
 2269TIP3    H228443   1.588   2.674   8.132 -0.8087  1.3228 -0.7619
 2270TIP3   OH228444   5.163   0.077   0.641  0.3407  0.2511 -0.5482
 2270TIP3    H128445   5.157   0.138   0.714  3.5933  0.5942 -0.4043
 2270TIP3    H228446   5.115  -0.001   0.671 -0.1442  1.1324  1.0908
 2271TIP3   OH228447   0.607   3.702   6.779  0.2473 -0.4610 -0.3159
 2271TIP3    H128448   0.696   3.670   6.761  0.5441 -0.5138  1.1569
 2271TIP3    H228449   0.567   3.633   6.832 -0.0046  0.4166  0.6533
 2272TIP3   OH228450   2.682   0.436   7.938 -0.0637  0.0391  0.0960
 2272TIP3    H128451   2.757   0.496   7.930 -0.8576  1.2094  0.9657
 2272TIP3    H228452   2.658   0.416   7.848  0.5213  0.6628 -0.2128
 2273TIP3   OH228453   5.424   4.608   7.367 -0.6796  0.3160  0.6450
 2273TIP3    H128454   5.457   4.566   7.447  1.7507 -0.4138 -0.6588
 2273TIP3    H228455   5.351   4.552   7.339 -1.7340  0.7149  2.4148
 2274TIP3   OH228456   4.104   0.146   0.959  0.1989  0.2663  0.1964
 2274TIP3    H128457   4.023   0.117   1.002 -0.0146 -0.0252 -0.3776
 2274TIP3    H228458   4.074   0.188   0.878  0.6449 -0.6354 -0.4620
 2275TIP3   OH228459   6.357   3.929   7.657  0.0126 -0.1266  0.2149
 2275TIP3    H128460   6.357   3.888   7.743 -0.0654  0.2461  0.3967
 2275TIP3    H228461   6.311   4.012   7.670  0.1915  0.0322 -0.1363
 2276TIP3   OH228462   6.160   1.055   7.517  0.4051  0.3373 -0.1496
 2276TIP3    H128463   6.255   1.062   7.510  0.3863  0.8657  0.1078
 2276TIP3    H228464   6.145   1.024   7.606  0.4004 -1.2950 -0.6861
 2277TIP3   OH228465   5.050   1.872   1.268  0.1934  0.2794  0.5316
 2277TIP3    H128466   5.128   1.924   1.248 -1.3802  2.6760  0.1922
 2277TIP3    H228467   5.048   1.867   1.363  1.0369 -0.3062  0.5328
 2278TIP3   OH228468   5.550   3.170   6.824 -0.2613  0.2652 -0.0640
 2278TIP3    H128469   5.482   3.103   6.828  0.0559 -0.0103  1.2227
 2278TIP3    H228470   5.536   3.213   6.740 -2.9907  1.1916  0.7376
 2279TIP3   OH228471   5.699   3.724   0.171 -0.7046 -0.2756  0.2482
 2279TIP3    H128472   5.682   3.633   0.147 -1.8160 -0.2770  1.0166
 2279TIP3    H228473   5.744   3.760   0.094 -0.1079 -1.4989 -0.0058
 2280TIP3   OH228474   4.207   3.652   0.202  0.5913 -0.5055 -0.4234
 2280TIP3    H128475   4.280   3.694   0.248 -0.3622  2.5455 -1.4538
 2280TIP3    H228476   4.248   3.610   0.126  1.2390  2.9083 -2.1579
 2281TIP3   OH228477   6.071   2.133   1.488 -0.5748 -0.2200  0.0829
 2281TIP3    H128478   6.055   2.220   1.452  1.6116  0.3059  0.2552
 2281TIP3    H228479   6.049   2.141   1.581 -1.6516 -0.2678 -0.1447
 2282TIP3   OH228480   1.414   3.656   0.777 -0.4770  0.0376 -0.0990
 2282TIP3    H128481   1.358   3.578   0.770  0.9783 -0.9940 -0.6981
 2282TIP3    H228482   1.366   3.715   0.836 -1.4865 -1.4215  0.5951
 2283TIP3   OH228483   2.826   1.977   7.823 -0.1793  0.4111  0.0139
 2283TIP3    H128484   2.906   1.991   7.773 -0.2729  0.8639 -0.0156
 2283TIP3    H228485   2.756   1.981   7.758 -0.1130 -2.2243 -0.3477
 2284TIP3   OH228486   5.772   6.645   8.283 -0.5845  0.7349 -0.4063
 2284TIP3    H128487   5.863   6.648   8.254 -0.7474 -2.2184 -1.6301
 2284TIP3    H228488   5.721   6.646   8.202 -1.4682 -0.0168  0.1180
 2285TIP3   OH228489   3.930   6.751   7.783  0.6298 -0.0843 -0.2462
 2285TIP3    H128490   3.919   6.755   7.688  1.9377  1.0494 -0.3844
 2285TIP3    H228491   3.958   6.839   7.808  0.7244 -0.4781  1.1331
 2286TIP3   OH228492   0.904   1.349   0.296  0.0217 -0.1381  0.4645
 2286TIP3    H128493   0.956   1.269   0.304  0.3046 -0.1331 -1.1268
 2286TIP3    H228494   0.839   1.342   0.366 -0.9234 -2.4966 -0.5373
 2287TIP3   OH228495   1.041   3.823   0.219  0.2797 -0.4521  0.5273
 2287TIP3    H128496   1.047   3.734   0.182  1.5328 -0.2472  0.1860
 2287TIP3    H228497   1.123   3.834   0.267  0.1294  0.5282  0.5728
 2288TIP3   OH228498   2.782   2.561   7.508  0.3757 -0.7218  0.0079
 2288TIP3    H128499   2.744   2.503   7.574  1.3968 -0.6911  0.6575
 2288TIP3    H228500   2.856   2.512   7.473 -0.5484 -0.9988 -1.6151
 2289TIP3   OH228501   6.737   5.953   7.158  0.0518  0.5760  0.0522
 2289TIP3    H128502   6.790   5.923   7.085 -0.5314  1.1743 -0.6261
 2289TIP3    H228503   6.677   6.017   7.120 -0.9275  0.1624  0.8643
 2290TIP3   OH228504   2.829   4.620   8.578 -0.4169 -0.7017  0.2261
 2290TIP3    H128505   2.760   4.638   8.643 -1.2611  0.6309 -0.9752
 2290TIP3    H228506   2.782   4.579   8.505  0.2884 -0.9483 -0.0915
 2291TIP3   OH228507   1.481   6.521   7.476 -0.2926 -0.1389  0.5251
 2291TIP3    H128508   1.545   6.556   7.413 -1.0335  1.3675  0.5749
 2291TIP3    H228509   1.529   6.452   7.521  1.1289  0.5587  0.1609
 2292TIP3   OH228510   5.444   3.454   6.871  0.3159  0.2018 -0.2281
 2292TIP3    H128511   5.366   3.427   6.822  0.4526  1.3947 -1.1531
 2292TIP3    H228512   5.409   3.501   6.947  0.1021 -1.6925  0.9160
 2293TIP3   OH228513   2.510   0.501   2.071  0.4609  0.4363 -0.1102
 2293TIP3    H128514   2.488   0.494   1.978 -0.6847  2.6153 -0.0594
 2293TIP3    H228515   2.587   0.556   2.074 -1.2191  2.9126  0.3038
 2294TIP3   OH228516   3.911   4.735   7.944  0.0571  0.3243  0.4575
 2294TIP3    H128517   3.906   4.640   7.933  3.6550  0.0451 -0.1186
 2294TIP3    H228518   3.952   4.747   8.029 -4.2746  1.6953  2.6570
 2295TIP3   OH228519   0.660   4.054   7.722 -0.4620  0.1264  0.3737
 2295TIP3    H128520   0.702   3.982   7.674  2.0403  1.3108  0.6318
 2295TIP3    H228521   0.671   4.031   7.814 -2.0166 -0.3794  0.4612
 2296TIP3   OH228522   2.437   4.085   0.322  0.6549 -0.2394  0.2733
 2296TIP3    H128523   2.396   4.128   0.396 -1.3677  0.9457 -1.4578
 2296TIP3    H228524   2.442   3.993   0.348 -0.4659  0.0630  1.6766
 2297TIP3   OH228525   0.418   5.155   1.888 -0.6030  0.6441  0.1308
 2297TIP3    H128526   0.503   5.193   1.864 -0.0433 -1.4816 -1.6063
 2297TIP3    H228527   0.378   5.131   1.804 -1.7866 -0.7025  1.0387
 2298TIP3   OH228528   5.243   6.429   8.577 -0.4960  0.1805 -0.2307
 2298TIP3    H128529   5.176   6.393   8.635  0.0302 -0.8758 -0.2361
 2298TIP3    H228530   5.201   6.502   8.533 -1.2421  0.3179  0.6871
 2299TIP3   OH228531   6.242   6.011   8.473 -0.1520 -0.5154 -0.1955
 2299TIP3    H128532   6.287   5.928   8.457  0.8583 -0.0014 -0.1407
 2299TIP3    H228533   6.299   6.057   8.535 -1.5953 -0.5207  1.2170
 2300TIP3   OH228534   1.096   6.735   6.666 -0.5776  0.1894  0.0564
 2300TIP3    H128535   1.118   6.699   6.752  0.6506 -1.0468 -0.7254
 2300TIP3    H228536   1.181   6.743   6.622 -1.0065  2.3637 -0.4839
 2301TIP3   OH228537   5.877   0.940   1.756 -0.0482 -0.5955  0.0330
 2301TIP3    H128538   5.821   0.897   1.692  1.1069 -1.8628 -0.1814
 2301TIP3    H228539   5.945   0.875   1.775  1.7634  1.1231 -0.2863
 2302TIP3   OH228540   1.827   3.253   7.434 -0.3946 -0.1908  0.0561
 2302TIP3    H128541   1.915   3.290   7.429 -0.7607  0.5929 -0.8261
 2302TIP3    H228542   1.805   3.231   7.344 -1.9540  1.7461 -0.1137
 2303TIP3   OH228543   6.331   4.271   0.505  0.3279  0.8513  0.3780
 2303TIP3    H128544   6.277   4.247   0.430 -1.0483 -0.1432  1.6039
 2303TIP3    H228545   6.288   4.349   0.541 -2.4503 -1.6496  3.1846
 2304TIP3   OH228546   5.861   2.719   1.944 -0.3087  0.0726 -0.1734
 2304TIP3    H128547   5.902   2.675   1.870 -2.4645  2.3293 -2.9840
 2304TIP3    H228548   5.933   2.740   2.003  1.8237 -0.4192 -2.4332
 2305TIP3   OH228549   1.641   6.564   1.281  0.2862 -0.1207 -0.1489
 2305TIP3    H128550   1.562   6.581   1.331  0.7945 -0.1804  0.6922
 2305TIP3    H228551   1.701   6.521   1.343  0.3521 -1.6854 -1.2332
 2306TIP3   OH228552   4.620   3.247   8.722  0.2194  0.4151 -0.1895
 2306TIP3    H128553   4.709   3.241   8.687  0.4231 -1.3579  0.5077
 2306TIP3    H228554   4.563   3.241   8.645  0.6910 -1.2625 -0.4450
 2307TIP3   OH228555   5.695   5.865   0.709  0.1690 -0.3405 -0.1330
 2307TIP3    H128556   5.756   5.904   0.646  1.2097 -0.6661  0.6396
 2307TIP3    H228557   5.670   5.782   0.669 -0.3336  0.1096 -0.7757
 2308TIP3   OH228558   6.447   1.772   0.745 -0.4026 -0.1404  0.3750
 2308TIP3    H128559   6.359   1.745   0.718 -0.6807  1.4428 -0.4392
 2308TIP3    H228560   6.500   1.763   0.666 -0.6369  2.0998 -0.1052
 2309TIP3   OH228561   1.666   4.159   8.387  0.3183  0.1981 -0.0433
 2309TIP3    H128562   1.629   4.198   8.466 -1.5505 -1.2933 -0.1388
 2309TIP3    H228563   1.689   4.234   8.332  1.9503  1.2808  1.9769
 2310TIP3   OH228564   4.623   4.021   8.332 -0.3782  0.0978  0.3267
 2310TIP3    H128565   4.557   4.090   8.337 -0.9876 -0.4642  0.3371
 2310TIP3    H228566   4.696   4.060   8.284 -0.1498  1.1642  1.4727
 2311TIP3   OH228567   3.506   2.443   7.258  0.5881  0.1492 -0.3191
 2311TIP3    H128568   3.556   2.513   7.214  1.3494  0.7557  1.4299
 2311TIP3    H228569   3.561   2.366   7.250  0.4725  0.1179 -0.8776
 2312TIP3   OH228570   3.184   6.547   7.264  0.2735 -0.4968 -0.5778
 2312TIP3    H128571   3.139   6.485   7.322 -0.5301 -1.0245 -1.7143
 2312TIP3    H228572   3.172   6.632   7.306  0.3511 -0.9479  0.3952
 2313TIP3   OH228573   1.169   3.765   0.915  0.3302 -1.0459  0.1051
 2313TIP3    H128574   1.105   3.834   0.898  1.9220  0.5436  0.3141
 2313TIP3    H228575   1.181   3.766   1.010  0.8819 -1.1036  0.0429
 2314TIP3   OH228576   4.419   4.843   8.195  0.4753 -0.6631 -0.5493
 2314TIP3    H128577   4.338   4.793   8.183 -0.7768  0.7474  1.2860
 2314TIP3    H228578   4.396   4.931   8.165  0.8296  0.0907  1.2642
 2315TIP3   OH228579   5.639   4.962   6.994 -0.3660 -0.4036 -0.2443
 2315TIP3    H128580   5.709   5.008   7.040 -0.3930  1.2556 -1.7620
 2315TIP3    H228581   5.685   4.901   6.936 -0.2783 -1.1539  0.6017
 2316TIP3   OH228582   1.362   5.535   1.835  0.0683  0.2164  0.0625
 2316TIP3    H128583   1.340   5.581   1.754 -1.4580 -0.9774 -0.2549
 2316TIP3    H228584   1.281   5.536   1.886  0.4535 -0.6989  0.7258
 2317TIP3   OH228585   5.306   4.841   0.265 -0.1289  0.2232  0.1887
 2317TIP3    H128586   5.305   4.935   0.244  1.3617  0.7503  2.1143
 2317TIP3    H228587   5.229   4.829   0.321 -1.0632 -0.0245 -1.1077
 2318TIP3   OH228588   1.098   1.538   0.156  0.1609 -0.2264  0.1001
 2318TIP3    H128589   1.021   1.556   0.101 -0.5782 -1.6093  0.6251
 2318TIP3    H228590   1.080   1.452   0.194  1.6658 -0.2580  0.7917
 2319TIP3   OH228591   1.478   5.584   8.580  0.2580 -0.1810 -0.3638
 2319TIP3    H128592   1.548   5.578   8.646 -0.9494 -2.4937  0.8234
 2319TIP3    H228593   1.397   5.587   8.631 -0.6920 -1.6293 -1.6988
 2320TIP3   OH228594   0.614   5.035   7.678  0.2066 -0.1623 -0.4807
 2320TIP3    H128595   0.659   5.082   7.749  0.3543 -0.8603 -0.1108
 2320TIP3    H228596   0.534   5.086   7.664 -0.1720 -0.3988  0.6778
 2321TIP3   OH228597   6.391   2.788   6.715 -0.0394 -0.9300 -0.5998
 2321TIP3    H128598   6.375   2.753   6.802  1.1654 -0.9509 -0.3728
 2321TIP3    H228599   6.486   2.803   6.711 -0.5280  4.0380 -0.0066
 2322TIP3   OH228600   1.748   3.384   2.775  0.1512 -0.2372 -0.5023
 2322TIP3    H128601   1.728   3.307   2.723  0.2438 -0.3559 -0.3633
 2322TIP3    H228602   1.839   3.404   2.754 -0.5599  1.3372 -2.4771
 2323TIP3   OH228603   2.293   5.836   1.591  0.5000  0.4755  0.0990
 2323TIP3    H128604   2.232   5.884   1.647 -0.3439 -1.4031  0.8960
 2323TIP3    H228605   2.289   5.746   1.623 -0.2809 -0.7898 -3.1587
 2324TIP3   OH228606   3.502   2.390   1.057  0.4113 -0.1180  0.1559
 2324TIP3    H128607   3.534   2.321   1.115 -0.6188  1.2852  2.5513
 2324TIP3    H228608   3.545   2.470   1.088  0.6043  0.5722 -1.7249
 2325TIP3   OH228609   1.709   2.979   8.469 -0.5415  0.5433  0.0197
 2325TIP3    H128610   1.669   2.896   8.445  2.4628 -1.1595  0.3361
 2325TIP3    H228611   1.706   3.031   8.389 -0.8241 -0.6076 -0.7411
 2326TIP3   OH228612   6.357   1.967   8.126 -0.3055  0.2532  0.2436
 2326TIP3    H128613   6.329   1.886   8.168 -1.7856  0.2525 -0.6717
 2326TIP3    H228614   6.432   1.941   8.072 -0.2688 -0.3417  0.5761
 2327TIP3   OH228615   3.734   4.932   8.543 -0.9004  0.0660  0.2670
 2327TIP3    H128616   3.651   4.889   8.521 -1.2263  0.9599 -0.3067
 2327TIP3    H228617   3.740   5.005   8.482  2.0374 -1.9874 -2.2335
 2328TIP3   OH228618   0.010   5.844   1.223 -0.4631  0.2677 -0.3549
 2328TIP3    H128619   0.007   5.925   1.171 -3.4433  0.3973 -0.1170
 2328TIP3    H228620  -0.045   5.782   1.175 -1.5119 -0.3104  1.4980
 2329TIP3   OH228621   1.587   3.544   8.611  0.0931  0.4481  0.0013
 2329TIP3    H128622   1.513   3.517   8.556  0.3454  0.2053 -0.2223
 2329TIP3    H228623   1.552   3.543   8.700 -0.0915  0.0366 -0.0721
 2330TIP3   OH228624   2.122   2.339   8.437 -0.2136 -0.3479 -0.3200
 2330TIP3    H128625   2.131   2.362   8.529 -1.0479  1.4072 -0.6408
 2330TIP3    H228626   2.212   2.332   8.405  0.0877  0.6404  0.2628
 2331TIP3   OH228627   2.353   6.737   0.032 -0.2797 -0.3097 -0.2244
 2331TIP3    H128628   2.366   6.805  -0.035  2.0381 -0.7554 -0.3104
 2331TIP3    H228629   2.396   6.660  -0.005  2.3330 -0.2127  2.2794
 2332TIP3   OH228630   0.293   2.708   1.804 -0.1473 -0.3056 -0.5018
 2332TIP3    H128631   0.358   2.644   1.833 -2.0352 -0.8822  2.9304
 2332TIP3    H228632   0.226   2.657   1.760 -0.6707 -0.4237  0.4223
 2333TIP3   OH228633   3.025   1.615   1.031  0.0662 -0.0343 -0.0348
 2333TIP3    H128634   3.015   1.527   1.067  2.3319 -0.0957  0.6214
 2333TIP3    H228635   3.119   1.632   1.035 -0.0776  1.6437 -2.0393
 2334TIP3   OH228636   4.712   3.755   0.087  0.7487  0.0075 -0.1588
 2334TIP3    H128637   4.793   3.720   0.051  0.5767 -0.6886  0.1164
 2334TIP3    H228638   4.655   3.678   0.099 -0.1826  0.5504 -0.9297
 2335TIP3   OH228639   0.173   4.811   7.061  0.7482 -0.0086  0.6413
 2335TIP3    H128640   0.108   4.875   7.091  0.6240  0.0349  0.2851
 2335TIP3    H228641   0.252   4.863   7.046 -0.1523  0.6749 -2.5955
 2336TIP3   OH228642   0.138   4.619   0.586  0.3384 -0.3300  0.0839
 2336TIP3    H128643   0.154   4.704   0.545 -1.9588  1.1286  1.9535
 2336TIP3    H228644   0.225   4.590   0.615  1.4018  0.5771 -1.9594
 2337TIP3   OH228645   3.665   1.335   8.212 -0.7223 -0.6029 -0.2690
 2337TIP3    H128646   3.629   1.283   8.284  1.5844 -0.5779  1.0029
 2337TIP3    H228647   3.715   1.404   8.254 -1.7093  1.2416 -1.9469
 2338TIP3   OH228648   6.665   6.212   6.823 -0.3458  0.0376 -0.1353
 2338TIP3    H128649   6.598   6.248   6.882 -0.3087  0.7089 -0.4841
 2338TIP3    H228650   6.646   6.254   6.739 -0.3035 -0.7911 -0.5622
 2339TIP3   OH228651   4.661   1.499   7.459 -0.5204 -0.0253 -0.2409
 2339TIP3    H128652   4.588   1.554   7.430  0.4290  1.0604 -0.6303
 2339TIP3    H228653   4.620   1.416   7.483 -1.7249  0.0585 -1.8383
 2340TIP3   OH228654   6.807   6.519   1.204  0.6065 -0.7040 -0.1832
 2340TIP3    H128655   6.775   6.437   1.243 -0.5630 -0.0311  0.3238
 2340TIP3    H228656   6.788   6.511   1.111 -0.2353 -0.6908 -0.0168
 2341TIP3   OH228657   1.767   3.448   6.918 -0.2039 -0.3850  0.4865
 2341TIP3    H128658   1.859   3.471   6.921 -0.5947  1.4676  0.0193
 2341TIP3    H228659   1.763   3.371   6.861  0.9475  0.2019 -0.4335
 2342TIP3   OH228660   4.184   1.310   7.881  0.2757 -0.1401 -0.2709
 2342TIP3    H128661   4.238   1.326   7.959  1.2890 -0.5266 -0.8729
 2342TIP3    H228662   4.230   1.355   7.811 -0.5343  0.0457 -0.6976
 2343TIP3   OH228663   3.884   3.167   2.367 -0.3158 -0.4652 -0.3400
 2343TIP3    H128664   3.865   3.165   2.274  1.3088 -1.1138 -0.6888
 2343TIP3    H228665   3.862   3.079   2.398 -0.7627 -0.2799 -0.1157
 2344TIP3   OH228666   3.456   2.235   0.381  0.4281 -0.1038 -0.1029
 2344TIP3    H128667   3.524   2.207   0.319  0.8258 -1.6218  0.9547
 2344TIP3    H228668   3.443   2.328   0.362  0.8402 -0.4113 -2.1494
 2345TIP3   OH228669   1.753   3.993   1.662 -0.1900  0.7240 -0.3669
 2345TIP3    H128670   1.822   3.974   1.726  0.7144  2.0383 -0.8944
 2345TIP3    H228671   1.713   4.074   1.693 -2.9412 -1.0539  1.0454
 2346TIP3   OH228672   0.703   3.598   7.560  0.0782  0.0538  0.2145
 2346TIP3    H128673   0.789   3.580   7.599  0.2340 -0.3236 -0.2847
 2346TIP3    H228674   0.698   3.694   7.556  0.8544  0.0731 -0.5568
 2347TIP3   OH228675   4.244   5.273   8.484 -0.5266  0.0884 -0.0693
 2347TIP3    H128676   4.253   5.343   8.419 -0.2635  1.3970  1.3273
 2347TIP3    H228677   4.181   5.306   8.547 -1.2133 -1.3998  0.0810
 2348TIP3   OH228678   2.914   3.112   0.253  0.4266 -0.0122  0.0196
 2348TIP3    H128679   2.858   3.034   0.251  0.1185  0.1439 -3.4615
 2348TIP3    H228680   2.996   3.084   0.212  0.7123  1.1920 -0.2647
 2349TIP3   OH228681   1.050   2.759   0.031  0.0051  0.1524 -0.0645
 2349TIP3    H128682   1.099   2.712   0.098 -0.6236 -0.7565 -0.2238
 2349TIP3    H228683   1.015   2.836   0.076 -0.0105 -0.1963  0.5244
 2350TIP3   OH228684   0.237   1.261   8.055 -0.4229  0.9311 -0.1153
 2350TIP3    H128685   0.173   1.250   8.125 -0.7846  1.2800 -0.3857
 2350TIP3    H228686   0.289   1.181   8.057  1.7618  2.2403  2.7323
 2351TIP3   OH228687   1.159   6.110   1.358  0.1750 -0.1578  0.0158
 2351TIP3    H128688   1.077   6.081   1.398 -0.2053  0.5888 -0.1941
 2351TIP3    H228689   1.227   6.075   1.414 -0.3503  1.3657  1.7023
 2352TIP3   OH228690   0.889   1.976   2.287 -0.2925  0.3365 -0.4972
 2352TIP3    H128691   0.796   1.959   2.270 -0.7550  1.9049  0.2257
 2352TIP3    H228692   0.928   1.890   2.299 -1.7363 -0.3394 -0.4879
 2353TIP3   OH228693   5.894   5.251   0.308  0.0669  0.0676  0.1985
 2353TIP3    H128694   5.956   5.249   0.381  0.8863 -0.9864 -0.4899
 2353TIP3    H228695   5.887   5.159   0.281 -1.3305  0.2503 -0.1426
 2354TIP3   OH228696   0.657   4.322   0.625 -0.2511 -0.6695  0.0686
 2354TIP3    H128697   0.632   4.319   0.533 -0.1218 -2.2771  0.0430
 2354TIP3    H228698   0.746   4.357   0.625 -0.5835  0.1778 -0.3300
 2355TIP3   OH228699   0.327   2.062   0.885  0.0454 -0.3755  0.1746
 2355TIP3    H128700   0.283   2.036   0.966 -0.1356 -0.4391  0.0559
 2355TIP3    H228701   0.285   2.010   0.817 -0.6144  0.5153 -0.1267
 2356TIP3   OH228702   3.243   1.383   8.673  0.6539 -0.3369 -0.1573
 2356TIP3    H128703   3.289   1.399   8.590  0.3002  1.3912 -0.0664
 2356TIP3    H228704   3.293   1.434   8.738 -0.8763  0.9402  0.0797
 2357TIP3   OH228705   0.819   2.690   0.260  0.3510  0.2259 -0.2049
 2357TIP3    H128706   0.730   2.725   0.266  0.6657  1.2377 -1.2671
 2357TIP3    H228707   0.872   2.763   0.229  1.6458 -0.2506  0.7922
 2358TIP3   OH228708   1.580   0.479   8.464 -1.0013 -0.2618  0.5227
 2358TIP3    H128709   1.653   0.418   8.475  0.4283  1.3235  0.2544
 2358TIP3    H228710   1.533   0.446   8.388  0.6603 -0.1902 -0.5947
 2359TIP3   OH228711   6.028   2.096   8.031 -0.0892  0.5847  0.3495
 2359TIP3    H128712   6.045   2.086   8.125 -1.0900 -1.2937  0.3821
 2359TIP3    H228713   6.111   2.074   7.989  0.4951  1.8878  0.7876
 2360TIP3   OH228714   4.153   5.850   2.361  0.0674 -0.2603 -0.2249
 2360TIP3    H128715   4.241   5.874   2.388  0.1421 -0.0961 -0.6104
 2360TIP3    H228716   4.109   5.934   2.345 -0.5185 -0.2914  1.0612
 2361TIP3   OH228717   6.047   5.014   0.865 -0.4040 -0.2098 -0.1644
 2361TIP3    H128718   6.071   5.093   0.913  0.5302 -0.1969 -0.6346
 2361TIP3    H228719   6.050   4.944   0.931  0.0049 -0.0593 -0.0250
 2362TIP3   OH228720   4.277   5.891   6.862 -0.0602 -0.4460  0.1058
 2362TIP3    H128721   4.230   5.879   6.780  3.4843  0.7130 -2.3236
 2362TIP3    H228722   4.239   5.971   6.900 -0.1151  0.4668 -1.7501
 2363TIP3   OH228723   3.800   2.718   1.965 -0.1964 -0.1242  0.0986
 2363TIP3    H128724   3.827   2.628   1.984 -1.4798 -0.4040  0.7476
 2363TIP3    H228725   3.819   2.766   2.046  1.0614  0.3408 -0.4595
 2364TIP3   OH228726   6.647   6.594   0.225 -0.0125 -0.4457  0.0624
 2364TIP3    H128727   6.650   6.519   0.284 -1.9971 -0.0632  0.7191
 2364TIP3    H228728   6.626   6.556   0.139 -1.9133 -0.6412  0.5564
 2365TIP3   OH228729   0.130   5.666   8.791  0.4066  0.0311  0.5292
 2365TIP3    H128730   0.101   5.585   8.833  0.6994 -0.0196  0.6341
 2365TIP3    H228731   0.164   5.639   8.706  0.7857  0.0072  0.6882
 2366TIP3   OH228732   4.773   2.878   0.513 -0.5102  0.3803 -0.1964
 2366TIP3    H128733   4.731   2.868   0.427  0.7117 -0.3825 -0.7274
 2366TIP3    H228734   4.768   2.973   0.530 -1.6692  0.4219 -0.6090
 2367TIP3   OH228735   4.518   1.812   1.109  0.1195  0.5670 -0.4860
 2367TIP3    H128736   4.462   1.886   1.131  0.8301  1.5818 -1.9028
 2367TIP3    H228737   4.551   1.832   1.021  2.9210  0.1949  0.3796
 2368TIP3   OH228738   0.075   1.589   7.079 -0.0646  0.1587 -0.0339
 2368TIP3    H128739   0.039   1.554   7.160  0.2762  0.4388  0.2397
 2368TIP3    H228740   0.051   1.524   7.012  1.8181 -1.3548  0.6902
 2369TIP3   OH228741   5.109   6.775   1.060 -0.3426  0.0218  0.7743
 2369TIP3    H128742   5.109   6.845   1.125  4.1734 -0.7526  1.9604
 2369TIP3    H228743   5.092   6.695   1.111 -0.0182 -0.2601  0.4480
 2370TIP3   OH228744   4.022   1.319   7.281  0.6912  0.1929  0.1600
 2370TIP3    H128745   4.013   1.387   7.215  1.1621 -0.5715 -0.7245
 2370TIP3    H228746   4.115   1.321   7.305  0.6297  0.1196  0.4127
 2371TIP3   OH228747   1.849   0.646   0.268 -0.2809  0.2037 -0.0251
 2371TIP3    H128748   1.857   0.670   0.360 -1.9328 -1.6154  0.6626
 2371TIP3    H228749   1.912   0.574   0.257 -0.5021  0.0268 -0.1463
 2372TIP3   OH228750   0.631   2.893   2.006 -0.3335  0.1492 -0.0635
 2372TIP3    H128751   0.601   2.824   2.064 -0.1935  0.8743  0.9001
 2372TIP3    H228752   0.650   2.849   1.923 -2.1572 -0.6413 -0.1040
 2373TIP3   OH228753   1.341   1.120   1.067 -0.0073  0.1934  0.0397
 2373TIP3    H128754   1.362   1.160   0.983  0.5362 -0.5056 -0.1671
 2373TIP3    H228755   1.408   1.154   1.127  0.3729 -0.2882 -0.1054
 2374TIP3   OH228756   5.173   5.732   7.489  0.2116 -0.2012 -0.7414
 2374TIP3    H128757   5.254   5.762   7.448  1.1451 -0.3820  0.8752
 2374TIP3    H228758   5.200   5.660   7.545 -1.2996 -1.1312 -1.1649
 2375TIP3   OH228759   0.290   2.735   6.739 -0.4488  0.3439 -0.3092
 2375TIP3    H128760   0.230   2.806   6.718 -0.0453  0.9528  0.5194
 2375TIP3    H228761   0.296   2.736   6.835  0.8254  0.2592 -0.3695
 2376TIP3   OH228762   6.344   6.301   7.753 -0.1506 -0.0239  0.3766
 2376TIP3    H128763   6.382   6.323   7.668 -1.2933 -1.4304 -0.5468
 2376TIP3    H228764   6.387   6.219   7.778 -0.3890 -0.0296  0.7775
 2377TIP3   OH228765   4.838   5.753   6.662 -0.1456 -0.6757 -0.1138
 2377TIP3    H128766   4.895   5.676   6.663  0.4096 -0.2684  0.6748
 2377TIP3    H228767   4.778   5.738   6.588 -0.4452 -2.1551  0.3919
 2378TIP3   OH228768   4.965   1.967   2.559  0.3278  0.4813 -0.8937
 2378TIP3    H128769   4.880   1.980   2.601  1.1588 -0.4562  1.2144
 2378TIP3    H228770   5.014   2.047   2.579  1.0563 -0.3537  0.9009
 2379TIP3   OH228771   2.066   0.484   7.065 -0.5892  0.0955  0.7256
 2379TIP3    H128772   2.045   0.419   7.133 -1.0416 -1.2382 -0.6410
 2379TIP3    H228773   2.139   0.445   7.017  0.0320  1.2414  0.7123
 2380TIP3   OH228774   6.499   4.376   1.989  0.6408 -0.1743  0.1461
 2380TIP3    H128775   6.428   4.440   1.977  0.3119 -0.7415 -1.0485
 2380TIP3    H228776   6.458   4.304   2.036  0.4514 -0.4248 -0.3889
 2381TIP3   OH228777   3.997   0.533   7.398 -0.6984 -0.4060  0.1852
 2381TIP3    H128778   3.905   0.522   7.374 -0.9030  0.4172  0.5610
 2381TIP3    H228779   4.035   0.579   7.323 -0.8594  0.2802  0.5188
 2382TIP3   OH228780   6.418   4.183   1.565 -0.1998  0.6272  0.5536
 2382TIP3    H128781   6.452   4.167   1.477  1.0977  1.9708  0.7691
 2382TIP3    H228782   6.330   4.145   1.563  0.1308 -0.1785 -1.0262
 2383TIP3   OH228783   0.827   0.037   2.357  0.8184  0.3690 -0.3346
 2383TIP3    H128784   0.879  -0.038   2.385  1.0615 -0.4908 -2.8802
 2383TIP3    H228785   0.776   0.060   2.435  3.8717  0.3695  1.8615
 2384TIP3   OH228786   2.703   4.632   2.092  0.4880  0.3572 -0.0473
 2384TIP3    H128787   2.663   4.717   2.110 -0.3267  0.0281 -0.2958
 2384TIP3    H228788   2.726   4.599   2.179  0.3669  0.6165  0.0868
 2385TIP3   OH228789   0.121   2.148   2.001  0.1621 -0.2299  0.1943
 2385TIP3    H128790   0.090   2.086   2.067  0.4744 -0.3946  0.1878
 2385TIP3    H228791   0.147   2.225   2.052 -1.0222  0.2300  0.1310
 2386TIP3   OH228792   4.287   5.148   8.799  0.4645  0.5781 -0.3547
 2386TIP3    H128793   4.240   5.215   8.749 -0.4503  0.8147  0.7973
 2386TIP3    H228794   4.379   5.168   8.784  0.2166  0.8720 -1.6310
 2387TIP3   OH228795   5.521   4.743   1.802  1.0731 -0.2408  0.3252
 2387TIP3    H128796   5.570   4.680   1.854  1.0647 -0.0333  0.5832
 2387TIP3    H228797   5.580   4.768   1.732  1.6839  0.7255  1.1695
 2388TIP3   OH228798   2.694   5.099   0.435 -0.0685  0.8460  0.0956
 2388TIP3    H128799   2.784   5.091   0.402  0.0513 -0.0896  0.6295
 2388TIP3    H228800   2.639   5.065   0.364  0.1352 -0.4022  0.5198
 2389TIP3   OH228801   0.248   4.524   1.585 -0.3866  0.5221 -0.2023
 2389TIP3    H128802   0.288   4.437   1.593  0.8996  1.1887  1.0208
 2389TIP3    H228803   0.277   4.556   1.500  0.7790  0.5308  0.1806
 2390TIP3   OH228804   2.229   1.355   0.498 -0.0785 -0.0710 -0.1659
 2390TIP3    H128805   2.320   1.380   0.512  0.3048 -0.6131 -1.5511
 2390TIP3    H228806   2.181   1.437   0.500  0.7635  0.5039 -1.6417
 2391TIP3   OH228807   2.747   6.617   8.539  0.0357 -0.0637 -0.0367
 2391TIP3    H128808   2.657   6.621   8.572  0.4768  0.7118  1.1086
 2391TIP3    H228809   2.799   6.586   8.612  0.9572  1.2093 -0.1051
 2392TIP3   OH228810   0.890   6.440   7.997 -0.1449  0.3946 -0.1367
 2392TIP3    H128811   0.825   6.450   7.927 -0.8018  0.3069  0.4442
 2392TIP3    H228812   0.877   6.351   8.029  0.1518  0.4311  0.0887
 2393TIP3   OH228813   6.364   2.085   1.329  0.0353 -0.3485 -0.4201
 2393TIP3    H128814   6.418   2.030   1.272  1.8484 -0.2785  1.1452
 2393TIP3    H228815   6.313   2.023   1.380 -0.4987 -0.4507 -1.0627
 2394TIP3   OH228816   5.613   5.274   0.902 -0.2770  0.5946 -0.3699
 2394TIP3    H128817   5.591   5.363   0.875 -0.8114  0.9132  1.0469
 2394TIP3    H228818   5.661   5.285   0.983 -1.2338 -0.4485  0.3677
 2395TIP3   OH228819   1.188   4.298   1.768  0.4708  0.2471 -0.0839
 2395TIP3    H128820   1.194   4.386   1.807 -0.9745  1.2662 -1.9872
 2395TIP3    H228821   1.141   4.246   1.832 -0.8578  1.5626  0.0730
 2396TIP3   OH228822   2.646   4.502   8.385  0.1447 -0.1413 -0.8930
 2396TIP3    H128823   2.616   4.413   8.401 -2.9361  0.9514  0.1809
 2396TIP3    H228824   2.595   4.532   8.310  0.5997  0.9736 -0.7860
 2397TIP3   OH228825   6.111   3.369   0.313 -0.9855  0.1887  0.1530
 2397TIP3    H128826   6.064   3.404   0.238 -1.5550 -1.0734 -0.0939
 2397TIP3    H228827   6.049   3.312   0.358 -0.2814 -0.0289  0.9002
 2398TIP3   OH228828   5.164   2.093   0.273  0.1742  0.0988 -0.2127
 2398TIP3    H128829   5.199   2.125   0.190 -0.4858  3.1037  0.5502
 2398TIP3    H228830   5.069   2.089   0.259 -0.2235  3.0451  1.0188
 2399TIP3   OH228831   1.379   1.751   7.982  0.1918  0.0153 -0.2176
 2399TIP3    H128832   1.376   1.693   7.905  1.0600 -0.3027 -0.0282
 2399TIP3    H228833   1.375   1.691   8.057  2.0067  0.1037 -0.0132
 2400TIP3   OH228834   2.417   5.359   0.342  0.1959  0.0141  0.2884
 2400TIP3    H128835   2.467   5.420   0.288 -1.6634  1.0597 -0.3411
 2400TIP3    H228836   2.399   5.285   0.284 -2.0622  1.2713 -0.7308
 2401TIP3   OH228837   1.638   6.100   1.023  0.0508  0.2150 -0.3126
 2401TIP3    H128838   1.650   6.191   0.996  0.7606  1.0420  2.4304
 2401TIP3    H228839   1.552   6.099   1.066 -0.3131 -0.6236 -1.0407
 2402TIP3   OH228840   1.378   5.136   2.045  0.0938 -0.2052  0.1564
 2402TIP3    H128841   1.299   5.159   1.996  0.0456 -0.3152  0.1821
 2402TIP3    H228842   1.397   5.214   2.099  0.5924  0.2182 -0.6085
 2403TIP3   OH228843   1.051   0.184   6.537 -0.1358  0.1279 -0.3262
 2403TIP3    H128844   1.122   0.244   6.517 -0.5846  2.1543  3.2652
 2403TIP3    H228845   1.088   0.123   6.601 -1.0581 -0.1616 -0.0531
 2404TIP3   OH228846   1.508   2.332   8.567  0.0691  0.1992 -0.5085
 2404TIP3    H128847   1.568   2.407   8.569  0.7244 -0.3100  2.3943
 2404TIP3    H228848   1.423   2.370   8.542  0.4954  1.8430  0.3885
 2405TIP3   OH228849   4.719   6.775   2.339  0.3423 -0.9378 -0.0111
 2405TIP3    H128850   4.787   6.720   2.300  0.1278 -0.2876 -1.3682
 2405TIP3    H228851   4.649   6.778   2.273  0.9088  2.0367 -0.6291
 2406TIP3   OH228852   3.517   1.276   6.922 -0.5162 -0.6868  0.2729
 2406TIP3    H128853   3.503   1.276   7.017 -1.2974  0.5865  0.1743
 2406TIP3    H228854   3.606   1.311   6.911 -2.2502  4.5926  0.4121
 2407TIP3   OH228855   6.234   4.075   0.978 -0.0845 -0.0728 -0.0881
 2407TIP3    H128856   6.238   3.987   1.015 -1.8729 -0.1258  0.0573
 2407TIP3    H228857   6.164   4.119   1.026 -0.0476  1.0387 -0.9855
 2408TIP3   OH228858   2.423   6.090   7.455 -0.1751 -0.7517 -0.8562
 2408TIP3    H128859   2.366   6.165   7.471 -1.0020 -1.2065 -1.5848
 2408TIP3    H228860   2.372   6.014   7.484  0.4247 -1.0857 -0.6590
 2409TIP3   OH228861   1.817   6.251   7.993  0.3111 -0.3263 -0.2410
 2409TIP3    H128862   1.834   6.157   7.994  0.8890 -0.2230 -0.1180
 2409TIP3    H228863   1.834   6.280   8.083  2.9011  0.3648 -0.8837
 2410TIP3   OH228864   4.748   1.988   7.960 -0.1977  0.2175  0.0715
 2410TIP3    H128865   4.740   1.973   8.054  3.3033 -0.0097  0.4591
 2410TIP3    H228866   4.764   2.082   7.952  1.3338 -0.0306 -0.0661
 2411TIP3   OH228867   1.587   2.404   2.497  0.0432  0.1889 -0.2503
 2411TIP3    H128868   1.553   2.323   2.536 -1.2367 -0.0538 -1.7644
 2411TIP3    H228869   1.508   2.454   2.475  0.7977  1.3184 -0.4352
 2412TIP3   OH228870   0.201   2.185   0.465 -0.5946  0.2332 -0.6619
 2412TIP3    H128871   0.111   2.182   0.432 -0.5531 -0.5218 -0.7078
 2412TIP3    H228872   0.246   2.112   0.422  0.4234  1.4357 -1.7329
 2413TIP3   OH228873   0.784   4.495   8.738  0.3284 -0.1857  0.6204
 2413TIP3    H128874   0.796   4.538   8.823  0.5353  0.4629  0.2707
 2413TIP3    H228875   0.697   4.523   8.709  0.1912 -0.5357  0.6896
 2414TIP3   OH228876   4.053   6.216   7.485 -0.0685  0.2790 -0.1460
 2414TIP3    H128877   4.003   6.297   7.494 -0.8584 -0.2413  0.2803
 2414TIP3    H228878   4.056   6.180   7.574 -0.5788 -0.6515 -0.4933
 2415TIP3   OH228879   3.432   5.887   6.524 -0.5310 -0.6319  0.4116
 2415TIP3    H128880   3.483   5.934   6.589 -0.0809  1.2760 -1.2263
 2415TIP3    H228881   3.349   5.934   6.518 -0.0568  0.0588 -1.2926
 2416TIP3   OH228882   6.774   3.551   8.712  0.4237 -0.3003  0.0679
 2416TIP3    H128883   6.681   3.547   8.688 -0.1345 -2.1455  2.1339
 2416TIP3    H228884   6.794   3.644   8.717 -1.6709  0.1681  0.7173
 2417TIP3   OH228885   2.710   1.986   2.092 -0.5510  0.0016  0.5775
 2417TIP3    H128886   2.707   1.917   2.025  0.9601 -0.6741  1.1534
 2417TIP3    H228887   2.633   2.040   2.075 -1.2601 -1.2895 -0.4807
 2418TIP3   OH228888   4.528   6.344   8.448  0.3433  0.8327 -0.0550
 2418TIP3    H128889   4.432   6.342   8.449  0.2473 -2.2036  2.4500
 2418TIP3    H228890   4.551   6.382   8.533  1.4537  2.4385 -1.0250
 2419TIP3   OH228891   5.802   3.856   0.673  0.1270  0.0979  0.1575
 2419TIP3    H128892   5.859   3.810   0.735  1.1746 -1.6353 -1.9483
 2419TIP3    H228893   5.716   3.817   0.686 -0.1001  1.0366  1.7103
 2420TIP3   OH228894   5.314   2.308   8.573  0.2858  0.4628 -0.0634
 2420TIP3    H128895   5.301   2.355   8.490 -1.1962  1.9696  0.9713
 2420TIP3    H228896   5.259   2.230   8.565  0.7969  0.1629 -0.8036
 2421TIP3   OH228897   6.122   4.031   6.871 -0.2180 -0.2554 -0.0389
 2421TIP3    H128898   6.058   4.067   6.932  0.7154 -0.4747  1.0993
 2421TIP3    H228899   6.194   4.001   6.926 -0.0865 -2.0465 -1.0903
 2422TIP3   OH228900   6.808   3.741   1.272 -0.2193 -0.0221  0.0168
 2422TIP3    H128901   6.904   3.737   1.278 -0.1950 -0.4997 -0.5591
 2422TIP3    H228902   6.786   3.830   1.298  0.2625 -0.3267  1.5975
 2423TIP3   OH228903   3.415   4.429   7.525 -0.0784 -0.1020 -0.2628
 2423TIP3    H128904   3.444   4.449   7.613  0.3265  2.5683 -0.9279
 2423TIP3    H228905   3.346   4.363   7.536 -2.1510  2.2751  2.3162
 2424TIP3   OH228906   3.117   2.079   8.599  0.3056  0.1524 -0.1047
 2424TIP3    H128907   3.081   1.992   8.617 -0.9458  0.9207  1.3788
 2424TIP3    H228908   3.203   2.078   8.642 -0.4172  0.1776  1.4042
 2425TIP3   OH228909   3.888   4.919   7.746  0.0816  0.0019  0.3050
 2425TIP3    H128910   3.962   4.889   7.693  1.0165  0.3740  1.3577
 2425TIP3    H228911   3.903   4.881   7.832 -1.4928 -0.6993  0.2983
 2426TIP3   OH228912   6.645   4.807   1.162  0.9681 -0.5029  0.4511
 2426TIP3    H128913   6.589   4.770   1.094  0.7326 -2.0321  1.4022
 2426TIP3    H228914   6.584   4.849   1.223  0.9114 -1.3459  0.9974
 2427TIP3   OH228915   6.409   6.625   7.992  0.4423 -0.2594 -0.1403
 2427TIP3    H128916   6.484   6.566   8.000 -0.0656 -0.8677  0.1851
 2427TIP3    H228917   6.402   6.665   8.079  0.1121 -0.5439 -0.0355
 2428TIP3   OH228918   1.934   2.798   1.389 -0.1539  0.2681 -0.8270
 2428TIP3    H128919   1.954   2.754   1.307  0.2035  0.0005 -0.5982
 2428TIP3    H228920   1.974   2.743   1.456  2.6636  2.2482 -0.6788
 2429TIP3   OH228921   3.735   5.067   1.143 -0.0737  0.2533 -0.2100
 2429TIP3    H128922   3.662   5.057   1.205 -1.8599  0.7942 -2.1222
 2429TIP3    H228923   3.813   5.045   1.195 -1.6444 -1.3061  1.6854
 2430TIP3   OH228924   1.141   2.613   7.220  0.4620 -0.0699 -0.7208
 2430TIP3    H128925   1.230   2.590   7.244  0.3102  0.8300  0.8812
 2430TIP3    H228926   1.144   2.628   7.126  1.2058 -3.4019 -1.3466
 2431TIP3   OH228927   3.840   6.686   7.052 -0.0179 -0.4954  0.2424
 2431TIP3    H128928   3.772   6.620   7.068  0.6651 -1.4001 -0.4998
 2431TIP3    H228929   3.922   6.641   7.071  0.4495  0.1786 -0.1443
 2432TIP3   OH228930   5.152   0.686   0.621 -0.0697 -0.6688  0.3497
 2432TIP3    H128931   5.224   0.746   0.640  0.3272 -0.6956 -0.9560
 2432TIP3    H228932   5.187   0.599   0.640  0.0232 -0.6334  0.3421
 2433TIP3   OH228933   4.685   2.284   7.935  1.0744 -0.6045  0.3168
 2433TIP3    H128934   4.708   2.313   7.846 -0.1375  0.5291  0.3338
 2433TIP3    H228935   4.595   2.314   7.946  1.2232 -0.7197  1.9582
 2434TIP3   OH228936   3.850   1.499   8.337  0.1604  0.2459 -0.0456
 2434TIP3    H128937   3.933   1.462   8.366  1.1313 -0.0152 -2.8904
 2434TIP3    H228938   3.875   1.572   8.281 -1.5087 -0.0356 -1.2138
 2435TIP3   OH228939   4.830   2.506   8.842 -0.3759  0.1226  0.0422
 2435TIP3    H128940   4.870   2.536   8.761 -1.2112 -0.2286 -0.5111
 2435TIP3    H228941   4.736   2.514   8.827 -0.5752 -1.0832  0.5390
 2436TIP3   OH228942   5.862   0.495   7.447 -0.5419  0.0273 -0.3667
 2436TIP3    H128943   5.935   0.465   7.393  0.7186  1.4131  0.5076
 2436TIP3    H228944   5.787   0.496   7.386  0.0786 -1.6072 -1.2249
 2437TIP3   OH228945   2.436   0.559   1.800 -0.1439  0.1378  0.2626
 2437TIP3    H128946   2.517   0.531   1.757 -0.2024 -0.7256  0.6932
 2437TIP3    H228947   2.393   0.616   1.736 -0.1029 -0.9262 -0.7423
 2438TIP3   OH228948   3.273   4.043   8.038 -0.2235  0.0835  0.5710
 2438TIP3    H128949   3.366   4.058   8.053 -0.0418 -1.3645  1.1061
 2438TIP3    H228950   3.230   4.123   8.069  0.7775  0.4160  1.1408
 2439TIP3   OH228951   3.808   2.063   8.428  0.2646  0.0464  0.3631
 2439TIP3    H128952   3.825   2.114   8.349 -0.1032  0.1588  0.3534
 2439TIP3    H228953   3.738   2.111   8.473 -0.6278 -0.8522 -0.0309
 2440TIP3   OH228954   0.177   0.082   1.233 -0.0640  0.1782  0.3016
 2440TIP3    H128955   0.179  -0.009   1.204 -0.7184  0.7397 -1.6576
 2440TIP3    H228956   0.139   0.130   1.160  0.3343  2.0570  1.2540
 2441TIP3   OH228957   1.166   1.513   7.282  0.0274 -0.9976  0.6276
 2441TIP3    H128958   1.098   1.525   7.216  1.8500  1.3861 -1.0026
 2441TIP3    H228959   1.153   1.584   7.344  0.8929 -0.6309  0.4063
 2442TIP3   OH228960   6.283   1.543   0.011 -0.2442  0.3754 -0.5882
 2442TIP3    H128961   6.325   1.515   0.092 -1.6196 -1.1686 -0.3578
 2442TIP3    H228962   6.337   1.616  -0.020  0.5256  0.7570  1.5020
 2443TIP3   OH228963   6.026   2.952   8.878  0.1448  0.2773 -0.2197
 2443TIP3    H128964   5.987   3.016   8.819  2.1063  0.3182 -1.5575
 2443TIP3    H228965   6.081   3.004   8.937  0.7590 -0.0544 -0.4950
 2444TIP3   OH228966   5.687   5.455   8.196 -0.3196  0.1971 -0.6668
 2444TIP3    H128967   5.610   5.427   8.246  0.4290 -1.5738 -0.4051
 2444TIP3    H228968   5.657   5.459   8.106 -1.1084  1.1106 -0.3741
 2445TIP3   OH228969   4.659   2.116   1.043 -0.0647 -0.0645  0.0645
 2445TIP3    H128970   4.701   2.069   1.114  0.1141  0.2399  0.1591
 2445TIP3    H228971   4.698   2.204   1.044  0.0309 -0.0926 -0.4819
 2446TIP3   OH228972   1.333   6.439   8.477  0.0694  0.7146 -0.6305
 2446TIP3    H128973   1.338   6.389   8.558 -1.4408 -0.5207 -1.2649
 2446TIP3    H228974   1.250   6.414   8.437  1.7292 -0.4908 -3.6825
 2447TIP3   OH228975   6.007   4.165   2.821  0.1008  0.5516 -0.0991
 2447TIP3    H128976   6.004   4.173   2.726  2.4893  1.2890 -0.1829
 2447TIP3    H228977   6.030   4.252   2.852 -1.3447  0.4947  1.2374
 2448TIP3   OH228978   6.331   4.347   8.733 -0.1266 -0.1186 -0.0288
 2448TIP3    H128979   6.313   4.399   8.812 -1.5384 -0.6783  0.0461
 2448TIP3    H228980   6.247   4.304   8.713  0.1141  0.2493 -2.0153
 2449TIP3   OH228981   4.120   6.457   1.044  0.3484 -0.3838  0.3410
 2449TIP3    H128982   4.130   6.371   1.084  1.1802  0.0183  1.0277
 2449TIP3    H228983   4.188   6.460   0.976 -0.5572 -0.7685 -0.6152
 2450TIP3   OH228984   0.563   0.345   0.065 -0.1932 -0.2520  0.1443
 2450TIP3    H128985   0.657   0.357   0.055 -0.5076  2.3737 -0.2701
 2450TIP3    H228986   0.548   0.355   0.159 -0.0571 -0.7965  0.2271
 2451TIP3   OH228987   1.682   0.867   2.114  0.1479  0.0210  0.2300
 2451TIP3    H128988   1.627   0.945   2.106  0.1660 -0.0744 -0.8733
 2451TIP3    H228989   1.768   0.902   2.142  0.5571  0.5692 -1.5887
 2452TIP3   OH228990   0.553   2.290   1.729  0.0989 -0.7726 -0.4609
 2452TIP3    H128991   0.466   2.252   1.717  0.3611 -1.1975 -1.0568
 2452TIP3    H228992   0.594   2.233   1.794  0.4913 -1.5300 -1.3534
 2453TIP3   OH228993   3.387   0.048   7.166 -0.2197  0.0657 -0.6782
 2453TIP3    H128994   3.478   0.019   7.165  0.2339  1.2281  1.1284
 2453TIP3    H228995   3.393   0.144   7.169 -1.5750  0.2906 -2.9359
 2454TIP3   OH228996   6.601   6.695   8.658 -0.2789 -0.7487 -0.1560
 2454TIP3    H128997   6.571   6.774   8.703  0.4535 -1.4010  1.5764
 2454TIP3    H228998   6.689   6.680   8.693 -0.1306 -1.9342 -0.9831
 2455TIP3   OH228999   2.054   2.706   8.610  0.2484  0.1533 -0.2999
 2455TIP3    H129000   2.076   2.614   8.627  0.0490 -0.1322 -1.5474
 2455TIP3    H229001   2.051   2.714   8.515  1.4384  1.7395 -0.2524
 2456TIP3   OH229002   5.981   4.092   8.331  0.0829 -0.1396  0.0038
 2456TIP3    H129003   5.939   4.117   8.249 -0.2688 -0.7145  0.0015
 2456TIP3    H229004   6.043   4.024   8.306  0.8531  0.5370  0.0429
 2457TIP3   OH229005   1.200   3.829   8.806 -0.3148 -0.2800  0.3111
 2457TIP3    H129006   1.252   3.870   8.737  0.3124 -0.5531  0.6179
 2457TIP3    H229007   1.132   3.780   8.759 -0.0351 -0.2750 -0.1042
 2458TIP3   OH229008   1.360   3.949   1.481 -0.0326  0.0805 -0.6931
 2458TIP3    H129009   1.364   4.024   1.540  2.5766 -0.0763 -0.5229
 2458TIP3    H229010   1.338   3.875   1.537  0.3185  0.2748 -0.2918
 2459TIP3   OH229011   3.327   1.126   8.466 -0.7812  0.3112 -0.5991
 2459TIP3    H129012   3.256   1.078   8.423 -1.9469  0.8629  0.6397
 2459TIP3    H229013   3.323   1.213   8.426 -0.2380  0.0926 -1.1347
 2460TIP3   OH229014   5.993   0.189   8.891 -0.1455  0.0464 -0.1496
 2460TIP3    H129015   6.073   0.137   8.891  0.7021  1.3036  0.5924
 2460TIP3    H229016   6.022   0.279   8.875 -1.4339  0.5031 -0.0826
 2461TIP3   OH229017   2.683   2.644   1.906  0.2897  0.5847  0.2703
 2461TIP3    H129018   2.771   2.611   1.887  0.0843 -0.1980  0.6279
 2461TIP3    H229019   2.693   2.690   1.989  0.5330  1.2526 -0.1200
 2462TIP3   OH229020   6.425   4.435   1.714 -0.5368  0.9804 -0.2296
 2462TIP3    H129021   6.440   4.359   1.657  0.3352  1.4047 -0.5683
 2462TIP3    H229022   6.466   4.411   1.797 -2.6323 -0.0449  0.6052
 2463TIP3   OH229023   2.869   1.321   6.761  0.2092 -0.3928 -0.1693
 2463TIP3    H129024   2.843   1.372   6.684 -0.6782  0.5213  0.7199
 2463TIP3    H229025   2.795   1.263   6.777  0.0919 -0.0912  0.4057
 2464TIP3   OH229026   3.979   3.598   2.179 -0.3042  0.2962 -0.2326
 2464TIP3    H129027   3.895   3.622   2.218 -1.2331 -0.1426 -1.8633
 2464TIP3    H229028   3.980   3.502   2.182 -1.1813  0.1398 -2.6964
 2465TIP3   OH229029   4.978   5.131   8.401 -0.4975  0.5806  0.9354
 2465TIP3    H129030   4.953   5.140   8.493  0.1563 -0.9015  1.2908
 2465TIP3    H229031   5.031   5.052   8.398  1.3442  1.7591 -0.3505
 2466TIP3   OH229032   2.538   1.038   1.693  0.1050 -0.2177 -0.6465
 2466TIP3    H129033   2.555   0.951   1.730  0.5634 -0.3089 -1.0540
 2466TIP3    H229034   2.465   1.024   1.632  0.0633 -0.2815 -0.5817
 2467TIP3   OH229035   0.283   4.140   1.739 -0.1917  0.8095 -0.0522
 2467TIP3    H129036   0.228   4.063   1.721 -1.1198  0.7713  2.5817
 2467TIP3    H229037   0.349   4.138   1.669 -0.4766 -2.0924 -0.3864
 2468TIP3   OH229038   1.009   6.582   7.154  0.0740 -0.1414 -0.1067
 2468TIP3    H129039   1.047   6.575   7.242  1.7477  1.0026 -0.6994
 2468TIP3    H229040   0.990   6.675   7.144 -0.9265 -0.3920 -0.6564
 2469TIP3   OH229041   3.904   4.544   7.551 -0.1037 -0.1700 -0.1959
 2469TIP3    H129042   3.962   4.470   7.533  0.5628  0.4936 -0.8458
 2469TIP3    H229043   3.951   4.620   7.518 -0.6176  0.6011  0.8133
 2470TIP3   OH229044   4.345   3.535   1.549  0.5390 -0.1452 -0.2040
 2470TIP3    H129045   4.369   3.624   1.522  1.2762 -0.2045  0.2307
 2470TIP3    H229046   4.286   3.548   1.624  0.7291 -0.0178 -0.0741
 2471TIP3   OH229047   0.277   5.695   8.276  0.4933  0.0978  0.1244
 2471TIP3    H129048   0.236   5.776   8.306  0.0194 -0.3259  0.6311
 2471TIP3    H229049   0.250   5.687   8.184  1.7858  1.2905 -0.4052
 2472TIP3   OH229050   6.019   2.695   2.725 -0.2619 -0.3325  0.0522
 2472TIP3    H129051   5.935   2.678   2.766 -0.4935 -1.1907 -0.7381
 2472TIP3    H229052   5.997   2.739   2.643  0.0714 -0.4244 -0.0881
 2473TIP3   OH229053   2.208   5.607   0.033 -0.0093  0.4648 -0.0231
 2473TIP3    H129054   2.267   5.541  -0.003 -0.2324  0.3333 -0.1560
 2473TIP3    H229055   2.257   5.689   0.029  0.7304  0.1088  1.3136
 2474TIP3   OH229056   2.216   2.212   7.332  0.6420  0.5311  0.2989
 2474TIP3    H129057   2.125   2.236   7.315  0.4042 -1.0106 -0.7722
 2474TIP3    H229058   2.253   2.196   7.246  1.9570  1.1464  0.7292
 2475TIP3   OH229059   1.446   4.990   7.639  0.0545 -0.2608  0.1019
 2475TIP3    H129060   1.446   5.080   7.604  0.3578  0.3965  1.7108
 2475TIP3    H229061   1.426   5.000   7.732 -1.1877 -2.0007  0.0687
 2476TIP3   OH229062   4.687   4.019   6.491  0.8082 -0.7916  0.2231
 2476TIP3    H129063   4.621   4.080   6.523  1.8554  0.1217  0.7276
 2476TIP3    H229064   4.637   3.945   6.457 -0.4220 -0.7931  1.9126
 2477TIP3   OH229065   4.014   5.122   1.448 -0.3643  0.7232 -0.7165
 2477TIP3    H129066   4.099   5.166   1.456  0.1888 -0.2241 -1.2131
 2477TIP3    H229067   4.008   5.067   1.526  0.5295 -0.9207 -1.7341
 2478TIP3   OH229068   6.321   0.751   7.134  0.0035  0.7601  0.0199
 2478TIP3    H129069   6.350   0.797   7.056  1.4286  1.4697  0.9282
 2478TIP3    H229070   6.325   0.817   7.204 -1.2971  0.1614  0.7036
 2479TIP3   OH229071   1.741   3.330   7.939  0.2503  0.0001 -0.7313
 2479TIP3    H129072   1.794   3.293   7.868  0.7818  0.9924 -0.8765
 2479TIP3    H229073   1.776   3.290   8.019 -0.0022 -0.7280 -0.9805
 2480TIP3   OH229074   1.157   3.297   7.373 -0.0956  0.7167  0.0310
 2480TIP3    H129075   1.096   3.356   7.329 -1.2275 -1.2433 -1.1597
 2480TIP3    H229076   1.147   3.213   7.328  3.0009  0.1040  0.2181
 2481TIP3   OH229077   5.187   2.562   7.770  0.3715 -0.2679 -0.1159
 2481TIP3    H129078   5.239   2.572   7.689  0.4559  2.9551  0.1738
 2481TIP3    H229079   5.233   2.495   7.820  1.1567 -1.3119 -2.1268
 2482TIP3   OH229080   1.062   1.360   0.927  0.2032 -0.2385 -0.3640
 2482TIP3    H129081   1.140   1.407   0.899 -0.3337  0.3561 -0.8906
 2482TIP3    H229082   1.067   1.360   1.023  0.8724 -0.2577 -0.3967
 2483TIP3   OH229083   2.646   4.968   0.196 -0.1881  0.2672 -0.2606
 2483TIP3    H129084   2.720   4.932   0.147  0.3127  1.4258 -0.3898
 2483TIP3    H229085   2.592   4.892   0.217  0.2512 -0.4097 -1.4864
 2484TIP3   OH229086   1.419   0.136   7.471 -0.2246  0.3217  0.1258
 2484TIP3    H129087   1.457   0.210   7.518 -0.7968 -0.0851  1.2825
 2484TIP3    H229088   1.463   0.059   7.508  0.2711  0.0646 -0.9713
 2485TIP3   OH229089   2.594   3.904   7.752 -0.5053 -0.3568  0.5028
 2485TIP3    H129090   2.660   3.900   7.683  0.1960 -1.0489  1.1906
 2485TIP3    H229091   2.524   3.958   7.716  0.2175 -0.0237 -0.4311
 2486TIP3   OH229092   6.603   2.664   7.905  0.4664 -0.4201 -0.8701
 2486TIP3    H129093   6.652   2.582   7.902 -0.6373 -1.0936 -1.1195
 2486TIP3    H229094   6.558   2.668   7.820 -1.3760 -0.7874  0.0307
 2487TIP3   OH229095   4.739   5.937   8.441 -0.2700 -0.8808  0.7724
 2487TIP3    H129096   4.810   5.985   8.486  1.2016 -2.0921 -0.1576
 2487TIP3    H229097   4.780   5.902   8.362 -2.2272 -0.6900 -0.3957
 2488TIP3   OH229098   6.146   4.964   1.942  0.3512  0.1150  0.6860
 2488TIP3    H129099   6.206   4.901   1.900 -0.0227  0.4567 -0.4031
 2488TIP3    H229100   6.061   4.919   1.942 -0.4200  1.3166 -2.0385
 2489TIP3   OH229101   3.066   0.658   0.305 -0.1719  0.0239  0.2700
 2489TIP3    H129102   3.041   0.569   0.329  0.2832 -0.1977 -0.0676
 2489TIP3    H229103   3.161   0.659   0.315 -0.3137  0.9540  1.8866
 2490TIP3   OH229104   3.707   4.839   2.662 -0.4019 -0.2074  0.0961
 2490TIP3    H129105   3.722   4.919   2.712 -1.1453 -0.0255  0.0355
 2490TIP3    H229106   3.738   4.859   2.574 -2.3932  0.7040 -0.4403
 2491TIP3   OH229107   0.441   5.492   1.935 -0.0463  0.1415 -0.1815
 2491TIP3    H129108   0.413   5.461   2.021 -0.6654  1.9976  0.3195
 2491TIP3    H229109   0.369   5.471   1.877 -0.3679  0.4521  0.1047
 2492TIP3   OH229110   6.522   1.247   2.258  0.1199 -0.6881 -0.2119
 2492TIP3    H129111   6.547   1.257   2.350 -1.1770  0.1163  0.0719
 2492TIP3    H229112   6.480   1.161   2.253  1.4345 -1.3482 -0.3663
 2493TIP3   OH229113   6.559   2.174   1.806 -0.3196 -0.1041  0.2843
 2493TIP3    H129114   6.598   2.221   1.733  0.7187 -1.2702  0.0710
 2493TIP3    H229115   6.475   2.143   1.772 -0.5871  0.7509  0.1295
 2494TIP3   OH229116   5.704   0.655   8.756 -0.4256  0.4133 -0.1112
 2494TIP3    H129117   5.761   0.674   8.682 -3.3912  0.2066 -2.6135
 2494TIP3    H229118   5.690   0.561   8.752 -0.8894  0.4500  0.5096
 2495TIP3   OH229119   5.765   2.190   6.668  0.9789 -0.2139  0.5651
 2495TIP3    H129120   5.672   2.165   6.669  0.7286  0.6950  0.9027
 2495TIP3    H229121   5.811   2.110   6.690  0.3430 -0.9534 -0.6439
 2496TIP3   OH229122   3.184   6.514   2.639  0.3460 -0.2944 -0.6632
 2496TIP3    H129123   3.124   6.585   2.659  1.4120  0.7131 -0.8792
 2496TIP3    H229124   3.182   6.457   2.716 -0.0750  0.2996 -0.2276
 2497TIP3   OH229125   3.178   3.202   0.454 -0.1944  0.2923  0.6794
 2497TIP3    H129126   3.101   3.147   0.462 -0.6727  0.8854  0.3049
 2497TIP3    H229127   3.252   3.146   0.478 -0.4342 -1.1280 -1.6505
 2498TIP3   OH229128   0.653   0.067   6.355 -0.1211  0.4980  0.2365
 2498TIP3    H129129   0.689  -0.019   6.335  0.8889  0.5791  1.6296
 2498TIP3    H229130   0.560   0.060   6.330 -0.2222 -1.2176  0.9666
 2499TIP3   OH229131   3.358   2.363   6.837 -0.2505  0.4435 -0.3111
 2499TIP3    H129132   3.317   2.288   6.880 -3.0725  2.0729  0.1691
 2499TIP3    H229133   3.449   2.337   6.823 -0.7882 -2.5319  0.9573
 2500TIP3   OH229134   0.533   5.859   7.013 -0.2177  0.2835 -0.5216
 2500TIP3    H129135   0.456   5.825   7.058 -0.3812  0.4411 -0.6826
 2500TIP3    H229136   0.593   5.784   7.009  0.2719  0.5682  0.9753
 2501TIP3   OH229137   3.606   1.838   7.544 -0.0094  0.7536 -0.1288
 2501TIP3    H129138   3.621   1.831   7.450  0.3741  0.8783 -0.0788
 2501TIP3    H229139   3.583   1.930   7.558 -0.6088  0.6122 -0.1744
 2502TIP3   OH229140   5.151   6.278   7.645 -0.0717  0.2270 -0.2882
 2502TIP3    H129141   5.191   6.356   7.608 -0.4593  0.6744  0.2120
 2502TIP3    H229142   5.099   6.241   7.574  1.0400 -0.2468 -0.8843
 2503TIP3   OH229143   0.874   1.517   7.191 -0.1486  0.4198 -0.4170
 2503TIP3    H129144   0.792   1.559   7.164 -0.4095 -0.3593 -0.8779
 2503TIP3    H229145   0.874   1.434   7.144  0.3085 -0.1427  0.5623
 2504TIP3   OH229146   4.623   3.004   0.860  0.0184  0.0322  0.5723
 2504TIP3    H129147   4.688   2.934   0.876  0.8675  0.9584  1.3165
 2504TIP3    H229148   4.676   3.083   0.850 -0.8125  0.3614 -1.8564
 2505TIP3   OH229149   2.195   0.889   0.524  0.4961 -0.1897 -0.0213
 2505TIP3    H129150   2.147   0.834   0.585  2.0744 -0.4013  1.1069
 2505TIP3    H229151   2.166   0.978   0.544  0.5852 -0.3095  0.6750
 2506TIP3   OH229152   2.941   5.696   0.205  0.1563 -0.0824  0.6257
 2506TIP3    H129153   2.955   5.665   0.116  0.5020 -0.6785  0.8746
 2506TIP3    H229154   3.023   5.741   0.228 -0.9493  2.6214 -0.3338
 2507TIP3   OH229155   4.305   6.477   0.818  0.1510 -0.1128 -0.4341
 2507TIP3    H129156   4.348   6.409   0.869 -0.9174 -0.3872  0.1285
 2507TIP3    H229157   4.371   6.505   0.755  1.8063  0.8321  1.6048
 2508TIP3   OH229158   0.488   5.665   1.332  0.2675 -0.0964  0.5886
 2508TIP3    H129159   0.491   5.753   1.371  0.7414 -0.8773  2.4153
 2508TIP3    H229160   0.420   5.671   1.265  0.4610  1.7187  0.4989
 2509TIP3   OH229161   3.719   1.132   2.257  0.2802 -0.0392  0.1519
 2509TIP3    H129162   3.739   1.219   2.223 -1.4823  0.3887  0.1124
 2509TIP3    H229163   3.695   1.148   2.349 -1.9783 -0.1507 -0.3598
 2510TIP3   OH229164   3.627   2.166   0.198 -0.3168 -0.3713 -0.2059
 2510TIP3    H129165   3.603   2.111   0.123 -0.6451  0.3837 -0.6578
 2510TIP3    H229166   3.704   2.214   0.168 -0.6118  0.1333 -0.1563
 2511TIP3   OH229167   3.686   3.715   7.429 -0.5533  0.2352  0.3152
 2511TIP3    H129168   3.604   3.762   7.411  0.4567  3.0037  2.2099
 2511TIP3    H229169   3.707   3.739   7.519  1.5163 -1.7750  0.4405
 2512TIP3   OH229170   3.637   0.085   6.715 -0.6487 -0.1396 -0.1537
 2512TIP3    H129171   3.677   0.140   6.783 -0.3392  0.1885 -0.5931
 2512TIP3    H229172   3.582   0.023   6.763 -1.2396  0.7373  0.3484
 2513TIP3   OH229173   4.363   5.807   1.638  0.1226 -0.2785  0.0157
 2513TIP3    H129174   4.277   5.798   1.677 -0.2005 -0.3019 -0.6857
 2513TIP3    H229175   4.424   5.782   1.707 -0.4307 -0.2338  0.5217
 2514TIP3   OH229176   6.598   3.492   8.440 -0.4399 -0.0842  0.7648
 2514TIP3    H129177   6.627   3.463   8.353 -1.9059 -1.4184  0.6772
 2514TIP3    H229178   6.574   3.584   8.427 -2.3175 -0.7037 -0.7555
 2515TIP3   OH229179   3.105   1.869   1.964  0.3631 -0.1961 -0.3243
 2515TIP3    H129180   3.073   1.938   2.023 -1.7904 -1.1221 -0.3149
 2515TIP3    H229181   3.028   1.815   1.946  2.0288 -2.8720 -0.0088
 2516TIP3   OH229182   4.775   1.110   0.439  0.3027 -0.3869 -0.5174
 2516TIP3    H129183   4.797   1.023   0.405  2.0265  0.8039 -2.7500
 2516TIP3    H229184   4.689   1.129   0.402 -0.9657 -1.7891  1.4958
 2517TIP3   OH229185   5.738   2.093   7.518 -0.0369  0.3291  0.3893
 2517TIP3    H129186   5.734   2.145   7.438 -0.1556  0.7498  0.6668
 2517TIP3    H229187   5.647   2.070   7.537  0.0817 -0.6855 -0.1813
 2518TIP3   OH229188   3.570   3.544   1.446  0.1664 -0.1142 -0.0763
 2518TIP3    H129189   3.664   3.541   1.426  0.2039  0.2800  0.0264
 2518TIP3    H229190   3.549   3.457   1.479  0.2864 -0.5197 -1.0394
 2519TIP3   OH229191   3.221   0.765   8.685 -0.2704  0.0510 -0.1510
 2519TIP3    H129192   3.303   0.715   8.683  1.1632  2.0157  2.5914
 2519TIP3    H229193   3.189   0.755   8.775 -2.4394  0.3362 -0.8283
 2520TIP3   OH229194   3.233   5.953   1.844  0.0673 -0.3267  0.0297
 2520TIP3    H129195   3.293   5.880   1.826 -0.2352 -0.2907 -1.1496
 2520TIP3    H229196   3.284   6.011   1.901  0.6782 -0.9422  0.1354
 2521TIP3   OH229197   4.617   5.782   0.918  0.6038 -0.4079 -0.2912
 2521TIP3    H129198   4.708   5.768   0.945  0.4921 -1.7024 -0.5320
 2521TIP3    H229199   4.565   5.757   0.994  0.4369  0.5111 -0.0887
 2522TIP3   OH229200   0.945   5.242   7.696 -0.0735 -0.2007 -0.2657
 2522TIP3    H129201   0.923   5.156   7.729 -0.5119  0.5205  1.4363
 2522TIP3    H229202   0.880   5.301   7.734  0.5291  0.9652 -0.9416
 2523TIP3   OH229203   4.195   4.950   1.879 -0.1925 -0.1831  0.8860
 2523TIP3    H129204   4.234   5.025   1.924  1.0011 -0.6827  0.7310
 2523TIP3    H229205   4.142   4.907   1.947 -1.1444  0.9504  0.8923
 2524TIP3   OH229206   0.913   2.681   6.685 -0.1870  0.2234  0.8307
 2524TIP3    H129207   0.942   2.765   6.721 -1.4522  1.6166 -1.1613
 2524TIP3    H229208   0.974   2.617   6.721  2.7205  2.3979  0.1266
 2525TIP3   OH229209   3.009   5.606   8.864  0.5188  0.4039 -0.0988
 2525TIP3    H129210   3.062   5.569   8.793  0.7146  0.4157  0.0401
 2525TIP3    H229211   2.990   5.695   8.836  0.4918  0.3678 -0.1944
 2526TIP3   OH229212   2.458   2.617   8.164  0.4000  0.1561  0.4162
 2526TIP3    H129213   2.495   2.558   8.098  0.8157  0.9661 -0.0931
 2526TIP3    H229214   2.367   2.626   8.139  0.4664  0.1672  0.1779
 2527TIP3   OH229215   0.141   4.570   7.199  0.3111  0.4064  0.3870
 2527TIP3    H129216   0.113   4.498   7.141  0.3962  0.0169  0.8271
 2527TIP3    H229217   0.138   4.647   7.143 -1.2433  0.3098  0.3005
 2528TIP3   OH229218   6.750   6.258   1.176 -0.1014 -0.3175 -0.4219
 2528TIP3    H129219   6.678   6.242   1.115 -0.1745  0.4654 -0.5541
 2528TIP3    H229220   6.828   6.262   1.120 -0.0106 -0.7574 -0.3271
 2529TIP3   OH229221   1.346   0.730   1.037  0.2615  0.4090 -0.5175
 2529TIP3    H129222   1.267   0.721   0.984  0.4067 -0.0767 -0.6514
 2529TIP3    H229223   1.318   0.710   1.127  0.6782 -2.0578 -0.8622
 2530TIP3   OH229224   2.603   6.188   8.278 -0.2539  0.3891  0.1452
 2530TIP3    H129225   2.560   6.256   8.226  0.2224 -0.3502 -1.2711
 2530TIP3    H229226   2.684   6.170   8.230  1.3903  1.3401  2.4140
 2531TIP3   OH229227   2.333   3.435   7.568  0.3385 -0.7698  0.0488
 2531TIP3    H129228   2.246   3.423   7.607  0.1043  1.4096  0.3390
 2531TIP3    H229229   2.361   3.521   7.599  2.8324 -1.6067  0.3472
 2532TIP3   OH229230   4.376   2.602   8.811 -0.5631  0.2288  0.4910
 2532TIP3    H129231   4.319   2.664   8.765 -0.5674  0.5415  0.9192
 2532TIP3    H229232   4.374   2.631   8.902 -2.3149 -1.6714  1.1337
 2533TIP3   OH229233   0.631   2.341   6.628 -0.3294  0.0455  0.4259
 2533TIP3    H129234   0.549   2.313   6.669  0.1423  1.4653  2.4634
 2533TIP3    H229235   0.606   2.415   6.573 -0.4489  0.3207  0.8496
 2534TIP3   OH229236   5.822   3.288   1.374  0.5561 -0.2360 -0.1483
 2534TIP3    H129237   5.801   3.256   1.462  1.8171 -2.6874 -0.6481
 2534TIP3    H229238   5.844   3.209   1.325  1.2412  1.2147 -2.3043
 2535TIP3   OH229239   2.981   2.059   2.120  0.3312  0.0119  0.6075
 2535TIP3    H129240   2.888   2.038   2.125  0.1437  0.8270  0.7252
 2535TIP3    H229241   2.990   2.139   2.173  1.5458 -1.4515  2.7305
 2536TIP3   OH229242   5.217   3.042   2.364  0.1750  0.6122  0.1055
 2536TIP3    H129243   5.208   3.124   2.412 -0.5611  0.8069 -0.3496
 2536TIP3    H229244   5.197   3.065   2.273  0.2542 -0.0140 -0.0759
 2537TIP3   OH229245   0.966   3.349   7.120 -0.3459 -0.1442  0.1042
 2537TIP3    H129246   0.922   3.344   7.206  0.1174  0.7799  0.4101
 2537TIP3    H229247   0.960   3.441   7.096  1.0874 -0.0586 -0.0186
 2538TIP3   OH229248   1.328   3.198   8.363  0.0289  0.2447 -0.0591
 2538TIP3    H129249   1.315   3.113   8.405 -1.4607 -0.3998 -1.6790
 2538TIP3    H229250   1.314   3.180   8.270 -2.3686  2.6232 -0.2693
 2539TIP3   OH229251   4.032   1.152   1.933 -0.0800  0.0465 -0.1398
 2539TIP3    H129252   3.981   1.159   1.853 -0.7226 -1.1342  0.1434
 2539TIP3    H229253   4.089   1.077   1.918  1.9798  1.6125 -0.6422
 2540TIP3   OH229254   3.759   5.175   7.913  0.0908 -0.3961 -0.3527
 2540TIP3    H129255   3.674   5.130   7.908  0.0481 -0.4701  0.7971
 2540TIP3    H229256   3.823   5.104   7.913  0.1056 -0.3831 -0.2862
 2541TIP3   OH229257   0.725   1.788   0.878  0.0449  0.1201 -0.5419
 2541TIP3    H129258   0.709   1.696   0.856  2.6763 -0.6590  0.4478
 2541TIP3    H229259   0.716   1.792   0.973 -0.0857  0.8948 -0.5796
 2542TIP3   OH229260   3.132   1.968   6.291 -0.0741 -0.2456 -0.1928
 2542TIP3    H129261   3.178   2.041   6.333  0.3595 -0.9903  0.6689
 2542TIP3    H229262   3.124   1.994   6.199 -0.6885  1.2483  0.2524
 2543TIP3   OH229263   3.893   1.184   6.887  0.4207 -0.1299  0.7091
 2543TIP3    H129264   3.939   1.257   6.846 -2.8153  0.6984 -1.7790
 2543TIP3    H229265   3.831   1.226   6.947 -0.8959 -0.8480 -0.1269
 2544TIP3   OH229266   2.638   1.236   6.491 -0.3212  0.6467 -0.2347
 2544TIP3    H129267   2.608   1.288   6.417 -2.4600  0.4231  0.3856
 2544TIP3    H229268   2.570   1.249   6.558  0.2651 -1.0983  0.7747
 2545TIP3   OH229269   1.432   5.548   1.005 -0.2668  0.1479 -0.3678
 2545TIP3    H129270   1.384   5.541   0.922 -0.7825 -0.0275 -0.0645
 2545TIP3    H229271   1.388   5.620   1.051 -0.2074  0.0215 -0.1098
 2546TIP3   OH229272   2.265   4.398   7.008 -0.1796  0.4485 -0.7843
 2546TIP3    H129273   2.248   4.428   6.918  1.8831  3.9356 -0.1885
 2546TIP3    H229274   2.211   4.454   7.063  0.8197  0.3981  0.2849
 2547TIP3   OH229275   5.716   6.612   2.195 -0.4778 -0.3903 -0.4001
 2547TIP3    H129276   5.779   6.622   2.266 -0.6810 -0.5904 -0.1921
 2547TIP3    H229277   5.740   6.529   2.153  0.3317  0.2502 -1.2557
 2548TIP3   OH229278   4.345   3.961   1.625  0.4027 -0.5423 -0.1147
 2548TIP3    H129279   4.356   3.935   1.716  0.3045  0.3280  0.1580
 2548TIP3    H229280   4.378   3.887   1.574 -1.0401 -1.7316  0.6077
 2549TIP3   OH229281   0.506   3.517   7.745 -0.1717  0.0622  0.0332
 2549TIP3    H129282   0.447   3.580   7.704 -0.5959 -0.8007 -0.7241
 2549TIP3    H229283   0.565   3.490   7.675 -0.3919 -0.8386  0.1810
 2550TIP3   OH229284   4.962   4.183   7.963 -0.7836 -0.0070 -0.0853
 2550TIP3    H129285   4.977   4.112   7.901  1.2381  2.0273 -2.1386
 2550TIP3    H229286   4.868   4.201   7.957 -1.4175 -2.6778  0.8100
 2551TIP3   OH229287   4.882   4.061   1.020 -0.3703  0.0832 -0.5556
 2551TIP3    H129288   4.867   3.986   1.076  1.6535  0.8615  1.1548
 2551TIP3    H229289   4.825   4.130   1.056  0.6586  0.4731  0.4021
 2552TIP3   OH229290   1.698   3.636   6.676 -0.1125  0.1579 -0.0661
 2552TIP3    H129291   1.649   3.561   6.642 -0.9426  0.9667 -0.6869
 2552TIP3    H229292   1.729   3.682   6.598  1.2656 -0.0729  0.3134
 2553TIP3   OH229293   6.652   3.746   7.601 -0.6565  0.0020  0.2866
 2553TIP3    H129294   6.725   3.729   7.660 -0.5813 -2.4475 -0.3883
 2553TIP3    H229295   6.669   3.688   7.526 -2.2563  0.8604 -0.7812
 2554TIP3   OH229296   5.275   5.967   0.115  0.1078  0.6933  0.3554
 2554TIP3    H129297   5.181   5.977   0.134  0.0282 -0.5357  0.6948
 2554TIP3    H229298   5.317   5.967   0.201  0.2470 -0.2631  0.2980
 2555TIP3   OH229299   4.831   6.554   8.709  0.1199 -0.6035 -0.2039
 2555TIP3    H129300   4.799   6.644   8.720 -0.7612 -0.6999 -1.6605
 2555TIP3    H229301   4.822   6.538   8.615  0.2859 -2.2201  0.0418
 2556TIP3   OH229302   5.402   6.692   0.388 -0.4471 -0.5687  0.4785
 2556TIP3    H129303   5.364   6.637   0.457 -0.3290  1.2208  2.0189
 2556TIP3    H229304   5.328   6.743   0.356  0.1004  1.0504  1.6835
 2557TIP3   OH229305   2.493   1.674   8.410 -0.0034  0.9062 -0.5070
 2557TIP3    H129306   2.479   1.585   8.381 -0.5767  0.1777  1.7841
 2557TIP3    H229307   2.574   1.701   8.366  1.4718 -1.5807  0.4876
 2558TIP3   OH229308   0.903   3.110   7.977 -0.7544  0.4118 -0.1044
 2558TIP3    H129309   0.813   3.135   7.954 -1.6725 -1.9991  0.5546
 2558TIP3    H229310   0.895   3.068   8.063  0.9631 -0.0737 -0.1519
 2559TIP3   OH229311   3.337   3.082   0.723  0.2738  0.6877  0.1782
 2559TIP3    H129312   3.328   3.174   0.746 -1.0485  0.2122  1.8610
 2559TIP3    H229313   3.377   3.042   0.801  0.0892 -0.2763 -0.2016
 2560TIP3   OH229314   2.038   2.842   2.448  0.1425  0.6841  0.7083
 2560TIP3    H129315   1.957   2.794   2.469 -0.0230  0.1050 -1.0719
 2560TIP3    H229316   2.011   2.909   2.385  1.0471  0.3817 -0.0311
 2561TIP3   OH229317   2.097   1.665   8.759  0.5424  0.3715 -0.3194
 2561TIP3    H129318   2.169   1.729   8.755 -0.0748  0.9974 -2.2225
 2561TIP3    H229319   2.066   1.670   8.850  0.3432  2.9972 -0.4508
 2562TIP3   OH229320   0.856   1.794   8.717  0.5083  0.3886 -0.0226
 2562TIP3    H129321   0.771   1.828   8.691 -0.0481 -1.3947 -0.7158
 2562TIP3    H229322   0.877   1.729   8.650  2.2487  0.5261  0.3444
 2563TIP3   OH229323   6.220   0.753   6.697  0.0718 -0.4389  0.1822
 2563TIP3    H129324   6.166   0.831   6.685 -1.6585 -1.4118  1.1871
 2563TIP3    H229325   6.198   0.697   6.622 -0.1385 -0.7243  0.4528
 2564TIP3   OH229326   0.519   6.746   2.369  0.4188 -0.0759 -0.3775
 2564TIP3    H129327   0.577   6.674   2.343 -0.9420 -1.5002  0.3233
 2564TIP3    H229328   0.560   6.782   2.447  1.4645  0.3783 -1.1086
 2565TIP3   OH229329   0.271   3.499   7.336  0.2987  0.0396  0.1474
 2565TIP3    H129330   0.334   3.504   7.264 -1.4532 -0.0786 -1.4515
 2565TIP3    H229331   0.296   3.571   7.394  0.8191  1.1352 -1.3617
 2566TIP3   OH229332   0.534   3.280   0.832  0.8965 -0.0063 -0.4573
 2566TIP3    H129333   0.480   3.351   0.799 -0.5287 -1.1201 -0.6270
 2566TIP3    H229334   0.605   3.323   0.878 -0.3510  1.5212  0.1200
 2567TIP3   OH229335   6.780   4.271   0.601 -0.1653  0.5935  0.5055
 2567TIP3    H129336   6.789   4.329   0.526  1.2266  0.8213  0.8205
 2567TIP3    H229337   6.833   4.194   0.578 -0.2081  0.4135  1.0018
 2568TIP3   OH229338   4.242   4.276   8.195  0.0039  0.8036 -0.2621
 2568TIP3    H129339   4.328   4.259   8.233  0.5358  0.3841 -1.5867
 2568TIP3    H229340   4.262   4.317   8.111 -1.1027  0.7912 -0.5378
 2569TIP3   OH229341   2.804   6.467   0.060 -0.1845  0.1015 -0.2230
 2569TIP3    H129342   2.761   6.382   0.055  0.4767 -0.2221 -0.5375
 2569TIP3    H229343   2.746   6.520   0.115  0.4246 -1.1864  1.7750
 2570TIP3   OH229344   0.440   1.318   0.418 -0.3685  0.0195  0.5824
 2570TIP3    H129345   0.454   1.403   0.376 -0.3030 -0.1816  0.1994
 2570TIP3    H229346   0.454   1.335   0.511  0.5621  0.2265  0.4080
 2571TIP3   OH229347   6.766   1.602   1.824  0.0254 -0.0508 -0.0442
 2571TIP3    H129348   6.736   1.667   1.760 -1.6558 -1.9929 -1.3477
 2571TIP3    H229349   6.691   1.590   1.883  0.4228 -0.6120  0.3572
 2572TIP3   OH229350   5.152   4.193   2.441 -0.3902 -0.6717 -0.0307
 2572TIP3    H129351   5.139   4.103   2.410 -2.5715 -0.5712  0.4354
 2572TIP3    H229352   5.072   4.239   2.417 -0.2731  0.5638  1.7376
 2573TIP3   OH229353   6.341   1.128   8.556  0.0688 -0.3364 -0.3291
 2573TIP3    H129354   6.299   1.044   8.536  1.1432 -1.0605  0.3579
 2573TIP3    H229355   6.268   1.189   8.569 -0.7727 -1.4848  0.5681
 2574TIP3   OH229356   6.645   2.308   1.587  0.0522  0.3976 -0.2097
 2574TIP3    H129357   6.600   2.285   1.506 -0.0277 -0.4573  0.0678
 2574TIP3    H229358   6.615   2.396   1.608 -2.4389 -0.5712  0.6034
 2575TIP3   OH229359   6.179   0.714   1.683 -0.0523 -0.4004 -0.9469
 2575TIP3    H129360   6.156   0.731   1.775  2.1043 -1.9381 -0.0246
 2575TIP3    H229361   6.265   0.755   1.673 -0.3858 -0.0199 -2.3947
 2576TIP3   OH229362   3.249   5.234   1.316 -0.2088  0.1032 -0.0225
 2576TIP3    H129363   3.159   5.210   1.338 -0.6423  0.4146 -1.3311
 2576TIP3    H229364   3.257   5.325   1.345 -0.2815  0.0403  0.1971
 2577TIP3   OH229365   4.218   4.551   0.987 -0.7330  0.0750 -0.3016
 2577TIP3    H129366   4.215   4.636   1.030  0.2337 -0.5331  1.0408
 2577TIP3    H229367   4.135   4.545   0.940 -1.7987  0.8314  1.4040
 2578TIP3   OH229368   2.875   2.898   2.123 -0.5564  0.0370  0.0379
 2578TIP3    H129369   2.908   2.977   2.166  1.2577  0.7553 -2.4476
 2578TIP3    H229370   2.839   2.929   2.040 -0.8853 -1.6157 -0.4754
 2579TIP3   OH229371   5.366   2.058   6.282 -0.2385  0.3073  0.3402
 2579TIP3    H129372   5.303   2.029   6.348 -0.6466  1.2889  0.4053
 2579TIP3    H229373   5.339   2.147   6.261  0.5859  0.4188 -0.3099
 2580TIP3   OH229374   0.436   3.246   7.320 -0.0164  0.1884  0.3513
 2580TIP3    H129375   0.421   3.214   7.232 -1.3062  0.9944  0.2539
 2580TIP3    H229376   0.484   3.329   7.308  0.1941  0.0790  0.4308
 2581TIP3   OH229377   1.891   0.489   1.270  0.1962  0.1994  0.1787
 2581TIP3    H129378   1.909   0.453   1.183  0.2339 -0.2868  0.3861
 2581TIP3    H229379   1.801   0.462   1.288 -0.1742  1.1789 -0.1390
 2582TIP3   OH229380   5.882   0.769   6.933 -0.3030  0.4226  0.2438
 2582TIP3    H129381   5.921   0.689   6.897  0.9280 -0.5016  3.2909
 2582TIP3    H229382   5.788   0.759   6.917  0.0885 -0.1176 -2.1097
 2583TIP3   OH229383   3.440   3.087   2.247 -0.6021 -0.1468  0.6406
 2583TIP3    H129384   3.403   2.999   2.236  1.8483 -1.1478 -0.0648
 2583TIP3    H229385   3.382   3.128   2.311 -2.6220 -1.7624 -0.0346
 2584TIP3   OH229386   1.791   1.801   6.904  0.3301  0.2516 -0.3657
 2584TIP3    H129387   1.815   1.713   6.876  0.7570  0.1194  0.3853
 2584TIP3    H229388   1.748   1.789   6.989  0.2680  0.7495 -0.3219
 2585TIP3   OH229389   1.183   5.250   1.573  0.0904  0.1254  0.0145
 2585TIP3    H129390   1.243   5.314   1.534 -0.5473  0.4774 -0.4006
 2585TIP3    H229391   1.179   5.179   1.509 -0.4394  0.3995 -0.2591
 2586TIP3   OH229392   2.572   3.421   0.895 -0.0661  0.0881 -0.8420
 2586TIP3    H129393   2.632   3.438   0.967 -0.4015 -1.1599 -0.2482
 2586TIP3    H229394   2.624   3.371   0.832  0.0805  0.7435 -1.2517
 2587TIP3   OH229395   1.997   4.366   8.178  0.1699 -0.0141 -0.3295
 2587TIP3    H129396   2.058   4.320   8.235 -1.8174 -0.7276  1.3301
 2587TIP3    H229397   1.964   4.298   8.119  1.5948  0.5591 -1.8891
 2588TIP3   OH229398   1.920   0.907   8.843 -0.0237 -0.0255 -0.6566
 2588TIP3    H129399   1.843   0.850   8.849  0.4629 -0.5536  1.2558
 2588TIP3    H229400   1.994   0.850   8.863  0.3061  1.5524  3.5467
 2589TIP3   OH229401   0.482   5.024   1.430  0.8605 -0.7412  0.3663
 2589TIP3    H129402   0.541   5.071   1.370  1.5055 -0.1916  1.4113
 2589TIP3    H229403   0.486   4.933   1.400  1.9229 -0.6414  0.1604
 2590TIP3   OH229404   4.096   2.353   7.235 -0.3990 -0.1482 -0.2437
 2590TIP3    H129405   4.155   2.282   7.212  0.3843  0.4559 -0.1368
 2590TIP3    H229406   4.114   2.372   7.327 -1.2240 -0.3872 -0.0216
 2591TIP3   OH229407   5.688   5.902   8.052 -0.1575 -0.0709  0.1401
 2591TIP3    H129408   5.603   5.941   8.033  0.4065  1.2580  0.1936
 2591TIP3    H229409   5.751   5.957   8.006  0.5827 -2.0819 -1.3934
 2592TIP3   OH229410   3.103   4.424   7.898 -0.3411 -0.0834  0.3709
 2592TIP3    H129411   3.046   4.488   7.857 -1.0262  0.7614  2.5409
 2592TIP3    H229412   3.062   4.339   7.878 -1.0384  0.3501 -0.0662
 2593TIP3   OH229413   0.352   6.286   8.723  0.4543  0.3781 -0.4715
 2593TIP3    H129414   0.428   6.328   8.764  0.6707 -0.0585 -0.4186
 2593TIP3    H229415   0.304   6.358   8.683  0.7150  0.7029 -0.2136
 2594TIP3   OH229416   3.629   1.194   2.539  0.2967 -0.1332  0.0650
 2594TIP3    H129417   3.567   1.133   2.578  1.4243 -0.7185  1.0083
 2594TIP3    H229418   3.575   1.269   2.512 -1.3537 -2.0076 -2.3749
 2595TIP3   OH229419   5.960   0.724   0.967  0.2507  0.4101  0.1806
 2595TIP3    H129420   5.939   0.742   0.876  2.0478  0.3352 -0.2842
 2595TIP3    H229421   5.988   0.808   1.003 -0.2786  0.4037  0.6272
 2596TIP3   OH229422   6.736   0.149   6.563  0.0954 -0.3852 -0.8810
 2596TIP3    H129423   6.684   0.211   6.511 -0.7984 -0.9639 -0.7005
 2596TIP3    H229424   6.699   0.156   6.652 -1.1648 -2.3770 -1.1995
 2597TIP3   OH229425   2.323   2.872   1.403  0.0735 -0.3516  0.1971
 2597TIP3    H129426   2.274   2.925   1.340 -1.4519 -0.6992  1.0462
 2597TIP3    H229427   2.337   2.788   1.358  0.9357  0.1528 -0.4871
 2598TIP3   OH229428   2.998   1.168   0.987  0.4868  0.0932  0.4615
 2598TIP3    H129429   3.048   1.108   1.041  0.7987  0.5675  0.7000
 2598TIP3    H229430   2.946   1.111   0.930  0.0747 -0.4065  1.3266
 2599TIP3   OH229431   4.739   4.307   6.639  0.2520 -0.6848  0.1043
 2599TIP3    H129432   4.806   4.376   6.635 -1.1479  0.7153 -0.7143
 2599TIP3    H229433   4.693   4.314   6.555  0.2004 -2.8057 -0.0936
 2600TIP3   OH229434   2.592   5.072   7.822 -0.5950 -0.0232  0.1334
 2600TIP3    H129435   2.499   5.053   7.815 -0.9329  2.0382 -2.5422
 2600TIP3    H229436   2.635   4.987   7.815 -2.2307 -0.9839  1.2621
 2601TIP3   OH229437   1.765   6.567   2.339  0.2677 -0.1329  0.3388
 2601TIP3    H129438   1.789   6.477   2.361  1.9475  0.2751  0.2782
 2601TIP3    H229439   1.836   6.621   2.375  0.0450  1.0471 -0.9138
 2602TIP3   OH229440   2.740   5.357   0.650  0.4387 -0.5851  0.8497
 2602TIP3    H129441   2.656   5.346   0.605  1.6091  1.0378 -2.0598
 2602TIP3    H229442   2.728   5.435   0.704  0.6637  1.1829 -1.4867
 2603TIP3   OH229443   0.090   3.378   8.542  0.0660  0.0645  0.3795
 2603TIP3    H129444   0.164   3.438   8.549  0.4045 -0.4716  1.8044
 2603TIP3    H229445   0.016   3.427   8.578  0.6031 -0.7248  2.7545
 2604TIP3   OH229446   2.002   0.275   7.658  0.7821  0.1764  0.1079
 2604TIP3    H129447   2.031   0.190   7.627 -0.2520  0.1942 -0.9525
 2604TIP3    H229448   2.079   0.332   7.649  1.2617 -0.4556  0.1411
 2605TIP3   OH229449   0.297   1.118   0.065  0.1198  0.3547  0.2148
 2605TIP3    H129450   0.223   1.165   0.103  0.2700 -1.1788  2.6181
 2605TIP3    H229451   0.350   1.187   0.025 -3.3673  1.3845 -3.3563
 2606TIP3   OH229452   5.366   4.071   8.688  0.4400 -0.5167 -0.6062
 2606TIP3    H129453   5.367   4.103   8.778 -1.3205  0.1298 -0.7713
 2606TIP3    H229454   5.363   3.976   8.696  0.5483 -0.4702  0.0101
 2607TIP3   OH229455   2.196   4.816   0.050 -0.1487 -0.3624 -0.3057
 2607TIP3    H129456   2.111   4.812   0.007  0.1904  1.5011 -1.2683
 2607TIP3    H229457   2.176   4.827   0.143 -0.9818  0.5067 -0.5712
 2608TIP3   OH229458   4.810   4.607   8.431 -0.8647 -0.0396  0.0131
 2608TIP3    H129459   4.900   4.638   8.439 -0.3266 -1.5837  0.4637
 2608TIP3    H229460   4.767   4.669   8.372  1.2619 -0.7826 -2.4852
 2609TIP3   OH229461   3.336   0.713   7.595 -0.4330 -0.9858 -0.1593
 2609TIP3    H129462   3.354   0.807   7.594  1.6289 -1.3152  0.5319
 2609TIP3    H229463   3.336   0.687   7.503 -2.5965 -0.1009 -0.4712
 2610TIP3   OH229464   2.116   4.400   8.785  0.0469 -0.2317  0.3854
 2610TIP3    H129465   2.106   4.487   8.745 -0.4829 -0.7050 -0.5444
 2610TIP3    H229466   2.179   4.355   8.728  1.8380  0.1657  1.9445
 2611TIP3   OH229467   3.187   0.601   0.603  0.2195  0.0672 -0.3284
 2611TIP3    H129468   3.244   0.541   0.554 -0.2429 -0.4542 -0.2453
 2611TIP3    H229469   3.237   0.623   0.681  0.6702  0.3285 -0.6823
 2612TIP3   OH229470   0.158   4.532   8.126 -0.0057 -0.1131 -0.1122
 2612TIP3    H129471   0.113   4.614   8.147  0.0221  0.0769 -0.7765
 2612TIP3    H229472   0.237   4.534   8.180  0.6956  0.9537 -1.1183
 2613TIP3   OH229473   5.868   4.588   1.260 -0.2482 -0.0323  0.1944
 2613TIP3    H129474   5.938   4.545   1.309  0.9578  1.2373 -0.3775
 2613TIP3    H229475   5.885   4.681   1.270  0.5390  0.3116 -3.2451
 2614TIP3   OH229476   2.063   0.603   8.779  0.1046 -0.3373  0.4386
 2614TIP3    H129477   2.081   0.512   8.804  1.8597 -0.1914 -0.1934
 2614TIP3    H229478   2.147   0.648   8.791 -0.3340  0.8539 -0.7999
 2615TIP3   OH229479   0.850   6.677   2.670 -0.1421  0.4102  0.3865
 2615TIP3    H129480   0.885   6.639   2.589  0.9109 -0.3305  1.1548
 2615TIP3    H229481   0.907   6.642   2.739 -0.0938  2.1899  1.3090
 2616TIP3   OH229482   4.986   3.455   6.831  0.1885 -0.1884  0.3279
 2616TIP3    H129483   5.027   3.405   6.901 -0.7313 -0.5488  0.6231
 2616TIP3    H229484   4.899   3.417   6.822  0.6678 -0.9201 -1.7925
 2617TIP3   OH229485   3.738   6.139   6.419 -0.5095 -0.0684 -0.1756
 2617TIP3    H129486   3.676   6.118   6.349  0.2494 -0.5124 -0.7346
 2617TIP3    H229487   3.689   6.123   6.499 -1.4068  0.4783 -0.5945
 2618TIP3   OH229488   2.156   4.819   8.137 -0.0403  0.5008  0.0047
 2618TIP3    H129489   2.108   4.880   8.192 -1.1554  0.8107 -1.2562
 2618TIP3    H229490   2.101   4.740   8.134  0.2857  0.2765 -0.2042
 2619TIP3   OH229491   5.624   0.274   1.672 -0.4112  0.7299  0.2470
 2619TIP3    H129492   5.687   0.212   1.708 -1.6280 -0.0326  1.1464
 2619TIP3    H229493   5.639   0.355   1.722 -1.1639  0.0876  1.5576
 2620TIP3   OH229494   1.620   6.347   2.512  0.2388  0.5579 -0.6816
 2620TIP3    H129495   1.706   6.347   2.471  1.2633  0.5568  1.3358
 2620TIP3    H229496   1.591   6.256   2.507  0.5569  0.4719 -0.9754
 2621TIP3   OH229497   0.142   2.267   6.801  0.2519 -0.1974  0.2001
 2621TIP3    H129498   0.216   2.242   6.857  0.1063 -1.2232 -0.0540
 2621TIP3    H229499   0.069   2.214   6.833 -0.3710  0.7554  0.4041
 2622TIP3   OH229500   2.685   0.235   0.970 -0.0058 -0.1586  0.0513
 2622TIP3    H129501   2.740   0.302   1.010 -0.5029 -0.5541  1.4493
 2622TIP3    H229502   2.702   0.243   0.876  1.2625  0.7461  0.3295
 2623TIP3   OH229503   0.252   6.767   8.092 -0.9918 -0.6597 -0.3517
 2623TIP3    H129504   0.328   6.714   8.070 -2.2421 -3.0638  0.8215
 2623TIP3    H229505   0.288   6.840   8.143  0.6553 -0.9855 -0.9865
 2624TIP3   OH229506   4.414   4.452   0.826  0.1328 -0.2327 -0.2047
 2624TIP3    H129507   4.436   4.367   0.863  1.6082  0.1691 -0.0876
 2624TIP3    H229508   4.342   4.484   0.880 -0.9786 -1.7021 -0.7240
 2625TIP3   OH229509   2.450   1.739   1.518  0.0398  0.1032 -0.4584
 2625TIP3    H129510   2.426   1.823   1.558 -0.0590  0.2095 -0.7363
 2625TIP3    H229511   2.386   1.727   1.448 -0.2618 -0.4520 -0.0937
 2626TIP3   OH229512   0.562   3.013   7.390  0.1931  0.6179  0.1091
 2626TIP3    H129513   0.651   3.042   7.410  0.2749  1.8409 -1.7588
 2626TIP3    H229514   0.510   3.094   7.389 -1.3114 -0.1993  2.5432
 2627TIP3   OH229515   4.130   5.473   2.138  0.0580 -0.3676 -0.2347
 2627TIP3    H129516   4.128   5.440   2.049  1.2877 -3.6456  0.7994
 2627TIP3    H229517   4.144   5.396   2.192  1.1541  1.6852  2.6894
 2628TIP3   OH229518   6.597   1.302   7.414  0.8596  0.2224  0.1501
 2628TIP3    H129519   6.638   1.233   7.466 -0.0182 -0.0262  0.5220
 2628TIP3    H229520   6.506   1.276   7.407  0.6373  1.0632 -0.1816
 2629TIP3   OH229521   0.008   3.541   0.827  0.2239  0.0170 -0.1558
 2629TIP3    H129522   0.040   3.560   0.739  0.5119  0.5043  0.0548
 2629TIP3    H229523   0.084   3.505   0.873  0.1364 -0.0104 -0.0318
 2630TIP3   OH229524   5.252   1.187   1.554 -0.4483  0.9014 -0.0915
 2630TIP3    H129525   5.237   1.156   1.643 -1.1342  0.7105 -0.2738
 2630TIP3    H229526   5.306   1.120   1.514 -2.0902 -0.1993 -0.5499
 2631TIP3   OH229527   1.229   3.771   1.652 -0.1930 -0.6479  0.2856
 2631TIP3    H129528   1.289   3.722   1.707 -1.0320 -0.4743  1.3801
 2631TIP3    H229529   1.166   3.811   1.713 -0.9827 -0.2232 -0.7641
 2632TIP3   OH229530   2.337   3.711   0.217  0.8181  0.2775 -0.3469
 2632TIP3    H129531   2.339   3.634   0.274  1.6653  0.6293  0.1184
 2632TIP3    H229532   2.261   3.760   0.246  0.5757 -0.1218 -0.2967
 2633TIP3   OH229533   2.409   5.614   0.690 -0.8323  0.5039 -0.4846
 2633TIP3    H129534   2.387   5.641   0.601 -1.1431  0.0596 -0.5438
 2633TIP3    H229535   2.499   5.644   0.703  0.0027 -1.3067 -1.7117
 2634TIP3   OH229536   3.689   4.691   6.476  0.2867 -0.3998 -0.3314
 2634TIP3    H129537   3.673   4.749   6.402 -0.4589  0.3350  0.3785
 2634TIP3    H229538   3.604   4.684   6.519  0.1304 -2.7462 -0.8901
 2635TIP3   OH229539   5.092   1.740   0.713 -0.1928  0.0972  0.2336
 2635TIP3    H129540   5.091   1.644   0.712  1.1678 -0.0172  2.5539
 2635TIP3    H229541   5.172   1.762   0.761  0.1841  2.4470 -1.3325
 2636TIP3   OH229542   4.248   0.646   8.044 -0.1997 -0.1241 -0.0015
 2636TIP3    H129543   4.321   0.667   7.986 -0.3996 -0.5212 -0.3999
 2636TIP3    H229544   4.281   0.578   8.102  0.0075  0.2897  0.3671
 2637TIP3   OH229545   4.146   3.539   8.262  0.1793 -0.1973  0.1404
 2637TIP3    H129546   4.157   3.463   8.319 -0.3377 -1.5192 -1.4325
 2637TIP3    H229547   4.067   3.583   8.294  0.6012 -0.1988  1.1943
 2638TIP3   OH229548   2.788   5.190   8.236 -0.8211  0.3881  0.3227
 2638TIP3    H129549   2.883   5.183   8.238 -0.8100  0.0810 -0.6179
 2638TIP3    H229550   2.763   5.211   8.326 -0.0562 -2.3104  1.2885
 2639TIP3   OH229551   5.383   4.065   7.302  0.3450 -0.1556  0.0255
 2639TIP3    H129552   5.397   3.995   7.238  1.2803  0.4013 -0.4004
 2639TIP3    H229553   5.333   4.131   7.254  2.0679  0.8004 -0.5633
 2640TIP3   OH229554   1.147   0.677   2.232  0.3855  0.4053 -0.1095
 2640TIP3    H129555   1.163   0.600   2.177 -1.5054 -0.3090  0.2615
 2640TIP3    H229556   1.217   0.738   2.209  1.7254 -1.2705 -0.6794
 2641TIP3   OH229557   1.528   1.335   7.134 -0.5646  0.1706  0.0825
 2641TIP3    H129558   1.519   1.262   7.072  1.2741 -1.6061  1.7556
 2641TIP3    H229559   1.613   1.375   7.112 -0.9403  0.9742  0.0497
 2642TIP3   OH229560   4.374   6.246   0.588  0.1757  0.3985  0.5323
 2642TIP3    H129561   4.318   6.309   0.633 -0.0785 -0.3852  1.3376
 2642TIP3    H229562   4.383   6.281   0.499 -3.4067 -0.5665 -0.3492
 2643TIP3   OH229563   6.391   6.272   0.475 -0.2796 -0.4298  0.3174
 2643TIP3    H129564   6.310   6.223   0.483 -0.6091 -0.0996 -0.8044
 2643TIP3    H229565   6.369   6.360   0.506 -0.1056 -0.5636  0.8375
 2644TIP3   OH229566   6.371   2.143   8.772 -0.3803  0.0022 -0.3492
 2644TIP3    H129567   6.313   2.199   8.719  1.6860  0.4613 -2.2708
 2644TIP3    H229568   6.329   2.057   8.771 -1.5009  0.5324 -0.8556
 2645TIP3   OH229569   0.660   2.573   8.256 -0.1164 -0.0930  0.3859
 2645TIP3    H129570   0.596   2.620   8.310  0.6652 -1.2448  2.4491
 2645TIP3    H229571   0.696   2.640   8.198 -2.2150  0.8577  0.0703
 2646TIP3   OH229572   1.455   4.488   8.793 -0.1203  0.0761 -0.6142
 2646TIP3    H129573   1.460   4.576   8.756 -1.3800 -0.0868 -1.2090
 2646TIP3    H229574   1.369   4.484   8.835  0.2345 -0.6191  0.0872
 2647TIP3   OH229575   1.645   3.116   8.706 -0.0061 -0.4443  0.1741
 2647TIP3    H129576   1.659   3.045   8.644 -2.0482 -0.1747 -0.6640
 2647TIP3    H229577   1.551   3.116   8.722  0.3344  0.1264  2.5508
 2648TIP3   OH229578   1.157   6.533   7.375  0.1821  0.7178  0.0736
 2648TIP3    H129579   1.225   6.471   7.399  1.1931  0.8605 -2.1769
 2648TIP3    H229580   1.189   6.618   7.407  0.8709  0.7120 -0.5685
 2649TIP3   OH229581   4.998   6.233   1.013  0.0806  0.2856  0.3054
 2649TIP3    H129582   5.032   6.285   1.086 -3.1872  3.2424 -0.0360
 2649TIP3    H229583   4.912   6.205   1.041  0.6507 -2.7954 -0.6549
 2650TIP3   OH229584   2.610   0.227   7.076 -0.1379 -0.0558 -0.0182
 2650TIP3    H129585   2.542   0.294   7.068  0.2338  0.2527 -0.7026
 2650TIP3    H229586   2.656   0.230   6.992 -0.0968 -1.1514 -0.0495
 2651TIP3   OH229587   4.198   2.008   8.248  0.1793  0.0521 -0.3408
 2651TIP3    H129588   4.201   2.051   8.162 -0.8415 -0.5934 -0.7301
 2651TIP3    H229589   4.106   2.014   8.274  0.2476 -0.8136  0.1494
 2652TIP3   OH229590   0.676   2.319   8.153  0.1415  0.0720  0.2573
 2652TIP3    H129591   0.664   2.408   8.185 -1.6815 -0.3359  0.8550
 2652TIP3    H229592   0.634   2.264   8.220 -0.3458 -1.0966 -0.9720
 2653TIP3   OH229593   6.423   4.223   2.213  0.5788 -0.1625  0.2183
 2653TIP3    H129594   6.388   4.137   2.235  0.0551  0.0148  0.0960
 2653TIP3    H229595   6.367   4.285   2.260 -0.7553  0.2451 -1.7907
 2654TIP3   OH229596   2.774   2.851   7.442  0.7930 -0.3534 -0.0860
 2654TIP3    H129597   2.720   2.901   7.503  1.9017  0.9455 -0.1144
 2654TIP3    H229598   2.798   2.772   7.490 -0.2316 -0.4477  0.3037
 2655TIP3   OH229599   3.314   2.158   0.624  0.0911  0.5692  0.3782
 2655TIP3    H129600   3.375   2.161   0.550 -0.1586  0.9816  0.1835
 2655TIP3    H229601   3.349   2.221   0.686  0.5566 -0.1121  0.8209
 2656TIP3   OH229602   2.810   5.305   0.283 -0.3691  0.1236  0.2308
 2656TIP3    H129603   2.897   5.269   0.296 -0.4418  0.1340  0.7544
 2656TIP3    H229604   2.770   5.306   0.370 -1.8918 -2.4084 -0.3445
 2657TIP3   OH229605   5.028   0.188   1.208 -0.4110 -0.0505 -0.2018
 2657TIP3    H129606   5.021   0.276   1.245 -0.6165  0.8790 -2.3071
 2657TIP3    H229607   4.938   0.154   1.212 -0.5526  0.2900 -0.4091
 2658TIP3   OH229608   2.907   0.611   6.805 -0.6708 -0.0714  0.4900
 2658TIP3    H129609   2.844   0.611   6.733 -0.0990  3.1905 -0.1448
 2658TIP3    H229610   2.991   0.628   6.763 -0.0314  0.0572  1.7688
 2659TIP3   OH229611   4.825   0.844   0.375 -0.2857  0.2457 -0.0876
 2659TIP3    H129612   4.911   0.824   0.412 -0.6855  0.3746  0.9485
 2659TIP3    H229613   4.766   0.780   0.415 -0.5800 -0.2197 -1.2408
 2660TIP3   OH229614   0.676   2.679   0.960 -0.0675  0.2162  0.2573
 2660TIP3    H129615   0.765   2.685   0.925  0.6222 -0.9305  1.6843
 2660TIP3    H229616   0.620   2.667   0.883  0.8303  2.2427 -0.7799
 2661TIP3   OH229617   1.627   1.657   7.098 -0.9018  0.1685 -0.2923
 2661TIP3    H129618   1.556   1.707   7.057 -1.3808 -0.0850  0.2179
 2661TIP3    H229619   1.615   1.568   7.064 -1.0355  0.0522  0.0569
 2662TIP3   OH229620   4.492   3.473   8.267 -0.1337 -0.4927 -0.0953
 2662TIP3    H129621   4.438   3.450   8.192  0.2040 -0.3508 -0.3827
 2662TIP3    H229622   4.582   3.457   8.239 -0.0041 -0.4655  0.2881
 2663TIP3   OH229623   3.859   3.056   2.108  0.1293  0.5568  0.1996
 2663TIP3    H129624   3.838   2.969   2.142  0.3397  1.6938  3.6040
 2663TIP3    H229625   3.948   3.048   2.076  0.5906 -0.2538  1.5794
 2664TIP3   OH229626   3.100   4.604   0.668  0.2147  0.5817  0.0916
 2664TIP3    H129627   3.138   4.635   0.751 -0.2999  1.5266 -0.0107
 2664TIP3    H229628   3.006   4.619   0.678  0.1062  0.3162 -0.5155
 2665TIP3   OH229629   6.542   1.590   1.963 -0.2050  0.1491 -0.4622
 2665TIP3    H129630   6.488   1.665   1.937 -0.3423 -0.1245 -0.9785
 2665TIP3    H229631   6.511   1.569   2.051 -1.0540 -0.0965 -0.8072
 2666TIP3   OH229632   0.401   4.763   6.872 -0.3960  0.2988  0.3326
 2666TIP3    H129633   0.455   4.770   6.793 -0.8812  1.8466  0.1212
 2666TIP3    H229634   0.418   4.844   6.920 -2.0284  0.5095  0.5842
 2667TIP3   OH229635   4.553   5.153   8.777  0.0359  0.1896  0.1353
 2667TIP3    H129636   4.633   5.203   8.792 -0.0017  0.0280  0.9356
 2667TIP3    H229637   4.578   5.083   8.718  0.5270  0.0341  0.5281
 2668TIP3   OH229638   1.052   5.134   8.566 -0.5661  0.0601 -0.4728
 2668TIP3    H129639   1.114   5.104   8.500  0.1313  2.3179 -0.9455
 2668TIP3    H229640   0.967   5.128   8.523 -0.1035  1.6704 -1.7183
 2669TIP3   OH229641   4.604   0.846   2.052 -0.3037  0.1716  0.0582
 2669TIP3    H129642   4.660   0.878   2.123 -0.5210 -1.7768  1.1810
 2669TIP3    H229643   4.666   0.815   1.986 -0.0271 -0.9251  0.7998
 2670TIP3   OH229644   4.674   4.962   0.533  0.0656  0.3213  0.0078
 2670TIP3    H129645   4.661   5.048   0.571  0.3721  0.6569 -0.6384
 2670TIP3    H229646   4.658   4.901   0.606  0.5724  0.9430  0.6473
 2671TIP3   OH229647   1.405   1.040   7.248 -0.1668  0.5408  0.0944
 2671TIP3    H129648   1.372   1.109   7.191 -0.7955  1.0461  1.0439
 2671TIP3    H229649   1.484   1.077   7.287 -0.2047  0.5206  0.1910
 2672TIP3   OH229650   2.054   1.198   1.150 -0.4016  0.0733  0.1551
 2672TIP3    H129651   2.122   1.132   1.164 -0.2336 -0.1525 -1.5547
 2672TIP3    H229652   1.989   1.155   1.095 -0.4111  1.2186 -0.7866
 2673TIP3   OH229653   0.707   1.254   8.343 -0.4641  0.0195 -0.2994
 2673TIP3    H129654   0.634   1.209   8.384 -0.7377  1.6610  1.1417
 2673TIP3    H229655   0.675   1.281   8.257 -1.0088 -0.6566 -0.3069
 2674TIP3   OH229656   1.476   1.889   1.923  0.0070  0.3355 -0.0062
 2674TIP3    H129657   1.446   1.975   1.892  2.1327  1.2310  0.2708
 2674TIP3    H229658   1.424   1.873   2.002 -0.9696  0.9898 -0.5015
 2675TIP3   OH229659   3.617   3.375   7.943  0.1264  0.6685  0.1622
 2675TIP3    H129660   3.610   3.295   7.995  0.4064  1.3105  1.2417
 2675TIP3    H229661   3.650   3.441   8.005  3.2964  0.8236 -1.4994
 2676TIP3   OH229662   0.497   0.748   1.365 -0.3044 -0.7514 -1.2207
 2676TIP3    H129663   0.520   0.677   1.425  1.2276 -0.0102 -0.8870
 2676TIP3    H229664   0.469   0.820   1.422 -1.0963 -0.8067 -1.5231
 2677TIP3   OH229665   1.350   3.468   1.251 -0.5376  0.5195  0.0305
 2677TIP3    H129666   1.424   3.452   1.191 -1.4442  0.7656 -1.1907
 2677TIP3    H229667   1.332   3.561   1.241  2.1799  1.7796  4.1460
 2678TIP3   OH229668   1.245   3.049   1.221 -0.7415  0.3531 -0.6658
 2678TIP3    H129669   1.189   3.120   1.253 -0.6829  1.0304 -2.0244
 2678TIP3    H229670   1.186   2.991   1.173 -0.4721  0.4640 -1.1311
 2679TIP3   OH229671   5.192   2.709   8.243  0.2810  0.1648 -0.1522
 2679TIP3    H129672   5.114   2.711   8.188 -0.0505 -1.0233  0.2517
 2679TIP3    H229673   5.230   2.796   8.233 -0.8139  0.5989 -0.7549
 2680TIP3   OH229674   6.230   6.390   8.648  0.3074 -0.0116  0.3014
 2680TIP3    H129675   6.146   6.434   8.662  0.7453  0.5379  1.3224
 2680TIP3    H229676   6.272   6.442   8.579 -0.0681 -0.1290 -0.0239
 2681TIP3   OH229677   6.705   1.587   8.028 -0.0877  0.5117  0.2375
 2681TIP3    H129678   6.686   1.528   8.101 -2.2036  2.0197  1.0259
 2681TIP3    H229679   6.796   1.613   8.040  0.4337 -1.4225  0.7023
 2682TIP3   OH229680   4.777   6.652   7.098  0.0986 -0.4355  0.1453
 2682TIP3    H129681   4.687   6.652   7.068 -0.1192 -1.6518  0.7200
 2682TIP3    H229682   4.829   6.638   7.019 -0.3969 -2.4443  0.1278
 2683TIP3   OH229683   2.459   0.602   0.653 -0.7198 -0.0676  0.3077
 2683TIP3    H129684   2.378   0.559   0.680 -0.3260 -0.4681  0.8994
 2683TIP3    H229685   2.465   0.680   0.709 -0.9559  0.2408 -0.0969
 2684TIP3   OH229686   2.162   3.244   8.292  0.3335  0.3026  0.3688
 2684TIP3    H129687   2.167   3.325   8.241  0.3664  1.2015  1.7566
 2684TIP3    H229688   2.174   3.175   8.227 -0.0506  1.3822 -0.9047
 2685TIP3   OH229689   1.008   0.590   0.210  0.0324  0.4150 -0.1678
 2685TIP3    H129690   0.937   0.581   0.272  0.0187  1.6496  0.0347
 2685TIP3    H229691   1.073   0.644   0.255  0.7356 -0.0075 -0.6438
 2686TIP3   OH229692   4.372   0.442   8.169  0.5938  0.3775 -0.6254
 2686TIP3    H129693   4.290   0.419   8.213  1.9659 -4.5381  0.0011
 2686TIP3    H229694   4.440   0.420   8.233  2.5079  2.4512 -1.8210
 2687TIP3   OH229695   3.575   2.224   8.519  0.0146  0.0198 -0.1535
 2687TIP3    H129696   3.533   2.162   8.458  2.0731 -0.2522 -1.3993
 2687TIP3    H229697   3.548   2.310   8.488  0.5044 -0.1455 -1.0940
 2688TIP3   OH229698   3.718   5.503   0.791 -0.2784 -0.3380  0.1541
 2688TIP3    H129699   3.774   5.434   0.754  0.4828 -0.7666  1.9819
 2688TIP3    H229700   3.694   5.470   0.877 -3.0087  0.0614 -0.3739
 2689TIP3   OH229701   5.476   0.189   7.524  0.1267 -0.0441 -0.1131
 2689TIP3    H129702   5.456   0.095   7.520 -2.0928  0.3013  0.9408
 2689TIP3    H229703   5.451   0.222   7.438  0.9466 -0.4038 -0.5009
 2690TIP3   OH229704   2.785   3.795   7.567  0.0068 -0.1965 -0.2192
 2690TIP3    H129705   2.867   3.774   7.612  0.1759  1.6902  0.4342
 2690TIP3    H229706   2.747   3.709   7.546  0.5997 -1.1495  2.2700
 2691TIP3   OH229707   3.349   4.414   8.061  0.0765  0.1615 -0.3706
 2691TIP3    H129708   3.290   4.402   7.987  1.2784  0.4980 -1.4118
 2691TIP3    H229709   3.413   4.344   8.053  0.6245  0.6162 -0.0599
 2692TIP3   OH229710   4.897   5.660   8.384  0.2349  0.5675  0.6540
 2692TIP3    H129711   4.987   5.628   8.381 -0.0713 -0.2409 -0.2694
 2692TIP3    H229712   4.883   5.682   8.476  1.1500  0.0499  0.9318
 2693TIP3   OH229713   4.844   5.391   0.773  0.9441 -0.2789 -0.2040
 2693TIP3    H129714   4.842   5.347   0.858 -1.6311  0.7548  0.3464
 2693TIP3    H229715   4.895   5.470   0.787  2.1733 -1.0503 -0.1694
 2694TIP3   OH229716   4.299   4.642   1.409  0.3336 -0.1523 -0.0393
 2694TIP3    H129717   4.389   4.613   1.392  0.7145  0.7740  0.3224
 2694TIP3    H229718   4.267   4.582   1.477  1.0831  0.2213  0.6636
 2695TIP3   OH229719   6.561   4.498   2.230  0.1727  0.1408 -0.2424
 2695TIP3    H129720   6.566   4.447   2.149 -1.1291 -1.4712  0.6070
 2695TIP3    H229721   6.572   4.432   2.299 -2.9759  0.6805  0.9458
 2696TIP3   OH229722   3.388   5.016   8.409 -0.0836 -0.1161 -0.0769
 2696TIP3    H129723   3.318   4.985   8.351  1.0272  0.3165 -1.7312
 2696TIP3    H229724   3.409   4.942   8.465 -1.7390 -0.2992  0.3530
 2697TIP3   OH229725   2.580   5.233   8.077  0.3465 -0.8204 -0.1085
 2697TIP3    H129726   2.622   5.202   7.997  0.4693  1.9911 -1.2311
 2697TIP3    H229727   2.652   5.242   8.140  1.0468  1.1265 -1.1066
 2698TIP3   OH229728   4.038   2.914   7.114 -0.1421  0.2246  0.0994
 2698TIP3    H129729   3.980   2.846   7.080  1.3280 -0.9061 -0.2618
 2698TIP3    H229730   4.057   2.969   7.038 -0.9791  0.7989  0.2929
 2699TIP3   OH229731   4.896   1.768   1.733  0.6025 -1.2091  0.3101
 2699TIP3    H129732   4.839   1.844   1.748  0.6172 -1.3263  1.0269
 2699TIP3    H229733   4.959   1.797   1.668  0.0069 -0.9226 -0.1432
 2700TIP3   OH229734   0.148   1.902   7.901 -0.0450  0.7065 -0.0624
 2700TIP3    H129735   0.235   1.922   7.866 -0.7333  0.1830 -2.2233
 2700TIP3    H229736   0.087   1.934   7.835 -1.5332  0.9980  1.3768
 2701TIP3   OH229737   5.829   1.551   1.657 -0.1707  0.1397  0.1208
 2701TIP3    H129738   5.824   1.645   1.640  2.3687  0.4541  0.6929
 2701TIP3    H229739   5.912   1.540   1.705 -0.9004 -2.2657  0.9581
 2702TIP3   OH229740   5.916   2.949   0.956 -0.3124  0.3344  0.2302
 2702TIP3    H129741   5.943   2.865   0.993  0.2104  1.6098  2.9947
 2702TIP3    H229742   5.989   2.976   0.900 -0.0933 -0.6225  0.0467
 2703TIP3   OH229743   0.194   3.781   7.258  0.3537  0.0980  0.3959
 2703TIP3    H129744   0.286   3.762   7.242  0.3961  0.5564  0.0493
 2703TIP3    H229745   0.147   3.731   7.191  0.3228 -0.4162  0.7959
 2704TIP3   OH229746   2.358   1.277   1.879 -0.0129  0.0241 -0.0179
 2704TIP3    H129747   2.365   1.349   1.817 -0.8843  0.6157  0.5441
 2704TIP3    H229748   2.443   1.233   1.875 -0.0753  0.0210 -1.6407
 2705TIP3   OH229749   5.651   1.028   1.560  0.2246 -0.3466  0.1779
 2705TIP3    H129750   5.687   1.113   1.586 -1.1120  0.6612 -1.0750
 2705TIP3    H229751   5.696   1.006   1.479  1.8488 -1.7591  1.3974
 2706TIP3   OH229752   1.814   4.600   0.170  0.1788  0.0408  0.3010
 2706TIP3    H129753   1.838   4.513   0.138  0.6852  0.0043  0.7634
 2706TIP3    H229754   1.781   4.585   0.259  1.9124  0.4947  1.0673
 2707TIP3   OH229755   2.870   1.275   6.066 -0.1421  0.1442 -0.4980
 2707TIP3    H129756   2.909   1.348   6.115 -0.2424 -0.2838  0.2330
 2707TIP3    H229757   2.784   1.308   6.038 -0.0502  0.4177 -0.4651
 2708TIP3   OH229758   5.774   1.661   8.367  0.2993 -0.0399 -0.2775
 2708TIP3    H129759   5.853   1.631   8.411  0.6791  1.9629  0.4717
 2708TIP3    H229760   5.754   1.591   8.305  2.5220 -0.7035 -0.3288
 2709TIP3   OH229761   4.852   1.001   7.575 -0.3689 -0.3969  0.5259
 2709TIP3    H129762   4.799   1.023   7.652 -0.6989  1.5106 -0.1852
 2709TIP3    H229763   4.830   1.068   7.510 -0.5570 -2.2901 -1.4832
 2710TIP3   OH229764   1.502   5.883   6.371 -0.2380 -0.3541 -0.5713
 2710TIP3    H129765   1.545   5.877   6.456 -0.0850  2.2351 -0.3701
 2710TIP3    H229766   1.572   5.870   6.308  0.0885 -0.0730 -0.2701
 2711TIP3   OH229767   5.292   0.486   1.581  0.1088  0.2738  0.2062
 2711TIP3    H129768   5.319   0.569   1.542  1.9905 -0.6533 -0.6177
 2711TIP3    H229769   5.198   0.481   1.564  0.5886  0.4652 -3.3234
 2712TIP3   OH229770   6.607   3.349   8.152  0.0088  0.0606  1.0493
 2712TIP3    H129771   6.634   3.322   8.065  1.0307 -1.4332  1.7923
 2712TIP3    H229772   6.686   3.383   8.193 -0.2164 -0.2588  1.7631
 2713TIP3   OH229773   3.106   3.115   1.291 -0.6295  0.0457  0.4642
 2713TIP3    H129774   3.142   3.198   1.322 -1.0095 -0.3379  1.9857
 2713TIP3    H229775   3.023   3.139   1.249 -0.0292  0.5849 -0.4657
 2714TIP3   OH229776   2.293   3.818   6.932  0.2497  0.0940  0.4651
 2714TIP3    H129777   2.212   3.860   6.961 -0.7436 -0.3021 -1.5581
 2714TIP3    H229778   2.265   3.739   6.886  1.7892 -0.0367 -0.3310
 2715TIP3   OH229779   1.625   0.573   0.143 -0.4597  0.4529  0.6161
 2715TIP3    H129780   1.705   0.593   0.191 -0.0413 -1.2971  0.7070
 2715TIP3    H229781   1.561   0.553   0.211 -1.0122  1.9052  0.5460
 2716TIP3   OH229782   6.433   5.782   8.246  0.3262 -0.5918  0.0588
 2716TIP3    H129783   6.444   5.875   8.264 -0.0238 -0.3078 -1.0727
 2716TIP3    H229784   6.505   5.740   8.292  1.6651  0.4454 -0.9675
 2717TIP3   OH229785   1.362   2.671   8.797 -0.6355 -0.0528 -0.3234
 2717TIP3    H129786   1.268   2.651   8.800 -0.6711 -0.0002 -0.9831
 2717TIP3    H229787   1.400   2.615   8.864 -1.4186  1.5904  1.6204
 2718TIP3   OH229788   3.115   3.730   1.653 -0.2544 -0.4097 -0.7291
 2718TIP3    H129789   3.132   3.819   1.623 -0.9701  0.0656  0.2193
 2718TIP3    H229790   3.200   3.686   1.647  1.2003  1.5138  2.6929
 2719TIP3   OH229791   5.305   1.541   8.628 -0.0805 -0.1623  0.6131
 2719TIP3    H129792   5.390   1.524   8.586 -0.9424 -1.3257 -0.7449
 2719TIP3    H229793   5.278   1.625   8.593 -0.0995 -0.4244 -0.0175
 2720TIP3   OH229794   0.837   4.858   8.129 -0.5417  0.6832 -0.1362
 2720TIP3    H129795   0.801   4.946   8.143 -1.3335  0.4519 -0.6357
 2720TIP3    H229796   0.900   4.869   8.058  1.3585  1.3234  1.5606
 2721TIP3   OH229797   3.846   2.757   0.097  0.2293  0.0558  0.2769
 2721TIP3    H129798   3.905   2.695   0.053 -0.8867 -0.9554  0.1718
 2721TIP3    H229799   3.879   2.843   0.071  1.4180 -0.4921 -0.1063
 2722TIP3   OH229800   6.226   2.315   7.214  0.0838 -0.4636  0.1665
 2722TIP3    H129801   6.183   2.273   7.289 -1.2870  1.6033  0.6191
 2722TIP3    H229802   6.295   2.367   7.253  0.2566 -0.4555 -0.1517
 2723TIP3   OH229803   4.858   0.321   7.702  0.2943 -0.5527  0.0940
 2723TIP3    H129804   4.919   0.395   7.706  0.3603 -0.6656  1.4483
 2723TIP3    H229805   4.791   0.350   7.639  0.5845  0.4553  0.2198
 2724TIP3   OH229806   5.885   1.443   6.968  0.6543  0.5502 -0.1961
 2724TIP3    H129807   5.833   1.474   6.894  0.1176 -0.6732 -0.3576
 2724TIP3    H229808   5.923   1.361   6.938  2.3362  1.1925  0.0871
 2725TIP3   OH229809   5.334   1.836   0.901  0.4382 -0.2787 -0.4429
 2725TIP3    H129810   5.418   1.838   0.946  0.6092  2.7714 -0.7262
 2725TIP3    H229811   5.275   1.886   0.957 -0.7743 -0.9476 -1.0754
 2726TIP3   OH229812   4.847   0.683   1.227  0.4875 -0.5159 -0.5879
 2726TIP3    H129813   4.818   0.773   1.212  0.3512 -0.5756 -0.6878
 2726TIP3    H229814   4.839   0.640   1.142 -0.8174 -1.0011 -0.2513
 2727TIP3   OH229815   2.078   1.478   8.337  0.0305 -0.1356 -0.5823
 2727TIP3    H129816   2.155   1.425   8.315 -0.3099 -1.4580  1.1762
 2727TIP3    H229817   2.006   1.436   8.290  0.1442  0.3176 -1.1825
 2728TIP3   OH229818   1.858   3.498   1.857  0.3594  0.3492 -0.1258
 2728TIP3    H129819   1.790   3.499   1.790 -0.3370 -0.5229  0.5389
 2728TIP3    H229820   1.863   3.589   1.887 -0.7616  0.3764  0.0454
 2729TIP3   OH229821   2.900   3.331   7.285  0.2496  0.1778  0.2710
 2729TIP3    H129822   2.864   3.245   7.265 -0.9196  0.4577  1.0950
 2729TIP3    H229823   2.933   3.363   7.201 -0.6540 -0.4534 -0.3434
 2730TIP3   OH229824   2.451   3.523   1.630 -0.1750  0.2426 -0.0655
 2730TIP3    H129825   2.391   3.572   1.573  1.2367 -1.2813 -3.0359
 2730TIP3    H229826   2.424   3.432   1.619 -0.8936 -0.0417  3.1201
 2731TIP3   OH229827   3.821   5.790   1.160 -0.6109  0.1439  0.3248
 2731TIP3    H129828   3.904   5.811   1.116 -0.9601  0.1103 -0.3653
 2731TIP3    H229829   3.754   5.808   1.094 -0.9934 -2.5907 -0.1674
 2732TIP3   OH229830   2.438   2.217   7.767 -0.0244  0.4469  0.4146
 2732TIP3    H129831   2.361   2.219   7.710  0.7890  0.0987 -0.7311
 2732TIP3    H229832   2.436   2.129   7.805  0.7991 -0.2542 -1.0695
 2733TIP3   OH229833   1.213   2.372   7.365 -0.4197 -0.3538  0.0903
 2733TIP3    H129834   1.126   2.364   7.328 -0.2631 -0.5299 -0.2418
 2733TIP3    H229835   1.205   2.440   7.432 -0.6808  0.0278 -0.3283
 2734TIP3   OH229836   6.173   1.004   8.892  0.0035  0.0093  0.6566
 2734TIP3    H129837   6.078   1.007   8.882  0.2086  0.4805 -2.0655
 2734TIP3    H229838   6.192   1.060   8.967 -1.8876 -0.5715  1.6035
 2735TIP3   OH229839   3.327   1.443   6.808  0.3647  0.7000 -0.2182
 2735TIP3    H129840   3.395   1.399   6.859 -1.2873 -0.6846  0.8667
 2735TIP3    H229841   3.357   1.434   6.717  0.3310 -2.3749 -0.0193
 2736TIP3   OH229842   4.459   4.999   7.697 -0.3380  0.4426  0.3832
 2736TIP3    H129843   4.445   4.906   7.715 -0.7249  0.0688 -1.6058
 2736TIP3    H229844   4.553   5.006   7.682 -0.4516  0.1174 -0.5872
 2737TIP3   OH229845   1.534   5.216   7.118  0.0812  0.0304  0.0835
 2737TIP3    H129846   1.495   5.248   7.036 -0.1680  0.6539  0.4430
 2737TIP3    H229847   1.530   5.121   7.110 -0.7435  0.0805 -0.2551
 2738TIP3   OH229848   0.572   1.893   6.877 -0.0289  0.2269  1.1362
 2738TIP3    H129849   0.540   1.933   6.958 -1.0092 -0.4193  1.0911
 2738TIP3    H229850   0.655   1.937   6.859 -0.5168  1.4123  1.6931
 2739TIP3   OH229851   4.062   6.285   0.354 -0.1443  0.6259  0.3241
 2739TIP3    H129852   4.051   6.191   0.339  0.0092  0.8720 -1.5333
 2739TIP3    H229853   4.088   6.291   0.446  0.9148 -1.2276  0.1963
 2740TIP3   OH229854   5.513   6.209   0.482 -0.4756 -0.5124 -0.0712
 2740TIP3    H129855   5.491   6.269   0.554  0.6028  0.2377 -0.3323
 2740TIP3    H229856   5.541   6.267   0.411  0.8985 -1.3300 -0.2216
 2741TIP3   OH229857   1.039   4.910   2.388  0.1464  0.3581  0.0747
 2741TIP3    H129858   1.084   4.994   2.375 -0.1563  0.7165  1.2349
 2741TIP3    H229859   1.048   4.893   2.482  1.4800 -1.6579 -0.3610
 2742TIP3   OH229860   6.643   6.437   0.738  0.4735  0.0490 -0.2648
 2742TIP3    H129861   6.631   6.532   0.738  0.5939  0.0727 -1.2521
 2742TIP3    H229862   6.696   6.419   0.815  1.7836  0.9654 -0.9155
 2743TIP3   OH229863   3.300   2.674   8.893 -0.2559  0.0359 -0.0729
 2743TIP3    H129864   3.347   2.594   8.870  1.5217 -0.2213  3.7064
 2743TIP3    H229865   3.341   2.742   8.839 -1.5849 -1.3695 -3.1140
 2744TIP3   OH229866   0.628   0.599   7.394 -0.2071  0.5673  0.4237
 2744TIP3    H129867   0.688   0.597   7.319  0.3883 -0.8099  0.8995
 2744TIP3    H229868   0.669   0.661   7.455  1.3884 -1.1418  1.2049
 2745TIP3   OH229869   1.991   4.756   0.704  0.7833 -0.2672  0.2365
 2745TIP3    H129870   2.022   4.844   0.723  0.6960 -0.1232 -0.2735
 2745TIP3    H229871   2.063   4.699   0.731  2.1869  0.1425 -2.3707
 2746TIP3   OH229872   3.395   2.663   1.444  0.1619 -0.1310 -0.6084
 2746TIP3    H129873   3.373   2.706   1.526 -0.1200  2.1840 -1.8138
 2746TIP3    H229874   3.368   2.572   1.456  0.1262  0.1473  1.8170
 2747TIP3   OH229875   1.463   2.849   0.493  0.7242  0.1062  0.4815
 2747TIP3    H129876   1.519   2.920   0.458 -0.4514  0.6707 -0.3138
 2747TIP3    H229877   1.510   2.818   0.570  1.6249  1.2809  0.4398
 2748TIP3   OH229878   2.375   6.462   7.989  0.0274  0.5462 -0.1792
 2748TIP3    H129879   2.464   6.467   7.954 -0.6782  0.7979 -2.0108
 2748TIP3    H229880   2.326   6.528   7.941 -1.2048  0.2981  0.6935
 2749TIP3   OH229881   0.814   5.594   8.620  0.1953 -0.2266  0.1552
 2749TIP3    H129882   0.750   5.592   8.549  0.8562  1.5657 -0.5756
 2749TIP3    H229883   0.880   5.529   8.595  0.3723  0.3117 -0.8861
 2750TIP3   OH229884   4.626   5.442   7.812  0.3375  0.1229 -0.0487
 2750TIP3    H129885   4.599   5.504   7.744  0.2414 -1.8949 -1.9769
 2750TIP3    H229886   4.721   5.437   7.804  0.2218 -1.1127 -1.0402
 2751TIP3   OH229887   6.092   4.771   7.718 -0.1496  0.0737 -0.1676
 2751TIP3    H129888   6.171   4.775   7.663 -1.1778 -0.8486 -1.8000
 2751TIP3    H229889   6.073   4.863   7.738  0.6183  0.3927 -0.8243
 2752TIP3   OH229890   2.342   5.069   6.750 -0.2631 -0.5059 -0.1980
 2752TIP3    H129891   2.337   4.992   6.694  2.2526  0.1917 -1.5273
 2752TIP3    H229892   2.266   5.122   6.725 -0.6470 -1.4219 -1.0210
 2753TIP3   OH229893   4.596   2.646   0.132  0.4255  0.2990 -0.4890
 2753TIP3    H129894   4.581   2.696   0.052 -0.9468  1.8996  0.6722
 2753TIP3    H229895   4.642   2.706   0.190  1.3442 -0.8035 -0.0366
 2754TIP3   OH229896   6.174   2.285   2.600  0.4118  0.5639 -0.6116
 2754TIP3    H129897   6.089   2.260   2.638  0.4616 -0.9795 -1.4010
 2754TIP3    H229898   6.186   2.376   2.625 -0.5273  0.2230  1.2487
 2755TIP3   OH229899   1.599   5.827   6.635 -0.7881 -0.5647  0.1483
 2755TIP3    H129900   1.688   5.836   6.668 -0.8973  0.4812  0.2132
 2755TIP3    H229901   1.583   5.733   6.633  0.8961 -0.8814 -1.4154
 2756TIP3   OH229902   1.546   6.127   0.419 -0.0267 -0.0956  0.1796
 2756TIP3    H129903   1.583   6.184   0.351  0.5490 -0.2465  0.3627
 2756TIP3    H229904   1.456   6.156   0.428 -0.7457 -1.3166 -2.0519
 2757TIP3   OH229905   3.304   2.668   1.709  0.1784  0.5355 -0.4264
 2757TIP3    H129906   3.365   2.700   1.774  0.7204  0.3868 -0.8502
 2757TIP3    H229907   3.252   2.601   1.755  0.5771  0.4063 -0.1581
 2758TIP3   OH229908   3.844   2.078   1.867 -0.3257 -0.8712 -0.1757
 2758TIP3    H129909   3.937   2.095   1.884 -0.3128 -0.4816 -0.6075
 2758TIP3    H229910   3.798   2.151   1.908 -0.6703 -2.4212  2.3977
 2759TIP3   OH229911   3.755   6.270   0.249  0.0086 -0.0069  0.0751
 2759TIP3    H129912   3.666   6.273   0.212 -0.3675 -0.4536  0.8941
 2759TIP3    H229913   3.806   6.328   0.194 -1.2455  1.8581  0.7843
 2760TIP3   OH229914   2.329   4.639   1.165  0.6484 -0.5491 -0.0689
 2760TIP3    H129915   2.382   4.634   1.086 -0.1291  1.2070 -0.7585
 2760TIP3    H229916   2.278   4.719   1.154  0.8720  0.0043  2.4464
 2761TIP3   OH229917   6.762   1.541   2.517  0.0511  0.0518 -0.9116
 2761TIP3    H129918   6.847   1.527   2.559 -0.3561 -0.5215 -0.2590
 2761TIP3    H229919   6.699   1.541   2.590 -0.2943  2.6848 -1.1089
 2762TIP3   OH229920   2.874   1.199   8.883 -0.0309 -0.7394 -0.4652
 2762TIP3    H129921   2.854   1.120   8.932  0.2398 -0.7439 -0.3616
 2762TIP3    H229922   2.969   1.195   8.869 -0.0382 -0.5038 -0.5793
 2763TIP3   OH229923   2.072   0.698   0.693  0.0841  0.2538  0.3066
 2763TIP3    H129924   2.126   0.685   0.771 -0.0865  1.5586  0.6558
 2763TIP3    H229925   2.020   0.618   0.688  2.2406 -1.2233 -0.2422
 2764TIP3   OH229926   2.078   0.945   1.638  0.3002 -0.0608  0.3832
 2764TIP3    H129927   2.023   1.017   1.605 -0.9766 -1.4246 -0.6061
 2764TIP3    H229928   2.093   0.967   1.730 -0.3409  1.3005  0.1869
 2765TIP3   OH229929   0.149   4.918   8.220  0.1641  0.1633  0.5095
 2765TIP3    H129930   0.239   4.914   8.253 -0.0352 -0.6713  0.9792
 2765TIP3    H229931   0.099   4.866   8.283 -0.5612  0.1966 -0.0399
 2766TIP3   OH229932   2.533   1.446   6.833 -0.7946 -0.5792  0.0218
 2766TIP3    H129933   2.514   1.389   6.758 -1.5674  0.4863 -0.6293
 2766TIP3    H229934   2.511   1.534   6.801  1.8315  0.3084  0.4820
 2767TIP3   OH229935   6.754   2.805   1.682  0.0797 -0.5158 -0.1395
 2767TIP3    H129936   6.813   2.730   1.688 -0.5296 -0.9340  0.7693
 2767TIP3    H229937   6.762   2.849   1.766 -0.4901 -0.2547 -0.2197
 2768TIP3   OH229938   1.428   6.038   8.899  0.0986  0.1349  0.0516
 2768TIP3    H129939   1.360   6.036   8.832  0.1566  1.0014 -0.0432
 2768TIP3    H229940   1.385   6.008   8.979  0.1480 -1.3774 -0.4640
 2769TIP3   OH229941   1.019   0.795   8.902 -0.2570  0.6499  0.3538
 2769TIP3    H129942   1.007   0.719   8.959 -0.5799  1.5992  1.5997
 2769TIP3    H229943   0.931   0.817   8.871 -0.3328  1.2104  0.9449
 2770TIP3   OH229944   0.413   0.822   8.489  0.0846 -0.4286  0.1140
 2770TIP3    H129945   0.500   0.788   8.513 -0.6920 -2.2486  0.5094
 2770TIP3    H229946   0.352   0.753   8.516 -1.4441  0.5269 -0.7578
 2771TIP3   OH229947   4.782   4.382   7.316  0.3391  0.0713 -0.2287
 2771TIP3    H129948   4.864   4.432   7.322  0.9373 -0.9537  0.4529
 2771TIP3    H229949   4.755   4.370   7.407 -0.8752  0.8513 -0.4642
 2772TIP3   OH229950   0.243   1.025   1.324 -0.5622 -0.6326  0.3004
 2772TIP3    H129951   0.291   1.020   1.241 -1.4442 -0.4767 -0.2222
 2772TIP3    H229952   0.264   1.113   1.357  0.1957 -0.8798  0.5032
 2773TIP3   OH229953   1.405   0.219   7.088 -0.2363  0.2239 -0.6992
 2773TIP3    H129954   1.427   0.311   7.093 -0.8328  0.4110 -1.3679
 2773TIP3    H229955   1.398   0.200   6.995  1.3491 -0.8711 -0.6360
 2774TIP3   OH229956   4.232   4.026   1.206 -0.3583  0.1189 -0.0601
 2774TIP3    H129957   4.232   4.121   1.213 -1.8737  0.0539  1.4951
 2774TIP3    H229958   4.323   4.000   1.220  0.0560  1.3163 -0.4213
 2775TIP3   OH229959   3.201   6.065   0.580 -0.2459  0.1195  0.4922
 2775TIP3    H129960   3.288   6.029   0.593 -0.0460  0.3474 -0.1838
 2775TIP3    H229961   3.149   6.029   0.652 -0.1133 -1.7009 -0.2857
 2776TIP3   OH229962   4.619   3.193   0.514 -0.1219  0.1538  0.1423
 2776TIP3    H129963   4.698   3.213   0.564  0.5248  0.1236 -0.8341
 2776TIP3    H229964   4.549   3.192   0.579  0.4182  1.7747  0.8004
 2777TIP3   OH229965   1.126   3.850   8.406  0.2066 -0.0035  0.3146
 2777TIP3    H129966   1.137   3.923   8.344  1.2706  0.0725  0.5642
 2777TIP3    H229967   1.139   3.771   8.354 -1.1593 -0.0470 -0.0007
 2778TIP3   OH229968   1.269   1.348   0.558  0.0431  0.6088  0.2233
 2778TIP3    H129969   1.259   1.389   0.473 -0.8675  0.4724  0.2473
 2778TIP3    H229970   1.308   1.415   0.614  2.0268  0.2411 -0.6365
 2779TIP3   OH229971   1.942   3.087   0.976 -0.2475 -0.0028  0.1276
 2779TIP3    H129972   1.860   3.061   0.933 -0.7884 -1.5072  1.9635
 2779TIP3    H229973   2.007   3.023   0.945 -0.5612 -0.8773  1.2071
 2780TIP3   OH229974   5.666   4.307   7.138 -0.6395  0.2847  0.0279
 2780TIP3    H129975   5.648   4.214   7.121  1.7009  0.0516 -1.6611
 2780TIP3    H229976   5.603   4.353   7.083 -0.2271 -0.3852 -1.0485
 2781TIP3   OH229977   0.746   5.230   2.361  0.3644 -0.2331 -0.3129
 2781TIP3    H129978   0.789   5.316   2.360  0.2402 -0.1291  1.2853
 2781TIP3    H229979   0.788   5.182   2.290  0.2073  1.2469 -1.4723
 2782TIP3   OH229980   4.863   0.605   6.530 -0.4465  0.3129  0.3210
 2782TIP3    H129981   4.945   0.560   6.514 -0.4285  1.0532 -2.1111
 2782TIP3    H229982   4.888   0.684   6.578  0.2274  0.3684 -0.1133
 2783TIP3   OH229983   4.436   2.670   7.667 -0.7341  0.1455  0.1747
 2783TIP3    H129984   4.401   2.581   7.675 -1.8589  0.6819  1.6872
 2783TIP3    H229985   4.361   2.723   7.641  0.2688  0.4559 -2.3189
 2784TIP3   OH229986   1.680   3.061   0.934 -0.1148 -0.2096  0.6383
 2784TIP3    H129987   1.600   3.051   0.986  0.8912 -1.1365  2.0782
 2784TIP3    H229988   1.671   3.147   0.893 -1.8987 -0.3337  0.6501
 2785TIP3   OH229989   4.473   1.226   0.390 -0.6786 -0.5590  0.0312
 2785TIP3    H129990   4.430   1.159   0.442  1.1861  0.2558  2.8301
 2785TIP3    H229991   4.447   1.309   0.431  1.4602  0.0694  0.2333
 2786TIP3   OH229992   3.034   6.167   0.101  0.3960  0.6668 -0.3703
 2786TIP3    H129993   3.096   6.122   0.043  0.2717  0.2971 -0.2200
 2786TIP3    H229994   2.965   6.198   0.042 -0.0056 -0.1807 -0.3592
 2787TIP3   OH229995   6.297   1.328   1.665  0.7364  0.0146 -0.4466
 2787TIP3    H129996   6.264   1.239   1.651  2.9835 -0.7530 -1.3677
 2787TIP3    H229997   6.340   1.325   1.750 -0.5384  0.7178  0.2613
 2788TIP3   OH229998   2.264   3.867   0.540 -0.5979 -0.0140 -0.0257
 2788TIP3    H129999   2.357   3.867   0.516 -1.2748 -0.3928 -3.1492
 2788TIP3    H230000   2.259   3.919   0.620  2.4822 -1.4052  1.1883
 2789TIP3   OH230001   2.356   4.103   8.388  0.1625  0.3641 -0.2687
 2789TIP3    H130002   2.341   4.018   8.430  1.3726 -0.4899 -1.4745
 2789TIP3    H230003   2.299   4.102   8.311  1.5254 -0.1725 -1.3061
 2790TIP3   OH230004   0.775   0.324   7.860  0.3160 -0.0808  0.3216
 2790TIP3    H130005   0.781   0.419   7.870 -1.0581  0.3386 -2.0268
 2790TIP3    H230006   0.720   0.295   7.932 -1.3629  1.3126 -0.3346
 2791TIP3   OH230007   3.858   1.798   8.794  0.0754 -0.5424  0.3116
 2791TIP3    H130008   3.899   1.878   8.760  2.7981 -2.2670 -0.7161
 2791TIP3    H230009   3.881   1.797   8.887 -1.0406  0.4215  0.6323
 2792TIP3   OH230010   5.505   0.661   7.168  0.0412  0.1452 -0.3110
 2792TIP3    H130011   5.560   0.594   7.209  1.0895  1.3685  0.3664
 2792TIP3    H230012   5.565   0.708   7.109 -0.6287  0.6147 -0.6358
 2793TIP3   OH230013   5.988   0.184   7.025 -0.3280 -0.1929 -0.9788
 2793TIP3    H130014   6.043   0.112   6.992  0.8660  1.2471 -2.2748
 2793TIP3    H230015   6.034   0.217   7.102 -2.2187 -2.4058  1.2854
 2794TIP3   OH230016   3.258   4.902   6.300  0.8640  0.2546 -1.0836
 2794TIP3    H130017   3.164   4.882   6.294  0.9988 -0.9154  0.1653
 2794TIP3    H230018   3.263   4.996   6.283 -0.6903  0.5845  0.0153
 2795TIP3   OH230019   1.365   4.203   0.270  0.3893 -0.3744  0.9047
 2795TIP3    H130020   1.401   4.117   0.291  0.0482 -0.7066  0.1540
 2795TIP3    H230021   1.421   4.236   0.200  0.8315  0.2449  1.5315
 2796TIP3   OH230022   2.749   3.182   8.094 -0.3679  0.0057  0.3046
 2796TIP3    H130023   2.668   3.227   8.120  0.6995  1.9429  0.4936
 2796TIP3    H230024   2.745   3.180   7.999 -0.1991  1.0060  0.2677
 2797TIP3   OH230025   5.512   1.827   7.924  0.1649  0.3581 -0.3907
 2797TIP3    H130026   5.596   1.872   7.912  0.7631 -1.0907 -2.0447
 2797TIP3    H230027   5.532   1.756   7.986 -0.2762  1.0182  0.5392
 2798TIP3   OH230028   5.173   4.318   8.546  0.1465  0.4595 -0.1290
 2798TIP3    H130029   5.078   4.327   8.540  0.1816  0.4181 -0.8230
 2798TIP3    H230030   5.193   4.330   8.639 -0.7087 -1.3579  0.3161
 2799TIP3   OH230031   0.065   4.212   7.493  0.1320  0.4267  0.0341
 2799TIP3    H130032   0.073   4.236   7.585  0.0972  0.1574  0.1102
 2799TIP3    H230033   0.001   4.273   7.457 -1.5388 -0.8335  0.7088
 2800TIP3   OH230034   6.696   4.687   0.415 -0.3330 -0.5127  0.1640
 2800TIP3    H130035   6.739   4.691   0.330  0.5168 -1.1339  0.5438
 2800TIP3    H230036   6.759   4.642   0.472 -0.6034  0.4870  1.2957
 2801TIP3   OH230037   2.953   5.670   7.560 -0.6430  0.2641  0.4014
 2801TIP3    H130038   2.900   5.619   7.498 -1.0393 -0.5249  1.3657
 2801TIP3    H230039   2.967   5.754   7.516  0.5072 -0.8332 -1.5028
 2802TIP3   OH230040   1.849   2.814   0.398 -0.2225 -0.5820 -0.2114
 2802TIP3    H130041   1.859   2.847   0.487  0.5070 -1.4310  0.0288
 2802TIP3    H230042   1.884   2.883   0.342 -2.5541  0.8703 -0.0146
 2803TIP3   OH230043   6.491   3.743   0.076 -0.0642  0.0719 -0.1493
 2803TIP3    H130044   6.566   3.720   0.131 -0.3030 -2.5805 -0.8150
 2803TIP3    H230045   6.417   3.749   0.137 -0.4081 -3.2459 -0.0581
 2804TIP3   OH230046   1.546   1.107   0.052 -0.1051 -0.3799 -0.0286
 2804TIP3    H130047   1.525   1.025   0.007 -0.9609 -0.3959  0.3699
 2804TIP3    H230048   1.485   1.171   0.014 -0.9552 -0.4334  1.1863
 2805TIP3   OH230049   0.303   5.584   6.715 -0.0522 -0.1161 -0.2846
 2805TIP3    H130050   0.255   5.532   6.651 -0.3829  0.5851 -0.6103
 2805TIP3    H230051   0.373   5.626   6.665  1.1349 -1.3780  0.2386
 2806TIP3   OH230052   0.691   1.484   6.932 -0.1506 -0.2233  0.1455
 2806TIP3    H130053   0.705   1.389   6.925  1.0424 -0.2339  1.8852
 2806TIP3    H230054   0.758   1.522   6.874 -0.9757 -0.4198 -0.9688
 2807TIP3   OH230055   6.523   0.678   8.821 -0.3520 -0.3411 -0.2142
 2807TIP3    H130056   6.443   0.703   8.868  0.3129 -0.7610  1.1911
 2807TIP3    H230057   6.579   0.639   8.888 -0.0661 -2.6789 -1.6940
 2808TIP3   OH230058   3.293   4.215   1.556  0.3207 -0.0125  1.0022
 2808TIP3    H130059   3.369   4.247   1.506 -0.1411  0.3456  0.5264
 2808TIP3    H230060   3.313   4.238   1.647  0.7279  0.1899  0.8643
 2809TIP3   OH230061   2.447   3.433   8.812 -0.0573  0.1188 -0.6956
 2809TIP3    H130062   2.475   3.411   8.901 -1.3490 -0.0824 -0.3143
 2809TIP3    H230063   2.358   3.398   8.806 -1.1177  2.6486 -1.0678
 2810TIP3   OH230064   1.057   1.838   0.553  0.3110  0.3603  0.1861
 2810TIP3    H130065   1.074   1.924   0.592 -0.3217  0.2349  0.7717
 2810TIP3    H230066   1.143   1.802   0.535  0.6046  1.9886 -2.0793
 2811TIP3   OH230067   4.264   4.125   8.813 -0.2630  0.1731  0.4520
 2811TIP3    H130068   4.263   4.210   8.856  0.2939  0.8183 -0.7338
 2811TIP3    H230069   4.271   4.062   8.884 -1.9478  1.0294  1.4370
 2812TIP3   OH230070   2.729   0.097   8.615  0.5739  0.2838  0.0022
 2812TIP3    H130071   2.725   0.007   8.583  0.6834 -0.2508  1.3971
 2812TIP3    H230072   2.788   0.142   8.554 -0.6049 -0.1959 -1.5504
 2813TIP3   OH230073   1.870   6.775   0.576  0.0227  0.5889 -0.0977
 2813TIP3    H130074   1.864   6.870   0.582 -0.1827  0.6255 -0.7536
 2813TIP3    H230075   1.781   6.746   0.558  0.2198  0.3481 -0.7309
 2814TIP3   OH230076   5.355   1.211   7.876  0.0760 -0.1198 -0.4078
 2814TIP3    H130077   5.420   1.180   7.939  0.0450 -1.3771 -0.9818
 2814TIP3    H230078   5.272   1.175   7.907 -0.2088  0.6665 -0.2286
 2815TIP3   OH230079   2.823   4.611   8.041  0.1849 -0.6106  0.0999
 2815TIP3    H130080   2.832   4.518   8.061 -1.7544 -0.9788 -0.4677
 2815TIP3    H230081   2.733   4.620   8.011  0.1262  1.5724  0.7295
 2816TIP3   OH230082   0.040   6.604   1.911  0.1019  0.8618 -0.0503
 2816TIP3    H130083  -0.001   6.554   1.980  2.0997  0.6531  1.0680
 2816TIP3    H230084   0.031   6.696   1.939  0.6585  0.7953  0.3644
 2817TIP3   OH230085   3.344   0.899   8.120  0.3394  0.2343 -0.5575
 2817TIP3    H130086   3.354   0.927   8.029 -1.2605  0.5928 -0.6606
 2817TIP3    H230087   3.312   0.977   8.165  1.6051  0.2068  0.4461
 2818TIP3   OH230088   0.426   0.044   2.136 -0.1518 -0.0010 -0.2582
 2818TIP3    H130089   0.371   0.115   2.170 -0.5476 -0.5352  0.2383
 2818TIP3    H230090   0.488   0.026   2.206  1.4502  1.3828 -1.2496
 2819TIP3   OH230091   4.710   4.232   2.308  0.1764 -0.6058 -0.3149
 2819TIP3    H130092   4.619   4.209   2.289  0.8212 -3.0581 -0.7584
 2819TIP3    H230093   4.722   4.210   2.400  0.9939 -2.9772 -0.9200
 2820TIP3   OH230094   3.718   4.759   1.375  0.6131  0.5250 -0.7643
 2820TIP3    H130095   3.649   4.721   1.429 -0.3429 -0.2743 -2.4529
 2820TIP3    H230096   3.800   4.731   1.417 -0.0839  0.3683  0.5287
 2821TIP3   OH230097   3.555   2.117   7.450 -0.2082 -0.3124 -0.2653
 2821TIP3    H130098   3.468   2.154   7.467 -0.4552 -1.3237  0.7524
 2821TIP3    H230099   3.591   2.174   7.382 -1.6485  0.1506 -0.6992
 2822TIP3   OH230100   1.973   1.447   8.074  0.9491 -0.1708  0.3354
 2822TIP3    H130101   2.017   1.473   7.993 -0.5678 -1.5250 -1.0089
 2822TIP3    H230102   1.919   1.523   8.097 -0.1611 -0.4564 -1.1311
 2823TIP3   OH230103   5.885   1.767   7.387  0.4011 -0.2008 -0.3868
 2823TIP3    H130104   5.864   1.738   7.298 -0.8893 -0.5518  0.0090
 2823TIP3    H230105   5.800   1.782   7.428  0.9921  1.0911  0.4390
 2824TIP3   OH230106   4.214   3.610   1.759 -0.1973  0.3968 -0.7427
 2824TIP3    H130107   4.173   3.669   1.821  0.0471  0.2365 -0.4272
 2824TIP3    H230108   4.244   3.536   1.812  2.2445  1.3756 -0.6229
 2825TIP3   OH230109   0.567   2.523   6.915  0.4713  0.3844  0.4169
 2825TIP3    H130110   0.482   2.479   6.909  0.4722  0.3871  0.3824
 2825TIP3    H230111   0.605   2.492   6.997  0.0060  1.1395  0.9351
 2826TIP3   OH230112   4.890   0.649   0.063 -0.5263 -0.5598  0.4844
 2826TIP3    H130113   4.932   0.711   0.003 -0.5019 -0.5947  0.4649
 2826TIP3    H230114   4.895   0.565   0.017 -0.8924 -0.5083  0.3462
 2827TIP3   OH230115   2.653   6.200   8.579  0.3493 -0.2564  0.0233
 2827TIP3    H130116   2.605   6.250   8.513 -2.7431 -1.5500  1.1331
 2827TIP3    H230117   2.699   6.132   8.528 -0.5118 -0.1307 -0.9578
 2828TIP3   OH230118   3.812   3.890   8.055  0.1037 -0.8296  0.7266
 2828TIP3    H130119   3.906   3.896   8.040  0.5724 -3.6495  1.8819
 2828TIP3    H230120   3.802   3.895   8.150 -0.9792 -0.1602  0.5965
 2829TIP3   OH230121   6.688   0.485   8.278  0.4527 -0.9663  0.4877
 2829TIP3    H130122   6.603   0.501   8.237  0.2470 -0.7750  0.9780
 2829TIP3    H230123   6.671   0.417   8.343  0.4224 -0.0999  1.4061
 2830TIP3   OH230124   1.358   4.344   0.571  0.1475 -0.4585 -0.2517
 2830TIP3    H130125   1.273   4.356   0.615 -0.4751  3.1708 -2.0380
 2830TIP3    H230126   1.336   4.304   0.487 -0.0532  1.4014 -1.1430
 2831TIP3   OH230127   5.563   6.165   8.051 -0.5722 -0.5427 -0.1421
 2831TIP3    H130128   5.594   6.243   8.004  0.4725 -1.2017 -0.5828
 2831TIP3    H230129   5.560   6.193   8.143 -3.0411  0.8874 -0.5851
 2832TIP3   OH230130   2.062   1.993   1.203 -0.6115  0.1219 -0.0376
 2832TIP3    H130131   2.077   1.952   1.117 -2.1396  1.5429 -1.0463
 2832TIP3    H230132   2.072   2.087   1.186 -1.4898  0.4571  1.2159
 2833TIP3   OH230133   3.698   6.311   7.844 -0.0371  0.8362  0.0952
 2833TIP3    H130134   3.664   6.358   7.768  1.0649  0.7673 -0.4672
 2833TIP3    H230135   3.669   6.221   7.833  1.9840  0.3040 -1.4861
 2834TIP3   OH230136   0.716   0.515   8.523  0.2131 -0.1070  0.2800
 2834TIP3    H130137   0.808   0.540   8.532  0.1986  0.9098 -1.8128
 2834TIP3    H230138   0.714   0.461   8.444 -1.1201  0.7961 -0.3364
 2835TIP3   OH230139   3.074   0.012   6.912  0.1221 -0.4454 -0.7016
 2835TIP3    H130140   3.087  -0.078   6.882  1.1218 -0.2214 -0.9652
 2835TIP3    H230141   3.029   0.003   6.996  0.1738 -1.1832 -0.7482
 2836TIP3   OH230142   1.721   1.577   6.718 -0.3544 -0.1086 -0.0541
 2836TIP3    H130143   1.805   1.557   6.679 -0.2242 -0.4789  0.4081
 2836TIP3    H230144   1.679   1.637   6.656  0.1123 -0.1760 -0.4376
 2837TIP3   OH230145   6.383   1.488   2.521 -0.0862  0.1747 -0.1378
 2837TIP3    H130146   6.376   1.576   2.483 -0.6721  0.0052 -0.4285
 2837TIP3    H230147   6.316   1.437   2.476  0.0777 -0.3582  0.2167
 2838TIP3   OH230148   1.464   5.257   2.520 -0.0763  0.3963 -0.0440
 2838TIP3    H130149   1.474   5.340   2.474 -0.1811  0.0835 -0.6467
 2838TIP3    H230150   1.447   5.281   2.611 -0.3142  1.0337 -0.2548
 2839TIP3   OH230151   4.311   5.061   0.152 -0.1877 -0.3710 -0.7171
 2839TIP3    H130152   4.309   5.104   0.067  0.1858  0.0419 -0.5239
 2839TIP3    H230153   4.271   5.124   0.212  0.0038 -0.4502 -0.5010
 2840TIP3   OH230154   2.263   1.825   6.933  0.3133  0.0287 -0.6203
 2840TIP3    H130155   2.170   1.840   6.920 -0.0605 -1.7754 -0.3822
 2840TIP3    H230156   2.280   1.852   7.023  0.0075  0.2821 -0.6397
 2841TIP3   OH230157   0.952   4.565   7.149 -0.1703  0.4049  0.7179
 2841TIP3    H130158   0.959   4.576   7.244  1.3344 -0.1768  0.6950
 2841TIP3    H230159   1.000   4.485   7.130  1.5935  1.7241 -0.7913
 2842TIP3   OH230160   1.724   6.571   8.670  0.1323 -0.0889 -0.1166
 2842TIP3    H130161   1.804   6.587   8.720 -1.2926 -0.7530  2.5410
 2842TIP3    H230162   1.715   6.648   8.614  1.5183  1.0103  1.0880
 2843TIP3   OH230163   1.982   0.085   7.065 -0.3997  0.3311  0.5424
 2843TIP3    H130164   1.890   0.108   7.061 -0.5890 -0.1022  1.8617
 2843TIP3    H230165   2.029   0.166   7.045 -1.0409  0.2482 -1.4741
 2844TIP3   OH230166   5.712   0.496   1.814 -0.3540 -0.3798 -0.1440
 2844TIP3    H130167   5.762   0.533   1.887  1.3425  1.6784 -2.1550
 2844TIP3    H230168   5.748   0.540   1.736 -1.4083 -3.0814 -2.3403
 2845TIP3   OH230169   6.752   2.363   7.340 -0.4377  0.0536  0.1794
 2845TIP3    H130170   6.817   2.429   7.364  0.1757 -0.2226 -0.6616
 2845TIP3    H230171   6.792   2.316   7.266 -2.0631  0.5911 -1.0986
 2846TIP3   OH230172   3.616   2.827   1.030  0.6464 -0.3349 -0.1423
 2846TIP3    H130173   3.575   2.912   1.013 -0.1157 -1.0009 -1.8735
 2846TIP3    H230174   3.546   2.774   1.070  0.3968 -0.8291 -1.1870
 2847TIP3   OH230175   5.185   6.570   0.892  0.2248 -0.5062  0.3409
 2847TIP3    H130176   5.164   6.649   0.941 -0.4738 -0.0724 -0.6205
 2847TIP3    H230177   5.264   6.592   0.843  0.1386 -0.4747  0.2174
 2848TIP3   OH230178   3.595   3.220   0.735 -0.0824  0.0989  0.1613
 2848TIP3    H130179   3.549   3.173   0.666  0.9698 -2.6655  1.2121
 2848TIP3    H230180   3.673   3.257   0.693 -1.0967  1.3033 -0.7454
 2849TIP3   OH230181   6.372   4.634   0.764 -0.1403 -0.7878  0.2369
 2849TIP3    H130182   6.325   4.573   0.707  0.5626 -0.1139 -1.1220
 2849TIP3    H230183   6.348   4.720   0.731  2.8735 -0.4089 -1.2934
 2850TIP3   OH230184   3.614   2.589   1.277  0.2341 -0.1472 -0.2840
 2850TIP3    H130185   3.673   2.658   1.308 -0.8581  1.0527 -0.7775
 2850TIP3    H230186   3.539   2.592   1.336 -0.0518 -0.5604 -0.6158
 2851TIP3   OH230187   1.571   1.586   1.876  0.0256  0.1978  0.0077
 2851TIP3    H130188   1.512   1.656   1.847 -1.4042 -0.9541  0.0594
 2851TIP3    H230189   1.647   1.593   1.817 -0.1537  1.6671 -0.0937
 2852TIP3   OH230190   0.327   5.651   8.015  0.0156 -0.1051  0.1456
 2852TIP3    H130191   0.302   5.702   7.939  1.5782 -1.4474 -1.3682
 2852TIP3    H230192   0.302   5.561   7.993  0.6608 -0.5527  1.1337
 2853TIP3   OH230193   1.050   6.553   2.807  0.1631  0.0639 -0.4105
 2853TIP3    H130194   1.112   6.589   2.871 -1.1425  1.8166 -0.0460
 2853TIP3    H230195   1.098   6.484   2.763  1.4611 -0.4786  1.7298
 2854TIP3   OH230196   5.984   5.987   6.729  0.4459  0.1106  0.6611
 2854TIP3    H130197   6.060   5.936   6.757  0.6011  0.4650  0.9014
 2854TIP3    H230198   5.985   5.980   6.633  0.4766 -0.3145  0.6913
 2855TIP3   OH230199   1.455   3.996   8.238  0.1197 -0.1518 -1.1402
 2855TIP3    H130200   1.493   3.910   8.220  2.1175  0.6539 -1.0910
 2855TIP3    H230201   1.522   4.041   8.290 -0.0306  2.0892 -2.7407
 2856TIP3   OH230202   2.029   6.006   8.558 -0.0359  0.8784 -0.1569
 2856TIP3    H130203   2.079   5.939   8.605  0.0922  0.7829 -0.4263
 2856TIP3    H230204   1.990   6.060   8.626  1.8921  2.0688  0.0741
 2857TIP3   OH230205   5.901   2.283   0.938 -0.0841 -0.1686 -0.1180
 2857TIP3    H130206   5.918   2.304   0.846  0.8088 -1.3319 -0.2373
 2857TIP3    H230207   5.979   2.236   0.967 -0.2784  0.3358  1.2988
 2858TIP3   OH230208   3.101   0.374   2.214  0.3112  0.0683 -0.8317
 2858TIP3    H130209   3.104   0.412   2.126 -1.5305  0.2530 -0.8464
 2858TIP3    H230210   3.154   0.295   2.208 -1.5604 -1.1319 -2.7475
 2859TIP3   OH230211   6.065   4.603   1.904 -0.1422 -0.1333  0.1939
 2859TIP3    H130212   6.081   4.554   1.824 -2.3704 -1.1575  0.3032
 2859TIP3    H230213   6.061   4.537   1.973  0.7948  0.6361  1.0144
 2860TIP3   OH230214   1.634   6.068   1.536  0.1323 -0.0059 -0.5902
 2860TIP3    H130215   1.615   6.022   1.618 -0.4176 -0.6446 -1.0624
 2860TIP3    H230216   1.712   6.120   1.555  0.2706 -0.4881  0.2079
 2861TIP3   OH230217   3.022   4.100   8.169  0.2067 -0.1205 -0.3054
 2861TIP3    H130218   3.006   4.006   8.184 -0.3725  0.0150 -0.0673
 2861TIP3    H230219   2.997   4.114   8.078 -1.2204  0.1192  0.1018
 2862TIP3   OH230220   2.737   3.528   1.666  0.0677 -0.3500  0.3165
 2862TIP3    H130221   2.646   3.540   1.638  0.9674  2.8290 -1.6213
 2862TIP3    H230222   2.751   3.594   1.734  1.6340  1.1853 -1.3934
 2863TIP3   OH230223   3.054   3.967   0.103  0.0321  0.2158  0.6099
 2863TIP3    H130224   3.096   4.046   0.136  0.4485  0.0439  0.4960
 2863TIP3    H230225   2.962   3.991   0.094  0.4293  1.2354 -1.0876
 2864TIP3   OH230226   4.913   1.672   7.743 -0.1496 -0.3431  0.0625
 2864TIP3    H130227   4.935   1.665   7.836  0.2888  1.3884  0.1193
 2864TIP3    H230228   4.904   1.766   7.728 -1.6770 -0.6800 -1.3219
 2865TIP3   OH230229   2.542   4.933   1.883 -0.2276 -0.0273 -0.1595
 2865TIP3    H130230   2.511   4.847   1.853  0.5687 -0.5115  0.3680
 2865TIP3    H230231   2.559   4.921   1.976  1.8871  0.0890 -0.4786
 2866TIP3   OH230232   4.864   3.238   7.755  0.2753 -0.0873 -0.1969
 2866TIP3    H130233   4.922   3.298   7.800  1.6026 -1.6827  0.3347
 2866TIP3    H230234   4.871   3.263   7.663  2.1181 -0.4310 -0.1969
 2867TIP3   OH230235   4.299   2.455   0.301  0.0591  0.2067 -0.0940
 2867TIP3    H130236   4.388   2.449   0.337 -0.4957  0.6824  1.4554
 2867TIP3    H230237   4.247   2.399   0.358 -0.5987 -0.3407 -1.2024
 2868TIP3   OH230238   3.977   3.313   2.001 -0.6203 -0.8305 -0.3132
 2868TIP3    H130239   3.920   3.236   2.009 -2.2855  0.3872 -0.0666
 2868TIP3    H230240   3.929   3.371   1.942 -0.6478  1.1231  1.5510
 2869TIP3   OH230241   4.448   6.555   0.249 -0.2681  0.3020 -0.0917
 2869TIP3    H130242   4.535   6.563   0.210  0.3810  0.7070  1.3640
 2869TIP3    H230243   4.449   6.468   0.290 -0.3841  0.4849  0.3008
 2870TIP3   OH230244   4.281   1.881   7.701  0.1223  0.1553 -0.0115
 2870TIP3    H130245   4.251   1.792   7.717 -0.5759  0.6211  1.4732
 2870TIP3    H230246   4.366   1.886   7.745  1.2017 -0.3666 -1.9184
 2871TIP3   OH230247   5.234   2.174   0.719  0.6299  0.4923  0.1625
 2871TIP3    H130248   5.231   2.226   0.639 -1.7147 -1.0298 -0.8402
 2871TIP3    H230249   5.289   2.099   0.697 -0.7471 -0.3881 -0.3667
 2872TIP3   OH230250   6.497   1.702   7.645 -0.7119  0.0025  0.0289
 2872TIP3    H130251   6.528   1.778   7.596  0.0009 -0.6505 -0.5716
 2872TIP3    H230252   6.402   1.701   7.631 -0.7932  1.0518  0.4513
 2873TIP3   OH230253   6.568   1.537   2.709  0.0119 -0.4166  0.2846
 2873TIP3    H130254   6.501   1.507   2.647 -1.0475 -0.5884  1.4738
 2873TIP3    H230255   6.545   1.628   2.726 -1.1233 -0.9855  2.1360
 2874TIP3   OH230256   0.479   5.943   7.477 -0.0858 -0.3091 -0.1810
 2874TIP3    H130257   0.556   5.906   7.520 -0.4856 -0.6975  0.2074
 2874TIP3    H230258   0.514   6.010   7.418  0.4742  0.2224  0.7349
 2875TIP3   OH230259   2.548   5.829   7.973 -0.0494  0.3673 -0.3146
 2875TIP3    H130260   2.573   5.762   8.037  0.1873  0.4986 -0.2687
 2875TIP3    H230261   2.502   5.896   8.025 -0.3741  0.1940 -0.3766
 2876TIP3   OH230262   0.954   5.294   7.418  0.0881  0.0963 -0.0732
 2876TIP3    H130263   0.861   5.289   7.397 -0.0625  1.4128  0.2411
 2876TIP3    H230264   0.958   5.274   7.512 -0.0875  1.7626  0.3096
 2877TIP3   OH230265   2.344   5.365   8.872 -0.3168 -0.1709  0.8320
 2877TIP3    H130266   2.421   5.333   8.919 -0.1731  0.2744  0.9078
 2877TIP3    H230267   2.376   5.380   8.783 -0.2800  0.1292  0.8930
 2878TIP3   OH230268   3.678   6.242   1.720 -0.3461  0.3951  0.0522
 2878TIP3    H130269   3.599   6.241   1.666  0.5028  2.1627 -1.2889
 2878TIP3    H230270   3.677   6.157   1.765 -2.1563 -0.2757 -1.1525
 2879TIP3   OH230271   0.801   5.716   0.114  0.3909  0.2983  0.5099
 2879TIP3    H130272   0.754   5.741   0.194 -0.3251  0.1272  0.1538
 2879TIP3    H230273   0.746   5.649   0.074 -0.6495  2.1873 -1.4658
 2880TIP3   OH230274   1.945   1.185   8.029 -0.6005  0.2168 -0.3356
 2880TIP3    H130275   1.880   1.149   7.969 -2.1703  1.1821  0.6963
 2880TIP3    H230276   1.936   1.280   8.021 -1.2404  0.3969  1.7100
 2881TIP3   OH230277   0.828   0.095   0.646  0.1474 -0.6134  0.6016
 2881TIP3    H130278   0.773   0.173   0.646  0.1768 -0.5494 -1.0854
 2881TIP3    H230279   0.905   0.120   0.697  1.0868  1.2151 -1.5208
 2882TIP3   OH230280   5.614   2.455   6.936 -0.1984  0.0389 -0.0222
 2882TIP3    H130281   5.613   2.544   6.971  1.2597 -0.4877  1.4701
 2882TIP3    H230282   5.692   2.452   6.881 -0.7044 -0.0977 -0.7513
 2883TIP3   OH230283   5.929   3.192   2.099 -0.6289  0.2170 -0.6291
 2883TIP3    H130284   5.873   3.256   2.144  1.0281  1.2247  0.0705
 2883TIP3    H230285   5.985   3.157   2.167 -0.5343 -0.9625 -1.2824
 2884TIP3   OH230286   0.357   0.805   0.435 -0.0165  0.2772 -0.1760
 2884TIP3    H130287   0.271   0.770   0.461  0.3205 -0.4866 -0.0600
 2884TIP3    H230288   0.337   0.864   0.363 -0.6695  0.2814 -0.0036
 2885TIP3   OH230289   1.634   2.660   6.340 -0.2851  0.0946 -0.3191
 2885TIP3    H130290   1.666   2.576   6.307 -0.2734  0.6843 -1.8706
 2885TIP3    H230291   1.635   2.650   6.435  0.2530 -1.4605 -0.4634
 2886TIP3   OH230292   2.271   0.766   8.376 -0.4417  0.5713 -0.4807
 2886TIP3    H130293   2.185   0.724   8.379  1.4115 -3.8786 -0.7120
 2886TIP3    H230294   2.301   0.766   8.468 -0.1678  0.7663 -0.5681
 2887TIP3   OH230295   2.651   4.137   2.161  0.2496  0.2359 -0.4522
 2887TIP3    H130296   2.656   4.066   2.226 -0.3490 -0.2874 -0.9514
 2887TIP3    H230297   2.668   4.217   2.210 -1.3375 -0.0244  0.6071
 2888TIP3   OH230298   6.390   6.393   1.279 -0.4133  0.1412 -0.5758
 2888TIP3    H130299   6.353   6.305   1.278 -0.1365 -0.1174  2.7938
 2888TIP3    H230300   6.414   6.409   1.370  2.2854  2.5907 -1.5469
 2889TIP3   OH230301   6.490   1.359   0.540 -0.3592 -0.6299  0.5890
 2889TIP3    H130302   6.528   1.409   0.612  0.9248 -1.2191  0.3390
 2889TIP3    H230303   6.414   1.316   0.579 -1.1945  1.0671  0.9307
 2890TIP3   OH230304   4.351   2.686   8.006 -0.1941  0.3012 -0.0743
 2890TIP3    H130305   4.257   2.674   8.015 -0.1621 -0.3218 -0.5424
 2890TIP3    H230306   4.361   2.733   7.923 -0.0289 -0.6553 -0.6078
 2891TIP3   OH230307   2.051   1.693   7.232  0.6598  0.0587 -0.6924
 2891TIP3    H130308   2.077   1.658   7.317  0.5670  1.8420  0.1231
 2891TIP3    H230309   2.016   1.617   7.184 -0.3198 -0.7903  1.2617
 2892TIP3   OH230310   2.913   2.545   7.112 -0.4151  0.4829  0.4250
 2892TIP3    H130311   2.821   2.522   7.121  0.3139 -2.2834  1.7436
 2892TIP3    H230312   2.944   2.496   7.036 -0.0382  1.6065 -0.1796
 2893TIP3   OH230313   2.567   4.608   7.967 -0.3630 -0.4337  0.0809
 2893TIP3    H130314   2.501   4.547   7.934 -1.3948  0.7264 -0.0633
 2893TIP3    H230315   2.526   4.648   8.044  0.8201 -0.8562  0.9764
 2894TIP3   OH230316   3.518   1.629   7.662 -0.2873  0.3071 -0.6790
 2894TIP3    H130317   3.545   1.545   7.625  0.7406 -0.3440  1.4357
 2894TIP3    H230318   3.577   1.693   7.622  1.0571 -0.4303  0.0577
 2895TIP3   OH230319   5.317   1.738   0.431 -0.5795  0.6166  0.1711
 2895TIP3    H130320   5.409   1.724   0.407  0.4115 -0.2129  3.8553
 2895TIP3    H230321   5.281   1.650   0.442 -1.7425  0.9411 -0.8175
 2896TIP3   OH230322   4.536   5.499   8.118  0.0075 -0.4024 -0.0697
 2896TIP3    H130323   4.456   5.450   8.135  0.5248 -0.9378  0.8899
 2896TIP3    H230324   4.526   5.530   8.028 -1.0271 -0.9259 -0.1543
 2897TIP3   OH230325   2.737   1.402   8.221  0.2638 -0.5476  0.1082
 2897TIP3    H130326   2.726   1.471   8.155 -0.2523  0.0548  0.8179
 2897TIP3    H230327   2.667   1.339   8.202 -0.3287 -0.0190  0.5179
 2898TIP3   OH230328   1.104   2.005   8.367  0.0716  0.2148  0.2224
 2898TIP3    H130329   1.091   1.938   8.300  1.3358 -0.6279  0.7874
 2898TIP3    H230330   1.195   1.994   8.395 -0.1486  1.1841  1.4017
 2899TIP3   OH230331   6.189   5.854   7.587  0.0733  0.4882  0.0588
 2899TIP3    H130332   6.214   5.944   7.604  1.6552  0.0714  0.0303
 2899TIP3    H230333   6.241   5.828   7.511 -1.9236  0.1890 -1.2936
 2900TIP3   OH230334   3.341   3.281   2.924  0.0216 -0.2047 -0.7252
 2900TIP3    H130335   3.342   3.310   2.832 -0.6010 -1.2941 -1.0854
 2900TIP3    H230336   3.402   3.208   2.926  1.3525  0.8778  0.1226
 2901TIP3   OH230337   2.950   1.038   7.300 -0.2613 -0.4535  0.6607
 2901TIP3    H130338   2.909   1.122   7.277  1.4843  0.3679  0.3617
 2901TIP3    H230339   2.879   0.985   7.336 -1.6336  0.7604 -0.1600
 2902TIP3   OH230340   5.086   2.638   0.955  0.2587  0.1899 -0.2234
 2902TIP3    H130341   5.156   2.667   0.897 -0.7643 -0.2714 -1.7702
 2902TIP3    H230342   5.069   2.547   0.929 -0.6018  0.1510  0.4138
 2903TIP3   OH230343   2.459   4.627   1.438  0.0915 -0.0004  0.5740
 2903TIP3    H130344   2.425   4.647   1.351  1.5584  2.6014  0.4937
 2903TIP3    H230345   2.412   4.688   1.497  0.5106 -0.3509  1.2885
 2904TIP3   OH230346   6.401   2.553   7.266 -0.3049 -0.0793 -0.1080
 2904TIP3    H130347   6.362   2.609   7.333 -0.3082  0.7549 -0.7986
 2904TIP3    H230348   6.416   2.610   7.191  1.0367 -0.6719 -0.3332
 2905TIP3   OH230349   3.124   5.416   7.866 -0.5808 -0.5893  0.4660
 2905TIP3    H130350   3.175   5.358   7.808 -0.3431 -0.2030  0.2807
 2905TIP3    H230351   3.036   5.378   7.867 -0.5361 -0.7147  0.0051
 2906TIP3   OH230352   5.598   4.620   1.500  0.5426  0.7483  0.0557
 2906TIP3    H130353   5.508   4.628   1.532  0.2900 -0.4113 -0.3186
 2906TIP3    H230354   5.648   4.680   1.555  0.2282 -1.4658  3.0907
 2907TIP3   OH230355   5.048   3.451   7.853 -0.1304  0.6328 -0.4435
 2907TIP3    H130356   5.043   3.544   7.876 -1.1721  0.6438 -0.6515
 2907TIP3    H230357   5.126   3.444   7.799 -0.3108  1.4830 -0.8309
 2908TIP3   OH230358   3.961   4.628   2.376  0.1037  0.5111  0.0403
 2908TIP3    H130359   3.923   4.713   2.400  0.4317  0.1849  1.8235
 2908TIP3    H230360   4.055   4.644   2.370  0.5549 -0.2250  3.2066
 2909TIP3   OH230361   3.394   1.431   8.045 -0.1265 -0.4155  0.0776
 2909TIP3    H130362   3.402   1.505   8.105  1.7900  0.4693 -1.1797
 2909TIP3    H230363   3.300   1.419   8.034 -0.5427  2.5776 -0.5308
 2910TIP3   OH230364   4.562   0.761   7.528 -0.1807 -0.1000 -0.6375
 2910TIP3    H130365   4.589   0.826   7.464  0.1266 -0.9001 -1.3470
 2910TIP3    H230366   4.496   0.805   7.581  1.5172  1.4648  0.2732
 2911TIP3   OH230367   4.990   0.879   1.753 -0.7197  0.3477 -0.6417
 2911TIP3    H130368   5.034   0.948   1.803  1.9034 -0.2196 -1.9960
 2911TIP3    H230369   4.911   0.921   1.719 -0.6345  1.8208  0.8342
 2912TIP3   OH230370   4.198   5.681   1.054  0.1551 -0.3359 -0.3219
 2912TIP3    H130371   4.154   5.691   0.969  0.7908 -0.2462 -0.6481
 2912TIP3    H230372   4.132   5.643   1.111 -1.0650  1.8409 -0.1705
 2913TIP3   OH230373   4.075   5.301   8.707  0.2421 -0.9050 -0.2365
 2913TIP3    H130374   4.059   5.223   8.759  0.0325 -0.6067  0.1512
 2913TIP3    H230375   4.023   5.370   8.750  0.6823 -0.4808 -0.3717
 2914TIP3   OH230376   4.706   1.520   7.009 -0.2569 -0.2897  0.5772
 2914TIP3    H130377   4.710   1.616   7.012 -0.0342 -0.2335 -0.9952
 2914TIP3    H230378   4.662   1.500   6.927 -0.8143 -1.5517  1.1549
 2915TIP3   OH230379   2.986   4.913   6.314  0.1014 -0.5937 -0.5706
 2915TIP3    H130380   2.903   4.874   6.345  0.4317 -2.0678 -1.4122
 2915TIP3    H230381   2.993   4.996   6.361 -1.1254 -1.1281  0.6333
 2916TIP3   OH230382   4.976   6.490   7.369  0.3619  0.8554  0.0225
 2916TIP3    H130383   5.044   6.534   7.419  2.2545 -0.8295 -0.9314
 2916TIP3    H230384   4.999   6.504   7.277 -1.4714  1.5363 -0.3820
 2917TIP3   OH230385   0.018   1.255   8.798  0.1240 -0.1907 -0.5047
 2917TIP3    H130386   0.072   1.184   8.765  0.0145 -0.5423  0.0584
 2917TIP3    H230387  -0.031   1.216   8.870 -1.2945 -0.0349 -1.3437
 2918TIP3   OH230388   5.165   6.643   8.448  0.0223 -0.3768  0.4290
 2918TIP3    H130389   5.238   6.658   8.387  1.4792  0.7450  2.3492
 2918TIP3    H230390   5.145   6.729   8.484 -1.4706 -0.8616  0.8508
 2919TIP3   OH230391   4.209   4.712   8.496 -0.3509 -0.0446  0.3071
 2919TIP3    H130392   4.262   4.701   8.575 -1.9703  0.0306  1.4567
 2919TIP3    H230393   4.202   4.806   8.484 -0.3496 -0.0522  0.2413
 2920TIP3   OH230394   1.932   3.745   1.972 -0.0123  0.3239 -0.2622
 2920TIP3    H130395   1.840   3.768   1.967 -0.2031 -0.2985  0.2468
 2920TIP3    H230396   1.963   3.785   2.053 -0.1433 -0.4741  0.1962
 2921TIP3   OH230397   1.272   4.295   8.582 -0.0067 -0.3034  0.2960
 2921TIP3    H130398   1.297   4.230   8.647  3.9996  1.4433  0.7828
 2921TIP3    H230399   1.265   4.377   8.630  1.2493  0.7179 -1.1627
 2922TIP3   OH230400   0.446   3.060   2.306  0.2567  0.2047  0.0451
 2922TIP3    H130401   0.453   3.000   2.380  1.0280  0.2471  0.0078
 2922TIP3    H230402   0.515   3.124   2.320 -0.7456  1.2745  0.2469
 2923TIP3   OH230403   5.106   5.234   7.661 -0.8694 -0.4426  0.9650
 2923TIP3    H130404   5.146   5.151   7.637 -1.2109 -1.0988  2.5482
 2923TIP3    H230405   5.017   5.229   7.624 -0.8426 -0.7181  0.9351
 2924TIP3   OH230406   4.909   4.511   0.941  0.0544 -0.0082  0.5513
 2924TIP3    H130407   4.889   4.436   0.997  0.3531 -1.2641 -0.9393
 2924TIP3    H230408   4.903   4.476   0.852  2.0250  1.2660 -0.1514
 2925TIP3   OH230409   5.741   4.530   8.419 -0.2242  0.1971  0.6594
 2925TIP3    H130410   5.825   4.507   8.378 -0.2491  1.3384 -0.0651
 2925TIP3    H230411   5.744   4.486   8.504  0.6515 -0.6459  0.2178
 2926TIP3   OH230412   0.926   2.756   6.258  0.3598 -0.2181  0.2603
 2926TIP3    H130413   0.892   2.833   6.304 -1.8854  0.4157 -2.1994
 2926TIP3    H230414   0.887   2.682   6.305  1.3003  0.1577  1.7091
 2927TIP3   OH230415   2.175   5.653   1.216 -0.2086  0.3127 -0.2737
 2927TIP3    H130416   2.263   5.674   1.185 -0.6422  2.0710 -0.4180
 2927TIP3    H230417   2.169   5.558   1.207  1.1402  0.3135 -1.7207
 2928TIP3   OH230418   4.718   5.243   1.870  0.2218 -0.4974 -0.1847
 2928TIP3    H130419   4.647   5.188   1.835  0.0792 -0.4123 -0.0267
 2928TIP3    H230420   4.729   5.213   1.960  0.2408 -0.3635 -0.1430
 2929TIP3   OH230421   4.654   2.279   8.330  0.5579  0.6295 -0.1849
 2929TIP3    H130422   4.647   2.293   8.424  0.7586 -1.7640  0.2391
 2929TIP3    H230423   4.596   2.344   8.292  1.8094  2.8413  1.4439
 2930TIP3   OH230424   0.205   5.980   1.381  0.5746 -0.3505 -0.2045
 2930TIP3    H130425   0.187   5.935   1.464 -0.5436 -1.6320 -1.0856
 2930TIP3    H230426   0.138   5.946   1.321  1.7740  0.0298 -1.8172
 2931TIP3   OH230427   1.851   4.440   8.475 -0.4083 -0.5772  0.2105
 2931TIP3    H130428   1.939   4.472   8.456 -0.2290 -1.7380 -1.1102
 2931TIP3    H230429   1.823   4.489   8.552  0.8618  0.7854 -0.1607
 2932TIP3   OH230430   6.702   0.225   0.616  0.1418  0.3602 -0.7284
 2932TIP3    H130431   6.680   0.132   0.606  1.8090 -0.0500 -0.8846
 2932TIP3    H230432   6.788   0.234   0.576  0.1643  1.9170 -0.4091
 2933TIP3   OH230433   3.371   3.065   1.711  0.3924  0.3452  0.0670
 2933TIP3    H130434   3.342   3.013   1.786 -2.1478  0.8022 -0.4984
 2933TIP3    H230435   3.343   3.154   1.731 -0.7231  0.4086 -1.5421
 2934TIP3   OH230436   5.641   3.726   8.193 -0.1802  0.4544  0.2822
 2934TIP3    H130437   5.638   3.709   8.099  1.5481  2.8849 -0.2969
 2934TIP3    H230438   5.586   3.804   8.205 -0.1268  0.3506  1.2460
 2935TIP3   OH230439   1.455   5.883   7.734 -0.1271  0.4017  0.3111
 2935TIP3    H130440   1.512   5.891   7.658 -0.2579 -0.3807  0.1246
 2935TIP3    H230441   1.425   5.973   7.751 -1.2555  0.4060 -1.4372
 2936TIP3   OH230442   0.529   4.027   0.514 -0.0800 -0.4231 -0.3762
 2936TIP3    H130443   0.589   4.058   0.582 -0.1116 -2.3392  0.5737
 2936TIP3    H230444   0.470   3.967   0.559 -1.8102  0.2760 -1.5944
 2937TIP3   OH230445   2.107   1.086   7.181  0.5766 -0.4037 -0.2465
 2937TIP3    H130446   2.095   1.173   7.219  0.5206 -0.5699  0.1202
 2937TIP3    H230447   2.127   1.103   7.089  0.4378 -0.0081 -0.2078
 2938TIP3   OH230448   4.796   5.925   7.485  0.5770 -0.2207  0.1114
 2938TIP3    H130449   4.805   6.011   7.444 -1.9781  0.9204  1.6587
 2938TIP3    H230450   4.834   5.937   7.572 -1.2421 -0.0486  0.9432
 2939TIP3   OH230451   3.421   6.765   8.779 -0.4595  0.2722 -0.3447
 2939TIP3    H130452   3.482   6.792   8.710  1.7865  0.5190  1.6200
 2939TIP3    H230453   3.469   6.697   8.828 -1.2254  1.3452  2.0224
 2940TIP3   OH230454   0.897   2.731   0.772 -0.1876 -0.8242  0.1973
 2940TIP3    H130455   0.975   2.783   0.754 -0.9775  0.5151  0.4911
 2940TIP3    H230456   0.930   2.643   0.787  1.1799 -0.4658 -0.5184
 2941TIP3   OH230457   5.218   0.790   1.645  0.0584 -0.4763 -0.8551
 2941TIP3    H130458   5.274   0.800   1.721 -0.1180 -0.0303 -0.7770
 2941TIP3    H230459   5.132   0.818   1.675 -0.0115 -0.2937 -1.2154
 2942TIP3   OH230460   0.475   6.294   1.480  0.9758 -0.0469  0.0853
 2942TIP3    H130461   0.412   6.308   1.409 -0.1365 -2.7959  0.4240
 2942TIP3    H230462   0.474   6.377   1.529 -0.8158  0.7162 -1.1240
 2943TIP3   OH230463   2.572   1.828   1.895 -0.0335 -0.0647 -0.2619
 2943TIP3    H130464   2.612   1.799   1.813 -2.5640  0.6619 -1.8605
 2943TIP3    H230465   2.498   1.769   1.907  0.0567  0.1041  1.3284
 2944TIP3   OH230466   4.981   2.321   7.768  0.1557  0.4435  0.0380
 2944TIP3    H130467   4.968   2.414   7.754 -2.2157  0.1087 -0.4188
 2944TIP3    H230468   5.014   2.289   7.684 -0.4111  0.6524 -0.2672
 2945TIP3   OH230469   0.985   2.846   7.914  0.0077 -0.3438 -0.5167
 2945TIP3    H130470   0.940   2.930   7.924 -1.5536 -1.0574 -1.1653
 2945TIP3    H230471   1.077   2.866   7.931 -0.2353  1.6070 -1.1961
 2946TIP3   OH230472   5.821   1.061   1.316  0.4653  0.2874 -0.0873
 2946TIP3    H130473   5.913   1.082   1.329  0.3323  0.4729  0.6196
 2946TIP3    H230474   5.794   1.116   1.242  0.9900  0.0145 -0.4883
 2947TIP3   OH230475   3.274   6.580   0.633  0.2791  0.2063  0.2966
 2947TIP3    H130476   3.317   6.609   0.713 -1.2011  0.6926  0.9498
 2947TIP3    H230477   3.285   6.485   0.631 -0.2246  0.1184  1.4144
 2948TIP3   OH230478   0.031   5.085   0.419  0.2402 -0.4198 -0.0792
 2948TIP3    H130479   0.040   5.180   0.426 -0.3597 -0.4916  2.4664
 2948TIP3    H230480  -0.019   5.072   0.338 -1.0310  1.5546  0.3205
 2949TIP3   OH230481   2.384   4.362   0.878  0.2840  0.2874  0.1008
 2949TIP3    H130482   2.313   4.311   0.839  0.1290  0.7837 -0.2680
 2949TIP3    H230483   2.372   4.352   0.973 -0.5532  0.7418  0.0506
 2950TIP3   OH230484   2.464   6.795   8.643 -0.6911 -0.2538  0.1017
 2950TIP3    H130485   2.488   6.725   8.704 -1.2803  0.3909  1.0845
 2950TIP3    H230486   2.368   6.793   8.641 -0.6799 -0.6301 -1.2521
 2951TIP3   OH230487   5.909   5.286   8.634 -0.2618  0.8448 -0.3379
 2951TIP3    H130488   5.882   5.230   8.561  1.1302  0.4437 -0.5708
 2951TIP3    H230489   5.839   5.351   8.642 -1.4292 -0.3337 -0.6958
 2952TIP3   OH230490   2.813   3.765   6.573 -0.3080  0.9853 -0.1845
 2952TIP3    H130491   2.781   3.694   6.517  1.2976 -0.4355  0.6017
 2952TIP3    H230492   2.840   3.833   6.512 -0.3789  0.2560 -1.0525
 2953TIP3   OH230493   0.082   3.371   0.540 -0.5407 -0.3576  0.5879
 2953TIP3    H130494   0.028   3.423   0.481 -0.9314 -1.6599 -0.2507
 2953TIP3    H230495   0.167   3.366   0.496 -1.4572 -3.2197 -1.1148
 2954TIP3   OH230496   2.378   4.963   0.911  0.1151  0.2684 -0.4831
 2954TIP3    H130497   2.291   4.967   0.949 -0.9087 -0.7707 -2.5845
 2954TIP3    H230498   2.382   5.037   0.851  2.0252  2.4083  2.0143
 2955TIP3   OH230499   2.980   5.295   1.970 -0.1589  0.0714  0.0398
 2955TIP3    H130500   2.975   5.205   2.002 -0.5114 -0.2206 -0.7955
 2955TIP3    H230501   2.928   5.347   2.032 -0.1818 -0.3462  0.3698
 2956TIP3   OH230502   5.182   3.524   1.050 -0.4133 -0.1439  0.3784
 2956TIP3    H130503   5.144   3.449   1.005  2.7630 -1.6468 -0.0592
 2956TIP3    H230504   5.213   3.489   1.133  1.1454  0.6247  0.1558
 2957TIP3   OH230505   1.598   2.518   7.588 -0.3409 -0.5681  0.2410
 2957TIP3    H130506   1.593   2.454   7.517 -0.0130 -0.8884  0.5059
 2957TIP3    H230507   1.621   2.601   7.544  0.5928 -0.9146  0.0529
 2958TIP3   OH230508   0.736   5.661   6.948 -0.0416 -0.2668  0.4023
 2958TIP3    H130509   0.825   5.640   6.921 -0.0202  1.4537 -0.9986
 2958TIP3    H230510   0.681   5.605   6.894  0.1474 -0.8452  0.7952
 2959TIP3   OH230511   1.782   0.367   8.229  0.4021 -0.2124 -0.1331
 2959TIP3    H130512   1.689   0.388   8.218  0.5468  1.3157  1.2379
 2959TIP3    H230513   1.786   0.311   8.307  0.7723  1.1127  0.8222
 2960TIP3   OH230514   5.119   5.929   7.027 -0.0473 -0.1378 -0.6317
 2960TIP3    H130515   5.089   5.982   7.101 -2.2755  0.1514 -1.6602
 2960TIP3    H230516   5.192   5.979   6.991  0.3368  0.2942  0.6665
 2961TIP3   OH230517   4.113   2.265   1.190 -0.1006 -0.4369 -0.2289
 2961TIP3    H130518   4.021   2.266   1.164  0.0645 -1.2444 -0.8767
 2961TIP3    H230519   4.112   2.231   1.280 -0.4950  0.3145  0.0576
 2962TIP3   OH230520   2.443   3.659   2.267  0.2692  0.0618 -0.2303
 2962TIP3    H130521   2.447   3.581   2.323 -0.6490  0.0135 -0.2130
 2962TIP3    H230522   2.354   3.692   2.280  0.3023  0.4924 -1.0802
 2963TIP3   OH230523   2.202   0.501   1.223  0.0422  0.0028 -0.6673
 2963TIP3    H130524   2.213   0.581   1.275  0.8311 -0.1359 -0.6133
 2963TIP3    H230525   2.223   0.430   1.282  3.9313 -0.0610 -1.8548
 2964TIP3   OH230526   5.846   6.191   6.515  0.3061  0.5175  0.1879
 2964TIP3    H130527   5.825   6.153   6.429 -1.0786 -2.7102  1.7746
 2964TIP3    H230528   5.906   6.263   6.495  0.9061 -0.7428 -3.3732
 2965TIP3   OH230529   2.034   1.319   0.173 -0.6037  0.4550 -0.1969
 2965TIP3    H130530   2.008   1.344   0.261 -0.4988 -0.2992  0.0569
 2965TIP3    H230531   1.957   1.277   0.136 -0.1088 -0.8521  0.1895
 2966TIP3   OH230532   4.084   5.587   7.681 -0.4889  0.0972 -0.5597
 2966TIP3    H130533   4.180   5.580   7.684 -0.4424  1.1016  1.2493
 2966TIP3    H230534   4.062   5.652   7.747 -2.4193  0.1951 -1.2299
 2967TIP3   OH230535   5.477   6.282   8.616  0.2121  0.0515  0.3942
 2967TIP3    H130536   5.387   6.313   8.606 -0.2259 -1.4388 -0.8442
 2967TIP3    H230537   5.513   6.287   8.527  0.9382 -0.5057  0.6517
 2968TIP3   OH230538   2.442   4.883   7.139 -0.3203  0.7461  0.1942
 2968TIP3    H130539   2.457   4.923   7.053 -1.4007  2.3752  0.7197
 2968TIP3    H230540   2.461   4.952   7.202  2.6724 -1.0405  1.4736
 2969TIP3   OH230541   4.812   2.549   7.034  0.2554  0.5065  0.4693
 2969TIP3    H130542   4.763   2.513   6.960 -0.9339 -0.1412  1.5421
 2969TIP3    H230543   4.890   2.586   6.994  0.2059 -0.8340 -1.0029
 2970TIP3   OH230544   4.536   2.537   1.895  0.2214 -0.0078 -0.0910
 2970TIP3    H130545   4.525   2.443   1.911  1.8613 -0.3028 -0.4401
 2970TIP3    H230546   4.575   2.570   1.976 -1.8192  0.7322  0.6529
 2971TIP3   OH230547   0.453   2.202   8.002 -0.2691  0.2434 -0.0407
 2971TIP3    H130548   0.541   2.239   8.014 -1.0876  2.0411  0.8095
 2971TIP3    H230549   0.454   2.166   7.913  1.2620  0.3688 -0.1031
 2972TIP3   OH230550   4.531   0.846   0.642 -0.0600 -0.4879 -0.4724
 2972TIP3    H130551   4.552   0.761   0.602 -0.3601 -0.2336 -1.1731
 2972TIP3    H230552   4.616   0.888   0.654 -0.0605  0.2114 -2.5915
 2973TIP3   OH230553   3.633   3.936   7.860  0.0946  0.1791  0.1160
 2973TIP3    H130554   3.699   3.916   7.927 -0.0257  0.3618  0.2898
 2973TIP3    H230555   3.625   4.031   7.862 -0.4796  0.1263  0.3935
 2974TIP3   OH230556   3.117   3.414   7.497 -0.4339 -0.0327  0.1310
 2974TIP3    H130557   3.119   3.404   7.402  1.0111  2.1111 -0.1345
 2974TIP3    H230558   3.111   3.324   7.530 -1.0256 -0.8277 -1.9596
 2975TIP3   OH230559   3.010   0.502   6.566 -0.0089  0.2838  0.4881
 2975TIP3    H130560   2.953   0.426   6.568 -0.1580  0.3391 -0.8959
 2975TIP3    H230561   3.095   0.468   6.537 -0.1033  0.6490 -0.2403
 2976TIP3   OH230562   3.743   4.330   1.965  0.1135 -0.2975 -0.5448
 2976TIP3    H130563   3.672   4.291   2.018  1.1263 -1.7960 -0.2278
 2976TIP3    H230564   3.736   4.287   1.880  0.4607 -0.2488 -0.6000
 2977TIP3   OH230565   3.623   3.405   1.964  0.4811 -0.4647  0.1211
 2977TIP3    H130566   3.607   3.375   2.053  1.8673  0.9889  0.9098
 2977TIP3    H230567   3.567   3.482   1.954  0.0908 -0.8141 -0.3726
 2978TIP3   OH230568   0.030   5.308   0.088  0.1351 -0.4201 -0.0287
 2978TIP3    H130569   0.021   5.268   0.175  1.2830 -1.1159 -0.2084
 2978TIP3    H230570   0.123   5.297   0.066 -0.4192 -1.7121 -2.0315
 2979TIP3   OH230571   4.162   2.552   1.591 -0.0109 -0.6138 -0.3706
 2979TIP3    H130572   4.180   2.543   1.685  2.0794  0.4871 -0.5999
 2979TIP3    H230573   4.095   2.620   1.585 -0.4506 -0.9801  0.3465
 2980TIP3   OH230574   5.439   3.936   8.456  0.6416 -0.1082  0.0197
 2980TIP3    H130575   5.468   3.989   8.530  0.4838  0.0360 -0.0222
 2980TIP3    H230576   5.458   3.846   8.483  0.0307 -0.1059  0.4894
 2981TIP3   OH230577   5.637   5.290   7.421  0.7605  0.0807 -0.1614
 2981TIP3    H130578   5.584   5.220   7.383 -1.3530  1.4940  0.0049
 2981TIP3    H230579   5.596   5.371   7.390  0.2533  1.3096  3.2014
 2982TIP3   OH230580   1.949   0.693   2.059  0.2868  0.2863 -0.3239
 2982TIP3    H130581   1.929   0.778   2.098 -1.0993  0.1639 -0.7208
 2982TIP3    H230582   1.876   0.676   1.999 -0.4953 -2.0248  1.1288
 2983TIP3   OH230583   0.508   1.589   1.701  0.5569  0.1520 -0.0473
 2983TIP3    H130584   0.546   1.676   1.685  1.8485 -0.1838  0.9817
 2983TIP3    H230585   0.418   1.607   1.730  0.8436  1.1657  0.2598
 2984TIP3   OH230586   0.821   2.657   1.452  0.0014  0.0978 -0.1035
 2984TIP3    H130587   0.794   2.594   1.519  0.4201  0.8098  0.7554
 2984TIP3    H230588   0.744   2.664   1.395 -1.4971  1.5816  1.9167
 2985TIP3   OH230589   2.208   4.592   0.869  0.4976  0.6622  0.0913
 2985TIP3    H130590   2.284   4.648   0.853  0.5656 -0.0493 -2.5811
 2985TIP3    H230591   2.244   4.504   0.873  0.1280  0.5615  2.0370
 2986TIP3   OH230592   4.021   0.479   6.610 -0.2707 -0.2227  0.0431
 2986TIP3    H130593   4.047   0.568   6.633  0.0687 -0.0839 -0.8576
 2986TIP3    H230594   4.074   0.457   6.533 -0.4477 -1.1529  0.1747
 2987TIP3   OH230595   1.183   3.571   7.677  0.2946 -0.3767  0.0275
 2987TIP3    H130596   1.169   3.639   7.611 -0.1445 -0.3966  0.0969
 2987TIP3    H230597   1.246   3.511   7.637 -0.1617 -0.5265 -0.4803
 2988TIP3   OH230598   5.636   2.658   8.177  0.5357 -0.2636  0.2980
 2988TIP3    H130599   5.689   2.667   8.098 -1.4770  1.2079 -0.9777
 2988TIP3    H230600   5.569   2.593   8.154 -2.8939  3.3678 -1.0455
 2989TIP3   OH230601   3.474   1.173   8.098 -0.0922  0.1545  0.1107
 2989TIP3    H130602   3.565   1.191   8.123 -0.8476  2.4488  1.4355
 2989TIP3    H230603   3.433   1.259   8.092 -1.6421 -0.6349 -2.8742
 2990TIP3   OH230604   2.697   0.058   6.237  0.4573 -0.2903 -0.5413
 2990TIP3    H130605   2.730   0.062   6.327  0.6128  0.9780 -0.6328
 2990TIP3    H230606   2.610   0.020   6.245 -0.4136  1.7598  0.4444
 2991TIP3   OH230607   5.789   2.211   8.064 -0.4163 -0.0799 -0.4806
 2991TIP3    H130608   5.795   2.242   8.154 -0.4026 -0.2669 -0.4178
 2991TIP3    H230609   5.875   2.175   8.045 -0.4923 -0.2556 -0.4906
 2992TIP3   OH230610   4.123   0.113   1.369  0.1297 -0.5622 -0.1407
 2992TIP3    H130611   4.077   0.083   1.291  0.6058  1.8649 -1.4417
 2992TIP3    H230612   4.212   0.078   1.361  0.6975  1.1191 -1.6580
 2993TIP3   OH230613   1.487   0.727   7.608  0.3054  0.1754 -0.1960
 2993TIP3    H130614   1.486   0.724   7.703 -0.2450 -0.4297 -0.2189
 2993TIP3    H230615   1.555   0.791   7.587 -0.4746  1.3178  0.6251
 2994TIP3   OH230616   5.396   0.963   1.476 -0.8499 -0.7522  0.4591
 2994TIP3    H130617   5.484   0.982   1.509 -0.6386 -1.2881  0.2191
 2994TIP3    H230618   5.358   0.904   1.542 -1.5581  0.5543  1.2794
 2995TIP3   OH230619   0.439   1.603   7.636  0.4888  0.0559 -0.3913
 2995TIP3    H130620   0.356   1.610   7.685 -0.0100 -0.5950 -1.1165
 2995TIP3    H230621   0.466   1.512   7.648  2.1807  0.7322  1.4979
 2996TIP3   OH230622   5.999   4.011   8.797  0.5214  0.5725  0.7215
 2996TIP3    H130623   6.071   3.997   8.858  0.6842  0.6316  0.5413
 2996TIP3    H230624   6.036   4.064   8.727  0.3286  0.5205  0.5797
 2997TIP3   OH230625   4.665   1.161   2.054  0.6833 -0.3184 -0.3472
 2997TIP3    H130626   4.637   1.072   2.036 -0.5072 -0.0749  0.2073
 2997TIP3    H230627   4.610   1.215   1.997 -0.9814  0.2544  1.6575
 2998TIP3   OH230628   2.926   6.465   0.716  0.0837  0.1211  0.8680
 2998TIP3    H130629   3.010   6.507   0.701  0.7050 -1.0604  0.9204
 2998TIP3    H230630   2.882   6.467   0.631 -0.3675  1.7962  1.0986
 2999TIP3   OH230631   5.794   4.327   0.827  0.0754 -0.1568 -0.5176
 2999TIP3    H130632   5.844   4.262   0.778  0.0509 -0.5238 -0.0502
 2999TIP3    H230633   5.796   4.297   0.917 -0.3185  0.2503 -0.3695
 3000TIP3   OH230634   0.639   5.131   6.664  0.6737  0.0234  0.3661
 3000TIP3    H130635   0.723   5.110   6.622  0.4931  0.7054 -0.3670
 3000TIP3    H230636   0.597   5.046   6.675  1.4962 -0.3403  0.8382
 3001TIP3   OH230637   4.861   1.410   8.712  0.0916  0.3887 -0.5412
 3001TIP3    H130638   4.931   1.409   8.777  0.6592  0.1444 -1.1420
 3001TIP3    H230639   4.803   1.481   8.739  1.0510  1.1889 -0.5363
 3002TIP3   OH230640   4.956   2.680   1.877  0.5304  0.5613 -0.0890
 3002TIP3    H130641   4.908   2.676   1.794  0.6329 -1.5871 -0.1020
 3002TIP3    H230642   4.896   2.725   1.937 -2.4498 -3.4888  0.3728
 3003TIP3   OH230643   3.121   2.449   0.458 -0.6755 -0.3330  0.2713
 3003TIP3    H130644   3.132   2.479   0.367 -1.7444 -0.2813  0.1409
 3003TIP3    H230645   3.108   2.354   0.450  4.0650 -1.2796  0.7805
 3004TIP3   OH230646   0.243   6.028   7.859  0.0667  0.0303  0.6904
 3004TIP3    H130647   0.222   5.940   7.830  0.0567  0.0784  0.5496
 3004TIP3    H230648   0.321   6.052   7.808  0.4457 -0.1354  1.1821
 3005TIP3   OH230649   4.096   5.182   1.072 -0.4749  0.4063  0.0998
 3005TIP3    H130650   4.045   5.102   1.057 -0.0591  0.3474 -1.0452
 3005TIP3    H230651   4.183   5.162   1.039 -0.2460  1.1909  0.2092
 3006TIP3   OH230652   3.099   3.559   8.106 -0.3848  0.0323  0.1450
 3006TIP3    H130653   3.173   3.600   8.062 -0.3250 -1.8118 -1.6281
 3006TIP3    H230654   3.117   3.570   8.199  0.9481  1.5885 -0.2551
 3007TIP3   OH230655   1.286   6.773   7.853  0.6277 -0.1841 -0.0543
 3007TIP3    H130656   1.282   6.682   7.824  0.4032 -0.3468  0.4730
 3007TIP3    H230657   1.256   6.771   7.944 -2.4978  0.8402 -0.9356
 3008TIP3   OH230658   6.669   1.989   7.762  0.2935  0.2989 -0.1393
 3008TIP3    H130659   6.680   2.018   7.671  0.3436  0.9332  0.0669
 3008TIP3    H230660   6.618   2.058   7.803 -1.0635 -0.7139 -0.0603
 3009TIP3   OH230661   5.320   2.494   6.903 -0.3555  0.0988 -0.2410
 3009TIP3    H130662   5.259   2.489   6.829  0.0211  0.2908 -0.5680
 3009TIP3    H230663   5.406   2.477   6.865 -0.2730 -0.8502  0.3327
 3010TIP3   OH230664   4.028   6.198   8.864  0.4066  0.6342  0.4784
 3010TIP3    H130665   4.096   6.231   8.923 -1.7697  0.2328  3.4265
 3010TIP3    H230666   4.040   6.103   8.864  0.1480  0.6008  0.6349
 3011TIP3   OH230667   0.075   5.032   8.854 -0.3489  0.2887  0.0158
 3011TIP3    H130668   0.154   4.990   8.888 -1.1411 -1.7636 -0.5814
 3011TIP3    H230669   0.108   5.099   8.794  0.9480  0.2054  0.6119
 3012TIP3   OH230670   5.969   2.892   1.534  0.2711  0.0811  0.3779
 3012TIP3    H130671   5.938   2.917   1.622  1.3858  0.2314  0.7466
 3012TIP3    H230672   5.890   2.892   1.480 -0.2638  1.1943  1.1142
 3013TIP3   OH230673   2.230   3.470   7.229 -0.0326  0.4051 -0.0619
 3013TIP3    H130674   2.187   3.435   7.151  0.0465  1.2792 -0.5157
 3013TIP3    H230675   2.276   3.548   7.197  0.8785  0.1758  0.6545
 3014TIP3   OH230676   0.686   0.315   0.940  0.3900 -0.0431 -0.1733
 3014TIP3    H130677   0.705   0.379   0.871  2.2723 -0.5029 -0.1589
 3014TIP3    H230678   0.756   0.328   1.004 -0.8117 -0.2396  1.2125
 3015TIP3   OH230679   6.294   5.442   1.434  0.3849  0.4868 -0.7369
 3015TIP3    H130680   6.220   5.493   1.403 -1.0378 -1.5263 -0.8455
 3015TIP3    H230681   6.258   5.387   1.504  1.7862 -0.4364 -0.6972
 3016TIP3   OH230682   1.484   4.951   7.083  0.0405 -0.3249  0.3277
 3016TIP3    H130683   1.451   4.941   6.994  0.9624 -0.6126  0.0011
 3016TIP3    H230684   1.406   4.950   7.138 -0.6263  0.8013 -0.5360
 3017TIP3   OH230685   3.446   0.725   7.113 -0.6235 -0.0238 -0.2528
 3017TIP3    H130686   3.412   0.806   7.075 -0.0600  0.7715  0.8823
 3017TIP3    H230687   3.533   0.750   7.146 -0.2702 -1.2034 -0.2693
 3018TIP3   OH230688   5.151   6.323   0.724 -0.0116 -0.1617 -0.2016
 3018TIP3    H130689   5.141   6.250   0.785  1.8966 -0.3043  0.0098
 3018TIP3    H230690   5.181   6.396   0.778 -0.0415  0.2299 -0.7054
 3019TIP3   OH230691   5.326   4.859   7.267 -0.1447 -0.4168  0.1022
 3019TIP3    H130692   5.234   4.878   7.253 -0.1585 -0.2704  0.3713
 3019TIP3    H230693   5.327   4.782   7.324 -0.1179  0.2194  0.9801
 3020TIP3   OH230694   4.070   2.430   7.659  0.2949 -0.3599 -0.0532
 3020TIP3    H130695   4.027   2.473   7.733  1.7506  1.1582 -0.0085
 3020TIP3    H230696   3.999   2.406   7.600 -0.8081 -0.6043  1.3347
 3021TIP3   OH230697   2.000   3.930   8.099 -0.1658 -0.1185 -0.5665
 3021TIP3    H130698   2.011   3.913   8.193  4.1229 -0.8350 -1.0028
 3021TIP3    H230699   1.977   3.845   8.062 -1.6588  0.1229 -0.2593
 3022TIP3   OH230700   2.888   0.398   1.943 -0.0037  0.6009 -0.0416
 3022TIP3    H130701   2.861   0.306   1.941  1.3021  0.1820  0.7313
 3022TIP3    H230702   2.979   0.396   1.971  0.1836  2.1142 -0.4506
 3023TIP3   OH230703   4.890   5.064   7.907  0.0844 -0.1983  0.0670
 3023TIP3    H130704   4.842   5.144   7.928 -0.4545 -0.6425  0.5799
 3023TIP3    H230705   4.970   5.070   7.958  0.5850  0.5346 -0.7696
 3024TIP3   OH230706   2.290   6.668   2.350 -0.6361 -0.2736 -0.2330
 3024TIP3    H130707   2.352   6.673   2.423 -0.1828 -1.9877 -0.4668
 3024TIP3    H230708   2.236   6.747   2.359  1.6001  1.3434 -0.0765
 3025TIP3   OH230709   5.509   4.569   2.274  0.3129  0.6321  0.3185
 3025TIP3    H130710   5.431   4.618   2.301 -0.9425  0.2514 -2.2825
 3025TIP3    H230711   5.490   4.478   2.297 -0.1307  0.5072 -0.5209
 3026TIP3   OH230712   2.285   0.877   1.930 -0.1154 -0.1730  0.3158
 3026TIP3    H130713   2.370   0.885   1.886  0.7099  1.2743  2.0395
 3026TIP3    H230714   2.246   0.964   1.925 -0.9473 -0.5196  0.5785
 3027TIP3   OH230715   3.125   1.491   8.134  0.1037  0.6351 -0.2192
 3027TIP3    H130716   3.102   1.399   8.147  0.0856  0.7435  0.6005
 3027TIP3    H230717   3.118   1.505   8.040 -1.0825  0.1035 -0.2259
 3028TIP3   OH230718   0.172   1.878   2.124 -0.8199  0.3794 -0.1590
 3028TIP3    H130719   0.082   1.851   2.107 -0.6544  0.4547 -1.2090
 3028TIP3    H230720   0.174   1.898   2.218 -1.1303 -2.4490  0.5390
 3029TIP3   OH230721   4.481   1.547   8.306 -0.2407 -0.0817  1.0282
 3029TIP3    H130722   4.408   1.551   8.368 -1.3313 -2.8182  0.0754
 3029TIP3    H230723   4.557   1.526   8.360 -0.3398  1.6231  1.8897
 3030TIP3   OH230724   0.836   2.330   1.139 -0.3555 -0.0726  0.3253
 3030TIP3    H130725   0.857   2.374   1.057  1.7478 -0.8494  0.3892
 3030TIP3    H230726   0.873   2.386   1.207 -0.4032 -0.3810  0.6096
 3031TIP3   OH230727   3.623   0.751   7.455 -0.0123 -0.0559 -0.2642
 3031TIP3    H130728   3.655   0.801   7.530 -1.2354  1.5939 -0.7707
 3031TIP3    H230729   3.538   0.790   7.435 -0.6636 -1.8414 -1.2277
 3032TIP3   OH230730   4.781   4.010   7.772  0.1649 -0.3102  0.7281
 3032TIP3    H130731   4.874   4.003   7.751  0.2111  0.1126  0.7931
 3032TIP3    H230732   4.758   3.924   7.808  0.6702 -0.2187  1.2742
 3033TIP3   OH230733   4.645   0.706   8.249 -0.3864  0.2942  0.2395
 3033TIP3    H130734   4.574   0.731   8.309  0.3346  0.5845  0.9970
 3033TIP3    H230735   4.639   0.769   8.177 -0.6893  0.5200  0.4570
 3034TIP3   OH230736   4.881   3.057   1.710  0.5578  0.2557 -0.6806
 3034TIP3    H130737   4.876   2.968   1.677 -1.8548  0.0347  0.0995
 3034TIP3    H230738   4.795   3.074   1.748  1.7612  1.9940  1.5593
 3035TIP3   OH230739   4.279   4.491   7.591 -0.1312 -0.2800 -0.5076
 3035TIP3    H130740   4.227   4.440   7.529 -0.6449 -0.7816  0.3302
 3035TIP3    H230741   4.326   4.426   7.643 -0.9616  0.0760  0.7249
 3036TIP3   OH230742   4.550   6.500   6.703  0.3068 -0.1892  0.3240
 3036TIP3    H130743   4.506   6.583   6.685  1.0066  0.0313 -0.3898
 3036TIP3    H230744   4.567   6.463   6.617  0.5730 -0.7733  0.6302
 3037TIP3   OH230745   5.917   3.784   0.417  0.1594 -0.4011  0.0977
 3037TIP3    H130746   5.850   3.789   0.486 -0.0492  0.4058 -0.1639
 3037TIP3    H230747   5.968   3.865   0.426  0.0026 -0.1923 -0.8347
 3038TIP3   OH230748   6.295   3.430   0.946  0.4699  0.6132 -0.8760
 3038TIP3    H130749   6.233   3.474   0.887 -1.4917  0.7530  1.1701
 3038TIP3    H230750   6.242   3.362   0.988  1.8818  0.3527  0.5349
 3039TIP3   OH230751   6.016   3.331   6.854  0.3349 -0.1886 -0.1376
 3039TIP3    H130752   6.098   3.376   6.837 -0.4368  2.4967  2.3836
 3039TIP3    H230753   5.972   3.327   6.769  1.6843  1.3595 -0.9516
 3040TIP3   OH230754   5.606   1.820   8.544 -0.7091  0.2790 -0.1714
 3040TIP3    H130755   5.635   1.738   8.504 -1.3186  0.0544 -0.1734
 3040TIP3    H230756   5.609   1.884   8.473 -0.7426  0.1327 -0.3065
 3041TIP3   OH230757   4.100   5.906   1.289  0.3626 -0.4376  0.2437
 3041TIP3    H130758   4.065   5.846   1.355  0.4371 -1.2136 -0.4120
 3041TIP3    H230759   4.134   5.980   1.340 -1.5049 -0.0117  0.9564
 3042TIP3   OH230760   3.842   0.494   8.479 -0.0530  0.3573  0.5732
 3042TIP3    H130761   3.790   0.574   8.472  0.2735  0.7042  1.7565
 3042TIP3    H230762   3.836   0.470   8.572  0.6185 -0.4632  0.4166
 3043TIP3   OH230763   5.544   4.023   7.543  0.4875  0.4305 -0.3765
 3043TIP3    H130764   5.507   4.065   7.465  1.5550  1.9446 -0.1272
 3043TIP3    H230765   5.621   4.077   7.564  1.5087 -1.2669  0.4140
 3044TIP3   OH230766   4.580   0.990   1.252 -0.4402 -0.0225 -0.1293
 3044TIP3    H130767   4.525   1.068   1.245  1.1068  1.0192 -1.2830
 3044TIP3    H230768   4.547   0.932   1.183 -0.9118  0.0580  0.0263
 3045TIP3   OH230769   5.622   3.447   8.131 -0.8059 -0.1433  0.5189
 3045TIP3    H130770   5.619   3.459   8.225 -2.5163  0.3746  0.4321
 3045TIP3    H230771   5.531   3.458   8.102 -0.2298  0.3901 -1.2617
 3046TIP3   OH230772   5.511   6.322   2.125  0.0045  0.2446 -0.2551
 3046TIP3    H130773   5.605   6.334   2.116 -0.0237  1.2684  0.6809
 3046TIP3    H230774   5.497   6.307   2.218 -0.6552 -1.0893 -0.5391
 3047TIP3   OH230775   0.732   6.551   2.310 -0.3657  0.6600 -0.1267
 3047TIP3    H130776   0.775   6.505   2.239 -0.1543  0.6188  0.0258
 3047TIP3    H230777   0.803   6.576   2.369 -0.7308 -2.0106  1.6722
 3048TIP3   OH230778   2.979   6.161   7.103  0.0913  0.3632  0.1253
 3048TIP3    H130779   2.947   6.239   7.149  0.7043  1.2398 -0.8613
 3048TIP3    H230780   2.919   6.091   7.128 -1.6023  1.5721 -0.3670
 3049TIP3   OH230781   3.196   6.471   1.036 -0.4330 -0.5705  0.1307
 3049TIP3    H130782   3.143   6.400   0.999 -0.6660 -0.3847  0.1101
 3049TIP3    H230783   3.226   6.436   1.121  0.2792 -1.0794 -0.3162
 3050TIP3   OH230784   4.241   2.494   7.438  0.4649  0.8377  0.0459
 3050TIP3    H130785   4.216   2.585   7.420 -1.8248  0.5928  1.6552
 3050TIP3    H230786   4.204   2.475   7.524 -0.8719 -2.2411 -1.0697
 3051TIP3   OH230787   2.467   2.596   0.280 -0.1553 -0.3566 -0.0684
 3051TIP3    H130788   2.397   2.554   0.230 -0.8551  1.9481 -1.1940
 3051TIP3    H230789   2.431   2.682   0.302  1.6092  0.1349  1.0754
 3052TIP3   OH230790   1.781   0.475   2.611  0.2216  0.3793 -0.2048
 3052TIP3    H130791   1.849   0.529   2.651 -0.6415  0.7044  0.8578
 3052TIP3    H230792   1.719   0.458   2.681  0.0661 -1.3625 -0.7131
 3053TIP3   OH230793   2.453   2.043   6.574  0.2105 -0.2912 -0.2781
 3053TIP3    H130794   2.384   2.106   6.593  2.0558  1.9419 -0.4320
 3053TIP3    H230795   2.457   2.039   6.479  0.5221 -0.1230 -0.2743
 3054TIP3   OH230796   4.371   4.873   7.080 -0.0055  0.1981  0.1182
 3054TIP3    H130797   4.421   4.839   7.155  0.3423 -0.7826 -0.5457
 3054TIP3    H230798   4.437   4.887   7.012 -0.3429  0.9484 -0.0614
 3055TIP3   OH230799   2.713   3.531   2.140 -0.2890  0.2536  0.1532
 3055TIP3    H130800   2.779   3.580   2.091  0.1574 -0.6878 -0.2023
 3055TIP3    H230801   2.636   3.530   2.082 -0.1176  0.0652 -0.0724
 3056TIP3   OH230802   4.587   3.384   0.931  0.0298 -0.1289  0.2684
 3056TIP3    H130803   4.512   3.391   0.872  0.7956 -1.6330 -0.9306
 3056TIP3    H230804   4.555   3.421   1.014 -1.5595  0.5898 -0.6263
 3057TIP3   OH230805   1.201   0.800   1.477  0.8530 -0.1784 -0.1146
 3057TIP3    H130806   1.224   0.760   1.561 -0.1655  0.5248  0.5258
 3057TIP3    H230807   1.254   0.879   1.473 -0.2596  0.6483  0.6602
 3058TIP3   OH230808   0.130   3.886   7.508  0.2137 -0.2247 -0.5423
 3058TIP3    H130809   0.152   3.857   7.419 -1.0809 -1.2153 -0.5805
 3058TIP3    H230810   0.194   3.954   7.528 -1.7334  2.8936 -3.7488
 3059TIP3   OH230811   2.575   2.238   0.299  0.1072  0.3016  0.3372
 3059TIP3    H130812   2.537   2.158   0.336  0.9824 -0.1375  0.2983
 3059TIP3    H230813   2.578   2.221   0.205  1.2232 -0.0316  0.4231
 3060TIP3   OH230814   4.502   0.470   7.884 -0.4397 -0.5706 -0.2079
 3060TIP3    H130815   4.471   0.407   7.819 -1.1841 -0.2083 -0.2203
 3060TIP3    H230816   4.466   0.440   7.967 -1.6159  0.3346 -0.3535
 3061TIP3   OH230817   6.518   6.202   7.210  0.3124 -0.1571 -0.0108
 3061TIP3    H130818   6.525   6.221   7.116  2.7697 -0.3053  0.0845
 3061TIP3    H230819   6.500   6.287   7.250 -0.1713  0.0074 -0.5667
 3062TIP3   OH230820   2.022   6.182   0.763  0.1827  0.7318 -0.2175
 3062TIP3    H130821   1.980   6.153   0.844  1.9370  1.7347  1.1157
 3062TIP3    H230822   1.951   6.181   0.698 -1.5290  0.8923  1.5402
 3063TIP3   OH230823   3.544   3.755   8.275  0.0049  0.7532  0.2869
 3063TIP3    H130824   3.488   3.727   8.203 -1.4340  0.7120  1.3600
 3063TIP3    H230825   3.525   3.849   8.285 -0.2659  0.6401  0.9552
 3064TIP3   OH230826   2.360   3.700   0.923  0.5158  0.1676 -0.6016
 3064TIP3    H130827   2.396   3.788   0.912  1.2185  0.0496  0.5416
 3064TIP3    H230828   2.435   3.647   0.952 -0.3586 -0.3077  0.8931
 3065TIP3   OH230829   2.505   4.029   0.073  0.4219 -0.2973  0.2938
 3065TIP3    H130830   2.517   4.099   0.009  1.3569 -1.0103 -0.3327
 3065TIP3    H230831   2.454   4.069   0.143  0.5622  0.8813 -0.2578
 3066TIP3   OH230832   5.130   6.414   0.101 -0.2061  0.0454 -0.0176
 3066TIP3    H130833   5.211   6.364   0.104 -0.5290 -0.4792  0.1861
 3066TIP3    H230834   5.100   6.418   0.192 -1.1176 -0.9739 -0.2530
 3067TIP3   OH230835   2.340   2.300   0.688 -0.3207  0.2378  0.6255
 3067TIP3    H130836   2.374   2.343   0.766  0.0511  0.1513  0.5147
 3067TIP3    H230837   2.410   2.309   0.623 -0.3470 -0.2906  0.5165
 3068TIP3   OH230838   6.670   4.036   7.910  0.2056 -0.0433 -0.4163
 3068TIP3    H130839   6.580   4.037   7.943  0.5929  1.1733  0.7050
 3068TIP3    H230840   6.722   3.999   7.981  0.5341 -1.3129 -1.2919
 3069TIP3   OH230841   4.137   1.034   7.241  0.0677  0.3036  0.4190
 3069TIP3    H130842   4.140   1.028   7.146 -0.8266 -0.4547  0.4304
 3069TIP3    H230843   4.092   1.117   7.259  0.3491  0.5072  0.1889
 3070TIP3   OH230844   6.133   5.037   8.462  0.5301 -0.5871 -0.1115
 3070TIP3    H130845   6.217   5.029   8.507  0.1603 -0.9622  0.5244
 3070TIP3    H230846   6.154   5.016   8.370  1.4409  1.0282 -0.3125
 3071TIP3   OH230847   3.162   6.514   7.625  0.0918  0.4101  0.4528
 3071TIP3    H130848   3.141   6.605   7.600  0.9131  0.4951  0.0293
 3071TIP3    H230849   3.129   6.462   7.552 -1.6444  0.2169  1.3335
 3072TIP3   OH230850   0.932   2.650   1.917  0.6983 -0.3042 -0.1999
 3072TIP3    H130851   0.847   2.689   1.897  0.0151 -0.9691  1.2557
 3072TIP3    H230852   0.912   2.579   1.978  2.3193 -0.3788  0.2857
 3073TIP3   OH230853   0.717   5.828   1.507 -0.3338 -0.0433 -0.2113
 3073TIP3    H130854   0.796   5.878   1.526 -0.3233  0.2056 -0.8842
 3073TIP3    H230855   0.702   5.776   1.586 -1.0812  1.9917  1.0695
 3074TIP3   OH230856   5.859   3.439   7.145  0.4308 -0.0150 -0.2056
 3074TIP3    H130857   5.936   3.489   7.119  1.9115 -1.9036  0.3138
 3074TIP3    H230858   5.807   3.432   7.065  1.7315 -0.2941 -1.0554
 3075TIP3   OH230859   1.996   1.064   6.663  0.5314 -0.6660 -0.1402
 3075TIP3    H130860   2.005   1.111   6.580 -0.6981 -0.0235  0.0532
 3075TIP3    H230861   1.940   0.989   6.642  1.0152 -1.0455 -0.0828
 3076TIP3   OH230862   0.284   6.407   2.053 -0.0885 -0.0084  0.4107
 3076TIP3    H130863   0.372   6.422   2.089 -0.2956  2.1802  0.1819
 3076TIP3    H230864   0.226   6.449   2.117 -0.9388 -1.0698  0.3446
 3077TIP3   OH230865   6.215   2.568   0.922  0.4652  0.3323 -0.0292
 3077TIP3    H130866   6.311   2.559   0.923  0.2499 -3.4639  0.7285
 3077TIP3    H230867   6.189   2.535   0.836 -0.2215  0.4560  0.1279
 3078TIP3   OH230868   3.531   1.218   7.196 -0.0750  0.3058  0.1189
 3078TIP3    H130869   3.600   1.282   7.210 -2.1496  2.6336  0.5480
 3078TIP3    H230870   3.462   1.244   7.257 -1.2178 -2.1112 -0.0190
 3079TIP3   OH230871   2.841   6.185   7.698  0.1044  0.0459  0.1496
 3079TIP3    H130872   2.794   6.239   7.762  0.7579  0.3033  0.4268
 3079TIP3    H230873   2.822   6.095   7.725 -0.5339  0.1372  0.0250
 3080TIP3   OH230874   3.991   5.970   1.049  0.2442 -0.0181  0.7867
 3080TIP3    H130875   4.041   5.939   1.125  0.0789 -0.5794  0.6712
 3080TIP3    H230876   3.964   6.059   1.073 -1.0175 -0.6822  1.9980
 3081TIP3   OH230877   4.694   1.015   0.754 -0.0673 -0.2102 -0.2394
 3081TIP3    H130878   4.693   0.969   0.837 -2.5237  2.1001  1.2126
 3081TIP3    H230879   4.786   1.033   0.736  0.5674 -1.4620  1.5684
 3082TIP3   OH230880   3.451   3.726   7.884 -0.2730  0.3027 -0.0743
 3082TIP3    H130881   3.453   3.713   7.789  1.5126 -0.0492 -0.0264
 3082TIP3    H230882   3.509   3.801   7.899  0.5712 -0.5063  0.8371
 3083TIP3   OH230883   1.987   3.075   1.417 -1.0723 -0.3358  0.1676
 3083TIP3    H130884   1.967   2.982   1.414 -2.1638 -0.0939 -0.9033
 3083TIP3    H230885   1.943   3.112   1.340 -0.3564  1.0083  0.3629
 3084TIP3   OH230886   4.015   4.535   8.436 -0.2238 -0.3607  0.2384
 3084TIP3    H130887   4.055   4.452   8.461 -1.4297 -0.3901  2.3014
 3084TIP3    H230888   4.076   4.602   8.467  0.6219 -0.4411 -1.1906
 3085TIP3   OH230889   4.056   3.420   0.221 -0.1093  0.2339  0.2090
 3085TIP3    H130890   4.059   3.337   0.268  1.0991 -0.7955 -1.5714
 3085TIP3    H230891   4.143   3.458   0.235  0.0118  0.2594 -0.5509
 3086TIP3   OH230892   1.446   0.612   2.028 -0.3835 -0.1148 -0.2532
 3086TIP3    H130893   1.402   0.686   2.071 -1.9311 -0.2769 -1.4743
 3086TIP3    H230894   1.390   0.537   2.046 -0.4309 -0.4020 -1.5518
 3087TIP3   OH230895   1.424   5.948   1.399  0.4160 -0.2339  0.3583
 3087TIP3    H130896   1.383   5.946   1.485 -0.1865  0.7500  0.1109
 3087TIP3    H230897   1.499   6.006   1.409 -2.0076  3.5013 -0.6799
 3088TIP3   OH230898   5.443   2.977   2.680  0.5016  0.1973 -0.1387
 3088TIP3    H130899   5.367   2.986   2.737  0.2888  0.0726 -0.3980
 3088TIP3    H230900   5.474   3.066   2.666  1.1883  0.1523  1.0124
 3089TIP3   OH230901   0.783   5.855   7.337  0.4978  0.3998  0.0236
 3089TIP3    H130902   0.777   5.860   7.432  1.2185  0.8285  0.0545
 3089TIP3    H230903   0.771   5.945   7.307  1.1728  0.4183 -0.2234
 3090TIP3   OH230904   3.404   2.417   7.511  0.0706 -0.1144 -0.5401
 3090TIP3    H130905   3.349   2.339   7.502  1.9334 -1.6503  0.7007
 3090TIP3    H230906   3.432   2.437   7.421 -1.5106  0.0306 -1.0466
 3091TIP3   OH230907   2.101   2.255   1.206 -0.1639 -0.0211 -0.1034
 3091TIP3    H130908   2.106   2.298   1.291 -1.0416  2.4694 -1.1981
 3091TIP3    H230909   2.099   2.327   1.143 -1.3338 -1.7000 -2.1303
 3092TIP3   OH230910   2.921   6.186   0.773 -0.1971 -0.2372 -0.5157
 3092TIP3    H130911   2.839   6.177   0.822  0.9187  0.0227  1.4594
 3092TIP3    H230912   2.927   6.280   0.754 -0.1524 -0.1919 -0.2823
 3093TIP3   OH230913   1.111   2.709   8.667 -0.4859 -0.2701 -0.8992
 3093TIP3    H130914   1.059   2.629   8.657  0.6576 -1.3843  1.2987
 3093TIP3    H230915   1.076   2.751   8.745  2.4382 -1.6744  1.3941
 3094TIP3   OH230916   3.680   3.412   7.442 -0.8009 -0.1089  0.1534
 3094TIP3    H130917   3.727   3.448   7.367 -0.6299 -1.1788 -0.2761
 3094TIP3    H230918   3.695   3.475   7.512  2.5214 -1.0661  0.4608
 3095TIP3   OH230919   5.082   0.855   7.999  0.2014 -0.1056  0.6308
 3095TIP3    H130920   5.155   0.820   8.050  0.3827 -0.4520  0.1492
 3095TIP3    H230921   5.112   0.941   7.969  1.7666 -1.4753 -2.2202
 3096TIP3   OH230922   6.271   1.548   0.329 -0.5865  0.3853  0.1531
 3096TIP3    H130923   6.212   1.601   0.382  0.7273  2.1060  0.0133
 3096TIP3    H230924   6.359   1.573   0.359  0.1745 -3.2739  1.5258
 3097TIP3   OH230925   3.754   3.501   7.742 -0.2427  0.2160  0.0783
 3097TIP3    H130926   3.818   3.520   7.811 -0.0554  0.4650 -0.1597
 3097TIP3    H230927   3.691   3.443   7.783 -0.4113  0.7660  0.6105
 3098TIP3   OH230928   0.786   0.228   6.536  0.2776 -0.2046 -0.1772
 3098TIP3    H130929   0.729   0.178   6.477 -0.5562 -1.5704  1.6717
 3098TIP3    H230930   0.875   0.208   6.506 -0.1279  0.2790 -1.8112
 3099TIP3   OH230931   5.634   6.764   0.249 -0.8215 -0.4134 -0.0408
 3099TIP3    H130932   5.550   6.768   0.296 -1.2621 -2.1396 -0.5964
 3099TIP3    H230933   5.611   6.735   0.161  0.1457  1.4566 -0.9696
 3100TIP3   OH230934   4.650   3.244   8.091  0.2410 -0.1151 -0.3813
 3100TIP3    H130935   4.681   3.153   8.097 -2.1009 -1.0196 -0.7534
 3100TIP3    H230936   4.571   3.239   8.037  0.5437  2.3125 -1.1582
 3101TIP3   OH230937   1.001   0.703   1.034  0.1493  0.0510  0.4224
 3101TIP3    H130938   1.037   0.777   0.985 -0.8346  1.5728  1.9180
 3101TIP3    H230939   1.046   0.627   0.998  1.4238  1.3875 -0.9490
 3102TIP3   OH230940   5.249   2.037   1.164 -0.5220 -0.2926  0.3319
 3102TIP3    H130941   5.246   2.131   1.181 -2.2654  0.2596 -2.3722
 3102TIP3    H230942   5.342   2.018   1.152 -0.1480  1.0826  0.8580
 3103TIP3   OH230943   5.973   0.340   1.830  0.4524 -0.7432 -0.0089
 3103TIP3    H130944   5.904   0.322   1.894  0.3441  0.8064  0.3531
 3103TIP3    H230945   6.017   0.418   1.864  1.5152 -0.9163 -0.9402
 3104TIP3   OH230946   3.858   3.958   7.178  0.2138  0.3837 -0.3601
 3104TIP3    H130947   3.795   3.984   7.111 -1.0824  0.7681  0.9635
 3104TIP3    H230948   3.829   4.002   7.257  1.8845  0.1752  0.4093
 3105TIP3   OH230949   5.222   3.182   8.397  0.5665  0.3061 -0.3384
 3105TIP3    H130950   5.270   3.207   8.318  0.5454  1.0545 -0.1178
 3105TIP3    H230951   5.180   3.263   8.426  1.5570  0.3206  1.1316
 3106TIP3   OH230952   5.598   1.621   0.960  0.6009 -0.3812  0.1740
 3106TIP3    H130953   5.685   1.658   0.944  0.7973 -1.1852 -0.7472
 3106TIP3    H230954   5.566   1.597   0.872  1.2605 -4.0449  0.7887
 3107TIP3   OH230955   3.736   1.898   1.462 -0.0949  0.2094 -0.6223
 3107TIP3    H130956   3.816   1.880   1.413  2.1823  2.6630  1.9283
 3107TIP3    H230957   3.746   1.851   1.544 -1.4130  0.3727 -0.3347
 3108TIP3   OH230958   0.972   4.990   1.863 -0.3434 -0.6793 -0.0324
 3108TIP3    H130959   0.942   4.911   1.908  3.5301 -2.6134 -0.4891
 3108TIP3    H230960   0.922   4.991   1.781 -0.4852 -2.6653 -0.0166
 3109TIP3   OH230961   0.578   0.700   0.253 -0.0816  0.2241  0.2149
 3109TIP3    H130962   0.597   0.791   0.276 -0.1875  0.2117  0.3557
 3109TIP3    H230963   0.655   0.670   0.205 -0.8871  1.0405 -1.6933
 3110TIP3   OH230964   2.425   5.930   1.358 -0.2507 -1.0116  0.1768
 3110TIP3    H130965   2.411   5.858   1.297 -1.5529 -1.2031  0.6657
 3110TIP3    H230966   2.388   5.899   1.441 -0.2044 -0.0403  0.5784
 3111TIP3   OH230967   2.343   0.983   8.172  0.3388  0.0786 -0.0079
 3111TIP3    H130968   2.312   0.924   8.241  1.6494  0.3958  0.8884
 3111TIP3    H230969   2.439   0.981   8.180  0.4638  1.1716 -0.9475
 3112TIP3   OH230970   5.545   6.247   7.572  0.1766 -0.7611  0.5152
 3112TIP3    H130971   5.564   6.205   7.656 -2.2515 -1.6150  0.7154
 3112TIP3    H230972   5.481   6.189   7.531  0.4023  0.2885 -1.3942
 3113TIP3   OH230973   6.462   3.938   0.390  0.4419 -0.0223  0.2188
 3113TIP3    H130974   6.455   3.950   0.485  1.9557 -0.0733  0.3528
 3113TIP3    H230975   6.395   3.873   0.370  1.1872 -1.2521  1.5209
 3114TIP3   OH230976   6.091   0.456   0.067  0.2366  0.1254  0.1218
 3114TIP3    H130977   6.054   0.489   0.149  0.8699  1.6511 -0.1619
 3114TIP3    H230978   6.137   0.532   0.030 -1.0908 -0.1419 -2.2730
 3115TIP3   OH230979   4.023   3.975   0.013  0.3187 -0.4849 -0.2897
 3115TIP3    H130980   3.955   4.042   0.004  0.7187 -0.2580 -1.8503
 3115TIP3    H230981   3.987   3.914   0.078 -2.3324 -1.4690 -2.4564
 3116TIP3   OH230982   1.445   2.538   1.090  0.8958  0.3411  0.0439
 3116TIP3    H130983   1.383   2.513   1.159  0.5370  0.0249 -0.3812
 3116TIP3    H230984   1.444   2.634   1.091 -0.7437  0.3839 -0.9160
 3117TIP3   OH230985   5.202   0.031   1.375  0.5361  0.4468 -0.3842
 3117TIP3    H130986   5.123   0.073   1.340 -1.3649 -1.5664  1.1442
 3117TIP3    H230987   5.250   0.102   1.418  0.3983  2.0049 -2.5935
 3118TIP3   OH230988   3.983   1.426   1.599 -0.0227 -0.5435  0.2700
 3118TIP3    H130989   3.974   1.333   1.577  0.4245 -0.5441  0.0719
 3118TIP3    H230990   3.918   1.441   1.667  1.8145 -1.6841  2.3946
 3119TIP3   OH230991   6.225   3.829   7.891  0.1049 -0.1604  0.1900
 3119TIP3    H130992   6.198   3.894   7.956  0.1245  1.3463 -1.2401
 3119TIP3    H230993   6.164   3.756   7.904 -0.8354  0.7230  0.9224
 3120TIP3   OH230994   4.803   2.017   1.240 -0.4756 -0.0458  0.5398
 3120TIP3    H130995   4.877   1.957   1.234 -1.4826 -1.2072 -1.2246
 3120TIP3    H230996   4.730   1.963   1.271 -1.1849  0.4586 -0.1991
 3121TIP3   OH230997   3.444   0.465   6.297 -0.2740 -0.8758 -0.3457
 3121TIP3    H130998   3.374   0.519   6.333  0.1497  0.1302 -0.9824
 3121TIP3    H230999   3.408   0.376   6.293 -2.1203 -0.1123 -2.1922
 3122TIP3   OH231000   4.694   5.701   8.184  0.1751 -0.8987  0.0302
 3122TIP3    H131001   4.636   5.631   8.155  0.6186 -1.3127  0.1377
 3122TIP3    H231002   4.716   5.679   8.274 -0.2714 -0.2286  0.3053
 3123TIP3   OH231003   4.907   3.178   0.519 -0.3216 -0.0522 -0.1485
 3123TIP3    H131004   4.972   3.119   0.558 -0.0945  0.1791 -0.1769
 3123TIP3    H231005   4.955   3.260   0.504 -0.4650 -0.0622 -0.6891
 3124TIP3   OH231006   4.411   1.412   1.275  0.5088  0.1364 -0.0133
 3124TIP3    H131007   4.466   1.454   1.340  1.3755 -1.0764  0.0736
 3124TIP3    H231008   4.324   1.449   1.289  1.1140  1.4264  0.4277
 3125TIP3   OH231009   3.047   6.727   0.448  0.6434  0.0503 -0.1270
 3125TIP3    H131010   3.133   6.690   0.470  0.8257 -0.7428 -1.9664
 3125TIP3    H231011   2.992   6.707   0.523  1.8034 -0.3099  0.6622
 3126TIP3   OH231012   0.889   0.358   1.511 -0.7515 -0.0604  0.2563
 3126TIP3    H131013   0.903   0.271   1.474 -1.2282  0.2649 -0.7273
 3126TIP3    H231014   0.899   0.346   1.605  0.0342 -1.0091  0.0661
 3127TIP3   OH231015   2.901   3.399   0.253 -1.2831  0.4787  0.3172
 3127TIP3    H131016   2.915   3.306   0.273  0.8528  0.3144 -1.4826
 3127TIP3    H231017   2.895   3.401   0.158 -0.0469  2.2816  0.2317
 3128TIP3   OH231018   4.316   1.019   7.456  0.1482 -0.3087  0.3256
 3128TIP3    H131019   4.252   1.039   7.387  0.9199 -0.3704 -0.4269
 3128TIP3    H231020   4.400   1.015   7.410  0.6690 -0.4178  1.2685
 3129TIP3   OH231021   3.079   5.074   7.160  0.1129  0.1803 -0.2955
 3129TIP3    H131022   3.151   5.013   7.143 -1.7940 -2.7815  1.3953
 3129TIP3    H231023   3.033   5.082   7.076  0.1490 -1.1263 -0.4541
 3130TIP3   OH231024   5.212   3.979   2.046 -0.6505  0.0456  0.6791
 3130TIP3    H131025   5.276   3.923   2.001 -0.9653 -2.0520  2.6415
 3130TIP3    H231026   5.224   4.065   2.006  0.9957 -1.0375 -1.3945
 3131TIP3   OH231027   4.544   2.581   0.457  0.4675  0.1431 -0.0219
 3131TIP3    H131028   4.579   2.602   0.370 -1.1365  0.4911 -0.6247
 3131TIP3    H231029   4.516   2.665   0.493 -0.5032 -0.2091  0.0752
 3132TIP3   OH231030   6.500   5.953   0.288 -0.4674 -0.0058  0.2581
 3132TIP3    H131031   6.500   6.049   0.282  1.2976 -0.0472 -1.1837
 3132TIP3    H231032   6.413   5.928   0.259 -0.3679  1.1184 -1.1658
 3133TIP3   OH231033   0.337   2.198   1.213  0.0969 -0.4402 -0.6714
 3133TIP3    H131034   0.247   2.166   1.219 -0.4677  1.0796 -0.6269
 3133TIP3    H231035   0.357   2.230   1.301 -0.4479  2.0144 -1.3614
 3134TIP3   OH231036   2.322   6.078   0.887 -0.2014 -0.1060  0.1419
 3134TIP3    H131037   2.283   6.105   0.804 -2.1269  0.5854  1.2196
 3134TIP3    H231038   2.313   5.983   0.888 -0.6431 -0.0722 -0.2237
 3135TIP3   OH231039   2.109   4.977   1.813 -0.2171 -0.1953  0.4995
 3135TIP3    H131040   2.160   5.029   1.751 -0.5022 -0.8286 -0.2808
 3135TIP3    H231041   2.150   4.994   1.898  1.0872 -0.4263 -0.0645
 3136TIP3   OH231042   4.780   1.620   6.640 -0.1457  0.7220  0.3974
 3136TIP3    H131043   4.760   1.536   6.598  1.6746  0.4295  0.0137
 3136TIP3    H231044   4.716   1.628   6.710 -1.6824  0.0259 -0.8770
 3137TIP3   OH231045   0.823   5.806   1.018  0.3604 -0.3667  0.1787
 3137TIP3    H131046   0.893   5.858   0.978 -0.2801  0.0119 -0.4722
 3137TIP3    H231047   0.803   5.850   1.100 -0.5619  0.7625 -0.6275
 3138TIP3   OH231048   5.544   4.335   0.746 -0.2819 -0.3565  0.0947
 3138TIP3    H131049   5.629   4.340   0.790 -0.6490 -0.0993  0.7980
 3138TIP3    H231050   5.565   4.321   0.654  0.5577  1.0066  0.0519
 3139TIP3   OH231051   0.137   5.453   7.541 -0.2041  0.0377 -0.6004
 3139TIP3    H131052   0.063   5.468   7.483 -0.5217 -0.3332 -0.2948
 3139TIP3    H231053   0.208   5.426   7.483 -0.5531 -0.4494 -0.8074
 3140TIP3   OH231054   2.069   3.912   8.850  0.0162 -0.7369  0.4020
 3140TIP3    H131055   2.014   3.947   8.920 -2.0157  1.3897 -2.0663
 3140TIP3    H231056   2.065   3.817   8.863 -1.1019 -0.4722  2.5492
 3141TIP3   OH231057   1.751   0.158   1.692  0.2158  0.0717 -0.2007
 3141TIP3    H131058   1.789   0.241   1.723 -0.1117  0.2568 -0.2937
 3141TIP3    H231059   1.769   0.096   1.763 -0.7829  0.5563  0.4967
 3142TIP3   OH231060   1.003   1.966   1.565 -0.0922  0.2669 -0.1256
 3142TIP3    H131061   0.986   2.059   1.583  0.2338  0.5596 -1.2105
 3142TIP3    H231062   1.047   1.967   1.479  1.9800 -0.7063  0.8478
 3143TIP3   OH231063   2.054   3.088   1.918 -0.6965 -0.0616 -0.6477
 3143TIP3    H131064   2.127   3.048   1.871 -0.5562 -2.0177  1.1409
 3143TIP3    H231065   2.023   3.021   1.978 -3.7528  0.8196 -1.0350
 3144TIP3   OH231066   2.446   2.940   0.409  0.1631 -1.1286 -0.1725
 3144TIP3    H131067   2.437   2.952   0.504 -0.9577 -1.0972 -0.2673
 3144TIP3    H231068   2.380   2.998   0.372  2.0838  0.6093 -1.0945
 3145TIP3   OH231069   0.766   2.043   6.784 -0.3125  0.1251  0.9790
 3145TIP3    H131070   0.694   2.105   6.793 -2.9812 -1.9628 -3.0350
 3145TIP3    H231071   0.829   2.087   6.727 -0.8122  0.2229  0.4948
 3146TIP3   OH231072   4.197   3.593   7.484  0.1829  0.1011 -0.0883
 3146TIP3    H131073   4.121   3.550   7.523  1.5137 -1.1101  1.3517
 3146TIP3    H231074   4.161   3.659   7.426 -1.9510 -0.6629  0.2871
 3147TIP3   OH231075   0.210   3.027   7.399  0.2196  0.0542 -0.0473
 3147TIP3    H131076   0.268   3.001   7.328  0.9159 -0.0477  0.5541
 3147TIP3    H231077   0.247   3.110   7.431 -2.0188  1.9972 -2.0115
 3148TIP3   OH231078   5.532   2.756   0.909  0.0645 -0.1356  0.2621
 3148TIP3    H131079   5.505   2.754   0.817  0.7810 -0.1476  0.0490
 3148TIP3    H231080   5.501   2.840   0.941  0.4772  0.2020 -0.2028
 3149TIP3   OH231081   3.058   0.541   8.178  0.1220  0.1319  0.4004
 3149TIP3    H131082   3.088   0.494   8.256 -1.0967 -1.9152 -0.3083
 3149TIP3    H231083   2.969   0.510   8.163  0.3062  0.4902 -1.7952
 3150TIP3   OH231084   6.297   5.332   1.876  0.5993 -0.2594 -0.5575
 3150TIP3    H131085   6.315   5.254   1.929  2.2653 -0.1284 -0.8624
 3150TIP3    H231086   6.254   5.392   1.936 -0.2727 -1.2219 -0.1833
 3151TIP3   OH231087   0.840   1.509   1.104 -0.4312  0.4639 -0.4530
 3151TIP3    H131088   0.900   1.442   1.137 -0.4057  0.4801 -0.4674
 3151TIP3    H231089   0.895   1.586   1.089 -0.3534  0.3103 -0.9913
 3152TIP3   OH231090   5.566   5.877   6.395  0.5907 -0.2420  0.0854
 3152TIP3    H131091   5.493   5.819   6.370  0.0054  0.3426  0.3946
 3152TIP3    H231092   5.562   5.880   6.490  0.0412  1.0079  0.0411
 3153TIP3   OH231093   3.895   0.375   0.183 -0.1368 -0.1001 -0.5723
 3153TIP3    H131094   3.838   0.431   0.131 -2.2280 -0.4254  1.2280
 3153TIP3    H231095   3.925   0.431   0.254  1.2065 -0.1521 -1.0770
 3154TIP3   OH231096   3.096   0.271   6.988  0.0314 -0.4159 -0.1652
 3154TIP3    H131097   3.169   0.304   6.937 -0.7624  0.1972 -0.9270
 3154TIP3    H231098   3.061   0.198   6.936 -0.5393 -0.0374 -0.3197
 3155TIP3   OH231099   4.063   5.788   8.091 -0.2811  0.2343  0.4253
 3155TIP3    H131100   3.971   5.779   8.114 -0.1829  0.4775  0.9296
 3155TIP3    H231101   4.110   5.766   8.171  0.1062  0.0159  0.1453
 3156TIP3   OH231102   0.689   4.627   8.116 -0.0959 -0.4225  0.2329
 3156TIP3    H131103   0.740   4.700   8.081 -0.1724 -0.0182  0.9315
 3156TIP3    H231104   0.748   4.583   8.177 -0.6215  0.1812  1.2156
 3157TIP3   OH231105   4.664   3.446   7.889 -0.3669 -0.5594  0.7610
 3157TIP3    H131106   4.693   3.453   7.980 -2.1544 -1.2251  1.4155
 3157TIP3    H231107   4.713   3.371   7.854 -1.2003 -1.6431  1.8318
 3158TIP3   OH231108   6.527   1.652   0.243 -0.3436  0.6271 -0.6203
 3158TIP3    H131109   6.507   1.719   0.179 -0.0923 -0.1738 -1.5555
 3158TIP3    H231110   6.622   1.644   0.241 -0.3672  0.2683 -0.4901
 3159TIP3   OH231111   2.844   2.690   8.732  0.1227  0.3400 -0.1638
 3159TIP3    H131112   2.803   2.766   8.690  0.2925  1.2703  1.2779
 3159TIP3    H231113   2.799   2.683   8.816  0.5444 -0.7821 -0.0209
 3160TIP3   OH231114   2.385   6.537   1.410 -0.0252 -0.4600  0.6155
 3160TIP3    H131115   2.339   6.519   1.329 -2.9640  3.3783  1.1179
 3160TIP3    H231116   2.357   6.468   1.470 -1.6821 -0.6734 -0.3510
 3161TIP3   OH231117   0.535   3.929   0.257  0.0451  0.1207  0.2427
 3161TIP3    H131118   0.623   3.891   0.253 -0.4829 -1.2059  0.6665
 3161TIP3    H231119   0.543   4.001   0.319  1.9290  3.2461 -3.1797
 3162TIP3   OH231120   0.498   5.331   1.100  0.1715  0.3210  0.7842
 3162TIP3    H131121   0.523   5.276   1.174  1.1344 -0.1314  0.1344
 3162TIP3    H231122   0.544   5.413   1.114  0.9392 -0.0230  0.3125
 3163TIP3   OH231123   3.261   1.855   7.871  0.3702 -0.5826  0.5029
 3163TIP3    H131124   3.340   1.905   7.894  1.1631 -1.8756  0.7065
 3163TIP3    H231125   3.204   1.919   7.829  0.8182  0.7767  1.8697
 3164TIP3   OH231126   2.918   3.665   7.937  0.6669  0.3392 -0.0819
 3164TIP3    H131127   2.960   3.607   8.000 -0.3635 -0.2165  0.1235
 3164TIP3    H231128   2.909   3.612   7.858  0.0573  0.3351 -0.0148
 3165TIP3   OH231129   5.878   6.799   8.015 -0.1376  0.4849 -0.5908
 3165TIP3    H131130   5.875   6.895   8.006 -0.1553  0.6387  0.8522
 3165TIP3    H231131   5.790   6.776   8.045  0.5050  0.3045  1.3047
 3166TIP3   OH231132   3.305   1.370   1.205 -0.0693  0.0953 -0.1502
 3166TIP3    H131133   3.336   1.324   1.283 -1.8055  1.1060  1.2199
 3166TIP3    H231134   3.370   1.351   1.138  0.6945 -2.0484  1.1152
 3167TIP3   OH231135   2.364   0.563   8.900 -0.2715 -0.0578 -0.4297
 3167TIP3    H131136   2.388   0.655   8.910  0.2632 -0.1300 -0.9883
 3167TIP3    H231137   2.444   0.514   8.919 -0.3607 -0.3739 -0.8388
 3168TIP3   OH231138   1.938   0.452   1.660 -0.6900  0.3951 -0.2611
 3168TIP3    H131139   1.996   0.526   1.642 -0.1359  0.3720  1.2540
 3168TIP3    H231140   1.982   0.377   1.620 -0.1999  0.5622 -0.0540
 3169TIP3   OH231141   0.107   2.121   1.711  0.2044  0.3191 -0.5301
 3169TIP3    H131142   0.114   2.144   1.804  1.9229 -1.9258 -0.0130
 3169TIP3    H231143   0.194   2.141   1.675  0.7021 -1.9874 -0.7834
 3170TIP3   OH231144   0.499   2.861   7.631  0.2552 -0.6122  0.6973
 3170TIP3    H131145   0.520   2.954   7.640 -0.0087 -0.4642 -0.1547
 3170TIP3    H231146   0.543   2.834   7.551 -0.4799 -0.9738  0.4057
 3171TIP3   OH231147   4.071   4.845   2.131  0.0363  0.1102 -0.0246
 3171TIP3    H131148   4.009   4.884   2.193 -0.3464  0.8206 -0.8206
 3171TIP3    H231149   4.137   4.802   2.186  0.3420  1.6863  0.9127
 3172TIP3   OH231150   1.996   3.666   1.621  0.0959 -0.6851 -0.3724
 3172TIP3    H131151   1.966   3.581   1.590 -0.5606 -0.6370  0.1023
 3172TIP3    H231152   1.917   3.721   1.620  0.0435 -0.6848  1.3583
 3173TIP3   OH231153   6.178   0.451   1.619 -0.1252 -0.1216 -1.0740
 3173TIP3    H131154   6.142   0.385   1.678 -0.2540 -0.4293 -1.4980
 3173TIP3    H231155   6.152   0.534   1.658  1.2525 -0.2562  0.2651
 3174TIP3   OH231156   4.960   0.660   7.231  0.0055 -0.3228 -0.0504
 3174TIP3    H131157   5.044   0.651   7.276  0.3411 -0.9534 -0.7727
 3174TIP3    H231158   4.980   0.640   7.139 -1.6301 -4.5491  0.2875
 3175TIP3   OH231159   5.484   5.317   1.786 -0.4041 -0.1026  0.0168
 3175TIP3    H131160   5.524   5.400   1.815  0.2017 -0.2958 -0.2431
 3175TIP3    H231161   5.555   5.272   1.741 -0.5774 -1.0162  0.6418
 3176TIP3   OH231162   2.891   4.741   1.393 -0.4326 -0.6189  0.0668
 3176TIP3    H131163   2.868   4.778   1.308  0.4390 -0.5640 -0.1598
 3176TIP3    H231164   2.912   4.649   1.374 -0.0311 -0.5524  0.1845
 3177TIP3   OH231165   0.744   4.044   0.704 -0.1051 -0.0486 -0.0122
 3177TIP3    H131166   0.799   4.112   0.664  1.0385 -1.3056 -0.6464
 3177TIP3    H231167   0.711   4.085   0.784 -1.8780  2.3052 -1.7864
 3178TIP3   OH231168   2.014   4.484   1.373 -0.4008 -0.0878  0.3378
 3178TIP3    H131169   1.948   4.459   1.437 -1.2570  1.7235  0.2036
 3178TIP3    H231170   2.042   4.572   1.399  0.2820  0.1080 -0.9356
 3179TIP3   OH231171   6.002   5.975   0.216  0.4635  0.5699  0.2407
 3179TIP3    H131172   5.975   6.011   0.300  1.2390  0.3419  0.5951
 3179TIP3    H231173   6.062   6.040   0.179 -2.0331  2.0546 -1.4821
 3180TIP3   OH231174   0.507   3.837   7.345 -0.7224  0.4724 -0.4815
 3180TIP3    H131175   0.572   3.906   7.359 -1.7765  1.5002 -0.4518
 3180TIP3    H231176   0.541   3.787   7.271  1.4557 -0.7483  1.2166
 3181TIP3   OH231177   1.415   0.671   2.401  0.0730 -0.6528 -0.3704
 3181TIP3    H131178   1.375   0.722   2.331 -3.3672 -0.7592  1.3363
 3181TIP3    H231179   1.370   0.586   2.399 -0.7352 -0.3929  2.3838
 3182TIP3   OH231180   3.392   5.816   0.117  0.2680  0.1108  0.1247
 3182TIP3    H131181   3.450   5.873   0.167 -0.1959  2.3975 -1.7358
 3182TIP3    H231182   3.309   5.818   0.165  1.2363 -2.0961  2.0653
 3183TIP3   OH231183   2.247   1.714   8.201 -0.1198 -0.2778  1.0094
 3183TIP3    H131184   2.295   1.668   8.270 -1.0064 -0.0277  1.8146
 3183TIP3    H231185   2.157   1.684   8.210  0.3267 -3.4287 -2.7016
 3184TIP3   OH231186   2.184   4.866   1.213 -0.9162  0.4421 -0.3979
 3184TIP3    H131187   2.160   4.954   1.240 -2.9760 -0.1048 -0.2842
 3184TIP3    H231188   2.101   4.824   1.190 -0.1343 -1.8309  0.6313
 3185TIP3   OH231189   2.470   2.914   0.698 -0.0975  0.8783  0.1138
 3185TIP3    H131190   2.492   3.007   0.705  2.3701  0.3914 -0.3377
 3185TIP3    H231191   2.551   2.868   0.720 -1.1362 -1.1762 -0.0919
 3186TIP3   OH231192   1.916   6.747   1.596 -0.4985 -0.1556 -0.2304
 3186TIP3    H131193   1.851   6.817   1.601 -1.6000 -1.2354  1.4859
 3186TIP3    H231194   1.924   6.729   1.502  0.6819  2.9894 -0.8299
 3187TIP3   OH231195   6.534   0.113   7.892  0.1296  0.2909 -0.4054
 3187TIP3    H131196   6.564   0.167   7.966 -0.9744  0.6599 -0.2021
 3187TIP3    H231197   6.457   0.160   7.859 -2.6613 -2.4963  1.5555
 3188TIP3   OH231198   2.878   5.094   7.319 -0.5483 -0.4151  0.4380
 3188TIP3    H131199   2.944   5.072   7.253  0.0201  0.0425  0.8457
 3188TIP3    H231200   2.800   5.047   7.290 -0.7714  0.9655 -1.4225
 3189TIP3   OH231201   4.268   6.372   7.724  0.2303 -0.0152  0.4687
 3189TIP3    H131202   4.273   6.327   7.808 -4.0725 -0.0478  0.9081
 3189TIP3    H231203   4.301   6.460   7.741 -0.3803 -0.0931  2.1611
 3190TIP3   OH231204   5.091   6.394   1.231  0.9012  0.3420  0.6091
 3190TIP3    H131205   5.063   6.479   1.265 -0.2275  0.4281 -0.5062
 3190TIP3    H231206   5.184   6.406   1.211  0.4418  1.7552 -0.8321
 3191TIP3   OH231207   6.187   3.611   8.581 -0.0309 -0.1859  0.8413
 3191TIP3    H131208   6.248   3.673   8.623  0.2982 -0.0400  0.1722
 3191TIP3    H231209   6.207   3.527   8.621 -0.5340  0.1521  1.8166
 3192TIP3   OH231210   5.102   1.839   1.535  0.4116  0.2184 -0.2524
 3192TIP3    H131211   5.138   1.752   1.519  0.3943  0.3382 -0.9710
 3192TIP3    H231212   5.177   1.898   1.527  0.3415  0.3137 -0.2148
 3193TIP3   OH231213   2.480   2.916   1.622  0.5294 -0.2302  0.3045
 3193TIP3    H131214   2.567   2.885   1.597 -0.1246 -1.1960 -0.9105
 3193TIP3    H231215   2.424   2.888   1.550 -0.9391 -0.3556  1.4592
 3194TIP3   OH231216   4.365   0.484   7.478 -0.5637 -0.0945  0.7717
 3194TIP3    H131217   4.345   0.550   7.545  1.3267  0.2204  1.0691
 3194TIP3    H231218   4.400   0.535   7.405 -2.7588 -0.4171 -0.5849
 3195TIP3   OH231219   1.709   6.481   7.869 -0.3788  0.6565  0.1204
 3195TIP3    H131220   1.781   6.544   7.869 -0.7056  1.0415  1.2938
 3195TIP3    H231221   1.750   6.396   7.886 -0.2401  0.9329  1.2030
 3196TIP3   OH231222   6.653   0.639   0.153 -0.1168  0.5188  0.5873
 3196TIP3    H131223   6.728   0.635   0.093 -0.7934  0.0053 -0.2661
 3196TIP3    H231224   6.683   0.595   0.232  0.4413  0.1959  0.2035
 3197TIP3   OH231225   0.460   0.636   8.018 -0.0747 -0.5943  0.6417
 3197TIP3    H131226   0.537   0.633   8.075 -0.7723 -0.5384  1.6208
 3197TIP3    H231227   0.441   0.545   7.997 -0.3791 -0.6845  1.2953
 3198TIP3   OH231228   0.772   0.598   7.750 -0.3981 -0.3826  0.1509
 3198TIP3    H131229   0.808   0.628   7.666  0.5369  0.7692  0.9390
 3198TIP3    H231230   0.777   0.675   7.807 -2.0078 -0.8547  0.9665
 3199TIP3   OH231231   2.362   3.437   1.340 -0.4247  0.3654  0.3022
 3199TIP3    H131232   2.363   3.349   1.379 -0.4060  0.9515  1.7062
 3199TIP3    H231233   2.271   3.450   1.312 -0.7910  0.4543  1.4718
 3200TIP3   OH231234   1.670   5.119   1.237  0.2112 -0.1258  0.2103
 3200TIP3    H131235   1.721   5.084   1.164  1.2713  4.0650 -1.4076
 3200TIP3    H231236   1.598   5.166   1.195 -1.2024 -0.5016  2.1176
 3201TIP3   OH231237   1.892   0.865   7.219 -0.7077  0.1881 -0.1667
 3201TIP3    H131238   1.962   0.928   7.200  0.3026 -0.2438  1.8576
 3201TIP3    H231239   1.868   0.830   7.133  2.3116 -0.3926 -0.8994
 3202TIP3   OH231240   1.036   6.312   1.648 -0.7345  0.2674  0.3156
 3202TIP3    H131241   1.085   6.364   1.711 -0.4349 -1.3210  1.4252
 3202TIP3    H231242   1.099   6.293   1.578 -0.9535  1.6716 -0.2974
 3203TIP3   OH231243   5.698   2.538   0.991 -0.1880 -0.0311 -0.5557
 3203TIP3    H131244   5.695   2.553   1.086  1.6890  2.1254 -0.7563
 3203TIP3    H231245   5.645   2.608   0.955  2.4045  1.7409 -1.2007
 3204TIP3   OH231246   3.356   0.079   6.697  0.1349 -0.6486 -0.2508
 3204TIP3    H131247   3.411   0.042   6.766  0.8102 -0.2023 -0.5349
 3204TIP3    H231248   3.356   0.173   6.715 -0.5295 -0.6474 -0.2622
 3205TIP3   OH231249   5.568   1.087   8.000 -0.0498 -0.7438 -0.0074
 3205TIP3    H131250   5.597   1.036   8.077 -1.3172 -1.8435 -0.2082
 3205TIP3    H231251   5.596   1.035   7.925  1.5949  0.5611 -0.3369
 3206TIP3   OH231252   0.845   3.886   7.297  0.4762 -0.4924 -0.5754
 3206TIP3    H131253   0.881   3.934   7.222  1.8057 -0.7629 -0.1252
 3206TIP3    H231254   0.808   3.955   7.353 -0.8111 -0.3112 -1.5972
 3207TIP3   OH231255   2.973   4.456   1.336 -0.5914 -0.5294  0.2502
 3207TIP3    H131256   3.028   4.500   1.401 -0.5923 -2.3919  1.5698
 3207TIP3    H231257   3.034   4.406   1.283 -0.4265  1.9705 -2.1517
 3208TIP3   OH231258   6.619   5.591   8.287 -0.3805  0.3494  0.1639
 3208TIP3    H131259   6.604   5.532   8.361  1.5839 -0.4877 -0.0417
 3208TIP3    H231260   6.541   5.583   8.233  0.0845 -2.6157 -0.2007
 3209TIP3   OH231261   2.364   2.066   7.506 -0.0514 -0.4218  0.0656
 3209TIP3    H131262   2.313   2.114   7.440 -0.2836  0.1303  0.6348
 3209TIP3    H231263   2.439   2.030   7.458 -0.2936 -0.1499 -0.5222
 3210TIP3   OH231264   1.234   0.502   7.281  0.2645  0.3473  0.4281
 3210TIP3    H131265   1.300   0.454   7.231 -0.5451 -0.8507  0.4612
 3210TIP3    H231266   1.248   0.475   7.372 -1.0970 -1.0075  0.2856
 3211TIP3   OH231267   1.495   0.693   7.903 -0.8101  0.1514 -0.0039
 3211TIP3    H131268   1.461   0.609   7.932  0.4084 -0.5735 -0.6297
 3211TIP3    H231269   1.509   0.743   7.984  2.5548 -1.8221  0.8192
 3212TIP3   OH231270   0.030   0.480   1.549  0.8732 -0.3510  0.1980
 3212TIP3    H131271   0.072   0.412   1.601 -1.4942 -1.9397  0.1801
 3212TIP3    H231272   0.044   0.453   1.458 -1.4087 -1.8290  0.1954
 3213TIP3   OH231273   6.561   3.539   6.998  0.4123  0.0275  0.0736
 3213TIP3    H131274   6.581   3.524   6.905 -2.6887 -0.9124 -0.5657
 3213TIP3    H231275   6.489   3.602   6.996  0.0189 -0.3359  1.8490
 3214TIP3   OH231276   2.889   3.346   6.428 -0.4712  0.0174  0.3967
 3214TIP3    H131277   2.866   3.268   6.478  1.1644 -1.1584 -0.5693
 3214TIP3    H231278   2.984   3.339   6.414 -0.1610  2.4591  0.7159
 3215TIP3   OH231279   3.262   0.146   7.484 -0.4335  0.6310  0.1191
 3215TIP3    H131280   3.357   0.147   7.484 -0.3990 -0.6133 -0.3682
 3215TIP3    H231281   3.238   0.125   7.394 -1.1538  0.4343  0.3457
 3216TIP3   OH231282   3.869   0.389   0.969  0.3646  0.1761  0.3723
 3216TIP3    H131283   3.817   0.318   0.932 -0.3165  0.7277  0.2550
 3216TIP3    H231284   3.894   0.357   1.056 -0.8971  0.2264  0.7824
 3217TIP3   OH231285   5.682   5.760   1.435 -0.0272  0.2102 -0.1654
 3217TIP3    H131286   5.676   5.853   1.414 -0.9579  0.4155  0.9679
 3217TIP3    H231287   5.738   5.756   1.513 -0.2053 -0.1565 -0.0540
 3218TIP3   OH231288   4.116   2.104   7.995 -0.2120  0.4587 -0.2004
 3218TIP3    H131289   4.114   2.011   7.975  0.9071  0.3334  0.2147
 3218TIP3    H231290   4.083   2.147   7.916 -2.3873 -0.3552  0.2101
 3219TIP3   OH231291   0.382   4.260   8.901  0.1117  0.0419  0.0070
 3219TIP3    H131292   0.441   4.249   8.826 -0.0917 -2.0926  0.1038
 3219TIP3    H231293   0.440   4.281   8.974  0.6027 -0.6181 -0.1898
 3220TIP3   OH231294   0.992   2.045   1.035  0.0539  0.0836  0.1437
 3220TIP3    H131295   0.997   1.949   1.031  4.1536 -0.0017  2.1329
 3220TIP3    H231296   0.999   2.073   0.944 -0.2107 -1.4659 -0.3897
 3221TIP3   OH231297   1.832   5.482   6.703 -0.2408  0.1312 -0.6880
 3221TIP3    H131298   1.833   5.427   6.625 -0.0042 -0.3778 -0.3359
 3221TIP3    H231299   1.887   5.557   6.681  3.3410 -1.9609  0.3443
 3222TIP3   OH231300   2.097   0.145   7.352  0.4852 -0.0609  0.1219
 3222TIP3    H131301   2.075   0.234   7.380 -0.5914 -1.1762  3.2443
 3222TIP3    H231302   2.015   0.110   7.316  0.9905  0.2474 -1.4112
 3223TIP3   OH231303   3.550   4.009   1.652 -0.1768 -0.0850  0.1842
 3223TIP3    H131304   3.636   4.046   1.635 -1.5701  2.8234 -1.1977
 3223TIP3    H231305   3.523   3.971   1.568 -0.6046 -0.1520  0.3490
 3224TIP3   OH231306   4.865   5.726   1.993 -0.4533  0.4976 -0.0310
 3224TIP3    H131307   4.841   5.674   2.069 -0.2500 -0.8750 -0.8709
 3224TIP3    H231308   4.949   5.689   1.963 -0.1215  1.5290 -0.4629
 3225TIP3   OH231309   1.533   4.712   8.651 -0.2956  0.0323  0.0376
 3225TIP3    H131310   1.575   4.760   8.723 -1.1808 -0.3736  0.8339
 3225TIP3    H231311   1.501   4.781   8.593  3.2598  0.4190 -1.7571
 3226TIP3   OH231312   0.338   0.488   8.528  0.4575 -0.4773 -0.2301
 3226TIP3    H131313   0.254   0.527   8.502 -0.0797 -1.8076 -0.6028
 3226TIP3    H231314   0.364   0.537   8.606 -1.4056 -0.9580  0.7699
 3227TIP3   OH231315   6.026   5.920   0.885 -0.4039 -0.2807 -0.0431
 3227TIP3    H131316   6.082   5.868   0.943 -0.1153 -0.1660 -0.2158
 3227TIP3    H231317   5.937   5.901   0.915 -0.2184  0.6355  1.1553
 3228TIP3   OH231318   5.530   2.429   6.614 -0.1204 -0.5488  0.2598
 3228TIP3    H131319   5.512   2.339   6.586 -1.7161  0.0592 -0.8005
 3228TIP3    H231320   5.606   2.455   6.561 -0.2009 -0.9752 -0.0754
 3229TIP3   OH231321   6.314   0.292   0.825 -0.6459 -0.3870 -0.2999
 3229TIP3    H131322   6.271   0.283   0.910  0.1451 -2.4002 -0.0502
 3229TIP3    H231323   6.397   0.335   0.845 -2.5365  4.0700 -0.8607
 3230TIP3   OH231324   0.484   3.123   1.624 -0.6330  0.0157  0.5517
 3230TIP3    H131325   0.446   3.206   1.652  2.2156  1.2254  1.2362
 3230TIP3    H231326   0.425   3.057   1.660 -0.4103  1.6460  4.5046
 3231TIP3   OH231327   5.808   1.814   8.844 -0.1047 -0.3735 -0.2441
 3231TIP3    H131328   5.756   1.838   8.768  0.6963  0.9076 -0.4233
 3231TIP3    H231329   5.886   1.771   8.808  1.0121  1.5781 -0.3126
 3232TIP3   OH231330   2.869   4.249   0.948  0.3700  0.0694 -0.4742
 3232TIP3    H131331   2.937   4.203   0.998  0.5288  1.5958  0.7993
 3232TIP3    H231332   2.788   4.224   0.991  0.4356  0.7575  0.0668
 3233TIP3   OH231333   6.560   1.271   1.460  0.7947 -0.1038 -0.2560
 3233TIP3    H131334   6.466   1.282   1.474  1.1648  1.4968  1.3614
 3233TIP3    H231335   6.583   1.195   1.513  0.8601  1.2795  1.7941
 3234TIP3   OH231336   3.676   2.040   0.632  0.1910 -0.2112  0.2444
 3234TIP3    H131337   3.618   2.081   0.697  1.8973  1.1700  0.9753
 3234TIP3    H231338   3.709   1.962   0.675 -0.4226 -0.5217  0.1627
 3235TIP3   OH231339   2.784   3.039   1.787  0.5590  0.5685  0.0932
 3235TIP3    H131340   2.782   2.976   1.715 -0.1599  2.0456 -1.2361
 3235TIP3    H231341   2.832   3.114   1.752 -1.3410  2.0371  0.4558
 3236TIP3   OH231342   2.793   1.533   6.953  0.0835 -0.4468 -0.0767
 3236TIP3    H131343   2.711   1.515   6.907  0.2949  0.4530 -0.8265
 3236TIP3    H231344   2.853   1.464   6.924  0.0109 -0.2843 -0.6226
 3237TIP3   OH231345   1.883   4.944   7.331  0.2655 -0.2001 -0.0492
 3237TIP3    H131346   1.796   4.905   7.346  0.4879 -0.4104  0.7128
 3237TIP3    H231347   1.943   4.870   7.335  0.7952  0.2806  2.3000
 3238TIP3   OH231348   4.133   5.965   8.525  0.3238 -0.1784  0.1272
 3238TIP3    H131349   4.195   5.998   8.590 -1.6215  0.8876  1.5319
 3238TIP3    H231350   4.182   5.966   8.443  2.3007  0.1606  1.2481
 3239TIP3   OH231351   5.053   0.979   0.208 -0.0125 -0.6108 -0.0571
 3239TIP3    H131352   5.058   0.940   0.295 -2.9614  1.6547  1.2978
 3239TIP3    H231353   5.066   1.073   0.223 -0.6261 -0.1629 -2.0521
 3240TIP3   OH231354   4.495   5.824   8.498 -0.6223 -0.2918  0.4156
 3240TIP3    H131355   4.515   5.732   8.514  0.7247 -0.0731  0.1426
 3240TIP3    H231356   4.580   5.864   8.478 -1.4257  0.5731 -1.6163
 3241TIP3   OH231357   5.850   6.186   1.430 -0.4840 -0.1624  0.1693
 3241TIP3    H131358   5.827   6.146   1.514 -0.2629 -2.3686 -0.7527
 3241TIP3    H231359   5.783   6.154   1.369  0.1079  0.3217 -0.7617
 3242TIP3   OH231360   0.170   4.145   1.298 -0.3125 -0.8559  0.5616
 3242TIP3    H131361   0.150   4.146   1.204  1.7697 -0.3758  0.0783
 3242TIP3    H231362   0.225   4.223   1.312  0.7515 -1.7858  1.8350
 3243TIP3   OH231363   6.563   0.455   7.093  0.4230 -0.0844 -0.3762
 3243TIP3    H131364   6.544   0.363   7.073 -0.6299  0.3835 -1.7036
 3243TIP3    H231365   6.487   0.485   7.143  0.0490  0.4429 -1.2361
 3244TIP3   OH231366   4.200   4.809   6.316  0.0573  0.4555  0.3142
 3244TIP3    H131367   4.126   4.771   6.364 -1.5051  1.2525 -1.3652
 3244TIP3    H231368   4.188   4.904   6.326 -1.2827  0.7351 -2.8904
 3245TIP3   OH231369   3.589   0.229   1.028  0.0275  0.4755 -0.3106
 3245TIP3    H131370   3.531   0.161   1.063  0.9814 -0.0612  0.2846
 3245TIP3    H231371   3.601   0.205   0.936  0.0481  0.0408 -0.1989
 3246TIP3   OH231372   6.262   0.864   8.502  0.7178  0.0332  0.2602
 3246TIP3    H131373   6.195   0.799   8.524  1.7893 -0.8805  0.9159
 3246TIP3    H231374   6.344   0.825   8.531  1.5410  1.1653 -0.4663
 3247TIP3   OH231375   4.584   2.132   2.200 -0.1246  0.0316 -0.2265
 3247TIP3    H131376   4.638   2.055   2.181 -1.5754 -1.8050  2.3565
 3247TIP3    H231377   4.495   2.097   2.207 -1.0345  2.2039 -0.1221
 3248TIP3   OH231378   1.341   2.263   0.534  0.3799  0.0299  0.0783
 3248TIP3    H131379   1.335   2.252   0.629 -0.0123 -2.2278 -0.1497
 3248TIP3    H231380   1.434   2.283   0.518  0.8154 -1.2774  0.8232
 3249TIP3   OH231381   3.186   6.317   1.470 -0.1402 -0.1599  0.6488
 3249TIP3    H131382   3.160   6.254   1.402  0.9810 -1.9548  1.7980
 3249TIP3    H231383   3.105   6.338   1.515 -0.6642 -0.1508 -0.2690
 3250TIP3   OH231384   4.331   2.374   6.852  0.1605  0.6602 -0.1811
 3250TIP3    H131385   4.247   2.373   6.897 -0.1658  0.7747 -0.7745
 3250TIP3    H231386   4.320   2.438   6.782 -0.2090 -1.2765 -2.0212
 3251TIP3   OH231387   4.047   0.389   7.643  0.5530  0.1439 -0.1057
 3251TIP3    H131388   4.051   0.449   7.568 -1.5959 -0.1247 -0.5088
 3251TIP3    H231389   3.971   0.419   7.692  1.0840 -0.5863  1.1923
 3252TIP3   OH231390   2.817   5.298   2.424 -0.0591  0.4938  0.0810
 3252TIP3    H131391   2.866   5.377   2.443  0.6704  0.0880 -0.0795
 3252TIP3    H231392   2.873   5.227   2.454 -0.0897 -0.0272 -1.0384
 3253TIP3   OH231393   0.630   0.025   0.012  0.1607  0.0958 -0.6603
 3253TIP3    H131394   0.559   0.072  -0.032  0.9753  0.8957 -1.1571
 3253TIP3    H231395   0.710   0.068  -0.018  0.7623  0.9206  1.8351
 3254TIP3   OH231396   1.374   3.994   2.345 -0.0249  0.2100  0.4516
 3254TIP3    H131397   1.343   4.081   2.367  1.9173  0.8971  0.7021
 3254TIP3    H231398   1.453   3.982   2.399  1.0110 -0.7722 -1.1727
 3255TIP3   OH231399   5.585   5.396   7.771  0.4098 -0.6136  0.1833
 3255TIP3    H131400   5.543   5.314   7.798 -1.1181  0.7187  2.0946
 3255TIP3    H231401   5.581   5.394   7.675 -0.2246 -2.4398  0.2063
 3256TIP3   OH231402   3.629   1.506   6.714  0.5664  0.3340  1.0174
 3256TIP3    H131403   3.537   1.480   6.718  0.7950 -0.4706  1.2814
 3256TIP3    H231404   3.669   1.441   6.655  0.6479  1.6854 -0.4905
 3257TIP3   OH231405   1.359   0.615   8.860 -0.0702 -0.5751 -0.1409
 3257TIP3    H131406   1.317   0.567   8.932 -0.3241  1.3406  1.0552
 3257TIP3    H231407   1.420   0.552   8.821 -1.1844 -2.1945  0.6159
 3258TIP3   OH231408   0.422   6.457   0.309 -0.3779  0.1936 -0.0768
 3258TIP3    H131409   0.505   6.495   0.282  0.7999 -1.8053  0.4836
 3258TIP3    H231410   0.373   6.530   0.347  0.3894  1.7763 -1.9668
 3259TIP3   OH231411   0.855   5.818   0.669  0.0727  0.9099  0.1730
 3259TIP3    H131412   0.941   5.826   0.628 -0.5103  0.0792 -1.2841
 3259TIP3    H231413   0.865   5.746   0.731  0.4940  1.0013  0.2161
 3260TIP3   OH231414   6.373   4.949   7.764 -0.2079  0.2830  0.1756
 3260TIP3    H131415   6.446   4.891   7.741 -0.9595 -0.4511 -0.4508
 3260TIP3    H231416   6.409   5.037   7.756  0.9401 -0.0800  1.0814
 3261TIP3   OH231417   1.943   6.695   1.249 -0.5987  0.1516  0.0948
 3261TIP3    H131418   1.928   6.606   1.217  1.6489  0.1063 -0.9763
 3261TIP3    H231419   1.869   6.745   1.216  0.3331 -0.4270 -3.1489
 3262TIP3   OH231420   1.750   1.494   7.562 -0.0362  0.3683 -0.1590
 3262TIP3    H131421   1.688   1.512   7.492 -0.7337 -0.4885  0.2291
 3262TIP3    H231422   1.770   1.581   7.599  0.9607  0.9270 -1.8992
 3263TIP3   OH231423   0.935   0.696   1.469  0.2188  0.1225  0.3859
 3263TIP3    H131424   1.029   0.703   1.484  0.3654  1.9611 -1.0612
 3263TIP3    H231425   0.908   0.785   1.445 -1.9404 -0.3100  1.0123
 3264TIP3   OH231426   2.026   0.590   8.055  0.4041 -0.0127 -0.1916
 3264TIP3    H131427   1.978   0.513   8.027 -0.9235 -0.2887  2.5333
 3264TIP3    H231428   2.040   0.577   8.149  2.4766  1.8661 -0.1540
 3265TIP3   OH231429   2.115   2.906   0.040 -0.4972 -0.3074 -0.2248
 3265TIP3    H131430   2.188   2.918   0.100 -0.1873 -3.4845  0.2192
 3265TIP3    H231431   2.108   2.989  -0.007 -0.2248  2.0781  3.5262
 3266TIP3   OH231432   6.178   2.786   0.617 -0.4256 -0.1459 -0.1093
 3266TIP3    H131433   6.229   2.720   0.664  0.7252  0.5822 -0.3005
 3266TIP3    H231434   6.207   2.779   0.526  0.2624  1.0982 -0.0109
 3267TIP3   OH231435   3.565   2.921   1.417  0.6363 -0.1487  0.3146
 3267TIP3    H131436   3.494   2.861   1.394  0.5361  0.2945 -0.5629
 3267TIP3    H231437   3.626   2.916   1.343  0.9637  0.3171  0.5515
 3268TIP3   OH231438   5.479   3.556   1.475 -0.5229  0.4391  0.2943
 3268TIP3    H131439   5.474   3.545   1.380  0.7183 -0.0892  0.2710
 3268TIP3    H231440   5.431   3.481   1.510  0.3358 -0.2154  0.0859
 3269TIP3   OH231441   1.525   6.624   8.168  0.5096 -0.1359 -0.3747
 3269TIP3    H131442   1.562   6.626   8.080  1.6143 -0.5140  0.0606
 3269TIP3    H231443   1.563   6.546   8.209  2.6572  1.7696  1.5217
 3270TIP3   OH231444   3.135   0.445   8.433  0.1979  0.3970 -0.4635
 3270TIP3    H131445   3.150   0.461   8.526  0.3338  0.0036 -0.4135
 3270TIP3    H231446   3.093   0.359   8.430  3.1511 -1.1741 -0.9296
 3271TIP3   OH231447   0.470   5.276   8.641 -0.3774  0.4095  0.0416
 3271TIP3    H131448   0.405   5.226   8.591 -0.7381  0.1075  0.8000
 3271TIP3    H231449   0.497   5.217   8.712 -0.5534  1.1562  0.7455
 3272TIP3   OH231450   0.655   0.835   1.169  0.4355  0.6225 -0.2567
 3272TIP3    H131451   0.641   0.930   1.175  0.1794  0.7681 -2.5134
 3272TIP3    H231452   0.588   0.798   1.227  0.2564  1.8014  0.3299
 3273TIP3   OH231453   5.597   2.277   8.283 -0.4728 -0.3143 -0.2994
 3273TIP3    H131454   5.601   2.293   8.378 -1.3608 -1.6686 -0.0102
 3273TIP3    H231455   5.544   2.349   8.249  0.7302  0.7858  0.0519
 3274TIP3   OH231456   5.155   3.575   1.623  0.2274  0.4541  0.1064
 3274TIP3    H131457   5.180   3.597   1.713 -2.0879  1.3914  0.5817
 3274TIP3    H231458   5.180   3.483   1.613  2.2631  0.8582  1.0219
 3275TIP3   OH231459   4.692   6.622   0.479  0.5090  0.6450 -0.1488
 3275TIP3    H131460   4.700   6.548   0.539  4.7213  0.5720 -0.4994
 3275TIP3    H231461   4.658   6.584   0.399  0.5972 -0.4909  0.3270
 3276TIP3   OH231462   4.874   0.416   8.760 -0.3862 -0.3708 -0.4013
 3276TIP3    H131463   4.818   0.345   8.793  1.3787 -1.2614  0.8781
 3276TIP3    H231464   4.960   0.375   8.748  0.5437  1.4155 -0.2087
 3277TIP3   OH231465   2.743   6.697   6.930 -0.4933  0.2677 -0.1601
 3277TIP3    H131466   2.784   6.696   6.844 -2.3996  1.7391 -1.1740
 3277TIP3    H231467   2.813   6.723   6.990  0.9991 -1.2987 -1.1360
 3278TIP3   OH231468   4.206   4.217   0.700 -0.0757 -0.3263  0.4866
 3278TIP3    H131469   4.228   4.277   0.629  0.5957  0.9569  1.7226
 3278TIP3    H231470   4.287   4.170   0.718 -0.7276 -2.0058 -0.8050
 3279TIP3   OH231471   2.340   2.336   1.373 -0.2083  0.0157 -0.0771
 3279TIP3    H131472   2.358   2.351   1.281 -0.9384 -0.1182 -0.2464
 3279TIP3    H231473   2.282   2.409   1.399 -1.1116 -0.6854 -0.0788
 3280TIP3   OH231474   3.135   4.577   1.546  0.6461  0.5575  0.7020
 3280TIP3    H131475   3.162   4.653   1.494  0.3107 -0.0588 -0.3967
 3280TIP3    H231476   3.217   4.542   1.580  1.2919 -0.8482 -1.9832
 3281TIP3   OH231477   2.160   6.159   1.540  0.2101  0.1568 -0.0438
 3281TIP3    H131478   2.191   6.095   1.604 -0.0524 -0.0734 -0.1468
 3281TIP3    H231479   2.147   6.109   1.460 -1.5198 -0.0015  0.2865
 3282TIP3   OH231480   0.119   3.160   1.822  0.1188  0.6006 -0.3750
 3282TIP3    H131481   0.193   3.101   1.833 -0.7074 -0.0457  2.6001
 3282TIP3    H231482   0.125   3.221   1.896 -2.8433 -0.1322  0.6004
 3283TIP3   OH231483   6.560   2.194   0.262 -0.0132 -0.4026 -0.5946
 3283TIP3    H131484   6.642   2.232   0.293 -0.9700  2.0779 -0.8774
 3283TIP3    H231485   6.538   2.244   0.183 -1.4007 -1.5400 -0.9809
 3284TIP3   OH231486   1.947   2.601   6.613 -0.2769 -0.3049  0.1494
 3284TIP3    H131487   1.852   2.606   6.616 -0.2167  1.5939  0.2553
 3284TIP3    H231488   1.966   2.507   6.610 -2.0946 -0.8069  1.8045
 3285TIP3   OH231489   0.739   6.043   8.448 -0.5551 -0.6360  0.2021
 3285TIP3    H131490   0.652   6.079   8.436 -0.4907 -1.0098 -1.7232
 3285TIP3    H231491   0.767   6.018   8.360  1.7569  0.0648  0.6702
 3286TIP3   OH231492   2.260   2.653   0.072  0.2954 -0.6927  0.1123
 3286TIP3    H131493   2.295   2.688  -0.009 -0.6671  1.1130  0.4182
 3286TIP3    H231494   2.165   2.660   0.062  0.1623 -0.2710  1.4352
 3287TIP3   OH231495   2.933   3.557   7.066 -0.6343 -0.2710  0.4090
 3287TIP3    H131496   2.850   3.517   7.092 -0.6215 -0.7970 -0.3067
 3287TIP3    H231497   2.942   3.534   6.973 -0.4452  1.1010  0.0579
 3288TIP3   OH231498   6.146   6.306   0.855 -0.4909  0.1944 -0.4903
 3288TIP3    H131499   6.126   6.394   0.887 -3.4181 -0.5947  0.1572
 3288TIP3    H231500   6.099   6.247   0.916  2.4798 -1.9550 -0.0326
 3289TIP3   OH231501   1.059   6.377   8.444  0.2585  0.0981 -0.0470
 3289TIP3    H131502   0.965   6.360   8.455  0.2817 -0.1394 -0.1956
 3289TIP3    H231503   1.086   6.419   8.525  0.3143 -1.0994  0.5877
 3290TIP3   OH231504   1.179   2.115   7.171  0.1417 -0.4391  0.0789
 3290TIP3    H131505   1.197   2.154   7.257  0.0518  0.2561 -0.2084
 3290TIP3    H231506   1.266   2.092   7.137  0.3248  0.7586 -0.3127
 3291TIP3   OH231507   1.184   5.431   7.117 -0.2723 -0.3547 -0.0440
 3291TIP3    H131508   1.264   5.476   7.142  0.2884 -1.5021  0.3174
 3291TIP3    H231509   1.190   5.423   7.021  0.7569 -1.6644  0.0997
 3292TIP3   OH231510   2.642   6.181   2.009 -0.3105  0.1377  0.0259
 3292TIP3    H131511   2.681   6.257   2.051 -0.0627 -0.2411  0.4915
 3292TIP3    H231512   2.571   6.154   2.068 -0.0039 -0.3586  0.1743
 3293TIP3   OH231513   0.384   3.120   8.325 -0.4472 -0.0969  0.1392
 3293TIP3    H131514   0.338   3.119   8.241  0.3530 -0.5309 -0.3087
 3293TIP3    H231515   0.395   3.213   8.346 -0.3388  0.0141 -0.4098
 3294TIP3   OH231516   0.557   5.991   6.774  0.2016 -0.6168  0.2110
 3294TIP3    H131517   0.639   6.041   6.777 -0.4495  0.4280  1.2693
 3294TIP3    H231518   0.558   5.939   6.854 -0.9944  0.7960  1.1930
 3295TIP3   OH231519   3.254   4.635   8.442  0.0941  0.5904  0.0386
 3295TIP3    H131520   3.334   4.668   8.400  0.2106  0.8984  0.4936
 3295TIP3    H231521   3.195   4.616   8.369  1.1156 -1.0755 -0.3817
 3296TIP3   OH231522   5.387   4.185   8.286 -0.3578 -0.5434 -0.2984
 3296TIP3    H131523   5.380   4.163   8.193 -0.9922  1.3191 -0.7165
 3296TIP3    H231524   5.466   4.239   8.292 -2.0806  2.1722 -0.3996
 3297TIP3   OH231525   2.335   4.893   7.864  0.0542  0.3663  0.0477
 3297TIP3    H131526   2.300   4.865   7.949 -1.1050  1.9469  0.1296
 3297TIP3    H231527   2.267   4.947   7.826  0.6527 -0.1012 -1.8217
 3298TIP3   OH231528   5.766   1.691   8.047 -0.3355  0.2464  0.0973
 3298TIP3    H131529   5.777   1.784   8.029  2.1340 -0.0935 -0.5116
 3298TIP3    H231530   5.748   1.687   8.141  0.1115  1.3246  0.2413
 3299TIP3   OH231531   3.036   3.260   7.022  0.0835 -0.2846  0.1938
 3299TIP3    H131532   3.046   3.295   6.933  2.5323 -0.0857  0.4699
 3299TIP3    H231533   3.118   3.284   7.066 -0.8361 -0.8855  2.3382
 3300TIP3   OH231534   5.379   0.470   8.156 -0.2454  0.0017 -0.3111
 3300TIP3    H131535   5.401   0.534   8.088 -0.8955 -1.0641 -1.5813
 3300TIP3    H231536   5.395   0.516   8.238  1.1796  1.1251 -1.1699
 3301TIP3   OH231537   0.191   3.078   0.237 -0.0175  0.2066 -0.1916
 3301TIP3    H131538   0.103   3.113   0.246 -0.1840 -0.2554 -0.0147
 3301TIP3    H231539   0.230   3.129   0.166 -1.0506 -0.8444 -1.5454
 3302TIP3   OH231540   4.529   1.948   7.789 -0.2109  0.0986  0.1582
 3302TIP3    H131541   4.582   1.952   7.868  0.0481  0.8854 -0.0449
 3302TIP3    H231542   4.581   1.895   7.728 -0.5857 -0.8301  0.6380
 3303TIP3   OH231543   6.590   1.085   1.866 -0.2482  0.3492 -0.5760
 3303TIP3    H131544   6.628   1.081   1.779 -1.5056 -1.1512 -1.1101
 3303TIP3    H231545   6.538   1.004   1.873 -1.3907  1.1667  0.9717
 3304TIP3   OH231546   6.081   3.244   1.609 -0.2190  0.1032 -0.0926
 3304TIP3    H131547   6.115   3.189   1.680  1.7599  2.5588  1.0478
 3304TIP3    H231548   6.004   3.286   1.647  0.9441  1.5570  0.7794
 3305TIP3   OH231549   3.979   1.212   0.305 -0.0185 -0.1339  0.1268
 3305TIP3    H131550   3.906   1.205   0.244  1.2507 -0.4362 -1.4350
 3305TIP3    H231551   4.003   1.121   0.323 -0.2826 -0.0444  0.9796
 3306TIP3   OH231552   1.505   0.200   7.971  0.6943  0.0369  0.0413
 3306TIP3    H131553   1.525   0.156   7.888 -0.5390  1.0272 -0.8116
 3306TIP3    H231554   1.521   0.133   8.037 -0.9946 -1.7102 -1.1993
 3307TIP3   OH231555   0.044   4.218   7.770 -0.5718  0.0923 -0.0915
 3307TIP3    H131556  -0.018   4.166   7.822  0.2299 -0.0441  0.7685
 3307TIP3    H231557   0.110   4.247   7.834  0.6051 -0.3105 -1.0825
 3308TIP3   OH231558   6.566   0.375   0.885  0.0139  0.3235 -0.4945
 3308TIP3    H131559   6.566   0.461   0.843  0.7832  1.1222  1.0705
 3308TIP3    H231560   6.587   0.393   0.976  2.6394 -1.7291 -0.5638
 3309TIP3   OH231561   2.481   2.528   0.777  0.0664 -0.3837  0.1097
 3309TIP3    H131562   2.555   2.468   0.769 -1.9807 -2.9791 -0.6644
 3309TIP3    H231563   2.489   2.587   0.701  0.3426 -1.8794 -1.0710
 3310TIP3   OH231564   0.969   4.856   1.337  0.1338  0.0032  0.0098
 3310TIP3    H131565   0.986   4.772   1.381 -0.9378  0.4657  1.3732
 3310TIP3    H231566   0.874   4.858   1.325  0.1699  0.9302 -0.1861
 3311TIP3   OH231567   1.222   4.719   0.575 -0.2620 -0.2077 -0.6269
 3311TIP3    H131568   1.127   4.730   0.570 -0.3348  0.4546  1.3129
 3311TIP3    H231569   1.235   4.636   0.621  0.0139  0.8085  1.2292
 3312TIP3   OH231570   3.194   5.113   2.541  0.1114 -0.0917  0.0872
 3312TIP3    H131571   3.244   5.042   2.499 -1.6304 -1.1029 -0.3583
 3312TIP3    H231572   3.243   5.131   2.622  0.3261 -2.1962  0.5041
 3313TIP3   OH231573   2.215   6.379   7.439 -0.3043 -0.3877 -0.3454
 3313TIP3    H131574   2.209   6.468   7.475 -0.9017  0.2398 -1.9344
 3313TIP3    H231575   2.126   6.359   7.412 -0.1129 -1.3733 -0.2724
 3314TIP3   OH231576   5.664   5.398   8.689 -0.4215  0.1028 -0.3754
 3314TIP3    H131577   5.704   5.482   8.713  1.8110 -0.5636 -1.5168
 3314TIP3    H231578   5.620   5.369   8.769 -0.7490  2.0438  0.2180
 3315TIP3   OH231579   6.413   5.618   0.894  0.3007 -0.0033  0.2759
 3315TIP3    H131580   6.388   5.702   0.855  1.6009  0.2438 -0.0728
 3315TIP3    H231581   6.491   5.591   0.845  0.6660 -0.7813  1.2547
 3316TIP3   OH231582   3.963   1.145   8.186 -0.5751 -0.1881  0.1947
 3316TIP3    H131583   4.042   1.199   8.186  0.0631 -0.9485 -2.7556
 3316TIP3    H231584   3.895   1.201   8.147 -0.7817 -0.4066  0.2366
 3317TIP3   OH231585   3.560   2.389   0.701  0.5179  0.4506  0.1391
 3317TIP3    H131586   3.480   2.386   0.753  1.0677 -0.7565  0.9569
 3317TIP3    H231587   3.610   2.462   0.738  0.0771  0.8098  0.0345
 3318TIP3   OH231588   3.297   1.817   1.767  0.3070  0.6467 -0.5255
 3318TIP3    H131589   3.260   1.735   1.732  1.0330  0.1801 -0.2205
 3318TIP3    H231590   3.239   1.839   1.840  0.8139 -0.2732  0.1752
 3319TIP3   OH231591   2.094   4.789   7.419 -0.5603 -0.0154 -0.2936
 3319TIP3    H131592   2.019   4.752   7.464 -0.0288  1.8928  2.4622
 3319TIP3    H231593   2.167   4.778   7.481  1.2702 -1.0038 -2.4915
 3320TIP3   OH231594   6.248   1.628   7.038 -0.2326  0.8031 -0.1645
 3320TIP3    H131595   6.261   1.683   6.961  0.1760  1.0925  0.1041
 3320TIP3    H231596   6.262   1.538   7.007 -1.3309  0.8132 -0.6997
 3321TIP3   OH231597   5.675   5.008   0.973 -0.1885  0.2361  0.1329
 3321TIP3    H131598   5.639   5.089   0.939  1.5920  0.8032 -0.5145
 3321TIP3    H231599   5.622   4.939   0.934 -1.6819  1.0522  0.6402
 3322TIP3   OH231600   1.522   2.436   8.816 -0.2041  0.2042 -0.0720
 3322TIP3    H131601   1.536   2.405   8.727  0.3122  0.9036 -0.2398
 3322TIP3    H231602   1.480   2.362   8.860  0.9125 -0.7204 -0.4905
 3323TIP3   OH231603   1.943   4.645   8.142  0.0663 -0.1723  0.3788
 3323TIP3    H131604   1.969   4.554   8.156 -1.4320 -0.8054 -0.6709
 3323TIP3    H231605   1.852   4.639   8.112  0.6446  1.5319 -1.9317
 3324TIP3   OH231606   2.291   4.414   8.255 -0.0415  0.6592 -0.2330
 3324TIP3    H131607   2.376   4.388   8.218 -0.7820  0.9814 -2.2651
 3324TIP3    H231608   2.228   4.358   8.210 -1.0530  1.5761  0.0223
 3325TIP3   OH231609   2.745   4.881   0.881  0.3435  0.8527 -0.3782
 3325TIP3    H131610   2.728   4.798   0.836 -2.5895  0.9811  0.2347
 3325TIP3    H231611   2.806   4.928   0.825 -0.5019 -0.3795 -2.4357
 3326TIP3   OH231612   2.492   6.519   8.799  0.4665  0.4581 -0.2624
 3326TIP3    H131613   2.460   6.491   8.713 -5.1709  0.5257  1.4563
 3326TIP3    H231614   2.492   6.438   8.851 -4.5406  1.3099  1.6173
 3327TIP3   OH231615   5.357   2.343   7.157  0.4346  0.2566 -0.2310
 3327TIP3    H131616   5.446   2.366   7.185 -0.0394  0.7295  0.9777
 3327TIP3    H231617   5.350   2.379   7.069  1.4947  0.0551 -0.4188
 3328TIP3   OH231618   6.535   1.944   8.618 -0.3620 -0.6035 -0.2788
 3328TIP3    H131619   6.524   1.878   8.686 -0.1848  0.2564  0.6060
 3328TIP3    H231620   6.468   1.924   8.553 -0.0192 -1.9141 -0.2431
 3329TIP3   OH231621   0.117   6.713   8.501 -0.1755 -0.0354  0.1864
 3329TIP3    H131622   0.131   6.788   8.443  3.3917  0.4404  1.3839
 3329TIP3    H231623   0.110   6.751   8.589 -2.0749 -0.9330  0.4598
 3330TIP3   OH231624   3.232   2.941   1.112 -0.7825 -0.6555  0.7008
 3330TIP3    H131625   3.197   3.007   1.172  0.4712  0.2115  0.5216
 3330TIP3    H231626   3.154   2.900   1.073 -1.6085  0.9766  0.5295
 3331TIP3   OH231627   6.556   2.811   1.493 -0.3367 -0.6278 -0.4834
 3331TIP3    H131628   6.615   2.844   1.424 -1.6090  0.5811 -1.0542
 3331TIP3    H231629   6.603   2.828   1.574 -0.4670  1.7278 -0.8248
 3332TIP3   OH231630   0.494   3.159   8.674  0.2902 -0.2807  0.2172
 3332TIP3    H131631   0.483   3.235   8.731  0.1113  0.1998 -0.4488
 3332TIP3    H231632   0.406   3.123   8.666  0.3778 -0.5730  0.5457
 3333TIP3   OH231633   2.245   2.856   8.348  0.1384 -0.1001 -0.4804
 3333TIP3    H131634   2.163   2.900   8.329  0.3691  0.5244 -0.0455
 3333TIP3    H231635   2.220   2.766   8.367 -0.6967  0.5568  1.7458
 3334TIP3   OH231636   1.309   6.360   7.651  0.6918  0.9831  0.0068
 3334TIP3    H131637   1.362   6.420   7.598 -0.8093  1.2896 -1.2070
 3334TIP3    H231638   1.291   6.408   7.731 -2.0854  3.0579 -1.7005
 3335TIP3   OH231639   5.216   1.789   8.505 -0.3942 -0.1256  0.8391
 3335TIP3    H131640   5.148   1.811   8.442 -0.5602  1.3606  1.4720
 3335TIP3    H231641   5.297   1.789   8.454 -0.6092  0.3498  0.4885
 3336TIP3   OH231642   2.781   4.363   6.919 -0.0781 -0.0978  0.4492
 3336TIP3    H131643   2.780   4.275   6.880 -0.0585  0.0206  0.1863
 3336TIP3    H231644   2.853   4.360   6.982  0.3460 -0.0628 -0.0284
 3337TIP3   OH231645   6.142   2.964   0.806  0.4154  0.0007  0.2961
 3337TIP3    H131646   6.173   2.900   0.741 -0.5844  0.6562 -0.8711
 3337TIP3    H231647   6.151   3.048   0.762  0.4276  0.5437  1.3157
 3338TIP3   OH231648   2.468   1.692   6.269  0.0735 -0.4723  0.2677
 3338TIP3    H131649   2.412   1.636   6.215 -0.0343 -0.9767  0.8903
 3338TIP3    H231650   2.407   1.746   6.319  0.1184 -1.2815  1.2225
 3339TIP3   OH231651   6.186   3.265   8.386  0.0155 -0.6142  0.4406
 3339TIP3    H131652   6.270   3.245   8.427  1.4851  2.5421 -0.7165
 3339TIP3    H231653   6.205   3.266   8.292 -1.3714 -0.0330  0.1435
 3340TIP3   OH231654   0.472   2.516   1.900 -0.1019 -0.3380  0.2844
 3340TIP3    H131655   0.456   2.494   1.991 -0.1850 -0.8689  0.1479
 3340TIP3    H231656   0.497   2.433   1.859 -1.7824 -0.4848 -0.5424
 3341TIP3   OH231657   1.985   5.542   0.952  0.5519 -0.1183 -0.0522
 3341TIP3    H131658   1.911   5.542   0.892  0.8104 -1.3148 -0.4015
 3341TIP3    H231659   1.989   5.631   0.987 -0.2370  0.3032 -1.0251
 3342TIP3   OH231660   2.430   3.508   0.432  0.1121  0.1317  0.1501
 3342TIP3    H131661   2.388   3.548   0.508  0.1387  1.0434 -0.3067
 3342TIP3    H231662   2.518   3.486   0.461 -0.1962 -0.4482  0.6751
 3343TIP3   OH231663   2.095   5.469   7.912  0.5279  0.0940  0.6570
 3343TIP3    H131664   2.152   5.487   7.838  0.7736 -0.0861  0.7987
 3343TIP3    H231665   2.036   5.400   7.881  0.4205  0.2472  0.5249
 3344TIP3   OH231666   5.798   1.727   0.542  0.5590 -0.5609 -0.2997
 3344TIP3    H131667   5.786   1.639   0.508  0.8292 -0.5391 -0.4535
 3344TIP3    H231668   5.827   1.779   0.466 -0.0516 -0.2354 -0.3174
 3345TIP3   OH231669   0.830   1.120   0.810 -0.9894 -0.6485  0.0269
 3345TIP3    H131670   0.809   1.156   0.724 -0.5984 -0.9935 -0.2173
 3345TIP3    H231671   0.778   1.172   0.871 -0.5236  0.2735 -0.3302
 3346TIP3   OH231672   1.689   0.666   1.909  0.3635 -0.3714  0.4883
 3346TIP3    H131673   1.611   0.611   1.905 -1.3386  1.7958  1.7281
 3346TIP3    H231674   1.662   0.742   1.961  2.4831  1.7639 -1.3202
 3347TIP3   OH231675   1.360   5.828   0.519  0.5693  0.0702  0.0794
 3347TIP3    H131676   1.389   5.869   0.438  0.2868 -0.9956 -0.5701
 3347TIP3    H231677   1.418   5.753   0.531  0.5576  0.1637  0.8300
 3348TIP3   OH231678   5.412   5.513   0.490  0.1796 -0.0775 -0.1299
 3348TIP3    H131679   5.387   5.545   0.403 -2.4615  0.0439  0.5866
 3348TIP3    H231680   5.492   5.562   0.511 -0.2003  1.3171 -1.6938
 3349TIP3   OH231681   4.653   2.066   0.485 -0.1642  0.3348  0.4427
 3349TIP3    H131682   4.593   2.094   0.416  0.4230 -0.8501 -0.5936
 3349TIP3    H231683   4.642   1.971   0.488  0.5853  0.2694  1.2596
 3350TIP3   OH231684   2.628   2.304   8.176  0.0051  0.0651  0.5375
 3350TIP3    H131685   2.680   2.236   8.134  2.4956  1.2859  1.4212
 3350TIP3    H231686   2.627   2.376   8.113 -1.4669 -0.2662  0.1510
 3351TIP3   OH231687   1.407   6.265   1.754  0.2155  0.3589  0.0682
 3351TIP3    H131688   1.337   6.328   1.770  0.4195  1.1071 -1.7446
 3351TIP3    H231689   1.437   6.239   1.842 -0.9013  1.6167  0.8577
 3352TIP3   OH231690   3.844   3.534   8.889 -0.2514  0.1962 -0.7511
 3352TIP3    H131691   3.750   3.513   8.888 -0.3709  0.6927 -0.5158
 3352TIP3    H231692   3.882   3.478   8.821 -0.9937  1.2210 -2.0824
 3353TIP3   OH231693   6.564   3.407   1.499 -0.6951  0.1006  0.0611
 3353TIP3    H131694   6.496   3.467   1.530 -0.9069  0.1445 -0.4806
 3353TIP3    H231695   6.629   3.406   1.570 -0.6409  1.0439  0.0318
 3354TIP3   OH231696   5.706   4.534   0.471 -0.0884  0.1036 -0.0216
 3354TIP3    H131697   5.612   4.547   0.458 -0.0755 -1.7711 -3.2961
 3354TIP3    H231698   5.736   4.614   0.512 -2.8198  1.6725 -0.8185
 3355TIP3   OH231699   3.303   6.577   7.004 -0.0383  0.1756  0.3157
 3355TIP3    H131700   3.297   6.572   7.099  0.6320 -0.2839  0.3406
 3355TIP3    H231701   3.223   6.535   6.972 -1.1329  1.8801  0.6729
 3356TIP3   OH231702   1.418   5.742   6.901 -0.1378  0.5415  0.1568
 3356TIP3    H131703   1.325   5.717   6.907  0.0768 -0.0909  0.9700
 3356TIP3    H231704   1.441   5.724   6.810 -0.5785 -0.1873  0.1755
 3357TIP3   OH231705   1.704   1.544   7.916 -0.4284 -0.3901  0.1588
 3357TIP3    H131706   1.750   1.480   7.862 -1.1751 -2.3529  1.7681
 3357TIP3    H231707   1.716   1.627   7.868  0.6861 -1.6422 -1.9096
 3358TIP3   OH231708   3.951   4.954   1.251  0.0499  0.1148  0.5456
 3358TIP3    H131709   3.924   4.868   1.283  0.8543 -0.5671 -0.5408
 3358TIP3    H231710   4.008   4.988   1.319 -1.2977  0.3779  1.5847
 3359TIP3   OH231711   1.909   2.313   6.802  0.8069 -0.1469  0.1033
 3359TIP3    H131712   1.838   2.370   6.833  1.5913  1.1722 -0.4099
 3359TIP3    H231713   1.867   2.230   6.782 -0.7336  0.8160 -0.8881
 3360TIP3   OH231714   2.155   1.174   8.402  0.1438 -0.2515 -0.8058
 3360TIP3    H131715   2.099   1.114   8.453  0.7082 -1.0035 -1.0505
 3360TIP3    H231716   2.243   1.138   8.413  0.3484 -0.0586 -1.8085
 3361TIP3   OH231717   5.268   4.721   1.263  0.5677  0.1865  0.2797
 3361TIP3    H131718   5.251   4.661   1.336 -1.4414  0.3595  0.0198
 3361TIP3    H231719   5.363   4.730   1.261  0.8740 -2.1803  0.9604
 3362TIP3   OH231720   2.957   0.511   8.805 -0.3472  0.7749 -0.0640
 3362TIP3    H131721   2.948   0.583   8.742 -1.0310  0.6592 -0.1035
 3362TIP3    H231722   3.050   0.489   8.803 -0.4849  0.2221 -1.6539
 3363TIP3   OH231723   3.066   5.487   0.422 -0.1820  0.2289 -0.2299
 3363TIP3    H131724   3.151   5.482   0.379  0.0838  2.0863  0.0114
 3363TIP3    H231725   3.009   5.530   0.358 -0.4909  0.5390  0.2462
 3364TIP3   OH231726   1.300   0.003   1.931 -0.1816 -0.1340  0.2826
 3364TIP3    H131727   1.376   0.019   1.874 -0.8654 -0.0559 -0.6385
 3364TIP3    H231728   1.243  -0.053   1.878 -0.7680 -0.1836  0.9601
 3365TIP3   OH231729   4.924   3.003   0.051 -0.1644 -0.1965  0.1806
 3365TIP3    H131730   4.939   2.948   0.128 -0.4033  0.6625  0.8612
 3365TIP3    H231731   5.000   2.988  -0.005  0.1917 -0.5559  0.7517
 3366TIP3   OH231732   0.916   1.814   7.935 -0.5876 -0.0373  0.5900
 3366TIP3    H131733   0.862   1.801   8.013 -0.9048 -1.3373  0.1920
 3366TIP3    H231734   1.005   1.822   7.968 -0.9422  1.7537  1.2291
 3367TIP3   OH231735   6.526   5.727   0.438  0.1300 -0.2533  0.8429
 3367TIP3    H131736   6.618   5.708   0.420 -0.1104 -0.0835 -0.6970
 3367TIP3    H231737   6.504   5.800   0.380 -0.9660 -0.2620  1.2131
 3368TIP3   OH231738   4.808   3.888   6.759 -0.1924 -0.4400 -0.5789
 3368TIP3    H131739   4.838   3.857   6.674  0.8598  0.5435 -0.5974
 3368TIP3    H231740   4.722   3.849   6.771  0.3062 -1.8534 -1.3914
 3369TIP3   OH231741   1.881   2.895   0.643 -0.2729 -0.1616 -0.2244
 3369TIP3    H131742   1.976   2.899   0.638 -0.1154  1.0782  2.2634
 3369TIP3    H231743   1.863   2.823   0.704 -0.8460  0.3685  0.2476
 3370TIP3   OH231744   3.346   0.374   0.948 -0.6212 -0.1766  0.7021
 3370TIP3    H131745   3.370   0.437   0.879  0.5008 -1.7942 -0.4456
 3370TIP3    H231746   3.429   0.339   0.978 -1.2617 -1.9704  0.4697
 3371TIP3   OH231747   0.598   1.932   1.924 -0.1717  0.1404 -0.7922
 3371TIP3    H131748   0.692   1.914   1.913 -0.2678 -0.6873 -0.3303
 3371TIP3    H231749   0.560   1.848   1.948 -0.9247  0.6208 -0.2624
 3372TIP3   OH231750   3.363   0.933   0.957 -0.0808 -0.4266 -0.6431
 3372TIP3    H131751   3.307   0.934   0.879 -0.2685  2.9440 -0.5975
 3372TIP3    H231752   3.440   0.983   0.932  2.0268 -3.1144  0.0158
 3373TIP3   OH231753   0.331   4.121   0.717 -0.1113 -0.5496 -0.4830
 3373TIP3    H131754   0.335   4.028   0.738 -0.2383 -0.6413 -0.8548
 3373TIP3    H231755   0.280   4.125   0.636  0.7597 -0.2436 -1.0337
 3374TIP3   OH231756   3.520   0.156   2.015 -0.0808  0.1682  0.1153
 3374TIP3    H131757   3.589   0.190   2.071  0.5569  0.2590 -0.6929
 3374TIP3    H231758   3.559   0.080   1.971  0.6533  1.9910 -2.6912
 3375TIP3   OH231759   2.710   4.344   0.549 -0.1494  0.0566  0.5288
 3375TIP3    H131760   2.642   4.288   0.585 -1.4084  2.1608  1.6235
 3375TIP3    H231761   2.792   4.302   0.573 -1.0208 -1.6458  0.6643
 3376TIP3   OH231762   0.722   5.518   7.904 -0.2733 -0.6164  0.0192
 3376TIP3    H131763   0.816   5.502   7.905 -0.0447  0.4789 -1.1494
 3376TIP3    H231764   0.705   5.565   7.985  0.2090 -0.7227  0.1857
 3377TIP3   OH231765   4.016   5.989   0.287  0.3153  0.3231  0.6021
 3377TIP3    H131766   4.005   5.964   0.195 -0.9426  0.2854  0.7360
 3377TIP3    H231767   3.930   5.971   0.326  0.4883  1.4018  1.5234
 3378TIP3   OH231768   5.061   1.313   1.792 -0.0789 -0.0738  0.1999
 3378TIP3    H131769   5.134   1.251   1.786  1.9511  2.1717  0.3375
 3378TIP3    H231770   5.039   1.315   1.885 -1.2597 -1.6835  0.0080
 3379TIP3   OH231771   3.987   5.565   1.776 -0.0879 -0.3379 -0.2743
 3379TIP3    H131772   3.943   5.549   1.692  0.2815  0.3644 -0.6122
 3379TIP3    H231773   4.067   5.513   1.771 -1.3113 -2.4117  0.7507
 3380TIP3   OH231774   0.760   0.855   8.845 -0.3284 -0.5588 -0.6756
 3380TIP3    H131775   0.711   0.866   8.927 -0.3434  0.7753 -0.8434
 3380TIP3    H231776   0.704   0.798   8.792 -1.2705  0.1727 -0.5039
 3381TIP3   OH231777   2.210   0.104   6.459 -0.0179 -0.9690 -0.2487
 3381TIP3    H131778   2.121   0.084   6.486  0.0520 -2.5593 -1.0577
 3381TIP3    H231779   2.210   0.199   6.445 -1.3133 -0.8105  0.6347
 3382TIP3   OH231780   3.867   5.844   7.163 -0.3014  0.1665 -0.0266
 3382TIP3    H131781   3.806   5.919   7.161  0.3794  0.8058  1.3369
 3382TIP3    H231782   3.926   5.859   7.089  0.2232  1.3724  0.5932
 3383TIP3   OH231783   3.081   3.274   8.020 -0.3815  0.3920  0.5184
 3383TIP3    H131784   3.103   3.352   8.071  1.2846 -1.3616  2.6483
 3383TIP3    H231785   3.118   3.290   7.933  0.7904  1.5591  1.2140
 3384TIP3   OH231786   2.507   0.823   0.203 -0.5298 -0.3456  0.1182
 3384TIP3    H131787   2.433   0.776   0.241 -1.3573  0.4597 -0.4474
 3384TIP3    H231788   2.533   0.885   0.272  0.4443 -1.4496  0.7924
 3385TIP3   OH231789   6.587   3.778   1.565 -0.2762 -0.1698  0.1289
 3385TIP3    H131790   6.580   3.776   1.469  1.2036  0.9430 -0.0420
 3385TIP3    H231791   6.518   3.719   1.595 -0.2172 -1.2287 -1.6433
 3386TIP3   OH231792   0.946   2.060   7.531  0.1408  0.2094  0.1642
 3386TIP3    H131793   0.861   2.049   7.572  0.9439 -0.1379  1.8159
 3386TIP3    H231794   1.008   2.019   7.591  1.3155 -1.0360 -1.7807
 3387TIP3   OH231795   3.159   0.450   1.947  0.3991 -0.2919 -0.5764
 3387TIP3    H131796   3.222   0.396   1.898 -0.4890  0.4311 -2.6524
 3387TIP3    H231797   3.180   0.540   1.921 -0.0728  0.1364  0.4727
 3388TIP3   OH231798   1.610   4.872   7.427  0.0139 -0.3578  0.2227
 3388TIP3    H131799   1.551   4.841   7.358 -1.1619  0.6282  0.7377
 3388TIP3    H231800   1.553   4.920   7.487  1.5458  1.8510  0.0234
 3389TIP3   OH231801   2.099   3.308   1.155 -0.1688  0.1983 -0.4072
 3389TIP3    H131802   2.095   3.265   1.070  2.0983 -2.0206  0.4738
 3389TIP3    H231803   2.129   3.397   1.136 -1.0036  0.1763 -1.9936
 3390TIP3   OH231804   6.388   5.467   8.393  0.3662 -0.0138 -0.2961
 3390TIP3    H131805   6.373   5.405   8.464  1.4492 -1.3629 -1.1955
 3390TIP3    H231806   6.300   5.491   8.363 -0.0767 -0.3236  0.7197
 3391TIP3   OH231807   5.703   3.560   0.717 -0.0936 -0.3747  0.1853
 3391TIP3    H131808   5.747   3.539   0.799 -0.8421 -0.1707  0.6502
 3391TIP3    H231809   5.765   3.536   0.649  1.3555  1.2754  0.8539
 3392TIP3   OH231810   4.872   5.120   7.530  0.2065 -0.4526 -0.2136
 3392TIP3    H131811   4.807   5.065   7.572  0.7368 -1.1281 -0.2560
 3392TIP3    H231812   4.821   5.186   7.482 -0.3997  0.3507  1.4801
 3393TIP3   OH231813   0.177   2.648   8.621  0.1476  0.1456  0.0496
 3393TIP3    H131814   0.126   2.680   8.547 -1.4420 -1.9033  0.1549
 3393TIP3    H231815   0.253   2.606   8.581  0.5270  1.1198 -0.2638
 3394TIP3   OH231816   4.672   2.462   6.481 -0.4326  0.4192  0.3707
 3394TIP3    H131817   4.607   2.413   6.531  0.4614 -2.3320 -0.9922
 3394TIP3    H231818   4.747   2.469   6.540  0.0003 -1.3006  0.0637
 3395TIP3   OH231819   4.819   2.792   1.310 -0.0149  0.1691 -0.0010
 3395TIP3    H131820   4.855   2.816   1.224  1.9583  0.3546  0.8286
 3395TIP3    H231821   4.787   2.703   1.298  1.7574 -0.4511 -0.5665
 3396TIP3   OH231822   6.350   6.467   0.694 -0.1413  0.5788  0.3696
 3396TIP3    H131823   6.329   6.448   0.785  1.7609  0.1798  0.7690
 3396TIP3    H231824   6.444   6.449   0.687 -0.6180 -1.3587 -2.1736
 3397TIP3   OH231825   3.699   5.642   1.350  0.5408  0.1231 -0.4146
 3397TIP3    H131826   3.725   5.552   1.330  0.0007 -0.3897  1.1142
 3397TIP3    H231827   3.737   5.693   1.278  3.0887 -0.9680  0.0359
 3398TIP3   OH231828   0.408   0.595   7.232 -0.2686 -0.5107  0.1236
 3398TIP3    H131829   0.443   0.656   7.168  0.7313 -1.5525 -0.3530
 3398TIP3    H231830   0.449   0.621   7.315 -0.5183 -0.0131  0.0955
 3399TIP3   OH231831   5.287   1.614   7.932 -0.0020  0.4679 -0.5370
 3399TIP3    H131832   5.343   1.689   7.910  1.9788 -0.5279  0.8290
 3399TIP3    H231833   5.295   1.555   7.856 -0.1592  0.8428 -0.8487
 3400TIP3   OH231834   4.828   3.179   2.071  0.1878 -0.5961  0.3022
 3400TIP3    H131835   4.845   3.262   2.026  1.6523 -0.5851  0.8133
 3400TIP3    H231836   4.832   3.201   2.164  1.4986 -1.3861  0.4520
 3401TIP3   OH231837   3.251   2.335   8.161 -0.6077  0.0986 -0.0309
 3401TIP3    H131838   3.337   2.315   8.123  0.0613  1.9069  0.4397
 3401TIP3    H231839   3.253   2.296   8.248 -1.3286 -2.1794 -0.9550
 3402TIP3   OH231840   3.872   0.079   1.075  0.1263 -0.1937  0.1439
 3402TIP3    H131841   3.782   0.111   1.071  0.5088  0.8848 -3.3970
 3402TIP3    H231842   3.863  -0.017   1.073 -0.9444 -0.1063  0.3445
 3403TIP3   OH231843   4.355   0.363   1.572 -0.2173  0.2837 -1.0419
 3403TIP3    H131844   4.394   0.437   1.618 -0.0639  0.3412 -1.2659
 3403TIP3    H231845   4.355   0.389   1.480 -0.7608  0.2772 -1.0491
 3404TIP3   OH231846   6.597   1.721   0.517 -0.4442  0.4144 -0.2272
 3404TIP3    H131847   6.692   1.718   0.526 -0.4663 -3.6402  0.6661
 3404TIP3    H231848   6.581   1.707   0.423 -0.2057  1.2380 -0.3997
 3405TIP3   OH231849   1.385   5.710   7.452  0.6806  0.1417  0.0851
 3405TIP3    H131850   1.331   5.789   7.452 -0.1158 -0.3047 -2.4987
 3405TIP3    H231851   1.322   5.638   7.458  1.3437 -0.3296  1.6642
 3406TIP3   OH231852   0.436   1.005   2.143 -0.4753 -0.0535  0.2020
 3406TIP3    H131853   0.522   1.022   2.182 -0.4656  0.8941 -0.2209
 3406TIP3    H231854   0.427   1.070   2.074 -3.3306  2.8221  2.9343
 3407TIP3   OH231855   5.036   4.014   6.593 -0.2056  0.0050 -0.3305
 3407TIP3    H131856   5.019   3.925   6.624  0.1369  0.0325 -0.0488
 3407TIP3    H231857   4.952   4.045   6.561 -0.5145 -0.1303  0.3268
 3408TIP3   OH231858   1.017   2.845   8.424  0.0443 -0.3151  0.0007
 3408TIP3    H131859   1.091   2.817   8.370  0.1280 -0.3751  0.1489
 3408TIP3    H231860   1.034   2.809   8.510  0.0619  0.0395  0.1484
 3409TIP3   OH231861   0.453   6.465   0.715  0.0811 -0.3004  0.7059
 3409TIP3    H131862   0.370   6.514   0.720  0.3718  0.2890 -0.0670
 3409TIP3    H231863   0.439   6.403   0.644  0.8914  0.9917 -0.6394
 3410TIP3   OH231864   4.875   4.892   0.343 -0.0656 -0.0830 -0.0732
 3410TIP3    H131865   4.944   4.956   0.323  0.1122 -0.2103  0.1342
 3410TIP3    H231866   4.844   4.916   0.430  0.6683 -0.8604  0.4206
 3411TIP3   OH231867   4.019   6.408   7.902  0.4068  0.0323  0.1119
 3411TIP3    H131868   4.019   6.461   7.822 -1.7729 -0.2791 -0.1722
 3411TIP3    H231869   3.948   6.445   7.955  0.2432 -1.2712  0.8359
 3412TIP3   OH231870   0.695   5.550   1.188 -0.6253 -0.3696  0.3159
 3412TIP3    H131871   0.753   5.523   1.259 -0.6086  2.2208  1.4249
 3412TIP3    H231872   0.617   5.582   1.233 -2.9727 -3.4989 -1.1086
 3413TIP3   OH231873   5.012   3.127   1.473  0.5950  0.2593 -0.5852
 3413TIP3    H131874   5.087   3.068   1.469 -0.2506 -0.8227 -1.0086
 3413TIP3    H231875   4.971   3.108   1.558  0.5673  0.5510 -0.5322
 3414TIP3   OH231876   4.786   3.756   7.915  0.6205  0.4589 -0.3428
 3414TIP3    H131877   4.875   3.758   7.951  0.4365  0.9814  0.0966
 3414TIP3    H231878   4.747   3.676   7.951  1.2644 -0.3602 -1.4136
 3415TIP3   OH231879   0.197   0.155   7.917  0.4389 -0.4911 -0.6980
 3415TIP3    H131880   0.149   0.105   7.852  0.2823  0.2284 -1.1533
 3415TIP3    H231881   0.197   0.101   7.995  3.9413 -3.2242 -2.2744
 3416TIP3   OH231882   6.521   1.361   0.265  0.7936 -0.0528 -0.3107
 3416TIP3    H131883   6.525   1.330   0.356  4.9604  0.2767 -0.2096
 3416TIP3    H231884   6.525   1.457   0.273  1.1785 -0.0217 -0.8136
 3417TIP3   OH231885   6.628   5.072   8.553 -0.1009  0.3590 -0.4477
 3417TIP3    H131886   6.637   5.031   8.639  1.3059 -2.5965 -1.8430
 3417TIP3    H231887   6.536   5.060   8.531 -0.2302  0.1084  0.2077
 3418TIP3   OH231888   1.930   3.694   0.369  0.3805  0.0286  0.6580
 3418TIP3    H131889   2.011   3.742   0.351  0.7432 -0.9491 -0.3823
 3418TIP3    H231890   1.958   3.620   0.424  0.5595 -1.4207 -1.2844
 3419TIP3   OH231891   5.393   2.958   1.038 -0.0896 -0.3721 -0.0603
 3419TIP3    H131892   5.307   2.918   1.027 -0.4318  0.6529 -1.3982
 3419TIP3    H231893   5.380   3.049   1.012  1.2294 -0.0087  0.4940
 3420TIP3   OH231894   6.591   5.625   1.343 -0.0480 -0.1824  0.2087
 3420TIP3    H131895   6.557   5.667   1.264  0.1569 -1.0606 -0.3561
 3420TIP3    H231896   6.576   5.689   1.412  0.1958  0.7972 -0.6161
 3421TIP3   OH231897   3.419   6.002   1.556 -0.0504 -0.3022  0.1974
 3421TIP3    H131898   3.432   6.095   1.540 -2.3399 -0.3026 -2.5582
 3421TIP3    H231899   3.483   5.980   1.623  1.8205  2.8541 -0.3297
 3422TIP3   OH231900   0.565   5.930   8.658  0.5329 -0.3579  0.2035
 3422TIP3    H131901   0.569   5.974   8.743 -0.9208  2.2373 -0.9579
 3422TIP3    H231902   0.610   5.989   8.598  1.1081 -1.9093 -0.9580
 3423TIP3   OH231903   5.673   1.844   1.869 -0.7390 -0.0225 -0.0146
 3423TIP3    H131904   5.627   1.923   1.842  1.3249  1.0308 -0.6956
 3423TIP3    H231905   5.706   1.865   1.957  0.9595  0.4774 -0.7215
 3424TIP3   OH231906   2.565   6.135   7.964 -0.2565 -0.1750 -0.4970
 3424TIP3    H131907   2.512   6.207   7.999 -0.1416 -0.1166 -0.4434
 3424TIP3    H231908   2.655   6.157   7.988 -0.1004  0.1892 -1.3836
 3425TIP3   OH231909   3.045   0.057   8.188  0.2878 -0.3502 -0.1511
 3425TIP3    H131910   2.952   0.033   8.194  0.3306 -0.2616  0.9525
 3425TIP3    H231911   3.067   0.043   8.095 -0.0873 -3.0751  0.0944
 3426TIP3   OH231912   0.180   5.964   7.280 -0.1853 -0.0374 -0.5064
 3426TIP3    H131913   0.093   5.928   7.259 -0.2208 -0.5761  0.5041
 3426TIP3    H231914   0.195   5.938   7.371  0.7235  0.6922 -0.4392
 3427TIP3   OH231915   1.651   6.627   2.576  0.1252 -0.3719 -0.5909
 3427TIP3    H131916   1.689   6.610   2.490 -0.2754 -1.1174 -0.6266
 3427TIP3    H231917   1.623   6.541   2.607 -0.2729 -0.0221  0.0277
 3428TIP3   OH231918   2.515   3.186   6.921 -0.0403 -0.2365 -0.2719
 3428TIP3    H131919   2.589   3.232   6.882 -0.4722 -0.0622 -0.9081
 3428TIP3    H231920   2.480   3.247   6.986  0.0656 -0.1141 -0.3297
 3429TIP3   OH231921   0.985   6.286   7.222 -0.5617  0.7014 -0.3160
 3429TIP3    H131922   0.907   6.230   7.223 -0.3384  0.3884  0.5740
 3429TIP3    H231923   0.950   6.375   7.224 -0.9089  0.5621  0.2328
 3430TIP3   OH231924   4.788   1.061   1.743  0.5121 -0.0156  0.2182
 3430TIP3    H131925   4.740   1.142   1.727 -0.1168 -0.3449  0.4137
 3430TIP3    H231926   4.848   1.081   1.815 -0.1969  0.0549  0.7935
 3431TIP3   OH231927   5.147   3.916   2.286 -0.2889 -0.0544  0.0503
 3431TIP3    H131928   5.202   3.843   2.313 -0.4978 -0.2317 -0.0033
 3431TIP3    H231929   5.194   3.955   2.211 -2.0802 -2.5728 -2.5894
 3432TIP3   OH231930   2.278   4.061   8.724 -0.1714 -0.1551 -0.3942
 3432TIP3    H131931   2.268   4.027   8.636  0.1320  0.2596 -0.5894
 3432TIP3    H231932   2.214   4.012   8.776 -1.1735  0.4052 -1.0612
 3433TIP3   OH231933   4.795   0.353   8.430 -0.0522  0.3630 -0.7484
 3433TIP3    H131934   4.826   0.299   8.357  2.5429 -1.1164  1.2928
 3433TIP3    H231935   4.855   0.428   8.432 -0.0469  0.3447 -0.0796
 3434TIP3   OH231936   2.983   6.170   1.843 -0.5293 -0.3560 -0.1479
 3434TIP3    H131937   3.076   6.149   1.851 -0.7161 -1.0983  0.0982
 3434TIP3    H231938   2.944   6.139   1.924 -1.1748 -1.0394 -0.7113
 3435TIP3   OH231939   5.241   5.367   7.880  0.5337  0.2258 -0.0282
 3435TIP3    H131940   5.162   5.333   7.838  0.4356  0.1203  0.2345
 3435TIP3    H231941   5.279   5.290   7.924  1.8008 -0.1536 -1.6820
 3436TIP3   OH231942   5.917   6.532   1.460 -0.0981 -0.3665  0.5943
 3436TIP3    H131943   5.898   6.580   1.380  0.6930  0.4903  0.9120
 3436TIP3    H231944   5.877   6.446   1.446  1.7387 -0.9542 -1.5590
 3437TIP3   OH231945   1.002   1.629   8.501 -0.4260  0.3962 -0.6398
 3437TIP3    H131946   1.070   1.667   8.557 -0.3904  0.0381 -0.4381
 3437TIP3    H231947   0.993   1.539   8.533  0.9315 -0.4346 -2.4254
 3438TIP3   OH231948   0.611   2.999   8.439  0.3608  0.2769 -0.4403
 3438TIP3    H131949   0.540   3.063   8.445  0.0838 -0.0465 -0.1603
 3438TIP3    H231950   0.683   3.037   8.487 -0.0746  0.0273  0.4266
 3439TIP3   OH231951   3.154   0.349   0.093  0.0874 -0.0543 -0.2099
 3439TIP3    H131952   3.075   0.303   0.067 -0.4195  0.0978  0.9674
 3439TIP3    H231953   3.223   0.283   0.092 -0.5590 -0.7910  1.1071
 3440TIP3   OH231954   4.198   0.384   1.986  0.0730  0.1963 -0.4309
 3440TIP3    H131955   4.172   0.475   2.004  0.9417  0.6915 -1.5700
 3440TIP3    H231956   4.115   0.338   1.975 -0.5520  0.0705  3.3485
 3441TIP3   OH231957   4.082   0.927   8.373 -0.2155  0.1908  0.4599
 3441TIP3    H131958   4.042   1.004   8.334  0.2845  0.5810  0.7012
 3441TIP3    H231959   4.175   0.935   8.351 -0.0276  0.1001  1.2037
 3442TIP3   OH231960   6.296   4.732   1.462 -0.0017 -0.3556 -0.2231
 3442TIP3    H131961   6.249   4.786   1.398  0.1018  1.0044  0.7966
 3442TIP3    H231962   6.276   4.642   1.437 -0.2500  0.1355 -1.9445
 3443TIP3   OH231963   0.100   2.709   8.354 -0.1366 -0.0644 -0.5713
 3443TIP3    H131964   0.187   2.675   8.330  0.4927  0.2238  1.1442
 3443TIP3    H231965   0.040   2.663   8.296  0.8683 -2.5750  0.2131
 3444TIP3   OH231966   5.344   5.887   2.001 -0.4473  0.6875  0.3632
 3444TIP3    H131967   5.409   5.955   2.019  0.4363  0.0287 -0.2432
 3444TIP3    H231968   5.379   5.808   2.043 -0.5154  0.1791 -0.4945
 3445TIP3   OH231969   6.359   5.900   0.929 -0.5785 -0.0406 -0.5109
 3445TIP3    H131970   6.360   5.943   0.843  1.6110  1.0387 -0.0022
 3445TIP3    H231971   6.269   5.910   0.959 -1.7081 -1.3871 -3.0901
 3446TIP3   OH231972   0.360   5.425   8.313  0.2121 -0.2397 -0.7256
 3446TIP3    H131973   0.298   5.489   8.278 -1.0070 -1.1055 -0.2365
 3446TIP3    H231974   0.333   5.341   8.275 -0.1468 -0.9357  0.9497
 3447TIP3   OH231975   2.318   4.003   7.186  0.2281  0.4214 -0.2232
 3447TIP3    H131976   2.269   3.931   7.225 -1.5590  1.2926 -0.7672
 3447TIP3    H231977   2.270   4.081   7.211  1.5392  1.3668 -0.5329
 3448TIP3   OH231978   5.501   5.379   2.254  0.2371 -0.2350 -0.2015
 3448TIP3    H131979   5.486   5.465   2.293  3.0920  0.2155  0.1504
 3448TIP3    H231980   5.580   5.391   2.200  0.1962 -2.4353 -0.8549
 3449TIP3   OH231981   4.920   1.405   6.866 -0.5226 -0.1697 -0.4398
 3449TIP3    H131982   4.849   1.428   6.925  0.0597 -0.0980  0.2488
 3449TIP3    H231983   4.999   1.436   6.910 -0.2725  3.0277 -2.7031
 3450TIP3   OH231984   6.103   6.791   2.292  0.4358 -0.3006  0.1029
 3450TIP3    H131985   6.028   6.761   2.345  0.5015  0.0356  0.3909
 3450TIP3    H231986   6.178   6.782   2.350  0.8033 -1.7440 -0.5724
 3451TIP3   OH231987   3.407   5.338   8.744  0.6258 -0.3673 -0.0171
 3451TIP3    H131988   3.423   5.422   8.787 -1.2900  0.1470 -0.1921
 3451TIP3    H231989   3.424   5.273   8.812  0.0426  0.2999  0.7920
 3452TIP3   OH231990   0.301   4.543   8.347  0.5431 -0.0086 -0.5047
 3452TIP3    H131991   0.387   4.585   8.355  0.3564  0.1293  1.1834
 3452TIP3    H231992   0.242   4.599   8.397 -0.3896 -0.5117 -1.0097
 3453TIP3   OH231993   6.793   0.965   0.160 -0.4766  0.3656  0.3251
 3453TIP3    H131994   6.722   0.981   0.098 -0.0913 -1.4307 -0.6523
 3453TIP3    H231995   6.750   0.956   0.245 -1.2986  0.2917 -0.0936
 3454TIP3   OH231996   4.732   1.577   0.873 -0.4515  0.0272 -0.3537
 3454TIP3    H131997   4.811   1.631   0.874  0.1286 -0.8060 -0.0685
 3454TIP3    H231998   4.737   1.525   0.953 -0.9242 -0.5560 -0.6943
 3455TIP3   OH231999   2.354   6.320   7.698 -0.2031 -0.5293 -0.1356
 3455TIP3    H132000   2.315   6.341   7.613 -0.4647  0.2624  0.1719
 3455TIP3    H232001   2.426   6.383   7.708 -0.4489 -0.3297  0.4186
 3456TIP3   OH232002   5.304   2.009   1.457  0.0835 -0.3459 -0.6021
 3456TIP3    H132003   5.371   2.076   1.443 -1.4190  1.3954  0.1547
 3456TIP3    H232004   5.226   2.044   1.415 -0.9480 -1.2562  0.5073
 3457TIP3   OH232005   0.947   3.604   7.011  0.3608 -0.4697 -0.3049
 3457TIP3    H132006   0.906   3.584   6.927 -0.2265  0.8112 -0.3494
 3457TIP3    H232007   0.983   3.691   7.000 -1.4736  0.6059  1.3541
 3458TIP3   OH232008   6.109   1.549   6.700 -0.0407  0.2644  0.5835
 3458TIP3    H132009   6.042   1.601   6.743 -0.2996  1.5324 -1.2601
 3458TIP3    H232010   6.140   1.489   6.768  0.1069  2.6264  2.7561
 3459TIP3   OH232011   3.876   2.379   7.484 -0.3167 -0.3874  0.2527
 3459TIP3    H132012   3.843   2.411   7.400  2.0786 -0.5145 -0.8069
 3459TIP3    H232013   3.813   2.412   7.548 -1.8290  0.3083 -1.5005
 3460TIP3   OH232014   6.524   4.080   0.150  0.1078  0.4379 -0.3968
 3460TIP3    H132015   6.538   4.174   0.164 -1.0896  0.5070  0.4676
 3460TIP3    H232016   6.519   4.043   0.238 -0.9831 -0.1834 -0.7070
 3461TIP3   OH232017   1.068   2.005   2.079 -0.1207  0.1634 -0.3291
 3461TIP3    H132018   1.135   1.938   2.077 -0.4995 -0.2041 -1.0578
 3461TIP3    H232019   1.030   1.999   2.168  0.3749 -0.0452 -0.1322
 3462TIP3   OH232020   6.192   5.650   1.705  0.2684 -0.1427  0.0446
 3462TIP3    H132021   6.137   5.728   1.712 -0.7142 -0.7199 -0.8251
 3462TIP3    H232022   6.273   5.673   1.750  0.3175  1.6709 -0.8781
 3463TIP3   OH232023   5.631   3.690   7.926  0.2471 -0.0828 -0.2947
 3463TIP3    H132024   5.569   3.711   7.856  1.0534  1.3941 -0.6126
 3463TIP3    H232025   5.691   3.627   7.887  0.7718  0.8334 -0.9832
 3464TIP3   OH232026   2.781   3.265   8.569  0.0546  0.1555  0.2243
 3464TIP3    H132027   2.818   3.341   8.525 -0.4345 -0.4633 -1.3161
 3464TIP3    H232028   2.837   3.192   8.543  1.2320  0.0842  2.6090
 3465TIP3   OH232029   6.488   1.367   0.869  0.0675  0.3812  0.2114
 3465TIP3    H132030   6.511   1.298   0.932 -1.1863  1.2047  1.6344
 3465TIP3    H232031   6.497   1.448   0.918 -0.3088  1.0981 -0.8731
 3466TIP3   OH232032   4.735   0.522   2.305  0.0345  0.4217  0.0285
 3466TIP3    H132033   4.788   0.446   2.331  0.0177  0.2447 -0.4517
 3466TIP3    H232034   4.698   0.498   2.221  0.5678  1.2266 -0.4516
 3467TIP3   OH232035   5.127   5.129   0.676  0.0652 -0.2741 -0.1800
 3467TIP3    H132036   5.169   5.048   0.648  2.4666  0.5665  0.6591
 3467TIP3    H232037   5.191   5.197   0.655 -0.8408  1.1059  1.2716
 3468TIP3   OH232038   5.769   1.139   0.700 -0.2104  0.1995  0.5491
 3468TIP3    H132039   5.828   1.095   0.762 -1.8132  0.4425  2.3279
 3468TIP3    H232040   5.681   1.121   0.734 -1.0457  2.2624 -0.3771
 3469TIP3   OH232041   2.242   4.390   2.191  0.3201  0.3756 -0.0713
 3469TIP3    H132042   2.301   4.361   2.260  1.6353  2.7764 -0.0661
 3469TIP3    H232043   2.155   4.387   2.231  0.9967  1.2640  1.5501
 3470TIP3   OH232044   6.647   0.812   0.454  0.6675  0.3515 -0.0989
 3470TIP3    H132045   6.577   0.758   0.418  0.0844  0.9995  0.0315
 3470TIP3    H232046   6.610   0.900   0.457  1.0838  0.5119  1.0268
 3471TIP3   OH232047   3.191   6.692   0.181  0.0605 -0.1955 -0.4218
 3471TIP3    H132048   3.134   6.615   0.189 -0.9842  0.4052 -1.6654
 3471TIP3    H232049   3.135   6.765   0.207  0.6399  0.2765 -0.4903
 3472TIP3   OH232050   0.696   2.864   6.653  0.1605 -0.5239  0.6201
 3472TIP3    H132051   0.745   2.903   6.581  0.9291 -0.7395  1.0120
 3472TIP3    H232052   0.745   2.784   6.674 -1.1005 -1.4440  0.1568
 3473TIP3   OH232053   3.043   5.328   1.593 -0.3561  0.3493 -0.0820
 3473TIP3    H132054   3.015   5.355   1.505 -0.1655  2.6430  0.4887
 3473TIP3    H232055   3.138   5.328   1.589 -0.3508  0.2122  0.0500
 3474TIP3   OH232056   5.198   6.786   0.235  0.2052 -0.4623  0.6657
 3474TIP3    H132057   5.111   6.823   0.217  0.0353  0.3687  2.9307
 3474TIP3    H232058   5.227   6.752   0.150 -1.6942  0.5730 -0.4751
 3475TIP3   OH232059   4.203   3.286   8.137 -0.4038  0.1274  0.1838
 3475TIP3    H132060   4.152   3.366   8.123 -3.1305 -1.6944 -1.3845
 3475TIP3    H232061   4.204   3.274   8.232  0.8587  2.3949  0.5295
 3476TIP3   OH232062   4.555   1.429   0.725 -0.3280  0.4902 -0.2057
 3476TIP3    H132063   4.622   1.455   0.788  0.3989 -0.0146 -0.7707
 3476TIP3    H232064   4.529   1.341   0.753  1.7724 -0.7820 -2.0382
 3477TIP3   OH232065   1.486   2.961   7.255  0.6289 -0.4756 -0.6723
 3477TIP3    H132066   1.575   2.940   7.227  0.2197 -1.7493 -1.0944
 3477TIP3    H232067   1.438   2.976   7.173 -0.3462 -3.2597 -0.6966
 3478TIP3   OH232068   2.354   1.747   7.947 -0.2832 -0.6202  0.2078
 3478TIP3    H132069   2.329   1.676   7.888 -0.8948 -0.4372  0.2440
 3478TIP3    H232070   2.348   1.708   8.034 -0.9294 -0.4435  0.2501
 3479TIP3   OH232071   1.015   0.013   1.566  0.3708 -0.6889  0.6705
 3479TIP3    H132072   0.931  -0.010   1.527 -0.0720  0.3443  0.9876
 3479TIP3    H232073   0.993   0.066   1.642  1.3302  1.9812 -0.7887
 3480TIP3   OH232074   2.245   6.773   8.280  1.0070 -0.7227  0.1849
 3480TIP3    H132075   2.211   6.699   8.229  1.6801 -1.7432  1.1559
 3480TIP3    H232076   2.226   6.750   8.371  2.0593 -0.1624  0.5633
 3481TIP3   OH232077   4.897   3.180   1.241  0.3696 -0.6389 -0.0979
 3481TIP3    H132078   4.911   3.156   1.333 -0.4731  0.2293  0.2787
 3481TIP3    H232079   4.820   3.236   1.243  0.4577 -0.4551 -1.3238
 3482TIP3   OH232080   4.636   2.205   0.735 -0.0806  0.2374  0.1168
 3482TIP3    H132081   4.643   2.151   0.657 -1.9887  1.6365 -1.1189
 3482TIP3    H232082   4.652   2.145   0.808  1.5696 -1.1486 -1.3064
 3483TIP3   OH232083   4.711   2.457   1.048 -0.1521 -0.5286 -0.1182
 3483TIP3    H132084   4.794   2.426   1.083  0.6654  0.4911 -1.0862
 3483TIP3    H232085   4.722   2.454   0.953 -0.7656  0.7962 -0.2503
 3484TIP3   OH232086   2.659   1.184   0.813  0.3171  0.2738 -0.2287
 3484TIP3    H132087   2.694   1.249   0.751  0.7615  0.1383 -0.1203
 3484TIP3    H232088   2.665   1.101   0.766 -0.2298  0.3014 -0.3579
 3485TIP3   OH232089   5.287   0.466   0.995  0.7710 -0.1410 -0.3850
 3485TIP3    H132090   5.321   0.544   1.037  0.1303 -0.5221  0.8893
 3485TIP3    H232091   5.317   0.393   1.050 -1.0973 -0.5621  0.1616
 3486TIP3   OH232092   6.317   2.770   0.080 -0.2250 -0.4698  0.7718
 3486TIP3    H132093   6.229   2.783   0.114  0.3727  1.5732  1.7615
 3486TIP3    H232094   6.374   2.815   0.143  1.3894 -0.5840 -0.5143
 3487TIP3   OH232095   2.016   2.506   7.912  0.1142  0.8443 -0.2240
 3487TIP3    H132096   2.016   2.599   7.890  0.4708  0.8193 -0.3409
 3487TIP3    H232097   1.955   2.467   7.849  0.2649  0.9430 -0.4345
 3488TIP3   OH232098   5.678   5.906   7.695 -1.1249 -0.4229  0.0622
 3488TIP3    H132099   5.722   5.940   7.773 -0.3391  2.4068 -1.4760
 3488TIP3    H232100   5.585   5.918   7.713 -0.9939 -0.6374  0.9161
 3489TIP3   OH232101   0.276   5.215   8.148  0.1094 -0.3886  0.7619
 3489TIP3    H132102   0.188   5.220   8.185 -0.0930 -1.0743  0.3916
 3489TIP3    H232103   0.274   5.138   8.092  0.5604  0.3440 -0.2956
 3490TIP3   OH232104   4.229   4.886   0.475 -0.2105 -0.5666 -0.0952
 3490TIP3    H132105   4.249   4.858   0.386 -1.5291  0.6233 -0.8069
 3490TIP3    H232106   4.266   4.975   0.480  0.0879 -0.7224  0.6498
 3491TIP3   OH232107   5.078   0.155   7.649 -0.5424 -0.2003 -0.0791
 3491TIP3    H132108   4.990   0.187   7.669 -0.4926  0.7854 -1.2758
 3491TIP3    H232109   5.123   0.154   7.733 -0.7661  2.3187  0.1534
 3492TIP3   OH232110   6.008   2.339   8.880 -0.3188  0.2849  0.2566
 3492TIP3    H132111   5.913   2.343   8.876 -0.3878 -1.5337 -0.7102
 3492TIP3    H232112   6.035   2.316   8.791  0.9794  0.0918  0.6743
 3493TIP3   OH232113   5.244   2.642   0.543 -0.1440 -0.2238  0.0022
 3493TIP3    H132114   5.166   2.683   0.505  1.7077  1.6960 -2.0238
 3493TIP3    H232115   5.285   2.711   0.596 -0.4355 -1.6072  2.1569
 3494TIP3   OH232116   0.179   2.737   6.997  0.0139 -0.0572  0.0775
 3494TIP3    H132117   0.107   2.755   6.937 -0.2255 -0.2104  0.3187
 3494TIP3    H232118   0.165   2.647   7.026 -0.1533  0.1860  0.7520
 3495TIP3   OH232119   4.844   0.190   1.951  0.5064 -0.8377 -0.0608
 3495TIP3    H132120   4.795   0.119   1.992  0.6776 -0.4463  0.8304
 3495TIP3    H232121   4.924   0.197   2.002  0.2455  0.3620  0.2308
 3496TIP3   OH232122   0.263   3.816   1.259 -0.8141 -0.0268 -0.5404
 3496TIP3    H132123   0.277   3.910   1.245 -0.9213 -0.0165 -0.5837
 3496TIP3    H232124   0.261   3.779   1.170 -0.9050 -0.0497 -0.5289
 3497TIP3   OH232125   1.257   3.627   7.223  0.0339  0.2498 -0.1254
 3497TIP3    H132126   1.198   3.606   7.151 -0.7355 -0.9886  0.8020
 3497TIP3    H232127   1.335   3.662   7.182  1.0247 -3.4871 -1.9005
 3498TIP3   OH232128   3.587   4.522   1.712  0.2603  0.6896  0.0054
 3498TIP3    H132129   3.677   4.522   1.679 -0.0193  0.2432 -0.7781
 3498TIP3    H232130   3.592   4.476   1.795  0.6860  0.2909 -0.2361
 3499TIP3   OH232131   3.369   6.275   7.749 -0.5923 -0.6601 -0.1084
 3499TIP3    H132132   3.415   6.358   7.762  0.8303 -1.1873 -1.4650
 3499TIP3    H232133   3.403   6.242   7.666 -3.5294 -1.0699 -1.2639
 3500TIP3   OH232134   4.623   2.552   2.525  0.0441  0.3978  0.1432
 3500TIP3    H132135   4.605   2.645   2.541 -0.9783  0.4409 -1.1088
 3500TIP3    H232136   4.553   2.506   2.571 -0.7438  0.3658 -1.0448
 3501TIP3   OH232137   4.256   2.710   8.590  0.2463  0.4258 -0.1129
 3501TIP3    H132138   4.186   2.759   8.546 -0.0749 -1.1002 -1.3465
 3501TIP3    H232139   4.333   2.724   8.535  0.2484 -0.1188 -0.2510
 3502TIP3   OH232140   1.699   5.148   8.652  0.4951 -0.5209  0.2385
 3502TIP3    H132141   1.765   5.081   8.670  0.2977 -0.5527  0.8665
 3502TIP3    H232142   1.741   5.230   8.678  0.4827 -0.4785  0.1265
 3503TIP3   OH232143   4.995   2.137   1.034 -0.4802  0.0926 -0.7365
 3503TIP3    H132144   4.966   2.098   0.951 -1.7547 -0.3842 -0.0865
 3503TIP3    H232145   5.046   2.067   1.076 -2.0481 -0.6245  0.0439
 3504TIP3   OH232146   4.821   4.805   7.919  0.7044 -0.0231 -0.3050
 3504TIP3    H132147   4.861   4.881   7.877  0.7624  0.8569  1.2736
 3504TIP3    H232148   4.779   4.757   7.847  0.2516  1.7535 -1.2801
 3505TIP3   OH232149   2.871   2.916   6.760  0.0872 -0.4426 -0.2537
 3505TIP3    H132150   2.838   2.960   6.839  0.4383  1.3033 -1.0292
 3505TIP3    H232151   2.862   2.982   6.691  1.4830 -1.2964 -1.2999
 3506TIP3   OH232152   0.689   2.666   8.627 -0.1896 -0.1082  0.4042
 3506TIP3    H132153   0.716   2.733   8.689  2.7593 -0.2548 -0.5241
 3506TIP3    H232154   0.651   2.714   8.554  2.4234  0.7689 -0.5137
 3507TIP3   OH232155   2.621   3.550   8.498  0.3521 -0.1013  0.4702
 3507TIP3    H132156   2.650   3.583   8.413 -0.9803  0.0912  0.0683
 3507TIP3    H232157   2.688   3.487   8.524  2.0270  1.5913  0.4197
 3508TIP3   OH232158   6.387   6.184   0.072 -0.1819  0.2704  0.1653
 3508TIP3    H132159   6.413   6.240  -0.001 -0.0283 -2.9528 -2.4689
 3508TIP3    H232160   6.383   6.096   0.035 -0.4820 -1.5354  3.9943
 3509TIP3   OH232161   0.150   3.507   7.612  0.4850 -0.1761 -0.3676
 3509TIP3    H132162   0.097   3.565   7.667 -0.1436 -1.2762  0.2432
 3509TIP3    H232163   0.235   3.549   7.606  0.2830  0.4200  0.7075
 3510TIP3   OH232164   3.142   1.033   8.273 -0.0096  0.1635  0.0534
 3510TIP3    H132165   3.092   0.958   8.240 -0.1657  0.7444 -1.0724
 3510TIP3    H232166   3.084   1.108   8.262  0.0012  0.4136  1.5408
 3511TIP3   OH232167   6.273   1.349   8.273 -0.0907  0.0552 -0.2376
 3511TIP3    H132168   6.365   1.325   8.266  0.9312  3.3168  0.3082
 3511TIP3    H232169   6.260   1.415   8.205 -1.6385  0.6253  0.5589
 3512TIP3   OH232170   3.090   1.295   1.436  0.0825 -0.1848 -0.3827
 3512TIP3    H132171   3.095   1.228   1.368  0.3097 -0.6919  0.1265
 3512TIP3    H232172   3.056   1.372   1.391  0.7397 -0.3544 -1.1895
 3513TIP3   OH232173   6.340   0.432   8.584  0.2590  0.0136  0.3242
 3513TIP3    H132174   6.261   0.378   8.578  0.1939  0.3030 -2.8212
 3513TIP3    H232175   6.406   0.383   8.536  0.8700  1.5876 -0.5138
 3514TIP3   OH232176   4.015   1.420   8.084 -0.7137 -0.1227  0.3882
 3514TIP3    H132177   4.057   1.386   8.005  0.0356 -0.5582  0.9706
 3514TIP3    H232178   4.087   1.437   8.145 -1.3904 -1.2178  1.5388
 3515TIP3   OH232179   2.283   1.082   8.690 -0.5198 -0.6753  0.4155
 3515TIP3    H132180   2.193   1.112   8.702 -0.4409  0.4632 -1.4230
 3515TIP3    H232181   2.323   1.091   8.776 -1.6977  0.5162  0.8811
 3516TIP3   OH232182   2.957   0.072   1.092  0.2102 -1.3372  0.2333
 3516TIP3    H132183   3.021   0.086   1.022  2.0519 -0.5479  1.9805
 3516TIP3    H232184   2.902   0.151   1.089  1.1609 -0.6378  0.5137
 3517TIP3   OH232185   5.376   0.154   8.054  0.6192 -0.1883 -0.0602
 3517TIP3    H132186   5.396   0.095   7.981  1.4778 -0.6726  0.5595
 3517TIP3    H232187   5.291   0.192   8.030  1.5377  0.7872 -2.0318
 3518TIP3   OH232188   0.910   1.908   0.050 -0.0788  0.3026 -0.5571
 3518TIP3    H132189   0.833   1.965   0.062  0.2956  1.0698 -1.6196
 3518TIP3    H232190   0.894   1.865  -0.034 -0.7327 -1.8180  0.5972
 3519TIP3   OH232191   5.225   2.618   1.829  0.1446  0.2017 -0.3041
 3519TIP3    H132192   5.255   2.659   1.749  0.5444  1.5985  0.5265
 3519TIP3    H232193   5.130   2.632   1.829 -0.0403 -0.8976 -1.1020
 3520TIP3   OH232194   6.508   4.565   8.456  0.4196  0.1886 -0.2789
 3520TIP3    H132195   6.528   4.492   8.396 -0.6024  1.6089 -2.4904
 3520TIP3    H232196   6.590   4.612   8.466  0.6090 -0.0876 -0.5158
 3521TIP3   OH232197   2.844   5.082   0.678 -0.5101  0.2661 -0.2050
 3521TIP3    H132198   2.807   5.169   0.668  0.7008  0.8075 -0.1510
 3521TIP3    H232199   2.850   5.048   0.588 -3.2872 -0.8041 -0.0726
 3522TIP3   OH232200   5.637   0.053   1.150  0.0742  0.1957  0.0446
 3522TIP3    H132201   5.724   0.066   1.189  0.3055 -0.8627 -0.0659
 3522TIP3    H232202   5.586   0.012   1.220 -0.1423  0.2249 -0.0967
 3523TIP3   OH232203   2.791   1.233   1.505 -0.3617  0.2298  0.9772
 3523TIP3    H132204   2.824   1.314   1.466 -0.8710  0.4623  1.0258
 3523TIP3    H232205   2.868   1.195   1.548  0.3341 -0.2733 -0.6150
 3524TIP3   OH232206   2.008   4.609   7.800  0.9079 -0.2934 -0.0354
 3524TIP3    H132207   1.970   4.678   7.854  0.4698  0.2107 -0.9800
 3524TIP3    H232208   2.061   4.558   7.862  0.5705  0.3799  0.8353
 3525TIP3   OH232209   4.946   5.167   6.979  0.4309  0.7060  0.3947
 3525TIP3    H132210   4.855   5.141   6.990 -0.0036  1.4098 -1.1695
 3525TIP3    H232211   4.943   5.237   6.913  2.1375  0.3411 -0.1298
 3526TIP3   OH232212   1.676   6.626   7.289  0.1013 -0.1857  0.6135
 3526TIP3    H132213   1.653   6.719   7.280  0.4461 -0.2295 -1.1570
 3526TIP3    H232214   1.772   6.625   7.287  0.1685 -0.4643  2.4056
 3527TIP3   OH232215   5.060   2.203   1.439 -0.0845 -0.1813 -0.7841
 3527TIP3    H132216   4.978   2.228   1.396  0.3069  0.1206 -1.3655
 3527TIP3    H232217   5.105   2.286   1.453 -0.4354 -0.2162  0.7140
 3528TIP3   OH232218   4.066   3.538   1.204  0.2613  0.0861  0.1512
 3528TIP3    H132219   4.152   3.504   1.224 -0.0280 -0.2150  0.8947
 3528TIP3    H232220   4.066   3.627   1.240  0.5535  0.4137 -0.6218
 3529TIP3   OH232221   5.079   2.854   1.456  0.2952 -0.2325 -0.2073
 3529TIP3    H132222   5.006   2.867   1.516  0.1609 -0.6817 -0.2683
 3529TIP3    H232223   5.053   2.778   1.403 -0.2210  0.9984 -1.7857
 3530TIP3   OH232224   5.832   2.635   0.117  0.7439  0.4011  0.1484
 3530TIP3    H132225   5.801   2.715   0.159 -0.3662  1.1607 -1.9662
 3530TIP3    H232226   5.774   2.567   0.149 -1.6377  1.3620 -1.7497
 3531TIP3   OH232227   0.072   5.621   1.415  0.1702  0.8589 -0.0321
 3531TIP3    H132228  -0.019   5.622   1.385 -0.0105 -0.0978  0.4360
 3531TIP3    H232229   0.080   5.697   1.473 -0.3107  0.9848 -0.1313
 3532TIP3   OH232230   3.687   5.708   6.770  0.3494  0.6144  0.7109
 3532TIP3    H132231   3.649   5.627   6.803 -2.0091  1.2928 -0.1334
 3532TIP3    H232232   3.782   5.693   6.772 -0.0114 -2.7173 -0.8097
 3533TIP3   OH232233   4.686   6.627   1.096 -0.4582  0.2531  0.4760
 3533TIP3    H132234   4.610   6.672   1.059 -0.3915  0.0282  0.0543
 3533TIP3    H232235   4.648   6.564   1.157 -0.5695  0.6373  0.8066
 3534TIP3   OH232236   3.283   4.091   2.035  0.0762 -0.2437 -0.5114
 3534TIP3    H132237   3.366   4.061   2.072  0.3204  0.2921 -0.6164
 3534TIP3    H232238   3.251   4.156   2.098  0.2624  0.3275 -0.9909
 3535TIP3   OH232239   2.570   5.672   7.320  0.4202 -0.2410  0.4678
 3535TIP3    H132240   2.551   5.641   7.231 -0.3370  0.6079  0.3154
 3535TIP3    H232241   2.576   5.768   7.310  2.0713 -0.2536  1.0230
 3536TIP3   OH232242   3.837   4.012   1.981  0.3196  0.0374 -0.0830
 3536TIP3    H132243   3.920   4.037   2.021  0.6672 -1.3984  0.1743
 3536TIP3    H232244   3.782   3.984   2.055  0.0365 -0.1429 -0.3567
 3537TIP3   OH232245   3.075   5.169   2.275 -0.0196 -0.0838  0.0742
 3537TIP3    H132246   3.098   5.261   2.287 -2.0041  0.2814  1.6578
 3537TIP3    H232247   3.109   5.124   2.352 -1.9183 -0.0187  1.0233
 3538TIP3   OH232248   4.526   5.856   7.488  0.3272 -0.4558  0.5555
 3538TIP3    H132249   4.468   5.916   7.536  1.7617  0.8299  0.7514
 3538TIP3    H232250   4.613   5.893   7.499  0.9869 -1.3893 -1.1852
 3539TIP3   OH232251   2.292   2.211   6.736  0.1937 -0.2382 -0.2509
 3539TIP3    H132252   2.387   2.223   6.745  0.0582 -0.2379  1.3498
 3539TIP3    H232253   2.258   2.299   6.722  0.0205  0.4891  3.6657
 3540TIP3   OH232254   6.710   4.947   0.200 -0.1247 -0.5351  0.3279
 3540TIP3    H132255   6.669   4.867   0.234  2.1098 -1.0779  1.9476
 3540TIP3    H232256   6.774   4.916   0.136 -0.6796  0.1515 -0.5923
 3541TIP3   OH232257   6.084   3.491   0.676 -0.3029  0.4526  0.1450
 3541TIP3    H132258   6.066   3.583   0.695  0.0714  0.8657 -1.3886
 3541TIP3    H232259   6.040   3.475   0.593  1.5296 -0.1230 -0.7567
 3542TIP3   OH232260   3.243   5.501   1.330  0.0989 -0.1585  0.4794
 3542TIP3    H132261   3.189   5.561   1.382  0.8136  1.1433 -0.2305
 3542TIP3    H232262   3.324   5.549   1.314  2.1200 -2.5771  2.6700
 3543TIP3   OH232263   5.777   1.117   6.330 -0.1306 -0.0121  0.1469
 3543TIP3    H132264   5.724   1.134   6.408  0.2959 -0.1778  0.4776
 3543TIP3    H232265   5.774   1.022   6.319 -1.1157  0.0993 -0.7069
 3544TIP3   OH232266   2.375   5.263   7.241  0.4390  0.3539  0.1397
 3544TIP3    H132267   2.290   5.301   7.220  0.3736  0.2921  0.2943
 3544TIP3    H232268   2.420   5.258   7.157  1.1751  2.5012  0.3403
 3545TIP3   OH232269   2.356   1.488   1.258 -0.5325 -0.5632 -0.4459
 3545TIP3    H132270   2.364   1.401   1.219  0.1064 -0.7050 -0.0105
 3545TIP3    H232271   2.419   1.488   1.330  0.4455  0.7022 -1.2517
 3546TIP3   OH232272   6.608   6.715   0.773 -0.2972  0.3921 -0.0205
 3546TIP3    H132273   6.519   6.739   0.800 -0.0517  1.2241  0.0855
 3546TIP3    H232274   6.609   6.729   0.679 -0.8519 -1.5368 -0.3550
 3547TIP3   OH232275   5.590   0.357   1.413 -0.0472 -0.5088  0.0787
 3547TIP3    H132276   5.553   0.445   1.406  2.8354  0.9365  1.3698
 3547TIP3    H232277   5.583   0.335   1.506 -0.8078 -1.7431 -0.2398
 3548TIP3   OH232278   0.439   5.149   0.895  0.4689  0.2501  0.4284
 3548TIP3    H132279   0.469   5.204   0.968 -1.4685  0.6240  0.9915
 3548TIP3    H232280   0.416   5.211   0.826  2.7664 -0.1200 -0.7757
 3549TIP3   OH232281   5.379   2.311   2.231  0.1894  0.1911  0.1216
 3549TIP3    H132282   5.315   2.300   2.302  1.8485  3.6379  2.4310
 3549TIP3    H232283   5.384   2.406   2.218  1.3563 -0.2092 -3.4153
 3550TIP3   OH232284   1.614   0.770   8.601 -0.1411 -0.1020  0.0270
 3550TIP3    H132285   1.668   0.763   8.680  1.5800  1.1598 -0.9778
 3550TIP3    H232286   1.604   0.680   8.571  0.2022 -0.4844  1.0096
 3551TIP3   OH232287   5.097   5.115   0.297 -0.3233  0.0795  0.7373
 3551TIP3    H132288   5.187   5.095   0.322 -0.5288  0.0422  1.4561
 3551TIP3    H232289   5.064   5.171   0.367 -0.4731  1.1273 -0.1440
 3552TIP3   OH232290   6.134   0.258   1.348  0.0195  0.8465 -0.4087
 3552TIP3    H132291   6.179   0.339   1.374  0.8434 -0.2071  1.6877
 3552TIP3    H232292   6.058   0.254   1.405  0.4670 -0.2678  0.1410
 3553TIP3   OH232293   5.565   6.201   8.360 -0.1539 -0.5962 -0.1888
 3553TIP3    H132294   5.540   6.137   8.428 -1.7954 -1.2087 -1.3087
 3553TIP3    H232295   5.660   6.203   8.363 -0.1332  0.6415  3.2620
 3554TIP3   OH232296   6.760   5.752   8.588  0.1968 -0.1931 -0.2766
 3554TIP3    H132297   6.787   5.760   8.679  0.1536 -1.5582 -0.1133
 3554TIP3    H232298   6.811   5.678   8.554 -1.9870 -1.7406 -0.4456
 3555TIP3   OH232299   3.300   4.850   6.550  0.7795 -0.2477  0.2401
 3555TIP3    H132300   3.360   4.776   6.563  0.2365 -0.9509 -1.0050
 3555TIP3    H232301   3.287   4.853   6.455 -0.4211  0.4695  0.4125
 3556TIP3   OH232302   2.565   2.674   0.546 -0.4712  0.0043  0.4695
 3556TIP3    H132303   2.612   2.690   0.463 -0.0957 -1.0531  0.4668
 3556TIP3    H232304   2.515   2.754   0.560  0.7913  0.8988  0.1032
 3557TIP3   OH232305   4.323   6.722   1.315  0.5759 -0.0771 -0.0485
 3557TIP3    H132306   4.411   6.727   1.351  0.1448 -2.5980  1.6256
 3557TIP3    H232307   4.336   6.707   1.222  1.8383  1.3327 -0.1434
 3558TIP3   OH232308   4.475   5.342   1.612 -0.3328  0.3363  0.2513
 3558TIP3    H132309   4.492   5.407   1.680 -0.4633  3.2558 -2.2682
 3558TIP3    H232310   4.562   5.310   1.587 -0.1249  0.7755  0.4151
 3559TIP3   OH232311   5.215   1.614   7.010  0.0443  0.2620  0.0150
 3559TIP3    H132312   5.234   1.620   6.916  0.8926 -0.8826  0.1008
 3559TIP3    H232313   5.291   1.653   7.052 -0.0126  0.1170  0.2508
 3560TIP3   OH232314   5.655   5.678   7.112  0.4644 -0.3510  0.0630
 3560TIP3    H132315   5.665   5.583   7.101  0.3669 -0.4379  0.6810
 3560TIP3    H232316   5.585   5.703   7.053  0.9722 -0.5492 -0.6324
 3561TIP3   OH232317   5.661   0.837   0.040  0.0056  0.0513 -0.2428
 3561TIP3    H132318   5.671   0.761  -0.017 -0.3351 -0.1087 -0.0911
 3561TIP3    H232319   5.624   0.905  -0.016  0.3213  0.1136 -0.3809
 3562TIP3   OH232320   4.281   0.253   8.406  0.0463  0.3876  0.1009
 3562TIP3    H132321   4.369   0.257   8.367  0.1731  0.2637  0.3716
 3562TIP3    H232322   4.255   0.345   8.413  0.0500  0.4155 -0.2104
 3563TIP3   OH232323   1.875   5.985   6.935 -0.6471  0.1521 -0.1133
 3563TIP3    H132324   1.810   6.055   6.937  0.7785  1.5983 -1.0614
 3563TIP3    H232325   1.855   5.936   6.855 -0.0072  1.2219 -0.9600
 3564TIP3   OH232326   0.770   2.195   1.875  0.0053 -0.0915  0.5202
 3564TIP3    H132327   0.781   2.105   1.906  0.6650 -0.1933  0.0094
 3564TIP3    H232328   0.765   2.247   1.955  1.1533 -0.4125  0.8200
 3565TIP3   OH232329   0.688   4.144   2.205  0.0116  0.4760  0.3709
 3565TIP3    H132330   0.644   4.061   2.184  1.6405 -0.2769 -0.3233
 3565TIP3    H232331   0.633   4.185   2.271 -1.7757 -0.3177 -0.5680
 3566TIP3   OH232332   3.455   6.122   7.533 -0.0460 -0.3584 -0.0898
 3566TIP3    H132333   3.519   6.051   7.522 -3.2959 -3.8748  1.3660
 3566TIP3    H232334   3.391   6.108   7.463 -0.8497  1.0779  0.3240
 3567TIP3   OH232335   3.821   2.832   7.361  0.0917  0.4349 -0.2804
 3567TIP3    H132336   3.784   2.916   7.334  1.8191  1.8400  1.3144
 3567TIP3    H232337   3.801   2.826   7.454  1.1331 -0.2414 -0.0738
 3568TIP3   OH232338   1.311   3.239   6.409 -0.5485 -0.4462 -0.1838
 3568TIP3    H132339   1.363   3.304   6.361 -1.7701 -0.7762 -2.0571
 3568TIP3    H232340   1.245   3.210   6.346 -1.5994 -1.6808  1.4087
 3569TIP3   OH232341   5.103   5.144   2.481  0.3271 -0.8849  0.1875
 3569TIP3    H132342   5.082   5.094   2.560  0.4344  0.7822  1.3436
 3569TIP3    H232343   5.131   5.079   2.417 -1.3900 -2.4540  0.9555
 3570TIP3   OH232344   6.704   0.979   8.436 -0.0216 -0.1830  0.0425
 3570TIP3    H132345   6.701   0.921   8.513 -2.5178 -1.8269 -1.1818
 3570TIP3    H232346   6.769   0.938   8.379  0.1967 -0.2365  0.3266
 3571TIP3   OH232347   1.571   1.568   1.287 -0.1252 -0.2078  0.1781
 3571TIP3    H132348   1.619   1.486   1.302  1.9391  1.0457  0.9611
 3571TIP3    H232349   1.623   1.634   1.333 -1.0987  1.7344 -1.3822
 3572TIP3   OH232350   6.108   2.454   6.700 -0.2907 -0.5899 -0.2882
 3572TIP3    H132351   6.191   2.407   6.707  0.6264  0.8347 -0.9249
 3572TIP3    H232352   6.112   2.496   6.614  0.0915  2.6008  1.1550
 3573TIP3   OH232353   5.574   0.530   0.719 -0.4166  0.1048 -0.3782
 3573TIP3    H132354   5.491   0.502   0.681 -0.2863 -0.8718  0.0029
 3573TIP3    H232355   5.601   0.456   0.774  0.4710  0.5949 -0.1247
 3574TIP3   OH232356   2.484   1.161   7.982  0.1172  0.0966  0.0254
 3574TIP3    H132357   2.489   1.169   8.078 -0.1685 -3.1933  0.4631
 3574TIP3    H232358   2.403   1.205   7.958  0.2936  1.1500  1.2416
 3575TIP3   OH232359   2.687   3.487   7.127 -0.1049  0.0563  0.0565
 3575TIP3    H132360   2.628   3.504   7.200  0.2046  0.8294  0.1434
 3575TIP3    H232361   2.672   3.396   7.103 -0.6630 -0.0145  0.6737
 3576TIP3   OH232362   6.196   2.320   7.743 -0.2998 -0.2780  0.5967
 3576TIP3    H132363   6.115   2.271   7.760  0.0826 -0.9927  0.4014
 3576TIP3    H232364   6.239   2.271   7.673 -0.5751  1.1248 -0.6182
 3577TIP3   OH232365   5.084   4.743   0.385  0.2137 -0.1775  0.0077
 3577TIP3    H132366   5.002   4.770   0.343  0.3762  2.3906  1.1565
 3577TIP3    H232367   5.061   4.733   0.478  0.9245 -0.8966  0.1233
 3578TIP3   OH232368   3.156   5.899   1.543 -0.2091  0.4215  0.4406
 3578TIP3    H132369   3.248   5.926   1.539  0.2809 -0.8773  1.7389
 3578TIP3    H232370   3.121   5.943   1.621  0.4985 -2.1503  2.3542
 3579TIP3   OH232371   6.091   2.403   8.021 -0.3202  0.0542 -0.4519
 3579TIP3    H132372   6.113   2.314   8.048 -0.9754  0.1197  0.3350
 3579TIP3    H232373   6.026   2.392   7.952 -1.3403 -0.0642  0.5182
 3580TIP3   OH232374   2.480   2.005   1.390  0.1364 -0.1022  0.0027
 3580TIP3    H132375   2.432   1.996   1.472 -0.8458 -0.2991 -0.5749
 3580TIP3    H232376   2.458   1.925   1.341  0.1528  0.3424 -0.7354
 3581TIP3   OH232377   2.863   6.271   1.378 -0.5956 -0.2000 -0.1155
 3581TIP3    H132378   2.772   6.240   1.371 -0.8456  0.4356  0.2146
 3581TIP3    H232379   2.916   6.196   1.350 -1.2361 -0.4446 -0.7121
 3582TIP3   OH232380   1.883   6.416   0.334 -0.2577 -0.0463 -0.0152
 3582TIP3    H132381   1.808   6.465   0.367 -1.2557 -0.3225 -1.7417
 3582TIP3    H232382   1.948   6.482   0.312 -1.6813  0.6050 -2.5482
 3583TIP3   OH232383   5.160   5.493   0.891  0.1988 -0.1402  0.3575
 3583TIP3    H132384   5.145   5.423   0.955  0.0617  0.3739  0.8979
 3583TIP3    H232385   5.080   5.545   0.893  0.0068 -0.3709 -0.5739
 3584TIP3   OH232386   3.199   5.861   8.603  0.9684 -0.3271  0.2951
 3584TIP3    H132387   3.208   5.820   8.518 -0.7031 -1.5286  0.6352
 3584TIP3    H232388   3.111   5.835   8.633  1.1641  0.7798  1.9902
 3585TIP3   OH232389   4.970   2.276   8.499  0.2897 -0.1923  0.2545
 3585TIP3    H132390   4.902   2.306   8.559  0.4763  0.1921  0.2790
 3585TIP3    H232391   4.967   2.338   8.426  0.4394 -0.3265  0.1333
 3586TIP3   OH232392   5.196   1.134   8.332  0.3151  0.2714 -0.0019
 3586TIP3    H132393   5.159   1.197   8.270  1.8778 -0.8189 -2.1905
 3586TIP3    H232394   5.120   1.094   8.374 -0.8124  1.2223 -1.0470
 3587TIP3   OH232395   0.242   6.469   7.200  0.0518 -0.1992 -0.3425
 3587TIP3    H132396   0.279   6.389   7.236  2.0780  1.3003  1.1790
 3587TIP3    H232397   0.285   6.480   7.115  3.5023  1.5412  1.4130
 3588TIP3   OH232398   2.791   4.130   0.357  0.3466  0.0125  0.4157
 3588TIP3    H132399   2.719   4.179   0.398 -0.6087  0.1795 -1.3563
 3588TIP3    H232400   2.779   4.040   0.388 -0.2991  0.1487  0.5776
 3589TIP3   OH232401   3.539   4.748   8.450 -0.2660 -0.2393 -0.4054
 3589TIP3    H132402   3.503   4.725   8.364 -0.1159  3.8702 -1.7683
 3589TIP3    H232403   3.614   4.690   8.461 -1.3495 -2.1136 -2.1593
 3590TIP3   OH232404   4.981   1.755   1.015  0.4435  0.6352  0.4933
 3590TIP3    H132405   5.040   1.681   1.000  2.0180  1.9524 -0.1220
 3590TIP3    H232406   4.989   1.774   1.109  1.0984  0.8462  0.4051
 3591TIP3   OH232407   3.718   3.089   7.266  0.1144 -0.4865  0.4485
 3591TIP3    H132408   3.709   3.037   7.186 -1.5445  1.1516 -0.5021
 3591TIP3    H232409   3.802   3.133   7.256  0.0900 -0.5773 -0.2236
 3592TIP3   OH232410   1.553   1.166   0.538 -0.4186 -0.1716  0.0474
 3592TIP3    H132411   1.476   1.217   0.516 -0.7179 -0.7891 -0.3615
 3592TIP3    H232412   1.587   1.207   0.618 -0.6964  0.5996 -0.2220
 3593TIP3   OH232413   2.194   2.009   6.130 -0.1319 -0.0665  0.5972
 3593TIP3    H132414   2.240   1.969   6.204  1.4515  0.8688  0.1732
 3593TIP3    H232415   2.101   1.993   6.148  0.3317 -3.6996  0.5652
 3594TIP3   OH232416   0.381   4.174   7.952 -0.5297 -0.2242  0.0680
 3594TIP3    H132417   0.343   4.251   7.911  0.5308  0.1882 -0.1732
 3594TIP3    H232418   0.394   4.199   8.044 -0.7614 -0.3348  0.1313
 3595TIP3   OH232419   1.478   1.951   1.524 -1.1923  0.0593  0.0468
 3595TIP3    H132420   1.483   2.038   1.485 -1.0671 -0.9756 -2.4106
 3595TIP3    H232421   1.397   1.952   1.575 -0.8293  1.8169  0.6360
 3596TIP3   OH232422   2.387   1.763   7.424  0.4531  0.1311 -0.4483
 3596TIP3    H132423   2.476   1.797   7.437  1.4796 -2.3203 -0.4887
 3596TIP3    H232424   2.339   1.791   7.502  1.2176  1.5546 -0.4537
 3597TIP3   OH232425   0.806   3.958   0.304 -0.6253  0.4693  0.0175
 3597TIP3    H132426   0.798   3.935   0.397 -0.1107 -1.0104 -0.2743
 3597TIP3    H232427   0.889   3.918   0.277 -1.2769 -0.0178 -1.3347
 3598TIP3   OH232428   0.382   2.553   7.267  0.4860 -0.4247  0.5042
 3598TIP3    H132429   0.383   2.488   7.197  0.6871  0.2928 -0.1795
 3598TIP3    H232430   0.465   2.599   7.258 -0.0999  0.6292  0.2777
 3599TIP3   OH232431   0.141   5.656   0.900 -0.5405  0.3053  0.1985
 3599TIP3    H132432   0.201   5.599   0.851 -2.1906 -0.5662 -0.8946
 3599TIP3    H232433   0.185   5.671   0.983  1.4388  0.1506 -0.7521
 3600TIP3   OH232434   6.216   3.998   2.225 -0.0537  0.5542 -0.6238
 3600TIP3    H132435   6.186   4.043   2.146  0.4285 -0.2905 -1.3032
 3600TIP3    H232436   6.137   3.987   2.278 -0.0028  3.4605  0.2684
 3601TIP3   OH232437   0.132   4.847   1.147  0.0643  0.2136  0.2427
 3601TIP3    H132438   0.045   4.809   1.159  0.8594 -1.3792  1.4567
 3601TIP3    H232439   0.159   4.873   1.236  0.0103  2.6902 -0.4002
 3602TIP3   OH232440   5.333   0.838   8.125  0.3853  0.2857  0.1753
 3602TIP3    H132441   5.371   0.912   8.077  3.3432  0.1102  1.9556
 3602TIP3    H232442   5.379   0.761   8.091 -1.3966 -0.5669 -0.4221
 3603TIP3   OH232443   5.478   4.722   0.456  0.2572 -0.0570 -1.0378
 3603TIP3    H132444   5.543   4.785   0.485  1.1311 -0.9046 -1.0939
 3603TIP3    H232445   5.428   4.767   0.388  0.8466  0.5698 -1.0620
 3604TIP3   OH232446   5.408   3.805   1.958  0.2953  0.2231 -0.1163
 3604TIP3    H132447   5.468   3.773   2.026 -0.4017  1.3915  1.1098
 3604TIP3    H232448   5.437   3.762   1.878  1.2215 -1.1307  0.8937
 3605TIP3   OH232449   2.020   1.932   6.822  0.2252  0.0234  0.5356
 3605TIP3    H132450   2.004   1.946   6.729 -0.3447  0.7354  0.7282
 3605TIP3    H232451   1.941   1.887   6.854  0.6601 -0.7326  0.5686
 3606TIP3   OH232452   2.490   5.536   8.665 -0.2119  0.1394 -0.2031
 3606TIP3    H132453   2.518   5.578   8.746 -1.1317  2.7984 -1.1636
 3606TIP3    H232454   2.553   5.565   8.600 -0.7494 -0.1458 -0.8630
 3607TIP3   OH232455   6.796   2.938   1.417 -0.0532  0.3182  0.6073
 3607TIP3    H132456   6.882   2.927   1.376 -0.2815  0.6473  0.0154
 3607TIP3    H232457   6.807   2.905   1.506  0.6904  0.3697  0.5437
 3608TIP3   OH232458   3.140   5.781   6.758  0.9951 -0.5862  0.2875
 3608TIP3    H132459   3.226   5.745   6.782  2.0663  2.2219  0.9770
 3608TIP3    H232460   3.153   5.875   6.754 -2.1938 -0.0104  0.8285
 3609TIP3   OH232461   1.376   0.447   0.248 -0.3460 -0.2368  0.1502
 3609TIP3    H132462   1.390   0.540   0.265  1.8788 -0.5701  0.3759
 3609TIP3    H232463   1.385   0.405   0.334 -0.7033 -0.7380 -0.0494
 3610TIP3   OH232464   4.451   3.594   7.589 -0.6338 -0.7794  0.5598
 3610TIP3    H132465   4.364   3.596   7.550 -0.7119  0.4820  0.7660
 3610TIP3    H232466   4.440   3.634   7.675  0.1810 -0.4359  0.5184
 3611TIP3   OH232467   3.621   4.575   1.206 -0.1507 -0.2311  0.7628
 3611TIP3    H132468   3.530   4.571   1.235 -0.0082  0.5274  1.3660
 3611TIP3    H232469   3.657   4.650   1.254  0.3269  0.5634 -0.7747
 3612TIP3   OH232470   4.461   3.257   8.485 -0.0173 -0.0374 -0.0655
 3612TIP3    H132471   4.513   3.335   8.469 -0.5104  0.4338  0.5838
 3612TIP3    H232472   4.461   3.210   8.401  1.1472  0.1239 -0.1612
 3613TIP3   OH232473   3.231   2.894   0.541 -1.0480 -0.5457 -0.1655
 3613TIP3    H132474   3.136   2.878   0.546 -1.3609  0.9203 -0.9977
 3613TIP3    H232475   3.259   2.901   0.632 -1.7497 -0.8844  0.0872
 3614TIP3   OH232476   5.259   0.441   8.800  0.3089  0.1638 -0.0205
 3614TIP3    H132477   5.205   0.408   8.728 -0.4944 -0.7024  0.9522
 3614TIP3    H232478   5.210   0.420   8.879  0.4056  2.5346  0.7400
 3615TIP3   OH232479   0.482   4.273   7.702  0.6800 -0.5284 -0.5787
 3615TIP3    H132480   0.512   4.349   7.751  0.4222 -1.5134  1.2071
 3615TIP3    H232481   0.549   4.206   7.719 -0.3501 -1.4526  0.0025
 3616TIP3   OH232482   6.266   2.026   7.834  0.3376 -0.0864  0.3304
 3616TIP3    H132483   6.312   2.040   7.751  0.5922  1.4552  0.7167
 3616TIP3    H232484   6.334   2.032   7.901  0.2817 -2.1699  0.6357
 3617TIP3   OH232485   5.822   3.555   1.305 -0.5525  0.1844  0.0607
 3617TIP3    H132486   5.808   3.461   1.320 -1.3052  0.5087  1.5736
 3617TIP3    H232487   5.734   3.590   1.291 -0.2858  0.6901 -0.3762
 3618TIP3   OH232488   2.343   5.293   1.481 -0.6656 -0.2664  0.7919
 3618TIP3    H132489   2.343   5.289   1.386  3.1626 -2.3776  0.6575
 3618TIP3    H232490   2.365   5.384   1.502 -0.9806  0.0849 -0.3613
 3619TIP3   OH232491   2.830   0.360   1.403  0.0106 -0.0051  0.2056
 3619TIP3    H132492   2.808   0.453   1.401  1.1911  0.2886 -0.2898
 3619TIP3    H232493   2.900   0.353   1.468  0.2785 -0.4508 -0.1225
 3620TIP3   OH232494   3.253   3.042   7.920 -0.1064  0.2992  0.2446
 3620TIP3    H132495   3.187   3.077   7.981 -1.2529 -1.4776  0.1108
 3620TIP3    H232496   3.209   2.967   7.879  1.9222 -0.7761 -0.0684
 3621TIP3   OH232497   3.149   3.662   1.327 -0.7322  0.4459  0.4963
 3621TIP3    H132498   3.169   3.618   1.245  0.5634  1.4496  0.2519
 3621TIP3    H232499   3.234   3.685   1.364 -1.3508  2.1202  0.9520
 3622TIP3   OH232500   2.288   1.370   8.062 -0.4969  0.0857  0.7108
 3622TIP3    H132501   2.199   1.345   8.036  0.4378 -2.1919 -0.6048
 3622TIP3    H232502   2.326   1.410   7.983  0.2526 -0.7805  0.6164
 3623TIP3   OH232503   2.013   0.692   8.510 -0.1048  0.2786 -0.3301
 3623TIP3    H132504   2.049   0.670   8.596  1.3976 -1.3145 -1.3111
 3623TIP3    H232505   1.969   0.611   8.481 -0.9525  0.9275 -0.9066
 3624TIP3   OH232506   2.119   2.416   0.206 -0.5201  0.1090 -0.5903
 3624TIP3    H132507   2.059   2.485   0.177 -2.0205 -0.7205  0.4068
 3624TIP3    H232508   2.122   2.425   0.301  0.9283  0.0977 -0.6166
 3625TIP3   OH232509   0.736   4.824   1.216 -0.4339 -0.5166  0.2332
 3625TIP3    H132510   0.738   4.731   1.195 -0.1939 -0.0713 -1.9538
 3625TIP3    H232511   0.645   4.841   1.239 -1.0184 -0.8993 -1.6040
 3626TIP3   OH232512   3.301   0.058   1.718  0.0073 -0.1412  0.1973
 3626TIP3    H132513   3.319   0.148   1.691  1.5034 -0.4310  0.1842
 3626TIP3    H232514   3.235   0.067   1.787  0.7064  1.0177  0.7434
 3627TIP3   OH232515   5.826   1.938   8.345  0.3722 -0.3678 -0.1581
 3627TIP3    H132516   5.816   1.844   8.360 -0.9026 -0.1524  0.4730
 3627TIP3    H232517   5.736   1.971   8.335  0.7191  0.9641  0.8202
 3628TIP3   OH232518   2.071   1.422   6.261 -0.1724  0.2231  0.9567
 3628TIP3    H132519   2.025   1.397   6.181 -0.5185 -0.6932  1.4202
 3628TIP3    H232520   2.102   1.511   6.245 -2.6830  1.1611  0.8433
 3629TIP3   OH232521   5.628   0.702   6.912  0.0428 -0.2559  0.2737
 3629TIP3    H132522   5.609   0.609   6.900  0.3959 -0.9492  3.8513
 3629TIP3    H232523   5.544   0.746   6.899 -0.3776 -1.2025 -0.3019
 3630TIP3   OH232524   6.774   4.953   7.122  0.1784 -0.2603 -0.0690
 3630TIP3    H132525   6.722   4.955   7.202  2.2335  2.6239  1.3867
 3630TIP3    H232526   6.738   5.024   7.068  2.0111  1.3112  0.6620
 3631TIP3   OH232527   6.759   6.226   7.851  0.6783 -0.0230  0.0094
 3631TIP3    H132528   6.836   6.223   7.907  1.0024 -3.9948 -0.3373
 3631TIP3    H232529   6.783   6.172   7.775 -1.1303  1.8744 -2.0603
 3632TIP3   OH232530   3.300   4.294   0.876 -0.6172  0.4427  0.4436
 3632TIP3    H132531   3.312   4.380   0.916 -4.4242  1.3557 -0.0228
 3632TIP3    H232532   3.286   4.312   0.784  2.3436 -1.1649 -0.4589
 3633TIP3   OH232533   0.286   2.887   8.455 -0.0001  0.2931 -0.2287
 3633TIP3    H132534   0.195   2.874   8.430  0.6927 -0.6571 -2.5136
 3633TIP3    H232535   0.312   2.968   8.411  0.1452  0.8364  0.8216
 3634TIP3   OH232536   2.709   5.874   8.295 -0.8750  0.2620 -0.2771
 3634TIP3    H132537   2.786   5.819   8.283 -0.6223  0.2802  1.1329
 3634TIP3    H232538   2.716   5.940   8.226 -0.1680 -0.3267 -0.7808
 3635TIP3   OH232539   5.979   5.253   1.341  0.0973 -0.8567  0.4565
 3635TIP3    H132540   5.925   5.207   1.276  1.5052 -2.0272  0.0667
 3635TIP3    H232541   5.994   5.339   1.302 -0.8228 -0.7974  0.2072
 3636TIP3   OH232542   4.095   2.622   8.289 -0.6481 -0.1512  0.1375
 3636TIP3    H132543   4.163   2.581   8.342  0.5677 -0.5977 -1.6612
 3636TIP3    H232544   4.064   2.695   8.342  2.8944  1.5466  0.1493
 3637TIP3   OH232545   0.267   5.427   1.731 -0.1624 -0.3645  0.3989
 3637TIP3    H132546   0.310   5.374   1.664 -0.2333 -0.9081  0.7803
 3637TIP3    H232547   0.176   5.398   1.728  0.1383 -1.5565  1.8327
 3638TIP3   OH232548   5.793   6.070   7.003 -0.2533 -0.3270 -0.1141
 3638TIP3    H132549   5.747   6.092   7.084  1.3306  0.1912  0.6789
 3638TIP3    H232550   5.838   5.988   7.023 -0.7811 -0.8087 -0.8669
 3639TIP3   OH232551   2.726   0.504   1.742 -0.5898 -0.9345  0.1132
 3639TIP3    H132552   2.777   0.458   1.810 -0.8080 -0.0722  0.8740
 3639TIP3    H232553   2.740   0.451   1.663  0.0845 -1.6778  0.7019
 3640TIP3   OH232554   3.165   5.369   1.057  0.3027  0.2372 -0.2458
 3640TIP3    H132555   3.169   5.437   1.124 -0.2294 -0.8097  0.8822
 3640TIP3    H232556   3.129   5.293   1.102  1.7923 -1.1112 -1.2274
 3641TIP3   OH232557   3.043   2.778   7.008  0.5473 -0.3435 -0.3046
 3641TIP3    H132558   3.127   2.756   6.967 -0.1744 -0.8311 -1.5681
 3641TIP3    H232559   2.998   2.694   7.016 -0.4710  0.1115 -1.1493
 3642TIP3   OH232560   0.912   0.141   1.778 -0.2989 -0.2578  0.0731
 3642TIP3    H132561   0.942   0.112   1.864  2.0811  1.7043  0.0450
 3642TIP3    H232562   0.822   0.170   1.792  0.1487  0.3377  2.0282
 3643TIP3   OH232563   3.239   4.225   7.574  0.1946  0.1276  0.2484
 3643TIP3    H132564   3.168   4.163   7.555  1.2565 -1.2346  0.5008
 3643TIP3    H232565   3.317   4.169   7.584  1.3756  1.5952 -0.3747
 3644TIP3   OH232566   1.442   1.987   7.426  0.7731  1.1083 -0.4476
 3644TIP3    H132567   1.384   2.020   7.495  1.1193 -0.6952  0.7909
 3644TIP3    H232568   1.383   1.964   7.354  0.1333  0.9317  0.1198
 3645TIP3   OH232569   5.762   1.780   0.816  0.1651  0.4924 -0.3802
 3645TIP3    H132570   5.681   1.805   0.772  0.3875 -0.2375 -1.2216
 3645TIP3    H232571   5.820   1.751   0.746 -0.1918 -2.7019  0.5017
 3646TIP3   OH232572   2.840   0.437   2.311  0.0235 -0.4484 -0.0946
 3646TIP3    H132573   2.847   0.381   2.234 -1.6791 -1.2688  0.2935
 3646TIP3    H232574   2.918   0.493   2.308 -0.8862  0.9080 -3.4728
 3647TIP3   OH232575   2.944   4.138   1.209 -0.1676 -0.4297 -0.4815
 3647TIP3    H132576   2.886   4.164   1.281  0.6544  0.8328 -0.2400
 3647TIP3    H232577   2.999   4.069   1.246  0.0678  0.0220  0.0301
 3648TIP3   OH232578   5.000   6.215   8.128 -0.2284  0.0844 -0.1787
 3648TIP3    H132579   5.087   6.202   8.091 -1.0019 -0.5101 -1.8704
 3648TIP3    H232580   4.989   6.310   8.130  0.2372  0.1493 -0.4905
 3649TIP3   OH232581   6.631   1.431   8.735  0.0885 -0.1540 -0.1421
 3649TIP3    H132582   6.690   1.357   8.739  0.0030 -0.2853 -1.0171
 3649TIP3    H232583   6.684   1.507   8.760 -0.2771 -0.7166  2.6039
 3650TIP3   OH232584   0.573   4.453   7.460 -0.4452 -0.1168 -0.6302
 3650TIP3    H132585   0.517   4.393   7.508 -1.7917  1.1156 -0.5798
 3650TIP3    H232586   0.515   4.524   7.434  1.4767  2.5037  1.5656
 3651TIP3   OH232587   1.479   2.604   7.894  0.5510  0.0079  0.3768
 3651TIP3    H132588   1.521   2.683   7.861 -1.9454  1.6298  0.7813
 3651TIP3    H232589   1.502   2.536   7.830  0.6290  1.6775 -1.4841
 3652TIP3   OH232590   0.512   5.485   6.884  0.2502 -0.3455  0.1397
 3652TIP3    H132591   0.444   5.514   6.824 -2.5469  0.9670  3.5643
 3652TIP3    H232592   0.477   5.405   6.923  2.3426 -1.6073 -0.4205
 3653TIP3   OH232593   4.045   4.690   1.265 -0.2405  0.7095 -0.4540
 3653TIP3    H132594   4.079   4.754   1.202  0.2044 -0.2111 -1.1653
 3653TIP3    H232595   4.103   4.697   1.341 -1.3061  2.4617  0.2652
 3654TIP3   OH232596   6.446   2.388   6.950 -0.0892 -0.1210 -0.0602
 3654TIP3    H132597   6.389   2.437   7.009  0.4760  0.9198 -0.3454
 3654TIP3    H232598   6.398   2.385   6.867 -0.4574 -0.7391  0.1649
 3655TIP3   OH232599   1.074   0.805   1.934 -0.1056  0.4275 -0.6381
 3655TIP3    H132600   1.060   0.807   2.028  0.7635  0.7980 -0.5030
 3655TIP3    H232601   1.036   0.723   1.905  0.8577 -0.3599  0.2560
 3656TIP3   OH232602   0.068   2.201   7.141  0.7001  0.7395  0.3908
 3656TIP3    H132603   0.156   2.164   7.131  1.1070  1.9705 -0.8339
 3656TIP3    H232604   0.024   2.179   7.059  0.2849  1.2561  0.4734
 3657TIP3   OH232605   4.073   4.261   7.622 -0.2000  0.4252 -0.0162
 3657TIP3    H132606   4.022   4.248   7.702 -0.1854  1.0928  0.1102
 3657TIP3    H232607   4.162   4.277   7.652  0.0374 -0.4873 -0.2265
 3658TIP3   OH232608   3.260   5.330   0.786 -0.1966  0.0170 -0.5144
 3658TIP3    H132609   3.172   5.329   0.749 -1.0388  2.2619  1.2052
 3658TIP3    H232610   3.247   5.352   0.879  2.2150  1.4689 -0.4211
 3659TIP3   OH232611   6.623   3.407   0.133 -0.0467  0.6110  0.1799
 3659TIP3    H132612   6.530   3.417   0.155 -0.1916  0.1999 -0.2274
 3659TIP3    H232613   6.627   3.423   0.039  0.2176  0.1311  0.1041
 3660TIP3   OH232614   6.694   4.597   0.775  0.0259 -0.2999  0.1098
 3660TIP3    H132615   6.761   4.558   0.718  0.0491  0.4702 -0.3963
 3660TIP3    H232616   6.612   4.560   0.743 -0.2033  1.6913 -1.8336
 3661TIP3   OH232617   1.676   0.042   0.272  0.4623 -0.7689 -0.5906
 3661TIP3    H132618   1.692   0.093   0.351 -0.5746 -1.2900 -0.0270
 3661TIP3    H232619   1.602   0.086   0.230  0.1913 -1.2309 -0.6049
 3662TIP3   OH232620   3.756   0.318   7.220  0.5612  0.5473  0.6734
 3662TIP3    H132621   3.808   0.304   7.299  3.2097  0.0834 -1.0548
 3662TIP3    H232622   3.722   0.407   7.229 -1.0365 -0.2161  3.2659
 3663TIP3   OH232623   1.755   5.618   0.811 -0.2670 -0.4532  0.1953
 3663TIP3    H132624   1.717   5.692   0.858  1.2741  0.6310 -0.2042
 3663TIP3    H232625   1.759   5.648   0.720 -1.0628 -1.6471 -0.2588
 3664TIP3   OH232626   3.659   4.706   7.436 -0.4103 -0.7985 -0.0821
 3664TIP3    H132627   3.695   4.685   7.522  2.8989 -1.2646 -1.4514
 3664TIP3    H232628   3.603   4.782   7.451  1.6519  0.3841  2.2228
 3665TIP3   OH232629   3.605   5.528   0.344 -0.6753  0.0501  0.1445
 3665TIP3    H132630   3.659   5.461   0.304  0.1029  0.1148  1.0332
 3665TIP3    H232631   3.650   5.610   0.324 -0.7356  0.1547  0.4257
 3666TIP3   OH232632   6.519   3.703   7.980 -0.1153 -0.1694  0.0060
 3666TIP3    H132633   6.426   3.683   7.991  0.1489 -2.1325 -0.8684
 3666TIP3    H232634   6.527   3.795   8.005 -2.2379 -0.0238  0.3407
 3667TIP3   OH232635   6.280   3.501   0.476 -0.3941  0.3179  0.4500
 3667TIP3    H132636   6.219   3.456   0.418  0.2851 -0.1713  0.1092
 3667TIP3    H232637   6.232   3.510   0.559 -1.2620  0.7804 -0.0918
 3668TIP3   OH232638   2.312   1.669   0.356  1.0245 -0.2122 -0.3897
 3668TIP3    H132639   2.315   1.650   0.450  2.6061  0.7472 -0.2110
 3668TIP3    H232640   2.356   1.594   0.315  0.5464 -0.5151 -0.3596
 3669TIP3   OH232641   3.700   0.240   2.211  0.1890 -0.1248  0.3606
 3669TIP3    H132642   3.780   0.213   2.167  0.2601 -0.3797  0.6462
 3669TIP3    H232643   3.716   0.330   2.237  0.0151  0.1487 -0.4458
 3670TIP3   OH232644   5.233   2.069   8.306  0.1451 -0.1425 -0.5559
 3670TIP3    H132645   5.229   1.976   8.284 -2.1944 -0.3266  0.3889
 3670TIP3    H232646   5.214   2.114   8.223  2.1554 -0.3976 -1.2255
 3671TIP3   OH232647   1.512   5.465   0.008 -0.4119 -0.9909 -0.3236
 3671TIP3    H132648   1.503   5.383  -0.041 -0.6360 -0.9592 -0.3371
 3671TIP3    H232649   1.472   5.447   0.093  0.4941 -1.2271  0.0642
 3672TIP3   OH232650   0.576   4.856   6.650  0.4917  0.3376  0.0287
 3672TIP3    H132651   0.494   4.876   6.606 -0.2432  1.0667  1.6557
 3672TIP3    H232652   0.584   4.761   6.644 -0.7307  0.1997  0.2468
 3673TIP3   OH232653   4.387   0.414   1.307  0.0466  0.7540 -0.1164
 3673TIP3    H132654   4.303   0.438   1.269  0.4068 -0.3982 -1.7516
 3673TIP3    H232655   4.448   0.481   1.276  0.2023  0.1964 -1.0629
 3674TIP3   OH232656   6.342   1.380   8.679  0.0368  0.0997 -0.1826
 3674TIP3    H132657   6.295   1.404   8.759 -0.0727 -0.9452  0.0730
 3674TIP3    H232658   6.429   1.354   8.709  0.0588 -0.1086 -0.4246
 3675TIP3   OH232659   1.220   0.055   8.668  0.4850  0.2707 -0.2689
 3675TIP3    H132660   1.294   0.028   8.723 -0.5744  1.8192  2.0848
 3675TIP3    H232661   1.145   0.058   8.728 -0.9262  1.2864 -1.9782
 3676TIP3   OH232662   5.968   0.518   0.736  0.1743 -0.2941  0.5694
 3676TIP3    H132663   5.939   0.590   0.680  0.3980 -1.1182 -0.6646
 3676TIP3    H232664   6.064   0.521   0.731  0.2028 -1.8723 -1.1933
 3677TIP3   OH232665   0.593   0.311   6.720 -0.5521 -0.2966  0.7197
 3677TIP3    H132666   0.668   0.298   6.662 -0.9203  0.4802  0.0414
 3677TIP3    H232667   0.528   0.355   6.665 -0.6735  1.0600  1.8719
 3678TIP3   OH232668   4.789   1.045   6.992  0.2642  0.3857  0.2048
 3678TIP3    H132669   4.701   1.076   6.972 -0.7402 -0.5519  2.7166
 3678TIP3    H232670   4.833   1.120   7.033  1.1730  1.2649 -2.2099
 3679TIP3   OH232671   1.263   6.478   1.418  0.5578 -0.4059  0.2442
 3679TIP3    H132672   1.316   6.399   1.424  1.0646 -0.0446  0.6446
 3679TIP3    H232673   1.321   6.548   1.449 -0.4392 -0.1261  1.5412
 3680TIP3   OH232674   0.759   0.035   1.012  0.0927 -0.6020  0.4339
 3680TIP3    H132675   0.733   0.115   0.967  2.8705 -0.2854 -0.8207
 3680TIP3    H232676   0.707   0.035   1.093 -1.0696  1.6671 -0.2327
 3681TIP3   OH232677   1.829   0.835   1.128 -0.3750  0.1033 -0.2237
 3681TIP3    H132678   1.739   0.869   1.129 -0.0029  1.1726  1.1026
 3681TIP3    H232679   1.853   0.831   1.221  1.1633  0.4561 -0.5834
 3682TIP3   OH232680   1.935   6.778   2.406  0.0609  0.9340  0.0152
 3682TIP3    H132681   2.016   6.828   2.401 -0.2294  1.3184 -3.3593
 3682TIP3    H232682   1.874   6.835   2.452  1.0249  1.6685  0.4081
 3683TIP3   OH232683   6.040   5.082   8.075  0.2100 -0.4489  0.1523
 3683TIP3    H132684   5.977   5.145   8.111 -0.2529 -1.1819  0.6512
 3683TIP3    H232685   5.996   5.046   7.998 -0.0786 -1.1171  0.6245
 3684TIP3   OH232686   4.256   5.220   1.391  0.2806  0.2622 -0.0888
 3684TIP3    H132687   4.300   5.140   1.419 -0.4991 -0.1563 -0.0199
 3684TIP3    H232688   4.310   5.254   1.320  0.2238 -0.7402 -0.6298
 3685TIP3   OH232689   5.272   4.908   6.620 -0.1172 -0.4575 -0.1500
 3685TIP3    H132690   5.284   4.991   6.665 -2.0103 -0.7879  1.0714
 3685TIP3    H232691   5.263   4.932   6.527  0.6237  0.5369  0.0140
 3686TIP3   OH232692   1.119   5.920   7.994 -0.0506 -0.4989 -0.2266
 3686TIP3    H132693   1.094   5.967   7.915  0.5234 -1.7928 -1.2189
 3686TIP3    H232694   1.153   5.988   8.053 -1.6672  0.6548 -0.5716
 3687TIP3   OH232695   4.129   0.136   7.619 -0.0287 -0.6494  0.5396
 3687TIP3    H132696   4.099   0.133   7.529 -0.6064  1.7613  0.5907
 3687TIP3    H232697   4.122   0.228   7.644  1.5703 -0.9975  2.5604
 3688TIP3   OH232698   6.345   1.051   0.824 -0.8454 -0.3165  0.4165
 3688TIP3    H132699   6.327   1.048   0.730  2.4483  1.1100 -0.3858
 3688TIP3    H232700   6.315   1.138   0.852  3.6313  1.8968 -0.8347
 3689TIP3   OH232701   4.434   3.356   8.902 -0.6053 -0.8460  0.0198
 3689TIP3    H132702   4.376   3.280   8.909 -0.0169 -1.3709 -0.6466
 3689TIP3    H232703   4.513   3.322   8.861  0.0610 -0.0728  0.6262
 3690TIP3   OH232704   2.944   3.779   8.573 -0.4931 -0.3728  0.5987
 3690TIP3    H132705   2.891   3.757   8.649 -1.0496 -1.3266 -0.0461
 3690TIP3    H232706   3.007   3.844   8.606 -1.0059 -0.4332  1.7531
 3691TIP3   OH232707   1.120   2.864   0.659  0.2665  0.6099 -0.2061
 3691TIP3    H132708   1.214   2.858   0.676  0.3962 -0.1106 -1.0567
 3691TIP3    H232709   1.112   2.850   0.564 -0.8859 -1.9924  0.1950
 3692TIP3   OH232710   5.840   5.069   8.492 -0.7787  0.5333 -0.8467
 3692TIP3    H132711   5.820   4.977   8.507 -0.7807  0.6319 -0.2423
 3692TIP3    H232712   5.934   5.069   8.471  0.4060  0.7980  3.4360
 3693TIP3   OH232713   2.148   2.455   8.684  0.0959 -0.2603  0.2168
 3693TIP3    H132714   2.137   2.384   8.746  0.8433  0.3257  1.0400
 3693TIP3    H232715   2.222   2.505   8.717  0.0250  0.5030 -0.7269
 3694TIP3   OH232716   3.449   0.709   6.013 -1.1983 -0.5366  0.0663
 3694TIP3    H132717   3.518   0.767   5.980 -0.3809 -1.4790  0.0868
 3694TIP3    H232718   3.368   0.747   5.979 -0.8744  1.6773  1.5676
 3695TIP3   OH232719   0.717   6.746   1.467  0.2447  0.0865  0.0323
 3695TIP3    H132720   0.678   6.742   1.380 -0.5272  2.0092  0.2512
 3695TIP3    H232721   0.644   6.731   1.527  0.1010  1.9132  0.3880
 3696TIP3   OH232722   2.230   2.588   0.959 -0.5165 -0.3397 -0.1941
 3696TIP3    H132723   2.221   2.607   0.866 -1.5206 -0.6178 -0.1703
 3696TIP3    H232724   2.317   2.551   0.968 -0.0225  0.6118 -0.8588
 3697TIP3   OH232725   1.850   1.700   7.736 -0.2855  0.2224  0.1594
 3697TIP3    H132726   1.844   1.789   7.701 -0.5028  0.3895  0.6099
 3697TIP3    H232727   1.929   1.700   7.789 -0.2713  0.1370  0.1386
 3698TIP3   OH232728   2.290   2.185   7.063  0.0983  0.2872 -0.3054
 3698TIP3    H132729   2.243   2.258   7.021 -0.0987  0.7746  0.7347
 3698TIP3    H232730   2.224   2.116   7.071 -0.1069  0.5163  0.0088
 3699TIP3   OH232731   3.074   2.761   1.591  0.1340 -0.5630  0.8579
 3699TIP3    H132732   3.105   2.851   1.581  1.4265 -1.0046  0.7134
 3699TIP3    H232733   3.151   2.712   1.619 -0.1704 -1.9162 -0.5348
 3700TIP3   OH232734   3.840   2.477   7.173 -0.4046 -0.1513 -0.1786
 3700TIP3    H132735   3.834   2.569   7.146 -1.7015 -0.7597 -2.2683
 3700TIP3    H232736   3.933   2.455   7.165 -0.4189  0.3336 -2.2820
 3701TIP3   OH232737   5.810   6.464   7.590  0.5339 -0.6741 -0.0575
 3701TIP3    H132738   5.783   6.539   7.643  0.3414 -0.5529 -0.3283
 3701TIP3    H232739   5.897   6.441   7.624 -0.9497 -2.7895  2.7556
 3702TIP3   OH232740   5.977   3.963   7.475  0.3616  0.7823  0.4964
 3702TIP3    H132741   5.903   3.996   7.423  2.6784  1.5366 -2.6335
 3702TIP3    H232742   5.978   4.019   7.553 -0.0337  3.5559 -1.3251
 3703TIP3   OH232743   1.837   1.046   1.821 -0.0261  0.5950 -0.3340
 3703TIP3    H132744   1.930   1.056   1.837  0.4297  0.4021 -2.5518
 3703TIP3    H232745   1.831   1.006   1.734 -2.1843  1.7722 -0.8160
 3704TIP3   OH232746   5.125   5.052   8.048 -0.2485 -0.0805 -0.0604
 3704TIP3    H132747   5.153   5.016   8.132  3.8374  0.3810 -1.0034
 3704TIP3    H232748   5.150   5.145   8.052 -2.0465  0.4876 -1.0263
 3705TIP3   OH232749   1.308   3.418   1.743 -0.8401  0.5516  0.0665
 3705TIP3    H132750   1.279   3.345   1.689  0.3021 -0.0024  0.1699
 3705TIP3    H232751   1.284   3.394   1.832  0.3892 -0.1757  0.2269
 3706TIP3   OH232752   0.539   6.414   2.188 -0.0202 -0.2901  0.4287
 3706TIP3    H132753   0.579   6.329   2.175 -0.1609 -0.1204 -1.2839
 3706TIP3    H232754   0.602   6.463   2.241  0.2642 -1.2885  1.0202
 3707TIP3   OH232755   0.618   6.173   8.126  0.0457  0.4889 -0.3145
 3707TIP3    H132756   0.710   6.172   8.150 -0.7997 -2.6817  4.0169
 3707TIP3    H232757   0.607   6.098   8.068  0.0740  0.2166  0.0256
 3708TIP3   OH232758   4.666   4.285   7.814 -0.5835  0.0561  0.0861
 3708TIP3    H132759   4.657   4.198   7.774  0.6366 -0.5870  1.1447
 3708TIP3    H232760   4.620   4.278   7.898 -0.3820  0.3994  0.2271
 3709TIP3   OH232761   1.493   6.561   1.926  0.5760  0.0614 -0.7635
 3709TIP3    H132762   1.433   6.636   1.926  0.0923 -0.3207 -0.5721
 3709TIP3    H232763   1.537   6.566   1.841  0.1499  0.2488 -0.9781
 3710TIP3   OH232764   2.244   0.850   0.028 -0.0130 -0.7017  0.5127
 3710TIP3    H132765   2.301   0.926   0.036 -0.4294 -0.5143  1.9793
 3710TIP3    H232766   2.191   0.851   0.107  1.1940 -3.5608  1.4893
 3711TIP3   OH232767   6.379   0.870   6.878  0.4029  0.1978 -0.1488
 3711TIP3    H132768   6.466   0.858   6.838  0.8108  0.8432  0.5315
 3711TIP3    H232769   6.320   0.821   6.820  1.1715 -0.0030 -0.7889
 3712TIP3   OH232770   4.681   0.349   1.387 -0.0867  0.2839 -0.1603
 3712TIP3    H132771   4.599   0.386   1.419  0.3381  2.0066 -0.9523
 3712TIP3    H232772   4.654   0.273   1.335 -1.1029  0.2771  0.3442
 3713TIP3   OH232773   3.609   1.169   8.428  0.0141  0.6863  0.3199
 3713TIP3    H132774   3.683   1.192   8.483 -1.0627 -1.1358  2.6909
 3713TIP3    H232775   3.535   1.164   8.487 -1.3939 -0.5861 -1.4297
 3714TIP3   OH232776   3.949   6.529   0.244  0.4134 -0.4724 -0.1877
 3714TIP3    H132777   3.978   6.595   0.308  1.0080 -0.0100 -0.9162
 3714TIP3    H232778   3.992   6.448   0.273  0.1020 -0.4267  0.4097
 3715TIP3   OH232779   0.251   6.628   1.072 -0.2064  0.2273 -0.0214
 3715TIP3    H132780   0.296   6.544   1.061  0.6393  0.6442  0.1453
 3715TIP3    H232781   0.158   6.606   1.066 -0.0625 -0.9275  1.2751
 3716TIP3   OH232782   0.169   3.126   1.238  0.5743  0.2080  0.0512
 3716TIP3    H132783   0.222   3.186   1.290  1.3866  0.2082 -0.7418
 3716TIP3    H232784   0.233   3.078   1.185 -0.0325 -1.5827  0.8720
 3717TIP3   OH232785   4.994   0.534   8.382 -0.4321 -0.1321  0.5881
 3717TIP3    H132786   4.982   0.623   8.414  0.5742  0.0747  0.4017
 3717TIP3    H232787   5.001   0.543   8.287 -0.7896 -0.4614  0.5281
 3718TIP3   OH232788   2.905   2.694   8.155 -0.2362 -0.3252  0.1650
 3718TIP3    H132789   2.966   2.717   8.226  0.0984  1.0328 -0.5490
 3718TIP3    H232790   2.895   2.599   8.163  2.2406 -0.6566  0.1120
 3719TIP3   OH232791   1.693   2.329   1.189  0.2658  0.0013 -1.1021
 3719TIP3    H132792   1.744   2.373   1.256  0.1289 -1.3220 -0.1044
 3719TIP3    H232793   1.603   2.361   1.202 -0.0359 -1.3492  0.3281
 3720TIP3   OH232794   1.880   6.195   1.572 -0.3185  0.6520 -0.0790
 3720TIP3    H132795   1.905   6.177   1.663  1.7899 -1.6754 -0.9882
 3720TIP3    H232796   1.962   6.185   1.523 -1.8845 -1.1001 -2.5520
 3721TIP3   OH232797   2.655   3.844   2.356  0.3605 -0.5427 -0.2398
 3721TIP3    H132798   2.588   3.801   2.303 -0.9858  0.2337  0.8002
 3721TIP3    H232799   2.607   3.900   2.417  1.8934 -0.8787  1.3581
 3722TIP3   OH232800   6.205   1.310   0.833  0.7694  0.6482 -0.6066
 3722TIP3    H132801   6.144   1.364   0.884  0.6563 -0.0713  0.0304
 3722TIP3    H232802   6.291   1.344   0.854  0.8633 -0.6680  1.3703
 3723TIP3   OH232803   2.507   3.659   1.200  0.0685  0.4057 -0.2052
 3723TIP3    H132804   2.574   3.704   1.251  1.4880 -1.0890 -0.6440
 3723TIP3    H232805   2.454   3.612   1.265 -0.0319  0.9291  0.0918
 3724TIP3   OH232806   2.914   0.937   6.958  0.0811 -0.6079  0.4122
 3724TIP3    H132807   2.995   0.890   6.941 -0.2543 -1.2730  0.6048
 3724TIP3    H232808   2.938   1.029   6.952  0.7500 -0.7990  0.0224
 3725TIP3   OH232809   3.006   3.656   7.324  0.2694  0.1607 -0.0306
 3725TIP3    H132810   2.986   3.632   7.234  1.5686  0.0042 -0.2926
 3725TIP3    H232811   2.951   3.598   7.377 -1.2406  0.9121 -0.7012
 3726TIP3   OH232812   5.111   0.777   1.388  0.7977  0.2653  0.0794
 3726TIP3    H132813   5.018   0.780   1.409  0.3240  1.1805 -1.8868
 3726TIP3    H232814   5.154   0.754   1.470 -1.2560 -1.5943  0.7263
 3727TIP3   OH232815   4.141   2.107   7.670  0.0314 -0.7805 -0.4900
 3727TIP3    H132816   4.213   2.163   7.640 -0.2714  0.0056  0.1953
 3727TIP3    H232817   4.180   2.020   7.679  0.7875 -0.4548 -0.5443
 3728TIP3   OH232818   3.590   3.093   2.012 -0.3343 -0.1040  0.1411
 3728TIP3    H132819   3.685   3.082   2.014 -0.3577 -0.2099  1.3403
 3728TIP3    H232820   3.568   3.128   2.099 -1.3071  0.6557 -0.3918
 3729TIP3   OH232821   1.709   3.061   7.848 -0.5250 -0.1059  0.1323
 3729TIP3    H132822   1.778   3.121   7.823  1.4049 -1.8616  0.9888
 3729TIP3    H232823   1.628   3.111   7.836  0.9286  2.4555  0.3775
 3730TIP3   OH232824   0.072   5.490   8.610 -0.1914  0.3107  0.5019
 3730TIP3    H132825   0.005   5.457   8.551  0.0351 -0.7547  0.8129
 3730TIP3    H232826   0.151   5.498   8.555 -0.5718  1.7035  0.1021
 3731TIP3   OH232827   2.067   5.099   8.524 -0.0959  0.1707 -0.0032
 3731TIP3    H132828   2.155   5.079   8.554 -0.0635 -0.3541 -0.4482
 3731TIP3    H232829   2.011   5.078   8.599 -0.2661 -3.3020 -0.9273
 3732TIP3   OH232830   5.915   4.250   7.198  0.4405 -0.2875 -0.2242
 3732TIP3    H132831   5.820   4.259   7.184  0.4658  1.8589  0.5856
 3732TIP3    H232832   5.951   4.244   7.110 -0.2719  1.6941 -0.7149
 3733TIP3   OH232833   1.298   0.296   1.820 -0.0260  0.4219 -0.2970
 3733TIP3    H132834   1.381   0.275   1.862  0.4584  1.7167 -0.5427
 3733TIP3    H232835   1.232   0.282   1.887  0.5962  1.1814  0.4971
 3734TIP3   OH232836   0.457   1.964   7.488 -1.0357 -0.5423 -0.0538
 3734TIP3    H132837   0.420   1.876   7.497 -0.0255 -1.0293 -0.5506
 3734TIP3    H232838   0.412   2.000   7.412 -2.0724 -0.2920  0.6563
 3735TIP3   OH232839   4.456   3.085   8.270  0.0290 -0.0238 -0.2425
 3735TIP3    H132840   4.462   2.990   8.260 -0.9982 -0.1536  0.3073
 3735TIP3    H232841   4.420   3.116   8.187  2.4374  0.1524 -1.3030
 3736TIP3   OH232842   2.164   1.428   5.912 -0.3244  0.7280  0.0270
 3736TIP3    H132843   2.203   1.441   5.825  0.8373 -0.6213  0.2986
 3736TIP3    H232844   2.236   1.443   5.973 -1.2627  2.1929  0.8229
 3737TIP3   OH232845   6.230   3.043   8.080 -0.5780 -0.8320  0.0810
 3737TIP3    H132846   6.244   3.137   8.092 -1.8360 -0.8137  1.7607
 3737TIP3    H232847   6.137   3.035   8.060 -1.0356 -1.8361  2.2677
 3738TIP3   OH232848   1.804   3.845   0.582 -0.5636  0.6847  0.4517
 3738TIP3    H132849   1.769   3.773   0.634 -0.0937  0.3221  0.2734
 3738TIP3    H232850   1.846   3.803   0.507  0.1194  1.1111  0.5800
 3739TIP3   OH232851   0.088   0.345   0.896  0.1977  0.3089  0.2412
 3739TIP3    H132852   0.097   0.401   0.973  1.7183  0.3064  0.0902
 3739TIP3    H232853   0.027   0.276   0.923  1.3119 -0.1316  1.7173
 3740TIP3   OH232854   3.614   5.334   7.558 -0.5453  0.5860 -0.4951
 3740TIP3    H132855   3.695   5.374   7.590 -1.5218  1.5573  0.8965
 3740TIP3    H232856   3.628   5.240   7.570 -0.7302  0.8545  2.7032
 3741TIP3   OH232857   0.504   2.652   0.292  0.6850 -0.1527 -0.0532
 3741TIP3    H132858   0.457   2.732   0.315 -2.0897 -1.1602 -1.6844
 3741TIP3    H232859   0.542   2.670   0.205  1.9045  0.0537  0.4981
 3742TIP3   OH232860   3.789   1.634   6.926  0.1631  0.1696 -0.1011
 3742TIP3    H132861   3.750   1.619   6.840 -1.0012  1.2350  0.2137
 3742TIP3    H232862   3.823   1.723   6.922 -0.7599  0.5886  0.8304
 3743TIP3   OH232863   5.240   1.295   1.099 -0.3355 -0.3079  0.6502
 3743TIP3    H132864   5.323   1.265   1.138 -0.2903 -1.7516 -0.4765
 3743TIP3    H232865   5.180   1.222   1.111 -0.7340 -0.2202 -0.6782
 3744TIP3   OH232866   0.712   3.212   0.074 -0.2435 -0.0303  0.5477
 3744TIP3    H132867   0.759   3.249   0.148 -0.2585 -0.0933  0.5890
 3744TIP3    H232868   0.620   3.238   0.089 -0.2431 -0.0236  0.5386
 3745TIP3   OH232869   2.098   0.797   6.936  0.5394 -0.0635  0.0582
 3745TIP3    H132870   2.147   0.762   6.861 -2.6494 -1.1238 -1.7534
 3745TIP3    H232871   2.077   0.720   6.989  1.7947  0.5421  1.5116
 3746TIP3   OH232872   5.628   2.761   0.592 -0.6500  0.6198  0.2387
 3746TIP3    H132873   5.613   2.674   0.556 -0.8637  1.4292 -1.7385
 3746TIP3    H232874   5.723   2.765   0.605 -0.4621  0.5493 -0.9722
 3747TIP3   OH232875   5.197   2.420   1.459 -0.0933 -0.1456 -0.8017
 3747TIP3    H132876   5.238   2.430   1.373  2.0046  1.0236  0.2542
 3747TIP3    H232877   5.218   2.501   1.505 -2.0651 -0.3040  0.4947
 3748TIP3   OH232878   0.806   4.876   6.827 -0.2560  0.0788 -0.5337
 3748TIP3    H132879   0.787   4.784   6.845 -1.6975  0.8751  2.7831
 3748TIP3    H232880   0.737   4.903   6.766 -1.0743 -0.6048  0.0526
 3749TIP3   OH232881   4.843   5.706   8.746 -0.2837  0.0078 -0.4108
 3749TIP3    H132882   4.808   5.666   8.825  1.3578 -0.4246  0.1339
 3749TIP3    H232883   4.938   5.704   8.757  0.0234  4.4547 -0.0827
 3750TIP3   OH232884   1.412   0.382   0.978  0.3843  0.0444 -0.5515
 3750TIP3    H132885   1.394   0.427   1.061 -1.3732  2.1459 -1.9656
 3750TIP3    H232886   1.505   0.398   0.963  0.2115  1.7329 -0.0930
 3751TIP3   OH232887   1.226   2.563   7.575 -0.2894  0.3754  0.4826
 3751TIP3    H132888   1.286   2.636   7.585  0.6519 -0.0798 -1.4011
 3751TIP3    H232889   1.273   2.487   7.609 -0.8825  0.4405  1.5085
 3752TIP3   OH232890   0.699   5.447   7.519 -0.8288 -0.3551  0.0712
 3752TIP3    H132891   0.702   5.528   7.468  1.9505 -0.5436 -0.1952
 3752TIP3    H232892   0.620   5.402   7.489 -0.2622  0.3844 -2.7538
 3753TIP3   OH232893   2.511   6.181   1.051 -0.1400  0.2136  0.1673
 3753TIP3    H132894   2.474   6.268   1.067 -1.0635 -0.4570  2.1022
 3753TIP3    H232895   2.439   6.132   1.011  0.1450  0.1460 -0.2614
 3754TIP3   OH232896   5.928   0.638   6.661 -0.2451  0.7229  0.1479
 3754TIP3    H132897   5.952   0.731   6.659  0.4580  0.5750  1.0433
 3754TIP3    H232898   6.001   0.594   6.616 -0.0829  0.5160  0.6055
 3755TIP3   OH232899   4.454   3.703   0.320  0.1236 -0.4652  0.0754
 3755TIP3    H132900   4.520   3.661   0.266  1.6446  0.4787  1.1410
 3755TIP3    H232901   4.460   3.659   0.405  0.4886  0.6475  0.6490
 3756TIP3   OH232902   4.586   1.886   2.421  0.5988  0.0159 -0.4014
 3756TIP3    H132903   4.499   1.924   2.408  0.7320  0.5954  0.3437
 3756TIP3    H232904   4.596   1.824   2.348 -0.1850  0.3899 -0.8424
 3757TIP3   OH232905   4.652   6.709   6.507  0.4162  0.1002 -0.3995
 3757TIP3    H132906   4.615   6.627   6.475  1.2256 -0.1211 -0.7907
 3757TIP3    H232907   4.576   6.766   6.521  0.0176  0.2237 -2.7434
 3758TIP3   OH232908   1.018   6.504   8.687 -0.3116 -0.1459  0.1162
 3758TIP3    H132909   1.096   6.532   8.736  0.3645 -0.7973 -0.5565
 3758TIP3    H232910   0.976   6.586   8.660 -0.0905  0.2136  0.8388
 3759TIP3   OH232911   5.299   3.479   8.069 -0.5053 -0.4697 -0.0160
 3759TIP3    H132912   5.244   3.472   7.991  0.4494 -0.2402 -0.7210
 3759TIP3    H232913   5.306   3.390   8.102 -2.4291 -0.3429  0.9081
 3760TIP3   OH232914   5.479   6.236   1.617 -0.2074  0.2178 -0.3554
 3760TIP3    H132915   5.478   6.277   1.531 -2.1844 -0.1876 -0.5893
 3760TIP3    H232916   5.559   6.268   1.659  1.2087 -0.1862 -2.5953
 3761TIP3   OH232917   6.773   1.464   0.628  0.0801  0.0749  0.7738
 3761TIP3    H132918   6.731   1.455   0.713  0.1637 -0.5749  0.7558
 3761TIP3    H232919   6.866   1.474   0.649  0.2061 -0.9504  0.7369
 3762TIP3   OH232920   4.854   2.885   2.090  0.4292 -0.6273 -0.4932
 3762TIP3    H132921   4.834   2.978   2.078  0.1774 -0.7808 -1.2866
 3762TIP3    H232922   4.943   2.885   2.125 -0.6887  0.0466  2.7247
 3763TIP3   OH232923   4.870   4.030   8.820 -0.3676 -0.1159  0.4499
 3763TIP3    H132924   4.862   4.077   8.903  1.2974  1.5235 -0.2309
 3763TIP3    H232925   4.884   3.939   8.845  2.0716  0.6076  2.1372
 3764TIP3   OH232926   0.080   2.379   1.488 -0.1869 -0.0498 -0.4694
 3764TIP3    H132927   0.007   2.342   1.537  1.0527 -0.8515  0.8458
 3764TIP3    H232928   0.044   2.399   1.402 -2.2778  0.7912  0.5323
 3765TIP3   OH232929   1.484   4.116   8.007  0.7110  0.1157  0.2457
 3765TIP3    H132930   1.573   4.086   7.989  1.2393  2.2442 -0.9977
 3765TIP3    H232931   1.459   4.069   8.087  2.7827 -0.8390  0.3962
 3766TIP3   OH232932   1.972   0.267   0.024  0.3862 -0.0567 -0.4006
 3766TIP3    H132933   1.971   0.347   0.077 -0.2437  0.5403 -1.2789
 3766TIP3    H232934   2.013   0.201   0.080 -0.0812  0.6007  0.7488
 3767TIP3   OH232935   2.470   0.973   7.298 -0.6007 -0.0248  0.3033
 3767TIP3    H132936   2.437   0.883   7.287 -1.2580  0.0833  1.3201
 3767TIP3    H232937   2.455   1.014   7.213  0.6631 -1.1670 -0.5138
 3768TIP3   OH232938   1.409   4.624   7.916  0.1842  0.0950  0.2731
 3768TIP3    H132939   1.424   4.530   7.901  1.2598  0.1523  0.8469
 3768TIP3    H232940   1.420   4.635   8.010  0.5119  0.8755  0.1504
 3769TIP3   OH232941   4.472   5.407   1.329 -0.1386  0.8590 -0.8772
 3769TIP3    H132942   4.561   5.397   1.294 -0.1479 -1.7730 -0.3581
 3769TIP3    H232943   4.476   5.367   1.416 -1.9286  0.2819 -1.0249
 3770TIP3   OH232944   1.765   4.500   8.739  0.3739  0.2895  0.0165
 3770TIP3    H132945   1.696   4.564   8.759 -1.1834 -0.9924 -1.0314
 3770TIP3    H232946   1.750   4.428   8.799  0.5372 -0.1857 -0.5034
 3771TIP3   OH232947   0.528   5.259   7.429 -0.6005 -0.5812 -0.1818
 3771TIP3    H132948   0.471   5.260   7.351 -1.0679  0.5262  0.1540
 3771TIP3    H232949   0.583   5.182   7.417 -0.2723 -0.1273 -1.9007
 3772TIP3   OH232950   5.634   1.560   8.870 -0.0948 -0.7167  0.3286
 3772TIP3    H132951   5.595   1.506   8.939 -0.0178  1.6772  2.4045
 3772TIP3    H232952   5.703   1.609   8.915 -1.2997  2.3538 -0.9106
 3773TIP3   OH232953   5.825   0.645   8.495 -0.2805  0.7638 -0.2337
 3773TIP3    H132954   5.813   0.712   8.427 -2.8525  0.4838 -0.1567
 3773TIP3    H232955   5.773   0.571   8.465  1.1346 -0.5828  0.5256
 3774TIP3   OH232956   3.715   1.207   7.658  0.1035  0.2497 -0.1702
 3774TIP3    H132957   3.740   1.244   7.742  2.1079 -0.7549 -0.2510
 3774TIP3    H232958   3.771   1.251   7.595  0.6033 -0.9519 -0.5970
 3775TIP3   OH232959   6.419   2.709   1.880  0.6387 -0.2791 -0.4985
 3775TIP3    H132960   6.434   2.738   1.969 -0.4459  0.1273 -0.4405
 3775TIP3    H232961   6.384   2.785   1.834 -0.7265 -1.0120 -0.7416
 3776TIP3   OH232962   0.380   2.727   8.035 -0.2257  0.5874  0.1450
 3776TIP3    H132963   0.437   2.795   8.070  0.8524  0.1118 -0.6052
 3776TIP3    H232964   0.338   2.688   8.112 -0.4211  1.7153  0.6190
 3777TIP3   OH232965   3.164   4.965   0.166 -0.5467  0.1682 -0.4004
 3777TIP3    H132966   3.155   4.875   0.135  2.0498  0.2742 -1.7478
 3777TIP3    H232967   3.141   5.019   0.091 -1.2371  0.6151  0.1249
 3778TIP3   OH232968   0.760   6.083   0.565  0.6667  0.2229  0.0988
 3778TIP3    H132969   0.841   6.093   0.514  0.4892  1.4092  0.0111
 3778TIP3    H232970   0.756   5.990   0.587  2.1316  0.1732  0.2354
 3779TIP3   OH232971   0.154   0.367   8.190  0.3336  0.9538  0.2150
 3779TIP3    H132972   0.147   0.382   8.096 -0.9615  2.1804  0.4679
 3779TIP3    H232973   0.231   0.418   8.216  0.1569  1.3662 -0.0491
 3780TIP3   OH232974   2.988   5.893   7.371  0.7375  0.2693 -0.1827
 3780TIP3    H132975   2.928   5.907   7.297  0.5813 -0.5699 -0.2239
 3780TIP3    H232976   3.001   5.980   7.409 -1.1773  0.3752  0.3305
 3781TIP3   OH232977   6.041   4.346   6.964 -0.0010  0.2054  0.3002
 3781TIP3    H132978   6.010   4.436   6.972 -1.3389 -0.1825 -0.2961
 3781TIP3    H232979   6.136   4.354   6.953  0.2410  1.4004  2.6647
 3782TIP3   OH232980   1.021   1.613   7.760  0.3420  0.0891  0.5644
 3782TIP3    H132981   1.039   1.554   7.833  0.7977 -0.4352  0.0358
 3782TIP3    H232982   0.952   1.671   7.793 -0.3509 -0.9377  0.9966
 3783TIP3   OH232983   3.895   6.153   0.797 -0.2118  0.1254 -0.1162
 3783TIP3    H132984   3.870   6.245   0.811  0.2291  0.1069  0.8844
 3783TIP3    H232985   3.979   6.144   0.842  0.0701 -0.6093 -0.7732
 3784TIP3   OH232986   2.878   2.295   1.213 -0.7039 -0.3557  0.0563
 3784TIP3    H132987   2.931   2.260   1.141  0.4437  0.9137  0.2278
 3784TIP3    H232988   2.816   2.354   1.171 -0.2802  0.1010  0.0634
 3785TIP3   OH232989   6.574   6.380   6.596  0.2560 -0.0181 -0.0624
 3785TIP3    H132990   6.582   6.343   6.508 -0.6843 -0.0985 -0.1240
 3785TIP3    H232991   6.485   6.357   6.623 -0.1835  1.7502  0.0984
 3786TIP3   OH232992   1.625   0.906   8.378 -0.2010 -0.3152 -0.7046
 3786TIP3    H132993   1.707   0.896   8.330 -0.3104 -2.3507 -0.5321
 3786TIP3    H232994   1.643   0.873   8.465 -0.6952  1.0713 -0.0436
 3787TIP3   OH232995   6.530   6.803   2.189  0.6869  0.1295 -0.3826
 3787TIP3    H132996   6.506   6.771   2.276 -0.6761  2.7004  0.2980
 3787TIP3    H232997   6.490   6.741   2.129  0.8489 -1.1758  0.8113
 3788TIP3   OH232998   4.936   2.323   0.135  0.1347 -0.5586  0.1551
 3788TIP3    H132999   4.879   2.246   0.132  0.2914 -0.7098  0.8037
 3788TIP3    H233000   4.906   2.378   0.063  0.0495 -1.2474 -0.3472
 3789TIP3   OH233001   5.980   4.461   8.306 -0.0389 -0.2196 -0.2492
 3789TIP3    H133002   6.013   4.409   8.233 -0.6026  1.5510 -1.8480
 3789TIP3    H233003   6.049   4.525   8.323 -0.1068 -0.3343  0.5020
 3790TIP3   OH233004   0.935   3.580   1.950  0.0190 -1.0005 -0.0872
 3790TIP3    H133005   1.018   3.619   1.922 -0.9529 -0.4842 -2.4592
 3790TIP3    H233006   0.887   3.652   1.989  0.1274 -0.9551 -0.0375
 3791TIP3   OH233007   3.617   6.008   7.243 -0.2135  0.2809  0.0944
 3791TIP3    H133008   3.596   5.982   7.333  1.3039 -0.7534  0.1852
 3791TIP3    H233009   3.586   5.936   7.189  0.3720  0.1364 -0.0513
 3792TIP3   OH233010   5.323   2.001   2.407 -0.0716  0.0019 -0.2300
 3792TIP3    H133011   5.311   1.962   2.494  2.9016  0.6482  0.5990
 3792TIP3    H233012   5.292   2.091   2.416  0.4605  0.1431  0.2834
 3793TIP3   OH233013   6.808   1.662   0.265 -0.0079  0.1138  0.1386
 3793TIP3    H133014   6.873   1.722   0.229  1.5417 -1.3590  0.3511
 3793TIP3    H233015   6.855   1.579   0.274 -1.4753 -0.5894  1.8235
 3794TIP3   OH233016   6.258   2.770   7.839  0.1570 -0.8686 -0.8436
 3794TIP3    H133017   6.331   2.743   7.895 -0.2119 -0.3840 -0.1045
 3794TIP3    H233018   6.195   2.698   7.844  0.0668 -0.7719 -0.5099
 3795TIP3   OH233019   3.957   4.042   0.657 -0.7056  0.6538 -0.0395
 3795TIP3    H133020   3.948   4.017   0.749  1.3259 -1.4593 -0.3333
 3795TIP3    H233021   3.990   4.132   0.659 -1.6374  0.9851  1.2482
 3796TIP3   OH233022   3.364   6.134   8.551  0.5628  0.3189 -0.3717
 3796TIP3    H133023   3.344   6.149   8.458 -1.6212  0.3609  0.0550
 3796TIP3    H233024   3.368   6.039   8.559  0.3474  0.3070 -0.4180
 3797TIP3   OH233025   2.950   1.870   0.621 -0.7379  0.1268  0.0280
 3797TIP3    H133026   2.927   1.941   0.561 -0.7637  1.6453  1.7552
 3797TIP3    H233027   2.867   1.846   0.663 -0.3267  0.8559  1.2911
 3798TIP3   OH233028   3.725   1.368   6.289  0.2228  0.3087 -0.5624
 3798TIP3    H133029   3.722   1.273   6.274 -0.5975  0.2193  0.0949
 3798TIP3    H233030   3.636   1.398   6.272  0.5175  0.9946 -0.9303
 3799TIP3   OH233031   0.359   1.045   7.840 -0.1869  0.3505 -0.4679
 3799TIP3    H133032   0.437   1.070   7.790 -0.1553 -0.5963 -0.9181
 3799TIP3    H233033   0.294   1.111   7.817 -0.0685  0.1207 -1.5317
 3800TIP3   OH233034   5.668   0.536   2.382 -0.1650  0.2084 -0.2776
 3800TIP3    H133035   5.574   0.516   2.386  0.2496 -1.8318  0.5401
 3800TIP3    H233036   5.684   0.594   2.456 -0.9713  1.6444 -1.1764
 3801TIP3   OH233037   0.154   0.236   0.499  0.3841 -0.3978 -0.0772
 3801TIP3    H133038   0.183   0.246   0.408 -0.4907  1.1094 -0.2350
 3801TIP3    H233039   0.198   0.307   0.546 -0.6486  0.0400  0.2665
 3802TIP3   OH233040   0.218   5.909   7.537  0.2973 -0.5573  0.4645
 3802TIP3    H133041   0.299   5.947   7.502 -1.1427 -0.8073 -3.6108
 3802TIP3    H233042   0.242   5.820   7.563  1.4077 -0.5372 -0.4288
 3803TIP3   OH233043   2.647   6.525   8.041  0.1755  0.2659 -0.1285
 3803TIP3    H133044   2.677   6.616   8.044  0.4814  0.2307 -1.5649
 3803TIP3    H233045   2.666   6.491   8.129  2.2208  0.9260 -0.2642
 3804TIP3   OH233046   0.402   0.018   0.943 -0.4592  0.2234 -0.2452
 3804TIP3    H133047   0.447  -0.060   0.910  0.4178  0.8011 -0.4644
 3804TIP3    H233048   0.343  -0.015   1.010 -0.4849 -0.6888 -0.6994
 3805TIP3   OH233049   6.515   0.807   1.417 -0.4965 -0.1498 -0.1562
 3805TIP3    H133050   6.450   0.805   1.488  0.0756 -0.0404  0.3804
 3805TIP3    H233051   6.467   0.777   1.340 -1.0696 -0.5076  0.3281
 3806TIP3   OH233052   1.503   1.477   0.723  0.2354 -0.1487 -0.5359
 3806TIP3    H133053   1.532   1.511   0.807  0.5902  0.2411 -0.8088
 3806TIP3    H233054   1.576   1.496   0.663  0.0308 -0.5094 -0.9079
 3807TIP3   OH233055   1.380   1.295   8.782 -0.0523 -0.4891  0.4743
 3807TIP3    H133056   1.386   1.373   8.727 -1.6553 -0.1602  0.7212
 3807TIP3    H233057   1.287   1.273   8.783 -0.2098 -0.1150  3.5565
 3808TIP3   OH233058   4.539   1.765   8.171 -0.2516 -0.8573  0.2269
 3808TIP3    H133059   4.506   1.855   8.174  0.0322 -0.7056 -0.9395
 3808TIP3    H233060   4.500   1.723   8.248 -1.0294  0.0385  0.3371
 3809TIP3   OH233061   6.287   1.750   6.780 -0.1503  0.9752 -0.1396
 3809TIP3    H133062   6.247   1.680   6.728 -1.7056  2.6981 -1.3762
 3809TIP3    H233063   6.343   1.797   6.719  0.9634  0.8031  0.7061
 3810TIP3   OH233064   1.559   3.627   0.202  0.2024  0.0418  0.1909
 3810TIP3    H133065   1.651   3.641   0.181  0.1622  2.0832  1.1118
 3810TIP3    H233066   1.559   3.556   0.265  1.1364 -0.0677  0.0852
 3811TIP3   OH233067   0.655   0.036   2.586  0.4706 -0.3698  0.0851
 3811TIP3    H133068   0.694   0.116   2.621 -0.8232  0.2002  0.3032
 3811TIP3    H233069   0.707  -0.035   2.624  0.1596  0.2906  1.8408
 3812TIP3   OH233070   5.319   3.212   8.126 -1.1223  0.8658 -0.1790
 3812TIP3    H133071   5.363   3.153   8.065  0.7031  1.3332  0.6249
 3812TIP3    H233072   5.227   3.207   8.101 -0.7600 -0.8106 -1.3847
 3813TIP3   OH233073   6.289   5.920   8.840 -0.0813 -0.0492  0.0298
 3813TIP3    H133074   6.321   5.986   8.779 -1.1599  0.1546 -0.3284
 3813TIP3    H233075   6.208   5.889   8.801  1.4824 -3.2754 -1.0548
 3814TIP3   OH233076   5.044   5.454   7.362 -0.3687 -0.2138 -0.4397
 3814TIP3    H133077   4.981   5.383   7.350 -1.6094  0.8484 -0.3642
 3814TIP3    H233078   4.992   5.528   7.394  0.9317  0.6631 -0.2593
 3815TIP3   OH233079   0.450   0.254   7.886 -0.1185 -0.5835  0.4418
 3815TIP3    H133080   0.361   0.221   7.897  0.3365 -1.5985  1.2436
 3815TIP3    H233081   0.440   0.331   7.830 -1.5675 -0.2867  1.0596
 3816TIP3   OH233082   4.286   0.688   7.672  0.2247 -0.0798  0.2851
 3816TIP3    H133083   4.201   0.659   7.705 -0.3021 -1.7460 -2.2746
 3816TIP3    H233084   4.293   0.780   7.699 -3.0586  0.5602 -0.6742
 3817TIP3   OH233085   4.859   1.876   2.344  0.1925  0.7248 -0.2795
 3817TIP3    H133086   4.772   1.917   2.347  0.4283  1.4816 -2.2360
 3817TIP3    H233087   4.898   1.896   2.429 -1.7042 -0.0742  0.8639
 3818TIP3   OH233088   1.710   6.397   2.079  0.1792 -0.4817 -0.4347
 3818TIP3    H133089   1.706   6.329   2.012  0.1594 -0.7921 -0.1213
 3818TIP3    H233090   1.645   6.462   2.051  0.7360 -0.2106 -1.1365
 3819TIP3   OH233091   3.354   5.874   0.926  0.0550 -0.6880  0.5239
 3819TIP3    H133092   3.376   5.905   1.013 -0.1500 -0.4531  0.4933
 3819TIP3    H233093   3.285   5.934   0.896  0.2968 -0.6147  0.1065
 3820TIP3   OH233094   0.984   5.336   8.296 -0.1857  0.2905  0.5071
 3820TIP3    H133095   0.943   5.408   8.247  0.5177  0.2079 -0.2349
 3820TIP3    H233096   0.991   5.265   8.232  2.1507  0.6935  0.2300
 3821TIP3   OH233097   0.941   3.769   1.208 -0.3305 -0.2310  0.4935
 3821TIP3    H133098   0.878   3.821   1.258  0.6963 -0.0135  1.6024
 3821TIP3    H233099   0.907   3.679   1.212 -1.2866  0.0932 -0.1057
 3822TIP3   OH233100   6.272   3.829   8.688  0.0057 -0.1907  0.0839
 3822TIP3    H133101   6.272   3.886   8.611 -0.6808 -1.1040 -0.6106
 3822TIP3    H233102   6.323   3.878   8.753  0.6982  0.5501 -0.9728
 3823TIP3   OH233103   2.114   3.791   7.276  0.1702  0.2503  0.1139
 3823TIP3    H133104   2.076   3.847   7.344 -0.5735 -0.0013 -0.0910
 3823TIP3    H233105   2.089   3.832   7.193 -2.5287 -1.6511 -0.1443
 3824TIP3   OH233106   1.618   3.715   1.177 -0.5218  0.1877 -0.9218
 3824TIP3    H133107   1.669   3.693   1.100  0.0487 -0.5723 -0.3546
 3824TIP3    H233108   1.680   3.709   1.250 -1.1836  0.2455 -0.3346
 3825TIP3   OH233109   5.054   0.602   1.864 -0.5732  0.0046 -0.3212
 3825TIP3    H133110   5.069   0.616   1.958  0.6227  0.6117 -0.5796
 3825TIP3    H233111   4.997   0.674   1.838 -1.0471 -0.2617 -0.0280
 3826TIP3   OH233112   2.481   4.583   6.845 -0.3794 -0.1620 -0.2680
 3826TIP3    H133113   2.406   4.578   6.786  0.6208  0.6219 -1.6580
 3826TIP3    H233114   2.552   4.619   6.791  0.6563  0.3110  1.3360
 3827TIP3   OH233115   2.075   4.346   7.822 -0.3767 -0.3758 -0.1250
 3827TIP3    H133116   2.128   4.279   7.864 -1.4846 -0.5841  1.0239
 3827TIP3    H233117   1.985   4.327   7.850 -0.7773  1.3343 -0.0880
 3828TIP3   OH233118   6.092   0.376   8.577 -0.4540 -0.1126  0.2141
 3828TIP3    H133119   6.085   0.281   8.575 -1.5592 -0.0560  0.6544
 3828TIP3    H233120   6.002   0.407   8.572 -0.1567  0.8976  0.7362
 3829TIP3   OH233121   5.032   3.970   1.769 -0.1936 -0.0434  0.5258
 3829TIP3    H133122   4.981   4.010   1.839 -0.8039  0.3951 -0.1515
 3829TIP3    H233123   5.038   4.038   1.702 -0.5743 -0.8144 -0.3139
 3830TIP3   OH233124   5.362   4.703   8.699 -0.0958  0.2461 -0.0773
 3830TIP3    H133125   5.365   4.609   8.715 -0.5171  0.1824 -0.3586
 3830TIP3    H233126   5.447   4.735   8.729 -0.2028 -0.1231  0.6455
 3831TIP3   OH233127   2.539   0.578   8.651  0.2938  0.4483 -0.5133
 3831TIP3    H133128   2.481   0.654   8.643 -0.1536  0.3793  1.4088
 3831TIP3    H233129   2.601   0.604   8.719 -0.3700 -1.1572  0.7627
 3832TIP3   OH233130   2.896   6.798   1.778  0.5149 -0.3828  0.2369
 3832TIP3    H133131   2.956   6.836   1.843 -0.4748 -0.4766  1.2440
 3832TIP3    H233132   2.891   6.706   1.801 -2.2160  0.0985  2.0649
 3833TIP3   OH233133   2.956   2.697   6.486  0.1951 -0.6337 -0.5334
 3833TIP3    H133134   3.010   2.721   6.561  0.1082 -1.3946 -0.2204
 3833TIP3    H233135   2.984   2.608   6.464 -1.8171 -1.5671  0.4646
 3834TIP3   OH233136   2.262   0.299   1.791 -0.5115 -0.3083 -0.1744
 3834TIP3    H133137   2.255   0.358   1.716 -0.1731 -0.3172 -0.2160
 3834TIP3    H233138   2.352   0.311   1.822 -1.0176  0.6330  1.0053
 3835TIP3   OH233139   3.237   2.617   0.648  0.3183 -0.1999  0.1426
 3835TIP3    H133140   3.185   2.562   0.590  1.4038 -1.5450  0.4025
 3835TIP3    H233141   3.306   2.653   0.592  0.7424 -0.6527  0.3694
 3836TIP3   OH233142   0.338   1.343   7.578 -0.3859  0.4356 -0.0894
 3836TIP3    H133143   0.286   1.317   7.654 -0.2477  2.4163  0.7636
 3836TIP3    H233144   0.420   1.295   7.587 -0.6430  0.1116  0.6349
 3837TIP3   OH233145   1.891   0.595   6.868  0.1186 -0.0169  0.4044
 3837TIP3    H133146   1.949   0.541   6.921  2.9637  2.1321 -0.2896
 3837TIP3    H233147   1.923   0.685   6.881 -3.1970  1.3812  0.0754
 3838TIP3   OH233148   2.710   4.824   7.754 -0.4185  0.2493  0.2834
 3838TIP3    H133149   2.662   4.809   7.673 -0.8249  1.2428  0.3295
 3838TIP3    H233150   2.680   4.754   7.813  1.1469 -1.5626 -0.9129
 3839TIP3   OH233151   1.841   2.324   2.406 -0.3937 -0.0789 -0.2400
 3839TIP3    H133152   1.760   2.355   2.446 -0.6341  0.0484 -0.8047
 3839TIP3    H233153   1.821   2.233   2.381 -0.8261  0.3601 -1.5725
 3840TIP3   OH233154   6.678   4.742   2.275  0.6093  0.1222  0.4446
 3840TIP3    H133155   6.621   4.666   2.285  0.8910  0.0741  1.9882
 3840TIP3    H233156   6.710   4.737   2.185 -1.6280  0.0362 -0.4005
 3841TIP3   OH233157   4.809   3.707   7.072 -0.1627  0.3332 -0.2355
 3841TIP3    H133158   4.831   3.620   7.104 -1.5404  0.0660  0.0401
 3841TIP3    H233159   4.715   3.704   7.055  0.2537  0.7763 -3.2811
 3842TIP3   OH233160   4.192   2.759   7.598 -0.2699  0.2599  0.0186
 3842TIP3    H133161   4.104   2.752   7.636 -0.0247 -2.8247  0.3216
 3842TIP3    H233162   4.177   2.777   7.505 -1.0514  2.7256  0.5567
 3843TIP3   OH233163   6.674   0.833   7.628 -0.3365 -0.1050  0.1567
 3843TIP3    H133164   6.684   0.858   7.720 -0.0888 -0.7661  0.3110
 3843TIP3    H233165   6.610   0.762   7.628 -0.2111 -0.2211 -0.1602
 3844TIP3   OH233166   1.479   4.376   2.098  0.1365 -0.0599 -0.2991
 3844TIP3    H133167   1.519   4.424   2.171 -2.2161 -1.5666  2.2220
 3844TIP3    H233168   1.418   4.439   2.059  0.0657  0.2425  0.2839
 3845TIP3   OH233169   0.894   2.958   0.210 -0.5627  0.0853  1.0995
 3845TIP3    H133170   0.953   3.018   0.256 -0.1840 -1.0308  2.0974
 3845TIP3    H233171   0.816   2.954   0.265 -0.8331  0.1187  0.7217
 3846TIP3   OH233172   3.139   3.042   2.779  0.1610  0.3721  0.5225
 3846TIP3    H133173   3.130   3.100   2.855 -0.4825  1.3841 -0.2981
 3846TIP3    H233174   3.111   3.095   2.705  0.7416 -0.6101 -0.4317
 3847TIP3   OH233175   1.531   1.639   0.977 -0.4036  0.3110 -0.3888
 3847TIP3    H133176   1.475   1.708   1.011 -0.9036 -0.9866  1.5753
 3847TIP3    H233177   1.579   1.607   1.053 -0.6245 -1.8786 -1.0895
 3848TIP3   OH233178   2.471   0.292   8.254 -0.2469  0.1621  0.0678
 3848TIP3    H133179   2.424   0.247   8.184  0.9473  1.3094 -1.5603
 3848TIP3    H233180   2.487   0.380   8.219 -0.7842  1.2516  2.3412
 3849TIP3   OH233181   6.242   0.732   8.856 -0.1500  0.8762 -0.2430
 3849TIP3    H133182   6.216   0.824   8.865 -0.7752  0.8333 -1.3730
 3849TIP3    H233183   6.196   0.702   8.777  0.3884 -0.2873 -0.1346
 3850TIP3   OH233184   1.273   6.032   2.041 -0.2633 -0.0655 -0.0453
 3850TIP3    H133185   1.353   6.080   2.021  0.6751 -0.9062  1.5654
 3850TIP3    H233186   1.231   6.083   2.110 -1.1247  0.3492 -0.8523
 3851TIP3   OH233187   6.547   5.478   0.659 -0.1734  0.9858 -0.2110
 3851TIP3    H133188   6.567   5.480   0.566  0.3544 -1.0251 -0.1799
 3851TIP3    H233189   6.576   5.391   0.689  0.4787  1.8889  2.0151
 3852TIP3   OH233190   6.231   4.197   7.673 -0.1180 -0.3234 -0.5080
 3852TIP3    H133191   6.229   4.235   7.761  0.2356  0.3863 -0.7988
 3852TIP3    H233192   6.139   4.175   7.654 -0.1765 -0.6072  0.0837
 3853TIP3   OH233193   5.572   2.677   6.747  0.3128  0.4830  0.6439
 3853TIP3    H133194   5.645   2.682   6.809 -1.9098  0.1769  3.5283
 3853TIP3    H233195   5.565   2.584   6.724 -0.7517  0.0352  2.5667
 3854TIP3   OH233196   1.819   2.755   8.731  0.8350 -0.1326  0.1706
 3854TIP3    H133197   1.897   2.744   8.677 -0.3337  1.9773 -2.1377
 3854TIP3    H233198   1.837   2.830   8.786  0.4190  0.4644 -0.4869
 3855TIP3   OH233199   0.876   4.470   0.557  0.0530  0.7209 -0.1390
 3855TIP3    H133200   0.818   4.546   0.554  0.4110  0.9870 -0.5564
 3855TIP3    H233201   0.917   4.469   0.470  0.4829  0.3949  0.0670
 3856TIP3   OH233202   4.455   5.489   1.071  0.0438  0.1283  0.0597
 3856TIP3    H133203   4.444   5.461   1.162  0.2460  1.2739  0.4484
 3856TIP3    H233204   4.396   5.564   1.061  0.1736  0.1419 -0.6949
 3857TIP3   OH233205   6.262   2.645   8.603 -0.2272  0.0639  0.2456
 3857TIP3    H133206   6.172   2.662   8.633 -0.0516  1.2279  0.1715
 3857TIP3    H233207   6.252   2.616   8.512 -0.5020  0.7859  0.0371
 3858TIP3   OH233208   4.252   2.954   0.152 -0.4770 -0.0734 -0.7902
 3858TIP3    H133209   4.260   2.859   0.162 -2.1375 -0.0321  2.1975
 3858TIP3    H233210   4.333   2.989   0.189 -0.3364 -0.2924 -0.8851
 3859TIP3   OH233211   0.225   1.042   1.845  0.0301 -0.1325 -0.1725
 3859TIP3    H133212   0.288   0.970   1.847  0.6239  0.3672 -0.5620
 3859TIP3    H233213   0.242   1.090   1.926  0.3147  0.1377 -0.3909
 3860TIP3   OH233214   5.544   2.222   0.585  0.0215  0.4720  0.2591
 3860TIP3    H133215   5.484   2.171   0.531 -0.4572  2.0222 -0.7494
 3860TIP3    H233216   5.624   2.228   0.534  0.8835 -1.0675  1.3378
 3861TIP3   OH233217   1.451   2.826   1.081  0.3420 -0.1638 -0.5049
 3861TIP3    H133218   1.412   2.863   1.161  1.3658 -1.3880  0.6161
 3861TIP3    H233219   1.415   2.879   1.010  0.1019  1.5532  0.8340
 3862TIP3   OH233220   4.561   5.936   8.137  0.0820 -0.1244 -0.3022
 3862TIP3    H133221   4.614   5.868   8.178 -1.5160 -0.4850  1.2693
 3862TIP3    H233222   4.602   6.018   8.164  0.3128 -0.3998  0.1938
 3863TIP3   OH233223   5.089   6.037   0.817 -0.4648  0.1447 -0.2440
 3863TIP3    H133224   5.029   6.086   0.761 -0.1850 -0.5388 -1.1787
 3863TIP3    H233225   5.090   6.085   0.900 -1.8189  0.5027 -0.4176
 3864TIP3   OH233226   5.521   0.952   2.517  0.1370  0.1400 -0.6102
 3864TIP3    H133227   5.441   1.003   2.504  1.6770  2.1398 -3.4632
 3864TIP3    H233228   5.517   0.884   2.450 -0.0303 -0.9910  0.5210
 3865TIP3   OH233229   4.405   5.874   0.037 -0.4855 -0.0793 -0.2019
 3865TIP3    H133230   4.456   5.798   0.066 -1.9274 -1.0449 -0.0475
 3865TIP3    H233231   4.381   5.919   0.117 -0.4954 -0.0602 -0.2156
 3866TIP3   OH233232   6.171   2.044   0.261 -0.1204 -0.4205  0.1674
 3866TIP3    H133233   6.187   1.980   0.330  1.7455 -0.6144 -0.4037
 3866TIP3    H233234   6.226   2.119   0.283 -1.3438  0.5162  0.1593
 3867TIP3   OH233235   1.918   4.207   0.966  0.2060  0.1610 -0.4121
 3867TIP3    H133236   1.915   4.258   0.885 -0.6903 -0.1518 -0.5877
 3867TIP3    H233237   1.932   4.272   1.035  0.4617  0.4828 -0.7627
 3868TIP3   OH233238   3.179   1.837   0.423  0.3304  0.7934  0.1890
 3868TIP3    H133239   3.226   1.767   0.468 -1.2717 -3.0038 -3.3472
 3868TIP3    H233240   3.090   1.831   0.456  0.1618  1.0540 -0.2101
 3869TIP3   OH233241   3.076   1.536   0.615  0.3872  0.2096 -0.1715
 3869TIP3    H133242   3.044   1.473   0.551 -1.1995  0.2324  0.5463
 3869TIP3    H233243   3.052   1.498   0.700 -1.1943  2.0026  0.2648
 3870TIP3   OH233244   1.850   5.344   1.297  0.1372  0.0284 -0.2960
 3870TIP3    H133245   1.783   5.277   1.313 -0.2302  0.6398  0.7475
 3870TIP3    H233246   1.883   5.323   1.209 -2.2626  0.4403 -1.3801
 3871TIP3   OH233247   6.651   2.902   1.955  0.0418 -0.3604  0.0107
 3871TIP3    H133248   6.687   2.982   1.993  0.7804 -0.1103 -1.1762
 3871TIP3    H233249   6.577   2.880   2.012 -0.7508  1.6584 -0.1487
 3872TIP3   OH233250   2.987   5.788   2.574  0.0776 -0.1637  0.0334
 3872TIP3    H133251   3.050   5.830   2.516  0.0420  0.7553  0.6470
 3872TIP3    H233252   3.014   5.814   2.662 -1.9822  1.4628  0.2598
 3873TIP3   OH233253   3.535   2.653   8.120 -0.3270 -0.5186  0.4205
 3873TIP3    H133254   3.464   2.712   8.096  0.5352 -0.5903 -2.7742
 3873TIP3    H233255   3.540   2.591   8.047  1.6703 -1.8262  1.5710
 3874TIP3   OH233256   6.126   5.672   7.780  0.6181 -0.6618 -0.3266
 3874TIP3    H133257   6.047   5.695   7.829  0.6212 -0.6369 -0.3338
 3874TIP3    H233258   6.140   5.746   7.722 -0.7797 -1.7439 -2.1259
 3875TIP3   OH233259   1.491   3.174   0.145 -0.1734 -0.2487 -0.1405
 3875TIP3    H133260   1.529   3.239   0.086 -0.4201 -0.0893 -0.1298
 3875TIP3    H233261   1.428   3.126   0.091 -1.4368  0.8242  0.3007
 3876TIP3   OH233262   0.331   4.528   7.384  0.1208  0.0285  0.2200
 3876TIP3    H133263   0.261   4.526   7.319 -0.6657 -1.2728  1.0740
 3876TIP3    H233264   0.286   4.535   7.468  1.0510 -0.0258  0.7329
 3877TIP3   OH233265   3.195   4.982   8.232  0.0844 -0.3269 -0.2791
 3877TIP3    H133266   3.210   4.889   8.214  0.0915 -0.7206  1.6087
 3877TIP3    H233267   3.177   5.020   8.146 -1.1440 -2.2886 -0.9517
 3878TIP3   OH233268   6.362   3.991   7.032  0.0869 -0.4381 -0.3647
 3878TIP3    H133269   6.333   4.000   7.123  0.7871 -2.1500  0.0680
 3878TIP3    H233270   6.452   4.024   7.032 -0.6407  1.7177 -0.9825
 3879TIP3   OH233271   5.561   6.003   1.726  0.1996  0.5540  0.0929
 3879TIP3    H133272   5.556   6.020   1.820  0.8013 -0.7684  0.3869
 3879TIP3    H233273   5.538   6.087   1.685 -1.0050  0.9001  1.3995
 3880TIP3   OH233274   0.241   0.433   1.757  0.0914  0.7080 -0.6957
 3880TIP3    H133275   0.279   0.360   1.806 -0.3574  0.9462  0.0157
 3880TIP3    H233276   0.317   0.486   1.731  0.5523 -0.6372 -2.3012
 3881TIP3   OH233277   1.102   4.492   0.699  0.0497  0.3386  0.2351
 3881TIP3    H133278   1.014   4.497   0.660  1.2518 -0.5271 -2.8960
 3881TIP3    H233279   1.096   4.547   0.777 -3.1713  0.5751 -0.0207
 3882TIP3   OH233280   3.205   3.625   8.353 -0.0680 -0.2093  0.8866
 3882TIP3    H133281   3.259   3.692   8.311  1.0265 -1.4363  0.2755
 3882TIP3    H233282   3.213   3.644   8.447  0.4830  0.3232  0.7385
 3883TIP3   OH233283   2.907   0.117   0.268 -0.2893 -0.3108  0.7353
 3883TIP3    H133284   2.960   0.056   0.319 -0.7220 -2.0134 -0.7404
 3883TIP3    H233285   2.834   0.140   0.325  1.7406  1.8299  2.6960
 3884TIP3   OH233286   5.340   4.971   0.567 -0.2264  0.1607  0.7799
 3884TIP3    H133287   5.404   4.952   0.636  1.4658 -2.2793 -1.2942
 3884TIP3    H233288   5.384   5.034   0.510 -0.1167 -0.5818  0.0222
 3885TIP3   OH233289   0.897   6.177   8.056 -0.5595 -0.4074 -0.0021
 3885TIP3    H133290   0.980   6.159   8.101  0.4186  1.8051 -0.8123
 3885TIP3    H233291   0.908   6.139   7.969 -1.0054 -1.4302  0.3771
 3886TIP3   OH233292   1.352   3.899   8.580  0.3510  0.0012 -0.3433
 3886TIP3    H133293   1.448   3.898   8.580  0.3502 -0.1987  0.3349
 3886TIP3    H233294   1.328   3.857   8.497  0.8455  0.7628 -0.8974
 3887TIP3   OH233295   5.969   0.548   7.931 -0.5304 -0.6590  0.0438
 3887TIP3    H133296   5.909   0.620   7.953 -1.1202 -1.5208  1.4249
 3887TIP3    H233297   6.056   0.586   7.940 -0.8314 -0.1318  0.9079
 3888TIP3   OH233298   6.474   1.297   6.682  0.8818  0.0638 -0.3564
 3888TIP3    H133299   6.551   1.352   6.695 -0.4468  1.8846  0.3085
 3888TIP3    H233300   6.508   1.215   6.646  3.1903  0.4635  0.7388
 3889TIP3   OH233301   5.724   3.973   7.283  0.5245  0.1947 -0.3643
 3889TIP3    H133302   5.669   4.019   7.220 -1.1841 -0.4720  0.5667
 3889TIP3    H233303   5.702   3.880   7.272  1.3903 -0.0866  0.1237
 3890TIP3   OH233304   4.415   0.113   0.806 -0.1689  0.3217 -0.5493
 3890TIP3    H133305   4.400   0.173   0.878 -0.8534 -0.5635  0.0701
 3890TIP3    H233306   4.503   0.079   0.820 -0.6912 -0.6700  0.5270
 3891TIP3   OH233307   4.918   5.694   7.387  0.0045  0.4547  0.6121
 3891TIP3    H133308   4.865   5.768   7.418  0.1817  0.9930 -0.3516
 3891TIP3    H233309   5.006   5.711   7.420  0.4330  1.5737 -1.0004
 3892TIP3   OH233310   3.860   0.737   8.301 -0.0713 -0.4784  0.0560
 3892TIP3    H133311   3.900   0.689   8.228 -0.1876 -0.0931 -0.2621
 3892TIP3    H233312   3.896   0.825   8.294 -2.5141  0.4931 -1.5101
 3893TIP3   OH233313   4.796   6.031   8.763 -0.0718  0.7207  0.5253
 3893TIP3    H133314   4.771   5.947   8.725 -0.1604  0.3283  1.4104
 3893TIP3    H233315   4.890   6.038   8.748 -0.2768  1.0991 -0.7237
 3894TIP3   OH233316   0.839   6.616   8.341 -0.0313 -0.5064  0.4676
 3894TIP3    H133317   0.795   6.560   8.277 -0.2087  0.9998 -0.8097
 3894TIP3    H233318   0.921   6.640   8.299 -0.4079  0.9740  0.5065
 3895TIP3   OH233319   3.118   4.743   0.015  0.2723 -0.3460  0.3140
 3895TIP3    H133320   3.136   4.747  -0.079  1.4882 -1.0102  0.5032
 3895TIP3    H233321   3.139   4.653   0.040  1.4473  0.2173  1.4830
 3896TIP3   OH233322   3.667   5.994   8.616  0.2962 -0.8326 -0.8021
 3896TIP3    H133323   3.642   6.085   8.634  2.3093 -0.1682 -1.1397
 3896TIP3    H233324   3.594   5.942   8.649 -1.0429  0.9174 -0.8839
 3897TIP3   OH233325   3.454   5.763   7.214 -0.1423  0.0360 -0.8795
 3897TIP3    H133326   3.483   5.676   7.241  1.8276  0.5177 -1.3077
 3897TIP3    H233327   3.446   5.757   7.119 -1.3640 -0.0402 -0.7852
 3898TIP3   OH233328   6.221   3.419   1.848 -0.0070 -0.1796  0.3470
 3898TIP3    H133329   6.211   3.324   1.853 -0.8495 -0.0467  1.5995
 3898TIP3    H233330   6.315   3.433   1.837  0.1082 -1.1634  0.0162
 3899TIP3   OH233331   6.259   0.526   7.529 -0.3838  0.2430 -0.0146
 3899TIP3    H133332   6.193   0.595   7.522 -1.6971 -0.9660 -0.0167
 3899TIP3    H233333   6.231   0.474   7.604  1.1679  0.2831  0.6282
 3900TIP3   OH233334   5.376   4.988   1.172 -0.1587 -0.3047 -0.3454
 3900TIP3    H133335   5.440   4.916   1.165 -0.6468 -0.7634 -0.1871
 3900TIP3    H233336   5.371   5.005   1.266  0.1658  0.1412 -0.4022
 3901TIP3   OH233337   0.703   4.228   0.011  0.3725 -0.2794 -0.3747
 3901TIP3    H133338   0.735   4.143  -0.021 -0.4861 -0.0208 -2.0557
 3901TIP3    H233339   0.737   4.291  -0.052 -1.2946  0.2794 -0.7642
 3902TIP3   OH233340   5.115   4.107   1.296  0.3426  0.2833  0.1364
 3902TIP3    H133341   5.058   4.164   1.244  0.3148  0.1612  0.0320
 3902TIP3    H233342   5.110   4.022   1.252 -0.3303 -0.0401  0.8047
 3903TIP3   OH233343   2.460   0.744   2.564 -0.3158  0.4123  0.1648
 3903TIP3    H133344   2.498   0.770   2.480 -1.1881 -0.5368 -0.5445
 3903TIP3    H233345   2.428   0.827   2.602 -0.6105  0.7532 -0.7995
 3904TIP3   OH233346   0.787   6.304   0.259 -0.1098  0.2207  0.3990
 3904TIP3    H133347   0.832   6.298   0.343 -0.3755 -1.2008  0.4803
 3904TIP3    H233348   0.851   6.341   0.199  1.0851 -1.4336  0.5862
 3905TIP3   OH233349   1.811   0.826   6.612  0.3267 -0.7077  0.6434
 3905TIP3    H133350   1.738   0.881   6.638  0.8223  0.5884 -0.6041
 3905TIP3    H233351   1.777   0.737   6.617 -0.8107 -0.2448  1.6767
 3906TIP3   OH233352   6.355   1.787   1.873 -0.8474  0.5424 -0.2139
 3906TIP3    H133353   6.304   1.810   1.950  0.3808  1.2859  0.4055
 3906TIP3    H233354   6.396   1.869   1.846  0.6010 -0.1529 -0.2343
 3907TIP3   OH233355   0.029   1.646   8.750  0.4583  0.0126 -0.1289
 3907TIP3    H133356   0.119   1.675   8.734  0.0437  0.0767 -2.7765
 3907TIP3    H233357  -0.023   1.726   8.746 -0.0896 -0.3908 -2.3008
 3908TIP3   OH233358   2.626   4.199   8.444  0.1825 -0.3077 -0.1347
 3908TIP3    H133359   2.681   4.122   8.458  0.8490 -0.4336 -2.9715
 3908TIP3    H233360   2.557   4.170   8.384 -0.0639  1.0678 -0.5599
 3909TIP3   OH233361   0.490   4.224   1.233  0.2627 -0.0909 -0.5092
 3909TIP3    H133362   0.445   4.194   1.154 -0.9869  0.3586  0.0048
 3909TIP3    H233363   0.554   4.155   1.252 -0.3116 -0.8230 -1.1889
 3910TIP3   OH233364   2.802   1.052   8.310  0.5258  0.2555  0.4074
 3910TIP3    H133365   2.853   0.982   8.269  1.4629  0.3304  1.3689
 3910TIP3    H233366   2.831   1.051   8.402 -0.0441  1.3636  0.6159
 3911TIP3   OH233367   5.822   2.726   8.513  0.0602 -0.1073  0.3729
 3911TIP3    H133368   5.794   2.813   8.483  0.3266  0.3394  1.3863
 3911TIP3    H233369   5.884   2.744   8.584 -0.7005 -1.1383  1.3283
 3912TIP3   OH233370   4.922   0.699   2.339  0.1131  0.1527 -0.0027
 3912TIP3    H133371   4.967   0.657   2.412  0.9457  1.2262  0.1209
 3912TIP3    H233372   4.843   0.646   2.326  1.3732 -1.7632 -0.2125
 3913TIP3   OH233373   2.264   3.816   1.259  0.3577 -0.0504 -0.1191
 3913TIP3    H133374   2.273   3.898   1.211  2.0459 -0.1998 -0.1120
 3913TIP3    H233375   2.331   3.759   1.222  1.5793 -0.2427  2.2248
 3914TIP3   OH233376   4.249   1.741   8.331 -0.6769 -0.3401 -0.1994
 3914TIP3    H133377   4.243   1.825   8.286 -0.0157  0.0998  0.5107
 3914TIP3    H233378   4.159   1.721   8.358 -1.0267 -0.4466 -1.3861
 3915TIP3   OH233379   0.784   1.275   6.689  0.0442 -0.3525  0.3629
 3915TIP3    H133380   0.780   1.240   6.779 -1.4354 -0.5880  0.2376
 3915TIP3    H233381   0.695   1.263   6.655 -0.0736  1.9184 -0.3181
 3916TIP3   OH233382   4.826   4.210   1.495 -0.0186 -0.1285 -0.2643
 3916TIP3    H133383   4.796   4.228   1.584 -0.9189 -2.2947 -0.0751
 3916TIP3    H233384   4.919   4.192   1.504  0.0121  0.2312  0.1482
 3917TIP3   OH233385   0.958   4.031   7.048 -0.1163 -0.1060 -0.2028
 3917TIP3    H133386   1.026   3.974   7.013  0.5381  0.7615 -0.3853
 3917TIP3    H233387   0.884   4.019   6.989 -0.0165 -0.8177 -0.1913
 3918TIP3   OH233388   5.566   6.229   0.916  0.0377  0.2471 -0.1208
 3918TIP3    H133389   5.632   6.284   0.959  1.2971 -0.8911 -0.5127
 3918TIP3    H233390   5.536   6.281   0.842  1.3449  0.3594 -0.5972
 3919TIP3   OH233391   5.803   6.422   0.602 -0.3887 -0.4162  0.1505
 3919TIP3    H133392   5.723   6.438   0.552  0.7464 -0.1165 -1.6295
 3919TIP3    H233393   5.828   6.508   0.635  1.3267  0.2873 -2.6806
 3920TIP3   OH233394   4.135   6.714   0.752 -0.0351  0.6459 -0.0501
 3920TIP3    H133395   4.180   6.772   0.813  0.1839 -0.4385  0.8567
 3920TIP3    H233396   4.188   6.634   0.753 -0.8130  0.1130 -0.5898
 3921TIP3   OH233397   4.041   3.037   1.186 -0.1169 -0.3750 -0.5188
 3921TIP3    H133398   4.076   3.079   1.107  0.2384 -1.6910 -1.0923
 3921TIP3    H233399   4.076   2.948   1.183  1.1247 -0.0411  1.9246
 3922TIP3   OH233400   5.568   1.643   0.356  0.5234  0.3988 -1.0029
 3922TIP3    H133401   5.597   1.579   0.422 -0.2029  0.6741 -0.3957
 3922TIP3    H233402   5.617   1.620   0.277  0.0946 -1.0792 -0.8778
 3923TIP3   OH233403   5.098   1.723   2.615 -0.0074 -0.7213  0.5248
 3923TIP3    H133404   5.057   1.807   2.596 -0.6342 -1.1374  0.0049
 3923TIP3    H233405   5.025   1.661   2.619  0.6153 -1.5832 -1.0285
 3924TIP3   OH233406   2.597   5.770   8.518  0.1048 -0.2962  0.0999
 3924TIP3    H133407   2.559   5.833   8.578 -1.2446  0.3597 -1.3576
 3924TIP3    H233408   2.638   5.823   8.450  1.3821 -1.0119  0.2936
 3925TIP3   OH233409   1.248   2.924   1.612 -0.3897 -0.0304  0.2783
 3925TIP3    H133410   1.249   2.946   1.706  0.9243 -1.2385  0.5840
 3925TIP3    H233411   1.175   2.863   1.603  0.3361 -1.0061  0.8141
 3926TIP3   OH233412   3.232   5.028   7.632  0.3980  0.0866 -0.3635
 3926TIP3    H133413   3.152   4.976   7.627  1.4023 -1.4554 -1.0102
 3926TIP3    H233414   3.209   5.112   7.594 -1.2234  0.0753  0.5375
 3927TIP3   OH233415   6.294   3.780   0.827  0.0232 -0.2617 -0.1200
 3927TIP3    H133416   6.314   3.808   0.737 -1.7971 -0.0928 -0.5143
 3927TIP3    H233417   6.378   3.749   0.861  1.0542  0.9654 -1.3910
 3928TIP3   OH233418   1.887   3.328   8.582  0.0898 -0.2875  0.0730
 3928TIP3    H133419   1.949   3.343   8.654 -0.3465 -1.7951  0.8067
 3928TIP3    H233420   1.818   3.274   8.620 -1.2900  0.6887 -0.9433
 3929TIP3   OH233421   5.868   3.274   0.955 -0.1141  0.5523  0.1947
 3929TIP3    H133422   5.944   3.244   0.905  0.9699  1.5537  1.1778
 3929TIP3    H233423   5.865   3.368   0.938 -0.9397  0.5704  0.4255
 3930TIP3   OH233424   2.463   2.433   1.127 -0.3308  0.3001 -0.2930
 3930TIP3    H133425   2.550   2.472   1.123 -0.1491  0.2955  2.1736
 3930TIP3    H233426   2.457   2.378   1.049  1.6141  0.7807 -0.8238
 3931TIP3   OH233427   1.257   1.814   2.090  0.0280 -0.0620 -0.1225
 3931TIP3    H133428   1.272   1.754   2.163 -0.2290 -0.3989 -0.3481
 3931TIP3    H233429   1.266   1.760   2.011  0.4347  0.3228 -0.3510
 3932TIP3   OH233430   3.499   1.081   6.350  0.9777 -0.0148 -0.0391
 3932TIP3    H133431   3.494   1.175   6.369  0.5409 -0.3483  1.6578
 3932TIP3    H233432   3.575   1.072   6.292  0.7215  1.4322 -0.6364
 3933TIP3   OH233433   5.022   1.330   2.319  0.2672 -0.5050  0.3708
 3933TIP3    H133434   5.105   1.284   2.306  0.7741  0.3229  0.6209
 3933TIP3    H233435   4.980   1.284   2.392  0.9978 -0.2663  0.9480
 3934TIP3   OH233436   1.378   4.256   1.324 -0.9952  0.2643  0.2573
 3934TIP3    H133437   1.461   4.209   1.326 -1.4823 -0.6285  2.2666
 3934TIP3    H233438   1.391   4.332   1.382 -1.8504 -0.4571  1.4497
 3935TIP3   OH233439   3.337   4.360   8.487  0.5679 -0.0491 -0.2132
 3935TIP3    H133440   3.336   4.456   8.482  0.5564  0.1213  1.8987
 3935TIP3    H233441   3.245   4.335   8.480  0.3122  0.3119  1.3482
 3936TIP3   OH233442   3.257   0.360   6.543 -0.2831 -0.1161  0.2890
 3936TIP3    H133443   3.222   0.287   6.594 -0.2652 -0.6659 -0.4777
 3936TIP3    H233444   3.288   0.321   6.462 -0.3376  0.7539 -0.1647
 3937TIP3   OH233445   1.346   1.687   7.105  0.5555 -0.2574  0.2703
 3937TIP3    H133446   1.294   1.628   7.161  0.8830 -2.2059 -1.3473
 3937TIP3    H233447   1.338   1.772   7.147 -0.3210 -1.3453  2.5143
 3938TIP3   OH233448   1.947   5.350   6.946  0.0678  0.3254 -0.0956
 3938TIP3    H133449   1.900   5.396   6.876 -0.3883  1.1870  0.7558
 3938TIP3    H233450   1.985   5.420   6.999 -0.7367 -0.2509  1.2993
 3939TIP3   OH233451   0.063   0.434   6.370  0.2972  0.1219  0.0697
 3939TIP3    H133452  -0.021   0.389   6.358 -0.4186  1.3622  0.2896
 3939TIP3    H233453   0.122   0.366   6.403  0.1163 -1.4233 -2.4965
 3940TIP3   OH233454   0.869   5.076   2.169  0.0801  0.2351  0.3188
 3940TIP3    H133455   0.838   5.063   2.079  0.0037  3.7366 -0.3060
 3940TIP3    H233456   0.964   5.063   2.163  0.1508  0.9700 -0.4321
 3941TIP3   OH233457   4.510   0.246   8.792  0.5670  0.4792  0.3165
 3941TIP3    H133458   4.440   0.310   8.793  1.4001  1.4296 -0.3583
 3941TIP3    H233459   4.539   0.240   8.883 -1.6729 -1.4386  1.0008
 3942TIP3   OH233460   0.090   1.136   1.635  0.0162 -0.3850  0.6235
 3942TIP3    H133461   0.039   1.198   1.687 -0.6433 -0.3388 -0.0536
 3942TIP3    H233462   0.146   1.091   1.698  0.2140  0.6108  1.1845
 3943TIP3   OH233463   4.580   2.547   8.646 -0.3668 -0.1288 -0.3407
 3943TIP3    H133464   4.519   2.584   8.709 -1.0480 -0.2126 -0.9452
 3943TIP3    H233465   4.595   2.617   8.583  0.7783  0.1634  0.2149
 3944TIP3   OH233466   0.054   4.180   8.311 -0.2402  0.5259  0.2358
 3944TIP3    H133467  -0.011   4.210   8.374 -1.3649 -3.2487  1.1104
 3944TIP3    H233468   0.101   4.109   8.356  2.2980  0.9492 -1.5273
 3945TIP3   OH233469   3.377   0.987   8.726 -0.4388  0.9308 -0.2954
 3945TIP3    H133470   3.350   1.036   8.649 -1.3360 -1.1848 -1.4110
 3945TIP3    H233471   3.316   0.913   8.729  0.6918  0.0159  1.4396
 3946TIP3   OH233472   3.002   1.165   1.695 -0.4955 -0.2254 -0.0043
 3946TIP3    H133473   3.057   1.194   1.768 -0.1840 -1.1522  0.1439
 3946TIP3    H233474   3.023   1.225   1.624  0.7179 -0.5650  0.0546
 3947TIP3   OH233475   2.352   5.164   0.753 -0.0714 -0.2301 -0.1043
 3947TIP3    H133476   2.401   5.210   0.686  0.5257 -0.7340 -0.0202
 3947TIP3    H233477   2.263   5.199   0.746 -0.1391 -0.6275 -1.4795
 3948TIP3   OH233478   2.994   2.725   1.273  0.4165 -0.3055 -0.5359
 3948TIP3    H133479   2.974   2.750   1.364 -1.2963  0.5072 -1.0904
 3948TIP3    H233480   3.050   2.648   1.281 -0.5419 -0.8682  1.2186
 3949TIP3   OH233481   5.133   1.955   7.163  0.3131  0.1799 -0.3050
 3949TIP3    H133482   5.111   2.034   7.115  0.4345 -0.0124 -0.6802
 3949TIP3    H233483   5.192   1.907   7.105 -0.1485 -0.4163 -0.2992
 3950TIP3   OH233484   3.372   0.654   0.855 -0.3827 -0.7151  0.4585
 3950TIP3    H133485   3.461   0.619   0.845  0.2424  0.7994  0.5181
 3950TIP3    H233486   3.381   0.747   0.837 -2.3711 -0.8561 -1.8005
 3951TIP3   OH233487   5.034   5.510   1.573 -0.1511  0.0228 -0.4945
 3951TIP3    H133488   5.095   5.546   1.637 -1.0066  0.4498  0.0950
 3951TIP3    H233489   4.977   5.454   1.624  0.7342 -1.6741 -1.2990
 3952TIP3   OH233490   3.703   1.885   1.747  0.1664  0.4587  0.1288
 3952TIP3    H133491   3.619   1.932   1.753  0.4072  0.9905 -0.4820
 3952TIP3    H233492   3.762   1.933   1.805 -0.6210 -1.5537  2.8278
 3953TIP3   OH233493   2.512   2.779   2.349  0.5456  0.3355 -0.1045
 3953TIP3    H133494   2.451   2.723   2.397  1.0497 -0.3795 -0.2843
 3953TIP3    H233495   2.588   2.724   2.334  1.4097  1.3342  0.4614
 3954TIP3   OH233496   4.919   2.536   1.642  0.1958  0.5764  0.0024
 3954TIP3    H133497   5.010   2.508   1.642  0.7476  2.2081  1.0779
 3954TIP3    H233498   4.903   2.567   1.553  0.9419  1.0539  0.0307
 3955TIP3   OH233499   6.390   0.639   2.633  0.3123  0.0106  0.0117
 3955TIP3    H133500   6.383   0.734   2.641  1.7131  0.1313  0.0596
 3955TIP3    H233501   6.300   0.608   2.634 -0.2833  1.4732 -1.7701
 3956TIP3   OH233502   6.111   3.315   1.122  0.0247 -0.4385  0.3880
 3956TIP3    H133503   6.018   3.293   1.134 -0.5001  2.2849  2.3973
 3956TIP3    H233504   6.150   3.300   1.208  0.3871  2.4391  0.8392
 3957TIP3   OH233505   2.375   0.384   7.124 -0.1561 -0.3952  0.2135
 3957TIP3    H133506   2.395   0.476   7.109  0.7787 -0.5432  0.4897
 3957TIP3    H233507   2.328   0.356   7.046 -1.6934  0.6605  0.7283
 3958TIP3   OH233508   3.119   3.782   7.771  0.5347 -0.4193 -0.0841
 3958TIP3    H133509   3.060   3.743   7.834  0.9411  0.2323  0.7186
 3958TIP3    H233510   3.177   3.711   7.744 -0.8988 -1.1955 -1.2722
 3959TIP3   OH233511   4.617   3.510   8.520  0.1263  0.7233  0.2538
 3959TIP3    H133512   4.710   3.495   8.506 -0.2552 -0.2021 -1.6530
 3959TIP3    H233513   4.603   3.602   8.499  0.7839  1.2016  1.7883
 3960TIP3   OH233514   5.268   6.351   2.016 -0.8173 -0.2156  0.7418
 3960TIP3    H133515   5.357   6.327   2.044  0.2403  1.0185 -1.2673
 3960TIP3    H233516   5.247   6.288   1.947  0.0758  1.5477 -1.2987
 3961TIP3   OH233517   5.466   6.804   7.839  0.4630  0.5295  0.3540
 3961TIP3    H133518   5.534   6.834   7.778 -0.1650  0.0155 -0.6418
 3961TIP3    H233519   5.443   6.717   7.806 -1.8371  1.3368 -0.3573
 3962TIP3   OH233520   4.181   4.318   6.693  0.1054 -0.2725 -0.3916
 3962TIP3    H133521   4.195   4.256   6.622 -0.0463  1.7785 -2.3543
 3962TIP3    H233522   4.149   4.265   6.766 -0.4689 -2.3949 -2.0824
 3963TIP3   OH233523   1.428   2.952   2.047  0.3096 -0.4447  0.1288
 3963TIP3    H133524   1.517   2.966   2.078 -0.3875  2.4271  1.1425
 3963TIP3    H233525   1.374   2.958   2.126 -1.0561  1.7540 -0.8689
 3964TIP3   OH233526   6.125   0.539   6.203  0.9800 -0.0791 -0.1788
 3964TIP3    H133527   6.157   0.589   6.129  1.8926  2.5691  1.8458
 3964TIP3    H233528   6.198   0.480   6.225  0.2293 -1.7956 -2.0498
 3965TIP3   OH233529   2.568   4.101   8.683 -0.0914 -0.0518  0.4333
 3965TIP3    H133530   2.475   4.105   8.707 -0.4264  1.6847 -0.9334
 3965TIP3    H233531   2.582   4.180   8.631  2.0220 -0.6015  0.1007
 3966TIP3   OH233532   6.012   1.482   8.857 -0.4582  0.1591  0.2835
 3966TIP3    H133533   6.102   1.504   8.881 -0.3052 -0.6140  0.4439
 3966TIP3    H233534   6.009   1.496   8.762 -0.0937 -0.0638  0.2366
 3967TIP3   OH233535   2.512   4.910   8.423  0.2308  0.0478 -0.6505
 3967TIP3    H133536   2.486   4.991   8.381 -0.8721  0.1338  0.1619
 3967TIP3    H233537   2.605   4.922   8.443 -0.0019  1.2366 -0.2405
 3968TIP3   OH233538   3.148   4.249   0.168 -0.1587  0.0412 -0.1488
 3968TIP3    H133539   3.177   4.329   0.212  2.4047 -1.2039  0.6290
 3968TIP3    H233540   3.053   4.260   0.158 -0.0482  2.6737  0.8945
 3969TIP3   OH233541   5.376   6.737   8.279  0.2622 -0.5117 -0.1872
 3969TIP3    H133542   5.382   6.812   8.220 -0.9878 -1.2898 -1.3549
 3969TIP3    H233543   5.458   6.739   8.329  0.8854  0.7685 -1.2174
 3970TIP3   OH233544   3.533   6.554   0.006  0.1706 -0.1671 -0.6372
 3970TIP3    H133545   3.564   6.583   0.092 -1.3141  0.6164 -0.3470
 3970TIP3    H233546   3.589   6.479  -0.015  0.7373 -0.2034  0.8769
 3971TIP3   OH233547   2.108   1.338   7.316  0.0776  0.0361  0.5081
 3971TIP3    H133548   2.196   1.317   7.348  0.2186 -1.4912 -0.7842
 3971TIP3    H233549   2.122   1.401   7.245  0.2329 -1.0568 -0.4445
 3972TIP3   OH233550   2.929   6.528   8.732 -0.3435 -0.0206  0.2466
 3972TIP3    H133551   3.000   6.588   8.755  0.2271 -1.0966  1.4403
 3972TIP3    H233552   2.891   6.502   8.816 -1.1429 -0.6629 -0.2956
 3973TIP3   OH233553   0.793   1.686   0.500 -0.2011  0.3976 -0.8365
 3973TIP3    H133554   0.776   1.684   0.406 -1.1248  0.9471 -0.6905
 3973TIP3    H233555   0.859   1.755   0.511  0.2610  0.0095 -1.1228
 3974TIP3   OH233556   1.213   1.565   0.834 -0.0313 -0.2325  0.5317
 3974TIP3    H133557   1.278   1.611   0.886 -1.3406  2.3197  0.0455
 3974TIP3    H233558   1.137   1.623   0.833 -1.3585 -1.8657 -1.1813
 3975TIP3   OH233559   0.135   2.282   1.017  0.4406 -0.2961 -0.2902
 3975TIP3    H133560   0.074   2.263   0.946 -0.3136 -0.2294  0.3190
 3975TIP3    H233561   0.101   2.363   1.056  0.1712 -0.9306  0.8464
 3976TIP3   OH233562   0.281   4.841   0.019  0.3411  0.9467  0.2356
 3976TIP3    H133563   0.222   4.779   0.062  0.2936  0.8020 -0.0427
 3976TIP3    H233564   0.359   4.790  -0.003 -0.3519  0.5685 -1.4922
 3977TIP3   OH233565   6.268   0.950   1.995  0.0707 -0.0530 -0.2580
 3977TIP3    H133566   6.197   0.893   1.964  0.7278 -0.3979 -1.1618
 3977TIP3    H233567   6.346   0.916   1.952  0.7453  0.4982  0.5111
 3978TIP3   OH233568   2.715   1.550   0.127  0.1121 -0.0260 -0.0088
 3978TIP3    H133569   2.748   1.494   0.057  0.9195  1.2535 -0.6929
 3978TIP3    H233570   2.621   1.533   0.130  0.1368 -0.4057 -1.1193
 3979TIP3   OH233571   1.212   1.744   8.596  0.2855 -0.3600  0.0758
 3979TIP3    H133572   1.194   1.793   8.676 -0.1181 -0.9499  0.3554
 3979TIP3    H233573   1.307   1.741   8.590  0.3219  0.5681 -0.0225
 3980TIP3   OH233574   3.220   0.434   8.717 -0.1759  0.0987  0.4393
 3980TIP3    H133575   3.247   0.370   8.783 -0.9539 -2.6066 -1.7061
 3980TIP3    H233576   3.298   0.445   8.661 -1.3585 -3.0665 -2.1667
 3981TIP3   OH233577   0.538   4.607   1.500 -0.0001 -0.6289 -0.0314
 3981TIP3    H133578   0.600   4.536   1.519 -0.5352 -1.0995 -0.0125
 3981TIP3    H233579   0.499   4.582   1.416  0.3141  0.0046 -0.3673
 3982TIP3   OH233580   6.563   3.066   7.830  0.1273 -0.0186  0.2603
 3982TIP3    H133581   6.620   3.135   7.796  1.5681 -1.3027 -0.0842
 3982TIP3    H233582   6.485   3.069   7.774  0.6431  0.6099 -0.4539
 3983TIP3   OH233583   4.081   6.284   0.625 -0.2688 -0.2527 -0.3647
 3983TIP3    H133584   4.099   6.252   0.714  0.6581  1.8261  0.2598
 3983TIP3    H233585   4.027   6.361   0.637 -0.1427  0.0603 -1.6199
 3984TIP3   OH233586   2.701   1.887   6.218  0.0424  0.3278 -0.5163
 3984TIP3    H133587   2.656   1.962   6.258 -0.2683 -0.0052 -0.2383
 3984TIP3    H233588   2.632   1.823   6.201  0.5950 -1.0068  1.7319
 3985TIP3   OH233589   2.050   3.588   1.212 -0.9683  0.1826 -0.1119
 3985TIP3    H133590   2.029   3.593   1.118 -0.6148 -1.4307 -0.3120
 3985TIP3    H233591   2.084   3.675   1.234 -1.8863  0.8658 -1.2595
 3986TIP3   OH233592   0.514   3.677   8.804 -0.1904  0.0823 -0.1524
 3986TIP3    H133593   0.565   3.691   8.724 -0.0196  1.2400  0.1394
 3986TIP3    H233594   0.571   3.709   8.874 -0.9499  0.5104  0.2772
 3987TIP3   OH233595   2.126   4.656   8.689  0.3495 -0.6933 -0.6512
 3987TIP3    H133596   2.125   4.619   8.601 -0.9965  1.5009 -1.6519
 3987TIP3    H233597   2.199   4.718   8.688  0.5161 -0.8772 -0.1119
 3988TIP3   OH233598   5.193   6.610   2.158 -0.1775  0.0105  0.2986
 3988TIP3    H133599   5.288   6.620   2.164  0.0227 -1.7200  0.6220
 3988TIP3    H233600   5.181   6.524   2.118 -1.6148  0.0290  0.6427
 3989TIP3   OH233601   1.943   2.982   7.221  0.1294 -0.1704  0.0778
 3989TIP3    H133602   1.852   2.953   7.231 -0.6977  2.6884  1.9208
 3989TIP3    H233603   1.969   2.948   7.135 -3.0288 -0.1913 -1.0138
 3990TIP3   OH233604   2.139   5.967   1.768  0.2484 -0.3315  0.1383
 3990TIP3    H133605   2.080   6.028   1.812  1.1284  0.9667 -0.4540
 3990TIP3    H233606   2.155   5.898   1.833 -1.1340 -0.2122  0.6405
 3991TIP3   OH233607   6.220   6.525   7.495  0.2100  0.1840  0.6647
 3991TIP3    H133608   6.296   6.480   7.530  0.7717  0.0010 -0.7248
 3991TIP3    H233609   6.251   6.568   7.415 -1.1905 -0.1500 -0.1104
 3992TIP3   OH233610   6.304   0.241   1.765 -0.1203  0.1482 -0.0584
 3992TIP3    H133611   6.327   0.303   1.696  1.2772 -0.8837 -0.5571
 3992TIP3    H233612   6.386   0.221   1.809 -0.5859 -1.0717  0.3185
 3993TIP3   OH233613   6.215   4.016   0.721 -0.1931  0.8907 -0.2413
 3993TIP3    H133614   6.305   3.986   0.706  0.0295  1.0017  0.7807
 3993TIP3    H233615   6.216   4.050   0.810 -1.2571  0.8713 -0.2096
 3994TIP3   OH233616   2.559   5.308   1.000 -0.4462  0.8462 -0.0251
 3994TIP3    H133617   2.626   5.245   1.026 -1.3775  0.1587  0.7878
 3994TIP3    H233618   2.517   5.269   0.924 -2.4707 -0.6688  1.7261
 3995TIP3   OH233619   0.171   6.454   8.538  0.0765 -0.1742 -0.3350
 3995TIP3    H133620   0.238   6.423   8.476  1.8168 -0.9553  1.8078
 3995TIP3    H233621   0.162   6.547   8.518  2.1238  0.0476 -0.4549
 3996TIP3   OH233622   5.630   2.785   2.662 -0.1141 -0.0827 -0.5112
 3996TIP3    H133623   5.577   2.705   2.653 -0.9020  0.0765  1.8934
 3996TIP3    H233624   5.566   2.856   2.660  0.1974  0.2437  0.4807
 3997TIP3   OH233625   6.431   4.010   1.282  0.3531 -0.1509 -0.4885
 3997TIP3    H133626   6.512   4.053   1.257  0.1182  0.7851  0.2958
 3997TIP3    H233627   6.448   3.917   1.269  1.8662 -0.0520  0.5276
 3998TIP3   OH233628   5.921   0.789   0.570 -0.4732 -0.7639  0.4041
 3998TIP3    H133629   5.827   0.807   0.563 -0.2764  0.7323  1.2601
 3998TIP3    H233630   5.958   0.824   0.489 -0.8532 -3.1868 -0.9051
 3999TIP3   OH233631   1.165   3.236   6.971  0.0928  0.4362 -0.2093
 3999TIP3    H133632   1.111   3.276   7.039  1.8867  0.2022  1.4595
 3999TIP3    H233633   1.102   3.196   6.911 -1.6836  3.4845 -0.5774
 4000TIP3   OH233634   5.909   5.126   0.642  0.3628  0.3671 -0.2384
 4000TIP3    H133635   5.878   5.048   0.596 -0.9050  0.4288  0.4740
 4000TIP3    H233636   5.939   5.094   0.726 -0.3243  0.6554  0.1243
 4001TIP3   OH233637   2.492   4.674   0.244 -0.3537  0.5510  0.4132
 4001TIP3    H133638   2.523   4.592   0.284  1.5377  1.7032  1.4117
 4001TIP3    H233639   2.407   4.689   0.285 -1.2205 -1.3686 -0.5047
 4002TIP3   OH233640   5.018   0.810   0.924 -0.6194 -0.4901  0.3019
 4002TIP3    H133641   5.005   0.854   0.840 -2.0710 -1.0566  0.2031
 4002TIP3    H233642   5.112   0.821   0.943 -0.7394  1.8131 -0.1550
 4003TIP3   OH233643   4.713   1.397   7.800  0.4391 -0.0334 -0.2241
 4003TIP3    H133644   4.723   1.482   7.843 -0.2979  0.6985 -1.4347
 4003TIP3    H233645   4.624   1.399   7.763  0.2262 -1.5284  0.1405
 4004TIP3   OH233646   1.691   2.690   2.021 -0.2116  0.2774 -0.1269
 4004TIP3    H133647   1.599   2.663   2.020 -0.4936  1.0228 -2.7198
 4004TIP3    H233648   1.689   2.781   2.049 -0.3642  0.4626 -0.7110
 4005TIP3   OH233649   5.087   2.890   7.923 -0.2399  0.0863  0.4421
 4005TIP3    H133650   5.098   2.929   8.010 -2.9537  1.0512  0.4793
 4005TIP3    H233651   5.016   2.827   7.934 -3.1398  2.6271 -1.5463
 4006TIP3   OH233652   5.284   2.004   7.697 -0.2301 -1.2054  0.1310
 4006TIP3    H133653   5.322   2.092   7.702  1.8268 -2.0904  1.2757
 4006TIP3    H233654   5.348   1.952   7.649 -1.4147 -2.1268 -0.5353
 4007TIP3   OH233655   5.336   4.924   7.909  0.1504  0.0273 -0.0806
 4007TIP3    H133656   5.255   4.928   7.961  0.1527  0.6872 -0.1251
 4007TIP3    H233657   5.332   4.838   7.867  0.0786 -0.4674  0.8985
 4008TIP3   OH233658   5.873   0.578   1.223  0.6375  0.3023 -0.3378
 4008TIP3    H133659   5.906   0.588   1.134 -0.4588  3.3755 -0.5270
 4008TIP3    H233660   5.933   0.629   1.278  0.4848 -0.3624  0.4690
 4009TIP3   OH233661   2.896   4.860   8.157 -0.0051  0.2761 -0.6392
 4009TIP3    H133662   2.898   4.849   8.252  0.2745 -1.5694 -0.8100
 4009TIP3    H233663   2.825   4.802   8.128 -0.1139  0.8482 -1.5498
 4010TIP3   OH233664   3.401   4.451   7.237  0.4912  1.1451 -0.4544
 4010TIP3    H133665   3.394   4.457   7.332 -0.1992 -1.6782 -0.2429
 4010TIP3    H233666   3.479   4.399   7.221  0.1877  0.9498 -1.3925
 4011TIP3   OH233667   6.229   1.596   8.509 -0.6906  0.0452 -0.1259
 4011TIP3    H133668   6.136   1.588   8.529 -0.7179  0.0857 -0.2364
 4011TIP3    H233669   6.264   1.508   8.522 -0.8024 -0.0387 -0.3825
 4012TIP3   OH233670   2.761   0.387   2.561  0.4647 -0.0013 -0.0214
 4012TIP3    H133671   2.755   0.464   2.617  1.6251 -0.0629  0.2037
 4012TIP3    H233672   2.788   0.421   2.475  0.3002 -0.0814 -0.1054
 4013TIP3   OH233673   1.496   5.013   0.119 -0.0757 -0.0487 -0.1152
 4013TIP3    H133674   1.531   5.096   0.152  0.0392  0.3684 -1.2605
 4013TIP3    H233675   1.401   5.024   0.125 -0.0759  0.4310 -0.8705
 4014TIP3   OH233676   2.021   4.143   1.393  0.7000 -0.0222  0.1277
 4014TIP3    H133677   2.113   4.162   1.407  1.1357 -2.1974  0.6522
 4014TIP3    H233678   1.990   4.109   1.477  0.4218 -2.7308 -0.9555
 4015TIP3   OH233679   6.077   1.496   1.750  0.0994  0.1530  0.0284
 4015TIP3    H133680   6.111   1.504   1.839 -0.1966 -2.1612  0.4020
 4015TIP3    H233681   6.152   1.468   1.698  0.4416  2.1511 -0.6543
 4016TIP3   OH233682   5.583   1.063   7.545  0.2190 -0.5065 -0.5051
 4016TIP3    H133683   5.514   1.108   7.594 -0.7781 -0.6346 -1.7371
 4016TIP3    H233684   5.595   1.116   7.466  1.9474 -0.1832 -0.0808
 4017TIP3   OH233685   4.719   0.171   7.022  0.3527  0.2700  0.0313
 4017TIP3    H133686   4.718   0.267   7.016  0.3051  0.1799 -2.7841
 4017TIP3    H233687   4.662   0.142   6.952  0.1827 -1.8559  0.9745
 4018TIP3   OH233688   3.242   6.127   7.168  0.2080  0.8000  0.9507
 4018TIP3    H133689   3.156   6.164   7.148  0.9677  1.3352 -1.7032
 4018TIP3    H233690   3.228   6.074   7.247 -2.9044 -0.3306 -0.2130
 4019TIP3   OH233691   5.706   6.047   7.313  0.3207 -0.2462 -0.0276
 4019TIP3    H133692   5.744   5.980   7.370 -0.2514 -0.8466 -0.3443
 4019TIP3    H233693   5.611   6.034   7.321  0.2168  0.2719 -0.3946
 4020TIP3   OH233694   0.780   5.190   0.595  0.4791  0.4067 -0.2791
 4020TIP3    H133695   0.773   5.123   0.663 -0.4399  0.6304 -0.1332
 4020TIP3    H233696   0.701   5.178   0.542  0.2480  1.4273 -0.1901
 4021TIP3   OH233697   3.422   2.466   0.288 -0.2415 -0.0926  0.1232
 4021TIP3    H133698   3.336   2.503   0.272  0.0910  0.2045 -1.0706
 4021TIP3    H233699   3.483   2.540   0.279  0.1873 -0.4101  0.3543
 4022TIP3   OH233700   2.608   4.036   1.099 -0.3417 -0.2894  0.1450
 4022TIP3    H133701   2.638   3.969   1.159 -0.0006 -0.0717  0.2225
 4022TIP3    H233702   2.591   4.112   1.154  2.9348  0.9320 -0.3053
 4023TIP3   OH233703   3.672   6.493   6.980 -0.4523 -0.2392  0.3355
 4023TIP3    H133704   3.752   6.440   6.981  0.3818  0.9848  1.7656
 4023TIP3    H233705   3.601   6.429   6.990  0.5028 -1.1237  1.6922
 4024TIP3   OH233706   3.437   0.328   1.812 -0.1150 -0.1167 -0.1124
 4024TIP3    H133707   3.452   0.266   1.883 -0.5790 -1.2889 -0.9969
 4024TIP3    H233708   3.479   0.409   1.841  1.8720 -1.2745  0.4406
 4025TIP3   OH233709   3.757   0.593   7.274  0.0068 -0.1360 -0.3404
 4025TIP3    H133710   3.776   0.642   7.194 -0.9367 -1.1095 -1.1863
 4025TIP3    H233711   3.714   0.657   7.331 -1.2400  0.0453 -1.4374
 4026TIP3   OH233712   1.823   6.375   6.783  0.4115 -0.1532  0.1761
 4026TIP3    H133713   1.836   6.459   6.827  0.4936 -0.1643  0.1727
 4026TIP3    H233714   1.843   6.393   6.691 -1.1161  0.2152 -0.1147
 4027TIP3   OH233715   5.820   4.484   1.639 -0.1543  0.1021  0.8929
 4027TIP3    H133716   5.881   4.483   1.565  0.4979  0.3842  1.4138
 4027TIP3    H233717   5.734   4.471   1.599  0.2195 -0.0685  0.1191
 4028TIP3   OH233718   3.986   5.256   6.490 -0.3968  0.4743 -0.2874
 4028TIP3    H133719   3.924   5.299   6.549 -1.7976  0.0530 -1.3955
 4028TIP3    H233720   3.980   5.306   6.408  0.0212 -0.1270 -0.6972
 4029TIP3   OH233721   1.360   5.201   0.673 -0.1808 -0.0390  0.2175
 4029TIP3    H133722   1.361   5.292   0.700 -0.0879  0.2687 -0.7784
 4029TIP3    H233723   1.451   5.181   0.652 -0.0824 -0.5809  1.0920
 4030TIP3   OH233724   6.792   0.024   2.055 -0.4719 -0.1298  0.0594
 4030TIP3    H133725   6.702   0.006   2.082 -1.1510 -0.8703 -2.4407
 4030TIP3    H233726   6.784   0.097   1.994  0.9153  1.1380  1.3036
 4031TIP3   OH233727   0.832   0.414   7.565  0.0966  0.1197  0.2548
 4031TIP3    H133728   0.926   0.419   7.583  0.0141  1.1788  0.4450
 4031TIP3    H233729   0.791   0.424   7.651 -0.2605  3.3429 -0.1818
 4032TIP3   OH233730   0.866   5.358   2.070 -0.2573 -0.2536 -0.1579
 4032TIP3    H133731   0.846   5.402   2.153 -1.6910 -0.2233 -0.4847
 4032TIP3    H233732   0.856   5.265   2.089  1.6922 -0.4134  0.2572
 4033TIP3   OH233733   4.565   0.491   8.657  0.0641  0.2263  0.1455
 4033TIP3    H133734   4.567   0.397   8.677 -3.5939 -1.0724 -3.9825
 4033TIP3    H233735   4.477   0.519   8.683  0.7731  2.3516  0.4326
 4034TIP3   OH233736   6.754   3.582   7.889  0.4762  0.4049 -0.4597
 4034TIP3    H133737   6.673   3.610   7.931  0.7585  2.1537 -0.9567
 4034TIP3    H233738   6.796   3.664   7.863  1.6573 -0.5190 -1.6010
 4035TIP3   OH233739   3.403   2.901   1.928 -0.5215 -0.1687  0.1028
 4035TIP3    H133740   3.449   2.820   1.906 -0.9217  0.0869 -1.9083
 4035TIP3    H233741   3.473   2.964   1.947 -0.1346 -0.4957 -0.2088
 4036TIP3   OH233742   3.433   5.397   0.580  0.5887  0.4057  0.1253
 4036TIP3    H133743   3.371   5.384   0.652  0.4394  1.2006  0.1407
 4036TIP3    H233744   3.509   5.438   0.621  0.3817  1.1413 -0.2222
 4037TIP3   OH233745   3.118   2.569   7.639 -0.1537 -0.0119 -0.1109
 4037TIP3    H133746   3.156   2.529   7.561  2.3291 -0.9169  1.4500
 4037TIP3    H233747   3.045   2.511   7.663 -0.5490 -0.0640 -1.3591
 4038TIP3   OH233748   0.569   0.342   7.526  0.2831 -0.4207 -0.2371
 4038TIP3    H133749   0.586   0.421   7.474 -0.4143  1.5154  2.2406
 4038TIP3    H233750   0.649   0.328   7.575 -0.1848 -0.1655  0.6201
 4039TIP3   OH233751   0.681   6.555   8.625  0.2080 -0.0194  0.0133
 4039TIP3    H133752   0.662   6.493   8.695  0.4140  1.0819  1.0682
 4039TIP3    H233753   0.595   6.584   8.595 -0.1129 -3.0997 -2.7274
 4040TIP3   OH233754   0.334   3.777   1.503  1.0686 -0.1281 -0.1151
 4040TIP3    H133755   0.405   3.839   1.516  2.1423 -1.4308  0.4910
 4040TIP3    H233756   0.301   3.796   1.415  0.4688  2.1314  0.5251
 4041TIP3   OH233757   1.517   4.491   1.797 -0.2267 -0.4715 -0.0107
 4041TIP3    H133758   1.435   4.478   1.844  0.2543 -0.1108  0.9590
 4041TIP3    H233759   1.573   4.537   1.859  0.9312 -1.2764 -0.4283
 4042TIP3   OH233760   1.882   1.753   0.570  0.6468 -0.0025  1.0707
 4042TIP3    H133761   1.879   1.808   0.492 -0.2654 -0.5932  0.6679
 4042TIP3    H233762   1.959   1.783   0.618 -0.3861  2.3379  1.3995
 4043TIP3   OH233763   3.815   3.812   1.364  0.1578  0.1706 -0.0256
 4043TIP3    H133764   3.720   3.817   1.364  0.1889  1.7578  1.3076
 4043TIP3    H233765   3.835   3.721   1.384 -1.0647 -0.1904 -0.3926
 4044TIP3   OH233766   4.132   5.758   0.358 -0.2938 -0.3384 -0.3742
 4044TIP3    H133767   4.187   5.770   0.436  0.0938 -0.7336 -0.5834
 4044TIP3    H233768   4.119   5.847   0.325  1.9085 -0.3318 -1.4613
 4045TIP3   OH233769   5.751   2.497   7.624 -0.1977  0.4082  0.0191
 4045TIP3    H133770   5.693   2.444   7.678  0.3734  0.3464  0.5811
 4045TIP3    H233771   5.708   2.583   7.619 -0.3877  0.3331  0.3501
 4046TIP3   OH233772   5.753   4.589   2.187 -0.2126  0.4146  0.4002
 4046TIP3    H133773   5.658   4.588   2.195 -0.1612  0.5581  1.0636
 4046TIP3    H233774   5.777   4.497   2.178 -0.4372  0.4037 -0.1576
 4047TIP3   OH233775   5.971   1.668   7.122 -0.8048 -0.0730  0.2189
 4047TIP3    H133776   6.065   1.679   7.107 -1.2349  0.5144 -2.7134
 4047TIP3    H233777   5.944   1.601   7.058 -2.7860  1.8574 -1.1299
 4048TIP3   OH233778   2.658   0.499   0.166 -0.3933  0.1738  0.0755
 4048TIP3    H133779   2.697   0.583   0.142  1.2163 -0.4770  0.2848
 4048TIP3    H233780   2.635   0.508   0.258  0.0736  0.2971  0.1835
 4049TIP3   OH233781   0.178   2.634   0.889 -0.1920 -0.2898 -0.2700
 4049TIP3    H133782   0.116   2.611   0.819  0.2718 -0.1135 -0.7374
 4049TIP3    H233783   0.235   2.699   0.850  1.2002 -1.4836 -0.3031
 4050TIP3   OH233784   5.330   3.415   1.879 -0.4054  0.4414  0.1489
 4050TIP3    H133785   5.363   3.395   1.966  1.3602 -2.2678 -1.0227
 4050TIP3    H233786   5.240   3.382   1.878 -0.6537  1.0696  1.1035
 4051TIP3   OH233787   2.438   6.417   8.267  0.0925  0.2722  0.0632
 4051TIP3    H133788   2.434   6.460   8.181  0.0817 -0.9659 -0.5792
 4051TIP3    H233789   2.376   6.345   8.260  0.4812 -0.1515  0.9342
 4052TIP3   OH233790   3.440   0.214   1.410  0.0731  0.5876  0.5201
 4052TIP3    H133791   3.373   0.158   1.370  1.4270  0.6317 -2.0623
 4052TIP3    H233792   3.390   0.285   1.451 -1.5148 -0.1556 -0.0375
 4053TIP3   OH233793   2.906   2.622   0.514 -0.5088  0.1071  0.5104
 4053TIP3    H133794   2.868   2.572   0.587  0.0445 -0.8913  0.1377
 4053TIP3    H233795   2.969   2.561   0.474  0.3948  1.2096  0.2093
 4054TIP3   OH233796   1.772   0.953   1.561  0.7240  0.6428 -0.0479
 4054TIP3    H133797   1.831   0.939   1.487 -0.7808 -0.4820 -1.0825
 4054TIP3    H233798   1.752   0.866   1.594 -0.0784  1.0173  0.5063
 4055TIP3   OH233799   3.267   2.245   7.830  0.0498 -0.4395 -0.3621
 4055TIP3    H133800   3.209   2.321   7.843 -1.6148 -1.5599 -0.9854
 4055TIP3    H233801   3.213   2.181   7.784  2.0964 -1.1873 -1.8557
 4056TIP3   OH233802   4.006   4.517   0.147  0.2411 -0.1771  0.4657
 4056TIP3    H133803   3.929   4.563   0.181  0.0932 -1.3137  1.7448
 4056TIP3    H233804   3.999   4.527   0.052 -1.0893  0.3724  0.5961
 4057TIP3   OH233805   4.066   3.895   1.613  0.2336 -0.1282 -0.1794
 4057TIP3    H133806   4.068   3.863   1.522  1.1124 -1.0589  0.1546
 4057TIP3    H233807   4.145   3.948   1.622  0.0603  0.1024  0.0075
 4058TIP3   OH233808   3.307   0.900   6.253 -0.0450  0.0593  0.4018
 4058TIP3    H133809   3.378   0.950   6.295 -0.8111  1.8429 -0.3331
 4058TIP3    H233810   3.278   0.955   6.181 -1.0800 -1.3997 -0.3553
 4059TIP3   OH233811   2.702   5.267   8.756  0.2395 -0.1844  0.0061
 4059TIP3    H133812   2.658   5.182   8.757 -1.8569  0.8308 -0.4032
 4059TIP3    H233813   2.683   5.306   8.841  1.0264 -0.0460  0.1244
 4060TIP3   OH233814   3.707   4.640   0.603 -0.4894  0.8306 -0.3151
 4060TIP3    H133815   3.787   4.587   0.601 -0.2006  1.2682 -0.3598
 4060TIP3    H233816   3.647   4.594   0.544 -0.8488 -0.4090  0.9660
 4061TIP3   OH233817   5.236   5.254   1.749 -0.2544  0.4286 -0.0514
 4061TIP3    H133818   5.236   5.286   1.659  0.9971 -0.8861 -0.5545
 4061TIP3    H233819   5.326   5.266   1.778 -0.7637  1.3766  1.2667
 4062TIP3   OH233820   3.101   4.330   8.796 -0.3880  0.0777  0.0108
 4062TIP3    H133821   3.017   4.321   8.840 -0.5006  0.1710 -0.1816
 4062TIP3    H233822   3.157   4.376   8.859 -0.6931  0.6482 -0.1264
 4063TIP3   OH233823   5.251   2.368   0.531 -0.0850  0.2198  0.8452
 4063TIP3    H133824   5.253   2.458   0.563  0.5089  0.4297  0.2448
 4063TIP3    H233825   5.222   2.375   0.440  1.9880  0.0470  0.1063
 4064TIP3   OH233826   2.166   0.514   8.276  0.4725 -0.0895  0.2979
 4064TIP3    H133827   2.256   0.517   8.244  0.6232  0.4348  0.7665
 4064TIP3    H233828   2.164   0.438   8.334  0.9033  0.5321  1.1377
 4065TIP3   OH233829   5.969   1.692   1.065  0.4958 -0.1893  0.3094
 4065TIP3    H133830   5.936   1.648   1.144 -0.6915  1.2039  0.6350
 4065TIP3    H233831   6.029   1.760   1.099  0.4166  0.0469 -0.0219
 4066TIP3   OH233832   3.193   1.565   0.292 -0.9185  0.0069  0.4340
 4066TIP3    H133833   3.210   1.481   0.249 -0.4949  0.9194 -1.2786
 4066TIP3    H233834   3.098   1.572   0.293 -0.9495  0.4507 -1.4657
 4067TIP3   OH233835   3.935   5.126   0.774  0.0722 -0.1544 -0.0534
 4067TIP3    H133836   3.981   5.209   0.786 -3.1383  1.5315  2.4209
 4067TIP3    H233837   3.947   5.079   0.857 -0.6969 -0.7371 -0.2536
 4068TIP3   OH233838   5.058   4.050   8.594 -0.0501 -0.5708  0.7421
 4068TIP3    H133839   4.992   4.054   8.664 -0.6812  0.0352  0.1288
 4068TIP3    H233840   5.060   3.957   8.569 -0.9502 -0.5382  0.5125
 4069TIP3   OH233841   3.688   6.354   8.826 -0.2041 -0.3670  0.0484
 4069TIP3    H133842   3.740   6.349   8.745 -0.5742 -0.1452 -0.2081
 4069TIP3    H233843   3.604   6.313   8.803 -0.5875  0.3794  0.0864
 4070TIP3   OH233844   1.015   1.757   0.866  0.0660  0.3744  0.8945
 4070TIP3    H133845   1.012   1.765   0.770  1.5495 -1.2775  0.6315
 4070TIP3    H233846   0.925   1.766   0.894 -0.8710 -1.8661 -1.0005
 4071TIP3   OH233847   2.479   1.793   0.119  0.0089 -0.2290 -0.2158
 4071TIP3    H133848   2.483   1.701   0.147  1.0153  0.2926  1.4780
 4071TIP3    H233849   2.410   1.831   0.173  1.6543  0.6847  1.3454
 4072TIP3   OH233850   6.121   2.144   0.726 -0.2101  0.4196  0.0168
 4072TIP3    H133851   6.185   2.116   0.660  1.0447  2.9408  0.0361
 4072TIP3    H233852   6.036   2.126   0.685  0.5292  0.9548 -1.8955
 4073TIP3   OH233853   3.623   5.050   0.283  0.0025  0.1912 -0.4742
 4073TIP3    H133854   3.622   4.974   0.226 -0.2026 -1.5360  1.6879
 4073TIP3    H233855   3.566   5.026   0.357  0.1471  2.3345  0.4170
 4074TIP3   OH233856   6.346   3.622   1.421  0.2079  0.1554  0.1348
 4074TIP3    H133857   6.261   3.626   1.378  0.2030  0.3506  0.1601
 4074TIP3    H233858   6.326   3.626   1.515  0.3682  3.2239  0.1327
 4075TIP3   OH233859   4.119   3.870   8.072  0.0106 -0.1096 -0.2391
 4075TIP3    H133860   4.100   3.872   7.978 -0.3736  0.4993 -0.1579
 4075TIP3    H233861   4.110   3.778   8.097 -2.0235  0.0146 -0.3750
 4076TIP3   OH233862   3.046   6.254   0.998  0.2766 -0.1607 -0.6563
 4076TIP3    H133863   2.963   6.275   1.041  0.3048 -0.0707 -0.6446
 4076TIP3    H233864   3.021   6.223   0.911  0.0011 -3.2865  0.4099
 4077TIP3   OH233865   6.505   5.144   0.873  0.5550  0.0553  0.6097
 4077TIP3    H133866   6.516   5.182   0.785 -2.3126  0.8539  0.5082
 4077TIP3    H233867   6.539   5.055   0.864  1.4688  0.5060 -0.9390
 4078TIP3   OH233868   6.310   4.599   7.291 -0.2836  0.0098  0.0653
 4078TIP3    H133869   6.396   4.642   7.292 -0.5181  0.5257  1.6809
 4078TIP3    H233870   6.328   4.510   7.262  0.5021  0.6363 -1.4611
 4079TIP3   OH233871   5.678   1.413   6.749  0.2069 -0.6151  0.5679
 4079TIP3    H133872   5.647   1.502   6.734 -0.8078 -0.9978  0.2699
 4079TIP3    H233873   5.717   1.386   6.665 -2.1573 -1.4587 -0.3578
 4080TIP3   OH233874   2.989   3.713   8.862 -0.4069 -0.2362 -0.4334
 4080TIP3    H133875   3.039   3.789   8.894 -1.7953  0.2410  0.6958
 4080TIP3    H233876   3.053   3.642   8.862  0.7040  0.7144 -0.6399
 4081TIP3   OH233877   1.320   0.914   0.585 -0.1346 -0.3342  0.0653
 4081TIP3    H133878   1.264   0.984   0.620  0.6529 -0.2295  1.1552
 4081TIP3    H233879   1.373   0.958   0.518  0.0824  0.0327  0.4717
 4082TIP3   OH233880   2.739   5.098   1.061 -0.2689 -0.5539 -0.1727
 4082TIP3    H133881   2.712   5.010   1.036  0.0252 -0.9665  0.8795
 4082TIP3    H233882   2.828   5.107   1.027 -0.1258 -0.8513  0.1098
 4083TIP3   OH233883   2.034   1.543   7.465 -0.6718  0.2178 -0.1552
 4083TIP3    H133884   2.067   1.457   7.438  0.3591  0.6886 -0.4633
 4083TIP3    H233885   1.959   1.524   7.521 -1.0267 -0.8602 -0.9589
 4084TIP3   OH233886   1.178   6.667   1.722  0.4567 -0.4234  0.3844
 4084TIP3    H133887   1.091   6.648   1.687  1.3707 -2.0113 -1.2085
 4084TIP3    H233888   1.199   6.753   1.686 -0.8442  0.4859  1.6797
 4085TIP3   OH233889   3.959   6.282   8.388  0.0895 -0.2543 -0.2217
 4085TIP3    H133890   4.046   6.284   8.347 -0.4418  0.1569 -1.3697
 4085TIP3    H233891   3.977   6.284   8.482  1.3386 -0.7430 -0.4196
 4086TIP3   OH233892   3.300   1.324   0.514  0.5536  0.1209 -0.6155
 4086TIP3    H133893   3.334   1.369   0.437 -0.3659  1.4866 -0.2797
 4086TIP3    H233894   3.353   1.359   0.587  1.4181 -1.1589 -0.6053
 4087TIP3   OH233895   3.681   1.409   7.325  0.0804  0.4851 -0.5227
 4087TIP3    H133896   3.737   1.487   7.324 -0.4178  0.8512 -0.3149
 4087TIP3    H233897   3.627   1.419   7.403  0.1374 -0.1690 -0.3908
 4088TIP3   OH233898   5.276   5.566   1.692 -0.1168  0.2876 -0.3799
 4088TIP3    H133899   5.349   5.519   1.731 -0.2165  1.3253  1.1293
 4088TIP3    H233900   5.316   5.642   1.649 -0.2481  0.5202 -0.0922
 4089TIP3   OH233901   3.576   1.918   7.858  0.1929 -0.3402  0.4277
 4089TIP3    H133902   3.575   1.826   7.828  0.5827 -0.5802  1.1427
 4089TIP3    H233903   3.646   1.958   7.807 -0.8145 -0.1039 -0.8319
 4090TIP3   OH233904   4.456   6.528   8.019 -0.0853  0.1117 -0.3299
 4090TIP3    H133905   4.367   6.522   8.053 -0.3753 -0.0486 -1.1046
 4090TIP3    H233906   4.449   6.583   7.941  0.3349 -0.6505 -0.9232
 4091TIP3   OH233907   1.823   4.364   1.501 -1.0640 -0.2356  0.5190
 4091TIP3    H133908   1.879   4.291   1.475  1.4815  1.2720  1.3993
 4091TIP3    H233909   1.777   4.332   1.579 -0.2534 -1.0250  0.6946
 4092TIP3   OH233910   1.012   6.046   7.794 -0.5017 -0.2724 -0.0852
 4092TIP3    H133911   1.060   6.090   7.724 -1.3401  1.7619  0.5354
 4092TIP3    H233912   0.929   6.019   7.754 -0.3400 -0.5373 -0.2476
 4093TIP3   OH233913   1.569   2.124   1.068  0.4188  0.0028  0.2282
 4093TIP3    H133914   1.618   2.206   1.077  2.0393 -1.1142  2.3306
 4093TIP3    H233915   1.624   2.070   1.011 -0.3770  0.1162 -0.6870
 4094TIP3   OH233916   5.327   5.296   0.639 -0.3754 -0.4016  0.4595
 4094TIP3    H133917   5.369   5.364   0.586 -1.3764 -0.1181 -0.0016
 4094TIP3    H233918   5.399   5.250   0.681  0.3045  1.7154  1.7438
 4095TIP3   OH233919   5.261   2.028   7.968 -0.5212 -0.2888 -0.2168
 4095TIP3    H133920   5.289   2.016   7.877  3.6776  1.4178  0.5846
 4095TIP3    H233921   5.292   1.950   8.014  0.9510  0.5121  0.2597
 4096TIP3   OH233922   5.391   2.744   0.242  0.1182  0.2339  0.2696
 4096TIP3    H133923   5.342   2.688   0.182 -0.9570  1.9560 -0.5740
 4096TIP3    H233924   5.389   2.699   0.326 -1.2940 -0.6461 -0.2146
 4097TIP3   OH233925   2.904   2.220   7.118 -0.1256 -0.5814 -0.3176
 4097TIP3    H133926   2.991   2.197   7.151 -0.4843 -0.1516  0.9844
 4097TIP3    H233927   2.849   2.147   7.146 -0.4553 -0.1607  0.1362
 4098TIP3   OH233928   1.921   4.046   8.337 -0.1843 -0.0445  0.0985
 4098TIP3    H133929   1.922   4.018   8.429  0.7646 -1.2345 -0.2537
 4098TIP3    H233930   1.833   4.082   8.324 -0.7385 -0.9447  1.1611
 4099TIP3   OH233931   5.468   2.550   2.687  0.6115 -0.3110 -0.3220
 4099TIP3    H133932   5.441   2.461   2.663 -0.4158  0.1789 -1.1059
 4099TIP3    H233933   5.395   2.583   2.740 -0.5983  1.1623 -2.7379
 4100TIP3   OH233934   5.612   2.613   1.877  0.3237  0.2422  0.2245
 4100TIP3    H133935   5.652   2.696   1.905  0.5182  1.0075 -2.1112
 4100TIP3    H233936   5.676   2.575   1.817 -0.8267 -0.3633 -0.6515
 4101TIP3   OH233937   3.635   6.005   8.299  0.3880  0.3564  0.3815
 4101TIP3    H133938   3.575   5.975   8.231  1.2160  0.9921 -0.6555
 4101TIP3    H233939   3.670   5.925   8.337 -1.6765 -0.0501  1.5551
 4102TIP3   OH233940   1.760   4.765   8.442  0.1327  0.5881  0.8585
 4102TIP3    H133941   1.796   4.790   8.357 -0.8356  1.4561  0.6900
 4102TIP3    H233942   1.812   4.814   8.505  0.1737  0.7470  0.7026
 4103TIP3   OH233943   2.920   6.626   1.063 -0.1019 -0.1933  0.3925
 4103TIP3    H133944   2.941   6.716   1.088  1.9385 -0.3322 -0.5540
 4103TIP3    H233945   3.000   6.576   1.082 -1.2354 -1.8642  1.0464
 4104TIP3   OH233946   6.506   0.275   0.145  0.0652 -0.1161  0.4941
 4104TIP3    H133947   6.444   0.336   0.104  1.3418  1.6346  1.0140
 4104TIP3    H233948   6.452   0.222   0.204 -1.2662 -0.2975 -0.8430
 4105TIP3   OH233949   2.552   5.591   0.261  0.4511  0.2356  0.4553
 4105TIP3    H133950   2.603   5.671   0.273 -2.1229  2.0533  0.1736
 4105TIP3    H233951   2.524   5.594   0.170  0.2774 -0.9817  0.4582
 4106TIP3   OH233952   4.290   5.940   7.771  0.1347 -0.4568  0.6406
 4106TIP3    H133953   4.296   5.983   7.686 -1.2914  0.5225  1.0025
 4106TIP3    H233954   4.381   5.923   7.796  0.5551 -1.7875 -1.5445
 4107TIP3   OH233955   6.011   5.595   0.958 -0.0934  0.1052 -0.4593
 4107TIP3    H133956   5.998   5.532   0.887 -1.0185 -0.3198  0.0617
 4107TIP3    H233957   5.960   5.672   0.931 -0.3557 -0.0158 -0.3175
 4108TIP3   OH233958   4.033   2.644   6.961  0.3368 -0.3612 -0.6120
 4108TIP3    H133959   4.035   2.703   6.886 -0.8184 -0.7427 -0.9615
 4108TIP3    H233960   3.960   2.674   7.015  2.3446  1.1627  1.4684
 4109TIP3   OH233961   4.788   3.937   0.452  0.4116  0.4503 -0.0691
 4109TIP3    H133962   4.841   3.952   0.530  1.9095 -0.6152 -0.8406
 4109TIP3    H233963   4.826   3.859   0.412 -1.8024 -0.4204 -0.6263
 4110TIP3   OH233964   4.964   1.724   6.880 -0.5489  0.1022 -0.3076
 4110TIP3    H133965   4.887   1.747   6.933 -0.4414 -0.0018 -0.1034
 4110TIP3    H233966   5.037   1.767   6.925 -0.5090  0.3245 -0.5859
 4111TIP3   OH233967   4.099   5.864   0.803 -0.0543  0.5022 -0.5933
 4111TIP3    H133968   4.035   5.878   0.733  0.2602  2.3200 -0.5750
 4111TIP3    H233969   4.056   5.898   0.881  0.8324  1.6017 -0.5501
 4112TIP3   OH233970   1.421   2.697   8.539 -1.0404  0.0158 -0.4207
 4112TIP3    H133971   1.498   2.640   8.540 -2.0014 -1.4241 -1.9839
 4112TIP3    H233972   1.374   2.676   8.620 -0.8715 -0.7156 -0.5067
 4113TIP3   OH233973   6.600   3.024   8.877 -0.1812  0.0707 -0.2414
 4113TIP3    H133974   6.542   3.038   8.802 -2.0507 -1.2491  0.8714
 4113TIP3    H233975   6.649   2.944   8.856 -1.2599 -0.7325  0.2364
 4114TIP3   OH233976   4.677   5.056   8.431 -0.2289  0.3884  0.5099
 4114TIP3    H133977   4.757   5.073   8.480 -0.2089  0.1050  0.5794
 4114TIP3    H233978   4.626   5.137   8.438 -0.7122 -0.0179  1.9333
 4115TIP3   OH233979   1.261   3.754   0.390 -0.9037 -0.2724  0.2851
 4115TIP3    H133980   1.354   3.770   0.374 -1.3453 -0.1043 -2.7283
 4115TIP3    H233981   1.239   3.813   0.463  1.2115  0.0509  0.7349
 4116TIP3   OH233982   1.244   2.490   0.809 -0.1794  0.4798 -0.4032
 4116TIP3    H133983   1.328   2.503   0.765 -0.4134  0.3208 -0.9040
 4116TIP3    H233984   1.245   2.551   0.882  0.5737  0.1399 -0.1198
 4117TIP3   OH233985   3.022   4.037   8.629 -0.4146 -0.3742 -0.3135
 4117TIP3    H133986   3.027   4.112   8.687  1.0106  0.8734 -1.9271
 4117TIP3    H233987   3.046   4.072   8.543 -1.8844 -2.2431 -1.5632
 4118TIP3   OH233988   2.733   0.725   6.978  0.5635 -0.2025 -0.3824
 4118TIP3    H133989   2.791   0.670   6.926  0.3642 -0.8283  0.0373
 4118TIP3    H233990   2.789   0.793   7.014  0.8712 -0.3010 -0.6826
 4119TIP3   OH233991   5.050   6.344   8.743  0.8321 -0.5172 -0.0874
 4119TIP3    H133992   4.977   6.403   8.725  0.7387 -1.2068 -2.4124
 4119TIP3    H233993   5.056   6.340   8.838 -1.8797 -0.1080  0.1781
 4120TIP3   OH233994   0.067   5.660   1.955  0.4822  0.3115  0.1248
 4120TIP3    H133995  -0.024   5.649   1.980  0.5338 -1.9790 -0.4361
 4120TIP3    H233996   0.116   5.637   2.034  0.5924  1.1916  0.3203
 4121TIP3   OH233997   5.519   0.631   1.376  0.2177  0.3929 -0.2474
 4121TIP3    H133998   5.486   0.662   1.291 -1.4391  1.7762  0.8245
 4121TIP3    H233999   5.603   0.676   1.387 -0.2789  1.4256 -0.5028
 4122TIP3   OH234000   2.144   1.369   8.612  0.7824  0.0117 -0.1061
 4122TIP3    H134001   2.157   1.316   8.691  0.7410  1.5125  0.9495
 4122TIP3    H234002   2.145   1.306   8.540  0.0426 -1.4853  1.1528
 4123TIP3   OH234003   3.250   5.926   8.149 -0.1557  0.7136  0.3892
 4123TIP3    H134004   3.167   5.921   8.101 -0.0337 -0.2013  0.2614
 4123TIP3    H234005   3.229   5.977   8.227 -0.3503  2.2534 -0.6342
 4124TIP3   OH234006   4.923   4.389   0.138 -0.2993 -0.4699 -0.2081
 4124TIP3    H134007   4.867   4.431   0.072  0.3871 -0.0485 -0.5326
 4124TIP3    H234008   4.996   4.449   0.149 -0.4472 -0.4895  1.0267
 4125TIP3   OH234009   3.850   0.207   1.449  0.0512  0.1487  1.0535
 4125TIP3    H134010   3.853   0.298   1.421  0.0518  0.0158  0.6129
 4125TIP3    H234011   3.937   0.173   1.427 -0.8817 -0.7530 -1.5453
 4126TIP3   OH234012   2.884   0.695   0.087  0.2321  0.6370 -0.1155
 4126TIP3    H134013   2.934   0.648   0.021 -0.9383 -0.3747 -0.3193
 4126TIP3    H234014   2.913   0.658   0.170 -0.0521  0.1680 -0.2233
 4127TIP3   OH234015   2.641   4.164   7.519 -0.4323 -0.4716  0.1104
 4127TIP3    H134016   2.656   4.150   7.425 -1.0770 -0.0002 -0.0696
 4127TIP3    H234017   2.712   4.224   7.545  0.1563 -1.1421  0.0833
 4128TIP3   OH234018   1.696   6.595   1.715 -0.4459  0.0547 -0.0388
 4128TIP3    H134019   1.741   6.533   1.772  1.2518  2.4665  1.4209
 4128TIP3    H234020   1.744   6.589   1.631 -0.0605 -0.3088  0.1991
 4129TIP3   OH234021   0.383   6.533   6.976  0.1791  0.5423  0.1169
 4129TIP3    H134022   0.351   6.622   6.966 -0.3574  0.4753  1.1105
 4129TIP3    H234023   0.387   6.498   6.887 -1.6794  0.8534 -0.1217
 4130TIP3   OH234024   3.033   4.026   7.647 -0.4448 -0.1678 -0.2544
 4130TIP3    H134025   3.060   3.958   7.709 -0.5373  0.2756  0.2690
 4130TIP3    H234026   3.020   3.978   7.565  1.5728 -0.4684 -0.4479
 4131TIP3   OH234027   3.554   2.812   7.783  0.1684 -0.1972 -0.0135
 4131TIP3    H134028   3.535   2.834   7.874 -0.4838 -2.0488  0.3405
 4131TIP3    H234029   3.502   2.734   7.766 -0.4508  0.6267 -2.2807
 4132TIP3   OH234030   1.859   2.209   8.022  0.1215  0.5479  0.0950
 4132TIP3    H134031   1.842   2.301   8.041 -0.0105  0.2813  1.2909
 4132TIP3    H234032   1.938   2.188   8.072 -0.0344 -0.0851  0.0825
 4133TIP3   OH234033   6.104   5.366   0.502  0.5040 -0.2966 -0.1377
 4133TIP3    H134034   6.157   5.439   0.532 -0.6436  0.3306  0.4602
 4133TIP3    H234035   6.165   5.292   0.497  1.6051  0.6102 -0.4124
 4134TIP3   OH234036   5.757   4.214   7.593  0.3861  0.4618 -0.2310
 4134TIP3    H134037   5.838   4.230   7.543 -0.9325  1.7753 -2.0619
 4134TIP3    H234038   5.771   4.260   7.675  2.4078 -1.3200  0.5269
 4135TIP3   OH234039   6.757   0.481   0.357 -0.4327  0.0075  0.3623
 4135TIP3    H134040   6.756   0.392   0.321  0.3638 -0.1942  0.8118
 4135TIP3    H234041   6.686   0.482   0.421 -2.0471  0.4507 -1.3709
 4136TIP3   OH234042   0.417   5.207   7.853 -0.4837 -0.0921 -0.1278
 4136TIP3    H134043   0.366   5.197   7.773  0.2004 -1.6331 -0.4081
 4136TIP3    H234044   0.499   5.248   7.825 -1.3222  1.9535  0.2516
 4137TIP3   OH234045   5.275   5.145   6.755 -0.3202 -0.4681  0.7430
 4137TIP3    H134046   5.327   5.175   6.830  0.8683 -0.2507 -0.1298
 4137TIP3    H234047   5.209   5.213   6.743  0.7319  0.5354  0.3908
 4138TIP3   OH234048   3.018   1.320   0.432 -0.3957 -0.4886  0.0724
 4138TIP3    H134049   3.051   1.272   0.356  3.7269  0.7887  0.8262
 4138TIP3    H234050   3.087   1.312   0.498 -1.9863  1.8207  2.2166
 4139TIP3   OH234051   2.824   5.145   7.637  0.6736 -0.3870 -0.1140
 4139TIP3    H134052   2.831   5.151   7.542  1.2650  0.9881 -0.0056
 4139TIP3    H234053   2.729   5.144   7.654  0.5657 -0.2657 -0.6984
 4140TIP3   OH234054   2.155   2.751   7.275  0.1440  0.3373  0.8631
 4140TIP3    H134055   2.078   2.704   7.243  0.1523  1.1618 -0.4398
 4140TIP3    H234056   2.121   2.811   7.342 -0.1060 -0.3707  1.3755
 4141TIP3   OH234057   1.529   0.687   7.268 -0.2206 -0.0594 -0.4562
 4141TIP3    H134058   1.590   0.747   7.224 -2.6571  1.2992 -2.2421
 4141TIP3    H234059   1.511   0.729   7.352 -1.2053  1.3209 -1.3176
 4142TIP3   OH234060   6.753   3.189   7.664 -0.4393  0.1565  0.2926
 4142TIP3    H134061   6.804   3.110   7.645  1.7695  0.9396  2.3646
 4142TIP3    H234062   6.769   3.246   7.589 -0.2866 -0.5696 -0.2387
 4143TIP3   OH234063   6.447   0.687   8.555  0.0426  1.1107 -0.4849
 4143TIP3    H134064   6.463   0.707   8.647 -0.0624  0.9196 -0.4242
 4143TIP3    H234065   6.417   0.596   8.555  2.2896  0.3149 -0.9315
 4144TIP3   OH234066   6.624   5.591   7.548  0.7530 -0.1135 -0.1916
 4144TIP3    H134067   6.682   5.614   7.621 -0.2588  0.0686  0.5698
 4144TIP3    H234068   6.684   5.558   7.480  1.8012  0.5691  0.3631
 4145TIP3   OH234069   3.672   0.224   0.743 -0.5334 -0.3021  0.4412
 4145TIP3    H134070   3.650   0.190   0.657  3.8035 -0.0936 -0.9949
 4145TIP3    H234071   3.679   0.319   0.730  0.6889 -0.3225  0.8366
 4146TIP3   OH234072   2.708   2.276   1.833 -0.4270 -0.5432  0.4835
 4146TIP3    H134073   2.686   2.294   1.741 -0.0636  2.5520  0.8759
 4146TIP3    H234074   2.644   2.326   1.883  0.4370 -0.7782  1.8773
 4147TIP3   OH234075   4.229   6.195   1.134  0.1063  0.2846  0.0352
 4147TIP3    H134076   4.187   6.186   1.219 -0.1887 -1.4017 -0.2424
 4147TIP3    H234077   4.317   6.158   1.147 -0.2246 -0.7845 -0.5536
 4148TIP3   OH234078   5.181   4.484   7.388  0.8140  0.2554 -0.2852
 4148TIP3    H134079   5.169   4.437   7.470 -0.3707 -2.2485 -1.7375
 4148TIP3    H234080   5.094   4.519   7.367  1.4025  2.0296  0.1360
 4149TIP3   OH234081   5.828   0.188   2.002 -0.0436  0.4111 -0.3230
 4149TIP3    H134082   5.824   0.256   2.069 -1.3966  0.1153 -0.0779
 4149TIP3    H234083   5.745   0.140   2.011 -0.4585  0.6173 -2.4640
 4150TIP3   OH234084   0.685   0.907   2.194 -0.2709  0.0920 -0.2845
 4150TIP3    H134085   0.681   0.898   2.289 -1.1005 -0.2468 -0.3400
 4150TIP3    H234086   0.774   0.882   2.170  0.3244  1.3534  0.5181
 4151TIP3   OH234087   5.049   3.762   1.224  0.2722 -0.8454  0.4254
 4151TIP3    H134088   5.118   3.811   1.270  0.1807  0.1375 -0.4430
 4151TIP3    H234089   5.096   3.693   1.177  0.5769 -0.6741  0.4725
 4152TIP3   OH234090   3.254   4.507   0.038 -0.7783  0.6365 -0.1603
 4152TIP3    H134091   3.238   4.483   0.129 -1.7383  0.1602 -0.4361
 4152TIP3    H234092   3.343   4.541   0.037 -1.0048  1.3267  1.0905
 4153TIP3   OH234093   3.480   2.638   1.920  0.3539 -0.2536  0.1573
 4153TIP3    H134094   3.460   2.554   1.960 -0.1591  0.2562  1.0144
 4153TIP3    H234095   3.574   2.637   1.905  0.3187 -1.0446 -0.0114
 4154TIP3   OH234096   1.138   4.747   7.970 -0.3942 -0.1325  0.2056
 4154TIP3    H134097   1.205   4.713   7.911  0.1819 -0.7241  1.1794
 4154TIP3    H234098   1.109   4.670   8.019 -1.1245  0.2882  0.4446
 4155TIP3   OH234099   3.958   3.237   6.899 -0.2176  0.0121  0.2770
 4155TIP3    H134100   4.010   3.157   6.891  0.2027  0.3771 -0.8249
 4155TIP3    H234101   3.887   3.226   6.836  0.3530  0.8789 -0.5370
 4156TIP3   OH234102   5.966   2.390   7.493  0.0880  0.3041  0.7738
 4156TIP3    H134103   5.990   2.454   7.426  0.7265 -0.9625 -0.2630
 4156TIP3    H234104   5.887   2.425   7.533  0.0499  1.4115 -0.2120
 4157TIP3   OH234105   3.668   1.884   7.280  0.4882 -0.0565  0.3500
 4157TIP3    H134106   3.684   1.962   7.334  0.4019  0.6027 -0.5528
 4157TIP3    H234107   3.649   1.919   7.193  0.1163 -1.0853  0.0107
 4158TIP3   OH234108   4.715   4.328   0.297 -0.2508 -0.0284  0.1236
 4158TIP3    H134109   4.785   4.357   0.239 -0.0613  1.3105  0.9871
 4158TIP3    H234110   4.647   4.294   0.239  1.4655 -2.2458 -0.6993
 4159TIP3   OH234111   2.197   5.834   7.014  0.0179 -0.0415 -0.0729
 4159TIP3    H134112   2.127   5.878   6.966 -0.5300 -0.3875  0.4013
 4159TIP3    H234113   2.156   5.756   7.051  0.7956 -0.5671 -0.2849
 4160TIP3   OH234114   2.570   5.689   7.606 -0.3339 -0.2948 -0.3086
 4160TIP3    H134115   2.566   5.784   7.613 -0.2439 -0.2473 -0.8820
 4160TIP3    H234116   2.582   5.672   7.512 -0.7476 -0.8813 -0.2643
 4161TIP3   OH234117   0.650   2.024   0.043 -0.4067  0.2746 -0.1446
 4161TIP3    H134118   0.557   2.040   0.055 -0.2953 -0.4909  2.3382
 4161TIP3    H234119   0.684   2.104   0.002 -2.2410  0.2196 -1.9190
 4162TIP3   OH234120   2.956   4.186   7.881 -0.1926  0.1369  0.1110
 4162TIP3    H134121   2.899   4.116   7.913  0.0470 -0.0659  0.0932
 4162TIP3    H234122   2.963   4.170   7.787 -1.1533  0.9153 -0.1103
 4163TIP3   OH234123   5.543   5.583   1.825  0.4278  0.7247  0.1938
 4163TIP3    H134124   5.634   5.612   1.823  1.2907 -1.7173  1.0334
 4163TIP3    H234125   5.507   5.623   1.905  1.0671  0.8358  0.4290
 4164TIP3   OH234126   6.703   3.653   7.320  0.1925  0.4325 -0.6263
 4164TIP3    H134127   6.783   3.665   7.269 -0.4308  0.4040 -1.6552
 4164TIP3    H234128   6.634   3.692   7.266 -0.6404 -0.4547 -0.2468
 4165TIP3   OH234129   0.250   6.769   1.552  0.2466  0.1448  0.2511
 4165TIP3    H134130   0.273   6.745   1.641  0.6744  1.3243  0.4706
 4165TIP3    H234131   0.266   6.689   1.501  0.7502 -0.3084  1.0922
 4166TIP3   OH234132   3.813   0.670   0.594  0.0580 -0.1787  0.3746
 4166TIP3    H134133   3.887   0.662   0.654  1.7613  0.9076 -1.4599
 4166TIP3    H234134   3.838   0.616   0.518 -1.2048 -0.0915 -0.1279
 4167TIP3   OH234135   5.062   3.316   0.880 -0.1051  0.0406 -0.2040
 4167TIP3    H134136   4.971   3.340   0.897  0.1410 -0.2762  1.8014
 4167TIP3    H234137   5.074   3.234   0.927  1.4673  0.5673  0.3818
 4168TIP3   OH234138   5.253   2.668   1.556 -0.4057  0.5455  0.0680
 4168TIP3    H134139   5.343   2.688   1.533  0.5726  0.5077  3.3813
 4168TIP3    H234140   5.204   2.748   1.535  0.7897  1.2960  0.0593
 4169TIP3   OH234141   1.283   6.804   7.224 -0.6457 -0.3967  0.0426
 4169TIP3    H134142   1.304   6.878   7.167  0.1755  1.0499  2.0731
 4169TIP3    H234143   1.238   6.844   7.299  0.4606 -1.8206  1.5406
 4170TIP3   OH234144   6.695   4.013   1.020  0.2108  0.2263 -0.2068
 4170TIP3    H134145   6.622   4.053   0.972  0.5434 -1.8712 -2.6391
 4170TIP3    H234146   6.656   3.937   1.064  0.7115 -0.2123 -0.5220
 4171TIP3   OH234147   5.536   4.580   0.938 -0.7419 -1.0658 -0.2764
 4171TIP3    H134148   5.539   4.508   0.875 -0.9986 -1.8745  0.6053
 4171TIP3    H234149   5.618   4.572   0.986 -0.0233  0.2344 -1.2066
 4172TIP3   OH234150   3.705   2.241   7.218 -0.4487  0.3448 -0.1138
 4172TIP3    H134151   3.751   2.315   7.179  0.2098  0.1314  0.2410
 4172TIP3    H234152   3.710   2.172   7.151 -0.9880  0.5919 -0.4094
 4173TIP3   OH234153   2.128   4.574   8.429  0.2375  0.1312  0.5692
 4173TIP3    H134154   2.099   4.655   8.388  0.5826  0.2822  0.6184
 4173TIP3    H234155   2.203   4.546   8.376  0.5292  0.1969  0.9421
 4174TIP3   OH234156   6.052   6.439   0.422 -0.4573  0.4434  0.7209
 4174TIP3    H134157   5.963   6.412   0.442 -0.8332  1.1130  0.0290
 4174TIP3    H234158   6.049   6.469   0.331  0.0790  2.0290  1.1779
 4175TIP3   OH234159   4.093   2.268   8.741 -0.7489 -0.1419 -0.2893
 4175TIP3    H134160   4.175   2.303   8.706  0.1586 -1.0221  0.8745
 4175TIP3    H234161   4.096   2.289   8.834 -1.9094 -0.0990 -0.2531
 4176TIP3   OH234162   4.670   4.114   8.617  0.3724  0.0530  0.1700
 4176TIP3    H134163   4.759   4.127   8.650 -0.1921  0.0109  1.7815
 4176TIP3    H234164   4.632   4.047   8.674 -0.2185 -1.0609 -1.4555
 4177TIP3   OH234165   3.595   0.531   0.738 -0.3513  0.2228  0.2402
 4177TIP3    H134166   3.612   0.619   0.702 -0.0834 -0.0006 -0.1823
 4177TIP3    H234167   3.538   0.489   0.673  0.5120 -0.3463 -0.1586
 4178TIP3   OH234168   1.556   0.738   6.762  0.2312 -0.5522 -0.3858
 4178TIP3    H134169   1.474   0.696   6.738  0.1692 -0.0451 -1.0960
 4178TIP3    H234170   1.544   0.830   6.737  1.3510 -0.6562 -1.3660
 4179TIP3   OH234171   3.538   0.546   1.929 -0.4773 -0.0525  0.4818
 4179TIP3    H134172   3.632   0.549   1.911 -0.1846 -0.9172  1.7293
 4179TIP3    H234173   3.512   0.638   1.935  0.4390  0.1948  0.8388
 4180TIP3   OH234174   3.848   1.081   7.319  0.1873 -0.5967  0.1062
 4180TIP3    H134175   3.759   1.103   7.347  0.5308 -0.5003  1.1575
 4180TIP3    H234176   3.884   1.164   7.289 -0.0323 -0.6146 -0.2179
 4181TIP3   OH234177   6.254   2.043   2.077 -0.3054 -0.7832 -0.2633
 4181TIP3    H134178   6.202   2.113   2.117 -0.1917 -0.4350 -0.7233
 4181TIP3    H234179   6.271   1.983   2.149  1.5485  0.7992  0.7343
 4182TIP3   OH234180   2.447   2.088   8.485  0.0545  0.0021 -0.0160
 4182TIP3    H134181   2.533   2.064   8.517 -0.3188 -1.9885 -0.3697
 4182TIP3    H234182   2.402   2.005   8.471 -1.2352  0.9066 -1.7333
 4183TIP3   OH234183   3.041   2.177   8.076 -0.7570  0.5925 -0.0711
 4183TIP3    H134184   3.109   2.237   8.107 -1.0384  1.2537 -0.7141
 4183TIP3    H234185   3.025   2.203   7.985 -0.6554 -0.6671 -0.4695
 4184TIP3   OH234186   0.367   4.518   0.222 -0.2953  0.3106 -0.2715
 4184TIP3    H134187   0.424   4.565   0.160  1.3710  1.5054  1.9973
 4184TIP3    H234188   0.285   4.567   0.221  1.1231  2.9984  1.4258
 4185TIP3   OH234189   6.282   1.870   0.441  0.5807  0.5994 -0.1946
 4185TIP3    H134190   6.281   1.913   0.527  1.1327  0.4980 -0.1374
 4185TIP3    H234191   6.373   1.873   0.413  0.6847 -0.7842 -0.0656
 4186TIP3   OH234192   4.081   2.634   2.609  0.1191 -0.2986  0.4451
 4186TIP3    H134193   4.147   2.701   2.589  0.5012 -1.1152 -1.1274
 4186TIP3    H234194   4.018   2.641   2.538 -1.1129 -0.0641  1.5221
 4187TIP3   OH234195   4.027   4.757   6.989 -0.6348 -0.0556  0.4070
 4187TIP3    H134196   4.082   4.705   6.930 -0.8296  0.5634 -0.3498
 4187TIP3    H234197   3.973   4.693   7.035 -1.2052 -0.5087 -0.8531
 4188TIP3   OH234198   0.862   3.507   1.284  0.2754 -0.5849 -0.5651
 4188TIP3    H134199   0.775   3.512   1.323  0.4888  0.6077 -0.2058
 4188TIP3    H234200   0.922   3.526   1.356  0.7043  1.0180 -1.2881
 4189TIP3   OH234201   4.952   6.463   7.923  0.9783 -0.1450  0.4243
 4189TIP3    H134202   4.869   6.470   7.969  1.3364 -1.6505  1.3547
 4189TIP3    H234203   5.010   6.523   7.969  0.5525  0.5569  0.0668
 4190TIP3   OH234204   0.077   6.420   0.455  0.2647 -0.0526  0.0501
 4190TIP3    H134205   0.001   6.395   0.403 -0.4164  0.1292  0.9388
 4190TIP3    H234206   0.100   6.508   0.424 -0.6150  0.3758  0.5793
 4191TIP3   OH234207   2.166   4.137   8.223 -0.6637  0.0457  0.1948
 4191TIP3    H134208   2.077   4.121   8.254  0.1980 -2.8988  1.5569
 4191TIP3    H234209   2.173   4.086   8.143 -0.1338  0.0211  0.2505
 4192TIP3   OH234210   0.197   1.008   2.266  0.0147  0.3494  0.7285
 4192TIP3    H134211   0.286   0.997   2.232 -0.8134 -0.2742 -1.4007
 4192TIP3    H234212   0.170   1.095   2.235 -1.6779 -1.2090 -2.8135
 4193TIP3   OH234213   1.212   5.789   1.270 -0.5892  0.0311  0.2741
 4193TIP3    H134214   1.183   5.763   1.357 -0.3633  1.0010  0.6445
 4193TIP3    H234215   1.265   5.867   1.284 -0.9129  0.4565 -0.7778
 4194TIP3   OH234216   0.226   0.883   0.181  0.1580 -0.1775  0.4386
 4194TIP3    H134217   0.133   0.896   0.164  0.0266 -2.4641 -1.0551
 4194TIP3    H234218   0.270   0.935   0.114 -0.1389 -0.9982 -0.4171
 4195TIP3   OH234219   0.971   0.574   8.582  0.0647 -0.1464  0.4869
 4195TIP3    H134220   1.039   0.638   8.563 -0.0078 -0.3619 -0.5482
 4195TIP3    H234221   1.019   0.496   8.610  0.1928  0.0479  0.8121
 4196TIP3   OH234222   0.415   5.275   0.634 -0.0754  0.2253  0.0783
 4196TIP3    H134223   0.321   5.277   0.618 -0.0354 -1.9116 -0.7664
 4196TIP3    H234224   0.450   5.348   0.582 -1.0919 -0.1822 -1.2354
 4197TIP3   OH234225   5.316   1.807   8.240 -0.1593 -0.1632  0.0520
 4197TIP3    H134226   5.227   1.772   8.236 -0.2597  0.1961 -1.2981
 4197TIP3    H234227   5.371   1.740   8.199  0.1360 -0.2170  0.5326
 4198TIP3   OH234228   1.029   1.156   7.775 -0.7866  0.0740  0.6808
 4198TIP3    H134229   1.011   1.078   7.828  0.4873  0.1140  1.2122
 4198TIP3    H234230   1.032   1.124   7.685 -0.7249 -0.4085  0.8494
 4199TIP3   OH234231   0.967   5.939   8.510  0.0559 -0.3728 -0.1063
 4199TIP3    H134232   0.975   5.848   8.482 -0.8291 -1.1548  1.9858
 4199TIP3    H234233   0.887   5.970   8.469  0.0911 -0.6778 -0.4130
 4200TIP3   OH234234   2.288   2.238   6.236 -0.2571 -0.4773  0.3924
 4200TIP3    H134235   2.371   2.200   6.264  0.1323  0.2859  0.3028
 4200TIP3    H234236   2.242   2.166   6.194 -0.3097 -1.3099  1.8100
 4201TIP3   OH234237   1.632   6.394   1.064  0.0903  0.4441 -0.7435
 4201TIP3    H134238   1.618   6.472   1.010  2.5466  0.4923 -1.4246
 4201TIP3    H234239   1.641   6.427   1.153 -0.5346  0.7348 -0.7823
 4202TIP3   OH234240   2.735   2.648   2.226 -0.8344 -0.0929  0.0663
 4202TIP3    H134241   2.795   2.709   2.182  2.3947 -1.6158  1.9794
 4202TIP3    H234242   2.744   2.566   2.177  0.0063 -0.7924  1.3411
 4203TIP3   OH234243   0.610   2.223   0.951  0.5968  0.8485  0.2848
 4203TIP3    H134244   0.677   2.169   0.994  0.6391 -1.1332 -2.0363
 4203TIP3    H234245   0.651   2.250   0.869 -2.2237 -3.0249 -2.7672
 4204TIP3   OH234246   6.781   6.426   7.180  0.2009  0.6890 -0.1715
 4204TIP3    H134247   6.875   6.415   7.187  0.1913 -0.6105 -1.6269
 4204TIP3    H234248   6.746   6.390   7.262  0.8956 -0.0310 -0.1859
 4205TIP3   OH234249   4.544   1.013   7.313  0.2455  0.4383 -0.0782
 4205TIP3    H134250   4.540   1.086   7.251 -0.4802  0.2294 -0.2952
 4205TIP3    H234251   4.583   0.941   7.262 -0.4399  0.2383 -0.3299
 4206TIP3   OH234252   6.049   1.833   1.932 -0.1403  0.0596 -1.2987
 4206TIP3    H134253   6.072   1.807   2.021 -1.3085  1.5833 -0.4977
 4206TIP3    H234254   6.092   1.769   1.876 -0.2074 -1.5344  0.3962
 4207TIP3   OH234255   2.952   4.260   0.694 -0.0174 -0.4060 -0.0079
 4207TIP3    H134256   2.929   4.255   0.787 -0.9715  0.5000 -0.1815
 4207TIP3    H234257   3.023   4.197   0.684  1.1744  0.5799  1.6660
 4208TIP3   OH234258   0.642   0.230   8.091  0.7414  0.2368 -0.2452
 4208TIP3    H134259   0.669   0.139   8.083 -0.3024 -0.2008  0.8609
 4208TIP3    H234260   0.564   0.236   8.035 -0.9144 -0.3494  1.8914
 4209TIP3   OH234261   5.436   3.853   7.786 -0.0447  0.5410  0.0117
 4209TIP3    H134262   5.364   3.814   7.737 -1.0291  1.2409  0.8462
 4209TIP3    H234263   5.477   3.914   7.726 -0.4902  0.5342 -0.2951
 4210TIP3   OH234264   3.500   2.179   7.909  0.5536 -0.1679 -0.1505
 4210TIP3    H134265   3.409   2.179   7.880  1.5858  2.3110 -4.0966
 4210TIP3    H234266   3.530   2.089   7.895 -1.0934 -0.9028  0.7722
 4211TIP3   OH234267   5.711   2.187   7.265 -0.0127 -0.2247  0.0947
 4211TIP3    H134268   5.713   2.168   7.171 -0.1531  1.5320 -0.2960
 4211TIP3    H234269   5.685   2.279   7.270  0.1982 -0.2365  1.8549
 4212TIP3   OH234270   2.754   3.533   0.443  0.0380  0.3589  0.7639
 4212TIP3    H134271   2.818   3.492   0.386  0.5972  1.0269  0.8875
 4212TIP3    H234272   2.688   3.569   0.384  0.1388  0.2586  0.5905
 4213TIP3   OH234273   6.445   1.064   8.798  0.2876 -0.3375  0.2420
 4213TIP3    H134274   6.415   1.105   8.717 -0.7397  0.2295  0.8902
 4213TIP3    H234275   6.365   1.032   8.840  0.7221 -0.0545  1.3329
 4214TIP3   OH234276   0.573   6.730   1.198 -0.4862  0.5747 -0.0522
 4214TIP3    H134277   0.482   6.709   1.218 -0.4131  0.7250  0.4551
 4214TIP3    H234278   0.592   6.681   1.118 -0.6026 -0.5298  0.5817
 4215TIP3   OH234279   0.056   3.171   8.194 -0.0903  0.1737  0.2061
 4215TIP3    H134280  -0.028   3.136   8.226 -0.7380  1.1569 -0.3571
 4215TIP3    H234281   0.047   3.266   8.204  1.4370  0.2352  1.2567
 4216TIP3   OH234282   0.354   2.334   0.743  0.2466 -0.0424  0.5234
 4216TIP3    H134283   0.293   2.261   0.754  1.4551 -1.7649 -2.7816
 4216TIP3    H234284   0.324   2.377   0.663 -0.4341  3.2621  2.3887
 4217TIP3   OH234285   1.909   1.433   6.019 -0.7049 -0.0305  0.0817
 4217TIP3    H134286   1.849   1.371   5.977  0.1099 -0.7930  0.0173
 4217TIP3    H234287   1.994   1.413   5.981 -0.4784  1.3966 -0.2181
 4218TIP3   OH234288   3.980   4.575   8.741 -0.7485  0.1929  0.2945
 4218TIP3    H134289   3.971   4.659   8.697  0.9286 -0.6193 -1.8028
 4218TIP3    H234290   4.074   4.556   8.738 -0.8976 -1.0828  2.0784
 4219TIP3   OH234291   0.388   5.767   2.046 -0.2312 -0.4205 -0.6594
 4219TIP3    H134292   0.327   5.711   2.095  0.7758 -1.0760 -0.1155
 4219TIP3    H234293   0.404   5.719   1.965 -1.5111  0.4277 -1.4434
 4220TIP3   OH234294   6.493   5.451   6.913 -0.1065 -0.5942 -0.5296
 4220TIP3    H134295   6.414   5.504   6.901 -0.4645 -0.9540  0.1882
 4220TIP3    H234296   6.465   5.362   6.890 -0.0852 -0.8294  0.3316
 4221TIP3   OH234297   4.581   4.549   7.940 -0.0209 -0.1312 -0.0656
 4221TIP3    H134298   4.558   4.597   8.019 -1.2751  0.8382 -0.9917
 4221TIP3    H234299   4.629   4.472   7.972 -1.0929 -0.1237  1.6756
 4222TIP3   OH234300   2.715   2.965   1.048 -0.5014 -0.0363 -0.0440
 4222TIP3    H134301   2.807   2.984   1.029 -0.8787  1.4109 -0.5273
 4222TIP3    H234302   2.700   3.006   1.133  0.0565 -2.8638  1.5254
 4223TIP3   OH234303   5.191   4.912   1.603 -0.5082  0.5458  0.0169
 4223TIP3    H134304   5.140   4.848   1.554  0.7700 -0.1798 -0.4062
 4223TIP3    H234305   5.252   4.860   1.655  0.2898  1.3994 -0.0364
 4224TIP3   OH234306   2.771   6.630   7.250  0.2000  0.0415  0.6317
 4224TIP3    H134307   2.816   6.715   7.254 -0.6413  0.5565 -0.2848
 4224TIP3    H234308   2.678   6.652   7.257  0.0470 -1.0220  2.7462
 4225TIP3   OH234309   6.075   5.179   7.397  0.0915 -0.1547 -0.1948
 4225TIP3    H134310   6.102   5.251   7.340  0.4113 -1.5343 -1.8685
 4225TIP3    H234311   6.105   5.205   7.484  0.1699  1.7277 -0.7331
 4226TIP3   OH234312   3.406   5.720   0.448 -0.5308  0.2050  0.5848
 4226TIP3    H134313   3.451   5.733   0.531  1.7327  1.8383 -0.7979
 4226TIP3    H234314   3.442   5.639   0.413 -0.3862  0.2857  0.5452
 4227TIP3   OH234315   3.291   4.520   1.024 -0.1156  0.4230  0.1463
 4227TIP3    H134316   3.319   4.534   1.115  0.5111  1.3534 -0.1701
 4227TIP3    H234317   3.204   4.559   1.019  0.1371  1.0142  0.1902
 4228TIP3   OH234318   1.780   5.179   8.288  0.2323 -0.8730 -0.3219
 4228TIP3    H134319   1.817   5.216   8.368  1.8346 -1.8768 -0.5713
 4228TIP3    H234320   1.819   5.229   8.217 -0.7942 -0.3221 -0.5117
 4229TIP3   OH234321   0.876   0.122   1.314  0.0834 -0.4811 -0.4217
 4229TIP3    H134322   0.796   0.077   1.342 -1.0603  1.8270  0.3373
 4229TIP3    H234323   0.930   0.054   1.276 -1.1478 -2.5952  1.4015
 4230TIP3   OH234324   4.255   3.350   1.823 -0.3416  0.2267 -0.0274
 4230TIP3    H134325   4.317   3.313   1.760  0.1400 -0.3413  0.7545
 4230TIP3    H234326   4.169   3.321   1.792 -0.0806 -0.3628 -0.2214
 4231TIP3   OH234327   1.969   2.793   0.963 -0.4455  0.5476  0.1079
 4231TIP3    H134328   1.979   2.765   0.872 -0.1105 -1.6422  0.7434
 4231TIP3    H234329   2.059   2.809   0.993 -0.6318  2.4554 -0.2409
 4232TIP3   OH234330   1.204   3.712   1.207 -0.1185  0.0103 -0.8045
 4232TIP3    H134331   1.262   3.784   1.234  0.6655 -0.7897 -0.3107
 4232TIP3    H234332   1.116   3.743   1.228  0.2161  0.7832 -0.4965
 4233TIP3   OH234333   2.832   0.829   0.389  0.2834 -0.0404  0.1191
 4233TIP3    H134334   2.785   0.771   0.448  2.3486 -0.3743  1.5416
 4233TIP3    H234335   2.907   0.779   0.359  0.1644  0.6927 -1.5527
 4234TIP3   OH234336   1.917   0.268   8.009  0.2905 -0.1122 -0.2698
 4234TIP3    H134337   1.853   0.299   8.072 -0.6390  0.5202 -1.4841
 4234TIP3    H234338   1.894   0.312   7.927  1.6254 -0.6866 -0.9962
 4235TIP3   OH234339   2.709   3.178   7.146 -0.1894 -0.2022 -0.2947
 4235TIP3    H134340   2.770   3.122   7.098  0.0347 -0.2706  0.0631
 4235TIP3    H234341   2.653   3.117   7.193 -1.7362 -0.1929 -2.0429
 4236TIP3   OH234342   4.167   4.137   0.298 -0.4246  0.0712 -0.0330
 4236TIP3    H134343   4.211   4.079   0.235  0.1615 -0.3147  0.7142
 4236TIP3    H234344   4.175   4.091   0.381 -2.0359  0.1154  0.1760
 4237TIP3   OH234345   2.759   3.461   1.096 -0.0284 -0.5864  0.2609
 4237TIP3    H134346   2.757   3.485   1.188 -1.2086 -0.2853  0.1730
 4237TIP3    H234347   2.793   3.539   1.052 -0.9671 -0.1351  0.2960
 4238TIP3   OH234348   6.574   4.994   2.525 -0.0971 -0.5529 -0.1376
 4238TIP3    H134349   6.496   4.943   2.503 -0.1911 -0.3694 -0.2272
 4238TIP3    H234350   6.541   5.081   2.547  0.1745 -0.1982 -1.1093
 4239TIP3   OH234351   1.779   0.244   0.792 -0.4896  0.1512  0.1357
 4239TIP3    H134352   1.754   0.268   0.881 -1.9955 -1.1196  0.0954
 4239TIP3    H234353   1.859   0.194   0.802 -1.2522 -0.9495  0.9183
 4240TIP3   OH234354   1.028   1.295   6.874  0.2105  0.6241  0.1956
 4240TIP3    H134355   0.957   1.359   6.866  0.9910  1.3407 -1.7236
 4240TIP3    H234356   1.084   1.312   6.798  1.5691 -0.9934  0.7680
 4241TIP3   OH234357   4.418   5.844   1.130  0.1757 -0.0489  0.8637
 4241TIP3    H134358   4.431   5.798   1.213  0.4842 -2.4369 -0.3993
 4241TIP3    H234359   4.326   5.829   1.108  0.2717 -0.0591  0.4537
 4242TIP3   OH234360   6.684   4.752   6.905  0.4505 -0.1915 -0.0565
 4242TIP3    H134361   6.611   4.690   6.899 -1.2593  1.7879 -0.7775
 4242TIP3    H234362   6.677   4.787   6.994 -0.1424  0.7309 -0.4525
 4243TIP3   OH234363   2.217   1.630   6.587 -0.0620  0.5078 -0.2349
 4243TIP3    H134364   2.292   1.581   6.621  0.9682  0.8844 -1.8320
 4243TIP3    H234365   2.257   1.704   6.540 -1.5211  2.3220  1.2088
 4244TIP3   OH234366   1.419   0.277   0.485 -0.1496  0.3688  0.4784
 4244TIP3    H134367   1.392   0.188   0.510  0.6217  0.3766  1.4310
 4244TIP3    H234368   1.406   0.329   0.565 -1.0222  1.2235 -0.2029
 4245TIP3   OH234369   2.838   4.834   0.051 -0.0143  0.2238  0.1157
 4245TIP3    H134370   2.823   4.790  -0.033  1.8851  0.9346 -0.6418
 4245TIP3    H234371   2.920   4.797   0.084 -1.0373 -0.5190  2.0308
 4246TIP3   OH234372   3.296   2.233   0.003 -0.6125  0.3835  0.9000
 4246TIP3    H134373   3.334   2.194  -0.076 -0.9081  0.4237  0.7348
 4246TIP3    H234374   3.261   2.159   0.052 -0.5861  0.3759  0.9071
 4247TIP3   OH234375   1.269   6.308   7.129  0.5563 -0.0798 -0.2815
 4247TIP3    H134376   1.284   6.401   7.111 -0.3914  0.1155 -0.1241
 4247TIP3    H234377   1.174   6.300   7.133  0.6465 -0.7716  1.1605
 4248TIP3   OH234378   2.877   1.887   1.560 -0.7169 -0.1437 -0.2281
 4248TIP3    H134379   2.853   1.929   1.643  0.4209 -0.9335  0.5123
 4248TIP3    H234380   2.914   1.958   1.507 -0.2957  0.1189  0.4087
 4249TIP3   OH234381   1.804   4.215   8.668  0.2207  0.5761 -0.2149
 4249TIP3    H134382   1.831   4.286   8.609 -1.0279  0.3558 -1.0777
 4249TIP3    H234383   1.709   4.220   8.669  0.1976  0.3328  1.5187
 4250TIP3   OH234384   1.489   3.761   7.553  0.0412  0.2787 -0.4860
 4250TIP3    H134385   1.530   3.683   7.592 -1.2675  0.7081  1.9768
 4250TIP3    H234386   1.401   3.732   7.530 -0.0761  0.7281 -0.6091
 4251TIP3   OH234387   3.055   6.112   7.543  0.1312  0.1438  0.1055
 4251TIP3    H134388   3.120   6.082   7.606 -1.0431 -0.6104  1.0080
 4251TIP3    H234389   2.989   6.157   7.596  0.6463  2.3120 -0.9490
 4252TIP3   OH234390   6.729   4.611   8.626  0.2228 -0.2203  0.4489
 4252TIP3    H134391   6.772   4.543   8.678  0.0598  0.0439  0.9356
 4252TIP3    H234392   6.670   4.654   8.687 -0.1404 -0.0473 -0.0141
 4253TIP3   OH234393   4.238   6.569   8.343  0.0438  0.1190 -0.2967
 4253TIP3    H134394   4.240   6.488   8.394  2.8804 -0.2191 -0.7624
 4253TIP3    H234395   4.235   6.541   8.252 -0.2509  0.5855 -0.4383
 4254TIP3   OH234396   3.141   1.196   1.948 -0.0183  0.3143 -0.1298
 4254TIP3    H134397   3.097   1.248   2.016  0.4673 -0.0144  0.4350
 4254TIP3    H234398   3.154   1.110   1.988  2.1598  0.7197  0.1399
 4255TIP3   OH234399   3.088   6.105   8.325 -0.2952 -0.3422  0.7718
 4255TIP3    H134400   3.069   6.151   8.244  0.7638 -1.4718 -0.1419
 4255TIP3    H234401   3.144   6.165   8.374 -0.7110  0.2226  0.5727
 4256TIP3   OH234402   3.805   2.773   0.869 -0.3181  0.2532 -0.2594
 4256TIP3    H134403   3.830   2.865   0.870 -2.5914  0.9540 -1.1447
 4256TIP3    H234404   3.729   2.769   0.928  0.9949 -1.5212  1.4520
 4257TIP3   OH234405   0.187   0.781   7.728  0.4002  0.1196 -0.0816
 4257TIP3    H134406   0.251   0.816   7.666  1.2713 -0.6081  0.3852
 4257TIP3    H234407   0.144   0.709   7.680  1.1848 -0.5476  0.1868
 4258TIP3   OH234408   5.938   3.682   8.202  0.4467 -0.7909 -0.3799
 4258TIP3    H134409   5.971   3.692   8.291 -0.8944 -2.1876  0.3341
 4258TIP3    H234410   5.843   3.675   8.213 -0.3553  3.5012 -2.3501
 4259TIP3   OH234411   6.332   0.047   2.430 -0.1677  0.9987  0.4333
 4259TIP3    H134412   6.389  -0.024   2.460  2.1016  2.3704 -0.3771
 4259TIP3    H234413   6.380   0.127   2.450 -1.4573  2.2065 -1.0244
 4260TIP3   OH234414   0.897   3.974   1.431  0.1059  0.1014  0.8198
 4260TIP3    H134415   0.969   3.994   1.370  0.8190 -0.8575  1.3108
 4260TIP3    H234416   0.934   3.910   1.491 -1.0686 -0.1374  1.3180
 4261TIP3   OH234417   4.661   2.677   2.100  0.3283  0.6684 -0.2108
 4261TIP3    H134418   4.705   2.762   2.086  0.5422  0.6195  0.1459
 4261TIP3    H234419   4.701   2.643   2.180 -1.3327  1.2469  0.9123
 4262TIP3   OH234420   4.130   5.742   2.033 -0.6372  0.1677  0.2295
 4262TIP3    H134421   4.170   5.822   1.999 -0.3942  0.0264  0.1874
 4262TIP3    H234422   4.182   5.671   1.996 -1.7537 -0.0839 -0.9786
 4263TIP3   OH234423   0.678   3.537   1.931 -0.0623 -0.1144 -0.0186
 4263TIP3    H134424   0.698   3.611   1.873 -0.5366 -0.1083 -0.1805
 4263TIP3    H234425   0.714   3.564   2.016 -1.2893  0.8551  0.2301
 4264TIP3   OH234426   6.463   0.676   7.888  0.2737 -0.0335 -0.3868
 4264TIP3    H134427   6.483   0.667   7.794 -1.8803  0.4309 -0.9468
 4264TIP3    H234428   6.511   0.604   7.929 -1.6650 -2.6554 -2.3401
 4265TIP3   OH234429   0.396   1.862   8.439 -0.5057 -0.4364 -0.0040
 4265TIP3    H134430   0.303   1.878   8.457 -0.3315  3.2913 -1.4769
 4265TIP3    H234431   0.400   1.847   8.345  0.4287  0.3833 -0.1154
 4266TIP3   OH234432   1.935   5.538   6.364 -0.1510 -0.3253 -0.5422
 4266TIP3    H134433   1.935   5.454   6.410  0.7058 -0.2501 -0.3986
 4266TIP3    H234434   1.932   5.603   6.433 -1.2748 -0.2320 -0.6644
 4267TIP3   OH234435   4.454   2.679   6.924  0.0657  0.1068  0.4594
 4267TIP3    H134436   4.391   2.651   6.989  0.9446 -1.1905  0.7955
 4267TIP3    H234437   4.421   2.763   6.892 -1.4724 -0.2461  1.0627
 4268TIP3   OH234438   4.046   5.212   0.284 -0.0698  0.0825 -0.2022
 4268TIP3    H134439   3.973   5.153   0.304 -0.0927 -0.1925 -1.0754
 4268TIP3    H234440   4.021   5.254   0.202  0.8695 -0.2208 -0.6510
 4269TIP3   OH234441   1.162   0.246   1.058 -0.6256  0.5532  0.2860
 4269TIP3    H134442   1.243   0.286   1.026 -0.7430  0.0285 -0.6938
 4269TIP3    H234443   1.185   0.155   1.075 -1.1992  0.1777 -0.8292
 4270TIP3   OH234444   1.766   0.291   8.496  0.5994 -0.1113  0.1540
 4270TIP3    H134445   1.699   0.228   8.521 -0.0067  0.9811  1.4540
 4270TIP3    H234446   1.834   0.283   8.563  0.2051  1.0359  0.7269
 4271TIP3   OH234447   3.945   5.411   1.515 -0.1581  0.1922 -0.2650
 4271TIP3    H134448   3.978   5.385   1.429 -0.9454  0.2453 -0.5898
 4271TIP3    H234449   3.875   5.349   1.533 -1.6873  1.6921 -0.7967
 4272TIP3   OH234450   3.318   5.915   6.976 -0.4962  0.5498 -0.0652
 4272TIP3    H134451   3.289   5.966   6.899 -1.5744  1.0737  0.6631
 4272TIP3    H234452   3.305   5.974   7.050 -0.7616 -0.4296  0.6846
 4273TIP3   OH234453   5.425   3.202   2.104 -0.2079 -0.3892 -0.5667
 4273TIP3    H134454   5.330   3.192   2.099 -0.2549  0.0225 -0.5056
 4273TIP3    H234455   5.444   3.202   2.198 -0.0743 -1.1255 -0.5876
 4274TIP3   OH234456   2.005   6.458   0.992 -0.8326  0.5436  0.1543
 4274TIP3    H134457   1.985   6.534   0.937  0.1131 -0.2832 -1.4051
 4274TIP3    H234458   1.984   6.383   0.937 -1.0931 -0.3406  1.4265
 4275TIP3   OH234459   2.353   2.102   8.838  0.8794 -0.4116  0.5889
 4275TIP3    H134460   2.282   2.165   8.854  1.1623  0.6197 -1.8039
 4275TIP3    H234461   2.432   2.155   8.833  0.9079 -0.5200 -3.2806
 4276TIP3   OH234462   4.975   1.245   7.744 -0.1698  0.1921  0.6830
 4276TIP3    H134463   5.012   1.246   7.655 -1.1940  0.3077  0.2495
 4276TIP3    H234464   4.917   1.321   7.747 -0.2261  0.1308  1.4248
 4277TIP3   OH234465   4.952   4.098   0.759  0.1929 -0.2834  0.2293
 4277TIP3    H134466   4.932   4.087   0.852 -0.4543 -0.8120  0.0327
 4277TIP3    H234467   4.948   4.192   0.744  2.2140  0.0136  1.1482
 4278TIP3   OH234468   3.332   1.440   7.146 -0.4837 -0.3644  1.2398
 4278TIP3    H134469   3.242   1.448   7.117 -0.3886  2.2470  1.4065
 4278TIP3    H234470   3.328   1.450   7.242 -0.0101  0.2444  1.2079
 4279TIP3   OH234471   5.955   0.210   7.786 -0.8955  0.1349 -0.2679
 4279TIP3    H134472   5.939   0.224   7.879 -1.4183 -1.6918 -0.0556
 4279TIP3    H234473   6.029   0.268   7.766 -0.3557  0.0848  1.4159
 4280TIP3   OH234474   1.380   3.329   7.985 -0.3511 -0.4027 -0.9391
 4280TIP3    H134475   1.417   3.391   8.048 -1.6135 -0.8723  0.3376
 4280TIP3    H234476   1.286   3.331   8.002 -0.5110 -2.0125 -1.4526
 4281TIP3   OH234477   0.488   4.253   8.607  0.2324 -0.3004 -0.4827
 4281TIP3    H134478   0.474   4.269   8.513  2.7369  0.1015 -0.8657
 4281TIP3    H234479   0.543   4.175   8.610 -1.1622 -1.2925  0.7854
 4282TIP3   OH234480   3.745   5.378   1.253  0.2162 -0.2224  0.0889
 4282TIP3    H134481   3.663   5.330   1.261 -0.0207  0.0665 -0.5620
 4282TIP3    H234482   3.781   5.352   1.169  2.0002 -2.1770  1.3562
 4283TIP3   OH234483   6.100   2.490   1.998 -0.5824 -0.2283  0.2764
 4283TIP3    H134484   6.178   2.453   1.956 -0.1079  1.5359 -0.4661
 4283TIP3    H234485   6.027   2.443   1.956 -0.0001 -0.3870 -0.6009
 4284TIP3   OH234486   6.163   4.966   8.869  0.0656 -0.6803 -0.2893
 4284TIP3    H134487   6.186   5.059   8.860  1.1548 -1.0737 -2.2424
 4284TIP3    H234488   6.094   4.953   8.804  0.6384 -1.4219 -0.7715
 4285TIP3   OH234489   4.408   2.262   1.632 -0.4361  0.1376 -0.0771
 4285TIP3    H134490   4.345   2.307   1.689 -0.1174 -0.8153  1.0777
 4285TIP3    H234491   4.356   2.197   1.584 -0.4198 -0.3742  0.5783
 4286TIP3   OH234492   1.066   1.327   8.815 -0.4177  0.1115  0.0325
 4286TIP3    H134493   0.992   1.303   8.870 -0.0356 -0.4146  0.3229
 4286TIP3    H234494   1.033   1.318   8.726 -0.4661 -0.9295  0.1443
 4287TIP3   OH234495   3.275   0.617   8.034 -0.3250  0.3979 -0.0619
 4287TIP3    H134496   3.290   0.709   8.056  1.8011  0.5765 -1.9222
 4287TIP3    H234497   3.200   0.592   8.088  1.1350  2.2234  3.1231
 4288TIP3   OH234498   5.168   0.085   8.765 -0.3260  0.1066 -0.5022
 4288TIP3    H134499   5.213   0.059   8.684  1.0067  0.1893  0.1794
 4288TIP3    H234500   5.155   0.003   8.812  0.6086  0.2522  0.0296
 4289TIP3   OH234501   2.826   5.995   1.591  0.1851 -0.2750  0.3181
 4289TIP3    H134502   2.841   5.975   1.498  0.4110  0.8676  0.0919
 4289TIP3    H234503   2.897   6.056   1.614 -0.0507 -0.2998  1.1575
 4290TIP3   OH234504   2.558   5.631   0.014  0.0786  0.2200  0.2908
 4290TIP3    H134505   2.543   5.724  -0.002 -0.5273  0.0396 -0.2455
 4290TIP3    H234506   2.650   5.626   0.041  0.5606  0.7971 -1.1427
 4291TIP3   OH234507   2.973   0.932   0.813  0.1385 -0.2275 -0.3964
 4291TIP3    H134508   2.911   0.889   0.872  1.5909 -2.3063 -0.3021
 4291TIP3    H234509   2.967   0.883   0.731  1.5364 -0.4088 -0.4231
 4292TIP3   OH234510   3.878   1.633   1.463 -0.0970 -0.3651  0.1244
 4292TIP3    H134511   3.912   1.567   1.523 -0.5309  0.6435  1.5340
 4292TIP3    H234512   3.795   1.597   1.432  0.7535 -1.4821 -0.9402
 4293TIP3   OH234513   4.030   5.408   0.465 -0.5388  0.1649  0.3986
 4293TIP3    H134514   4.028   5.337   0.400  0.6772 -0.1166  0.6240
 4293TIP3    H234515   4.119   5.444   0.457 -0.8263  1.0200  0.9679
 4294TIP3   OH234516   2.494   0.270   1.507 -0.3514  0.1984  0.6398
 4294TIP3    H134517   2.449   0.191   1.539  0.8907  0.1966  2.5642
 4294TIP3    H234518   2.585   0.243   1.495  0.0618  1.2793  1.1752
 4295TIP3   OH234519   4.913   5.004   1.511 -0.1547 -0.5134  0.4163
 4295TIP3    H134520   4.937   5.030   1.601  0.2781 -0.7227  0.3667
 4295TIP3    H234521   4.855   4.930   1.523 -0.0065 -0.6141  0.5257
 4296TIP3   OH234522   4.182   5.642   0.072 -0.2340 -0.0688  0.0543
 4296TIP3    H134523   4.175   5.684  -0.014  0.6143  1.2599  0.5991
 4296TIP3    H234524   4.137   5.701   0.132  1.2366  0.2766  0.8830
 4297TIP3   OH234525   3.792   1.351   7.074 -0.3488  0.2083  0.1764
 4297TIP3    H134526   3.826   1.428   7.028  1.5938 -0.5272  0.2959
 4297TIP3    H234527   3.777   1.381   7.163  0.6269  0.4081  0.2837
 4298TIP3   OH234528   0.443   1.401   8.520 -0.1342 -0.1435  0.6604
 4298TIP3    H134529   0.384   1.402   8.444  0.0124  0.4875  0.5507
 4298TIP3    H234530   0.387   1.372   8.593 -0.5071  0.1426  0.4949
 4299TIP3   OH234531   5.751   2.215   0.381  0.6136 -0.0702  0.3672
 4299TIP3    H134532   5.669   2.174   0.353 -0.5751  0.9750  2.0862
 4299TIP3    H234533   5.801   2.227   0.300  0.4285 -3.4514 -0.3772
 4300TIP3   OH234534   0.079   2.564   7.499 -0.1588  0.7937  0.2879
 4300TIP3    H134535   0.135   2.640   7.480 -1.1004  1.4423  0.0337
 4300TIP3    H234536   0.023   2.594   7.571 -0.2713  0.1872  0.4581
 4301TIP3   OH234537   3.858   1.214   1.402 -0.2234 -0.8378 -0.4165
 4301TIP3    H134538   3.936   1.181   1.358 -0.4782 -0.2267 -1.3561
 4301TIP3    H234539   3.786   1.191   1.343 -0.6732 -0.7427  0.0868
 4302TIP3   OH234540   4.496   4.252   0.144 -0.0806 -0.2992 -0.3443
 4302TIP3    H134541   4.502   4.274   0.051 -1.6623  1.6977 -0.0356
 4302TIP3    H234542   4.405   4.267   0.166 -0.5188 -3.8853  0.8668
 4303TIP3   OH234543   4.546   1.413   1.029 -1.0536 -1.0237 -0.2263
 4303TIP3    H134544   4.488   1.424   1.105  0.2952  1.0855  0.5981
 4303TIP3    H234545   4.509   1.473   0.964  1.9277  3.2138  1.5285
 4304TIP3   OH234546   2.882   4.305   0.131 -0.7082 -0.1734  0.2916
 4304TIP3    H134547   2.802   4.326   0.178 -0.5705  2.4368 -0.4737
 4304TIP3    H234548   2.858   4.235   0.071 -1.5810 -1.5820  2.1874
 4305TIP3   OH234549   0.846   6.531   0.723 -0.5666 -0.0045 -0.0769
 4305TIP3    H134550   0.839   6.436   0.732 -1.3378  0.1081  0.6749
 4305TIP3    H234551   0.863   6.562   0.812  0.5355  0.5019 -0.4487
 4306TIP3   OH234552   0.677   4.050   8.615  0.0310 -0.3471  0.3382
 4306TIP3    H134553   0.734   4.057   8.539  0.9610 -0.8176  0.9677
 4306TIP3    H234554   0.730   4.006   8.681 -1.0650 -0.7790  0.9635
 4307TIP3   OH234555   3.274   0.907   0.713 -0.1557  0.0459  0.3862
 4307TIP3    H134556   3.291   0.986   0.661  1.0443  0.1344  0.8811
 4307TIP3    H234557   3.286   0.835   0.652  2.0429  0.1086  0.6644
 4308TIP3   OH234558   1.427   6.671   6.693 -0.5890 -0.3461 -0.0679
 4308TIP3    H134559   1.420   6.734   6.621  1.1053  1.4880  1.2660
 4308TIP3    H234560   1.408   6.586   6.652 -0.8082  0.7450 -2.4097
 4309TIP3   OH234561   4.916   5.704   6.348 -0.2839 -0.2317 -0.5516
 4309TIP3    H134562   4.894   5.613   6.369 -3.7544  0.7006  0.4522
 4309TIP3    H234563   5.003   5.716   6.386 -1.7742 -1.7703  3.9934
 4310TIP3   OH234564   2.782   6.371   1.009  0.6293  0.1210 -0.3977
 4310TIP3    H134565   2.689   6.393   1.008  0.5877 -0.0750 -1.2242
 4310TIP3    H234566   2.826   6.456   1.011  0.4396  0.2211 -0.4310
 4311TIP3   OH234567   5.061   6.496   7.117  0.6182 -0.4931 -0.2009
 4311TIP3    H134568   5.153   6.507   7.094  0.4821 -1.1115 -1.1157
 4311TIP3    H234569   5.013   6.533   7.043  0.0669  1.9190  1.2483
 4312TIP3   OH234570   6.720   3.211   1.302 -0.3386  0.4740 -0.4898
 4312TIP3    H134571   6.727   3.138   1.364 -1.0905  0.1588 -0.7698
 4312TIP3    H234572   6.801   3.206   1.251 -0.8767 -0.9130 -1.2937
 4313TIP3   OH234573   2.847   0.327   0.754 -0.5066 -0.0207 -0.2270
 4313TIP3    H134574   2.883   0.346   0.668  1.1352  1.1371  0.6519
 4313TIP3    H234575   2.908   0.265   0.793 -0.6698  0.2428  0.4737
 4314TIP3   OH234576   2.998   0.636   1.739 -0.1905 -0.0216 -0.2874
 4314TIP3    H134577   3.049   0.683   1.805  0.0861 -2.5245  1.4299
 4314TIP3    H234578   2.909   0.633   1.775 -0.7479  1.0913 -1.4842
 4315TIP3   OH234579   2.252   3.305   0.466  0.5756  0.3432 -0.9979
 4315TIP3    H134580   2.162   3.331   0.486 -0.1768 -1.5251 -1.7293
 4315TIP3    H234581   2.298   3.388   0.452 -1.2733  1.3332 -1.6160
 4316TIP3   OH234582   4.599   2.413   6.891  0.2973  0.0602 -0.2897
 4316TIP3    H134583   4.553   2.398   6.974  1.1291 -0.3789  0.1059
 4316TIP3    H234584   4.544   2.371   6.825  1.8683 -3.8402  0.6055
 4317TIP3   OH234585   1.088   3.539   0.440 -0.7379  0.0071 -0.2172
 4317TIP3    H134586   1.139   3.620   0.432 -0.7082  0.0488  0.3690
 4317TIP3    H234587   1.127   3.479   0.377 -0.1951  0.1593 -0.0275
 4318TIP3   OH234588   1.056   6.632   0.257  0.3562  0.3610  0.0777
 4318TIP3    H134589   1.001   6.612   0.332 -0.9957 -1.8272 -1.3987
 4318TIP3    H234590   1.025   6.717   0.226 -1.6989 -0.4498 -0.2271
 4319TIP3   OH234591   3.848   0.447   8.756 -0.6207  0.6543  0.4500
 4319TIP3    H134592   3.941   0.465   8.770  0.0448 -1.7023 -0.5362
 4319TIP3    H234593   3.843   0.353   8.738 -3.2462  0.6393  0.7665
 4320TIP3   OH234594   5.699   0.460   1.041 -0.5242 -0.5957  0.2466
 4320TIP3    H134595   5.742   0.485   1.123 -1.4234 -0.4029  0.6718
 4320TIP3    H234596   5.607   0.452   1.064 -0.9692  0.5818 -1.0106
 4321TIP3   OH234597   4.919   2.380   8.125 -0.7002 -0.5008  0.1071
 4321TIP3    H134598   4.978   2.328   8.071  0.0436 -0.1692  0.5832
 4321TIP3    H234599   4.831   2.355   8.096 -0.3487 -1.6648 -0.0032
 4322TIP3   OH234600   4.410   5.709   1.381  0.3269  0.2750  0.1894
 4322TIP3    H134601   4.314   5.704   1.373  0.2312  1.7121  0.2550
 4322TIP3    H234602   4.425   5.721   1.474  0.6200 -0.4701  0.2485
 4323TIP3   OH234603   0.065   2.798   7.262  0.1325  0.4327 -0.5743
 4323TIP3    H134604   0.107   2.738   7.200 -1.6888 -2.1755  0.5451
 4323TIP3    H234605   0.137   2.831   7.315  1.3100  0.0179 -1.8547
 4324TIP3   OH234606   0.415   0.419   1.967 -0.0356 -0.4489 -0.4394
 4324TIP3    H134607   0.349   0.350   1.972 -0.6434  0.0279 -1.5649
 4324TIP3    H234608   0.470   0.405   2.044 -1.4296 -0.8653  0.5226
 4325TIP3   OH234609   0.378   1.655   1.170 -0.1717 -0.5485  0.5436
 4325TIP3    H134610   0.406   1.746   1.181  0.3112 -0.8021  1.4969
 4325TIP3    H234611   0.395   1.614   1.254 -2.5550 -0.9545  0.8838
 4326TIP3   OH234612   3.047   3.916   7.388  0.1744 -0.0095 -0.6971
 4326TIP3    H134613   3.018   3.828   7.363  0.2063  0.0169 -0.8300
 4326TIP3    H234614   3.009   3.973   7.321 -0.1903  0.1250 -0.3743
 4327TIP3   OH234615   4.895   2.434   0.450 -0.0909 -0.2834 -0.0398
 4327TIP3    H134616   4.920   2.434   0.358  1.2350  0.1048  0.2881
 4327TIP3    H234617   4.892   2.342   0.475  0.5013 -0.3650 -0.2455
 4328TIP3   OH234618   5.776   6.353   1.057  0.0811 -0.2151  0.0393
 4328TIP3    H134619   5.858   6.303   1.058  0.5573  0.4932  2.6705
 4328TIP3    H234620   5.801   6.440   1.025  0.8016  0.5620  2.5265
 4329TIP3   OH234621   2.915   5.864   8.786  0.3482 -0.2173  0.3227
 4329TIP3    H134622   2.890   5.866   8.694  2.1901 -1.0770 -0.2566
 4329TIP3    H234623   2.851   5.920   8.830 -1.0528 -0.4379 -1.3394
 4330TIP3   OH234624   6.789   6.390   8.728  0.2731 -0.0776 -0.2302
 4330TIP3    H134625   6.862   6.423   8.675  0.4475  0.2291  0.1992
 4330TIP3    H234626   6.746   6.325   8.671  1.3206 -0.8130 -0.2196
 4331TIP3   OH234627   0.939   4.850   8.666  0.2190  1.1727 -0.2112
 4331TIP3    H134628   0.952   4.880   8.756  0.1294 -0.2713  0.2985
 4331TIP3    H234629   1.025   4.820   8.638  0.3598  2.0764 -0.8073
 4332TIP3   OH234630   2.057   6.012   0.260  0.2962 -0.2507 -0.1253
 4332TIP3    H134631   1.967   6.021   0.230  1.1586  0.2845 -2.8116
 4332TIP3    H234632   2.063   5.921   0.289 -0.9240 -0.4905 -0.5622
 4333TIP3   OH234633   4.434   0.625   2.042 -0.0126  0.3978 -0.4065
 4333TIP3    H134634   4.491   0.702   2.050 -0.0068  0.3381  0.2047
 4333TIP3    H234635   4.345   0.661   2.045 -0.0159  0.3415  0.4484
 4334TIP3   OH234636   6.024   4.215   1.829  0.3714  0.6835 -0.1552
 4334TIP3    H134637   6.062   4.214   1.917  0.2369  2.7003 -0.0251
 4334TIP3    H234638   6.062   4.292   1.787 -1.0374  0.8614 -1.1862
 4335TIP3   OH234639   4.505   2.462   7.458 -0.6896  0.0312  0.0983
 4335TIP3    H134640   4.509   2.367   7.456  1.2511 -0.0735  2.9998
 4335TIP3    H234641   4.412   2.483   7.449 -0.9760 -1.9534 -2.5452
 4336TIP3   OH234642   6.374   2.977   8.680  0.2191 -0.1448  0.1423
 4336TIP3    H134643   6.306   3.044   8.685 -0.5132 -0.8828  0.4363
 4336TIP3    H234644   6.380   2.943   8.770  0.8915 -0.1625  0.0907
 4337TIP3   OH234645   3.002   5.210   8.827 -0.3086 -0.0542 -1.1612
 4337TIP3    H134646   3.051   5.229   8.907 -1.7919 -0.1807 -0.1989
 4337TIP3    H234647   2.911   5.229   8.849 -0.6966  0.3828 -2.9783
 4338TIP3   OH234648   1.955   5.796   1.076  0.2397 -0.0253  0.5181
 4338TIP3    H134649   2.043   5.773   1.105  0.6544 -1.1922 -1.4631
 4338TIP3    H234650   1.897   5.741   1.129  0.9501 -1.9045 -0.5440
 4339TIP3   OH234651   4.832   4.069   1.942  0.2099  0.1037  0.0507
 4339TIP3    H134652   4.812   4.015   2.018 -0.5894  1.7108  1.0446
 4339TIP3    H234653   4.785   4.027   1.869 -1.6920  0.2999  1.1006
 4340TIP3   OH234654   1.433   5.389   6.906  0.1785 -0.2937  0.7000
 4340TIP3    H134655   1.344   5.424   6.897  0.0042 -0.9727 -0.4074
 4340TIP3    H234656   1.432   5.308   6.855  1.6051  0.0089  0.1472
 4341TIP3   OH234657   2.093   2.619   8.344 -0.5705  0.2701  0.4484
 4341TIP3    H134658   2.100   2.525   8.362 -0.5600 -0.0134 -0.9123
 4341TIP3    H234659   2.127   2.629   8.255  0.2621  1.7012  0.8900
 4342TIP3   OH234660   5.349   6.559   7.709  0.4662 -0.2250  0.2596
 4342TIP3    H134661   5.340   6.494   7.639 -0.5139  1.3920 -1.1834
 4342TIP3    H234662   5.293   6.527   7.779 -1.9783  0.2141 -1.3718
 4343TIP3   OH234663   0.788   2.604   6.433 -0.0572  0.1866 -0.0460
 4343TIP3    H134664   0.840   2.592   6.513 -1.3839 -2.4202  0.5318
 4343TIP3    H234665   0.697   2.602   6.463 -0.6946  4.0743 -1.1021
 4344TIP3   OH234666   0.450   5.743   8.829  0.5464 -0.3509 -0.5153
 4344TIP3    H134667   0.457   5.801   8.754 -1.5382  0.4770 -0.1326
 4344TIP3    H234668   0.505   5.668   8.807 -0.1453 -0.2145 -2.9392
 4345TIP3   OH234669   0.960   3.181   1.810 -0.1500 -0.2679 -0.3348
 4345TIP3    H134670   0.906   3.139   1.743  0.5152 -0.7083 -0.6091
 4345TIP3    H234671   0.989   3.109   1.866  0.5008 -0.0982 -0.4428
 4346TIP3   OH234672   2.842   5.334   7.847 -0.1515  0.0822  0.4251
 4346TIP3    H134673   2.779   5.392   7.803  0.4558  0.6190  0.2491
 4346TIP3    H234674   2.843   5.254   7.794 -2.3024 -0.8320  1.6268
 4347TIP3   OH234675   5.877   3.179   8.779 -0.2095  0.1984 -0.0960
 4347TIP3    H134676   5.792   3.153   8.815 -0.5658 -0.9816 -1.6647
 4347TIP3    H234677   5.914   3.238   8.844 -2.4269  1.1203  0.4220
 4348TIP3   OH234678   3.735   2.208   0.892 -0.1686  0.0700 -0.6150
 4348TIP3    H134679   3.722   2.297   0.858  2.2077  1.8786  2.6251
 4348TIP3    H234680   3.798   2.169   0.832 -0.8848  0.7273 -1.8382
 4349TIP3   OH234681   6.774   0.649   6.203  0.0155  0.7076 -0.3662
 4349TIP3    H134682   6.688   0.658   6.245 -1.9053 -1.0412 -3.4994
 4349TIP3    H234683   6.818   0.580   6.254 -0.6393  1.2227  0.9508
 4350TIP3   OH234684   1.473   2.702   1.747  0.3093 -0.1680  0.6120
 4350TIP3    H134685   1.450   2.679   1.657  0.9004  0.5433  0.2663
 4350TIP3    H234686   1.513   2.623   1.782 -1.7893 -1.1592  0.9577
 4351TIP3   OH234687   3.219   5.657   7.029  0.4598 -0.1229 -0.5432
 4351TIP3    H134688   3.255   5.740   6.999  2.2345 -1.1435 -1.3632
 4351TIP3    H234689   3.185   5.677   7.117  3.5406  0.8666  0.5803
 4352TIP3   OH234690   4.037   5.920   0.015  0.0808 -0.2548  0.3969
 4352TIP3    H134691   4.107   5.881  -0.037  0.0339 -0.0508  0.1807
 4352TIP3    H234692   3.956   5.881  -0.019  0.1601 -1.3741  1.4171
 4353TIP3   OH234693   1.370   6.714   8.403 -0.6306  0.3829 -0.6006
 4353TIP3    H134694   1.415   6.686   8.323  1.3009  1.5106  0.0297
 4353TIP3    H234695   1.369   6.636   8.458  1.7226  0.6077 -0.1536
 4354TIP3   OH234696   2.337   2.069   1.135  0.1472  0.7959 -0.6081
 4354TIP3    H134697   2.373   2.093   1.220  1.2422  0.6473 -1.0151
 4354TIP3    H234698   2.269   2.005   1.154  0.2591  0.8997  0.1580
 4355TIP3   OH234699   4.200   6.293   5.927  0.2393 -0.1367  0.4879
 4355TIP3    H134700   4.135   6.334   5.984  0.8644  0.2657  0.9247
 4355TIP3    H234701   4.244   6.366   5.883 -0.5444 -0.4593 -0.8746
 4356TIP3   OH234702   6.731   2.189   8.708 -0.6304 -0.1213  0.0707
 4356TIP3    H134703   6.644   2.190   8.669 -0.3793  0.3717 -0.4949
 4356TIP3    H234704   6.751   2.281   8.727 -0.2354 -0.2269  0.1956
 4357TIP3   OH234705   0.825   0.239   6.971  0.2691 -0.1651 -0.4088
 4357TIP3    H134706   0.908   0.205   6.935  0.5617  0.6082 -0.4733
 4357TIP3    H234707   0.786   0.287   6.898 -0.2993 -0.6240 -0.4112
 4358TIP3   OH234708   4.777   0.758   1.861 -0.1905  0.2806  0.0449
 4358TIP3    H134709   4.730   0.716   1.789 -0.3981  1.4555 -0.5211
 4358TIP3    H234710   4.840   0.816   1.818  1.3220 -0.7280  0.7865
 4359TIP3   OH234711   2.664   1.394   1.043 -0.2836  0.0493 -0.3174
 4359TIP3    H134712   2.645   1.325   0.980 -0.5898  0.0298 -0.2061
 4359TIP3    H234713   2.615   1.369   1.121  2.1254 -1.3585  0.8986
 4360TIP3   OH234714   1.228   2.963   1.876 -0.3057 -0.4839  0.0934
 4360TIP3    H134715   1.314   2.972   1.917 -0.0322  1.1157 -0.7652
 4360TIP3    H234716   1.172   2.928   1.945  0.6931 -0.1421  1.1041
 4361TIP3   OH234717   4.887   4.470   6.945 -0.8510  0.4119 -0.1409
 4361TIP3    H134718   4.833   4.402   6.983  2.3090 -1.1443  2.0292
 4361TIP3    H234719   4.905   4.440   6.856  0.2827 -1.5886  0.6986
 4362TIP3   OH234720   1.774   4.360   7.680 -0.2359  0.2926  0.3346
 4362TIP3    H134721   1.791   4.274   7.641  0.7325 -0.2572  1.8900
 4362TIP3    H234722   1.772   4.420   7.605  0.8126 -0.8140 -0.6309
 4363TIP3   OH234723   0.509   1.394   0.662  0.0941  0.4956 -0.1368
 4363TIP3    H134724   0.463   1.436   0.735  0.1475  1.0105 -0.3962
 4363TIP3    H234725   0.593   1.439   0.659  0.1171  0.4272 -0.4728
 4364TIP3   OH234726   2.634   6.718   1.500  0.1118  0.1493  0.0147
 4364TIP3    H134727   2.631   6.814   1.497 -2.4149  0.1437  0.7754
 4364TIP3    H234728   2.564   6.690   1.442 -0.4450 -1.1932  1.2866
 4365TIP3   OH234729   5.380   1.021   0.366 -0.4048  0.7667 -0.2920
 4365TIP3    H134730   5.392   0.993   0.276 -0.1444  2.3128 -0.7653
 4365TIP3    H234731   5.469   1.032   0.400 -0.4922  1.5442 -0.3025
 4366TIP3   OH234732   3.306   3.342   1.773 -0.0576 -0.1557 -0.3189
 4366TIP3    H134733   3.228   3.373   1.818 -2.1055 -2.1824 -2.2458
 4366TIP3    H234734   3.355   3.422   1.752 -2.0238  1.2584  0.2165
 4367TIP3   OH234735   4.304   6.343   1.552  0.0609 -0.6722  0.1086
 4367TIP3    H134736   4.298   6.280   1.480  0.3081 -1.2172  0.5553
 4367TIP3    H234737   4.214   6.352   1.584 -0.0145 -0.5957 -0.1247
 4368TIP3   OH234738   1.065   0.347   0.360  0.6397 -0.1660 -0.1103
 4368TIP3    H134739   1.047   0.441   0.368  0.9761 -0.0552 -0.5898
 4368TIP3    H234740   0.981   0.309   0.333  0.8631  0.2217 -1.4405
 4369TIP3   OH234741   3.778   5.286   8.891  0.2041  0.8938 -0.6162
 4369TIP3    H134742   3.791   5.221   8.823 -1.7748 -0.8034  0.5114
 4369TIP3    H234743   3.699   5.333   8.865 -0.8254 -0.0626  0.6551
 4370TIP3   OH234744   6.390   0.865   7.652 -0.1039  0.0785 -0.2261
 4370TIP3    H134745   6.460   0.920   7.688 -0.5140  0.4729 -0.0249
 4370TIP3    H234746   6.310   0.896   7.696 -0.4794 -0.0411 -0.8171
 4371TIP3   OH234747   5.756   0.442   7.751  0.0565  0.1777  0.1174
 4371TIP3    H134748   5.748   0.488   7.668 -0.8355  1.0296  0.6495
 4371TIP3    H234749   5.848   0.453   7.777  0.6001 -0.9731 -1.2285
 4372TIP3   OH234750   1.709   1.798   0.345 -0.3825 -0.1330 -0.6214
 4372TIP3    H134751   1.705   1.790   0.440  1.5340 -0.9546 -0.5668
 4372TIP3    H234752   1.727   1.709   0.315 -0.0475  0.2853 -1.6932
 4373TIP3   OH234753   3.120   4.059   0.638  0.5640  0.6641  0.0866
 4373TIP3    H134754   3.101   3.966   0.629  0.2224  0.5512  1.6753
 4373TIP3    H234755   3.169   4.066   0.720  2.0680  1.7036 -0.8411
 4374TIP3   OH234756   2.616   5.598   6.436 -0.7643  0.2141 -0.0735
 4374TIP3    H134757   2.634   5.514   6.477  0.3542  0.3258 -0.2953
 4374TIP3    H234758   2.558   5.577   6.363 -0.1398 -0.4399 -0.3984
 4375TIP3   OH234759   3.140   2.520   7.985 -0.0629 -0.0059 -0.0907
 4375TIP3    H134760   3.150   2.609   8.019 -3.1108  0.5897 -0.5009
 4375TIP3    H234761   3.194   2.466   8.043  0.6878  1.8913  1.0827
 4376TIP3   OH234762   4.849   0.054   7.268 -0.3148 -0.5510  0.3523
 4376TIP3    H134763   4.816  -0.023   7.221 -1.0442  0.4713 -0.9084
 4376TIP3    H234764   4.783   0.121   7.251  1.1678  0.8539 -0.1089
 4377TIP3   OH234765   2.918   2.805   7.884  0.2910 -0.3318  0.0764
 4377TIP3    H134766   2.938   2.778   7.974 -1.0338  0.3329  0.5913
 4377TIP3    H234767   2.823   2.802   7.879  0.1611  2.4644 -0.3992
 4378TIP3   OH234768   4.108   3.335   0.655 -0.4448 -0.2490  0.0416
 4378TIP3    H134769   4.130   3.402   0.590  0.3965 -0.4813  0.0743
 4378TIP3    H234770   4.125   3.252   0.611 -0.3039 -0.4169  0.4065
 4379TIP3   OH234771   1.221   1.453   1.570 -0.1837  0.3890 -0.4265
 4379TIP3    H134772   1.158   1.420   1.507 -0.1328 -0.0076 -0.2735
 4379TIP3    H234773   1.194   1.415   1.654  1.5597 -1.7164 -0.7022
 4380TIP3   OH234774   1.406   4.152   1.661  0.1919 -0.1979 -0.7187
 4380TIP3    H134775   1.339   4.203   1.706  0.1167  0.1077 -1.1689
 4380TIP3    H234776   1.461   4.218   1.618  2.2341 -0.2670  1.5899
 4381TIP3   OH234777   0.313   5.019   2.089 -0.2036  0.1700  0.2652
 4381TIP3    H134778   0.351   5.043   2.174 -0.3959  1.3268  0.0287
 4381TIP3    H234779   0.363   5.069   2.025 -0.3363 -0.3855 -0.2817
 4382TIP3   OH234780   1.034   0.498   7.979  0.4770  0.1605  0.1346
 4382TIP3    H134781   0.987   0.557   8.038  1.8614  0.8068  0.6338
 4382TIP3    H234782   1.090   0.446   8.036  1.2587  0.2503 -0.5202
 4383TIP3   OH234783   0.352   4.622   7.716  0.1526  0.1337 -0.3996
 4383TIP3    H134784   0.441   4.639   7.687 -0.0497 -0.7119 -1.5679
 4383TIP3    H234785   0.355   4.636   7.811  1.6211 -0.2511 -0.3572
 4384TIP3   OH234786   0.921   3.805   6.515 -0.0522  0.2773  0.5001
 4384TIP3    H134787   0.883   3.717   6.512  0.5807 -0.0354  1.2518
 4384TIP3    H234788   0.861   3.859   6.464  0.2823 -0.8599 -1.1809
 4385TIP3   OH234789   4.040   6.668   0.484 -0.4120  0.0481 -0.3146
 4385TIP3    H134790   4.116   6.722   0.465 -0.8562  0.4266 -1.0920
 4385TIP3    H234791   4.024   6.678   0.578  1.3650 -1.1969  0.1615
 4386TIP3   OH234792   0.547   6.032   0.001 -0.6668 -0.0730 -0.7029
 4386TIP3    H134793   0.484   5.968   0.036  0.1178  0.2956  1.5444
 4386TIP3    H234794   0.513   6.117   0.030  0.2382  0.2092 -0.4352
 4387TIP3   OH234795   3.427   4.744   7.147  0.1295  0.3547  0.3259
 4387TIP3    H134796   3.404   4.655   7.172 -1.3189  0.8572  0.8949
 4387TIP3    H234797   3.409   4.797   7.225 -1.5400  1.4892 -0.7429
 4388TIP3   OH234798   5.122   3.929   8.353  0.7967 -0.0002  0.0294
 4388TIP3    H134799   5.043   3.969   8.318  1.1929  2.2665  1.5006
 4388TIP3    H234800   5.154   3.873   8.282 -1.0145  0.5986 -1.3331
 4389TIP3   OH234801   0.032   5.811   6.903 -0.1301  0.3176 -0.2549
 4389TIP3    H134802   0.000   5.721   6.909 -1.2411  0.7501  0.7149
 4389TIP3    H234803   0.094   5.810   6.830 -2.5188 -0.5157 -2.3741
 4390TIP3   OH234804   2.085   2.374   0.516  0.8039  0.0327  0.1654
 4390TIP3    H134805   2.001   2.373   0.563  0.2986  3.3309 -0.4581
 4390TIP3    H234806   2.150   2.362   0.585 -0.0832  0.3778  1.0990
 4391TIP3   OH234807   2.406   2.929   7.357  0.9215  0.0864 -0.2125
 4391TIP3    H134808   2.341   2.995   7.383  0.1689 -0.5394 -0.4684
 4391TIP3    H234809   2.469   2.929   7.429  0.7888  0.8925 -0.0828
 4392TIP3   OH234810   1.111   4.685   0.918  0.0181  0.1262  0.0876
 4392TIP3    H134811   1.119   4.746   0.846 -0.1616 -1.5800 -1.4592
 4392TIP3    H234812   1.165   4.722   0.988  1.5153  1.0322 -1.4810
 4393TIP3   OH234813   0.279   2.443   0.402 -0.3947 -0.1775  0.6183
 4393TIP3    H134814   0.230   2.361   0.400 -2.0074  0.7270 -1.3196
 4393TIP3    H234815   0.333   2.440   0.323 -1.0199  0.8886  0.1215
 4394TIP3   OH234816   6.146   6.719   2.039  0.1275 -0.0459  0.9259
 4394TIP3    H134817   6.073   6.659   2.028  0.1921  0.0264  0.0652
 4394TIP3    H234818   6.126   6.766   2.120 -1.5936  1.0949 -0.0936
 4395TIP3   OH234819   5.878   5.022   8.778  0.4573  0.1460 -0.0019
 4395TIP3    H134820   5.811   5.039   8.845  0.1962 -0.5817 -0.0730
 4395TIP3    H234821   5.856   5.083   8.707  0.7158  0.8970  0.5561
 4396TIP3   OH234822   4.154   0.304   7.375  0.3388  0.1501  0.4593
 4396TIP3    H134823   4.077   0.347   7.337  0.8199 -0.4003 -1.2016
 4396TIP3    H234824   4.221   0.373   7.375  0.4677  0.0254 -0.1149
 4397TIP3   OH234825   2.535   0.275   1.835  0.1538  0.0160 -0.1364
 4397TIP3    H134826   2.577   0.235   1.911  0.4035  0.0325 -0.2663
 4397TIP3    H234827   2.604   0.280   1.769 -0.7792 -2.9201 -1.5068
 4398TIP3   OH234828   4.995   5.007   0.049 -0.0180  0.4759  0.5024
 4398TIP3    H134829   5.055   5.034   0.119 -0.1497  0.9675  0.4272
 4398TIP3    H234830   5.052   4.962  -0.014 -0.1952 -1.7091  1.8265
 4399TIP3   OH234831   2.783   0.227   1.651 -0.1158 -0.2162  0.3069
 4399TIP3    H134832   2.809   0.146   1.695  0.1430 -1.1482 -1.4362
 4399TIP3    H234833   2.866   0.272   1.633 -0.2593  0.4452  1.2665
 4400TIP3   OH234834   0.593   1.216   8.876  0.2363  0.5504 -0.1691
 4400TIP3    H134835   0.688   1.210   8.884  0.1218 -0.6186  0.4553
 4400TIP3    H234836   0.571   1.154   8.807 -0.1513  0.1939  0.2698
 4401TIP3   OH234837   4.755   5.389   8.357 -1.0469  0.4712  0.0651
 4401TIP3    H134838   4.828   5.340   8.393 -1.8573 -0.1346  0.9398
 4401TIP3    H234839   4.746   5.357   8.268 -2.2637 -1.8860  0.9327
 4402TIP3   OH234840   3.075   4.691   8.666  0.1927  0.0753  0.0744
 4402TIP3    H134841   2.993   4.659   8.627  1.0250 -1.6837 -0.3067
 4402TIP3    H234842   3.143   4.661   8.606  1.1440  1.4610  0.4257
 4403TIP3   OH234843   6.679   4.281   8.494  0.0687  0.6427  0.3231
 4403TIP3    H134844   6.763   4.307   8.533 -0.7410  5.3131 -0.4918
 4403TIP3    H234845   6.618   4.280   8.568  0.2573  0.3230  0.4747
 4404TIP3   OH234846   3.358   2.866   8.694 -0.1124 -0.2201  0.6391
 4404TIP3    H134847   3.270   2.887   8.662  0.5220 -0.3826 -1.3886
 4404TIP3    H234848   3.396   2.951   8.716  0.4950  0.3574 -2.1814
 4405TIP3   OH234849   0.177   4.838   0.440 -0.3328  0.2356  0.2830
 4405TIP3    H134850   0.170   4.785   0.360 -3.1646 -1.7630  1.6984
 4405TIP3    H234851   0.106   4.902   0.433  1.6135  2.4918 -0.3121
 4406TIP3   OH234852   0.438   6.172   8.477  0.4725 -0.5657  0.1929
 4406TIP3    H134853   0.412   6.206   8.563 -1.2736 -0.1324 -0.4632
 4406TIP3    H234854   0.438   6.248   8.420  1.2378 -0.9184 -0.2930
 4407TIP3   OH234855   4.388   0.616   0.099 -0.0093  0.0272 -0.4024
 4407TIP3    H134856   4.408   0.705   0.070 -1.1573  1.3610  2.4989
 4407TIP3    H234857   4.472   0.582   0.132 -0.0482  1.0230  0.7655
 4408TIP3   OH234858   6.452   4.762   8.185  0.1355  0.2337  0.2465
 4408TIP3    H134859   6.386   4.794   8.123 -0.5727 -1.7363 -0.0789
 4408TIP3    H234860   6.407   4.764   8.270 -0.1358 -0.4274  0.1302
 4409TIP3   OH234861   0.644   5.288   7.761  0.5957 -0.4212  0.6208
 4409TIP3    H134862   0.664   5.363   7.818  0.9597 -0.7657  0.9538
 4409TIP3    H234863   0.658   5.321   7.673  2.3498 -0.5374  0.8143
 4410TIP3   OH234864   6.014   0.726   1.433 -0.0872  0.1609 -0.1802
 4410TIP3    H134865   6.079   0.708   1.501 -0.3349 -0.5110 -0.1101
 4410TIP3    H234866   6.018   0.821   1.420  1.6387  0.0286 -0.9015
 4411TIP3   OH234867   1.543   4.253   8.667 -0.6125 -0.0997  0.7829
 4411TIP3    H134868   1.494   4.188   8.717 -2.0141 -0.1006 -0.5168
 4411TIP3    H234869   1.508   4.337   8.696 -2.4858 -0.1436 -1.1460
 4412TIP3   OH234870   3.987   5.018   8.661 -0.3424  0.8065 -0.3695
 4412TIP3    H134871   4.069   4.976   8.635  1.7215  3.1796  1.8070
 4412TIP3    H234872   3.921   4.978   8.605  1.9859 -2.4956 -1.0392
 4413TIP3   OH234873   2.601   4.591   7.086  0.6484  0.8517  0.0828
 4413TIP3    H134874   2.569   4.589   6.996  1.6244 -1.2906 -0.2812
 4413TIP3    H234875   2.525   4.615   7.139 -0.4285  0.2257 -1.1392
 4414TIP3   OH234876   6.696   1.097   0.440  0.0478 -0.0601  0.0701
 4414TIP3    H134877   6.650   1.157   0.498  1.7353  0.4398  0.9482
 4414TIP3    H234878   6.787   1.101   0.468  0.6572 -1.0018 -1.6152
 4415TIP3   OH234879   6.514   3.378   1.843  0.0818 -0.8247  0.4084
 4415TIP3    H134880   6.573   3.336   1.780 -0.4399 -0.8691 -0.0578
 4415TIP3    H234881   6.567   3.389   1.922  0.6030 -1.1975  0.1164
 4416TIP3   OH234882   3.479   3.183   8.173  0.3065  0.2145 -0.0511
 4416TIP3    H134883   3.498   3.265   8.220 -1.0453 -0.3644  1.6366
 4416TIP3    H234884   3.497   3.114   8.237  0.1841 -0.7441 -1.0239
 4417TIP3   OH234885   4.483   1.210   7.805  0.1345 -0.2289  0.0142
 4417TIP3    H134886   4.448   1.263   7.733  0.4942 -1.2370 -0.9391
 4417TIP3    H234887   4.461   1.259   7.884 -1.1158  0.4526 -0.7155
 4418TIP3   OH234888   0.922   3.539   7.724 -0.0459 -0.2615 -0.0042
 4418TIP3    H134889   1.015   3.535   7.706 -0.0489 -2.7931  0.1643
 4418TIP3    H234890   0.916   3.565   7.816  0.4138  1.0052 -0.3169
 4419TIP3   OH234891   0.124   0.839   8.240 -0.7341  0.2168 -0.0053
 4419TIP3    H134892   0.218   0.854   8.237 -0.6375 -0.5190 -1.9510
 4419TIP3    H234893   0.106   0.782   8.165 -2.5155 -0.9327  1.2256
 4420TIP3   OH234894   4.189   0.683   0.323  0.1247  0.4322  0.1837
 4420TIP3    H134895   4.240   0.656   0.400 -1.5787  0.7664  1.5077
 4420TIP3    H234896   4.237   0.649   0.249  1.3735 -0.7080  1.4577
 4421TIP3   OH234897   1.826   1.310   7.776  0.1341 -0.2259  0.3694
 4421TIP3    H134898   1.790   1.343   7.693 -1.0319  0.5038  1.1415
 4421TIP3    H234899   1.782   1.226   7.789 -0.2550  0.0133  0.6171
 4422TIP3   OH234900   3.497   4.492   0.440  0.0049  0.0206  0.2687
 4422TIP3    H134901   3.576   4.445   0.413 -1.3569 -1.2270 -1.7859
 4422TIP3    H234902   3.450   4.431   0.497 -0.1683  0.2248  0.3514
 4423TIP3   OH234903   6.721   2.652   8.165 -0.3137  0.4093 -0.6511
 4423TIP3    H134904   6.648   2.591   8.174  0.4994 -0.7631 -1.6729
 4423TIP3    H234905   6.713   2.686   8.076  0.3094  0.3683 -0.7248
 4424TIP3   OH234906   1.817   3.592   0.130 -0.3832 -0.5975  0.3708
 4424TIP3    H134907   1.839   3.640   0.049 -0.4127  1.4250  1.5025
 4424TIP3    H234908   1.863   3.640   0.199  0.7489 -3.0657  1.4660
 4425TIP3   OH234909   4.849   2.289   1.268  0.4913  0.1605 -0.2669
 4425TIP3    H134910   4.806   2.215   1.311 -0.0883  0.7736  0.2360
 4425TIP3    H234911   4.900   2.249   1.197 -0.5902 -0.6368 -0.6333
 4426TIP3   OH234912   4.826   2.577   2.332 -0.8145 -0.0653  0.0724
 4426TIP3    H134913   4.766   2.597   2.403  1.2059  2.9163  1.1364
 4426TIP3    H234914   4.879   2.504   2.365 -2.3237 -1.2294  0.0075
 4427TIP3   OH234915   5.193   2.053   1.787 -0.2112 -0.5920  0.3962
 4427TIP3    H134916   5.101   2.065   1.762 -0.4233 -1.6981  0.6146
 4427TIP3    H234917   5.195   1.969   1.832  0.9724 -0.7336  0.1048
 4428TIP3   OH234918   1.435   4.406   1.553 -0.5324 -0.0057 -0.3914
 4428TIP3    H134919   1.455   4.433   1.642  2.1976 -0.3322 -0.8395
 4428TIP3    H234920   1.492   4.460   1.498  0.8211 -2.5467 -1.6559
 4429TIP3   OH234921   1.159   3.484   8.843 -0.5244 -0.4723 -0.0618
 4429TIP3    H134922   1.141   3.393   8.819  1.5104 -0.7859 -0.6274
 4429TIP3    H234923   1.127   3.536   8.769  3.3267 -1.2431 -2.6033
 4430TIP3   OH234924   1.953   3.057   0.267  0.0763  0.6698  0.0659
 4430TIP3    H134925   1.965   3.047   0.173  1.1199 -1.4856  0.3562
 4430TIP3    H234926   2.024   3.116   0.294  1.1897 -0.4976 -0.2262
 4431TIP3   OH234927   3.979   1.430   6.818 -0.1035 -0.0285 -0.3237
 4431TIP3    H134928   3.956   1.456   6.729 -4.5456 -2.1552 -0.0472
 4431TIP3    H234929   3.942   1.498   6.874 -0.1674 -0.3445  0.0192
 4432TIP3   OH234930   6.749   4.336   8.089  0.3811 -0.5231  0.6301
 4432TIP3    H134931   6.787   4.423   8.096  0.3189 -0.3647 -0.7209
 4432TIP3    H234932   6.794   4.284   8.155  0.1727  0.6062  1.6902
 4433TIP3   OH234933   0.458   5.167   2.324  0.3530 -0.1819  0.1955
 4433TIP3    H134934   0.442   5.247   2.274  0.3888 -0.6206 -0.5228
 4433TIP3    H234935   0.552   5.168   2.341  0.4480 -0.3651 -0.3182
 4434TIP3   OH234936   3.420   2.065   8.704 -0.1642 -0.1482  0.2060
 4434TIP3    H134937   3.461   1.983   8.732  0.3410  0.5211  1.4971
 4434TIP3    H234938   3.489   2.111   8.656 -0.1097 -0.0235  0.4017
 4435TIP3   OH234939   3.735   6.398   6.348 -0.7487  0.1432 -0.3116
 4435TIP3    H134940   3.830   6.404   6.359 -0.9758  2.1461  1.1404
 4435TIP3    H234941   3.715   6.306   6.361  0.9695 -0.2736 -0.3744
 4436TIP3   OH234942   1.344   0.437   1.270 -0.0252 -0.7176  0.0138
 4436TIP3    H134943   1.291   0.379   1.324  0.1192 -1.3785 -0.5486
 4436TIP3    H234944   1.287   0.512   1.253 -0.6555 -1.2512 -0.2744
 4437TIP3   OH234945   5.182   1.617   0.001  0.3956 -0.2048  0.1122
 4437TIP3    H134946   5.259   1.670  -0.019 -1.5801  2.1541 -1.9666
 4437TIP3    H234947   5.149   1.654   0.083  0.6141 -0.1867  0.1944
 4438TIP3   OH234948   5.264   4.227   1.941  0.4668  0.5169  0.2791
 4438TIP3    H134949   5.228   4.280   1.871  0.6667  0.3011  0.0113
 4438TIP3    H234950   5.212   4.250   2.018 -0.7431 -0.3262 -0.2480
 4439TIP3   OH234951   6.425   4.745   1.002  0.1383 -0.1267  0.9410
 4439TIP3    H134952   6.392   4.698   0.925  1.0557 -0.7864  0.9345
 4439TIP3    H234953   6.351   4.744   1.063 -0.0880 -0.9704  0.6717
 4440TIP3   OH234954   5.606   6.690   8.038 -0.0132 -0.5099 -0.2249
 4440TIP3    H134955   5.573   6.740   7.963 -0.3744 -0.9801 -0.3868
 4440TIP3    H234956   5.539   6.624   8.053  0.4820 -0.9755 -0.0470
 4441TIP3   OH234957   3.428   3.111   8.834 -0.1439 -0.1971  0.1751
 4441TIP3    H134958   3.394   3.150   8.914  0.2634 -1.3580  0.9258
 4441TIP3    H234959   3.522   3.102   8.850 -0.0279 -0.2693 -0.5116
 4442TIP3   OH234960   0.233   0.321   0.215  0.4985  0.4294  0.3488
 4442TIP3    H134961   0.272   0.408   0.206 -1.5594  1.2913 -1.0197
 4442TIP3    H234962   0.144   0.331   0.180 -0.4407 -1.7788  1.9030
 4443TIP3   OH234963   1.528   4.396   7.073  0.9230 -0.0725  0.6142
 4443TIP3    H134964   1.553   4.373   7.163  3.1995  0.3576  0.1586
 4443TIP3    H234965   1.592   4.350   7.018  1.4303  1.9835 -0.6260
 4444TIP3   OH234966   6.610   5.704   0.123  0.2153  0.0510  0.4452
 4444TIP3    H134967   6.605   5.610   0.105  0.7041 -0.5058  2.7880
 4444TIP3    H234968   6.519   5.730   0.136  0.1307 -0.3039  0.5934
 4445TIP3   OH234969   0.176   2.163   8.026 -0.2479  0.1566  0.0923
 4445TIP3    H134970   0.271   2.159   8.025 -0.3029 -2.3923 -0.0686
 4445TIP3    H234971   0.150   2.166   7.934 -0.3484  1.6383  0.1421
 4446TIP3   OH234972   3.013   2.352   1.427 -0.7601 -0.3978  0.1866
 4446TIP3    H134973   2.982   2.350   1.337  0.9080  2.0365 -0.5360
 4446TIP3    H234974   2.944   2.397   1.475 -1.0096 -0.3948 -0.1732
 4447TIP3   OH234975   2.100   6.458   7.770 -0.0280 -0.5119 -0.0456
 4447TIP3    H134976   2.036   6.388   7.758  0.7695 -1.2871  0.0795
 4447TIP3    H234977   2.184   6.416   7.754  0.4326  0.5742 -0.5905
 4448TIP3   OH234978   2.182   3.186   0.250  0.2817  0.2843  0.1901
 4448TIP3    H134979   2.217   3.233   0.326  0.6400  0.8568 -0.3261
 4448TIP3    H234980   2.257   3.137   0.216  0.1674  0.1771  0.0914
 4449TIP3   OH234981   5.564   4.453   1.209  0.5095 -0.5850 -0.0863
 4449TIP3    H134982   5.566   4.527   1.270 -2.3953 -0.6010  0.1953
 4449TIP3    H234983   5.654   4.421   1.206  1.2483  1.0561  2.1571
 4450TIP3   OH234984   6.411   6.458   0.967 -0.3111 -0.1698  0.1209
 4450TIP3    H134985   6.434   6.369   0.993 -0.5506 -0.1871  0.2779
 4450TIP3    H234986   6.377   6.498   1.047  2.6229  1.0463  0.8673
 4451TIP3   OH234987   5.340   1.447   7.731 -0.1602  0.1698  0.0457
 4451TIP3    H134988   5.427   1.449   7.690 -0.3607  0.5458 -0.3637
 4451TIP3    H234989   5.337   1.362   7.776  1.2580  1.0279  1.9009
 4452TIP3   OH234990   5.295   5.579   8.081 -0.8751 -1.0720 -0.3598
 4452TIP3    H134991   5.354   5.513   8.117  1.1982 -0.8662 -3.0569
 4452TIP3    H234992   5.260   5.539   8.002 -2.3244 -0.1827 -0.1991
 4453TIP3   OH234993   1.484   1.969   7.797 -0.3969 -0.3384  0.3936
 4453TIP3    H134994   1.453   1.924   7.875 -0.1927 -0.0181  0.6688
 4453TIP3    H234995   1.516   1.900   7.740  0.6599 -0.5011  1.1465
 4454TIP3   OH234996   2.962   4.139   2.603 -0.0083 -0.0462  0.2463
 4454TIP3    H134997   2.899   4.192   2.554  1.8351  0.6934 -1.4646
 4454TIP3    H234998   2.916   4.056   2.620 -1.3920  0.4099 -1.0604
 4455TIP3   OH234999   5.470   1.428   8.447  0.4638  0.9417 -0.6974
 4455TIP3    H135000   5.545   1.389   8.402 -0.7168 -1.7417 -0.5026
 4455TIP3    H235001   5.394   1.386   8.408 -0.9061  2.6050  0.0548
 4456TIP3   OH235002   5.815   2.539   1.713 -0.0680 -0.1574 -0.6361
 4456TIP3    H135003   5.764   2.475   1.664 -1.6022 -1.0244  1.9181
 4456TIP3    H235004   5.863   2.487   1.778 -0.7136  1.1747  0.9780
 4457TIP3   OH235005   6.634   0.490   7.975 -0.1729  0.3402 -0.2815
 4457TIP3    H135006   6.722   0.511   7.944 -0.3750 -0.0289 -1.1239
 4457TIP3    H235007   6.643   0.406   8.019 -0.1717  0.1172 -0.7034
 4458TIP3   OH235008   0.455   6.602   0.022  0.6197 -0.1029  0.3570
 4458TIP3    H135009   0.488   6.692   0.028 -1.7561  0.7886  1.4525
 4458TIP3    H235010   0.527   6.548   0.055  1.0959  1.6869  2.5457
 4459TIP3   OH235011   5.402   0.155   1.014 -0.2261 -0.1426  0.2125
 4459TIP3    H135012   5.346   0.186   1.085  0.5101  0.0691  0.7078
 4459TIP3    H235013   5.462   0.093   1.056  0.7930  0.6474 -0.0385
 4460TIP3   OH235014   3.945   1.764   1.958 -0.0525  0.0774  0.0225
 4460TIP3    H135015   3.929   1.834   2.022  0.6113  1.6648 -1.4826
 4460TIP3    H235016   4.007   1.802   1.896 -1.1623 -1.1743 -1.9481
 4461TIP3   OH235017   6.257   3.428   7.087  0.5603 -0.0025 -0.0434
 4461TIP3    H135018   6.276   3.399   6.998  0.5025 -0.3661  0.0573
 4461TIP3    H235019   6.260   3.347   7.139 -1.4038 -0.1199 -0.0420
 4462TIP3   OH235020   4.976   1.259   8.165  0.2498 -0.1841 -0.0284
 4462TIP3    H135021   4.948   1.350   8.176 -0.6360 -0.1887 -1.8669
 4462TIP3    H235022   4.897   1.207   8.179  0.5359 -0.5915  0.0851
 4463TIP3   OH235023   5.643   6.293   8.831 -0.1480  0.4088  0.0695
 4463TIP3    H135024   5.598   6.316   8.750 -0.0064  0.7573  0.0889
 4463TIP3    H235025   5.670   6.202   8.818 -2.3772 -0.4101  0.7394
 4464TIP3   OH235026   5.136   4.895   8.307  0.7044 -0.3535 -0.3455
 4464TIP3    H135027   5.229   4.908   8.285  1.6218 -0.6036  2.9227
 4464TIP3    H235028   5.134   4.813   8.356 -1.3228 -0.4490 -0.5106
 4465TIP3   OH235029   1.696   4.603   8.085 -0.1124  0.0183 -0.1001
 4465TIP3    H135030   1.680   4.596   7.991  0.7051 -1.3741 -0.1675
 4465TIP3    H235031   1.610   4.621   8.123 -0.7524 -1.0520 -0.9767
 4466TIP3   OH235032   5.330   2.605   6.527 -0.0100 -0.4564 -0.1923
 4466TIP3    H135033   5.256   2.556   6.561 -0.1656 -0.8034 -1.0064
 4466TIP3    H235034   5.406   2.567   6.571 -0.0480 -1.9423 -1.3199
 4467TIP3   OH235035   4.194   6.630   0.145  0.3405 -0.2817 -0.2689
 4467TIP3    H135036   4.260   6.575   0.187  0.8124 -0.3380 -1.0533
 4467TIP3    H235037   4.206   6.614   0.051 -0.7187 -0.2025 -0.4256
 4468TIP3   OH235038   6.280   5.820   2.206 -0.1560 -0.6815  0.2404
 4468TIP3    H135039   6.318   5.832   2.293  3.3544 -0.8010 -1.0805
 4468TIP3    H235040   6.303   5.731   2.182  0.2252 -0.2100 -1.2953
 4469TIP3   OH235041   4.844   6.111   0.160 -0.2617  0.5244  0.2129
 4469TIP3    H135042   4.812   6.108   0.071  0.8073  3.0325 -0.3546
 4469TIP3    H235043   4.793   6.180   0.202  0.6114  0.7555  0.9271
 4470TIP3   OH235044   2.303   3.648   1.989  0.6533  0.5255  0.6688
 4470TIP3    H135045   2.297   3.662   2.083  1.7498  0.2376  0.7950
 4470TIP3    H235046   2.234   3.585   1.970  1.1035 -0.2287  1.4656
 4471TIP3   OH235047   3.720   0.890   7.715 -0.3135  0.0825 -0.4180
 4471TIP3    H135048   3.787   0.857   7.775  0.0812  1.1394 -0.2551
 4471TIP3    H235049   3.767   0.949   7.656 -0.8769 -0.1730 -1.1422
 4472TIP3   OH235050   4.591   2.725   1.707 -0.4912  0.1011 -0.2601
 4472TIP3    H135051   4.579   2.647   1.761 -0.3099 -0.4458 -1.0059
 4472TIP3    H235052   4.535   2.711   1.630  1.0128 -0.1870 -1.3336
 4473TIP3   OH235053   2.194   5.052   2.104 -0.4427  0.4672 -0.4047
 4473TIP3    H135054   2.136   4.985   2.140 -0.1587  0.6888  0.4860
 4473TIP3    H235055   2.230   5.096   2.181  1.3562 -0.0380 -0.9007
 4474TIP3   OH235056   4.284   0.820   1.136 -0.2091  0.0523  0.4764
 4474TIP3    H135057   4.312   0.833   1.046 -1.3589  1.6714  0.3127
 4474TIP3    H235058   4.209   0.879   1.147 -2.0620 -2.3442  1.5760
 4475TIP3   OH235059   1.911   6.191   8.774  0.3943 -0.1252 -0.1181
 4475TIP3    H135060   1.950   6.278   8.779  0.9640 -0.3907  0.1672
 4475TIP3    H235061   1.818   6.207   8.759  0.6994  0.5038 -1.4517
 4476TIP3   OH235062   3.790   5.409   7.758 -0.2631 -0.0300 -0.6148
 4476TIP3    H135063   3.785   5.314   7.773  1.1289 -0.0616 -0.2241
 4476TIP3    H235064   3.830   5.444   7.838  0.4363  0.7205 -1.2713
 4477TIP3   OH235065   5.769   4.232   1.097 -0.2928 -0.6859 -0.2368
 4477TIP3    H135066   5.776   4.139   1.076 -1.3026 -0.7226 -0.4568
 4477TIP3    H235067   5.790   4.237   1.190  1.4321 -0.8984 -0.5912
 4478TIP3   OH235068   2.586   1.828   1.061 -1.0710  0.4929 -0.4844
 4478TIP3    H135069   2.646   1.802   0.991 -1.5558 -1.0938 -0.3690
 4478TIP3    H235070   2.642   1.850   1.135 -0.5986 -1.0053 -0.3663
 4479TIP3   OH235071   5.431   1.706   7.162  0.4346  0.0824 -0.3782
 4479TIP3    H135072   5.506   1.765   7.178 -0.8661  1.4791  0.9225
 4479TIP3    H235073   5.395   1.691   7.249 -0.6360 -0.8088 -0.9643
 4480TIP3   OH235074   0.326   3.413   0.428 -0.1019  0.6948 -0.1697
 4480TIP3    H135075   0.321   3.506   0.450 -0.5186  0.9179 -1.1726
 4480TIP3    H235076   0.415   3.388   0.451  0.4185  1.6587 -1.0847
 4481TIP3   OH235077   6.381   0.432   7.294 -0.5388 -0.1089  0.5288
 4481TIP3    H135078   6.357   0.502   7.354  2.2413 -0.2105  1.9273
 4481TIP3    H235079   6.433   0.371   7.347  2.0080 -0.2499 -1.8769
 4482TIP3   OH235080   1.082   0.464   0.924  0.1203  0.6881  0.0866
 4482TIP3    H135081   1.108   0.393   0.982  1.3702  0.8549 -0.2353
 4482TIP3    H235082   1.100   0.431   0.836  2.6195  2.0538 -0.0146
 4483TIP3   OH235083   2.210   4.610   2.041  0.1287  0.3063  0.1565
 4483TIP3    H135084   2.125   4.580   2.009  0.2267  1.0195 -0.8312
 4483TIP3    H235085   2.243   4.537   2.094 -1.2172  0.1426  0.8003
 4484TIP3   OH235086   5.673   6.028   1.077  1.2199 -0.5054 -0.2713
 4484TIP3    H135087   5.677   5.961   1.009 -2.5616 -1.8369  0.5844
 4484TIP3    H235088   5.630   6.103   1.034  2.3590  0.1567 -0.3057
 4485TIP3   OH235089   3.133   5.252   7.530  0.5656  0.4903  0.2159
 4485TIP3    H135090   3.057   5.310   7.530  0.9784  1.0937 -1.0634
 4485TIP3    H235091   3.155   5.242   7.437  0.5184 -1.7455  0.3898
 4486TIP3   OH235092   0.101   2.209   7.771  0.4955  0.0679 -0.7791
 4486TIP3    H135093   0.012   2.225   7.741 -0.1395  0.6885  1.2949
 4486TIP3    H235094   0.154   2.276   7.726 -0.1479  0.0465 -1.5949
 4487TIP3   OH235095   0.385   2.919   0.369 -0.2892 -0.0586 -0.1570
 4487TIP3    H135096   0.322   2.858   0.407  1.1332  0.4164  3.3684
 4487TIP3    H235097   0.331   2.983   0.323 -2.7312  1.0838  3.7584
 4488TIP3   OH235098   1.910   3.677   7.607  0.3953  0.5676  0.2470
 4488TIP3    H135099   1.821   3.707   7.626  0.3198  0.8301 -0.4883
 4488TIP3    H235100   1.925   3.702   7.516  1.1858  0.4326  0.3312
 4489TIP3   OH235101   5.928   4.367   0.509 -0.0080 -0.3170  0.0357
 4489TIP3    H135102   5.863   4.437   0.502 -0.0258 -0.0053  2.4930
 4489TIP3    H235103   5.893   4.308   0.576  0.9860 -1.5785 -0.5226
 4490TIP3   OH235104   0.876   4.701   2.304 -0.1666 -0.2262 -0.1291
 4490TIP3    H135105   0.788   4.737   2.313 -0.2182 -0.8819  5.4581
 4490TIP3    H235106   0.934   4.768   2.341  1.2625 -1.0753 -0.7270
 4491TIP3   OH235107   3.166   2.180   0.368 -0.4362  0.6666  0.1810
 4491TIP3    H135108   3.252   2.193   0.328 -0.4956 -0.2430 -0.2627
 4491TIP3    H235109   3.185   2.140   0.453 -0.3984  0.9615  0.3130
 4492TIP3   OH235110   1.683   3.123   0.639  0.1873 -0.4002  0.1179
 4492TIP3    H135111   1.706   3.095   0.551 -0.9514 -1.1147  0.0160
 4492TIP3    H235112   1.749   3.082   0.696  2.0080  1.5274 -0.5094
 4493TIP3   OH235113   5.601   6.660   8.745  0.6446 -0.1643  0.5770
 4493TIP3    H135114   5.624   6.748   8.778 -1.1950  0.8155 -0.5935
 4493TIP3    H235115   5.540   6.626   8.810  0.7094 -0.2295  0.6033
 4494TIP3   OH235116   5.369   4.418   0.494 -0.4065  0.5786 -0.1454
 4494TIP3    H135117   5.322   4.360   0.435  0.1609  1.0136 -1.0411
 4494TIP3    H235118   5.450   4.370   0.514  0.1409  1.1220 -1.0217
 4495TIP3   OH235119   1.758   1.813   8.692  0.5393  0.2148 -0.5035
 4495TIP3    H135120   1.717   1.799   8.777 -0.1400 -2.4031 -1.1808
 4495TIP3    H235121   1.814   1.737   8.680  1.7694  1.2670 -1.8065
 4496TIP3   OH235122   3.137   1.164   0.726  0.1844 -0.4499 -0.4361
 4496TIP3    H135123   3.085   1.096   0.769 -0.7543  0.3107 -0.3364
 4496TIP3    H235124   3.111   1.245   0.769  0.5496  0.0968 -1.2236
 4497TIP3   OH235125   2.270   6.179   0.331  0.9370 -0.1116 -0.2061
 4497TIP3    H135126   2.192   6.131   0.302 -1.3604  3.0762  0.1435
 4497TIP3    H235127   2.266   6.175   0.427  0.3395  1.1787 -0.1503
 4498TIP3   OH235128   3.074   3.204   0.003 -0.0087  0.7592 -0.0807
 4498TIP3    H135129   3.106   3.120   0.034  0.6210  0.4582 -1.4625
 4498TIP3    H235130   3.105   3.210  -0.088  1.2085  3.0956  0.3968
 4499TIP3   OH235131   3.049   4.919   7.460  0.3531  0.1447 -0.2014
 4499TIP3    H135132   2.968   4.960   7.430  0.2795 -0.4906 -0.8952
 4499TIP3    H235133   3.117   4.958   7.405  0.0782 -1.8788 -2.0772
 4500TIP3   OH235134   3.850   6.763   0.732 -0.4061  0.3604 -0.0724
 4500TIP3    H135135   3.938   6.755   0.768 -0.6557  0.5577  0.6090
 4500TIP3    H235136   3.844   6.854   0.702 -0.4099  0.3757 -0.0249
 4501TIP3   OH235137   2.877   2.611   0.882  0.2468 -0.1259  0.0135
 4501TIP3    H135138   2.845   2.537   0.831 -2.0408 -1.3035  2.8667
 4501TIP3    H235139   2.964   2.582   0.912 -0.6273 -1.7683  1.1254
 4502TIP3   OH235140   5.159   2.668   8.537 -0.3695  0.5208 -0.4158
 4502TIP3    H135141   5.228   2.722   8.576 -1.4613  0.8399  1.1716
 4502TIP3    H235142   5.172   2.678   8.442  0.0738  2.7825 -0.1778
 4503TIP3   OH235143   0.361   4.031   2.171 -0.2402 -0.2030  0.2207
 4503TIP3    H135144   0.285   4.002   2.222 -0.0241 -0.6528  0.2918
 4503TIP3    H235145   0.420   3.956   2.172 -0.4476 -0.4093 -1.1169
 4504TIP3   OH235146   0.403   2.822   0.839 -0.0011 -0.1502  0.0598
 4504TIP3    H135147   0.399   2.859   0.750  1.6364 -1.0125 -0.4111
 4504TIP3    H235148   0.489   2.847   0.872 -0.2167 -0.6530  1.0469
 4505TIP3   OH235149   2.867   3.582   6.768  0.2176 -0.3077  0.6859
 4505TIP3    H135150   2.843   3.652   6.708  0.4432 -1.1664 -0.4320
 4505TIP3    H235151   2.962   3.586   6.774  0.1727  0.0014  1.2826
 4506TIP3   OH235152   0.409   0.397   6.550 -0.2563  0.0677 -0.4216
 4506TIP3    H135153   0.420   0.469   6.487 -0.8350  1.6458  1.1765
 4506TIP3    H235154   0.330   0.351   6.520 -0.4658  0.7327 -0.9156
 4507TIP3   OH235155   1.663   1.834   8.039 -0.0215  0.0702 -0.3976
 4507TIP3    H135156   1.667   1.930   8.035 -1.3393  0.1473 -0.4052
 4507TIP3    H235157   1.585   1.811   7.988 -1.4938 -0.7783  2.0648
 4508TIP3   OH235158   2.782   0.252   6.837 -0.5105 -0.3240 -0.4673
 4508TIP3    H135159   2.761   0.262   6.745 -0.8853 -2.3982 -0.6670
 4508TIP3    H235160   2.875   0.275   6.844 -0.4436 -0.2941 -1.4037
 4509TIP3   OH235161   4.596   3.524   0.177  0.0997  0.1939  0.0396
 4509TIP3    H135162   4.657   3.463   0.219 -1.9669 -0.1459  2.8781
 4509TIP3    H235163   4.541   3.468   0.122 -0.3934 -0.2099  0.9212
 4510TIP3   OH235164   5.342   4.611   1.559  0.4965 -0.0695 -0.2923
 4510TIP3    H135165   5.354   4.516   1.554  0.5594 -0.0169 -2.9988
 4510TIP3    H235166   5.248   4.622   1.574  0.0536 -0.6544 -2.2346
 4511TIP3   OH235167   1.749   6.318   8.545  0.0887 -0.1343 -0.2343
 4511TIP3    H135168   1.753   6.397   8.599 -0.8652  0.7852 -1.4479
 4511TIP3    H235169   1.810   6.334   8.473  0.1997 -0.6879 -0.2740
 4512TIP3   OH235170   0.960   4.945   7.893 -0.2008 -0.2910  0.2959
 4512TIP3    H135171   0.901   4.917   7.823  0.9021  2.3768 -1.9059
 4512TIP3    H235172   1.011   4.867   7.915 -2.5656 -1.9301  0.2885
 4513TIP3   OH235173   5.091   3.269   1.812  0.0052  0.7385 -0.0225
 4513TIP3    H135174   5.030   3.335   1.845  0.3997  1.4935 -0.7577
 4513TIP3    H235175   5.036   3.201   1.775 -0.4126  0.5849  0.8411
 4514TIP3   OH235176   1.552   5.825   8.000 -0.3294  0.2610  0.3747
 4514TIP3    H135177   1.526   5.858   7.914 -2.5750  0.5558  1.1163
 4514TIP3    H235178   1.470   5.800   8.043  0.6288  0.9454  2.7878
 4515TIP3   OH235179   1.447   5.503   7.213  0.0202 -0.0839 -0.1667
 4515TIP3    H135180   1.461   5.585   7.164 -0.6342  0.0903 -0.0795
 4515TIP3    H235181   1.526   5.452   7.197  0.7708  0.8715  0.3909
 4516TIP3   OH235182   2.699   3.821   7.304 -0.1888 -0.3252 -0.0504
 4516TIP3    H135183   2.609   3.798   7.326 -0.7957  2.9421  1.4832
 4516TIP3    H235184   2.735   3.857   7.385  2.8302 -2.1990 -0.4019
 4517TIP3   OH235185   0.762   4.562   1.187  0.1553  0.2013 -0.4350
 4517TIP3    H135186   0.856   4.549   1.189  0.3248  1.1732 -1.2156
 4517TIP3    H235187   0.725   4.474   1.176  0.8362 -0.4649  2.1374
 4518TIP3   OH235188   3.124   4.482   8.228 -0.1505  0.4688 -0.0534
 4518TIP3    H135189   3.191   4.443   8.173 -0.3575  0.1136 -0.0581
 4518TIP3    H235190   3.133   4.437   8.312 -1.1034 -0.3938 -0.3839
 4519TIP3   OH235191   3.735   1.784   1.075 -0.0625  0.2485 -0.1079
 4519TIP3    H135192   3.641   1.794   1.064 -0.4488 -1.1077  1.6715
 4519TIP3    H235193   3.749   1.690   1.088  1.2940  0.6198  1.5050
 4520TIP3   OH235194   4.548   3.015   2.103 -0.7202  0.5857  0.3468
 4520TIP3    H135195   4.621   3.068   2.133  0.4549 -1.7244  1.8312
 4520TIP3    H235196   4.566   2.998   2.010 -1.2446  2.8223 -0.2327
 4521TIP3   OH235197   2.172   6.443   0.592 -0.6029 -0.3559 -0.0342
 4521TIP3    H135198   2.094   6.407   0.550 -0.7786  0.0380 -0.0478
 4521TIP3    H235199   2.198   6.375   0.655 -1.4647 -0.1268  0.5967
 4522TIP3   OH235200   2.450   2.026   6.939 -0.1977 -0.0991  0.2793
 4522TIP3    H135201   2.414   2.092   6.999  0.4834  1.6888 -1.1633
 4522TIP3    H235202   2.374   1.998   6.888 -0.3608  0.1820  0.3594
 4523TIP3   OH235203   3.688   6.257   8.427  0.5947  0.0648  0.6171
 4523TIP3    H135204   3.675   6.166   8.402  0.5604 -0.0788  1.1320
 4523TIP3    H235205   3.782   6.271   8.420  0.4281  0.5465 -1.2668
 4524TIP3   OH235206   1.330   6.307   8.722 -0.5396 -0.5715  0.3349
 4524TIP3    H135207   1.380   6.382   8.755 -1.3827  0.4047 -0.4955
 4524TIP3    H235208   1.288   6.270   8.800 -1.0047  0.5282  0.6384
 4525TIP3   OH235209   1.561   4.317   0.106 -0.4538  0.2391  0.3654
 4525TIP3    H135210   1.554   4.273   0.021 -0.7699  0.7029  0.1442
 4525TIP3    H235211   1.530   4.406   0.089 -1.0838  0.1633  1.1018
 4526TIP3   OH235212   0.673   0.147   8.453 -0.0210 -0.0424 -0.0630
 4526TIP3    H135213   0.675   0.178   8.544  0.2985  1.2794 -0.4918
 4526TIP3    H235214   0.677   0.227   8.401 -0.2468 -0.7808 -1.2490
 4527TIP3   OH235215   2.894   2.455   8.620 -0.0376 -0.1062  0.3673
 4527TIP3    H135216   2.872   2.543   8.651  2.0745  0.4640  0.4221
 4527TIP3    H235217   2.926   2.409   8.697 -1.0548 -0.9382  0.3200
 4528TIP3   OH235218   4.364   0.028   8.601 -0.1486 -0.1745 -0.3056
 4528TIP3    H135219   4.411   0.109   8.621  0.5216 -0.5130 -0.4762
 4528TIP3    H235220   4.383   0.012   8.508  0.7652 -1.1810  0.0279
 4529TIP3   OH235221   0.416   1.957   7.830  0.1269  0.7809 -0.1848
 4529TIP3    H135222   0.511   1.958   7.845 -0.0542  1.0332  1.0390
 4529TIP3    H235223   0.407   1.964   7.735  1.3286  1.0767 -0.2949
 4530TIP3   OH235224   5.138   2.804   2.086 -0.2573  0.2104  0.8126
 4530TIP3    H135225   5.218   2.855   2.087 -1.6452  2.6071 -0.8453
 4530TIP3    H235226   5.142   2.753   2.005 -0.4674  0.4519  0.6488
 4531TIP3   OH235227   6.693   6.267   7.402  0.3550  0.3300 -0.1245
 4531TIP3    H135228   6.666   6.206   7.471 -2.0851 -0.1029 -1.3217
 4531TIP3    H235229   6.648   6.234   7.324  1.5088  1.8929 -1.4918
 4532TIP3   OH235230   2.185   0.202   1.171 -0.7685 -0.8304  0.4867
 4532TIP3    H135231   2.255   0.140   1.194 -0.8546 -0.4400  1.9152
 4532TIP3    H235232   2.225   0.260   1.106 -0.3136 -1.6537  0.0207
 4533TIP3   OH235233   2.118   6.715   6.646 -0.2961 -0.3595  0.0119
 4533TIP3    H135234   2.034   6.671   6.632  0.0944 -1.5600  1.1966
 4533TIP3    H235235   2.102   6.777   6.716 -0.5764  0.6577 -0.9175
 4534TIP3   OH235236   6.010   1.006   7.071 -0.3967  0.3077  0.0891
 4534TIP3    H135237   6.018   1.004   7.167  0.0824  0.6039  0.0600
 4534TIP3    H235238   5.993   0.916   7.047 -2.1375  0.4699  0.5812
 4535TIP3   OH235239   2.347   2.658   1.237 -0.4081  0.2060 -0.3107
 4535TIP3    H135240   2.397   2.720   1.184  1.4062 -0.9462 -0.0043
 4535TIP3    H235241   2.364   2.573   1.196 -3.9728 -0.0709 -1.6173
 4536TIP3   OH235242   1.010   0.771   7.636  0.1454  0.1547  0.1037
 4536TIP3    H135243   1.066   0.728   7.700  0.0422 -0.3582 -0.1431
 4536TIP3    H235244   1.064   0.841   7.600  1.1544 -1.2228 -1.1719
 4537TIP3   OH235245   4.602   6.151   2.348  0.5586  0.6593 -0.4368
 4537TIP3    H135246   4.588   6.242   2.321 -0.4354  0.3578 -1.0262
 4537TIP3    H235247   4.657   6.114   2.279 -0.4561  0.3791 -1.1241
 4538TIP3   OH235248   4.880   1.626   7.282  0.1278  0.1463 -0.3032
 4538TIP3    H135249   4.823   1.564   7.327 -1.2111  1.8362  0.4109
 4538TIP3    H235250   4.837   1.643   7.198  1.3329 -1.0658 -1.2221
 4539TIP3   OH235251   0.480   3.392   1.139 -0.3642  0.0554 -0.1592
 4539TIP3    H135252   0.498   3.299   1.151 -0.0330  0.0701 -0.5116
 4539TIP3    H235253   0.560   3.427   1.099  0.1340  0.8026  1.3762
 4540TIP3   OH235254   4.820   5.894   0.342 -0.4245 -0.1759 -0.0742
 4540TIP3    H135255   4.847   5.941   0.263 -0.4367  0.4115  0.2639
 4540TIP3    H235256   4.902   5.872   0.387 -0.0767 -4.0148 -2.1377
 4541TIP3   OH235257   1.643   2.138   1.965 -0.4938  0.1366  0.1561
 4541TIP3    H135258   1.560   2.142   2.011 -0.7499  0.7667 -0.3399
 4541TIP3    H235259   1.705   2.104   2.029 -0.2730  3.3318  1.8568
 4542TIP3   OH235260   5.134   0.946   7.615  0.0633 -0.2775  0.0290
 4542TIP3    H135261   5.162   0.863   7.654 -1.3846 -0.5205  0.5935
 4542TIP3    H235262   5.047   0.929   7.580 -0.5910  1.2013  0.8437
 4543TIP3   OH235263   4.000   1.850   7.940 -0.2869 -0.1775 -0.4804
 4543TIP3    H135264   4.072   1.794   7.912  0.5882  1.1846 -1.0913
 4543TIP3    H235265   3.938   1.791   7.981  0.2283 -1.7125 -1.7852
 4544TIP3   OH235266   0.580   2.687   0.043  0.5139  0.6457  0.4436
 4544TIP3    H135267   0.584   2.596   0.016 -0.3418  0.3444  1.2711
 4544TIP3    H235268   0.521   2.728  -0.021  0.8122  0.6100  0.1379
 4545TIP3   OH235269   5.467   3.119   8.566 -0.3897 -0.3419  0.3323
 4545TIP3    H135270   5.485   3.192   8.626 -0.2919 -0.6229  0.6495
 4545TIP3    H235271   5.398   3.152   8.508  1.1799  0.7945 -0.9835
 4546TIP3   OH235272   1.774   1.742   1.138  0.3483 -0.6489  0.2901
 4546TIP3    H135273   1.824   1.746   1.220  0.2311 -0.3293  0.3471
 4546TIP3    H235274   1.805   1.662   1.095 -0.4095 -1.4545  1.1724
 4547TIP3   OH235275   3.470   3.951   2.197 -0.7548  0.0807  0.1073
 4547TIP3    H135276   3.565   3.955   2.187 -0.9124  0.1471 -1.6382
 4547TIP3    H235277   3.456   3.899   2.276  0.7557  2.1277  1.8579
 4548TIP3   OH235278   6.733   6.582   8.320  0.1689  0.2111  0.3880
 4548TIP3    H135279   6.782   6.558   8.242  0.7342 -2.2655  1.4229
 4548TIP3    H235280   6.799   6.605   8.385 -0.2140  0.3171  0.7494
 4549TIP3   OH235281   4.144   6.194   8.218  0.3405  0.4351 -0.3632
 4549TIP3    H135282   4.076   6.143   8.174  0.2898 -0.8723  1.1521
 4549TIP3    H235283   4.226   6.152   8.192  0.3121 -0.3174  0.7283
 4550TIP3   OH235284   1.907   1.348   1.974  0.3490 -0.3217 -0.0306
 4550TIP3    H135285   1.820   1.314   1.996 -0.9756  2.1776 -0.9930
 4550TIP3    H235286   1.967   1.297   2.028 -1.7699 -1.7148  1.1473
 4551TIP3   OH235287   4.642   2.734   7.144 -0.4477  0.1839 -0.2988
 4551TIP3    H135288   4.705   2.666   7.119 -0.0685  1.4097 -3.1243
 4551TIP3    H235289   4.587   2.744   7.066 -2.7876  0.6636  1.3237
 4552TIP3   OH235290   2.258   4.330   1.448  0.1561  0.4294 -0.0298
 4552TIP3    H135291   2.182   4.364   1.402 -1.0471 -0.1743  1.4344
 4552TIP3    H235292   2.323   4.401   1.443 -0.7663  1.2492 -0.6404
 4553TIP3   OH235293   4.485   6.632   7.756  0.5513  0.0940 -0.7651
 4553TIP3    H135294   4.447   6.636   7.668 -0.4370 -0.6276 -0.3891
 4553TIP3    H235295   4.511   6.722   7.776  0.7999  0.2610 -1.7989
 4554TIP3   OH235296   0.205   6.264   1.596 -0.1448 -0.0237 -0.1379
 4554TIP3    H135297   0.260   6.256   1.673 -0.8842 -1.1528  0.3029
 4554TIP3    H235298   0.248   6.209   1.530 -0.5554 -0.6536  0.1083
 4555TIP3   OH235299   3.292   6.539   1.360  0.4042  0.3294 -0.0772
 4555TIP3    H135300   3.264   6.455   1.395 -1.6702  0.6010 -0.9056
 4555TIP3    H235301   3.215   6.595   1.367  0.5114  1.0322 -2.9630
 4556TIP3   OH235302   3.466   5.487   8.330 -0.0415  0.3437  0.3412
 4556TIP3    H135303   3.493   5.419   8.391  0.3298  0.4657  0.3144
 4556TIP3    H235304   3.413   5.441   8.264  2.4545 -0.4503 -1.2427
 4557TIP3   OH235305   2.461   5.998   0.260 -0.1806 -0.6590 -0.3698
 4557TIP3    H135306   2.518   6.055   0.209 -1.4726 -1.8182 -3.2790
 4557TIP3    H235307   2.402   6.058   0.306  1.5480  0.4418  0.5066
 4558TIP3   OH235308   2.561   0.782   7.603  0.0560  0.1322 -0.4621
 4558TIP3    H135309   2.641   0.762   7.651 -0.0013 -0.1181 -0.4700
 4558TIP3    H235310   2.532   0.866   7.638 -0.4736 -0.4636  0.5808
 4559TIP3   OH235311   3.756   1.508   1.126 -0.5779  0.7226  0.3952
 4559TIP3    H135312   3.683   1.485   1.184 -1.0645  0.6861 -0.2306
 4559TIP3    H235313   3.822   1.441   1.145 -1.2782 -0.1227 -0.0928
 4560TIP3   OH235314   2.588   4.376   1.550  0.1192  0.2879 -0.1482
 4560TIP3    H135315   2.658   4.438   1.530  0.7646 -0.5950 -0.6961
 4560TIP3    H235316   2.508   4.419   1.518  0.5803  0.7600 -0.6804
 4561TIP3   OH235317   6.725   1.026   1.249  0.4602  0.1704  0.3644
 4561TIP3    H135318   6.797   1.065   1.299  1.2270  0.9611 -1.2927
 4561TIP3    H235319   6.712   0.940   1.290  1.0052  0.7957  1.9445
 4562TIP3   OH235320   5.649   3.106   0.295 -0.1051 -0.2949  0.2533
 4562TIP3    H135321   5.561   3.143   0.295 -0.5825 -1.3789 -0.2391
 4562TIP3    H235322   5.676   3.108   0.387 -0.5573  0.2252  0.3800
 4563TIP3   OH235323   2.187   5.904   6.321  0.3770  0.0880  0.5554
 4563TIP3    H135324   2.226   5.824   6.355  1.6760  0.4176 -0.1140
 4563TIP3    H235325   2.114   5.923   6.380  1.3099 -0.4669  1.9148
 4564TIP3   OH235326   1.226   4.215   2.066 -0.3502 -0.4330  0.4867
 4564TIP3    H135327   1.259   4.228   2.155 -2.2762  0.8795  1.0866
 4564TIP3    H235328   1.262   4.289   2.016  1.8716 -1.9160 -0.2567
 4565TIP3   OH235329   0.151   2.041   1.331 -0.2220 -0.1659  0.3185
 4565TIP3    H135330   0.178   1.953   1.302 -0.0281  0.0104 -0.0461
 4565TIP3    H235331   0.060   2.049   1.302 -0.1346 -0.1200  0.0513
 4566TIP3   OH235332   1.998   5.202   8.098 -0.9375  0.2547  0.5670
 4566TIP3    H135333   1.997   5.155   8.015  1.8842  0.3668  0.3854
 4566TIP3    H235334   2.001   5.133   8.165 -3.4497  0.1594  0.6731
 4567TIP3   OH235335   5.838   5.065   7.141  0.0422 -0.1065 -0.0336
 4567TIP3    H135336   5.871   5.153   7.123  0.7973 -0.1042  1.2418
 4567TIP3    H235337   5.818   5.066   7.235 -0.5739 -1.0974 -0.1422
 4568TIP3   OH235338   3.825   2.915   1.787 -0.3167  0.0244  0.2335
 4568TIP3    H135339   3.821   2.847   1.855 -0.0163  1.1024  1.3544
 4568TIP3    H235340   3.735   2.943   1.776 -0.3809 -0.2306  0.0878
 4569TIP3   OH235341   0.575   2.794   7.226 -0.3336 -0.1865  0.1335
 4569TIP3    H135342   0.582   2.875   7.277  0.5733 -1.1950  1.6841
 4569TIP3    H235343   0.640   2.804   7.156 -2.2318  1.6076 -1.4851
 4570TIP3   OH235344   2.800   0.327   7.688  0.4840  0.0048  0.1986
 4570TIP3    H135345   2.840   0.257   7.638  0.5986 -0.6190  1.1399
 4570TIP3    H235346   2.869   0.360   7.745  0.4955  1.0491 -0.3900
 4571TIP3   OH235347   5.352   0.533   8.490  0.1562 -0.2495  0.2162
 4571TIP3    H135348   5.296   0.457   8.510 -0.5525  0.4906  1.1020
 4571TIP3    H235349   5.291   0.604   8.473  0.7706  0.9768  2.7164
 4572TIP3   OH235350   0.698   3.939   6.952 -0.3979  0.3147  0.2937
 4572TIP3    H135351   0.628   3.874   6.960  0.0880 -0.0023  2.5532
 4572TIP3    H235352   0.760   3.900   6.890 -0.5255 -1.0260  0.9787
 4573TIP3   OH235353   2.445   6.803   2.551 -0.3983 -0.7047 -0.3341
 4573TIP3    H135354   2.528   6.844   2.524 -0.9632  0.0249 -1.0266
 4573TIP3    H235355   2.424   6.843   2.635 -0.7107  0.1046 -0.7892
 4574TIP3   OH235356   5.106   2.613   1.284  0.7016  0.0090 -0.1986
 4574TIP3    H135357   5.052   2.535   1.271  1.9539 -0.7496 -1.0039
 4574TIP3    H235358   5.195   2.585   1.265  1.4723  1.1243  1.5528
 4575TIP3   OH235359   6.432   2.944   7.359  0.6167 -0.2693  0.1003
 4575TIP3    H135360   6.445   3.029   7.399  2.0029 -0.1798 -0.4781
 4575TIP3    H235361   6.368   2.959   7.290 -0.5557 -0.1030  1.1908
 4576TIP3   OH235362   2.131   5.187   8.891 -0.1762  0.3097 -0.3343
 4576TIP3    H135363   2.141   5.119   8.825  2.8843  1.2489 -0.9902
 4576TIP3    H235364   2.190   5.257   8.863 -0.6685  1.8188  2.0857
 4577TIP3   OH235365   1.075   6.495   1.207 -0.0822 -0.3406 -0.6097
 4577TIP3    H135366   0.987   6.472   1.239  0.1190 -0.2547  0.0279
 4577TIP3    H235367   1.130   6.490   1.285  0.2321  0.8991 -0.7328
 4578TIP3   OH235368   0.874   0.600   6.906 -0.9065  0.2478 -0.3554
 4578TIP3    H135369   0.874   0.552   6.823 -0.7515  0.0423 -0.2367
 4578TIP3    H235370   0.834   0.684   6.884 -0.5422  0.3337 -0.7154
 4579TIP3   OH235371   6.030   1.186   6.376 -0.0745  0.5150  0.0256
 4579TIP3    H135372   6.037   1.207   6.469 -2.7539  0.1427  0.4123
 4579TIP3    H235373   5.939   1.159   6.365  0.6999 -1.4778 -2.3312
 4580TIP3   OH235374   2.750   5.269   1.659  0.4691 -0.1520 -0.0502
 4580TIP3    H135375   2.729   5.177   1.642  0.4115 -0.1465 -0.0111
 4580TIP3    H235376   2.835   5.282   1.618  0.6071 -0.2996  0.1815
 4581TIP3   OH235377   4.957   6.646   1.243  0.0565  0.4048  0.4399
 4581TIP3    H135378   4.929   6.692   1.322 -0.3978 -0.3638  0.7330
 4581TIP3    H235379   4.887   6.662   1.180 -1.1137 -1.5255  1.1759
 4582TIP3   OH235380   1.560   0.881   1.118 -0.0765  0.0007 -0.7828
 4582TIP3    H135381   1.538   0.941   1.189  0.1715 -0.5156 -0.2668
 4582TIP3    H235382   1.479   0.832   1.102 -0.4792  0.8887 -1.6441
 4583TIP3   OH235383   0.414   3.133   7.769 -0.0605  0.0892  0.0894
 4583TIP3    H135384   0.357   3.164   7.699 -0.1866 -1.3451 -0.4729
 4583TIP3    H235385   0.355   3.092   7.832  0.3474 -2.0372 -0.8350
 4584TIP3   OH235386   3.618   3.774   0.046 -0.4413 -0.4128 -0.6457
 4584TIP3    H135387   3.567   3.849   0.016  1.3507  0.7855 -0.8535
 4584TIP3    H235388   3.699   3.779  -0.005  0.0907 -1.9810 -0.0088
 4585TIP3   OH235389   0.184   5.898   0.146 -0.4249  0.0848  0.2956
 4585TIP3    H135390   0.212   5.983   0.111 -0.3589  0.1879  0.5915
 4585TIP3    H235391   0.216   5.899   0.237 -1.2559  0.1361  0.5907
 4586TIP3   OH235392   0.100   5.837   1.596  0.3721  0.0542  0.5805
 4586TIP3    H135393   0.015   5.817   1.637  0.2362  0.9034  0.7240
 4586TIP3    H235394   0.164   5.825   1.666  0.0872  2.0261  1.2353
 4587TIP3   OH235395   5.682   5.228   1.623  0.2249  0.2978  0.4110
 4587TIP3    H135396   5.761   5.275   1.598 -0.8077  1.6123 -0.5070
 4587TIP3    H235397   5.692   5.141   1.584  1.2694  0.3879  0.4516
 4588TIP3   OH235398   0.411   5.911   1.208  0.3474 -0.1560 -0.1181
 4588TIP3    H135399   0.350   5.954   1.267  0.3312  0.2926 -0.4536
 4588TIP3    H235400   0.381   5.936   1.120 -0.1513 -1.5104 -0.3565
 4589TIP3   OH235401   0.623   1.672   7.257  0.1734 -0.2755 -0.1671
 4589TIP3    H135402   0.631   1.759   7.218  0.8932  0.4003  1.4038
 4589TIP3    H235403   0.648   1.684   7.349 -2.2422 -1.6035  0.7730
 4590TIP3   OH235404   0.370   0.479   7.774  0.3079  0.2844  0.6600
 4590TIP3    H135405   0.318   0.480   7.693 -0.7480 -0.0819  1.3113
 4590TIP3    H235406   0.416   0.563   7.774  1.5462 -0.3263 -1.0667
 4591TIP3   OH235407   1.645   4.758   6.542  0.3758 -0.1704  0.4257
 4591TIP3    H135408   1.700   4.688   6.579 -0.2425 -0.3199  1.0887
 4591TIP3    H235409   1.556   4.725   6.550  0.1742  0.0834 -0.6142
 4592TIP3   OH235410   5.364   0.309   1.226  0.1554  0.4825 -0.6453
 4592TIP3    H135411   5.338   0.379   1.286 -0.2340 -0.0116 -0.2290
 4592TIP3    H235412   5.447   0.276   1.261  0.5310  0.9761 -1.0535
 4593TIP3   OH235413   6.231   3.802   1.852 -0.0917  0.5138 -0.2118
 4593TIP3    H135414   6.165   3.775   1.915  1.3930 -0.0702  1.1831
 4593TIP3    H235415   6.247   3.894   1.871 -0.8666  0.8015 -0.9139
 4594TIP3   OH235416   3.215   0.068   1.297 -0.6737  0.0723  0.5439
 4594TIP3    H135417   3.173   0.150   1.272  1.4971  1.1932  0.3927
 4594TIP3    H235418   3.159   0.033   1.366 -1.5127  1.7922  0.7924
 4595TIP3   OH235419   1.073   0.175   6.888  0.5850 -1.1265 -0.5974
 4595TIP3    H135420   1.086   0.270   6.897  0.4345 -1.0299 -1.3154
 4595TIP3    H235421   1.162   0.140   6.875  1.1744 -1.5742  3.2636
 4596TIP3   OH235422   2.835   4.855   2.302  0.7064 -0.5577 -0.0067
 4596TIP3    H135423   2.801   4.847   2.391 -1.5306 -2.3863 -0.9373
 4596TIP3    H235424   2.878   4.772   2.284 -0.2962 -0.8648 -1.1502
 4597TIP3   OH235425   5.435   1.774   1.587 -0.2447 -0.1465 -0.1890
 4597TIP3    H135426   5.401   1.831   1.518 -0.2834  0.7758  0.5861
 4597TIP3    H235427   5.528   1.764   1.565 -0.5739 -1.1123 -1.2259
 4598TIP3   OH235428   4.892   5.641   1.384  0.0152 -0.1415  0.0092
 4598TIP3    H135429   4.886   5.729   1.420  3.0156  0.2357 -0.1660
 4598TIP3    H235430   4.927   5.588   1.456 -3.7027 -1.8080  0.8262
 4599TIP3   OH235431   6.760   2.355   1.919 -0.2026  0.1047  0.0409
 4599TIP3    H135432   6.797   2.296   1.984 -0.1812  0.1961  0.1123
 4599TIP3    H235433   6.687   2.306   1.881  0.8841 -0.6506 -1.1348
 4600TIP3   OH235434   3.162   5.807   0.335  0.0702  0.0983  0.7179
 4600TIP3    H135435   3.114   5.852   0.405  1.4154  0.5017  1.4272
 4600TIP3    H235436   3.243   5.777   0.377  0.0107 -1.4418 -0.1840
 4601TIP3   OH235437   3.543   4.043   8.377 -0.1026  0.5086  0.3544
 4601TIP3    H135438   3.469   4.052   8.436 -0.7173 -1.6257  0.0152
 4601TIP3    H235439   3.620   4.054   8.432 -0.6725 -0.6959  1.4401
 4602TIP3   OH235440   4.646   5.355   0.386 -0.0510 -0.4577 -0.2261
 4602TIP3    H135441   4.732   5.380   0.354  0.8671 -1.5059  1.3063
 4602TIP3    H235442   4.594   5.340   0.306  1.3310 -0.3852 -1.1694
 4603TIP3   OH235443   5.564   3.956   0.277  0.1332 -0.3310 -0.1373
 4603TIP3    H135444   5.640   4.014   0.275 -0.0718 -0.0518 -1.8256
 4603TIP3    H235445   5.601   3.868   0.276  0.4862 -0.2015 -1.6883
 4604TIP3   OH235446   4.658   6.615   0.092 -0.2869  0.7317  0.1502
 4604TIP3    H135447   4.611   6.659   0.022 -1.0777  1.4601  1.1095
 4604TIP3    H235448   4.739   6.666   0.102  0.5255 -0.2372 -1.1751
 4605TIP3   OH235449   6.064   4.802   0.644 -0.4183  0.5905  0.3017
 4605TIP3    H135450   5.970   4.791   0.635 -0.4006 -1.5817  2.0373
 4605TIP3    H235451   6.075   4.864   0.716 -0.5533 -0.2260  1.0424
 4606TIP3   OH235452   6.675   2.081   7.517 -0.4145 -0.5741 -0.6698
 4606TIP3    H135453   6.641   2.088   7.428  2.9546  0.4567 -2.0714
 4606TIP3    H235454   6.661   2.169   7.554 -2.2688 -1.1434  0.0879
 4607TIP3   OH235455   5.307   4.246   7.597 -0.0361  0.7826 -0.3599
 4607TIP3    H135456   5.336   4.173   7.651  1.0617  0.5983 -1.1677
 4607TIP3    H235457   5.383   4.268   7.544  0.1019  3.4069  0.7972
 4608TIP3   OH235458   0.113   6.100   8.115 -0.3424 -0.1734 -0.0659
 4608TIP3    H135459   0.170   6.109   8.038  1.5673  0.8068  1.3948
 4608TIP3    H235460   0.067   6.017   8.100  1.6495 -1.1600 -1.2329
 4609TIP3   OH235461   3.943   3.959   8.330 -0.0714 -0.5491 -0.2319
 4609TIP3    H135462   3.910   4.033   8.381  0.5201 -2.4662  3.2638
 4609TIP3    H235463   4.030   3.986   8.301  0.5419 -0.1393  1.8347
 4610TIP3   OH235464   2.563   0.019   8.337 -0.6297  0.5957  0.6413
 4610TIP3    H135465   2.506   0.095   8.322 -0.6253  0.9725  2.3931
 4610TIP3    H235466   2.518  -0.033   8.403  0.3106  0.0852  0.8980
 4611TIP3   OH235467   1.743   2.836   6.579 -0.0227 -0.0548 -0.4016
 4611TIP3    H135468   1.763   2.748   6.547 -0.9367 -0.3922 -0.0746
 4611TIP3    H235469   1.799   2.894   6.526  0.9864 -0.8576 -0.2555
 4612TIP3   OH235470   3.575   3.955   0.562 -0.1642  0.9588 -0.5118
 4612TIP3    H135471   3.542   3.924   0.477  0.3628 -1.2263  0.0266
 4612TIP3    H235472   3.644   3.894   0.585 -1.3925  0.4551  2.2730
 4613TIP3   OH235473   4.309   6.211   7.940 -0.4024  0.3763  0.0257
 4613TIP3    H135474   4.316   6.121   7.974 -0.2867  0.6920  0.8741
 4613TIP3    H235475   4.396   6.249   7.956  0.0659  0.1543 -1.8072
 4614TIP3   OH235476   1.895   5.331   8.681  0.2224  0.3728 -0.4448
 4614TIP3    H135477   1.960   5.379   8.733  2.2781 -2.3601 -0.2830
 4614TIP3    H235478   1.909   5.360   8.591  0.3158  1.2306 -0.1592
 4615TIP3   OH235479   1.467   5.326   1.160  0.2549  0.0787  0.1841
 4615TIP3    H135480   1.387   5.273   1.164  0.1993  0.0764 -0.6783
 4615TIP3    H235481   1.446   5.397   1.099  1.2114 -0.4843 -0.8579
 4616TIP3   OH235482   6.109   6.159   7.645 -0.0403 -0.7659  0.1242
 4616TIP3    H135483   6.014   6.150   7.635 -0.0543  0.3604 -0.8798
 4616TIP3    H235484   6.119   6.224   7.715  0.0071 -0.8908  0.2357
 4617TIP3   OH235485   5.913   2.664   0.825  0.6309 -0.7632 -0.0056
 4617TIP3    H135486   5.864   2.605   0.882 -0.1569 -0.5911 -0.4911
 4617TIP3    H235487   5.990   2.613   0.799  0.1984 -1.4101 -0.0482
 4618TIP3   OH235488   0.241   4.526   0.980  0.2308  0.6139  0.4522
 4618TIP3    H135489   0.196   4.459   0.930  1.2380  1.0576 -1.1510
 4618TIP3    H235490   0.178   4.556   1.045 -2.0737  1.6973 -2.1001
 4619TIP3   OH235491   4.360   6.062   8.390 -0.0164  0.5705  0.2386
 4619TIP3    H135492   4.410   6.012   8.456  1.6992  2.0695  0.1573
 4619TIP3    H235493   4.396   6.033   8.306  0.0615  0.9949  0.1254
 4620TIP3   OH235494   1.741   3.224   7.170  0.5144  0.0303  0.0812
 4620TIP3    H135495   1.798   3.187   7.102 -0.5540 -1.3007 -0.1250
 4620TIP3    H235496   1.673   3.158   7.183  0.2963  0.5771  1.9591
 4621TIP3   OH235497   4.068   0.991   6.909  0.2101  0.1281 -0.2997
 4621TIP3    H135498   3.999   1.057   6.901  0.0574 -0.0304 -0.2857
 4621TIP3    H235499   4.149   1.039   6.891  0.0628  0.2338 -0.6769
 4622TIP3   OH235500   6.515   2.224   0.757 -0.2414  0.3361  0.4082
 4622TIP3    H135501   6.540   2.296   0.700  1.1926  0.1717  0.7882
 4622TIP3    H235502   6.489   2.267   0.839 -0.8415  0.4815  0.1528
 4623TIP3   OH235503   1.036   5.933   0.303  0.3593 -0.7966 -0.7425
 4623TIP3    H135504   1.021   5.995   0.375  0.5230  0.4545 -1.7615
 4623TIP3    H235505   1.010   5.980   0.224  0.3311 -2.0943 -1.5368
 4624TIP3   OH235506   5.797   1.939   1.038  0.3197 -0.5079  0.1511
 4624TIP3    H135507   5.795   1.889   0.957  2.0033  0.4280 -0.5061
 4624TIP3    H235508   5.865   1.897   1.091 -0.4680 -0.8473  0.9294
 4625TIP3   OH235509   3.797   3.291   0.156 -0.0775 -0.0709  0.0762
 4625TIP3    H135510   3.861   3.361   0.170 -0.6030  0.7684 -1.4979
 4625TIP3    H235511   3.743   3.292   0.234  0.4605  0.6955  0.4526
 4626TIP3   OH235512   0.504   6.137   0.674 -0.4572 -0.0966  0.6974
 4626TIP3    H135513   0.440   6.193   0.630 -1.5112 -1.2900  0.6530
 4626TIP3    H235514   0.573   6.124   0.610 -0.8331  0.0963  0.2474
 4627TIP3   OH235515   4.335   3.862   8.615 -0.1039  0.3374 -0.2997
 4627TIP3    H135516   4.337   3.806   8.537  2.2022 -1.7090  1.1007
 4627TIP3    H235517   4.319   3.950   8.580 -3.2108 -0.9845 -2.6525
 4628TIP3   OH235518   1.261   1.325   7.756 -0.8101  0.1357 -0.4908
 4628TIP3    H135519   1.184   1.272   7.777 -0.6133  0.0067 -0.0949
 4628TIP3    H235520   1.231   1.382   7.685 -0.0585 -2.9038 -3.5073
 4629TIP3   OH235521   3.435   0.690   0.004 -0.1450 -0.0947  0.4062
 4629TIP3    H135522   3.344   0.706   0.027  0.1407  1.7106  0.5015
 4629TIP3    H235523   3.482   0.767   0.039  1.2779 -0.5597 -0.3830
 4630TIP3   OH235524   5.473   5.990   7.839  0.7173  0.0835  0.3764
 4630TIP3    H135525   5.506   6.046   7.910 -0.1708 -0.2603  1.0863
 4630TIP3    H235526   5.382   6.019   7.827  1.4136  1.4650 -1.9807
 4631TIP3   OH235527   1.473   1.746   8.576  0.1713 -0.2598  0.1471
 4631TIP3    H135528   1.490   1.776   8.487  3.0945 -0.0660  0.6926
 4631TIP3    H235529   1.555   1.761   8.623 -0.9869 -1.2242  2.6483
 4632TIP3   OH235530   2.422   0.075   1.213 -0.2752 -0.0251 -0.5069
 4632TIP3    H135531   2.490   0.130   1.252  0.3342 -0.1973 -1.2889
 4632TIP3    H235532   2.459   0.049   1.128 -1.0054 -0.7544 -0.6072
 4633TIP3   OH235533   2.519   4.274   6.981  0.0330 -0.1051  1.2174
 4633TIP3    H135534   2.597   4.330   6.988  0.3619 -0.0353 -1.9520
 4633TIP3    H235535   2.448   4.329   7.012  0.4428  1.9947 -1.2321
 4634TIP3   OH235536   0.852   2.905   7.365 -0.0362 -0.1716 -0.6880
 4634TIP3    H135537   0.841   2.905   7.460 -0.1171  0.5592 -0.6896
 4634TIP3    H235538   0.945   2.884   7.352 -0.2698 -1.3753 -0.4945
 4635TIP3   OH235539   3.729   5.278   0.256  0.1223 -0.4514  1.0451
 4635TIP3    H135540   3.761   5.273   0.166  2.2195 -0.2596  1.7199
 4635TIP3    H235541   3.680   5.196   0.269 -1.3868  0.1281 -0.6446
 4636TIP3   OH235542   6.060   3.893   8.092 -0.2861  0.0026 -0.4006
 4636TIP3    H135543   6.048   3.837   8.168  1.7498 -0.5872 -0.4576
 4636TIP3    H235544   5.984   3.875   8.037  0.0436 -2.3418 -0.1913
 4637TIP3   OH235545   6.039   5.250   0.999  0.0451  0.1798  0.0225
 4637TIP3    H135546   5.982   5.272   0.925 -0.9523  0.5872  0.8933
 4637TIP3    H235547   6.114   5.310   0.991  0.1366 -0.0379 -0.8565
 4638TIP3   OH235548   0.558   2.373   0.290 -0.0963 -0.4546  0.1035
 4638TIP3    H135549   0.555   2.466   0.265  0.6312 -0.5957 -0.5580
 4638TIP3    H235550   0.498   2.330   0.230 -1.5108 -0.2493  1.3029
 4639TIP3   OH235551   0.018   4.363   1.743  0.1484 -0.4112 -0.6224
 4639TIP3    H135552  -0.005   4.282   1.697 -0.0997  0.4045 -2.0108
 4639TIP3    H235553   0.113   4.370   1.733  0.1841 -0.5879 -0.4040
 4640TIP3   OH235554   1.499   0.380   8.215  0.1129  0.3375  0.2883
 4640TIP3    H135555   1.473   0.408   8.128  2.3528  0.0099 -0.5638
 4640TIP3    H235556   1.499   0.284   8.210  1.5745  0.3228  0.1770
 4641TIP3   OH235557   2.704   2.797   6.477  1.2391  0.2593  0.0112
 4641TIP3    H135558   2.797   2.775   6.482  0.9612 -1.0278 -0.2350
 4641TIP3    H235559   2.690   2.857   6.550  2.4315  1.1248 -0.4459
 4642TIP3   OH235560   3.755   5.421   7.227 -0.0015  0.6464 -0.2276
 4642TIP3    H135561   3.766   5.413   7.322  0.5707 -0.5283 -0.3845
 4642TIP3    H235562   3.843   5.412   7.192 -0.4473 -1.1022 -0.9984
 4643TIP3   OH235563   5.528   4.743   0.113 -0.2284  0.0178 -0.0985
 4643TIP3    H135564   5.442   4.775   0.141 -0.3509  0.0719 -0.5303
 4643TIP3    H235565   5.527   4.650   0.136  0.1132  0.3093  1.1191
 4644TIP3   OH235566   4.573   0.835   1.504  0.2835  0.5274 -0.5369
 4644TIP3    H135567   4.634   0.770   1.539  1.2331  1.4104 -0.5137
 4644TIP3    H235568   4.611   0.861   1.420 -0.4051  0.6191 -0.8288
 4645TIP3   OH235569   4.265   1.206   6.988  0.7445  0.4392  0.9279
 4645TIP3    H135570   4.246   1.241   7.075 -0.0891  1.7774  0.2326
 4645TIP3    H235571   4.311   1.276   6.942  1.3573 -0.3218  0.3386
 4646TIP3   OH235572   1.937   5.301   1.033  0.3461  0.0945 -0.8419
 4646TIP3    H135573   1.849   5.338   1.027  0.2931 -0.2063 -2.0250
 4646TIP3    H235574   1.993   5.363   0.988  0.8017  0.4232  0.1451
 4647TIP3   OH235575   5.403   2.510   0.024 -0.1305  0.5233 -0.4698
 4647TIP3    H135576   5.471   2.558  -0.023  0.2566 -0.4032 -0.8903
 4647TIP3    H235577   5.328   2.510  -0.036 -0.3029  1.0342 -0.2566
 4648TIP3   OH235578   4.582   5.819   1.823 -0.1350 -0.7907 -0.1987
 4648TIP3    H135579   4.676   5.821   1.808 -0.1813  1.7319 -0.6030
 4648TIP3    H235580   4.566   5.890   1.885 -1.8054 -0.9877 -0.3493
 4649TIP3   OH235581   3.269   0.656   6.408 -0.4894  0.3038  0.5948
 4649TIP3    H135582   3.282   0.740   6.366 -1.2133  0.9141  1.5437
 4649TIP3    H235583   3.320   0.660   6.489  0.5532 -0.6912  0.0124
 4650TIP3   OH235584   3.048   6.514   6.970 -0.3014 -0.1766  0.1100
 4650TIP3    H135585   2.963   6.470   6.962 -0.3881 -0.2684  1.2656
 4650TIP3    H235586   3.069   6.507   7.063  0.9205 -0.0336 -0.1419
 4651TIP3   OH235587   1.691   6.795   1.180  0.5857 -0.0055  0.0292
 4651TIP3    H135588   1.650   6.772   1.096  1.6749 -1.3723 -0.1580
 4651TIP3    H235589   1.673   6.720   1.237 -1.8661  1.7175  1.7374
 4652TIP3   OH235590   4.185   6.747   6.956  0.1179  0.6710 -0.5176
 4652TIP3    H135591   4.235   6.666   6.960 -0.5604  0.2925  2.1682
 4652TIP3    H235592   4.250   6.816   6.947  1.0267  0.0693  1.1412
 4653TIP3   OH235593   1.017   5.430   8.542  0.0986  0.2966 -0.4057
 4653TIP3    H135594   0.987   5.384   8.464 -1.2938 -1.2024  0.9237
 4653TIP3    H235595   1.111   5.439   8.531 -0.1580  0.7111 -2.5255
 4654TIP3   OH235596   1.298   0.933   7.467  0.5190 -0.2780 -0.3498
 4654TIP3    H135597   1.338   0.961   7.384  1.9806 -1.9672 -0.2870
 4654TIP3    H235598   1.372   0.897   7.517 -0.8239 -2.0088  0.4726
 4655TIP3   OH235599   1.997   6.171   1.859  0.4650  0.5854  0.1874
 4655TIP3    H135600   2.044   6.245   1.898 -0.5217  1.9769 -1.1639
 4655TIP3    H235601   1.906   6.185   1.883  0.3686 -0.7212  0.6755
 4656TIP3   OH235602   4.036   2.061   7.253 -0.6761  0.5260 -0.4175
 4656TIP3    H135603   3.971   2.090   7.189  0.4155  0.4518 -1.5946
 4656TIP3    H235604   4.115   2.112   7.232  0.3226 -0.9796 -0.4660
 4657TIP3   OH235605   4.352   5.384   7.778  0.3517  0.3263 -0.4436
 4657TIP3    H135606   4.327   5.314   7.839 -0.2019 -0.3002 -1.3726
 4657TIP3    H235607   4.438   5.413   7.809  0.0768  0.0403  0.6454
 4658TIP3   OH235608   5.632   0.414   8.391 -0.1037  0.7188  0.4958
 4658TIP3    H135609   5.569   0.342   8.392  2.7143 -1.9756  0.2268
 4658TIP3    H235610   5.674   0.407   8.305 -0.3982  3.3894  0.0684
 4659TIP3   OH235611   0.520   4.457   1.019  0.9424 -0.0433 -0.0897
 4659TIP3    H135612   0.433   4.497   1.022  1.7284  2.0563 -2.0891
 4659TIP3    H235613   0.579   4.529   0.995  2.8876 -1.8691 -1.1543
 4660TIP3   OH235614   4.594   2.982   1.824  0.3106 -0.9224 -0.1270
 4660TIP3    H135615   4.522   2.983   1.760  0.3882  0.9137 -0.2571
 4660TIP3    H235616   4.643   2.902   1.805 -0.6546 -1.2735 -1.2356
 4661TIP3   OH235617   3.286   4.037   1.154 -0.4581  0.2805  0.0258
 4661TIP3    H135618   3.353   3.981   1.114 -0.5531 -0.1694  0.4921
 4661TIP3    H235619   3.224   3.976   1.194 -1.2137  0.6922 -0.4877
 4662TIP3   OH235620   6.640   4.056   7.019 -0.0026 -0.1007  0.5500
 4662TIP3    H135621   6.643   4.143   7.059  2.5658 -0.7881  2.0963
 4662TIP3    H235622   6.717   4.054   6.961 -0.2159 -1.2346  0.2824
 4663TIP3   OH235623   4.955   6.585   0.313 -0.8056  0.5811  0.4507
 4663TIP3    H135624   4.952   6.668   0.265  0.3841 -0.4069 -1.4550
 4663TIP3    H235625   5.013   6.602   0.387 -0.6448  1.4833  0.1328
 4664TIP3   OH235626   0.391   5.920   0.854  0.0687  0.4379  0.6884
 4664TIP3    H135627   0.452   5.975   0.805 -0.8597  1.7262  0.9297
 4664TIP3    H235628   0.446   5.852   0.892  0.8922 -0.4523 -1.8306
 4665TIP3   OH235629   2.991   0.706   2.216  0.3072 -0.1466 -0.3661
 4665TIP3    H135630   3.080   0.675   2.198  0.9982  0.9329  0.9684
 4665TIP3    H235631   2.964   0.749   2.135  1.4762  0.5221 -0.4300
 4666TIP3   OH235632   6.262   4.830   1.734  0.5328  0.5178 -0.1925
 4666TIP3    H135633   6.355   4.840   1.754  0.4166  0.3449  0.4676
 4666TIP3    H235634   6.260   4.780   1.653  1.0043 -1.5048  0.9695
 4667TIP3   OH235635   0.375   1.707   7.385 -0.4771 -0.1463  0.0848
 4667TIP3    H135636   0.384   1.669   7.472 -1.3485  2.7645  1.6001
 4667TIP3    H235637   0.460   1.691   7.343  0.1160 -1.2773  1.6161
 4668TIP3   OH235638   0.352   0.560   8.797  0.0490  0.2330 -0.1684
 4668TIP3    H135639   0.304   0.600   8.868 -1.7719 -0.0666 -1.1689
 4668TIP3    H235640   0.358   0.467   8.820 -0.8621  0.0704 -0.5548
 4669TIP3   OH235641   2.733   2.925   8.594  0.3171 -0.2546 -0.1280
 4669TIP3    H135642   2.643   2.892   8.588  0.1722 -0.0941  0.9620
 4669TIP3    H235643   2.748   2.969   8.511 -1.6891  2.3661  0.7713
 4670TIP3   OH235644   0.692   2.135   1.232  0.2725  0.2832 -0.3845
 4670TIP3    H135645   0.765   2.192   1.207  1.6159 -0.8841  0.6228
 4670TIP3    H235646   0.634   2.191   1.283  1.7025  0.7341  0.8259
 4671TIP3   OH235647   1.978   0.914   1.349 -0.0322 -0.3138 -0.3529
 4671TIP3    H135648   2.001   0.839   1.404 -0.3680  1.0548  1.7598
 4671TIP3    H235649   2.063   0.950   1.321  0.1695 -0.4482  0.0864
 4672TIP3   OH235650   1.643   0.370   7.382 -0.9771  0.4066 -0.7120
 4672TIP3    H135651   1.567   0.408   7.338 -1.6031  0.3103  0.2540
 4672TIP3    H235652   1.655   0.284   7.341 -2.7884 -0.5355  0.6381
 4673TIP3   OH235653   1.254   2.403   8.534  0.2120 -0.1922  0.2151
 4673TIP3    H135654   1.195   2.470   8.570 -0.0699  0.3446 -1.1709
 4673TIP3    H235655   1.200   2.357   8.470  1.3058  0.3989 -1.1795
 4674TIP3   OH235656   3.588   2.954   6.669 -0.1300 -0.0195  0.7089
 4674TIP3    H135657   3.602   2.871   6.714  0.9312 -0.1057  0.2578
 4674TIP3    H235658   3.537   2.931   6.591  0.3324 -0.2922  0.4812
 4675TIP3   OH235659   0.225   5.950   0.575 -0.2062  0.3917  0.4715
 4675TIP3    H135660   0.179   5.867   0.587  0.7881 -0.1283  0.8488
 4675TIP3    H235661   0.283   5.956   0.651  1.4773  0.2475 -0.7333
 4676TIP3   OH235662   0.341   3.819   0.673  0.5494  0.0398 -0.2041
 4676TIP3    H135663   0.353   3.732   0.635  0.8780  0.8215 -2.0324
 4676TIP3    H235664   0.260   3.813   0.723 -0.0162 -1.0523 -1.2076
 4677TIP3   OH235665   1.554   4.558   8.432 -0.2017 -0.2621  0.0180
 4677TIP3    H135666   1.526   4.591   8.517  0.7566  0.1641  0.1850
 4677TIP3    H235667   1.648   4.575   8.429 -0.0655 -1.0336 -0.7869
 4678TIP3   OH235668   4.072   6.197   1.376 -0.1072 -0.4482 -0.3579
 4678TIP3    H135669   4.048   6.250   1.452 -0.7222  0.8629 -1.4160
 4678TIP3    H235670   3.997   6.204   1.317 -0.1834 -2.4677 -0.5991
 4679TIP3   OH235671   6.510   4.776   1.857  0.0299 -0.4654  0.3492
 4679TIP3    H135672   6.462   4.730   1.925  1.2973 -1.5420  0.5702
 4679TIP3    H235673   6.595   4.731   1.854  0.3724  0.2243 -1.2197
 4680TIP3   OH235674   3.283   1.301   0.179  0.4501 -0.0036 -0.5979
 4680TIP3    H135675   3.283   1.306   0.083 -0.0782 -0.7114 -0.6413
 4680TIP3    H235676   3.375   1.313   0.203  0.3298  2.4691 -1.0425
 4681TIP3   OH235677   1.999   6.345   1.267 -0.2583  0.4469 -0.2039
 4681TIP3    H135678   1.910   6.312   1.268 -0.2942  0.4876 -1.5016
 4681TIP3    H235679   2.044   6.294   1.201  0.2741  1.4670 -0.6583
 4682TIP3   OH235680   2.096   4.010   0.708  0.9655 -0.4924  0.3899
 4682TIP3    H135681   2.058   3.948   0.770 -0.4212  0.1671  0.2432
 4682TIP3    H235682   2.022   4.038   0.654  1.7822  0.4163 -0.2910
 4683TIP3   OH235683   1.940   0.965   8.515 -0.5087  0.1085 -0.1407
 4683TIP3    H135684   1.977   0.877   8.524 -1.0632  0.0571  2.1431
 4683TIP3    H235685   1.911   0.969   8.424  2.6995 -0.7610 -1.3342
 4684TIP3   OH235686   3.013   4.300   0.422 -0.1777 -0.0614  0.3578
 4684TIP3    H135687   3.003   4.299   0.517 -1.6265  1.4180  0.2791
 4684TIP3    H235688   2.944   4.242   0.391  0.9426 -1.3578  0.2071
 4685TIP3   OH235689   5.465   1.170   8.345 -0.3228 -0.4180  0.0387
 4685TIP3    H135690   5.507   1.139   8.425 -0.7547  0.0398  0.4413
 4685TIP3    H235691   5.376   1.135   8.349  0.2008 -2.0061 -1.1674
 4686TIP3   OH235692   5.914   2.353   2.746  0.1168 -0.0102  0.3674
 4686TIP3    H135693   5.904   2.348   2.651 -0.0745 -0.2928  0.4015
 4686TIP3    H235694   5.873   2.436   2.770  0.2397  0.1022  0.1935
 4687TIP3   OH235695   0.111   4.346   8.613 -0.1389  0.3358  0.1565
 4687TIP3    H135696   0.105   4.388   8.700 -0.5532 -2.4452  1.5831
 4687TIP3    H235697   0.205   4.331   8.600 -0.0431  1.0956 -0.0795
 4688TIP3   OH235698   4.393   2.668   1.494 -0.4750 -0.4559  0.0197
 4688TIP3    H135699   4.432   2.611   1.428 -0.0177 -0.0236 -0.0933
 4688TIP3    H235700   4.323   2.616   1.533 -1.9967 -0.0617 -2.0691
 4689TIP3   OH235701   3.223   5.860   2.438 -0.2198  0.1213 -0.0045
 4689TIP3    H135702   3.229   5.906   2.354  0.1174  0.8186  0.3889
 4689TIP3    H235703   3.312   5.829   2.455 -0.5104 -0.9986 -0.4277
 4690TIP3   OH235704   4.147   3.139   7.639 -0.1186 -0.0704  0.0496
 4690TIP3    H135705   4.240   3.127   7.617  0.0996 -3.3766  2.0740
 4690TIP3    H235706   4.102   3.137   7.555  1.4510 -0.9425 -0.8242
 4691TIP3   OH235707   1.028   5.699   8.417  0.1823  0.1895 -0.2172
 4691TIP3    H135708   0.952   5.685   8.360 -0.9589 -1.1670  1.5279
 4691TIP3    H235709   1.063   5.611   8.431  1.0791  0.6250  0.3430
 4692TIP3   OH235710   3.876   5.676   0.436 -0.4758 -0.1562 -0.6630
 4692TIP3    H135711   3.954   5.702   0.388  0.8990 -2.2686  0.2813
 4692TIP3    H235712   3.885   5.581   0.447 -2.5878 -0.2876  0.5276
 4693TIP3   OH235713   6.586   2.860   1.220  0.0739  0.0100  0.8046
 4693TIP3    H135714   6.656   2.920   1.245 -0.3784  0.9914 -0.1785
 4693TIP3    H235715   6.533   2.910   1.157 -0.8602 -1.0987  0.6727
 4694TIP3   OH235716   4.394   3.415   7.866 -0.1643  0.6108  0.1268
 4694TIP3    H135717   4.383   3.329   7.907 -1.0542 -0.4157 -2.0694
 4694TIP3    H235718   4.488   3.425   7.856 -0.0764 -0.5623 -0.4099
 4695TIP3   OH235719   5.632   3.090   8.890 -0.5525 -0.4962 -0.4457
 4695TIP3    H135720   5.670   3.078   8.977  0.4402  1.7417 -0.4796
 4695TIP3    H235721   5.538   3.100   8.905 -0.7934 -2.9818  0.0011
 4696TIP3   OH235722   6.558   3.810   7.159  0.2834  0.1304  0.2079
 4696TIP3    H135723   6.597   3.897   7.151  1.7845 -0.4050  1.2593
 4696TIP3    H235724   6.527   3.789   7.071 -0.4538  1.8586  0.0130
 4697TIP3   OH235725   2.443   5.146   8.308 -0.8077  0.0156  0.1230
 4697TIP3    H135726   2.383   5.145   8.233 -1.8099  0.9163  0.8693
 4697TIP3    H235727   2.521   5.192   8.276 -1.2795  0.5191 -0.3359
 4698TIP3   OH235728   4.495   6.278   0.356 -0.4545  0.0371  0.0912
 4698TIP3    H135729   4.583   6.289   0.393 -0.4903  2.0815 -0.3255
 4698TIP3    H235730   4.509   6.225   0.278  0.7148  1.7698 -0.9366
 4699TIP3   OH235731   1.897   4.684   7.561 -0.2660  0.0167 -0.4954
 4699TIP3    H135732   1.802   4.667   7.564 -0.1761 -0.6514 -0.9442
 4699TIP3    H235733   1.932   4.635   7.635 -0.2802  0.3061 -0.2992
 4700TIP3   OH235734   4.594   5.272   0.127 -0.7523  0.0293 -0.0029
 4700TIP3    H135735   4.612   5.178   0.132 -0.3821 -0.0066 -1.5871
 4700TIP3    H235736   4.500   5.278   0.142 -0.7602 -0.5731  0.2622
 4701TIP3   OH235737   2.936   1.371   1.145  0.2155 -0.7870 -0.6003
 4701TIP3    H135738   2.850   1.369   1.103 -0.3305 -1.3172  0.5022
 4701TIP3    H235739   2.988   1.307   1.096  0.6216  0.9067 -2.5149
 4702TIP3   OH235740   2.398   3.675   7.129 -0.3992 -0.6727 -0.5800
 4702TIP3    H135741   2.394   3.734   7.204 -1.4558  0.2288 -1.3127
 4702TIP3    H235742   2.371   3.729   7.055 -0.9647 -1.9754 -1.3483
 4703TIP3   OH235743   1.230   4.295   1.092  0.0904  0.5560 -0.3269
 4703TIP3    H135744   1.285   4.289   1.169  0.8570  0.8255 -0.8464
 4703TIP3    H235745   1.286   4.270   1.019 -0.8240 -0.4177 -0.7271
 4704TIP3   OH235746   5.222   4.094   0.871  0.0800 -0.1183 -0.1882
 4704TIP3    H135747   5.199   4.187   0.871  0.7375  0.0459  0.3960
 4704TIP3    H235748   5.138   4.049   0.883 -0.0424  0.4532  1.3304
 4705TIP3   OH235749   2.820   3.886   1.493  0.2988 -0.0322 -0.2400
 4705TIP3    H135750   2.868   3.849   1.567 -0.7298  0.8967  0.9313
 4705TIP3    H235751   2.728   3.869   1.513 -0.1305  2.1110 -0.2154
 4706TIP3   OH235752   0.967   4.100   1.994  0.5436  0.1935 -0.0269
 4706TIP3    H135753   0.928   4.181   1.960  3.3796  0.7280 -2.4043
 4706TIP3    H235754   1.033   4.130   2.057 -1.4229 -0.6185  2.6079
 4707TIP3   OH235755   0.885   6.759   8.610 -0.1031 -0.6162 -0.2026
 4707TIP3    H135756   0.917   6.725   8.526 -0.8739 -0.5945 -0.5133
 4707TIP3    H235757   0.801   6.716   8.623 -1.1260  1.1485 -0.6243
 4708TIP3   OH235758   4.982   1.705   0.442  0.5555  0.2847  0.2430
 4708TIP3    H135759   5.007   1.752   0.522  1.4849 -0.2297  0.2800
 4708TIP3    H235760   4.904   1.656   0.467  0.7840  0.1975  0.8209
 4709TIP3   OH235761   0.512   6.592   1.609 -0.4338  0.3708  0.3009
 4709TIP3    H135762   0.438   6.598   1.669 -0.6113 -0.4969  0.1836
 4709TIP3    H235763   0.587   6.570   1.665 -0.2125  1.4208  0.4434
 4710TIP3   OH235764   2.195   6.027   2.091  0.1647 -0.1812 -0.5311
 4710TIP3    H135765   2.212   5.998   2.181 -0.8800  0.8234  0.0230
 4710TIP3    H235766   2.178   5.947   2.042  0.1839 -0.7029  0.2996
 4711TIP3   OH235767   2.415   6.426   0.258  0.4023 -0.0857 -0.0772
 4711TIP3    H135768   2.457   6.365   0.197  0.1305  1.2189 -1.6411
 4711TIP3    H235769   2.353   6.372   0.307  2.0012 -1.5367  0.4330
 4712TIP3   OH235770   4.647   5.838   1.400 -0.0024 -0.0510 -0.2213
 4712TIP3    H135771   4.575   5.901   1.409 -0.4682 -0.8324  2.0720
 4712TIP3    H235772   4.606   5.752   1.411  1.2496 -0.5097  1.2657
 4713TIP3   OH235773   1.306   2.607   1.309 -0.0950  0.2378 -0.1373
 4713TIP3    H135774   1.345   2.554   1.379  0.2441  0.6974  0.0222
 4713TIP3    H235775   1.338   2.695   1.324 -1.1265  0.6188 -0.0577
 4714TIP3   OH235776   5.764   0.236   8.578 -0.8550  0.0431  0.2830
 4714TIP3    H135777   5.724   0.238   8.665 -1.2716 -0.2634  0.1013
 4714TIP3    H235778   5.720   0.306   8.530  0.2050  1.0002  0.6703
 4715TIP3   OH235779   2.220   2.000   1.897  0.7792 -0.3460  0.0596
 4715TIP3    H135780   2.127   1.981   1.904  0.5218  1.4328  2.9495
 4715TIP3    H235781   2.225   2.084   1.852  0.9485 -0.1366  0.4664
 4716TIP3   OH235782   1.016   1.023   1.557  0.0045  0.0577  0.1880
 4716TIP3    H135783   0.975   0.962   1.496 -0.4552  0.6405 -0.0864
 4716TIP3    H235784   1.106   1.031   1.526  0.4394 -1.4412  0.9514
 4717TIP3   OH235785   5.383   5.838   7.345  0.6464 -0.0544  0.1529
 4717TIP3    H135786   5.305   5.893   7.349 -1.9468 -3.0655 -2.9018
 4717TIP3    H235787   5.437   5.876   7.276  1.2566  1.1593  1.2409
 4718TIP3   OH235788   0.112   6.662   0.364 -0.2492 -0.0153  0.0935
 4718TIP3    H135789   0.111   6.651   0.269  2.2717 -1.7478  0.1710
 4718TIP3    H235790   0.161   6.742   0.379 -2.8235  1.6994 -0.0322
 4719TIP3   OH235791   0.899   5.740   2.021  0.1150  0.1053 -0.1416
 4719TIP3    H135792   0.917   5.759   1.929 -1.2705  1.4579 -0.1696
 4719TIP3    H235793   0.834   5.805   2.047 -2.7999 -2.8518  0.6344
 4720TIP3   OH235794   4.693   0.482   2.012  0.2215  0.0299 -0.0168
 4720TIP3    H135795   4.740   0.410   1.969 -0.1318  1.0854 -2.3081
 4720TIP3    H235796   4.731   0.561   1.974 -0.0485  1.0551  1.7554
 4721TIP3   OH235797   0.666   4.746   0.945  0.3354 -0.5533 -0.5725
 4721TIP3    H135798   0.584   4.794   0.955 -0.6497 -1.9743 -1.4247
 4721TIP3    H235799   0.728   4.791   1.003 -1.1072  0.4029  0.2770
 4722TIP3   OH235800   5.437   1.378   7.237 -0.3137  0.2242  0.3061
 4722TIP3    H135801   5.484   1.352   7.157 -0.9475  1.6525 -0.5625
 4722TIP3    H235802   5.399   1.463   7.216 -2.4662 -0.4260  1.3319
 4723TIP3   OH235803   6.386   5.502   1.143  0.1790  0.1894 -0.1002
 4723TIP3    H135804   6.407   5.558   1.068 -0.1282  0.5902  0.1096
 4723TIP3    H235805   6.291   5.507   1.151  0.1424 -0.4262 -0.1229
 4724TIP3   OH235806   3.511   0.491   8.122 -0.1034 -0.4090 -0.5224
 4724TIP3    H135807   3.425   0.516   8.088 -0.3660 -0.4219  0.1274
 4724TIP3    H235808   3.569   0.562   8.094 -0.6692  0.4909  0.5415
 4725TIP3   OH235809   0.547   4.526   8.624  0.7750 -0.1437 -0.1092
 4725TIP3    H135810   0.515   4.438   8.641 -0.7000  0.2886 -0.4845
 4725TIP3    H235811   0.538   4.538   8.529  0.5138  0.5668 -0.0041
 4726TIP3   OH235812   4.584   1.708   7.626  0.2874  0.0237  0.1599
 4726TIP3    H135813   4.543   1.645   7.686 -0.7242  1.1580  0.7150
 4726TIP3    H235814   4.650   1.657   7.578 -0.5763 -1.4705  0.4978
 4727TIP3   OH235815   4.391   6.323   8.775  0.0547  0.0346 -0.3696
 4727TIP3    H135816   4.364   6.304   8.864  1.0135  0.1543 -0.0399
 4727TIP3    H235817   4.487   6.325   8.779  0.3467 -3.5369 -2.1081
 4728TIP3   OH235818   4.867   5.854   0.664  0.0325  0.2455  0.1783
 4728TIP3    H135819   4.777   5.825   0.649 -0.4964  2.2463 -0.8989
 4728TIP3    H235820   4.918   5.811   0.597 -0.2087 -0.4673  0.4449
 4729TIP3   OH235821   2.966   1.453   1.881 -0.2366  0.2272 -0.7551
 4729TIP3    H135822   2.982   1.421   1.970 -0.2330 -1.1811 -1.2358
 4729TIP3    H235823   2.880   1.418   1.858 -0.2351  0.5694 -1.3095
 4730TIP3   OH235824   6.587   2.751   0.878  0.1556 -0.9211 -0.1912
 4730TIP3    H135825   6.640   2.810   0.823  0.7347 -2.5286 -1.4405
 4730TIP3    H235826   6.510   2.802   0.901  0.8481  0.4730 -0.8280
 4731TIP3   OH235827   2.244   0.688   6.734  1.0734  0.3566 -0.2776
 4731TIP3    H135828   2.229   0.716   6.644 -0.3327  0.4471 -0.0306
 4731TIP3    H235829   2.292   0.605   6.726  1.5233  0.6798 -1.0823
 4732TIP3   OH235830   5.498   5.595   7.425 -0.7244 -0.1746  0.3005
 4732TIP3    H135831   5.474   5.680   7.388  0.9927  1.1159  1.9487
 4732TIP3    H235832   5.435   5.580   7.495  0.6988  1.2528  1.9697
 4733TIP3   OH235833   5.762   5.928   8.614 -0.0637  0.0255 -0.3264
 4733TIP3    H135834   5.770   6.015   8.574 -0.3829  0.6464  0.9019
 4733TIP3    H235835   5.667   5.914   8.621 -0.0363 -0.9459 -1.5656
 4734TIP3   OH235836   1.825   1.968   7.599 -0.3159  0.5909  0.1490
 4734TIP3    H135837   1.902   1.979   7.544  0.6339 -0.8090  1.1271
 4734TIP3    H235838   1.806   2.056   7.632  0.0980  1.1524 -1.0824
 4735TIP3   OH235839   5.144   1.392   8.784 -0.6931  0.2068 -0.0036
 4735TIP3    H135840   5.207   1.416   8.716 -1.4424 -2.3128 -1.7525
 4735TIP3    H235841   5.148   1.463   8.847  1.9062  1.4425 -1.4028
 4736TIP3   OH235842   6.382   5.548   7.711  0.4696 -0.4967  0.3616
 4736TIP3    H135843   6.451   5.599   7.670 -0.6854  0.7628 -0.0851
 4736TIP3    H235844   6.343   5.498   7.640 -1.7433  1.9272 -0.2947
 4737TIP3   OH235845   2.506   3.234   8.488  0.1428 -0.2964  0.5145
 4737TIP3    H135846   2.481   3.300   8.423 -0.8383  0.2616  1.4177
 4737TIP3    H235847   2.601   3.240   8.493  0.1594  0.2341 -0.2733
 4738TIP3   OH235848   1.141   5.532   7.429  0.1360 -0.0957 -0.3758
 4738TIP3    H135849   1.112   5.446   7.401  0.8430 -0.3425 -0.3514
 4738TIP3    H235850   1.062   5.586   7.425 -0.5468 -0.9785  0.5879
 4739TIP3   OH235851   5.622   2.481   7.252 -0.6885  0.2141  0.7619
 4739TIP3    H135852   5.570   2.560   7.268 -0.8420  0.5077 -0.9502
 4739TIP3    H235853   5.706   2.514   7.221 -1.2337 -0.2387 -1.3762
 4740TIP3   OH235854   0.380   4.272   8.352 -0.5902  0.3276 -0.1090
 4740TIP3    H135855   0.294   4.233   8.335 -0.9034  1.3053 -0.8793
 4740TIP3    H235856   0.365   4.367   8.347  0.6281  0.5113 -0.7973
 4741TIP3   OH235857   3.002   3.065   2.303 -0.2709  0.4141  0.5983
 4741TIP3    H135858   3.067   3.067   2.374  0.3616  0.2723  0.0363
 4741TIP3    H235859   2.933   3.125   2.332 -0.8690 -0.9413  2.1097
 4742TIP3   OH235860   3.978   2.201   2.202 -0.1130  0.0161  0.1419
 4742TIP3    H135861   3.957   2.275   2.259 -1.0056  0.1985 -0.4012
 4742TIP3    H235862   4.035   2.145   2.255 -2.0506 -0.5397  1.7825
 4743TIP3   OH235863   4.144   0.834   0.729  0.3442 -0.0105  0.1612
 4743TIP3    H135864   4.056   0.858   0.703  0.9022  0.9882 -0.8950
 4743TIP3    H235865   4.153   0.742   0.702 -0.3755 -0.1270  0.3069
 4744TIP3   OH235866   6.533   1.461   7.047  0.3216  0.7399 -0.0321
 4744TIP3    H135867   6.613   1.419   7.014 -0.5754 -0.8956 -0.2249
 4744TIP3    H235868   6.543   1.553   7.023  1.2820  0.2348 -1.7457
 4745TIP3   OH235869   6.102   4.218   1.215  0.2086 -0.3959 -0.2473
 4745TIP3    H135870   6.053   4.141   1.186 -0.9008  0.1195  0.2012
 4745TIP3    H235871   6.042   4.264   1.274  1.7261 -0.4496  1.4110
 4746TIP3   OH235872   4.658   0.083   1.597 -0.5454 -0.0453 -0.3100
 4746TIP3    H135873   4.735   0.051   1.550  0.8948  0.0012  1.8555
 4746TIP3    H235874   4.603   0.006   1.610  0.0224 -0.4473 -0.2924
 4747TIP3   OH235875   5.937   1.189   6.880  0.3799  1.0827 -0.2096
 4747TIP3    H135876   5.953   1.117   6.941  3.0455  0.3519 -1.5994
 4747TIP3    H235877   5.891   1.148   6.806 -1.4157  1.6373  0.5528
 4748TIP3   OH235878   4.943   0.154   0.423 -0.2065  0.2211  0.1967
 4748TIP3    H135879   5.030   0.132   0.457  0.4222  1.2696 -0.6882
 4748TIP3    H235880   4.940   0.115   0.336 -0.7172 -0.0039  0.3116
 4749TIP3   OH235881   0.466   2.919   2.533  0.9366  0.3997 -0.4038
 4749TIP3    H135882   0.546   2.950   2.576  1.0468 -0.9383  0.4290
 4749TIP3    H235883   0.447   2.836   2.576 -0.9692  0.7254 -0.5393
 4750TIP3   OH235884   2.996   1.712   7.673  0.2838 -0.3790  0.3174
 4750TIP3    H135885   3.001   1.806   7.688 -1.4716 -0.3216  0.8016
 4750TIP3    H235886   3.048   1.698   7.594 -1.5351  1.4306 -1.3392
 4751TIP3   OH235887   0.657   2.384   0.549  0.0206 -0.5395 -0.5439
 4751TIP3    H135888   0.732   2.439   0.524 -1.2988  1.3057 -0.6196
 4751TIP3    H235889   0.622   2.353   0.465 -0.0502 -0.3991 -0.5647
 4752TIP3   OH235890   2.445   5.928   7.017  0.3231 -0.0571 -0.1187
 4752TIP3    H135891   2.471   5.893   6.931 -2.0872  0.6667 -1.2566
 4752TIP3    H235892   2.367   5.877   7.040  0.3370  0.4700  1.1594
 4753TIP3   OH235893   2.965   5.884   0.526  0.4605 -0.2807 -0.0653
 4753TIP3    H135894   2.891   5.917   0.474  0.5330  0.6446  0.4003
 4753TIP3    H235895   2.939   5.900   0.617  0.6887 -1.1355  0.1633
 4754TIP3   OH235896   4.716   5.926   2.495 -0.0223  0.7496 -0.0427
 4754TIP3    H135897   4.651   5.894   2.433 -0.6771 -0.2520  1.1054
 4754TIP3    H235898   4.721   6.020   2.479 -1.6084  0.8158 -0.3121
 4755TIP3   OH235899   3.229   0.411   7.569 -0.2056  0.3641 -0.1607
 4755TIP3    H135900   3.175   0.333   7.556  0.4876 -0.0205 -0.8303
 4755TIP3    H235901   3.247   0.442   7.480  1.1010  0.1827  0.0155
 4756TIP3   OH235902   6.547   3.643   0.919  0.5979  0.1541 -0.2648
 4756TIP3    H135903   6.638   3.639   0.890  0.6294 -1.8252  0.0007
 4756TIP3    H235904   6.526   3.554   0.945 -2.4357 -0.2455 -3.3992
 4757TIP3   OH235905   4.282   4.418   0.174  0.2316  0.5727 -0.6265
 4757TIP3    H135906   4.206   4.471   0.198 -0.5641 -0.5485 -0.5774
 4757TIP3    H235907   4.358   4.471   0.199 -0.5243  0.5554  2.0776
 4758TIP3   OH235908   4.200   4.295   1.931 -0.4994 -0.1047  0.4259
 4758TIP3    H135909   4.125   4.311   1.873 -0.5574 -0.2026  0.4731
 4758TIP3    H235910   4.199   4.367   1.993  0.2595  0.6557 -0.4105
 4759TIP3   OH235911   0.983   5.749   8.820 -0.5194 -0.3862  0.1998
 4759TIP3    H135912   0.956   5.736   8.911 -0.9631  1.3298  0.3598
 4759TIP3    H235913   0.907   5.724   8.768 -1.6354  2.0039  0.5306
 4760TIP3   OH235914   2.486   4.365   0.317 -0.2284  0.5116 -0.2557
 4760TIP3    H135915   2.481   4.270   0.318  2.0276  0.3419  0.5869
 4760TIP3    H235916   2.401   4.394   0.350 -0.3176 -1.2516  1.2076
 4761TIP3   OH235917   3.971   0.867   1.238 -0.3685  0.2868  0.1036
 4761TIP3    H135918   3.972   0.820   1.322  2.4753 -2.6229 -1.3214
 4761TIP3    H235919   3.890   0.839   1.196 -1.2488  0.8413  1.3932
 4762TIP3   OH235920   5.345   6.066   1.280 -0.1030 -0.5482 -0.2498
 4762TIP3    H135921   5.325   6.042   1.190 -1.8133 -0.7845  0.1619
 4762TIP3    H235922   5.273   6.031   1.331  0.0448  0.9003  1.0284
 4763TIP3   OH235923   0.771   2.463   1.626 -0.4072  0.7011 -0.2323
 4763TIP3    H135924   0.842   2.399   1.628 -1.2049 -0.3535 -2.4646
 4763TIP3    H235925   0.709   2.431   1.692  0.8436  1.2864  1.2839
 4764TIP3   OH235926   4.031   3.225   1.722 -0.5105 -0.4392  0.0973
 4764TIP3    H135927   4.022   3.173   1.642  0.0291 -2.6002  1.3524
 4764TIP3    H235928   3.946   3.215   1.767 -1.1167  1.4612 -0.5494
 4765TIP3   OH235929   6.087   5.537   1.223  0.3664 -0.4939 -0.0164
 4765TIP3    H135930   6.061   5.533   1.132 -0.6644  0.3554  0.2232
 4765TIP3    H235931   6.039   5.611   1.259 -0.7533 -1.9502  1.6853
 4766TIP3   OH235932   4.353   5.736   7.157 -0.2626 -0.1252  0.3568
 4766TIP3    H135933   4.290   5.807   7.148 -0.6374 -0.3141  1.3055
 4766TIP3    H235934   4.363   5.724   7.252  0.9329 -0.3420  0.2269
 4767TIP3   OH235935   4.253   5.932   6.176 -0.1521  0.1846  0.0216
 4767TIP3    H135936   4.211   5.950   6.092 -0.4971 -0.4359  0.0613
 4767TIP3    H235937   4.185   5.947   6.242 -0.4011 -1.0429  0.0707
 4768TIP3   OH235938   3.934   2.966   0.443  0.2874 -0.1260  0.3079
 4768TIP3    H135939   3.862   3.016   0.403 -0.4790 -0.0306  1.7386
 4768TIP3    H235940   3.906   2.874   0.434  2.2749 -0.5871 -3.4788
 4769TIP3   OH235941   5.113   1.110   7.934  0.8314 -0.2288 -0.5337
 4769TIP3    H135942   5.080   1.164   8.007  2.6666  0.8211 -0.4276
 4769TIP3    H235943   5.075   1.150   7.856 -1.8205 -1.8482 -0.2111
 4770TIP3   OH235944   0.131   5.273   1.139 -0.0690 -0.4821  0.0719
 4770TIP3    H135945   0.217   5.259   1.179 -0.6856 -1.0672  1.2688
 4770TIP3    H235946   0.135   5.227   1.056  1.1504  0.4776 -0.4234
 4771TIP3   OH235947   0.041   4.823   6.548 -0.5490 -0.0385  0.3094
 4771TIP3    H135948   0.052   4.730   6.526 -1.1365 -0.1226  0.3379
 4771TIP3    H235949   0.130   4.858   6.550 -0.3593 -0.4505 -0.3566
 4772TIP3   OH235950   2.767   2.093   8.072 -0.0788 -0.2981  0.3367
 4772TIP3    H135951   2.850   2.107   8.119  0.9114 -0.1582 -1.3781
 4772TIP3    H235952   2.793   2.053   7.989 -1.7319 -0.1081 -0.3069
 4773TIP3   OH235953   0.030   3.933   8.129  0.0094 -0.6451  0.1572
 4773TIP3    H135954   0.076   3.990   8.190  0.3705  1.0130 -1.5828
 4773TIP3    H235955  -0.022   3.874   8.185 -0.4525  1.4246  2.0327
 4774TIP3   OH235956   3.774   0.105   1.690 -0.3260  0.4104  0.1731
 4774TIP3    H135957   3.687   0.077   1.662 -1.0348  1.5483  1.1035
 4774TIP3    H235958   3.816   0.138   1.610 -0.1915 -1.4268 -0.5458
 4775TIP3   OH235959   3.643   1.235   0.643 -0.2813 -0.3338 -0.4605
 4775TIP3    H135960   3.636   1.214   0.550 -4.1000 -1.3488 -0.1324
 4775TIP3    H235961   3.589   1.313   0.654 -2.4363 -1.9373  1.2403
 4776TIP3   OH235962   4.691   3.348   1.295 -0.1011  0.3082 -0.3557
 4776TIP3    H135963   4.597   3.336   1.302 -0.0766  0.7609  1.1490
 4776TIP3    H235964   4.718   3.380   1.381  1.6079 -1.0673 -0.3080
 4777TIP3   OH235965   6.781   0.843   2.238  0.0091  0.1329 -0.1461
 4777TIP3    H135966   6.776   0.862   2.145 -0.2945 -0.0343 -0.1662
 4777TIP3    H235967   6.873   0.859   2.261 -0.2697  1.7807 -0.1131
 4778TIP3   OH235968   6.723   0.133   0.940  0.6491 -0.0395  0.4738
 4778TIP3    H135969   6.734   0.067   0.871 -0.4108 -0.4640  0.6872
 4778TIP3    H235970   6.668   0.200   0.899  0.4200 -0.0572  0.7507
 4779TIP3   OH235971   0.587   5.723   8.101 -0.2196  0.3525  0.4877
 4779TIP3    H135972   0.575   5.751   8.192  0.5535  1.7904  0.1707
 4779TIP3    H235973   0.503   5.684   8.077 -0.9114  1.2522  1.3791
 4780TIP3   OH235974   3.548   4.435   8.855 -0.6423  0.3700  0.2093
 4780TIP3    H135975   3.596   4.391   8.925 -0.6246 -0.3404 -0.2339
 4780TIP3    H235976   3.467   4.384   8.846 -0.8502  0.7287  0.0153
 4781TIP3   OH235977   0.694   2.024   8.014 -0.0557  0.3282  0.1410
 4781TIP3    H135978   0.704   2.089   8.083  0.1326 -0.5334  0.9354
 4781TIP3    H235979   0.776   2.027   7.965  1.2393 -1.3928  2.0218
 4782TIP3   OH235980   2.225   3.188   8.554 -0.6745  0.2018 -0.0990
 4782TIP3    H135981   2.194   3.206   8.465 -1.3364  0.9814  0.2734
 4782TIP3    H235982   2.317   3.212   8.553 -0.0474 -1.9822 -1.1856
 4783TIP3   OH235983   6.757   2.435   7.887 -0.5745 -0.0561  0.7098
 4783TIP3    H135984   6.837   2.485   7.877 -0.9150  0.5106  0.7483
 4783TIP3    H235985   6.784   2.344   7.880 -0.3518  0.1510 -2.4362
 4784TIP3   OH235986   1.384   3.673   7.856  0.0387 -0.1852 -0.2620
 4784TIP3    H135987   1.379   3.765   7.833 -0.1827 -0.0257  0.3931
 4784TIP3    H235988   1.358   3.626   7.776 -0.5283  0.3365 -0.3910
 4785TIP3   OH235989   0.574   0.565   0.485 -0.1953  0.0398  0.2958
 4785TIP3    H135990   0.487   0.585   0.522 -1.4834 -2.2796 -1.2886
 4785TIP3    H235991   0.571   0.600   0.396  0.5950  0.1382  0.3021
 4786TIP3   OH235992   6.801   1.393   0.348  0.5829  0.5199 -0.0430
 4786TIP3    H135993   6.720   1.368   0.304  0.2275  1.2890  0.1629
 4786TIP3    H235994   6.773   1.423   0.435  1.3267 -1.6968  1.0538
 4787TIP3   OH235995   1.413   3.853   0.066 -0.4106 -0.0097 -0.2204
 4787TIP3    H135996   1.457   3.771   0.092 -0.5208  0.2867  0.9134
 4787TIP3    H235997   1.343   3.824   0.008 -0.6522 -0.7535  0.4231
 4788TIP3   OH235998   4.807   1.133   2.398  1.0568 -0.4873 -0.3238
 4788TIP3    H135999   4.743   1.195   2.364 -0.0156 -1.1413  0.4497
 4788TIP3    H236000   4.796   1.137   2.493  0.3871 -2.4386 -0.2813
 4789TIP3   OH236001   3.243   4.558   7.029 -0.4742  0.2102 -0.2387
 4789TIP3    H136002   3.238   4.500   7.105  0.2536 -1.9819 -1.7535
 4789TIP3    H236003   3.336   4.556   7.004 -0.7490  0.6891 -1.3430
 4790TIP3   OH236004   1.677   1.407   8.155 -0.2116  0.1324 -0.0534
 4790TIP3    H136005   1.761   1.388   8.198  0.1422  1.7358  0.0224
 4790TIP3    H236006   1.701   1.460   8.079 -1.0020 -1.0981 -1.2061
 4791TIP3   OH236007   5.650   4.480   0.115  0.1502  0.1207 -0.4279
 4791TIP3    H136008   5.627   4.402   0.064  0.3684 -0.1659 -0.0890
 4791TIP3    H236009   5.575   4.492   0.174 -0.4460  0.8815 -1.2974
 4792TIP3   OH236010   1.975   3.411   0.435 -0.1208  0.4975 -0.1859
 4792TIP3    H136011   1.885   3.413   0.467  0.1028 -0.6558  0.5917
 4792TIP3    H236012   1.969   3.369   0.349 -0.3612  0.7026 -0.2703
 4793TIP3   OH236013   4.360   2.272   1.292 -0.5211  0.0546  0.2611
 4793TIP3    H136014   4.272   2.298   1.265 -0.3055 -0.5280 -1.0826
 4793TIP3    H236015   4.379   2.194   1.240  0.2348 -0.6809  1.6039
 4794TIP3   OH236016   5.628   0.731   6.589 -0.1680 -0.1022  0.1894
 4794TIP3    H136017   5.559   0.755   6.650  0.0386 -0.9168  0.7577
 4794TIP3    H236018   5.618   0.637   6.576 -1.4612  0.3180 -2.6100
 4795TIP3   OH236019   6.752   2.052   8.123 -0.5589  1.3369  0.3520
 4795TIP3    H136020   6.741   1.959   8.103 -0.8538  0.6308  3.3088
 4795TIP3    H236021   6.838   2.074   8.089 -0.4335 -0.0527 -0.2878
 4796TIP3   OH236022   3.534   2.472   8.368 -0.4815 -0.0816 -0.1700
 4796TIP3    H136023   3.507   2.405   8.305  0.2236  0.0000 -0.5709
 4796TIP3    H236024   3.548   2.550   8.315 -1.6886  0.5046  0.3511
 4797TIP3   OH236025   0.528   1.014   8.318 -0.4490  0.7303  0.8039
 4797TIP3    H136026   0.468   0.982   8.250  1.9511 -1.9212 -0.2481
 4797TIP3    H236027   0.524   0.947   8.386  1.3414  0.4354  0.6563
 4798TIP3   OH236028   5.894   4.767   2.032  0.6289  0.4602  0.2144
 4798TIP3    H136029   5.869   4.727   2.115  1.2002 -0.0345  0.1541
 4798TIP3    H236030   5.967   4.713   2.000  1.0811  1.2473 -0.1172
 4799TIP3   OH236031   4.817   2.479   0.781  0.4558  0.1270  0.0148
 4799TIP3    H136032   4.775   2.420   0.718  0.5710  1.9892 -1.8955
 4799TIP3    H236033   4.909   2.451   0.782  0.1156 -1.0629  0.7888
 4800TIP3   OH236034   2.594   5.074   7.350  0.3319 -0.7875  0.7878
 4800TIP3    H136035   2.553   4.994   7.381 -1.0565 -0.4252 -0.0087
 4800TIP3    H236036   2.542   5.144   7.389  1.0868 -0.2798  0.9085
 4801TIP3   OH236037   0.091   3.127   6.608 -0.0053  0.2195  0.0430
 4801TIP3    H136038   0.184   3.148   6.620  0.0273  0.4713 -0.6554
 4801TIP3    H236039   0.084   3.036   6.637  0.1550  0.6480  1.5418
 4802TIP3   OH236040   2.107   2.039   6.572 -0.3817  0.0945  0.5769
 4802TIP3    H136041   2.024   2.087   6.572 -0.5824 -0.2459  0.5686
 4802TIP3    H236042   2.160   2.084   6.637 -1.3697 -0.9913  2.2269
 4803TIP3   OH236043   2.883   4.964   1.560 -0.1231  0.0672 -0.6096
 4803TIP3    H136044   2.797   4.969   1.603  1.2154 -0.7108  2.4858
 4803TIP3    H236045   2.890   4.873   1.532 -1.2043  0.6946 -3.1270
 4804TIP3   OH236046   2.565   3.224   1.196  0.4501  0.4850  0.3124
 4804TIP3    H136047   2.601   3.312   1.207  2.1589  0.0536 -1.3720
 4804TIP3    H236048   2.513   3.210   1.275 -0.4460  3.2415  0.3284
 4805TIP3   OH236049   4.668   0.072   0.810 -0.5052  0.0775  0.1727
 4805TIP3    H136050   4.673   0.068   0.715 -0.4905  1.7303  0.0712
 4805TIP3    H236051   4.759   0.066   0.840 -0.6477 -2.5413  0.2357
 4806TIP3   OH236052   6.717   3.400   1.068  0.0216 -0.2409  0.0202
 4806TIP3    H136053   6.628   3.404   1.104  0.2176 -2.4840  0.9289
 4806TIP3    H236054   6.707   3.359   0.982 -0.0174  1.6097 -0.9112
 4807TIP3   OH236055   3.237   0.351   1.272 -0.0263 -0.1580  0.2538
 4807TIP3    H136056   3.314   0.387   1.227 -1.1318  0.0327 -1.5961
 4807TIP3    H236057   3.163   0.395   1.231 -1.2392 -1.8910  0.4928
 4808TIP3   OH236058   1.512   2.482   0.698  0.8695 -0.6999  0.4773
 4808TIP3    H136059   1.561   2.451   0.621  0.7300  0.0323  0.0858
 4808TIP3    H236060   1.511   2.407   0.757 -0.1066 -1.7122 -0.7680
 4809TIP3   OH236061   1.804   1.065   0.353 -0.7850  0.0704 -0.2902
 4809TIP3    H136062   1.768   1.027   0.273 -2.9446  1.9665 -0.3054
 4809TIP3    H236063   1.730   1.075   0.412  0.4193  0.4825  1.2394
 4810TIP3   OH236064   5.806   6.190   8.517 -0.1892  0.1929  0.3789
 4810TIP3    H136065   5.862   6.161   8.588 -0.1077 -0.3169  0.1106
 4810TIP3    H236066   5.854   6.263   8.477  0.0081  0.1369  0.5120
 4811TIP3   OH236067   2.364   2.289   8.306  0.1911  0.1177  0.2873
 4811TIP3    H136068   2.438   2.329   8.262  0.1166 -0.8820 -0.8142
 4811TIP3    H236069   2.404   2.232   8.372  0.6590 -2.7589 -2.2588
 4812TIP3   OH236070   4.970   4.365   0.713  0.4606 -0.2560  0.1198
 4812TIP3    H136071   4.969   4.388   0.620 -0.4131 -2.7821 -0.5964
 4812TIP3    H236072   5.056   4.394   0.744  1.0067  0.1132 -1.6200
 4813TIP3   OH236073   6.120   0.210   0.296 -0.1528 -0.7391 -0.5628
 4813TIP3    H136074   6.028   0.194   0.319 -0.0186  0.9963  1.5417
 4813TIP3    H236075   6.115   0.270   0.221 -0.7513 -0.4427 -0.2981
 4814TIP3   OH236076   6.449   6.392   7.515 -0.3547  0.1581  0.1473
 4814TIP3    H136077   6.539   6.391   7.548  0.9439 -1.0322 -3.0315
 4814TIP3    H236078   6.456   6.432   7.428 -2.8441 -0.2848 -0.3283
 4815TIP3   OH236079   3.319   4.417   6.632 -0.6952  0.3503 -0.7276
 4815TIP3    H136080   3.279   4.418   6.545 -2.5856  2.8682  0.0464
 4815TIP3    H236081   3.253   4.376   6.688 -0.5251  0.9425 -0.0812
 4816TIP3   OH236082   0.865   3.898   7.621 -0.0555  0.1957  0.0584
 4816TIP3    H136083   0.929   3.926   7.556 -1.2233  0.2471 -1.1184
 4816TIP3    H236084   0.913   3.839   7.679  0.9655 -0.0278 -0.9949
 4817TIP3   OH236085   4.975   4.787   7.600 -0.0026 -0.1055 -0.3951
 4817TIP3    H136086   5.053   4.842   7.592 -0.5935  0.6493 -1.1789
 4817TIP3    H236087   4.995   4.727   7.672  0.8520  0.8174  0.1675
 4818TIP3   OH236088   2.723   5.196   7.026  0.2181  0.0469 -0.5600
 4818TIP3    H136089   2.694   5.274   6.980  0.4969  0.1005 -0.6476
 4818TIP3    H236090   2.667   5.191   7.103 -0.8899 -0.5630 -1.3778
 4819TIP3   OH236091   3.468   4.664   1.494 -0.1847  0.0108 -0.1039
 4819TIP3    H136092   3.395   4.724   1.484 -1.5549 -1.5634  0.0057
 4819TIP3    H236093   3.475   4.649   1.589 -0.5493 -0.7954 -0.1948
 4820TIP3   OH236094   3.889   6.358   7.037 -0.4334 -0.4557 -0.1119
 4820TIP3    H136095   3.871   6.290   7.102 -1.0919  1.3766  1.7197
 4820TIP3    H236096   3.984   6.368   7.038 -0.4346 -0.4741  0.5559
 4821TIP3   OH236097   4.072   5.298   7.815 -0.5299  0.3523  0.0998
 4821TIP3    H136098   4.044   5.369   7.757  1.1452  1.4556  0.5644
 4821TIP3    H236099   4.129   5.244   7.761  0.6195  1.0921  0.5397
 4822TIP3   OH236100   6.465   6.039   7.812  0.3571  0.2423  0.3282
 4822TIP3    H136101   6.461   5.958   7.761  0.8644  1.0324 -1.0442
 4822TIP3    H236102   6.547   6.034   7.860  1.4668  0.8167 -1.3956
 4823TIP3   OH236103   2.966   1.000   8.548  0.4228 -0.7053 -0.1818
 4823TIP3    H136104   3.040   0.966   8.498  0.5958 -1.2945  0.4474
 4823TIP3    H236105   2.993   1.088   8.574  0.2244 -0.2997 -1.3215
 4824TIP3   OH236106   4.359   5.964   8.692 -0.0115  0.1575  0.3736
 4824TIP3    H136107   4.415   5.909   8.638  0.4710 -0.3668  1.3630
 4824TIP3    H236108   4.381   5.938   8.782 -1.6962  0.0655  0.7960
 4825TIP3   OH236109   4.897   4.994   2.006 -0.0536 -0.6079  0.2883
 4825TIP3    H136110   4.888   4.966   1.915 -0.7115  0.6906 -0.0672
 4825TIP3    H236111   4.820   5.048   2.022 -0.4694 -1.6192  1.9345
 4826TIP3   OH236112   2.237   1.617   6.154 -0.0806  0.2554  0.1834
 4826TIP3    H136113   2.159   1.623   6.099 -0.5144 -1.3833  0.5689
 4826TIP3    H236114   2.289   1.547   6.114  1.7273  1.9799 -0.6590
 4827TIP3   OH236115   1.667   3.645   2.623  0.1241  0.2961  0.0405
 4827TIP3    H136116   1.716   3.728   2.622  2.3570 -0.9116  1.2639
 4827TIP3    H236117   1.707   3.594   2.693 -2.5632 -1.0765  0.7373
 4828TIP3   OH236118   3.738   3.062   7.901 -0.4865  0.3539 -0.5540
 4828TIP3    H136119   3.743   2.968   7.917 -0.0256 -0.0471 -2.7086
 4828TIP3    H236120   3.648   3.076   7.870 -0.5882  0.6496 -0.1320
 4829TIP3   OH236121   1.523   1.306   1.740 -0.4692  0.0584  0.4440
 4829TIP3    H136122   1.433   1.314   1.771 -0.8435 -2.6509  0.3445
 4829TIP3    H236123   1.570   1.264   1.812  0.3409  0.0044 -0.0951
 4830TIP3   OH236124   4.260   0.596   0.616  0.5618 -0.2279  0.4734
 4830TIP3    H136125   4.233   0.508   0.642  2.2200 -1.0560 -0.4689
 4830TIP3    H236126   4.354   0.600   0.637  0.5014  1.3528  0.5753
 4831TIP3   OH236127   3.662   1.777   8.156 -0.3321  0.1946  0.0333
 4831TIP3    H136128   3.734   1.720   8.131 -0.5531  0.4176 -1.1744
 4831TIP3    H236129   3.662   1.847   8.089 -2.0779 -0.1821 -0.4054
 4832TIP3   OH236130   1.256   6.482   2.090 -0.2241  0.0655 -0.5809
 4832TIP3    H136131   1.212   6.479   2.174  0.6177  2.2354  0.0164
 4832TIP3    H236132   1.302   6.399   2.083 -1.2323 -0.6074  0.5630
 4833TIP3   OH236133   6.351   5.772   8.596  0.5787  0.0333  0.5443
 4833TIP3    H136134   6.277   5.766   8.656 -0.8043  0.0915 -1.0762
 4833TIP3    H236135   6.403   5.694   8.615 -2.2007 -2.4589 -1.0983
 4834TIP3   OH236136   2.675   4.513   1.123  0.6014  0.3876  0.7366
 4834TIP3    H136137   2.659   4.525   1.029  2.6763 -0.8355  0.1679
 4834TIP3    H236138   2.666   4.601   1.160  0.7072  1.0638 -0.7707
 4835TIP3   OH236139   6.330   3.286   8.146 -0.1064 -0.2150  0.8811
 4835TIP3    H136140   6.310   3.370   8.106 -0.9585 -1.4052 -1.4002
 4835TIP3    H236141   6.426   3.280   8.145 -0.0371  0.7446  1.1746
 4836TIP3   OH236142   1.902   3.244   7.710  0.4082 -0.6156 -0.0183
 4836TIP3    H136143   1.871   3.240   7.619  0.2409  0.5577 -0.0291
 4836TIP3    H236144   1.991   3.211   7.706  1.2282  1.5263 -1.0467
 4837TIP3   OH236145   2.746   1.520   7.958  0.5225  0.8131  0.0827
 4837TIP3    H136146   2.809   1.585   7.990 -1.6464  3.2144 -0.1925
 4837TIP3    H236147   2.741   1.535   7.864  0.0538  0.1553 -0.0069
 4838TIP3   OH236148   2.504   2.339   8.653  0.1880  0.0782  0.0658
 4838TIP3    H136149   2.543   2.404   8.594 -0.8398  0.5215 -0.1508
 4838TIP3    H236150   2.469   2.272   8.595 -0.0932  0.0998  0.2079
 4839TIP3   OH236151   3.287   3.316   8.712 -0.3380 -0.3609  1.0604
 4839TIP3    H136152   3.335   3.253   8.765  0.2138 -0.5507  0.3412
 4839TIP3    H236153   3.345   3.335   8.638 -2.2427 -2.3999 -1.1422
 4840TIP3   OH236154   4.739   5.361   7.436 -0.2665 -0.0226 -0.4737
 4840TIP3    H136155   4.735   5.429   7.368  1.7315  1.3746  0.6919
 4840TIP3    H236156   4.760   5.409   7.516  1.0872 -2.0141  0.4444
 4841TIP3   OH236157   5.458   4.154   6.797 -0.2917 -0.0083 -0.2612
 4841TIP3    H136158   5.363   4.155   6.809 -0.2688  0.0242 -0.0781
 4841TIP3    H236159   5.479   4.063   6.777 -0.2001 -0.2979  1.0512
 4842TIP3   OH236160   0.256   5.853   6.723  0.1225  0.0604 -0.0795
 4842TIP3    H136161   0.340   5.886   6.692 -0.0256  1.8577  1.2756
 4842TIP3    H236162   0.259   5.759   6.704  1.8308  0.3184 -1.3495
 4843TIP3   OH236163   0.432   1.071   0.325 -0.3637  0.1116  0.1523
 4843TIP3    H136164   0.371   1.050   0.254 -0.3312  1.0247 -0.1580
 4843TIP3    H236165   0.431   1.166   0.330  0.9001  0.1376  0.2662
 4844TIP3   OH236166   4.326   2.376   8.646  0.3634  0.0901  0.3354
 4844TIP3    H136167   4.313   2.409   8.557 -1.7270  1.4685  1.0708
 4844TIP3    H236168   4.385   2.440   8.687  0.4135  0.0826  0.2755
 4845TIP3   OH236169   5.240   4.539   6.933 -0.1252  0.0255  0.2989
 4845TIP3    H136170   5.177   4.546   6.861 -0.8282 -0.3953  0.8616
 4845TIP3    H236171   5.203   4.593   7.003  0.8250  0.8709  0.1677
 4846TIP3   OH236172   4.513   6.013   0.581  0.5066  0.3531 -0.0763
 4846TIP3    H136173   4.596   6.040   0.541 -0.1234  1.2449 -0.8235
 4846TIP3    H236174   4.465   6.095   0.594  0.1911 -0.0388  1.4183
 4847TIP3   OH236175   6.400   2.959   0.935 -0.7819 -0.3792  0.4783
 4847TIP3    H136176   6.312   2.956   0.974 -0.9070  0.6783  0.3022
 4847TIP3    H236177   6.389   3.011   0.856 -0.3531 -1.8105 -0.5594
 4848TIP3   OH236178   3.156   3.786   0.353 -0.2457 -0.1093 -0.0444
 4848TIP3    H136179   3.187   3.707   0.310  0.4270  0.0255  0.1867
 4848TIP3    H236180   3.154   3.852   0.284 -0.5341 -0.2526 -0.1747
 4849TIP3   OH236181   2.923   0.629   7.949 -0.4346 -0.1551  0.0748
 4849TIP3    H136182   2.991   0.686   7.916 -0.6103  0.1744  0.2781
 4849TIP3    H236183   2.961   0.541   7.945 -0.1853 -0.0303 -0.2839
 4850TIP3   OH236184   5.701   1.416   6.266  0.4839 -0.0846 -0.1987
 4850TIP3    H136185   5.734   1.406   6.355  0.6751 -0.7547 -0.3443
 4850TIP3    H236186   5.691   1.327   6.233 -0.1765  0.1436 -0.6355
 4851TIP3   OH236187   6.023   5.452   1.708 -0.1136  0.0409  0.0628
 4851TIP3    H136188   6.082   5.380   1.689  0.9159 -0.0635  3.2241
 4851TIP3    H236189   6.076   5.531   1.698  0.8966 -0.0779  3.4638
 4852TIP3   OH236190   3.949   0.142   1.900 -0.8213 -0.2742 -0.0737
 4852TIP3    H136191   3.918   0.086   1.971 -0.0168 -0.5879  0.0419
 4852TIP3    H236192   3.890   0.123   1.827 -0.9403 -0.8111  0.1567
 4853TIP3   OH236193   6.607   5.607   7.113 -0.4842  0.3951  0.5938
 4853TIP3    H136194   6.571   5.558   7.039 -0.8996  1.7206 -0.1263
 4853TIP3    H236195   6.543   5.677   7.128  1.2858  2.2840 -0.1311
 4854TIP3   OH236196   2.285   0.036   1.458 -0.2865  0.0670 -0.3974
 4854TIP3    H136197   2.345   0.042   1.384 -0.1373 -0.4237 -0.3216
 4854TIP3    H236198   2.264  -0.058   1.465  1.0115 -0.1493  1.1979
 4855TIP3   OH236199   6.779   2.503   0.128 -0.5943 -0.0073  0.5733
 4855TIP3    H136200   6.691   2.511   0.090 -0.0916 -1.0970 -0.9218
 4855TIP3    H236201   6.795   2.588   0.169 -0.6448  1.8494 -2.8906
 4856TIP3   OH236202   5.145   6.762   6.452  0.0639 -0.3997 -0.0789
 4856TIP3    H136203   5.069   6.760   6.509  0.6574  1.1143  0.8013
 4856TIP3    H236204   5.125   6.697   6.384 -1.4899 -0.8492  0.7557
 4857TIP3   OH236205   3.620   0.973   7.065  0.0235 -0.1731 -0.2313
 4857TIP3    H136206   3.605   1.054   7.113  0.2869  0.6864 -1.5502
 4857TIP3    H236207   3.703   0.941   7.098  1.0902  1.3432 -1.3178
 4858TIP3   OH236208   1.024   0.194   7.423 -0.4973  0.5661 -0.3293
 4858TIP3    H136209   1.042   0.286   7.441  2.2698  0.3329 -1.4596
 4858TIP3    H236210   1.068   0.147   7.494  0.6503  0.0495 -1.3616
 4859TIP3   OH236211   2.458   1.500   0.162  0.0799  0.5169  0.0710
 4859TIP3    H136212   2.496   1.414   0.176 -1.4217 -0.3142 -0.6446
 4859TIP3    H236213   2.405   1.491   0.083 -1.0077  1.7723  0.5981
 4860TIP3   OH236214   1.156   1.888   8.060 -0.0590  0.0577  0.7285
 4860TIP3    H136215   1.231   1.834   8.033  1.3218  0.7279  2.9023
 4860TIP3    H236216   1.177   1.976   8.028 -0.3970  0.0647  0.5211
 4861TIP3   OH236217   5.987   4.298   7.457 -0.4378  0.5850 -0.4644
 4861TIP3    H136218   6.063   4.355   7.473  0.9203 -1.7162  2.2011
 4861TIP3    H236219   5.994   4.274   7.364  2.7461 -0.2753 -0.1248
 4862TIP3   OH236220   2.188   2.709   8.076 -0.0303 -0.0942 -0.0826
 4862TIP3    H136221   2.237   2.752   8.006  1.2796 -0.7235  0.4143
 4862TIP3    H236222   2.096   2.719   8.050  0.3494  0.8927 -1.1749
 4863TIP3   OH236223   1.651   0.941   0.653 -0.1119  0.7846  0.1057
 4863TIP3    H136224   1.590   0.999   0.607 -0.7808  1.4794  1.7807
 4863TIP3    H236225   1.729   0.995   0.667 -0.7817  1.3815  1.7769
 4864TIP3   OH236226   3.585   6.336   0.660  0.5265 -0.1643 -0.3562
 4864TIP3    H136227   3.632   6.413   0.627  0.1782  0.4251  0.4966
 4864TIP3    H236228   3.498   6.343   0.620  1.1146 -1.2583 -1.9393
 4865TIP3   OH236229   5.852   1.505   6.544 -0.7314  0.2985  0.2098
 4865TIP3    H136230   5.932   1.503   6.597 -0.7120 -0.6732  0.1756
 4865TIP3    H236231   5.883   1.501   6.454 -0.7995  0.4114  0.1819
 4866TIP3   OH236232   0.425   0.047   0.625  0.4605  0.6677  0.3959
 4866TIP3    H136233   0.514   0.029   0.652  0.4971  1.3421  0.7395
 4866TIP3    H236234   0.406   0.134   0.659 -0.9370 -0.1633  1.8691
 4867TIP3   OH236235   6.564   6.441   8.857 -0.2749 -0.5868 -0.6868
 4867TIP3    H136236   6.540   6.492   8.780  1.0255 -0.5841 -1.1203
 4867TIP3    H236237   6.658   6.426   8.847 -0.0468 -0.4328  0.9993
 4868TIP3   OH236238   1.231   5.869   1.832 -0.2069  0.1456 -0.0761
 4868TIP3    H136239   1.230   5.928   1.907 -1.5829 -0.4868  0.4295
 4868TIP3    H236240   1.139   5.862   1.805  0.2186  0.1043 -1.6254
 4869TIP3   OH236241   2.465   1.149   7.074 -0.0016 -0.1710  0.1381
 4869TIP3    H136242   2.419   1.233   7.071 -3.0846 -1.6039  1.8296
 4869TIP3    H236243   2.527   1.153   7.001 -0.4402  3.2848 -0.2267
 4870TIP3   OH236244   5.707   3.561   7.380 -0.4179  0.2147 -0.0416
 4870TIP3    H136245   5.646   3.626   7.346 -1.6232 -0.5012  0.6990
 4870TIP3    H236246   5.725   3.504   7.305 -2.9776 -1.2942  0.3687
 4871TIP3   OH236247   0.660   6.362   1.911 -0.1085  0.1166 -0.1216
 4871TIP3    H136248   0.646   6.448   1.872 -2.6797 -0.2344 -0.1202
 4871TIP3    H236249   0.629   6.371   2.001 -0.6130 -0.8575 -0.1860
 4872TIP3   OH236250   5.353   3.576   8.587 -0.2630  0.6369  0.1833
 4872TIP3    H136251   5.392   3.495   8.620 -0.5307  0.2231 -0.4924
 4872TIP3    H236252   5.261   3.554   8.571 -0.3756  1.1179  0.1459
 4873TIP3   OH236253   1.743   1.501   6.287  0.2211 -0.8301  0.3771
 4873TIP3    H136254   1.837   1.492   6.305  0.0915  0.7823  2.1824
 4873TIP3    H236255   1.738   1.555   6.208  0.7912 -1.8477 -0.3755
 4874TIP3   OH236256   2.990   3.194   8.367 -0.4053 -0.3146  0.3981
 4874TIP3    H136257   3.032   3.259   8.310 -0.7651 -1.3401 -1.1023
 4874TIP3    H236258   2.937   3.141   8.307 -2.7494  0.0382  2.0152
 4875TIP3   OH236259   0.513   0.572   2.404  0.4000  0.4524 -0.1790
 4875TIP3    H136260   0.443   0.518   2.440 -0.3006  1.1202 -0.5312
 4875TIP3    H236261   0.515   0.549   2.311 -0.6026  1.7786 -0.5455
 4876TIP3   OH236262   0.200   6.103   0.326  0.2170  0.1034 -0.0251
 4876TIP3    H136263   0.268   6.166   0.305  0.5371 -0.3132 -0.2502
 4876TIP3    H236264   0.238   6.049   0.396  0.1395 -0.1618 -0.1864
 4877TIP3   OH236265   0.239   1.821   0.167  0.4186 -0.1585  0.5097
 4877TIP3    H136266   0.297   1.834   0.242  0.0376 -0.6103  0.8940
 4877TIP3    H236267   0.216   1.909   0.138  1.3308  0.0196  0.3243
 4878TIP3   OH236268   4.117   1.772   7.255  0.4289  0.7085  0.2957
 4878TIP3    H136269   4.096   1.866   7.259  0.0652  0.6676 -0.4085
 4878TIP3    H236270   4.118   1.744   7.346 -0.3569  1.2089  0.4759
 4879TIP3   OH236271   2.551   4.106   0.670  0.5627 -0.3360  0.4798
 4879TIP3    H136272   2.544   4.081   0.762  1.1708  0.1881  0.6837
 4879TIP3    H236273   2.561   4.024   0.623  0.7995 -0.5786  0.9453
 4880TIP3   OH236274   3.319   6.578   6.187 -0.0706 -0.7079  0.4996
 4880TIP3    H136275   3.303   6.671   6.175  1.4620 -0.4313  0.4457
 4880TIP3    H236276   3.240   6.535   6.153 -0.2171  0.4952 -0.7419
 4881TIP3   OH236277   0.477   0.243   1.674 -0.2986  0.7313 -0.0235
 4881TIP3    H136278   0.556   0.249   1.728  0.3704  1.0573 -1.0286
 4881TIP3    H236279   0.447   0.153   1.688  0.9628  0.1966 -0.6028
 4882TIP3   OH236280   1.091   2.273   8.365  0.2298 -0.4413  0.3201
 4882TIP3    H136281   1.078   2.179   8.357 -1.4417 -0.1898 -0.4094
 4882TIP3    H236282   1.083   2.306   8.275 -0.4498  0.5026  0.7000
 4883TIP3   OH236283   0.668   4.750   0.219  0.5404 -0.0726  0.1631
 4883TIP3    H136284   0.598   4.775   0.279  0.8835  0.1923  0.4668
 4883TIP3    H236285   0.715   4.832   0.203  0.0955 -0.0209 -0.9547
 4884TIP3   OH236286   0.055   6.767   6.750  0.1865  0.1394  0.7470
 4884TIP3    H136287   0.150   6.776   6.741  0.3562 -1.9994 -0.3414
 4884TIP3    H236288   0.019   6.842   6.703  1.3499 -0.0580 -0.5228
 4885TIP3   OH236289   5.813   4.773   0.163  0.5129  0.8289  0.0365
 4885TIP3    H136290   5.725   4.780   0.127  0.0271  1.6065  1.3373
 4885TIP3    H236291   5.808   4.699   0.224  1.0867  0.1306 -0.7286
 4886TIP3   OH236292   3.743   2.290   0.522 -0.0701  0.1890  0.2876
 4886TIP3    H136293   3.665   2.333   0.556 -0.7223 -0.8474  0.1502
 4886TIP3    H236294   3.729   2.197   0.540  0.9125 -0.0613 -0.1715
 4887TIP3   OH236295   3.193   3.409   7.799 -0.4391  0.0168 -0.2526
 4887TIP3    H136296   3.261   3.369   7.745 -0.7657 -0.0801 -0.6004
 4887TIP3    H236297   3.240   3.467   7.858 -0.1445  0.8203 -1.2553
 4888TIP3   OH236298   3.915   1.165   1.673 -0.0704 -0.3089  0.2239
 4888TIP3    H136299   3.891   1.159   1.581 -0.2204  0.1786  0.2284
 4888TIP3    H236300   3.872   1.090   1.714 -0.2337 -0.3697 -0.0527
 4889TIP3   OH236301   3.501   3.265   1.478  0.3394  0.0916 -0.6957
 4889TIP3    H136302   3.528   3.206   1.548  1.8829 -0.4502 -1.6908
 4889TIP3    H236303   3.406   3.253   1.472  0.1658  0.1805  1.2799
 4890TIP3   OH236304   4.862   2.509   8.345  0.1601 -0.1051 -0.9431
 4890TIP3    H136305   4.879   2.462   8.263  0.6808  0.1516 -0.9874
 4890TIP3    H236306   4.899   2.596   8.331  1.6270 -0.5261  0.1022
 4891TIP3   OH236307   0.332   2.394   6.942  0.2580 -0.0442 -0.0702
 4891TIP3    H136308   0.354   2.313   6.989  0.1449  1.0801  2.0245
 4891TIP3    H236309   0.250   2.423   6.982  0.2703  1.0961 -0.8213
 4892TIP3   OH236310   1.841   0.179   1.287 -0.5839 -0.1473 -0.4143
 4892TIP3    H136311   1.770   0.124   1.254 -0.3272 -0.2927 -0.7278
 4892TIP3    H236312   1.896   0.196   1.211  0.1789 -0.7297 -0.0107
 4893TIP3   OH236313   2.949   0.458   0.519  0.1013 -0.0607 -0.1942
 4893TIP3    H136314   3.031   0.503   0.542 -0.0776  1.1288 -1.7657
 4893TIP3    H236315   2.963   0.426   0.430 -0.7993 -0.7182 -0.1110
 4894TIP3   OH236316   4.708   0.080   0.516 -0.0629  0.2252  0.1443
 4894TIP3    H136317   4.793   0.112   0.489  0.0221  0.7677  1.0056
 4894TIP3    H236318   4.707  -0.012   0.491  0.3956  0.4509 -0.7309
 4895TIP3   OH236319   2.181   1.478   1.586  0.1330  0.6815 -0.4106
 4895TIP3    H136320   2.236   1.510   1.657  0.5734 -2.1303  0.6085
 4895TIP3    H236321   2.109   1.432   1.629  0.4248 -1.1194 -1.7215
 4896TIP3   OH236322   5.722   4.567   1.882 -0.0663 -0.0576 -0.5252
 4896TIP3    H136323   5.776   4.564   1.803  0.4846 -1.6771 -0.1152
 4896TIP3    H236324   5.784   4.567   1.954 -0.5887 -0.0672 -0.0650
 4897TIP3   OH236325   2.915   3.639   2.491  0.0451 -0.0535 -0.1372
 4897TIP3    H136326   2.918   3.629   2.586  1.0772 -1.2053 -0.2574
 4897TIP3    H236327   2.825   3.614   2.467  0.1166 -0.9090  0.4393
 4898TIP3   OH236328   3.526   5.210   1.280 -0.0180  0.1103  0.4959
 4898TIP3    H136329   3.434   5.201   1.306 -0.6890 -1.3321 -2.0504
 4898TIP3    H236330   3.574   5.162   1.347 -1.0883  0.7297  1.7733
 4899TIP3   OH236331   0.891   0.974   0.474 -0.5548 -0.4555  1.0989
 4899TIP3    H136332   0.826   1.030   0.432 -1.1391 -1.5441  0.5273
 4899TIP3    H236333   0.842   0.896   0.501  0.0534 -0.3299  2.6967
 4900TIP3   OH236334   6.445   5.203   7.677 -0.6226 -0.4767 -0.1405
 4900TIP3    H136335   6.495   5.231   7.754 -0.0676  1.1500 -1.0375
 4900TIP3    H236336   6.504   5.217   7.604 -2.1298  0.8934 -1.1766
 4901TIP3   OH236337   1.648   2.791   7.798 -0.2319 -0.6669  0.2570
 4901TIP3    H136338   1.722   2.768   7.743 -0.2221  1.0121 -0.4748
 4901TIP3    H236339   1.666   2.879   7.829 -1.4941 -0.5671  0.7970
 4902TIP3   OH236340   5.436   3.682   0.295 -0.0149 -0.1907 -0.1968
 4902TIP3    H136341   5.452   3.774   0.313 -2.3251  0.3539 -0.7083
 4902TIP3    H236342   5.423   3.677   0.200 -0.6131 -0.9227 -0.0900
 4903TIP3   OH236343   5.065   0.554   7.666  0.0605  0.1379  0.1239
 4903TIP3    H136344   5.096   0.511   7.587 -0.8124  0.2798 -0.3086
 4903TIP3    H236345   5.009   0.625   7.635 -1.4271 -0.6629  0.8723
 4904TIP3   OH236346   0.759   0.799   7.539  0.3524 -0.1142 -0.6739
 4904TIP3    H136347   0.839   0.800   7.592 -0.0081 -1.2252 -0.0627
 4904TIP3    H236348   0.754   0.886   7.500  1.6523  0.0943 -0.4070
 4905TIP3   OH236349   5.977   2.098   7.664 -0.1980  0.1632  0.2045
 4905TIP3    H136350   6.027   2.036   7.612  1.4581 -0.1489  2.0646
 4905TIP3    H236351   5.897   2.113   7.613  1.2457 -0.1835 -2.3431
 4906TIP3   OH236352   0.685   4.047   1.294  0.0032 -0.2751  0.3769
 4906TIP3    H136353   0.708   4.014   1.207 -1.7695  1.0784 -0.6855
 4906TIP3    H236354   0.757   4.019   1.350  0.8571 -1.8194 -1.3602
 4907TIP3   OH236355   4.022   0.122   7.202  0.4025  0.2732  0.6222
 4907TIP3    H136356   4.063   0.200   7.163  0.4551  0.2184  0.5682
 4907TIP3    H236357   4.026   0.056   7.133  1.1313 -0.0401  0.9545
 4908TIP3   OH236358   0.304   4.969   7.341 -0.0958 -0.2322  0.7058
 4908TIP3    H136359   0.296   5.029   7.268  0.1696 -1.0170  0.0154
 4908TIP3    H236360   0.221   4.920   7.341 -0.4112  0.2823  1.4104
 4909TIP3   OH236361   4.514   2.393   7.152  0.0482 -0.6105 -0.1757
 4909TIP3    H136362   4.467   2.476   7.143  0.0139 -0.6682 -0.5320
 4909TIP3    H236363   4.446   2.331   7.180 -0.5087 -1.1135 -2.4675
 4910TIP3   OH236364   0.109   6.766   7.030  0.3721 -0.5892  0.4247
 4910TIP3    H136365   0.093   6.764   6.936 -2.2675 -1.7350  0.8165
 4910TIP3    H236366   0.023   6.778   7.069  0.9150 -3.2982  2.7889
 4911TIP3   OH236367   3.552   6.695   8.481  0.3886  0.0617  1.1726
 4911TIP3    H136368   3.555   6.776   8.430  3.2585 -1.4985 -1.4607
 4911TIP3    H236369   3.633   6.696   8.532  0.7884 -1.3695  0.6221
 4912TIP3   OH236370   4.557   0.307   0.535  0.4113  0.0881  0.3333
 4912TIP3    H136371   4.513   0.324   0.452  2.8981  0.4002 -1.0177
 4912TIP3    H236372   4.607   0.226   0.520  0.7278  0.0310  1.5824
 4913TIP3   OH236373   0.527   4.833   1.705  0.3118  0.3216  0.2610
 4913TIP3    H136374   0.534   4.757   1.648  1.3715 -0.8960  1.9347
 4913TIP3    H236375   0.439   4.827   1.743 -0.8240  1.7302 -1.9254
 4914TIP3   OH236376   2.686   5.283   1.310 -0.5648  0.7244 -0.2769
 4914TIP3    H136377   2.626   5.233   1.365 -1.7979  3.6610  1.2605
 4914TIP3    H236378   2.679   5.242   1.224 -1.3972 -1.7230  0.8461
 4915TIP3   OH236379   1.673   2.159   1.526 -0.1816  0.5185 -1.2492
 4915TIP3    H136380   1.715   2.120   1.450  2.1401  2.3624 -1.0437
 4915TIP3    H236381   1.610   2.221   1.489  1.8180  2.3550 -1.8641
 4916TIP3   OH236382   4.348   4.779   8.735 -0.6015 -0.4784 -0.4039
 4916TIP3    H136383   4.421   4.792   8.796  0.4297 -0.4225 -1.6050
 4916TIP3    H236384   4.276   4.828   8.774  0.7093  1.5720 -0.4069
 4917TIP3   OH236385   0.598   3.013   0.898 -0.0776  0.9114  0.3189
 4917TIP3    H136386   0.659   3.043   0.966 -0.3858  1.0419  0.5461
 4917TIP3    H236387   0.576   3.092   0.849 -0.4638  0.9628  0.5682
 4918TIP3   OH236388   2.184   4.214   7.280 -0.0868  0.2487  0.1016
 4918TIP3    H136389   2.091   4.235   7.270  0.1900  0.8161 -1.8801
 4918TIP3    H236390   2.191   4.172   7.365 -2.4441 -1.3284 -0.3974
 4919TIP3   OH236391   2.956   2.420   8.229  0.1336  0.2127  0.3443
 4919TIP3    H136392   2.984   2.372   8.151 -1.7103  0.1754 -0.3428
 4919TIP3    H236393   2.920   2.352   8.287 -0.5781  0.5131  0.2558
 4920TIP3   OH236394   4.552   3.925   7.980 -0.1026  0.1507  0.4571
 4920TIP3    H136395   4.495   3.857   7.944  0.0653  0.7479 -1.0045
 4920TIP3    H236396   4.640   3.886   7.980 -0.1137  0.1268  0.2873
 4921TIP3   OH236397   1.749   4.996   7.703 -0.3321 -0.0035  0.2285
 4921TIP3    H136398   1.691   4.941   7.650  0.6610 -0.2806 -0.5855
 4921TIP3    H236399   1.785   5.059   7.641  0.4899 -0.0326  0.6734
 4922TIP3   OH236400   2.003   5.341   1.986 -0.3520 -0.0904 -0.2238
 4922TIP3    H136401   2.047   5.419   2.019 -2.5191  1.1631 -0.1719
 4922TIP3    H236402   2.042   5.327   1.899  1.2016  0.0450  0.4189
 4923TIP3   OH236403   3.959   2.760   7.757 -0.0710 -0.0232  0.1270
 4923TIP3    H136404   4.014   2.797   7.826 -0.2397 -1.0787  0.8355
 4923TIP3    H236405   3.926   2.678   7.793  0.3504 -0.9241 -1.4451
 4924TIP3   OH236406   2.213   5.157   0.288  0.2260  0.1333 -0.0553
 4924TIP3    H136407   2.134   5.197   0.325 -1.6315 -2.0327 -1.4184
 4924TIP3    H236408   2.200   5.163   0.193  1.7084 -0.2938 -0.3089
 4925TIP3   OH236409   1.299   1.468   1.296 -0.8880 -0.0607  0.2060
 4925TIP3    H136410   1.384   1.505   1.274 -1.7440  1.4714 -0.6623
 4925TIP3    H236411   1.299   1.462   1.392 -0.0926  0.6177  0.2555
 4926TIP3   OH236412   5.866   2.077   8.688 -0.0792 -0.2440 -0.3370
 4926TIP3    H136413   5.830   2.148   8.742  0.8040 -1.1651  1.5731
 4926TIP3    H236414   5.794   2.016   8.678  0.3488 -1.1940  1.8900
 4927TIP3   OH236415   6.345   2.167   7.556  0.4116 -0.6469 -0.3219
 4927TIP3    H136416   6.425   2.193   7.509  0.2326 -2.4847 -1.7385
 4927TIP3    H236417   6.287   2.133   7.488 -1.5666  0.4740  0.6945
 4928TIP3   OH236418   1.167   3.197   1.612 -0.2923 -0.0128  0.6470
 4928TIP3    H136419   1.189   3.114   1.571  1.4200  0.9285 -0.4452
 4928TIP3    H236420   1.103   3.174   1.680  0.2065 -2.2088  0.4448
 4929TIP3   OH236421   1.042   0.021   0.856 -0.0547  0.0608  0.1726
 4929TIP3    H136422   0.971   0.039   0.918  0.4792  0.4804  0.6706
 4929TIP3    H236423   1.088  -0.054   0.895  0.8047  0.8719  0.7423
 4930TIP3   OH236424   4.529   2.532   8.229  0.4418  0.1527 -0.2555
 4930TIP3    H136425   4.620   2.550   8.205  1.2548 -1.8017  1.1648
 4930TIP3    H236426   4.491   2.619   8.242  2.4877  1.0171  0.4654
 4931TIP3   OH236427   0.731   0.609   1.699 -0.3404  0.0849  0.6593
 4931TIP3    H136428   0.725   0.703   1.686  0.1157  0.0051 -0.1391
 4931TIP3    H236429   0.646   0.585   1.737 -0.0730  0.9643  1.8845
 4932TIP3   OH236430   1.303   1.481   6.904  0.1486  0.0152  0.0602
 4932TIP3    H136431   1.329   1.553   6.961 -1.1921  0.0907  0.6131
 4932TIP3    H236432   1.239   1.520   6.844  0.6556 -0.3436 -0.7430
 4933TIP3   OH236433   2.401   4.931   7.484 -0.1066 -0.1942  0.2208
 4933TIP3    H136434   2.340   4.869   7.526 -0.9205  2.7786  4.0157
 4933TIP3    H236435   2.355   5.014   7.487  2.9324  1.6173  0.3483
 4934TIP3   OH236436   6.445   3.463   1.192 -0.1601 -0.1815  0.1471
 4934TIP3    H136437   6.418   3.529   1.255 -0.6462 -0.7322  0.5329
 4934TIP3    H236438   6.391   3.479   1.115  0.8672  0.8773 -0.3698
 4935TIP3   OH236439   3.445   0.812   0.468  0.0207 -0.4471 -0.2601
 4935TIP3    H136440   3.430   0.906   0.464 -0.0811 -0.4613 -0.2087
 4935TIP3    H236441   3.516   0.802   0.532 -0.6220 -0.4779  0.4695
 4936TIP3   OH236442   6.017   6.152   8.670 -0.4847 -0.7007 -0.1545
 4936TIP3    H136443   6.004   6.238   8.710 -1.9113 -0.6321 -0.7035
 4936TIP3    H236444   6.112   6.144   8.662 -0.1544 -0.4327  2.5705
 4937TIP3   OH236445   5.926   5.026   1.133  0.1604  0.0783  0.3524
 4937TIP3    H136446   5.967   5.105   1.098  0.9047 -0.3514  0.2201
 4937TIP3    H236447   5.855   5.006   1.072 -0.7197  1.2219  0.9559
 4938TIP3   OH236448   6.308   6.131   1.181 -1.0535 -0.1922  0.1223
 4938TIP3    H136449   6.213   6.137   1.187 -0.9173  1.8200  0.9901
 4938TIP3    H236450   6.335   6.088   1.262 -1.2156 -0.9026 -0.1931
 4939TIP3   OH236451   3.706   1.441   0.399  0.3580  0.0369 -0.3052
 4939TIP3    H136452   3.634   1.488   0.441  1.6866 -0.5487  2.9371
 4939TIP3    H236453   3.780   1.502   0.406  0.8823 -0.5449 -0.7536
 4940TIP3   OH236454   3.002   4.646   7.499 -0.1179 -0.3198 -0.2902
 4940TIP3    H136455   3.015   4.739   7.481  0.7644 -0.3930 -0.1047
 4940TIP3    H236456   2.907   4.635   7.505 -0.2337  0.5352 -0.4683
 4941TIP3   OH236457   4.128   1.507   1.895  0.4809 -0.1829  0.5896
 4941TIP3    H136458   4.141   1.588   1.944 -1.7212  0.1897  0.6378
 4941TIP3    H236459   4.046   1.520   1.847  1.7178 -1.1429 -1.9981
 4942TIP3   OH236460   2.863   4.639   7.080  0.4337 -0.6062 -0.0760
 4942TIP3    H136461   2.859   4.728   7.114 -0.0553 -1.5007  2.4866
 4942TIP3    H236462   2.772   4.608   7.083  0.6876 -1.4071 -0.3150
 4943TIP3   OH236463   6.058   3.815   8.427  0.7067 -0.1756 -0.1653
 4943TIP3    H136464   5.989   3.852   8.483  1.0457  1.2593 -0.6555
 4943TIP3    H236465   6.100   3.749   8.482 -1.0444 -1.1008  0.1465
 4944TIP3   OH236466   1.666   6.358   7.595  0.2120  0.1739 -0.6171
 4944TIP3    H136467   1.671   6.405   7.678 -0.8653  1.8408 -1.4262
 4944TIP3    H236468   1.705   6.273   7.613  0.4147  0.6458  1.4644
 4945TIP3   OH236469   0.496   0.248   2.412  0.5119  0.5824  0.6113
 4945TIP3    H136470   0.401   0.250   2.420  0.4612  0.1213  0.1716
 4945TIP3    H236471   0.523   0.169   2.460  0.6347  0.4782  0.3714
 4946TIP3   OH236472   5.218   3.714   7.669  0.2587 -0.2639 -0.8804
 4946TIP3    H136473   5.123   3.704   7.657  0.1079  0.4929 -0.3631
 4946TIP3    H236474   5.254   3.628   7.646 -0.4739 -0.3364 -1.8460
 4947TIP3   OH236475   6.669   0.904   7.176  0.5044  0.0535 -0.2400
 4947TIP3    H136476   6.671   0.951   7.093  0.1353  0.4032 -0.0507
 4947TIP3    H236477   6.577   0.901   7.201  0.6482  0.2661  0.3356
 4948TIP3   OH236478   0.629   5.963   7.940  0.0297 -0.6256  0.6233
 4948TIP3    H136479   0.596   5.875   7.958 -0.4287 -1.0392 -1.8507
 4948TIP3    H236480   0.684   5.952   7.862  1.7375  0.9500  1.5294
 4949TIP3   OH236481   2.960   2.141   0.967 -0.7383  0.0775 -0.1727
 4949TIP3    H136482   3.014   2.064   0.989  0.0768  0.3519 -1.1344
 4949TIP3    H236483   2.881   2.104   0.928 -1.1568 -0.3245  1.0255
 4950TIP3   OH236484   6.138   3.221   0.714 -0.2981  0.0671  0.6178
 4950TIP3    H136485   6.134   3.316   0.698  1.7822  0.1247  0.2180
 4950TIP3    H236486   6.106   3.181   0.634  0.5207  0.4307  0.1035
 4951TIP3   OH236487   5.459   6.527   1.891 -0.0692 -0.6200  0.3013
 4951TIP3    H136488   5.405   6.494   1.963 -0.4190 -0.3027  0.1820
 4951TIP3    H236489   5.549   6.516   1.923 -0.2029  2.1392  2.0062
 4952TIP3   OH236490   0.435   1.866   6.643  0.0383 -0.0877  0.3794
 4952TIP3    H136491   0.487   1.843   6.566 -1.4511 -1.2038 -0.3553
 4952TIP3    H236492   0.499   1.886   6.710  1.3944  0.0915 -0.9086
 4953TIP3   OH236493   2.269   1.032   6.743 -0.0096 -0.5114  0.0588
 4953TIP3    H136494   2.326   0.964   6.707 -0.9298 -0.5069 -1.4657
 4953TIP3    H236495   2.181   1.003   6.722 -0.6662 -0.7735  2.8133
 4954TIP3   OH236496   4.130   5.130   8.063  0.0401  0.3408 -0.1615
 4954TIP3    H136497   4.225   5.117   8.059 -0.2080 -1.5341 -0.9092
 4954TIP3    H236498   4.110   5.185   7.987  0.4966  0.5472 -0.1350
 4955TIP3   OH236499   1.403   2.236   0.062 -0.0792  0.5538  0.2064
 4955TIP3    H136500   1.352   2.262   0.139 -1.2472 -2.1156  0.4471
 4955TIP3    H236501   1.435   2.148   0.083  1.6748  0.7493 -1.4004
 4956TIP3   OH236502   1.626   5.834   0.945 -0.9128  0.2899  0.4886
 4956TIP3    H136503   1.561   5.809   1.011  1.6353  0.3210  3.2213
 4956TIP3    H236504   1.647   5.925   0.966  1.9308 -0.5066  1.5588
 4957TIP3   OH236505   1.310   1.987   6.127 -0.0667  0.5288 -0.1702
 4957TIP3    H136506   1.350   2.025   6.205 -1.9038  1.5383  0.3404
 4957TIP3    H236507   1.223   1.957   6.156 -0.8284  1.0057 -1.8278
 4958TIP3   OH236508   6.767   1.554   8.471  0.1676  0.2308  0.0010
 4958TIP3    H136509   6.818   1.597   8.540 -0.2624  1.1850 -0.2630
 4958TIP3    H236510   6.690   1.519   8.517  1.6463 -2.4096  0.6538
 4959TIP3   OH236511   3.492   1.470   0.698  0.9330 -0.2538 -0.1223
 4959TIP3    H136512   3.573   1.497   0.742 -0.1895 -1.0155  2.5894
 4959TIP3    H236513   3.429   1.538   0.719  0.0001 -1.3443  0.7047
 4960TIP3   OH236514   4.692   3.606   1.459 -0.0645 -1.1498  0.3404
 4960TIP3    H136515   4.751   3.556   1.403 -0.5473 -1.3283 -0.0119
 4960TIP3    H236516   4.751   3.654   1.518  0.4945 -0.1938 -0.9481
 4961TIP3   OH236517   2.334   5.705   0.429 -0.1548  0.6093 -0.1628
 4961TIP3    H136518   2.410   5.691   0.373 -0.3830 -1.4011 -0.0412
 4961TIP3    H236519   2.267   5.645   0.395 -0.3105 -0.6524  2.1589
 4962TIP3   OH236520   4.718   6.527   8.081 -0.3192  0.3368  0.4907
 4962TIP3    H136521   4.630   6.510   8.114 -0.0350  0.1682  1.1875
 4962TIP3    H236522   4.736   6.618   8.107 -0.8098  0.8393 -0.8673
 4963TIP3   OH236523   4.140   5.675   1.474 -0.5996  0.5249 -0.6730
 4963TIP3    H136524   4.056   5.683   1.519 -0.4101  2.4508 -0.5935
 4963TIP3    H236525   4.133   5.592   1.427 -0.5134 -2.0924  3.4141
 4964TIP3   OH236526   0.902   4.159   2.375 -0.3913 -0.5349 -0.0579
 4964TIP3    H136527   0.936   4.248   2.371 -0.9299 -0.2508  1.0862
 4964TIP3    H236528   0.833   4.156   2.309  1.3605 -0.9331 -1.9592
 4965TIP3   OH236529   3.890   5.728   1.550 -0.2770  0.1081 -0.6110
 4965TIP3    H136530   3.833   5.690   1.483 -0.3488  1.8561 -1.6022
 4965TIP3    H236531   3.843   5.805   1.581  0.6084  0.3851  0.0977
 4966TIP3   OH236532   6.097   2.568   0.105  0.3810  0.1618  0.6310
 4966TIP3    H136533   6.012   2.607   0.122 -0.0486 -1.1484  1.6386
 4966TIP3    H236534   6.079   2.497   0.044  1.0453  0.9777 -0.5712
 4967TIP3   OH236535   3.634   1.107   1.266 -0.2538 -0.0219 -0.0055
 4967TIP3    H136536   3.611   1.101   1.359  0.1523 -2.8895  0.0166
 4967TIP3    H236537   3.550   1.097   1.220 -0.2599 -0.3518  0.0733
 4968TIP3   OH236538   6.549   3.156   6.830  0.2270  0.2482 -0.3354
 4968TIP3    H136539   6.606   3.080   6.842  1.5555  1.4048  1.1624
 4968TIP3    H236540   6.487   3.150   6.903 -1.1923 -0.6045 -1.5436
 4969TIP3   OH236541   5.436   3.444   0.627  0.1203  0.0817  0.1146
 4969TIP3    H136542   5.378   3.519   0.616  1.7404  1.4216  0.3840
 4969TIP3    H236543   5.517   3.480   0.662  0.8343 -1.8512  0.6295
 4970TIP3   OH236544   0.999   3.454   0.986 -0.1701 -0.3493  0.1304
 4970TIP3    H136545   0.988   3.482   1.076  0.4072  0.7244 -0.1195
 4970TIP3    H236546   1.016   3.360   0.992 -2.1937 -0.7064  0.9726
 4971TIP3   OH236547   3.624   4.500   0.920 -0.0961  0.1642  0.3448
 4971TIP3    H136548   3.620   4.531   1.011 -0.4072 -1.6446  1.0033
 4971TIP3    H236549   3.582   4.569   0.869  0.2968  1.3338  1.5413
 4972TIP3   OH236550   4.444   2.844   0.553 -0.5397  0.4801  0.2851
 4972TIP3    H136551   4.396   2.922   0.523 -1.1061  0.0423  0.0112
 4972TIP3    H236552   4.467   2.862   0.644 -0.3146  1.1300  0.1018
 4973TIP3   OH236553   0.336   2.305   0.123  0.2242 -0.4266 -0.2409
 4973TIP3    H136554   0.365   2.359   0.049  0.2452  0.2751  0.2618
 4973TIP3    H236555   0.240   2.304   0.116  0.1522  0.5791  0.3377
 4974TIP3   OH236556   4.199   0.311   0.224 -0.3612 -0.4855  0.2468
 4974TIP3    H136557   4.294   0.325   0.232 -0.5786  0.4915  1.2142
 4974TIP3    H236558   4.164   0.330   0.310 -1.6492  0.7680 -0.5127
 4975TIP3   OH236559   3.621   3.059   1.666  0.0622 -0.7940  0.3853
 4975TIP3    H136560   3.621   3.006   1.586 -1.5670 -1.0282  0.4989
 4975TIP3    H236561   3.531   3.052   1.698  0.7224 -0.8328  2.3253
 4976TIP3   OH236562   0.660   3.157   7.867 -0.1645 -0.3504 -0.1664
 4976TIP3    H136563   0.572   3.146   7.830 -0.0542  1.5051 -1.0953
 4976TIP3    H236564   0.653   3.235   7.922  0.1715 -1.9689  2.3473
 4977TIP3   OH236565   3.217   4.815   1.453 -0.6540 -0.4660 -0.5499
 4977TIP3    H136566   3.218   4.889   1.512  2.3056 -1.4335  0.8162
 4977TIP3    H236567   3.253   4.849   1.371  1.3876 -0.4434  0.2905
 4978TIP3   OH236568   5.357   5.272   1.145 -0.2092 -0.6789 -0.9441
 4978TIP3    H136569   5.421   5.295   1.212  1.0072  0.5793 -2.4801
 4978TIP3    H236570   5.361   5.176   1.140  0.5981 -0.7006 -0.1312
 4979TIP3   OH236571   3.209   4.926   8.612  0.5498  0.0914  0.4062
 4979TIP3    H136572   3.143   4.857   8.622  1.4661 -0.8213  0.3715
 4979TIP3    H236573   3.167   4.992   8.557  0.6494 -1.8902 -2.2837
 4980TIP3   OH236574   3.693   1.531   8.745  0.1283 -0.0405  0.5322
 4980TIP3    H136575   3.743   1.606   8.777 -0.9469  0.5591  0.8460
 4980TIP3    H236576   3.760   1.469   8.714  1.0256  1.1751 -0.0586
 4981TIP3   OH236577   4.669   1.188   8.274  0.2754  0.9163 -0.0672
 4981TIP3    H136578   4.635   1.156   8.357 -1.3523 -0.8120 -1.3118
 4981TIP3    H236579   4.708   1.272   8.295  1.4210 -0.1984  2.7280
 4982TIP3   OH236580   4.420   3.105   7.562 -0.2973  0.1747  0.0199
 4982TIP3    H136581   4.461   3.047   7.497 -1.8290 -0.3401 -0.5252
 4982TIP3    H236582   4.485   3.113   7.631  0.3045 -1.4966 -0.3095
 4983TIP3   OH236583   1.772   0.680   8.805 -0.2067 -0.3561 -0.1931
 4983TIP3    H136584   1.863   0.659   8.784  0.4542  1.7271  0.3854
 4983TIP3    H236585   1.744   0.609   8.864  1.2760 -0.6217  0.2252
 4984TIP3   OH236586   0.495   5.720   6.572  0.2212 -0.4356 -0.2912
 4984TIP3    H136587   0.536   5.691   6.491  0.0506  1.6394 -1.1572
 4984TIP3    H236588   0.557   5.782   6.610  0.1958 -1.2043  1.0846
 4985TIP3   OH236589   3.648   4.316   7.282  0.0672  0.6174 -0.3726
 4985TIP3    H136590   3.677   4.333   7.372  0.2119  0.8240 -0.4569
 4985TIP3    H236591   3.723   4.340   7.228  0.3433 -0.4707 -0.4927
 4986TIP3   OH236592   4.420   3.970   2.085 -0.3681  0.2087 -0.2225
 4986TIP3    H136593   4.489   3.915   2.122 -1.1351 -0.7037 -0.1356
 4986TIP3    H236594   4.410   4.041   2.149 -0.0789 -0.1046  0.1772
 4987TIP3   OH236595   2.460   1.491   0.517 -0.2128  0.4367 -0.5556
 4987TIP3    H136596   2.542   1.465   0.475  0.2776  1.7834 -0.4895
 4987TIP3    H236597   2.478   1.577   0.554 -1.7351  0.8792 -0.7619
 4988TIP3   OH236598   5.127   3.976   0.544  0.0753 -0.7086  0.1218
 4988TIP3    H136599   5.103   4.025   0.465  0.7380 -0.6430 -0.0432
 4988TIP3    H236600   5.052   3.987   0.602  0.2349  0.5546  0.1167
 4989TIP3   OH236601   3.268   2.915   2.386 -0.6868  0.5491 -0.2757
 4989TIP3    H136602   3.256   3.003   2.422 -2.5651 -0.3168  1.4089
 4989TIP3    H236603   3.185   2.894   2.343  0.3534  0.2371 -2.2458
 4990TIP3   OH236604   5.974   3.990   7.099 -0.0673 -0.1953  0.1781
 4990TIP3    H136605   6.049   4.009   7.155 -0.2523 -0.5466  0.5447
 4990TIP3    H236606   5.899   4.025   7.147 -0.0323  1.1270 -0.6744
 4991TIP3   OH236607   0.639   0.970   0.162  0.7924 -0.5092 -0.2209
 4991TIP3    H136608   0.604   1.012   0.083 -0.9576 -1.0223  0.2544
 4991TIP3    H236609   0.578   0.995   0.231  1.6750 -1.0131  0.7552
 4992TIP3   OH236610   1.073   3.673   8.626 -0.2135 -0.9856 -0.1718
 4992TIP3    H136611   1.121   3.711   8.553  1.2568  0.6283  1.5519
 4992TIP3    H236612   0.987   3.652   8.589  0.8476 -1.3695 -2.6322
 4993TIP3   OH236613   1.420   6.046   6.694 -0.1295 -0.4541  0.1436
 4993TIP3    H136614   1.499   5.991   6.689  0.0287 -0.1031 -2.0506
 4993TIP3    H236615   1.424   6.085   6.781  2.3045 -0.1924 -0.0257
 4994TIP3   OH236616   1.451   3.398   7.253  0.3228  0.2589  0.2993
 4994TIP3    H136617   1.394   3.475   7.244 -1.3386 -1.0305 -0.7707
 4994TIP3    H236618   1.417   3.353   7.331  1.7644  0.9468  1.3635
 4995TIP3   OH236619   2.926   5.355   7.349 -0.4612 -0.3173  0.1787
 4995TIP3    H136620   2.838   5.390   7.339 -0.6175 -0.9383 -0.6834
 4995TIP3    H236621   2.918   5.262   7.331  0.8463  0.0639 -3.0703
 4996TIP3   OH236622   3.778   0.886   2.534 -0.3248  0.1508  0.2994
 4996TIP3    H136623   3.852   0.941   2.557  0.1734 -0.5852  0.4706
 4996TIP3    H236624   3.701   0.939   2.556  0.0767  1.9849 -2.2797
 4997TIP3   OH236625   4.157   3.180   7.147  0.2056  0.2998 -0.0274
 4997TIP3    H136626   4.074   3.223   7.166  1.2442  1.9611  0.9861
 4997TIP3    H236627   4.149   3.151   7.056 -1.1801  1.1444 -0.1926
 4998TIP3   OH236628   6.430   4.104   7.318  0.1545  0.0412 -0.4312
 4998TIP3    H136629   6.521   4.115   7.290  0.7067 -2.0950  0.3636
 4998TIP3    H236630   6.387   4.185   7.291  1.9992  0.5885 -1.9720
 4999TIP3   OH236631   1.500   4.886   8.462  0.6366 -0.3412  0.3358
 4999TIP3    H136632   1.504   4.981   8.471 -1.1996  0.1378 -2.5311
 4999TIP3    H236633   1.589   4.860   8.441  0.5840  1.3985 -2.7144
 5000TIP3   OH236634   3.958   5.407   7.487  0.4024  0.0096  0.1206
 5000TIP3    H136635   3.998   5.467   7.424 -3.3046  0.4035 -2.1329
 5000TIP3    H236636   3.964   5.453   7.571  0.7880  1.9537 -0.9025
 5001TIP3   OH236637   2.224   5.553   7.692  0.2119 -0.6538 -0.5633
 5001TIP3    H136638   2.196   5.573   7.603 -1.5303 -0.3932 -0.0023
 5001TIP3    H236639   2.265   5.633   7.723 -2.0912  0.4201 -0.0820
 5002TIP3   OH236640   2.099   6.096   7.967 -0.2208  0.3340 -0.1007
 5002TIP3    H136641   2.166   6.064   7.907  1.6007  0.8846  1.5474
 5002TIP3    H236642   2.034   6.138   7.910  2.1228  2.1073 -1.6454
 5003TIP3   OH236643   3.068   6.368   7.407 -0.6531  0.2073 -0.0472
 5003TIP3    H136644   3.079   6.282   7.448  0.8075  1.2817  1.9631
 5003TIP3    H236645   2.979   6.366   7.371 -0.3314 -2.4532 -0.8990
 5004TIP3   OH236646   2.271   4.123   7.906  0.4554  0.5570 -0.8564
 5004TIP3    H136647   2.346   4.121   7.846  1.9273  1.3452  0.8841
 5004TIP3    H236648   2.309   4.109   7.992 -1.7172 -1.3508 -0.1366
 5005TIP3   OH236649   4.472   3.813   1.850 -0.2337 -0.6143 -0.7956
 5005TIP3    H136650   4.459   3.718   1.854 -1.7572 -0.4926 -1.8108
 5005TIP3    H236651   4.445   3.845   1.936 -0.7810 -1.0124 -0.8172
 5006TIP3   OH236652   5.870   0.381   1.447  0.1847 -0.4312 -0.1828
 5006TIP3    H136653   5.775   0.381   1.432 -0.2384  0.7374  2.0668
 5006TIP3    H236654   5.907   0.409   1.363 -1.6722  1.6867 -0.3887
 5007TIP3   OH236655   4.250   3.561   6.623  0.2025 -0.4885 -0.0506
 5007TIP3    H136656   4.341   3.585   6.638 -0.1665  1.3330 -0.4113
 5007TIP3    H236657   4.228   3.502   6.695  0.8595  1.3716  1.7674
 5008TIP3   OH236658   0.440   2.876   8.746  0.2056 -0.3245  0.0568
 5008TIP3    H136659   0.441   2.854   8.653  3.8981 -0.5539  0.0174
 5008TIP3    H236660   0.350   2.906   8.762 -1.2495 -2.4602 -2.9881
 5009TIP3   OH236661   6.056   1.439   0.213 -0.0579  0.3350  0.1988
 5009TIP3    H136662   6.122   1.507   0.227  1.0563 -0.3974 -1.2306
 5009TIP3    H236663   6.036   1.445   0.119  0.0817 -1.3263  0.0429
 5010TIP3   OH236664   2.824   0.716   0.956 -0.1871 -0.3728 -0.4349
 5010TIP3    H136665   2.863   0.723   1.044  1.1147 -2.3524 -0.7874
 5010TIP3    H236666   2.742   0.669   0.970 -0.4095  0.0711 -0.2003
 5011TIP3   OH236667   0.224   3.438   0.965 -0.3896 -0.2733  0.1906
 5011TIP3    H136668   0.210   3.514   1.022  0.8032  0.0531  0.0840
 5011TIP3    H236669   0.301   3.395   1.002 -0.5069 -0.9094 -0.2999
 5012TIP3   OH236670   4.419   3.300   1.245 -0.2656 -0.2071  0.1630
 5012TIP3    H136671   4.377   3.322   1.162 -1.3333  3.9642  1.5703
 5012TIP3    H236672   4.347   3.282   1.305  0.2127  1.1930  1.1985
 5013TIP3   OH236673   6.611   5.449   0.018 -0.0089 -0.3692  0.6240
 5013TIP3    H136674   6.665   5.370   0.009  0.5640 -0.0182  0.9351
 5013TIP3    H236675   6.536   5.420   0.070 -0.4216 -0.9979 -0.3000
 5014TIP3   OH236676   2.796   5.589   1.471  0.2898  0.0008  0.0775
 5014TIP3    H136677   2.880   5.574   1.514  0.4888 -0.8699 -0.6059
 5014TIP3    H236678   2.750   5.649   1.530 -0.6536 -3.3739  3.1049
 5015TIP3   OH236679   2.309   3.179   1.371  0.3842  0.2362 -0.3089
 5015TIP3    H136680   2.252   3.135   1.308 -1.2481  4.0103 -1.7329
 5015TIP3    H236681   2.250   3.210   1.439  1.3526  0.8702  0.2594
 5016TIP3   OH236682   2.976   2.886   0.481 -0.0998  0.1188  0.1870
 5016TIP3    H136683   2.947   2.796   0.499  0.3236 -0.0540  0.0308
 5016TIP3    H236684   2.903   2.925   0.432 -0.2264 -0.1902  0.1246
 5017TIP3   OH236685   4.458   2.198   7.610 -0.1446  0.2617  0.1925
 5017TIP3    H136686   4.498   2.151   7.683 -0.9127  0.8634  1.0234
 5017TIP3    H236687   4.450   2.133   7.541 -0.8708 -0.7600  1.2015
 5018TIP3   OH236688   1.093   3.251   7.656 -0.1835  0.1829  0.0765
 5018TIP3    H136689   1.019   3.274   7.600  1.3497  2.6764 -1.0436
 5018TIP3    H236690   1.098   3.155   7.651 -1.0210  0.2188 -2.8712
 5019TIP3   OH236691   0.889   2.121   7.842 -0.4099  0.2121 -0.6454
 5019TIP3    H136692   0.817   2.068   7.808 -0.5840  1.4207 -2.3065
 5019TIP3    H236693   0.871   2.209   7.808  0.0474  1.2743  1.7190
 5020TIP3   OH236694   5.637   5.867   0.312  0.0409 -0.4572 -0.1037
 5020TIP3    H136695   5.708   5.892   0.372 -0.1180 -0.2911  0.0180
 5020TIP3    H236696   5.571   5.935   0.324 -1.4999 -2.2316  2.0500
 5021TIP3   OH236697   4.245   3.320   2.100  0.3522 -0.0603  0.6784
 5021TIP3    H136698   4.151   3.309   2.084  0.1476  1.5102  0.6162
 5021TIP3    H236699   4.282   3.336   2.013  0.7344 -0.8804  0.6757
 5022TIP3   OH236700   1.189   0.666   7.835 -0.1118 -0.6689  0.4323
 5022TIP3    H136701   1.270   0.618   7.846  0.0165 -0.5286  0.1284
 5022TIP3    H236702   1.120   0.602   7.856  0.0296 -1.2037 -0.6477
 5023TIP3   OH236703   3.139   0.809   6.885  0.2983 -0.4598 -0.0808
 5023TIP3    H136704   3.175   0.723   6.906  1.5088  0.1907  0.6780
 5023TIP3    H236705   3.216   0.866   6.879 -0.5575  0.9456  1.3101
 5024TIP3   OH236706   6.524   3.950   8.801  0.2231  0.1230 -0.3134
 5024TIP3    H136707   6.482   3.886   8.858 -0.1208 -0.2190 -0.9460
 5024TIP3    H236708   6.553   4.019   8.860  1.3621 -0.9959  0.5085
 5025TIP3   OH236709   6.035   5.041   7.717  0.3911  0.6295 -0.0373
 5025TIP3    H136710   5.953   5.077   7.751  0.5307  0.2085  0.7789
 5025TIP3    H236711   6.096   5.115   7.716  0.1022  0.8660 -0.3230
 5026TIP3   OH236712   5.126   5.954   1.441 -0.4613 -0.3279  0.1234
 5026TIP3    H136713   5.060   5.885   1.452 -0.9128 -0.1359 -1.1625
 5026TIP3    H236714   5.076   6.036   1.445  0.3090  0.1159  3.5762
 5027TIP3   OH236715   4.092   3.798   1.279  0.0205 -0.2568  0.2877
 5027TIP3    H136716   4.004   3.831   1.300 -0.1597 -1.3397  1.2816
 5027TIP3    H236717   4.138   3.875   1.244 -0.7689  0.7493  1.3875
 5028TIP3   OH236718   1.895   4.275   1.891  0.7520  0.0864  0.1163
 5028TIP3    H136719   1.819   4.250   1.945 -1.9452  2.8562 -2.0593
 5028TIP3    H236720   1.918   4.363   1.922  1.2920  0.3781 -1.0793
 5029TIP3   OH236721   0.728   3.749   0.066 -0.1755  0.5407  0.0647
 5029TIP3    H136722   0.805   3.694   0.078 -1.1214 -0.6647  0.9341
 5029TIP3    H236723   0.678   3.737   0.147 -2.3232 -0.4529 -1.3245
 5030TIP3   OH236724   5.662   4.021   8.312 -0.1216  0.6446 -0.0423
 5030TIP3    H136725   5.571   4.000   8.332  0.1066 -0.3508  0.0086
 5030TIP3    H236726   5.689   4.078   8.384 -0.0172 -0.9873  1.2826
 5031TIP3   OH236727   5.433   3.510   7.486  0.3789 -0.6021 -0.0835
 5031TIP3    H136728   5.512   3.476   7.443  1.1805 -0.1171  0.9756
 5031TIP3    H236729   5.445   3.605   7.487  0.3940 -0.6027  1.2169
 5032TIP3   OH236730   6.197   1.158   0.227  0.0317 -0.9492  0.2762
 5032TIP3    H136731   6.292   1.172   0.225  0.0002 -0.6419 -2.0907
 5032TIP3    H236732   6.161   1.244   0.247  0.2270 -0.7157 -0.3437
 5033TIP3   OH236733   4.403   6.694   1.044  0.6215  0.0946  0.3776
 5033TIP3    H136734   4.383   6.778   1.002  3.3529  0.6134 -0.1157
 5033TIP3    H236735   4.366   6.628   0.986 -2.5285  0.8894  1.3141
 5034TIP3   OH236736   3.284   6.655   8.478 -0.1609 -0.1651  0.1387
 5034TIP3    H136737   3.369   6.694   8.497 -0.4596 -0.2532  1.7824
 5034TIP3    H236738   3.221   6.727   8.489 -0.1629  0.7815 -4.1286
 5035TIP3   OH236739   4.779   4.915   7.266 -0.0764 -0.0134 -0.9870
 5035TIP3    H136740   4.716   4.987   7.253  0.8670  0.9541 -0.4015
 5035TIP3    H236741   4.766   4.858   7.191 -0.2445  1.2500 -1.9561
 5036TIP3   OH236742   4.850   3.503   1.133  0.1531 -0.1962  0.6316
 5036TIP3    H136743   4.924   3.447   1.154  0.7335  0.5851  0.6963
 5036TIP3    H236744   4.774   3.457   1.169  0.5852 -1.0507  0.4762
 5037TIP3   OH236745   5.654   0.217   6.852 -0.5128  0.3477 -0.5053
 5037TIP3    H136746   5.637   0.273   6.776 -2.3952  0.4743 -0.0394
 5037TIP3    H236747   5.745   0.236   6.875 -0.8989  2.8191 -0.6973
 5038TIP3   OH236748   4.292   4.622   2.085  0.0180  0.6144  0.6622
 5038TIP3    H136749   4.303   4.539   2.131 -2.9382 -0.3942 -0.1854
 5038TIP3    H236750   4.328   4.688   2.145 -1.8062 -0.8250  3.6104
 5039TIP3   OH236751   3.550   4.340   1.484  0.2675 -0.2912  0.3469
 5039TIP3    H136752   3.562   4.434   1.472  2.6309 -0.6036 -0.1709
 5039TIP3    H236753   3.544   4.329   1.579  0.2363  0.3510  0.4244
 5040TIP3   OH236754   3.103   1.011   1.192 -0.0924  0.1862 -0.4129
 5040TIP3    H136755   3.131   0.928   1.154 -0.6730 -1.0167  1.6329
 5040TIP3    H236756   3.013   0.995   1.222  0.3725  0.9355  1.5757
 5041TIP3   OH236757   4.777   3.816   8.208 -0.3715 -0.5788  0.6549
 5041TIP3    H136758   4.701   3.858   8.247  0.9860  1.1607  1.5538
 5041TIP3    H236759   4.841   3.886   8.197  1.2799 -2.0526  0.3577
 5042TIP3   OH236760   0.714   4.247   1.944 -0.2363  0.2460  0.5561
 5042TIP3    H136761   0.726   4.206   2.029  0.1347  0.5095  0.6324
 5042TIP3    H236762   0.619   4.258   1.935 -0.3329 -0.5560  0.5663
 5043TIP3   OH236763   6.351   3.396   0.189  0.9872 -0.1735 -0.1265
 5043TIP3    H136764   6.277   3.398   0.248 -1.1377 -0.2891 -2.6059
 5043TIP3    H236765   6.379   3.304   0.188 -2.9208 -1.6716 -3.5924
 5044TIP3   OH236766   4.975   1.031   1.977  0.6740  0.9452  0.2270
 5044TIP3    H136767   4.928   0.992   2.051 -0.5286  2.3859  0.2607
 5044TIP3    H236768   5.062   1.051   2.012 -0.6782  4.1594  2.2333
 5045TIP3   OH236769   2.583   2.365   0.547 -0.1217 -0.1790 -0.1941
 5045TIP3    H136770   2.602   2.347   0.455 -0.7332  0.3008 -0.4200
 5045TIP3    H236771   2.599   2.459   0.557  2.7928 -0.6787  0.9118
 5046TIP3   OH236772   5.473   1.610   0.696  0.5409 -0.4800 -0.9189
 5046TIP3    H136773   5.433   1.556   0.629 -1.3862  1.4871 -1.4698
 5046TIP3    H236774   5.485   1.695   0.654  1.9593  0.0158  0.3909
 5047TIP3   OH236775   1.906   2.349   0.724 -0.0993 -0.2799  0.3308
 5047TIP3    H136776   1.811   2.365   0.727 -0.0736 -0.2637  1.6759
 5047TIP3    H236777   1.935   2.361   0.815  1.2135 -0.1898 -0.0851
 5048TIP3   OH236778   5.528   5.108   8.541 -0.1649 -0.2312 -0.2565
 5048TIP3    H136779   5.602   5.166   8.556  0.2591 -0.9966  0.7546
 5048TIP3    H236780   5.535   5.042   8.609  0.0420 -2.1591 -2.0488
 5049TIP3   OH236781   4.135   6.667   8.716  0.1642 -0.2740 -1.1034
 5049TIP3    H136782   4.074   6.649   8.644  1.0454  1.7061 -2.4555
 5049TIP3    H236783   4.168   6.755   8.697 -0.3106  0.7792  2.3012
 5050TIP3   OH236784   6.330   3.052   0.503  0.4568  0.2028  0.5986
 5050TIP3    H136785   6.285   3.034   0.420  1.7050 -0.8859  0.1091
 5050TIP3    H236786   6.381   2.973   0.520  0.1892  0.3878  2.4602
 5051TIP3   OH236787   0.482   1.724   8.031 -0.3723 -0.3707  0.2447
 5051TIP3    H136788   0.561   1.710   8.085  1.7820  2.8582 -1.6798
 5051TIP3    H236789   0.433   1.791   8.079 -1.7518 -1.9749  1.1580
 5052TIP3   OH236790   5.061   3.734   7.982 -0.0675 -0.1057  0.4022
 5052TIP3    H136791   5.120   3.807   7.965  1.5827 -1.6998 -0.9974
 5052TIP3    H236792   5.075   3.712   8.074  1.8627 -0.7263 -0.0159
 5053TIP3   OH236793   5.290   6.447   7.463 -0.8397  0.3662 -0.0375
 5053TIP3    H136794   5.300   6.502   7.385 -0.8361  0.9071  0.3375
 5053TIP3    H236795   5.335   6.365   7.440 -2.3590 -0.1691 -1.2575
 5054TIP3   OH236796   2.123   1.770   2.535  0.0004 -0.0028  0.5646
 5054TIP3    H136797   2.101   1.863   2.543 -1.5820  0.0686 -3.0030
 5054TIP3    H236798   2.038   1.726   2.530  0.7480 -1.6064  1.3604
 5055TIP3   OH236799   1.278   6.054   1.612  0.9511  0.4625  0.4501
 5055TIP3    H136800   1.234   5.998   1.677  1.2740  0.7143  0.8920
 5055TIP3    H236801   1.314   6.127   1.663  1.1965  0.6722 -0.0139
 5056TIP3   OH236802   4.719   2.581   7.384  0.3461  0.0611  0.1236
 5056TIP3    H136803   4.640   2.537   7.417  2.0399 -2.7823  0.7097
 5056TIP3    H236804   4.686   2.638   7.314 -2.1470 -1.7823 -0.3761
 5057TIP3   OH236805   1.379   2.929   7.626  0.2175 -0.0575  0.1814
 5057TIP3    H136806   1.404   3.000   7.686  1.3711 -1.2158  1.1363
 5057TIP3    H236807   1.433   2.855   7.653  0.3508 -0.7998 -1.9504
 5058TIP3   OH236808   3.839   1.603   8.015  0.0239 -0.5566 -0.0639
 5058TIP3    H136809   3.887   1.534   8.060  0.9023 -0.5750 -0.9754
 5058TIP3    H236810   3.757   1.562   7.987 -1.5982  0.0406  3.3677
 5059TIP3   OH236811   3.433   3.638   7.620 -0.3152  0.1471 -0.0650
 5059TIP3    H136812   3.373   3.661   7.549 -1.5899 -1.5282  0.3971
 5059TIP3    H236813   3.505   3.593   7.576 -0.6717 -0.1071 -0.4015
 5060TIP3   OH236814   3.003   6.332   8.125 -0.4217 -0.1979 -0.0385
 5060TIP3    H136815   2.993   6.408   8.182  1.0189 -1.9758  2.8019
 5060TIP3    H236816   3.021   6.369   8.039  0.6947  2.6980  1.2984
 5061TIP3   OH236817   5.594   6.493   0.433  0.6238 -0.1719 -1.0790
 5061TIP3    H136818   5.518   6.541   0.400 -1.5097 -3.2884 -1.0333
 5061TIP3    H236819   5.637   6.461   0.353  0.4978 -0.4277 -1.0437
 5062TIP3   OH236820   6.128   3.099   2.263  0.4012  0.6280 -0.1299
 5062TIP3    H136821   6.187   3.161   2.222  0.3172  0.9754  0.2685
 5062TIP3    H236822   6.176   3.016   2.264  0.7019  0.8021 -0.2168
 5063TIP3   OH236823   2.275   0.728   1.384 -0.0629  0.8667  0.6420
 5063TIP3    H136824   2.349   0.732   1.444 -0.1135  2.2222  0.6518
 5063TIP3    H236825   2.284   0.806   1.329  0.2983 -0.5940 -1.5107
 5064TIP3   OH236826   6.035   3.748   0.181 -0.6656  0.3322  0.3365
 5064TIP3    H136827   5.998   3.664   0.153  1.7435 -0.7525  0.1411
 5064TIP3    H236828   6.013   3.754   0.274 -0.7128 -0.6243  0.4008
 5065TIP3   OH236829   0.469   3.309   0.220 -0.3755  0.8356 -0.5432
 5065TIP3    H136830   0.537   3.319   0.286 -0.6961  0.6444 -0.1746
 5065TIP3    H236831   0.393   3.356   0.256 -0.7732  0.1295 -0.4403
 5066TIP3   OH236832   4.910   2.093   1.698 -0.2402  0.3303  0.1465
 5066TIP3    H136833   4.825   2.137   1.701 -2.2334 -3.0997 -0.7334
 5066TIP3    H236834   4.950   2.123   1.616 -2.1143 -0.4581 -1.1027
 5067TIP3   OH236835   6.081   1.511   7.394  0.7128 -0.8052  0.5225
 5067TIP3    H136836   6.022   1.534   7.322  2.9557 -2.0209 -1.8737
 5067TIP3    H236837   6.108   1.421   7.375  2.7693 -0.5398  1.8749
 5068TIP3   OH236838   5.099   5.311   0.045 -0.2015 -0.1696  0.0521
 5068TIP3    H136839   5.178   5.289   0.095 -0.9029 -0.7187  0.9637
 5068TIP3    H236840   5.028   5.308   0.110 -0.9303  0.6046 -0.6844
 5069TIP3   OH236841   3.625   2.945   0.214 -0.0769  0.2088 -0.0389
 5069TIP3    H136842   3.663   2.859   0.195  0.9952  0.8931 -1.1432
 5069TIP3    H236843   3.657   3.001   0.144 -0.2046  1.6784  1.0349
 5070TIP3   OH236844   4.922   3.637   7.320 -0.5479  0.3507 -0.2261
 5070TIP3    H136845   4.853   3.698   7.295 -1.0386 -0.0174  0.2200
 5070TIP3    H236846   4.930   3.648   7.415 -1.0957 -0.7423 -0.0367
 5071TIP3   OH236847   6.776   1.647   7.635 -0.4996  0.2961  0.5018
 5071TIP3    H136848   6.691   1.678   7.665 -1.7862 -2.1025 -0.4048
 5071TIP3    H236849   6.808   1.715   7.576 -0.7407  2.2094  2.4516
 5072TIP3   OH236850   2.315   6.198   8.164  0.2853 -0.1513  0.4694
 5072TIP3    H136851   2.267   6.203   8.081  2.0139 -0.1575 -0.5621
 5072TIP3    H236852   2.247   6.179   8.229 -1.5016  2.1073 -0.5581
 5073TIP3   OH236853   4.947   1.961   7.755  0.4888  0.2984 -0.0605
 5073TIP3    H136854   4.901   2.013   7.821  0.3817 -0.7930  0.7503
 5073TIP3    H236855   5.037   1.993   7.757  0.2251  1.0720 -0.2361
 5074TIP3   OH236856   4.777   0.321   1.701 -0.5346 -0.3188 -0.0735
 5074TIP3    H136857   4.804   0.244   1.751 -0.0779 -0.1679 -0.0886
 5074TIP3    H236858   4.733   0.284   1.624  2.9388 -0.7522 -2.0581
 5075TIP3   OH236859   5.786   2.117   1.633 -0.2864  0.6682 -0.7172
 5075TIP3    H136860   5.747   2.154   1.712 -0.6569 -0.9758 -0.0966
 5075TIP3    H236861   5.859   2.176   1.612 -0.8591  1.7283  0.2144
 5076TIP3   OH236862   5.502   2.819   6.532  0.2893 -0.2677  0.5589
 5076TIP3    H136863   5.535   2.784   6.615  2.2453  0.0853 -0.0363
 5076TIP3    H236864   5.452   2.746   6.494  1.1365 -1.1506  1.0871
 5077TIP3   OH236865   3.284   5.389   7.276  0.1010  0.0604  0.0740
 5077TIP3    H136866   3.328   5.441   7.209 -0.4986  0.2776 -0.1630
 5077TIP3    H236867   3.243   5.455   7.334  0.7029 -0.1214  0.7176
 5078TIP3   OH236868   4.858   2.791   8.266  0.0071 -0.4737 -0.1269
 5078TIP3    H136869   4.883   2.871   8.313 -1.0068 -0.1143 -0.1601
 5078TIP3    H236870   4.889   2.805   8.177  0.4186 -0.4033  0.0258
 5079TIP3   OH236871   1.827   2.464   8.105  0.0818  0.3149 -0.2706
 5079TIP3    H136872   1.901   2.487   8.048 -0.4643  3.0437  0.0067
 5079TIP3    H236873   1.782   2.547   8.120 -2.4154 -1.0904  0.4898
 5080TIP3   OH236874   1.138   3.556   1.467  0.3582  0.1854 -0.0966
 5080TIP3    H136875   1.172   3.597   1.388 -0.7203  1.4925  0.0710
 5080TIP3    H236876   1.182   3.603   1.539 -1.4549  1.6885  0.1151
 5081TIP3   OH236877   4.147   0.493   8.360  0.2940 -0.2266  0.4924
 5081TIP3    H136878   4.096   0.569   8.332  0.7702 -0.3592 -0.8278
 5081TIP3    H236879   4.082   0.431   8.393 -0.3355 -0.1197 -0.5103
 5082TIP3   OH236880   6.614   2.219   2.305  0.2597 -0.4317  0.2494
 5082TIP3    H136881   6.526   2.192   2.332  0.5621 -0.7599  0.9079
 5082TIP3    H236882   6.620   2.190   2.214 -0.0678 -1.0182  0.4057
 5083TIP3   OH236883   5.813   0.422   2.153  0.2866  0.1086 -0.0721
 5083TIP3    H136884   5.789   0.446   2.242 -0.8766 -0.1515 -0.2933
 5083TIP3    H236885   5.814   0.504   2.104 -0.3346  0.1075 -0.0910
 5084TIP3   OH236886   4.321   2.427   8.355  0.0558  0.3638 -0.2867
 5084TIP3    H136887   4.401   2.464   8.319 -1.5802  2.0729 -2.4361
 5084TIP3    H236888   4.294   2.361   8.292 -0.2395 -0.2142  0.4280
 5085TIP3   OH236889   1.132   0.415   1.633  0.1108  0.1591  0.1554
 5085TIP3    H136890   1.200   0.371   1.683 -0.7798 -0.6782  0.6770
 5085TIP3    H236891   1.129   0.369   1.549 -2.0396 -2.1269  1.3366
 5086TIP3   OH236892   2.542   4.115   1.628  0.2719 -0.1940  0.0677
 5086TIP3    H136893   2.557   4.208   1.610 -0.7140  0.4154  2.0871
 5086TIP3    H236894   2.600   4.095   1.701  0.5463 -1.2273 -0.4073
 5087TIP3   OH236895   1.110   3.201   0.956  0.0593 -0.4192  0.6207
 5087TIP3    H136896   1.133   3.117   0.996 -0.3816  0.0090  1.8286
 5087TIP3    H236897   1.048   3.179   0.887 -2.0913 -0.9331  2.5881
 5088TIP3   OH236898   4.451   6.632   8.769  0.0470  0.0799 -0.3152
 5088TIP3    H136899   4.409   6.711   8.736 -1.7684 -0.0710  1.4226
 5088TIP3    H236900   4.389   6.562   8.747 -0.0981 -0.3251  1.2522
 5089TIP3   OH236901   1.209   1.739   7.556  0.9443 -0.5639 -0.1516
 5089TIP3    H136902   1.171   1.661   7.597 -2.0146  0.4155 -0.8051
 5089TIP3    H236903   1.201   1.807   7.622  2.3156 -0.4744 -0.0540
 5090TIP3   OH236904   4.626   3.281   1.849 -0.3112  0.5055  0.3608
 5090TIP3    H136905   4.644   3.194   1.883  0.0556  0.5775  0.3536
 5090TIP3    H236906   4.565   3.267   1.777  0.8708  0.1122 -0.5913
 5091TIP3   OH236907   2.804   1.516   6.606 -0.3465 -0.4617 -0.1612
 5091TIP3    H136908   2.757   1.517   6.523 -0.7339  0.4989  0.0470
 5091TIP3    H236909   2.840   1.605   6.613  0.6176 -0.8739  0.1755
 5092TIP3   OH236910   2.031   6.585   1.809  0.2138  0.5102  0.7689
 5092TIP3    H136911   1.989   6.633   1.737 -0.7707  0.0333  1.0020
 5092TIP3    H236912   2.077   6.513   1.767  0.5189  0.8416  0.5323
 5093TIP3   OH236913   3.200   1.524   1.771  0.1953  0.1362 -0.8789
 5093TIP3    H136914   3.148   1.550   1.695 -0.0519 -1.3388 -1.2334
 5093TIP3    H236915   3.135   1.506   1.839  0.3124 -0.4347 -0.9193
 5094TIP3   OH236916   3.572   0.615   7.788  0.0927 -0.2289  0.1522
 5094TIP3    H136917   3.512   0.669   7.737 -0.1016  0.7560  1.3589
 5094TIP3    H236918   3.588   0.666   7.868  1.9140 -0.8373  0.2195
 5095TIP3   OH236919   3.093   5.259   8.295 -0.2499 -0.4298  0.0463
 5095TIP3    H136920   3.172   5.205   8.300  0.2055  0.3272  2.4239
 5095TIP3    H236921   3.080   5.290   8.385 -1.7028  1.6715 -0.8090
 5096TIP3   OH236922   2.743   3.026   8.321  0.0954 -0.0956  0.5244
 5096TIP3    H136923   2.679   2.962   8.288  0.6521  0.0545 -0.8840
 5096TIP3    H236924   2.775   3.071   8.243  0.3930  1.2913  1.4114
 5097TIP3   OH236925   6.192   0.968   7.773  0.7575 -0.0327  0.5327
 5097TIP3    H136926   6.217   1.040   7.831  1.2182  0.5461 -0.3619
 5097TIP3    H236927   6.115   0.929   7.814 -0.5413  2.0361  0.2010
 5098TIP3   OH236928   3.839   2.187   1.157  0.0374  0.4195 -0.3532
 5098TIP3    H136929   3.778   2.199   1.085 -0.3796 -1.8198 -0.4502
 5098TIP3    H236930   3.784   2.189   1.235  0.1777  0.7226 -0.2621
 5099TIP3   OH236931   2.521   3.938   0.874 -0.3705 -0.8336 -0.1544
 5099TIP3    H136932   2.546   3.989   0.951 -1.4617 -1.7852  0.8995
 5099TIP3    H236933   2.582   3.864   0.873  0.7008  0.0432 -1.2064
 5100TIP3   OH236934   0.647   6.365   8.821  0.2230 -0.2172 -0.2165
 5100TIP3    H136935   0.721   6.390   8.876 -0.2894 -0.0360  0.3997
 5100TIP3    H236936   0.673   6.280   8.784  0.8382 -0.0390 -0.2034
 5101TIP3   OH236937   2.457   2.702   6.980 -0.2239 -0.4893  0.4936
 5101TIP3    H136938   2.491   2.790   6.996  1.4475 -0.9675 -0.2605
 5101TIP3    H236939   2.372   2.717   6.940  0.0160  0.7863  0.3959
 5102TIP3   OH236940   6.463   0.570   2.355 -0.5177  0.2238 -0.7178
 5102TIP3    H136941   6.454   0.647   2.298  2.3298  1.0184 -0.2602
 5102TIP3    H236942   6.457   0.605   2.444 -0.5053 -0.2930 -0.5134
 5103TIP3   OH236943   0.682   2.358   7.545 -0.6018 -0.0975 -0.5713
 5103TIP3    H136944   0.679   2.436   7.490  0.9644 -0.1913 -0.8437
 5103TIP3    H236945   0.734   2.384   7.621 -0.7597 -0.6356 -0.2760
 5104TIP3   OH236946   2.244   1.285   7.616  0.5714 -0.2140  0.3090
 5104TIP3    H136947   2.315   1.270   7.554  0.6607  0.7183  0.1666
 5104TIP3    H236948   2.221   1.198   7.648  2.4777 -0.4754  1.1361
 5105TIP3   OH236949   5.465   5.134   8.278  0.0842 -0.7004 -0.2005
 5105TIP3    H136950   5.505   5.124   8.365 -0.8859 -0.4501  0.2867
 5105TIP3    H236951   5.410   5.056   8.268 -0.9298 -0.0276  0.0312
 5106TIP3   OH236952   5.206   0.430   7.865  0.3308  0.6880 -0.7397
 5106TIP3    H136953   5.299   0.424   7.842  0.3027 -0.1928 -0.6576
 5106TIP3    H236954   5.164   0.463   7.786  0.1569 -2.8078 -2.2897
 5107TIP3   OH236955   2.415   6.199   2.168  0.2366  0.2056  0.1466
 5107TIP3    H136956   2.385   6.289   2.158  1.2323  0.5392  0.0170
 5107TIP3    H236957   2.345   6.146   2.132 -0.6229  0.8989  0.7632
 5108TIP3   OH236958   2.930   0.749   6.449 -0.7246 -0.2910 -0.0794
 5108TIP3    H136959   2.954   0.674   6.503 -1.9505 -0.3770  0.3883
 5108TIP3    H236960   2.851   0.720   6.402  0.5156 -0.3611 -2.2340
 5109TIP3   OH236961   2.236   5.581   6.363  0.3374 -0.0028 -0.2000
 5109TIP3    H136962   2.256   5.502   6.314  0.0990 -0.9335  1.1651
 5109TIP3    H236963   2.143   5.596   6.348  0.1244 -0.6361  0.4281
 5110TIP3   OH236964   6.540   4.968   2.164  0.3354 -0.4126  0.0290
 5110TIP3    H136965   6.580   4.901   2.220  0.4129 -1.2110 -0.9452
 5110TIP3    H236966   6.525   5.042   2.222 -0.4095 -1.5237  1.3202
 5111TIP3   OH236967   5.614   0.738   0.909 -0.9001 -0.1839 -0.3815
 5111TIP3    H136968   5.698   0.702   0.937 -1.8079 -0.9638  1.5056
 5111TIP3    H236969   5.575   0.670   0.854 -0.0504  0.4537 -1.8220
 5112TIP3   OH236970   3.860   5.963   6.710  0.0361  0.2589 -0.4338
 5112TIP3    H136971   3.867   5.997   6.800 -1.1942 -1.2858  0.2939
 5112TIP3    H236972   3.899   5.876   6.714 -0.1411  0.1251 -1.3678
 5113TIP3   OH236973   5.112   0.367   8.554  0.2139  0.3455 -0.5109
 5113TIP3    H136974   5.091   0.274   8.543 -1.4809  0.5551  0.5511
 5113TIP3    H236975   5.046   0.412   8.501  1.4507  0.9574 -1.5780
 5114TIP3   OH236976   5.523   4.819   0.789 -0.4000  0.5600 -0.1761
 5114TIP3    H136977   5.545   4.751   0.852 -1.5559  1.8629  1.7568
 5114TIP3    H236978   5.574   4.798   0.711  0.5392 -1.5336  0.9365
 5115TIP3   OH236979   4.732   1.850   2.658 -0.3382  0.3232  0.1204
 5115TIP3    H136980   4.762   1.759   2.655 -1.1898 -0.0108  0.9573
 5115TIP3    H236981   4.683   1.862   2.577 -0.5916 -0.1154  0.2033
 5116TIP3   OH236982   3.081   1.197   6.962 -0.4229  0.6943  0.0640
 5116TIP3    H136983   3.023   1.210   7.037 -0.8508  1.5000 -0.3897
 5116TIP3    H236984   3.061   1.270   6.904 -0.5109 -0.2388 -1.1047
 5117TIP3   OH236985   1.216   1.216   7.054 -0.0556  0.0888 -0.2693
 5117TIP3    H136986   1.275   1.289   7.039 -0.2556  0.3827  0.3519
 5117TIP3    H236987   1.134   1.242   7.012 -0.1918  0.3172  0.1325
 5118TIP3   OH236988   2.729   3.660   8.243  0.2787 -0.1077 -0.4157
 5118TIP3    H136989   2.650   3.714   8.240 -0.3288 -0.9169  0.3340
 5118TIP3    H236990   2.717   3.596   8.173 -0.1454 -0.7554  0.2313
 5119TIP3   OH236991   1.026   5.660   0.357  0.2668  0.0962  0.5143
 5119TIP3    H136992   1.026   5.756   0.365 -0.5070  0.0309  1.4675
 5119TIP3    H236993   0.937   5.634   0.380 -0.0507 -0.7356 -1.4766
 5120TIP3   OH236994   2.838   6.592   1.347 -0.2554  0.0457 -0.1201
 5120TIP3    H136995   2.854   6.499   1.362 -0.2266  0.1957  0.8990
 5120TIP3    H236996   2.748   6.605   1.377  0.4204  0.7320  1.7532
 5121TIP3   OH236997   0.071   2.131   2.292 -0.4367  0.0101 -0.2678
 5121TIP3    H136998   0.039   2.195   2.355 -2.4691 -0.2662 -0.9553
 5121TIP3    H236999   0.131   2.180   2.237  0.3168  0.5831  1.0152
 5122TIP3   OH237000   2.824   6.142   8.806 -0.1502  0.0087 -0.1667
 5122TIP3    H137001   2.740   6.149   8.851  1.0770 -0.0106  2.2883
 5122TIP3    H237002   2.812   6.192   8.725 -2.0374  1.3617  0.8779
 5123TIP3   OH237003   5.355   0.422   0.564 -0.3941 -0.2315 -0.1448
 5123TIP3    H137004   5.278   0.389   0.609  0.2597 -1.1196  0.3676
 5123TIP3    H237005   5.372   0.358   0.495  0.0160 -0.1808 -0.0938
 5124TIP3   OH237006   6.709   6.472   2.099  0.5036 -0.0083 -0.1416
 5124TIP3    H137007   6.740   6.469   2.190  1.4304 -1.5631 -0.4832
 5124TIP3    H237008   6.619   6.440   2.104  0.7073 -0.5552  0.1783
 5125TIP3   OH237009   5.901   5.719   1.214  0.4401 -1.1220 -0.0484
 5125TIP3    H137010   5.840   5.756   1.278  1.5492 -0.0870  0.4506
 5125TIP3    H237011   5.856   5.729   1.130  0.2732  0.4706  0.1986
 5126TIP3   OH237012   4.849   0.964   1.280  0.1782  0.2079 -0.0988
 5126TIP3    H137013   4.760   1.000   1.279  0.2539  0.3899 -0.2889
 5126TIP3    H237014   4.885   0.990   1.365 -0.0071 -0.0036  0.0444
 5127TIP3   OH237015   5.887   3.513   0.490  0.6918  0.5166  0.6289
 5127TIP3    H137016   5.825   3.468   0.433 -0.0826 -1.6548  2.9739
 5127TIP3    H237017   5.905   3.596   0.446 -1.6310 -0.0119 -1.5438
 5128TIP3   OH237018   0.007   2.699   7.748 -0.1610 -0.7584  0.2303
 5128TIP3    H137019   0.090   2.728   7.785 -0.2255  0.8356 -0.7440
 5128TIP3    H237020  -0.060   2.748   7.797 -0.3642 -0.2949 -0.4814
 5129TIP3   OH237021   2.454   0.821   0.848  0.9103 -0.1109  0.2640
 5129TIP3    H137022   2.504   0.816   0.929  0.1185  1.4075  0.8884
 5129TIP3    H237023   2.371   0.776   0.868  0.8465 -0.0288  0.1856
 5130TIP3   OH237024   5.576   5.735   8.292 -0.4022  0.0309 -0.5081
 5130TIP3    H137025   5.548   5.647   8.320  0.3313 -0.3747 -1.0160
 5130TIP3    H237026   5.552   5.792   8.365 -0.2349 -0.7057  0.1376
 5131TIP3   OH237027   6.548   6.162   1.024 -0.3108  0.5234  0.5098
 5131TIP3    H137028   6.462   6.132   1.055  0.4926 -0.2425  2.1507
 5131TIP3    H237029   6.580   6.091   0.968 -0.4710  0.4981  0.4516
 5132TIP3   OH237030   3.318   4.513   1.726  0.0431 -0.5134 -0.0966
 5132TIP3    H137031   3.290   4.552   1.809  0.7794 -1.7758  0.7928
 5132TIP3    H237032   3.413   4.526   1.725 -0.0314  0.0094 -1.0383
 5133TIP3   OH237033   5.483   1.779   8.794  0.5590 -0.1654  0.1258
 5133TIP3    H137034   5.520   1.695   8.825  0.0268 -0.5157 -0.1825
 5133TIP3    H237035   5.518   1.789   8.706  1.2179  0.3109  0.4299
 5134TIP3   OH237036   4.976   4.188   0.415 -0.7704 -0.9885  0.1550
 5134TIP3    H137037   4.925   4.183   0.334 -2.1801  0.1145  0.9395
 5134TIP3    H237038   4.975   4.281   0.439  2.7772 -0.6192 -0.4801
 5135TIP3   OH237039   2.556   2.642   8.519  1.0622 -0.1767  0.0965
 5135TIP3    H137040   2.574   2.679   8.432  3.8297 -0.1394  0.6026
 5135TIP3    H237041   2.609   2.563   8.523  0.1665 -0.7367  1.3950
 5136TIP3   OH237042   4.005   3.477   2.637  0.5159 -0.3859  0.0125
 5136TIP3    H137043   4.088   3.504   2.678  0.1870  0.5691  0.0618
 5136TIP3    H237044   4.031   3.408   2.576  1.4394  0.2607 -0.3625
 5137TIP3   OH237045   0.472   3.896   8.532  0.1163 -0.2184  0.4541
 5137TIP3    H137046   0.540   3.961   8.549  0.4358 -0.2074 -0.7701
 5137TIP3    H237047   0.516   3.812   8.539  0.5465 -0.1909 -1.3363
 5138TIP3   OH237048   5.351   4.345   1.508  0.3460  0.0712  0.3814
 5138TIP3    H137049   5.422   4.314   1.563  0.1041 -0.1206  0.5884
 5138TIP3    H237050   5.321   4.267   1.460  0.6677  0.2683 -0.1499
 5139TIP3   OH237051   3.881   4.071   1.200  0.7017  0.4976  0.1491
 5139TIP3    H137052   3.856   4.014   1.272  0.9395  1.0853  0.7096
 5139TIP3    H237053   3.920   4.148   1.243  4.5030 -0.7845 -0.6339
 5140TIP3   OH237054   0.321   5.075   8.459 -0.1167 -0.3639 -0.2216
 5140TIP3    H137055   0.321   5.138   8.387 -0.4378 -0.1219 -0.0139
 5140TIP3    H237056   0.351   4.993   8.420  0.1603 -0.1180 -0.5257
 5141TIP3   OH237057   3.828   2.256   8.259 -0.1302  0.1932  0.4179
 5141TIP3    H137058   3.898   2.296   8.207 -1.1934  3.6681  1.4599
 5141TIP3    H237059   3.751   2.262   8.202 -0.2936 -0.5531  0.5532
 5142TIP3   OH237060   1.855   2.427   7.688 -0.7620  0.1138 -0.0368
 5142TIP3    H137061   1.816   2.341   7.708 -0.7798  0.3320  0.9110
 5142TIP3    H237062   1.780   2.482   7.665 -0.8771  0.1527  0.4079
 5143TIP3   OH237063   0.389   6.444   8.354  0.3409  0.2437 -0.4821
 5143TIP3    H137064   0.403   6.400   8.270 -1.6822 -0.1059 -0.6830
 5143TIP3    H237065   0.461   6.508   8.360  0.1757  0.7217 -2.7843
 5144TIP3   OH237066   3.473   2.036   1.699 -0.2899 -0.9971 -0.3200
 5144TIP3    H137067   3.428   2.085   1.768 -2.2672 -0.4546 -1.9016
 5144TIP3    H237068   3.430   1.951   1.698 -0.3116 -0.9863 -0.8860
 5145TIP3   OH237069   6.367   0.119   0.352 -0.4842  0.3108 -0.5582
 5145TIP3    H137070   6.364   0.102   0.446  1.2928  2.4536  0.0062
 5145TIP3    H237071   6.276   0.132   0.327 -1.1496 -1.8774  0.4786
 5146TIP3   OH237072   0.160   3.909   1.693 -0.3428  0.2475 -0.3578
 5146TIP3    H137073   0.090   3.844   1.700 -1.0194  0.9484 -0.4883
 5146TIP3    H237074   0.231   3.863   1.648 -0.6573 -0.5158 -0.0910
 5147TIP3   OH237075   6.434   4.436   1.356 -0.6739  0.6766  0.1107
 5147TIP3    H137076   6.419   4.442   1.262  1.5198 -0.2946 -0.3552
 5147TIP3    H237077   6.347   4.429   1.394 -1.5571 -0.2096 -1.9527
 5148TIP3   OH237078   0.978   0.076   7.924  0.1992 -0.2474  0.2968
 5148TIP3    H137079   0.938   0.153   7.883  0.4574 -0.5620 -0.5781
 5148TIP3    H237080   0.972   0.093   8.018 -1.9928 -0.2767  0.2184
 5149TIP3   OH237081   5.467   2.077   1.860  0.1462  0.1732  0.0454
 5149TIP3    H137082   5.494   2.162   1.823 -1.0871  0.3676 -0.4402
 5149TIP3    H237083   5.377   2.065   1.830 -0.8667  0.2198  2.7465
 5150TIP3   OH237084   4.273   3.539   2.706 -0.2579  0.2044  0.2815
 5150TIP3    H137085   4.257   3.463   2.649  0.2591  0.0463  0.3400
 5150TIP3    H237086   4.368   3.551   2.703 -0.3918  1.2429 -0.2312
 5151TIP3   OH237087   5.269   4.296   7.185 -0.1974  0.0847  0.0536
 5151TIP3    H137088   5.270   4.365   7.251 -1.4373 -0.3312  0.5347
 5151TIP3    H237089   5.294   4.341   7.103 -1.9467  1.3476  0.1458
 5152TIP3   OH237090   2.974   4.518   1.020  0.6687  0.2267 -0.2105
 5152TIP3    H137091   2.945   4.437   0.978  1.7717 -0.6720  0.6857
 5152TIP3    H237092   2.906   4.537   1.085  1.4201 -1.1923  1.0467
 5153TIP3   OH237093   0.555   2.891   8.159 -0.3383 -0.0816  0.0800
 5153TIP3    H137094   0.602   2.904   8.241  0.6525  1.3182 -0.6766
 5153TIP3    H237095   0.536   2.979   8.128 -3.2777 -0.5908  0.1990
 5154TIP3   OH237096   5.482   6.748   1.338 -0.1506  0.3624 -0.1681
 5154TIP3    H137097   5.503   6.777   1.426 -1.2971 -1.9196  0.9460
 5154TIP3    H237098   5.388   6.729   1.341  0.1431 -1.5290 -1.3041
 5155TIP3   OH237099   1.174   3.773   8.084  0.5816  0.1269  0.0227
 5155TIP3    H137100   1.184   3.717   8.006 -0.1945 -0.2664  0.1925
 5155TIP3    H237101   1.230   3.732   8.150  1.1378  0.3833 -0.2832
 5156TIP3   OH237102   2.173   5.101   7.482 -0.5997 -0.3088  0.3521
 5156TIP3    H137103   2.206   5.151   7.408 -0.7661  0.7880  0.9896
 5156TIP3    H237104   2.113   5.037   7.444 -0.4351  0.0268 -0.4811
 5157TIP3   OH237105   4.085   0.352   8.860  0.2944  0.0539  0.2816
 5157TIP3    H137106   4.087   0.382   8.951 -0.4846  1.0904 -0.0142
 5157TIP3    H237107   4.071   0.257   8.866 -0.4559  0.2102  1.2402
 5158TIP3   OH237108   4.081   4.696   7.378 -0.2188  0.0541  0.0809
 5158TIP3    H137109   4.157   4.651   7.341  1.5172  2.7193  0.1585
 5158TIP3    H237110   4.025   4.712   7.302 -0.1087 -0.7871 -0.1945
 5159TIP3   OH237111   6.795   0.159   1.664 -0.3867 -0.1480  0.0847
 5159TIP3    H137112   6.777   0.221   1.735 -2.8728 -2.5216  1.7401
 5159TIP3    H237113   6.862   0.101   1.700 -0.4953 -0.3974 -0.1117
 5160TIP3   OH237114   2.237   4.719   6.963 -0.1593 -0.0801 -0.1928
 5160TIP3    H137115   2.296   4.689   6.893 -0.1644 -0.3131 -0.0986
 5160TIP3    H237116   2.293   4.725   7.040 -0.0193  0.7795 -0.3566
 5161TIP3   OH237117   0.579   1.484   0.052  0.2882  0.2152  0.7440
 5161TIP3    H137118   0.567   1.393   0.024  0.5000  0.3912  0.0401
 5161TIP3    H237119   0.500   1.529   0.024  1.1346  0.7102 -1.0083
 5162TIP3   OH237120   2.664   6.607   0.267  0.2507  0.1675  0.5257
 5162TIP3    H137121   2.617   6.664   0.328 -1.3839  0.5208 -1.0025
 5162TIP3    H237122   2.596   6.554   0.227  1.1030  0.7885 -1.8795
 5163TIP3   OH237123   5.610   5.654   1.086 -0.0135  0.3047  0.0109
 5163TIP3    H137124   5.550   5.595   1.041  0.9045 -2.0107  1.5840
 5163TIP3    H237125   5.579   5.654   1.177  0.9079  1.0645  0.3356
 5164TIP3   OH237126   6.298   2.274   0.317 -0.0951 -0.3706 -0.9846
 5164TIP3    H137127   6.323   2.364   0.295 -0.7431  0.4378  1.2892
 5164TIP3    H237128   6.379   2.233   0.347 -0.3291  0.4728  0.9402
 5165TIP3   OH237129   1.128   5.162   0.070 -0.2387  0.9599 -0.1202
 5165TIP3    H137130   1.176   5.116   0.002 -0.6896 -1.1583  0.9060
 5165TIP3    H237131   1.088   5.237   0.025  2.5348  1.8188 -1.3434
 5166TIP3   OH237132   3.106   2.863   1.889 -0.9855 -0.0028 -0.3669
 5166TIP3    H137133   3.095   2.941   1.944  1.3654 -1.3691  2.3075
 5166TIP3    H237134   3.187   2.879   1.841 -1.2688 -0.2201 -0.9234
 5167TIP3   OH237135   0.636   3.073   0.608 -0.3003  0.0844  0.7919
 5167TIP3    H137136   0.697   3.046   0.678 -1.5963  0.6011  2.1765
 5167TIP3    H237137   0.668   3.027   0.530  0.8788 -0.9641  1.8313
 5168TIP3   OH237138   2.023   2.508   2.385  0.0413 -0.3975  0.1113
 5168TIP3    H137139   1.968   2.431   2.393 -1.9396  0.6209 -2.4795
 5168TIP3    H237140   1.999   2.563   2.460 -1.8059 -0.3805 -0.4697
 5169TIP3   OH237141   4.461   4.282   8.350  0.4321  0.6888  0.0281
 5169TIP3    H137142   4.488   4.369   8.380 -1.6932  1.1417  0.8860
 5169TIP3    H237143   4.437   4.236   8.430 -1.9825  0.6612 -0.6207
 5170TIP3   OH237144   5.073   5.791   0.494  0.7599  0.0640 -0.4735
 5170TIP3    H137145   5.096   5.707   0.533 -0.1360  0.1392  0.2505
 5170TIP3    H237146   5.126   5.855   0.540  1.4597 -0.0960 -1.0411
 5171TIP3   OH237147   0.120   6.232   2.433  0.2576 -0.4259 -0.1064
 5171TIP3    H137148   0.135   6.190   2.518 -0.9442 -1.2681 -0.2950
 5171TIP3    H237149   0.205   6.229   2.390  0.8347 -0.1848  0.9719
 5172TIP3   OH237150   2.201   0.757   2.454 -0.4000  0.0197  0.0275
 5172TIP3    H137151   2.266   0.737   2.521 -0.4532 -1.7850 -0.4239
 5172TIP3    H237152   2.194   0.853   2.456  0.7718  0.1132  1.4687
 5173TIP3   OH237153   4.806   1.716   8.217 -0.1750 -0.1768  0.2588
 5173TIP3    H137154   4.716   1.748   8.206 -0.8489 -1.7458  0.9402
 5173TIP3    H237155   4.796   1.629   8.256  1.6857  0.0411  1.3265
 5174TIP3   OH237156   4.253   2.518   1.868 -0.1441 -0.1056 -0.2942
 5174TIP3    H137157   4.337   2.560   1.851  1.1884 -2.1788  0.6658
 5174TIP3    H237158   4.200   2.585   1.910  0.7701  1.4536 -1.5351
 5175TIP3   OH237159   0.343   0.061   7.107  0.2600 -0.7819  0.1525
 5175TIP3    H137160   0.382   0.106   7.033  0.4574  0.9533  1.2454
 5175TIP3    H237161   0.259   0.028   7.075 -0.0544  0.7024 -0.6248
 5176TIP3   OH237162   2.678   1.123   6.878 -0.1486  0.6025 -0.2164
 5176TIP3    H137163   2.743   1.073   6.927 -1.9549  0.2059  2.0057
 5176TIP3    H237164   2.672   1.079   6.793  1.5345 -0.1021 -0.0111
 5177TIP3   OH237165   1.766   2.037   0.476 -0.3843  0.4170  0.1000
 5177TIP3    H137166   1.694   2.028   0.539 -1.7007  0.3348 -1.3651
 5177TIP3    H237167   1.740   1.983   0.402  0.6402  1.3346 -0.9660
 5178TIP3   OH237168   1.197   4.124   8.302  0.7128  0.1335  0.1129
 5178TIP3    H137169   1.284   4.122   8.260  0.6442  2.5071 -0.3021
 5178TIP3    H237170   1.208   4.186   8.375 -1.2855  2.9660 -1.7841
 5179TIP3   OH237171   6.623   6.197   8.586  0.3193 -0.2320 -0.5217
 5179TIP3    H137172   6.583   6.213   8.501 -0.8344 -0.4270 -0.0381
 5179TIP3    H237173   6.713   6.169   8.566  0.2866  0.4153 -1.6273
 5180TIP3   OH237174   4.457   5.451   0.675  0.1323 -1.0737 -0.0709
 5180TIP3    H137175   4.432   5.527   0.728  2.0339  1.3611 -2.4008
 5180TIP3    H237176   4.522   5.405   0.729 -1.1903 -1.2609  1.4503
 5181TIP3   OH237177   1.229   3.747   7.469  0.1107  0.2775 -0.1397
 5181TIP3    H137178   1.247   3.715   7.380  0.2365 -1.5022  0.4820
 5181TIP3    H237179   1.201   3.838   7.456  1.3312  0.4697 -1.8754
 5182TIP3   OH237180   1.153   3.198   2.164  0.1484 -0.0539  0.6948
 5182TIP3    H137181   1.065   3.236   2.158  0.0956 -0.2337  0.2861
 5182TIP3    H237182   1.203   3.244   2.097 -0.5643 -2.4275 -1.6400
 5183TIP3   OH237183   0.784   1.119   7.439  0.0832  0.0122 -0.0059
 5183TIP3    H137184   0.870   1.103   7.479  0.5930 -3.0608 -2.0004
 5183TIP3    H237185   0.803   1.171   7.361 -0.1063  0.7372  0.4254
 5184TIP3   OH237186   4.898   2.610   8.599  0.0428  0.0489 -0.5302
 5184TIP3    H137187   4.990   2.615   8.572 -0.0343 -0.5968 -0.9163
 5184TIP3    H237188   4.854   2.563   8.528 -0.6227  0.5077 -0.4320
 5185TIP3   OH237189   2.020   4.927   7.768 -0.0644 -0.1628 -0.1620
 5185TIP3    H137190   2.050   4.912   7.679 -0.7568 -0.1370 -0.4061
 5185TIP3    H237191   1.924   4.920   7.763 -0.0477 -1.5679  0.8432
 5186TIP3   OH237192   5.653   4.376   8.626  0.4384 -0.1143 -0.5628
 5186TIP3    H137193   5.675   4.299   8.575  1.7888  1.2141 -2.0906
 5186TIP3    H237194   5.725   4.385   8.689 -0.6437 -1.0919  0.8827
 5187TIP3   OH237195   5.253   1.100   1.815  0.1189 -0.0051  0.0881
 5187TIP3    H137196   5.228   1.101   1.907  0.4167  2.0251  0.1870
 5187TIP3    H237197   5.342   1.066   1.814 -0.5094 -1.7706  0.3209
 5188TIP3   OH237198   1.528   1.172   1.241 -0.2791  0.1409 -0.4171
 5188TIP3    H137199   1.604   1.228   1.224 -0.4578  0.4158 -0.3213
 5188TIP3    H237200   1.541   1.142   1.331 -0.9278  1.2298  0.0684
 5189TIP3   OH237201   5.103   0.226   8.008  0.3702 -0.0728  0.0483
 5189TIP3    H137202   5.044   0.259   8.075 -0.2400 -1.5563  0.2702
 5189TIP3    H237203   5.140   0.305   7.967 -0.4916  0.8506  1.0166
 5190TIP3   OH237204   2.003   6.393   2.032  0.3999  0.2777 -0.1285
 5190TIP3    H137205   1.914   6.376   2.063  0.5713 -0.3855  0.0345
 5190TIP3    H237206   2.007   6.487   2.019 -0.4036  0.2849 -0.3818
 5191TIP3   OH237207   3.088   3.100   2.043  0.3071 -0.1555  0.4520
 5191TIP3    H137208   3.165   3.156   2.032  0.9991 -1.1943 -0.1841
 5191TIP3    H237209   3.076   3.095   2.138  0.8627  0.2397  0.5461
 5192TIP3   OH237210   1.471   6.685   1.487 -0.0386  0.1015  0.5164
 5192TIP3    H137211   1.400   6.743   1.516 -0.3931  0.7410 -1.4650
 5192TIP3    H237212   1.538   6.694   1.554 -0.9752  1.1137  1.3681
 5193TIP3   OH237213   0.101   1.131   0.621  0.1348  0.2189  0.1077
 5193TIP3    H137214   0.185   1.087   0.627  0.5917  1.1286  0.7440
 5193TIP3    H237215   0.123   1.222   0.602 -0.7775  0.1748 -1.2630
 5194TIP3   OH237216   4.325   0.373   6.816 -0.2153 -0.2463 -0.1877
 5194TIP3    H137217   4.275   0.307   6.768 -0.8802 -0.3586  0.6216
 5194TIP3    H237218   4.336   0.444   6.754 -1.3968 -0.2212 -0.4026
 5195TIP3   OH237219   3.463   1.633   0.389 -0.5650 -0.1049 -0.0965
 5195TIP3    H137220   3.436   1.646   0.480 -0.8585 -1.2711  0.0009
 5195TIP3    H237221   3.382   1.638   0.338 -0.6085 -0.8300 -0.1201
 5196TIP3   OH237222   3.573   1.058   0.841 -0.2056  0.3606 -0.2773
 5196TIP3    H137223   3.630   1.104   0.902 -0.4453  1.2985 -0.7432
 5196TIP3    H237224   3.593   1.097   0.756 -0.8387  0.0077 -0.5943
 5197TIP3   OH237225   0.050   0.618   8.873 -0.0203 -0.7129  0.0832
 5197TIP3    H137226   0.007   0.582   8.796 -3.3832  1.8848  0.5356
 5197TIP3    H237227   0.100   0.693   8.840 -0.2600 -0.4906  0.2197
 5198TIP3   OH237228   0.574   3.970   7.967 -0.5211  0.3414 -0.4695
 5198TIP3    H137229   0.500   4.028   7.949 -0.7083  0.2122 -0.1101
 5198TIP3    H237230   0.575   3.960   8.062 -0.7587 -0.5890 -0.5565
 5199TIP3   OH237231   1.265   2.061   6.407  0.2763 -0.3376  0.0026
 5199TIP3    H137232   1.239   2.032   6.494 -0.3228 -0.6233 -0.2666
 5199TIP3    H237233   1.213   2.140   6.391  1.5007  0.6195  0.5097
 5200TIP3   OH237234   2.451   1.576   0.910  0.8712 -0.6935 -0.5387
 5200TIP3    H137235   2.530   1.545   0.865  0.0589 -1.7264 -1.3273
 5200TIP3    H237236   2.452   1.530   0.993  1.3507 -0.3220 -0.3360
 5201TIP3   OH237237   3.638   6.645   6.365  0.1674  0.5181 -0.8368
 5201TIP3    H137238   3.685   6.564   6.385 -0.4909  0.3904  0.3014
 5201TIP3    H237239   3.624   6.642   6.271  1.3034 -0.0564 -0.9980
 5202TIP3   OH237240   4.027   4.531   6.785 -0.4967  0.7532  0.2316
 5202TIP3    H137241   4.081   4.460   6.751 -0.8596  0.3357  0.5085
 5202TIP3    H237242   3.980   4.565   6.709 -1.0987  0.0049  0.2475
 5203TIP3   OH237243   6.155   1.480   1.444 -0.7819  0.0849 -0.5148
 5203TIP3    H137244   6.227   1.540   1.462 -0.1664 -0.3640 -1.3923
 5203TIP3    H237245   6.095   1.490   1.518 -0.3096  1.1958 -0.2721
 5204TIP3   OH237246   4.758   3.507   0.513  0.5306 -0.5804 -0.3192
 5204TIP3    H137247   4.734   3.455   0.437  2.5273 -1.1507 -0.6384
 5204TIP3    H237248   4.828   3.456   0.555  1.2712  0.9675  0.4167
 5205TIP3   OH237249   2.555   5.227   2.328 -0.3117 -1.3133  0.3398
 5205TIP3    H137250   2.648   5.226   2.349  0.0421 -1.8478 -1.1607
 5205TIP3    H237251   2.524   5.312   2.361  0.7143 -1.0813  0.7558
 5206TIP3   OH237252   3.635   6.511   8.279  0.2087  0.0367 -0.1140
 5206TIP3    H137253   3.593   6.569   8.342  2.8499  1.8665  0.1089
 5206TIP3    H237254   3.634   6.425   8.321 -1.9031  0.2716  0.4657
 5207TIP3   OH237255   3.929   3.565   7.482  0.2587  0.1879 -0.3729
 5207TIP3    H137256   3.913   3.530   7.569 -0.0988 -0.0833 -0.5456
 5207TIP3    H237257   3.857   3.626   7.467  0.9439  1.1007 -0.0248
 5208TIP3   OH237258   3.069   5.344   7.085 -0.4053  0.1880 -0.5952
 5208TIP3    H137259   3.047   5.398   7.161  2.2613 -1.1869  1.3100
 5208TIP3    H237260   3.117   5.270   7.121  1.9193 -0.0401 -3.7240
 5209TIP3   OH237261   2.318   0.988   1.515  0.1446 -0.6309  0.0436
 5209TIP3    H137262   2.298   1.004   1.423 -0.2512 -2.0979 -0.1596
 5209TIP3    H237263   2.234   0.993   1.560  0.5198  1.6027  0.6279
 5210TIP3   OH237264   6.015   3.903   1.113 -0.5053  0.5051  0.4394
 5210TIP3    H137265   6.040   3.817   1.082 -1.1380 -0.1510  1.6738
 5210TIP3    H237266   5.924   3.895   1.140 -1.5249  2.3345 -2.0927
 5211TIP3   OH237267   1.482   4.599   0.211 -0.1684  0.3423  0.2756
 5211TIP3    H137268   1.553   4.646   0.166 -0.1959  0.5469  0.4427
 5211TIP3    H237269   1.437   4.667   0.261 -1.1254  0.3972 -0.6352
 5212TIP3   OH237270   0.663   6.504   7.155 -0.6544  0.4129  0.0666
 5212TIP3    H137271   0.592   6.489   7.092 -2.5960  1.3490  1.8901
 5212TIP3    H237272   0.717   6.572   7.115 -0.2989 -0.8281 -1.6850
 5213TIP3   OH237273   4.240   2.662   0.143  0.5385  0.7122  0.5519
 5213TIP3    H137274   4.262   2.603   0.216 -0.6819  1.0863  1.2628
 5213TIP3    H237275   4.157   2.628   0.110 -0.0577  1.8748  0.8142
 5214TIP3   OH237276   4.317   2.236   8.113 -0.1587  0.3811  0.0787
 5214TIP3    H137277   4.380   2.288   8.064 -0.8731  1.0590 -0.1491
 5214TIP3    H237278   4.252   2.210   8.048 -0.8927  0.9362  0.5691
 5215TIP3   OH237279   4.457   4.842   0.741 -0.0506 -0.4714 -0.0295
 5215TIP3    H137280   4.523   4.772   0.745 -1.0986 -1.4460  1.1748
 5215TIP3    H237281   4.390   4.807   0.682 -0.8734 -0.7752  1.0635
 5216TIP3   OH237282   6.384   3.771   8.346 -0.4274  0.1495  0.5601
 5216TIP3    H137283   6.333   3.812   8.416 -0.5788 -0.3629  0.7587
 5216TIP3    H237284   6.352   3.681   8.344 -0.8300  0.3134 -0.5572
 5217TIP3   OH237285   3.360   0.543   0.372  1.0496 -0.3440  0.4728
 5217TIP3    H137286   3.379   0.630   0.409 -0.0803  1.2332 -2.3564
 5217TIP3    H237287   3.443   0.515   0.334  1.3561 -0.4357  1.1774
 5218TIP3   OH237288   2.650   3.184   0.398  0.1253 -0.1054  0.5904
 5218TIP3    H137289   2.588   3.229   0.341  1.1317  0.0355 -0.4158
 5218TIP3    H237290   2.723   3.160   0.341  0.9463 -0.3806  1.7192
 5219TIP3   OH237291   2.523   0.365   1.244  0.3297  0.6251  0.4190
 5219TIP3    H137292   2.519   0.331   1.334 -1.3376  0.2755  0.2476
 5219TIP3    H237293   2.603   0.328   1.208  0.7503  0.3345  1.5960
 5220TIP3   OH237294   3.414   5.312   1.718 -0.3335 -0.0096  0.0148
 5220TIP3    H137295   3.491   5.268   1.754 -1.7948 -1.1242  2.0355
 5220TIP3    H237296   3.438   5.404   1.713  0.9479 -0.2546  1.1789
 5221TIP3   OH237297   3.203   5.361   2.432  0.4518  0.4418 -0.2337
 5221TIP3    H137298   3.297   5.375   2.422  0.3129  0.7335 -1.2323
 5221TIP3    H237299   3.196   5.283   2.488  1.2518  2.0703  2.3255
 5222TIP3   OH237300   4.875   3.266   8.644  0.0477 -0.1270  0.4376
 5222TIP3    H137301   4.939   3.267   8.715  0.6588 -1.1665 -0.0704
 5222TIP3    H237302   4.910   3.328   8.579  0.2110 -0.2205  0.4366
 5223TIP3   OH237303   5.037   2.179   8.001 -0.0644 -0.4293  0.0442
 5223TIP3    H137304   5.028   2.185   7.905 -0.2754 -0.3720  0.0670
 5223TIP3    H237305   5.123   2.139   8.014  0.1178 -0.1124 -0.1648
 5224TIP3   OH237306   0.946   1.378   0.662 -0.3397  0.0568  0.0688
 5224TIP3    H137307   1.003   1.449   0.633 -0.9684  0.3923 -0.3642
 5224TIP3    H237308   0.970   1.364   0.754 -1.3447  1.9784  0.6791
 5225TIP3   OH237309   4.002   6.230   6.320  0.0136 -0.2165 -0.5602
 5225TIP3    H137310   4.053   6.150   6.308 -2.0167 -1.3693 -2.1803
 5225TIP3    H237311   3.916   6.200   6.350 -0.6882  1.3739 -0.8592
 5226TIP3   OH237312   6.498   0.959   8.210  0.2224  0.2004  0.2360
 5226TIP3    H137313   6.574   0.992   8.161  0.5361 -1.1157 -0.1884
 5226TIP3    H237314   6.504   1.005   8.294  0.8157  0.9926 -0.2149
 5227TIP3   OH237315   1.068   0.355   8.742 -0.0500 -0.5450  0.3329
 5227TIP3    H137316   1.137   0.335   8.680  0.6100 -0.3095  0.9788
 5227TIP3    H237317   1.114   0.382   8.822 -0.8843  1.2736  0.2545
 5228TIP3   OH237318   3.117   5.710   6.451 -0.4268  0.3918  0.2835
 5228TIP3    H137319   3.062   5.738   6.524 -0.1464 -0.4588  0.8360
 5228TIP3    H237320   3.131   5.790   6.400 -0.7417  0.9768  1.0838
 5229TIP3   OH237321   1.756   2.963   8.147 -0.6471  0.0507  0.2106
 5229TIP3    H137322   1.665   2.991   8.151 -0.8217 -0.4748 -0.1264
 5229TIP3    H237323   1.793   3.013   8.074 -0.8072 -0.1581 -0.0128
 5230TIP3   OH237324   2.803   0.885   5.915  0.5056  0.0092  0.4879
 5230TIP3    H137325   2.728   0.827   5.909 -1.6423  2.7210 -2.0400
 5230TIP3    H237326   2.815   0.899   6.009 -0.6590 -2.2333  1.0445
 5231TIP3   OH237327   2.818   1.613   0.367 -0.3758 -0.1113  0.2004
 5231TIP3    H137328   2.851   1.703   0.369 -1.2868  0.2192  1.4348
 5231TIP3    H237329   2.798   1.597   0.275  1.8179  0.1610 -0.3927
 5232TIP3   OH237330   1.938   4.228   7.164  0.1355  0.5089  0.0148
 5232TIP3    H137331   1.919   4.135   7.176  2.5280  0.0120  0.3376
 5232TIP3    H237332   1.931   4.243   7.070 -0.5280  0.0915 -0.0082
 5233TIP3   OH237333   1.626   5.288   0.697  0.1458 -0.0738 -0.0593
 5233TIP3    H137334   1.640   5.331   0.782  0.8052 -0.1469 -0.1298
 5233TIP3    H237335   1.654   5.198   0.711  0.0340 -0.1451 -0.2931
 5234TIP3   OH237336   4.899   6.476   1.506 -0.4998  0.2550  0.0215
 5234TIP3    H137337   4.992   6.498   1.516 -0.4825  0.1509  0.0956
 5234TIP3    H237338   4.898   6.400   1.448 -0.4888 -0.2316  0.6528
 5235TIP3   OH237339   1.842   1.371   6.517  0.1507  0.0151  0.6202
 5235TIP3    H137340   1.891   1.452   6.497 -0.0756  0.0271  0.0810
 5235TIP3    H237341   1.890   1.303   6.470  0.2540 -0.1401  0.9528
 5236TIP3   OH237342   4.450   4.226   1.003 -0.2895  0.6396 -0.4118
 5236TIP3    H137343   4.355   4.220   0.998 -0.2315  0.1966 -1.1932
 5236TIP3    H237344   4.481   4.182   0.924  0.5800  0.4225  0.0385
 5237TIP3   OH237345   4.039   3.513   7.235  0.0033 -0.6646  0.1615
 5237TIP3    H137346   4.014   3.515   7.327 -0.4098  2.5839  0.1037
 5237TIP3    H237347   4.008   3.428   7.203 -0.7154 -1.4587  2.7696
 5238TIP3   OH237348   2.996   5.015   8.437 -0.0386  0.8669  0.0170
 5238TIP3    H137349   3.044   5.030   8.355 -1.0395  1.1425 -0.5500
 5238TIP3    H237350   2.957   5.101   8.457 -1.2379  0.4015 -0.1987
 5239TIP3   OH237351   2.311   1.354   6.412  0.2027  0.4268  0.1515
 5239TIP3    H137352   2.232   1.368   6.358 -1.1206  0.2332  1.9485
 5239TIP3    H237353   2.383   1.361   6.350 -1.2077  0.8011 -1.5466
 5240TIP3   OH237354   6.053   2.105   1.770  0.3818  0.1927  0.3903
 5240TIP3    H137355   6.041   2.028   1.826 -1.9268 -0.2377 -0.5964
 5240TIP3    H237356   5.983   2.164   1.796  0.5461  0.8649 -0.6589
 5241TIP3   OH237357   6.535   1.958   0.348  0.6073 -0.1149 -0.7680
 5241TIP3    H137358   6.546   1.924   0.259 -2.1837  2.2970 -2.1735
 5241TIP3    H237359   6.536   2.053   0.338 -1.7218  0.2283  1.4557
 5242TIP3   OH237360   0.616   0.659   8.254 -0.4739  0.0189 -0.3309
 5242TIP3    H137361   0.644   0.703   8.334  0.8288 -0.0287 -0.7376
 5242TIP3    H237362   0.692   0.664   8.196 -1.6029  0.6296 -1.8239
 5243TIP3   OH237363   4.710   3.504   7.614  0.6088 -0.7115 -0.2894
 5243TIP3    H137364   4.710   3.493   7.709  0.4133 -1.6565 -0.3982
 5243TIP3    H237365   4.626   3.545   7.594  0.5764 -0.6747 -0.0738
 5244TIP3   OH237366   4.465   1.977   1.374 -0.0965  0.6600  0.4402
 5244TIP3    H137367   4.531   1.991   1.441 -0.3856 -1.0787  1.1454
 5244TIP3    H237368   4.388   2.025   1.405 -1.1192 -2.2506  2.8443
 5245TIP3   OH237369   4.856   2.780   1.038 -0.3563 -0.1824  0.0602
 5245TIP3    H137370   4.818   2.779   0.950  0.6112  1.2005 -0.4078
 5245TIP3    H237371   4.943   2.740   1.027  0.6685  1.9611 -0.1054
 5246TIP3   OH237372   1.582   4.430   0.418  0.6558  0.2836 -0.2217
 5246TIP3    H137373   1.533   4.464   0.343  2.0564 -0.9680 -1.8125
 5246TIP3    H237374   1.516   4.389   0.474 -0.3765  0.7914 -1.0523
 5247TIP3   OH237375   2.947   2.300   7.620 -0.3968 -0.1545 -0.8193
 5247TIP3    H137376   2.885   2.250   7.567  0.6321 -3.1432  0.5347
 5247TIP3    H237377   3.023   2.242   7.629  0.2236  0.9196  2.3433
 5248TIP3   OH237378   1.520   3.631   7.042 -0.3191 -0.3764 -0.1908
 5248TIP3    H137379   1.512   3.708   7.098  1.1091  0.0922 -0.5777
 5248TIP3    H237380   1.474   3.655   6.961  0.5495  0.2756 -0.4987
 5249TIP3   OH237381   1.176   5.194   7.273  0.1374 -0.1826  0.5154
 5249TIP3    H137382   1.186   5.277   7.227 -0.5492 -0.6870 -0.6083
 5249TIP3    H237383   1.099   5.206   7.328 -3.8917 -1.7435 -3.9892
 5250TIP3   OH237384   4.226   4.475   7.874  0.2079 -0.1941  0.0878
 5250TIP3    H137385   4.247   4.550   7.930 -0.8467 -0.3870  0.7697
 5250TIP3    H237386   4.254   4.502   7.787  2.0391  0.0491  0.7029
 5251TIP3   OH237387   3.466   6.276   6.970  0.0031  0.0272  0.1877
 5251TIP3    H137388   3.453   6.250   6.879  0.2502 -1.6912  0.6061
 5251TIP3    H237389   3.388   6.245   7.016 -0.1341  0.9061  0.5637
 5252TIP3   OH237390   1.202   5.448   7.706  0.3443  0.0568 -0.2054
 5252TIP3    H137391   1.161   5.461   7.621 -0.9918  0.5717  0.4879
 5252TIP3    H237392   1.246   5.531   7.725  0.9081 -0.1627 -0.5097
 5253TIP3   OH237393   3.751   5.778   0.883  0.4880  0.2055 -0.3516
 5253TIP3    H137394   3.781   5.805   0.796  0.2379 -0.4219 -0.6435
 5253TIP3    H237395   3.762   5.683   0.883 -0.4509  0.0902 -0.0686
 5254TIP3   OH237396   1.507   5.261   7.660  0.2119 -0.2435 -0.0434
 5254TIP3    H137397   1.467   5.300   7.738  1.1740  0.0190  0.3392
 5254TIP3    H237398   1.464   5.304   7.587  0.4635  0.7411  0.3673
 5255TIP3   OH237399   3.397   5.601   1.664 -0.0496 -0.2351 -0.1997
 5255TIP3    H137400   3.398   5.669   1.732 -0.8986  0.2091 -0.6307
 5255TIP3    H237401   3.465   5.628   1.603 -0.5048  0.3329 -0.4645
 5256TIP3   OH237402   3.066   1.476   7.004 -0.0096 -0.0632  0.9020
 5256TIP3    H137403   3.025   1.556   7.037 -1.5243 -0.5036  0.1497
 5256TIP3    H237404   3.114   1.504   6.926  0.4262  0.2984  1.2915
 5257TIP3   OH237405   0.332   1.291   1.649  0.2312  0.6118  0.2669
 5257TIP3    H137406   0.237   1.299   1.643  0.3347  1.0518 -0.9574
 5257TIP3    H237407   0.358   1.355   1.715 -0.4360 -0.4232  1.5766
 5258TIP3   OH237408   2.123   4.829   0.336 -0.8027  0.1588  0.5835
 5258TIP3    H137409   2.084   4.751   0.374 -1.0773 -0.0103 -0.0377
 5258TIP3    H237410   2.161   4.876   0.410 -2.1782  0.3286  1.2030
 5259TIP3   OH237411   2.038   2.021   2.517 -0.1888 -0.1140 -0.0138
 5259TIP3    H137412   1.952   2.049   2.486  0.3653  2.3209  0.4014
 5259TIP3    H237413   2.094   2.098   2.504  1.2709 -0.6953  2.2353
 5260TIP3   OH237414   1.887   0.488   0.689  0.3926  0.3534 -0.0877
 5260TIP3    H137415   1.858   0.416   0.745  0.8988 -0.1520 -0.4667
 5260TIP3    H237416   1.807   0.522   0.651  0.1414  0.0178  0.1319
 5261TIP3   OH237417   1.687   4.269   1.717  0.6102  0.0594 -0.4869
 5261TIP3    H137418   1.616   4.331   1.733 -0.2320 -0.9435 -0.2037
 5261TIP3    H237419   1.757   4.298   1.775  0.6196  1.3324 -1.0950
 5262TIP3   OH237420   5.645   4.063   7.000 -0.5176  0.7740  0.0863
 5262TIP3    H137421   5.605   3.979   6.978  3.1168 -1.0788 -0.1411
 5262TIP3    H237422   5.672   4.099   6.916  0.7291  0.5725  0.3722
 5263TIP3   OH237423   5.458   5.198   7.003 -0.1066 -0.1716  0.0860
 5263TIP3    H137424   5.372   5.168   7.032  0.4610 -0.3216  1.7389
 5263TIP3    H237425   5.510   5.118   6.995 -0.2880 -0.1495 -1.5973
 5264TIP3   OH237426   5.945   2.123   0.158 -0.1743  0.1493  0.0935
 5264TIP3    H137427   5.966   2.154   0.070  0.0609 -1.6934 -0.5398
 5264TIP3    H237428   6.027   2.085   0.190 -0.7397 -0.9047  0.3403
 5265TIP3   OH237429   3.465   4.698   0.857  0.1496 -0.3638 -0.6102
 5265TIP3    H137430   3.410   4.639   0.909  2.5604  0.0457  2.7794
 5265TIP3    H237431   3.434   4.786   0.879 -0.5572 -0.2046 -2.1251
 5266TIP3   OH237432   5.420   5.473   0.966 -0.3917 -0.5437 -0.0753
 5266TIP3    H137433   5.401   5.410   1.035  2.5853 -0.3907  1.0682
 5266TIP3    H237434   5.340   5.479   0.914 -2.5101 -1.2701  2.8894
 5267TIP3   OH237435   2.350   4.793   8.635 -0.4554  0.1550  0.3532
 5267TIP3    H137436   2.362   4.857   8.705 -0.9999  0.1451  0.4653
 5267TIP3    H237437   2.398   4.828   8.561  0.4563 -0.0223  0.8414
 5268TIP3   OH237438   4.076   1.109   1.242 -0.2012 -0.3202  0.2666
 5268TIP3    H137439   4.172   1.109   1.235  0.0378 -2.4891  2.3356
 5268TIP3    H237440   4.051   1.017   1.236 -2.1234  0.1457  0.4166
 5269TIP3   OH237441   3.292   0.180   2.146  0.1681 -0.5749 -0.6682
 5269TIP3    H137442   3.375   0.194   2.102  0.5366 -0.8310 -0.0726
 5269TIP3    H237443   3.316   0.159   2.236 -0.5943  1.7822  0.1766
 5270TIP3   OH237444   5.495   1.639   8.121 -0.0293 -0.2287 -0.0313
 5270TIP3    H137445   5.426   1.578   8.148 -0.7251  0.2198 -0.7776
 5270TIP3    H237446   5.560   1.583   8.078  1.2908 -1.0234  2.7705
 5271TIP3   OH237447   3.969   3.074   8.141  0.0714 -0.8249 -0.4227
 5271TIP3    H137448   4.062   3.090   8.123 -0.1097 -0.5364 -1.1303
 5271TIP3    H237449   3.928   3.068   8.055 -0.7819  0.3349 -0.1340
 5272TIP3   OH237450   2.781   4.082   0.009  0.3702  0.5320 -0.1566
 5272TIP3    H137451   2.711   4.051   0.067  0.8342  0.7871  0.5491
 5272TIP3    H237452   2.739   4.091  -0.077  0.3685 -2.7954 -0.6424
 5273TIP3   OH237453   2.542   4.683   0.625  0.3027  0.6882 -0.1254
 5273TIP3    H137454   2.523   4.773   0.599  2.0680  0.5352 -2.3133
 5273TIP3    H237455   2.569   4.640   0.543  1.9445 -1.1524  1.2907
 5274TIP3   OH237456   0.783   4.993   0.802  0.1525  0.2905  0.2640
 5274TIP3    H137457   0.703   4.940   0.796  0.5772 -0.7662  2.5685
 5274TIP3    H237458   0.793   5.010   0.896  2.1933  1.1163 -0.0496
 5275TIP3   OH237459   0.834   2.843   7.625 -0.0225 -0.1687 -0.1312
 5275TIP3    H137460   0.923   2.874   7.640 -0.3505  0.7079  0.0622
 5275TIP3    H237461   0.799   2.826   7.713  0.0017 -0.6856 -0.2135
 5276TIP3   OH237462   0.708   6.807   7.974 -0.0633  0.3693 -0.1052
 5276TIP3    H137463   0.695   6.777   7.884  2.5514  0.4528 -0.6050
 5276TIP3    H237464   0.796   6.777   7.996 -1.3274 -1.3976  3.1948
 5277TIP3   OH237465   0.221   1.335   0.211  0.1405  0.1551  0.0946
 5277TIP3    H137466   0.272   1.335   0.292  1.2168  0.5149 -0.5752
 5277TIP3    H237467   0.130   1.336   0.241  0.5173  1.3596  1.3020
 5278TIP3   OH237468   1.097   0.760   0.432 -0.1647 -0.2526  0.0335
 5278TIP3    H137469   1.170   0.820   0.446 -0.7390  0.1174  1.7308
 5278TIP3    H237470   1.022   0.805   0.472 -0.8891 -1.5259  0.1627
 5279TIP3   OH237471   2.725   1.094   0.445  0.6682  0.2960 -0.2351
 5279TIP3    H137472   2.650   1.035   0.439  0.3217  0.6410  0.5590
 5279TIP3    H237473   2.801   1.036   0.439  0.3371 -0.3051  1.0214
 5280TIP3   OH237474   0.991   2.442   1.362  0.0839  0.0017  0.5219
 5280TIP3    H137475   0.982   2.537   1.371 -0.7808 -0.2278  2.7506
 5280TIP3    H237476   0.990   2.409   1.452  1.2451 -2.0686 -0.1497
 5281TIP3   OH237477   5.102   1.762   7.366 -0.0016  0.8298  0.1900
 5281TIP3    H137478   5.089   1.810   7.285  0.5135  1.6939  0.6123
 5281TIP3    H237479   5.024   1.708   7.375  0.4226 -0.1474 -1.4589
 5282TIP3   OH237480   2.114   2.354   6.952  0.2783 -0.0025  0.0139
 5282TIP3    H137481   2.163   2.390   6.877  0.5906 -0.1813  0.1317
 5282TIP3    H237482   2.035   2.316   6.912 -0.6024  1.7518 -0.0049
 5283TIP3   OH237483   1.782   2.040   1.306  0.3368  0.5185  0.4959
 5283TIP3    H137484   1.769   2.079   1.220 -0.0366 -0.1963  0.2221
 5283TIP3    H237485   1.875   2.017   1.308  0.1675 -0.2522 -0.0598
 5284TIP3   OH237486   4.336   2.417   7.718  0.4814 -0.1607 -0.0243
 5284TIP3    H137487   4.242   2.406   7.707  0.2904 -0.0055  1.3256
 5284TIP3    H237488   4.375   2.345   7.669 -0.3300 -0.1179 -0.7377
 5285TIP3   OH237489   5.074   0.207   2.112 -0.2336 -0.3449  0.3891
 5285TIP3    H137490   5.113   0.250   2.188 -1.2455  0.2981  0.5581
 5285TIP3    H237491   5.146   0.157   2.074  0.0415 -1.5926  2.4099
 5286TIP3   OH237492   2.499   4.561   7.516 -0.3045 -0.0087 -0.4314
 5286TIP3    H137493   2.450   4.525   7.590  1.0078  0.6642  0.8206
 5286TIP3    H237494   2.433   4.578   7.449 -1.5551 -0.5141  0.6329
 5287TIP3   OH237495   1.223   5.960   2.479 -0.3453 -0.4386  0.4878
 5287TIP3    H137496   1.158   5.890   2.466 -1.7746  0.4624  2.3177
 5287TIP3    H237497   1.171   6.037   2.500  1.2828  0.8247  0.0766
 5288TIP3   OH237498   3.740   5.644   7.614  0.1061 -0.5654 -0.4352
 5288TIP3    H137499   3.815   5.651   7.555 -0.9279 -1.9648 -1.9945
 5288TIP3    H237500   3.744   5.554   7.647 -1.1699 -0.8486 -0.9800
 5289TIP3   OH237501   4.018   2.807   8.473 -0.2403 -0.1461  0.3655
 5289TIP3    H137502   4.043   2.900   8.475  0.2833 -0.2022 -1.5632
 5289TIP3    H237503   3.936   2.803   8.521 -0.1421  1.2734  0.7029
 5290TIP3   OH237504   1.778   5.721   0.519 -0.3411 -0.1636 -0.1807
 5290TIP3    H137505   1.807   5.808   0.545 -0.5192 -0.5809  1.6072
 5290TIP3    H237506   1.775   5.723   0.424  2.2535  0.9474 -0.3141
 5291TIP3   OH237507   5.459   3.012   8.006 -0.4082 -0.3593 -0.4407
 5291TIP3    H137508   5.431   2.921   8.009 -1.0365 -0.1871 -0.8635
 5291TIP3    H237509   5.555   3.008   8.003 -0.3371 -0.9432  1.4728
 5292TIP3   OH237510   4.968   4.707   7.099  0.5966 -0.4999 -0.0840
 5292TIP3    H137511   5.004   4.760   7.027 -1.3924  0.5259 -0.3885
 5292TIP3    H237512   4.922   4.635   7.056 -0.6347  0.1384  0.1091
 5293TIP3   OH237513   3.916   5.534   8.765  0.3032 -0.3816  0.3839
 5293TIP3    H137514   4.000   5.568   8.734  0.2774 -0.0263  0.6881
 5293TIP3    H237515   3.851   5.577   8.710  0.1781  1.2215  1.7107
 5294TIP3   OH237516   0.871   2.507   0.444  0.3371 -0.2866 -1.2812
 5294TIP3    H137517   0.828   2.572   0.389 -0.8078 -0.3722 -0.5252
 5294TIP3    H237518   0.964   2.529   0.439  0.1810  0.0916 -2.7095
 5295TIP3   OH237519   4.868   2.896   7.441 -0.1351 -0.5055  0.2585
 5295TIP3    H137520   4.897   2.917   7.530 -1.1175  0.7604  0.3062
 5295TIP3    H237521   4.776   2.872   7.450 -0.3033 -0.1550 -0.4300
 5296TIP3   OH237522   5.270   3.845   1.425 -0.2448  0.2298 -0.4485
 5296TIP3    H137523   5.260   3.920   1.484  2.8195 -0.5429  1.2531
 5296TIP3    H237524   5.250   3.769   1.478 -0.4494 -0.3353 -1.3101
 5297TIP3   OH237525   2.173   1.592   0.862 -0.2130  0.3040  0.1766
 5297TIP3    H137526   2.184   1.504   0.899  1.9689 -0.1479 -1.3557
 5297TIP3    H237527   2.262   1.628   0.860 -1.0653  2.6376  0.8737
 5298TIP3   OH237528   1.956   6.591   7.253 -0.2068  0.5826 -0.2803
 5298TIP3    H137529   2.039   6.639   7.253  0.2085 -0.0916  0.7281
 5298TIP3    H237530   1.965   6.528   7.325 -1.9346  1.0597  0.3970
 5299TIP3   OH237531   0.813   1.085   8.513 -0.3297  0.3728  0.1107
 5299TIP3    H137532   0.899   1.115   8.543 -1.4921  2.5021  1.5357
 5299TIP3    H237533   0.791   1.144   8.441 -1.5839  1.4456  1.3248
 5300TIP3   OH237534   5.201   0.621   7.327  0.0436 -0.3579 -0.0471
 5300TIP3    H137535   5.185   0.544   7.381  0.9341 -0.7778 -0.3462
 5300TIP3    H237536   5.293   0.613   7.301 -0.7175 -1.0610 -2.9478
 5301TIP3   OH237537   6.394   5.223   7.106 -1.3356  0.2824 -0.0722
 5301TIP3    H137538   6.327   5.163   7.073 -1.8087 -0.9816  2.8857
 5301TIP3    H237539   6.346   5.288   7.157 -0.4540  0.4080  0.6242
 5302TIP3   OH237540   4.413   1.767   7.419  0.1328  0.3678  0.5320
 5302TIP3    H137541   4.353   1.698   7.446 -1.0674  1.2842  0.2949
 5302TIP3    H237542   4.476   1.773   7.490  0.2746 -0.9755  0.5447
 5303TIP3   OH237543   5.798   1.616   0.194  0.5079  0.3087 -0.4369
 5303TIP3    H137544   5.870   1.679   0.190  0.9351 -0.0493  1.2159
 5303TIP3    H237545   5.839   1.532   0.213 -0.2445 -0.1050 -0.5911
 5304TIP3   OH237546   4.038   2.358   8.138 -0.2305 -0.0984 -0.2651
 5304TIP3    H137547   4.104   2.290   8.123  0.1348 -0.4680  2.4808
 5304TIP3    H237548   4.090   2.437   8.156 -0.5659 -0.0164  0.3429
 5305TIP3   OH237549   6.513   2.215   1.079  0.1547 -0.6756  0.2857
 5305TIP3    H137550   6.427   2.181   1.104 -0.8375 -0.0328 -1.9642
 5305TIP3    H237551   6.512   2.307   1.107 -0.6287 -0.1865 -1.2178
 5306TIP3   OH237552   5.905   5.576   0.458 -0.1477  0.1810 -0.2151
 5306TIP3    H137553   5.985   5.614   0.423  0.3515 -1.0279 -0.4471
 5306TIP3    H237554   5.928   5.485   0.478 -1.0805  0.1795  1.0200
 5307TIP3   OH237555   5.780   1.284   1.653  0.5937  0.0568 -0.6599
 5307TIP3    H137556   5.870   1.254   1.665  1.8606  2.4027 -3.2492
 5307TIP3    H237557   5.788   1.379   1.645 -2.2110  0.3799 -0.5143
 5308TIP3   OH237558   1.970   5.192   0.429 -0.3652 -0.2545 -0.1289
 5308TIP3    H137559   1.880   5.222   0.417 -0.6705 -1.1805 -0.2360
 5308TIP3    H237560   1.962   5.098   0.445  0.6606 -0.6020 -1.4525
 5309TIP3   OH237561   2.756   2.178   7.500  0.4263  0.2502  0.3073
 5309TIP3    H137562   2.739   2.086   7.480 -0.6638  0.5676 -0.3181
 5309TIP3    H237563   2.752   2.222   7.415 -0.0182  1.0181  0.7194
 5310TIP3   OH237564   1.516   4.567   1.328  0.0831  0.2063 -0.6941
 5310TIP3    H137565   1.572   4.640   1.304  0.3882 -0.0097 -0.6491
 5310TIP3    H237566   1.537   4.499   1.263  0.2829 -0.0732 -0.3399
 5311TIP3   OH237567   5.813   0.159   7.383 -0.2049  0.3555  0.0637
 5311TIP3    H137568   5.895   0.185   7.341 -0.1993  1.0534  0.4978
 5311TIP3    H237569   5.840   0.111   7.461 -0.2150 -1.0949 -0.7962
 5312TIP3   OH237570   5.605   1.373   0.440 -0.0428  0.1236  0.5192
 5312TIP3    H137571   5.694   1.393   0.472  0.1571  0.4020 -0.1844
 5312TIP3    H237572   5.611   1.283   0.409  0.6460  0.8297 -1.6225
 5313TIP3   OH237573   5.297   6.662   7.287  0.3274  0.2041  0.1622
 5313TIP3    H137574   5.250   6.740   7.319 -2.2330 -0.3105 -2.0267
 5313TIP3    H237575   5.322   6.683   7.197 -2.0398 -2.0183 -1.1535
 5314TIP3   OH237576   2.478   3.422   1.955 -0.0759 -0.0318 -0.3080
 5314TIP3    H137577   2.446   3.393   1.870 -1.2240  1.8159 -0.5765
 5314TIP3    H237578   2.462   3.517   1.955  2.2529  0.4272  0.9661
 5315TIP3   OH237579   6.642   6.187   0.603 -0.5280  0.4350  0.0080
 5315TIP3    H137580   6.674   6.270   0.639 -1.7656  0.9663 -0.0625
 5315TIP3    H237581   6.565   6.211   0.552 -2.1140 -0.9580  1.5968
 5316TIP3   OH237582   6.190   0.700   7.988 -0.4105  0.7539  0.0417
 5316TIP3    H137583   6.284   0.687   7.977 -0.5757 -1.8681  0.9827
 5316TIP3    H237584   6.182   0.745   8.072  0.0084 -0.1328  0.5814
 5317TIP3   OH237585   0.880   1.192   7.183 -0.3732 -0.1944  0.3334
 5317TIP3    H137586   0.951   1.175   7.122 -0.5558  1.4968 -0.4148
 5317TIP3    H237587   0.809   1.134   7.156  0.2712 -0.9871  0.3038
 5318TIP3   OH237588   0.083   3.063   0.571 -0.3027 -0.4018  0.3935
 5318TIP3    H137589   0.170   3.028   0.587  0.3668  1.1288  0.2760
 5318TIP3    H237590   0.094   3.158   0.572 -1.9961 -0.1651  0.5174
 5319TIP3   OH237591   1.790   5.070   0.987 -0.3182  0.1942  0.2410
 5319TIP3    H137592   1.777   5.053   0.894 -1.8669  0.8036  0.3145
 5319TIP3    H237593   1.839   5.152   0.989  0.4296 -0.2324 -0.0257
 5320TIP3   OH237594   5.009   5.451   8.715  0.0391  0.2047 -0.1491
 5320TIP3    H137595   5.058   5.532   8.729 -0.2078  0.3951 -0.3706
 5320TIP3    H237596   5.050   5.387   8.773  0.8432  0.2422 -0.6605
 5321TIP3   OH237597   4.351   1.728   1.341 -0.3782  0.2812  1.1791
 5321TIP3    H137598   4.401   1.810   1.341 -0.5876  0.4127  0.5166
 5321TIP3    H237599   4.268   1.751   1.383  0.4558 -0.1682  3.1955
 5322TIP3   OH237600   4.543   2.127   2.649 -0.3229 -0.1116 -0.4017
 5322TIP3    H137601   4.533   2.041   2.607  0.9640  0.0740 -1.1349
 5322TIP3    H237602   4.622   2.118   2.702 -1.0763  0.1401  0.7833
 5323TIP3   OH237603   2.397   4.368   7.337 -0.1390 -0.2740 -0.2236
 5323TIP3    H137604   2.428   4.435   7.276 -0.5805  1.5060  1.4144
 5323TIP3    H237605   2.310   4.346   7.305 -0.0637  0.0624 -0.6799
 5324TIP3   OH237606   2.937   2.649   1.889  0.6333 -1.0311  0.3258
 5324TIP3    H137607   2.978   2.735   1.881  0.3264 -1.0015 -1.3333
 5324TIP3    H237608   2.975   2.612   1.969  1.5159  0.2382  0.5341
 5325TIP3   OH237609   5.397   2.504   2.000 -0.3383  0.1163  0.1080
 5325TIP3    H137610   5.329   2.535   1.940 -1.1799 -0.2943  0.8336
 5325TIP3    H237611   5.479   2.514   1.950 -1.0433 -0.5652 -1.2558
 5326TIP3   OH237612   3.521   0.425   7.455 -0.0404  0.7782  0.1992
 5326TIP3    H137613   3.567   0.508   7.456 -1.6431  1.7541 -1.5088
 5326TIP3    H237614   3.444   0.440   7.510 -0.2892  0.4041 -0.0430
 5327TIP3   OH237615   6.499   1.506   2.218 -0.6580  0.1327  0.7768
 5327TIP3    H137616   6.505   1.412   2.236 -0.1809  0.2526  1.2632
 5327TIP3    H237617   6.420   1.534   2.265 -0.4219  0.1006  1.1975
 5328TIP3   OH237618   4.936   0.742   7.499  0.2405  0.0459 -0.3651
 5328TIP3    H137619   4.931   0.724   7.406 -0.5244  0.8929 -0.4953
 5328TIP3    H237620   4.910   0.834   7.508  0.0627 -0.0933  0.7076
 5329TIP3   OH237621   2.677   3.414   1.376  0.3406  0.3986  0.7652
 5329TIP3    H137622   2.638   3.341   1.425 -1.9592  1.3050  0.3990
 5329TIP3    H237623   2.747   3.447   1.433  3.0660 -3.3784  0.0415
 5330TIP3   OH237624   3.394   2.967   8.370 -0.8778  0.7521 -0.2293
 5330TIP3    H137625   3.398   2.872   8.382 -2.3748  0.8450  1.3971
 5330TIP3    H237626   3.436   3.002   8.448  0.2767  1.4633 -1.1370
 5331TIP3   OH237627   1.091   1.074   1.154  0.1653 -0.9181 -0.1117
 5331TIP3    H137628   1.059   1.154   1.196  0.3012 -0.4405 -0.8921
 5331TIP3    H237629   1.184   1.090   1.139  0.3017 -1.4274  0.1922
 5332TIP3   OH237630   5.982   2.717   7.438  0.1884 -0.5621  0.0969
 5332TIP3    H137631   5.995   2.644   7.377  0.5179  0.4586 -1.1043
 5332TIP3    H237632   5.918   2.773   7.394 -0.7646 -0.5744  1.4260
 5333TIP3   OH237633   5.432   6.395   0.682 -0.1816 -0.1515  0.7178
 5333TIP3    H137634   5.345   6.399   0.642  0.5895 -2.4817 -1.4237
 5333TIP3    H237635   5.480   6.469   0.644 -0.4121 -0.4941 -0.2520
 5334TIP3   OH237636   3.083   3.249   0.959 -0.0438  0.3917 -0.2371
 5334TIP3    H137637   3.136   3.170   0.954 -0.1769  0.0158  2.8060
 5334TIP3    H237638   3.146   3.319   0.974 -0.2051  0.2560  1.1554
 5335TIP3   OH237639   3.304   3.785   8.096  0.4962 -0.8777  0.4915
 5335TIP3    H137640   3.357   3.775   8.017 -0.7643  0.1276 -0.5524
 5335TIP3    H237641   3.267   3.873   8.088  1.1889 -0.3140  2.7830
 5336TIP3   OH237642   1.400   1.514   2.086 -0.4500 -0.5877 -0.2755
 5336TIP3    H137643   1.357   1.456   2.024 -1.4451 -1.5020  1.2023
 5336TIP3    H237644   1.467   1.560   2.034 -0.0159 -2.6093 -1.6222
 5337TIP3   OH237645   1.350   1.207   0.808  0.1504 -0.4258  0.1614
 5337TIP3    H137646   1.401   1.280   0.772  0.7277 -1.6579 -1.7064
 5337TIP3    H237647   1.276   1.197   0.748  0.7069 -2.0549 -0.3230
 5338TIP3   OH237648   3.279   1.379   7.676  0.2241  0.1045 -0.3563
 5338TIP3    H137649   3.284   1.313   7.746 -0.3528 -1.0901 -1.4056
 5338TIP3    H237650   3.239   1.455   7.718  0.2390 -0.4602  0.7120
 5339TIP3   OH237651   5.145   5.597   1.227  0.8429 -0.4776 -0.0118
 5339TIP3    H137652   5.136   5.664   1.159  0.9716 -0.1222  0.3200
 5339TIP3    H237653   5.082   5.623   1.295  0.5729 -0.9407 -0.0788
 5340TIP3   OH237654   6.473   5.104   6.780 -0.0019 -0.1236  0.6192
 5340TIP3    H137655   6.557   5.057   6.778  0.4388  0.6590 -0.4504
 5340TIP3    H237656   6.488   5.181   6.725 -1.2772  0.2947  0.8329
 5341TIP3   OH237657   5.370   6.129   7.404 -0.1506 -0.3167 -0.1717
 5341TIP3    H137658   5.291   6.076   7.415  0.5271 -1.2012  0.6020
 5341TIP3    H237659   5.378   6.141   7.310 -0.1136 -1.9450 -0.3953
 5342TIP3   OH237660   1.372   4.935   1.227  0.0032 -0.0402  0.0652
 5342TIP3    H137661   1.459   4.902   1.205  0.5021  1.4125 -0.2063
 5342TIP3    H237662   1.326   4.939   1.143  1.1281  3.2449 -0.5267
 5343TIP3   OH237663   2.371   0.184   7.330  0.6187  0.2231 -0.1832
 5343TIP3    H137664   2.380   0.231   7.247 -0.9996  0.1249 -0.4414
 5343TIP3    H237665   2.278   0.165   7.337  0.9302 -1.0487  0.9694
 5344TIP3   OH237666   2.458   2.867   1.022  0.0411  0.1976  0.0517
 5344TIP3    H137667   2.546   2.848   1.056  0.0873  0.6503  0.1921
 5344TIP3    H237668   2.465   2.955   0.985 -0.6942  0.8233  1.3253
 5345TIP3   OH237669   0.135   1.950   7.554  0.8800  0.0160  0.2215
 5345TIP3    H137670   0.204   2.015   7.543  0.4138  0.4397 -0.3020
 5345TIP3    H237671   0.055   2.002   7.563  0.7651 -0.4236  2.0886
 5346TIP3   OH237672   6.153   2.968   1.187  0.0858 -0.3622  0.3882
 5346TIP3    H137673   6.212   2.986   1.260  0.2688  1.1678 -0.1090
 5346TIP3    H237674   6.066   2.993   1.219  0.3785  1.9010 -0.3972
 5347TIP3   OH237675   5.873   5.943   0.513 -0.2934  0.2003 -0.2042
 5347TIP3    H137676   5.866   6.030   0.554  0.3054  0.3330 -0.3828
 5347TIP3    H237677   5.966   5.922   0.516 -0.4476 -0.4973 -0.0489
 5348TIP3   OH237678   3.296   2.956   6.749 -0.2182  0.2694 -0.1428
 5348TIP3    H137679   3.362   3.001   6.697 -0.8775  0.6090 -0.7066
 5348TIP3    H237680   3.318   2.977   6.840 -1.1336  2.6694 -0.4131
 5349TIP3   OH237681   6.348   5.516   0.350 -0.8861 -0.4031 -0.0825
 5349TIP3    H137682   6.411   5.586   0.364  0.6597 -2.2858  3.8617
 5349TIP3    H237683   6.265   5.552   0.380 -0.6510  0.4747 -0.4471
 5350TIP3   OH237684   2.946   1.343   7.461  0.2759 -0.1822  0.5646
 5350TIP3    H137685   3.008   1.360   7.532  0.7681 -2.9901  0.8968
 5350TIP3    H237686   2.861   1.368   7.497  0.6488 -0.6292  1.7875
 5351TIP3   OH237687   4.961   2.969   7.686  0.2672 -0.4474  0.5637
 5351TIP3    H137688   4.986   2.902   7.749 -0.2996 -0.7141  0.4998
 5351TIP3    H237689   4.957   3.050   7.738 -1.0844 -0.8202  1.0557
 5352TIP3   OH237690   4.474   1.585   1.541  0.0427 -0.1709 -0.5127
 5352TIP3    H137691   4.405   1.552   1.599 -0.8573  0.8208 -0.9727
 5352TIP3    H237692   4.427   1.638   1.477  1.2383  0.4709 -0.8873
 5353TIP3   OH237693   3.663   0.548   6.119  0.8495  0.1508 -0.4734
 5353TIP3    H137694   3.629   0.499   6.193  1.7720 -0.4353 -0.4250
 5353TIP3    H237695   3.585   0.581   6.074  0.2794  0.1815  0.5271
 5354TIP3   OH237696   4.764   0.105   1.293 -0.3027 -0.0546  0.1167
 5354TIP3    H137697   4.684   0.064   1.260 -0.9532  1.1749  0.0875
 5354TIP3    H237698   4.802   0.040   1.352 -1.4662 -0.5733  0.3237
 5355TIP3   OH237699   2.203   2.495   6.380  0.1090 -0.1298  0.3990
 5355TIP3    H137700   2.186   2.447   6.299  0.4781  0.2863  0.0729
 5355TIP3    H237701   2.141   2.458   6.443 -0.5022 -0.1438 -0.1939
 5356TIP3   OH237702   6.007   5.916   6.471 -0.6238 -0.1638  0.4204
 5356TIP3    H137703   5.935   5.944   6.414  0.3843  1.7056 -0.0207
 5356TIP3    H237704   5.994   5.822   6.481 -2.3255 -0.1117 -0.7699
 5357TIP3   OH237705   0.138   3.027   2.298 -0.7699  0.5007  0.1072
 5357TIP3    H137706   0.134   2.992   2.387 -0.1703 -0.5745 -0.2723
 5357TIP3    H237707   0.224   3.069   2.292 -1.1472  1.3207  0.2908
 5358TIP3   OH237708   3.791   1.660   7.325 -0.1696 -0.2830  0.2842
 5358TIP3    H137709   3.743   1.737   7.295 -1.4717 -1.7108 -1.5297
 5358TIP3    H237710   3.874   1.663   7.277 -1.0975 -1.0792 -1.4474
 5359TIP3   OH237711   4.165   1.654   7.812  0.1612 -0.1136  0.2347
 5359TIP3    H137712   4.191   1.578   7.760  0.2241 -0.2171  0.4128
 5359TIP3    H237713   4.191   1.631   7.902  0.2860  0.1666  0.2718
 5360TIP3   OH237714   3.119   5.249   8.587  0.0432 -0.0148 -0.4686
 5360TIP3    H137715   3.203   5.245   8.631  0.3854 -0.7337 -1.1554
 5360TIP3    H237716   3.054   5.236   8.656  0.3948  2.0708  0.3073
 5361TIP3   OH237717   3.540   0.859   0.194  0.4434  0.4078  0.4872
 5361TIP3    H137718   3.485   0.816   0.260  0.2592 -0.6255 -0.3035
 5361TIP3    H237719   3.629   0.837   0.218  0.4106  0.5451  0.7347
 5362TIP3   OH237720   5.288   2.523   7.493 -0.1486  0.6462  0.4945
 5362TIP3    H137721   5.372   2.555   7.458 -0.4385  0.3863 -0.4804
 5362TIP3    H237722   5.223   2.580   7.452 -0.5069  0.2660  0.5312
 5363TIP3   OH237723   5.794   3.191   1.637  0.1147 -0.0079  0.0644
 5363TIP3    H137724   5.752   3.251   1.698  1.1370  0.8259 -0.0113
 5363TIP3    H237725   5.816   3.114   1.690 -0.8763 -0.1701  0.2474
 5364TIP3   OH237726   0.845   2.461   0.080 -0.7992 -0.2109 -0.1410
 5364TIP3    H137727   0.929   2.486   0.042 -0.7049 -0.8255 -0.3418
 5364TIP3    H237728   0.811   2.542   0.119 -1.2036  0.6146 -2.0970
 5365TIP3   OH237729   2.868   6.801   7.777  0.5293 -0.6184  0.3047
 5365TIP3    H137730   2.795   6.811   7.838  0.1680 -2.0989  0.1752
 5365TIP3    H237731   2.940   6.767   7.831  0.3509 -1.4917  0.0085
 5366TIP3   OH237732   4.641   5.129   7.145  0.1087 -0.3568  0.2794
 5366TIP3    H137733   4.657   5.093   7.057  0.3547 -1.2479  0.6771
 5366TIP3    H237734   4.615   5.219   7.129 -1.8433 -1.0517 -0.8560
 5367TIP3   OH237735   5.065   2.991   8.192  0.3103 -0.1778  0.0713
 5367TIP3    H137736   5.051   3.079   8.156  3.5362  0.6679  0.5477
 5367TIP3    H237737   5.089   3.006   8.284 -0.2180 -1.6621  0.4764
 5368TIP3   OH237738   1.022   1.100   0.244 -0.1543 -0.6932 -0.1354
 5368TIP3    H137739   0.986   1.039   0.309 -0.6409  0.2860  0.5533
 5368TIP3    H237740   1.077   1.046   0.188 -1.3863 -1.9552 -0.1958
 5369TIP3   OH237741   2.983   0.219   7.487 -0.2771  0.2984  0.4637
 5369TIP3    H137742   2.933   0.268   7.421  0.7421  0.6751 -0.0449
 5369TIP3    H237743   3.072   0.216   7.452 -0.1058 -1.0839  0.9641
 5370TIP3   OH237744   5.487   0.784   2.203 -0.1441 -0.2206  0.0209
 5370TIP3    H137745   5.440   0.703   2.225  0.4686 -0.0681  2.1018
 5370TIP3    H237746   5.446   0.851   2.256  1.2851  0.2455  0.5818
 5371TIP3   OH237747   4.237   6.295   0.121 -0.9595 -0.0974 -0.2685
 5371TIP3    H137748   4.311   6.242   0.151 -0.5452  0.9710  0.6634
 5371TIP3    H237749   4.176   6.296   0.195 -1.0968  0.4906 -0.3876
 5372TIP3   OH237750   1.802   5.966   7.982 -0.2442 -0.3042  0.6228
 5372TIP3    H137751   1.879   5.910   7.982 -0.5849 -0.7932 -0.2748
 5372TIP3    H237752   1.731   5.909   8.011 -0.2375  0.2280  1.7796
 5373TIP3   OH237753   6.502   6.531   8.474  0.1033  0.2101  0.4752
 5373TIP3    H137754   6.568   6.535   8.406  1.0318 -0.3931  1.3132
 5373TIP3    H237755   6.536   6.587   8.544 -0.5707  0.3856  0.6703
 5374TIP3   OH237756   3.331   0.064   0.677  0.0573 -0.1120  0.3486
 5374TIP3    H137757   3.391   0.001   0.637  1.0061 -0.1063  1.6936
 5374TIP3    H237758   3.310   0.025   0.763  1.3615  1.7757  1.5890
 5375TIP3   OH237759   5.273   0.499   6.957  0.4880  0.0974  1.2070
 5375TIP3    H137760   5.363   0.529   6.965  1.0378 -1.5798  1.5441
 5375TIP3    H237761   5.252   0.511   6.865  0.9355  0.8006  1.1892
 5376TIP3   OH237762   3.337   2.922   0.274  0.0955 -0.1632 -0.2098
 5376TIP3    H137763   3.351   2.902   0.366  0.1138  0.3358 -0.0994
 5376TIP3    H237764   3.421   2.958   0.244  0.5308 -1.5633 -0.7790
 5377TIP3   OH237765   2.103   6.000   1.298  0.1255  0.3619 -0.5741
 5377TIP3    H137766   2.061   5.948   1.230  0.4322 -0.4349 -0.1725
 5377TIP3    H237767   2.140   6.075   1.252 -1.3028  0.8359 -0.9962
 5378TIP3   OH237768   1.504   1.413   8.560  0.0545 -0.3177 -0.4539
 5378TIP3    H137769   1.589   1.373   8.583 -0.2016 -0.5733  0.0818
 5378TIP3    H237770   1.523   1.506   8.551 -0.0011  0.0089  1.9475
 5379TIP3   OH237771   2.331   4.715   1.842  0.5750 -0.4114  0.1190
 5379TIP3    H137772   2.261   4.707   1.907  1.1490 -1.4051  0.6427
 5379TIP3    H237773   2.366   4.626   1.834  0.5334 -0.3176 -1.5489
 5380TIP3   OH237774   0.490   5.979   1.827  0.5196  0.8386 -0.3416
 5380TIP3    H137775   0.526   6.019   1.748 -0.2622 -0.3846 -1.3490
 5380TIP3    H237776   0.493   5.885   1.811 -1.6263  0.6282  0.1619
 5381TIP3   OH237777   3.759   2.685   8.291 -0.3002 -0.8805  0.0983
 5381TIP3    H137778   3.688   2.644   8.242  0.2599  0.5904 -2.1099
 5381TIP3    H237779   3.794   2.615   8.346 -2.7818 -1.8794  0.5228
 5382TIP3   OH237780   5.970   3.740   1.977 -0.1642 -0.0662  0.5659
 5382TIP3    H137781   5.927   3.655   1.970  0.1650 -0.3152  1.5186
 5382TIP3    H237782   5.928   3.782   2.052 -0.9033  0.9598 -0.3843
 5383TIP3   OH237783   3.886   2.477   1.766 -0.0481 -0.4440  0.8052
 5383TIP3    H137784   3.844   2.392   1.761 -1.3126  0.0931  1.8354
 5383TIP3    H237785   3.928   2.478   1.852 -1.4120  0.5716  1.4797
 5384TIP3   OH237786   3.606   4.858   0.096 -0.1021 -0.1787  0.7705
 5384TIP3    H137787   3.604   4.843   0.002 -0.6615  3.0034  0.1696
 5384TIP3    H237788   3.542   4.796   0.132  0.6619 -1.9607 -0.7733
 5385TIP3   OH237789   3.857   3.390   1.064 -0.0806 -0.5481  0.1397
 5385TIP3    H137790   3.906   3.335   1.003 -0.8543 -1.7467  0.5666
 5385TIP3    H237791   3.925   3.429   1.120  0.6002  0.2798 -1.2142
 5386TIP3   OH237792   2.804   3.718   1.252 -0.3038 -0.1256 -0.0797
 5386TIP3    H137793   2.870   3.731   1.185  0.2977 -2.6688 -0.0781
 5386TIP3    H237794   2.842   3.756   1.331  1.2317 -1.5357 -0.0847
 5387TIP3   OH237795   3.040   5.310   0.636  0.1102  0.6281  0.1583
 5387TIP3    H137796   2.945   5.307   0.648  0.1162 -0.2218  0.0681
 5387TIP3    H237797   3.055   5.386   0.580 -0.7703 -0.7227 -2.0492
 5388TIP3   OH237798   5.613   6.418   7.340 -0.1144  0.2167  0.5476
 5388TIP3    H137799   5.606   6.344   7.280  0.0049  0.2008  0.5527
 5388TIP3    H237800   5.613   6.380   7.427  0.0687  0.2144  0.5465
 5389TIP3   OH237801   5.086   5.338   8.210  0.0152  0.0130 -0.0207
 5389TIP3    H137802   5.065   5.284   8.286 -0.0141 -0.2803 -0.2397
 5389TIP3    H237803   5.166   5.385   8.236  0.4995 -0.7397 -0.1360
 5390TIP3   OH237804   5.033   2.985   8.595  0.1201 -0.0070  0.5311
 5390TIP3    H137805   5.068   2.971   8.683  1.1834  0.2854  0.1774
 5390TIP3    H237806   5.088   3.055   8.559  0.2270 -0.6862 -0.6512
 5391TIP3   OH237807   0.642   3.378   7.043  0.0908  0.3911 -0.4647
 5391TIP3    H137808   0.556   3.355   7.076 -0.2819  1.1351 -0.8826
 5391TIP3    H237809   0.627   3.456   6.989  0.9156  0.1345 -1.0946
 5392TIP3   OH237810   1.793   1.553   0.280 -0.4099 -0.4185  0.3947
 5392TIP3    H137811   1.872   1.500   0.284  0.2246  0.5582  1.4190
 5392TIP3    H237812   1.753   1.531   0.196  1.2256 -0.5372 -0.3784
 5393TIP3   OH237813   5.244   5.904   8.373 -0.4704 -0.2218 -0.0427
 5393TIP3    H137814   5.232   5.917   8.279 -2.1433 -0.8154  0.0555
 5393TIP3    H237815   5.181   5.963   8.414  0.7305  0.5626  0.7581
 5394TIP3   OH237816   0.763   1.705   8.177 -0.1772  0.6854  0.2651
 5394TIP3    H137817   0.703   1.645   8.221 -0.8006  0.7648 -0.4543
 5394TIP3    H237818   0.849   1.685   8.214 -0.8587  1.7537  2.6313
 5395TIP3   OH237819   6.390   5.691   7.419 -0.3355  0.4796  0.4654
 5395TIP3    H137820   6.403   5.770   7.366 -1.3359 -1.4898 -3.0585
 5395TIP3    H237821   6.474   5.677   7.462  0.1956  2.8206  0.3082
 5396TIP3   OH237822   6.763   0.259   0.218 -0.1247  0.9132  0.6451
 5396TIP3    H137823   6.781   0.166   0.202  1.0413  0.8318  2.2133
 5396TIP3    H237824   6.669   0.268   0.201 -0.3212 -0.6285  0.7421
 5397TIP3   OH237825   1.752   2.749   1.134 -1.0141 -0.0036 -0.0915
 5397TIP3    H137826   1.833   2.747   1.085 -0.9892  0.3013 -0.0619
 5397TIP3    H237827   1.706   2.827   1.103 -1.9571 -0.9581 -1.1658
 5398TIP3   OH237828   2.494   5.087   1.386 -0.1309  0.9535 -0.3639
 5398TIP3    H137829   2.475   5.034   1.309 -0.3135 -0.2726  0.4919
 5398TIP3    H237830   2.413   5.136   1.403 -1.3901 -1.4716  1.1047
 5399TIP3   OH237831   0.453   5.595   7.143  0.5437  0.0856  0.3999
 5399TIP3    H137832   0.384   5.662   7.143 -0.5777 -0.9828  2.2945
 5399TIP3    H237833   0.447   5.555   7.056 -1.4579 -0.1433  0.5842
 5400TIP3   OH237834   0.484   0.214   1.092 -0.3283  0.2549 -0.0237
 5400TIP3    H137835   0.551   0.250   1.033 -0.1310 -0.1134 -0.0264
 5400TIP3    H237836   0.434   0.154   1.037  1.3618 -1.9606  0.7326
 5401TIP3   OH237837   0.403   3.702   1.885 -0.4486 -0.0747  0.7540
 5401TIP3    H137838   0.441   3.703   1.972 -1.7583  0.0196  1.3478
 5401TIP3    H237839   0.313   3.672   1.898 -0.6009 -0.2866 -0.5915
 5402TIP3   OH237840   2.964   0.826   8.176  0.6143 -0.2133  0.2833
 5402TIP3    H137841   3.023   0.785   8.240  0.2597 -1.8906 -0.4243
 5402TIP3    H237842   2.952   0.760   8.108 -0.4412  0.8753 -0.6345
 5403TIP3   OH237843   3.812   4.230   8.135 -0.1136  0.4518 -0.4342
 5403TIP3    H137844   3.852   4.305   8.092 -0.9610 -0.1872 -2.4609
 5403TIP3    H237845   3.805   4.256   8.227  0.3806  2.5060 -0.9210
 5404TIP3   OH237846   2.762   3.299   6.853  0.2613 -0.1578  0.1595
 5404TIP3    H137847   2.797   3.388   6.854  1.5347 -0.6348 -0.0809
 5404TIP3    H237848   2.832   3.246   6.814 -1.4389 -0.8720 -2.0990
 5405TIP3   OH237849   6.116   1.998   6.373  0.4717 -0.3528  0.7285
 5405TIP3    H137850   6.102   1.906   6.395  0.9987 -0.4838  0.5226
 5405TIP3    H237851   6.049   2.018   6.307  1.1913 -0.9527 -0.1964
 5406TIP3   OH237852   3.320   6.321   0.592  0.1237 -0.1935  0.8743
 5406TIP3    H137853   3.267   6.243   0.606 -1.8990  0.9386  0.1113
 5406TIP3    H237854   3.319   6.333   0.497  3.3913 -1.1258  0.6206
 5407TIP3   OH237855   0.306   3.037   6.830  0.6347 -0.6457  0.1090
 5407TIP3    H137856   0.370   2.973   6.863  0.9096 -1.1789 -1.3933
 5407TIP3    H237857   0.356   3.118   6.819  0.8665 -0.8405 -0.2860
 5408TIP3   OH237858   5.569   0.983   7.243 -0.1241 -0.2349  0.1499
 5408TIP3    H137859   5.595   1.003   7.153 -0.2087  0.9277  0.3720
 5408TIP3    H237860   5.651   0.957   7.286 -0.0756 -0.7510 -0.2379
 5409TIP3   OH237861   2.671   4.416   0.855 -0.9136  0.1501 -0.1730
 5409TIP3    H137862   2.727   4.339   0.865 -1.4338  0.0282  2.6844
 5409TIP3    H237863   2.583   4.379   0.847 -0.8670  0.4074 -2.4367
 5410TIP3   OH237864   0.769   3.988   1.034 -0.5787 -0.1938  0.1445
 5410TIP3    H137865   0.747   4.073   0.997  0.3204 -0.0779 -0.1610
 5410TIP3    H237866   0.850   3.962   0.989 -1.1205 -1.4592 -0.1639
 5411TIP3   OH237867   6.627   5.009   8.288  0.0098 -0.2094  0.2219
 5411TIP3    H137868   6.667   5.093   8.265 -0.9847  0.1622 -0.1884
 5411TIP3    H237869   6.639   5.003   8.383  0.2874  0.2928  0.2244
 5412TIP3   OH237870   0.481   2.171   6.789 -0.5170 -0.2298  0.1202
 5412TIP3    H137871   0.458   2.086   6.753  0.4003 -0.7180  0.6500
 5412TIP3    H237872   0.435   2.175   6.873 -0.8265 -0.0551 -0.0551
 5413TIP3   OH237873   3.660   3.347   7.137 -0.0585 -0.2221 -0.1913
 5413TIP3    H137874   3.620   3.351   7.050 -0.3273 -0.2363 -0.0694
 5413TIP3    H237875   3.588   3.326   7.196  0.0117  0.3532  0.1118
 5414TIP3   OH237876   3.173   2.790   2.650 -0.0179  0.4719 -0.1923
 5414TIP3    H137877   3.161   2.865   2.708 -1.0836  0.4790 -0.4061
 5414TIP3    H237878   3.227   2.824   2.578  2.2536  0.1951  1.2691
 5415TIP3   OH237879   6.167   4.520   0.497  0.7168  0.0556  0.3193
 5415TIP3    H137880   6.146   4.604   0.539 -1.3631 -0.4175  0.3400
 5415TIP3    H237881   6.087   4.468   0.507  1.2798 -1.2257 -1.4341
 5416TIP3   OH237882   0.382   3.846   6.922 -0.3704  0.7505 -0.2430
 5416TIP3    H137883   0.336   3.924   6.891 -1.0402 -0.2270 -1.8262
 5416TIP3    H237884   0.431   3.815   6.846 -0.5051 -0.6318  0.2114
 5417TIP3   OH237885   2.162   6.707   0.671  0.3174  0.1447  0.0202
 5417TIP3    H137886   2.182   6.613   0.665  0.5989  0.1861  0.3137
 5417TIP3    H237887   2.074   6.710   0.707 -0.0152 -0.0252 -0.7493
 5418TIP3   OH237888   3.173   6.076   7.804 -0.2696 -0.0970 -0.3418
 5418TIP3    H137889   3.223   6.001   7.770 -0.0952  0.6138 -1.7202
 5418TIP3    H237890   3.235   6.149   7.804 -0.0788 -0.1592  2.1601
 5419TIP3   OH237891   0.786   0.551   1.213  0.1542 -0.0082  0.4237
 5419TIP3    H137892   0.812   0.492   1.142 -0.2111 -0.6898  0.8431
 5419TIP3    H237893   0.784   0.638   1.172 -0.6246 -0.4643 -0.5526
 5420TIP3   OH237894   4.567   5.892   7.855  0.5513 -0.0622 -0.1271
 5420TIP3    H137895   4.576   5.898   7.950 -2.7882  1.6544  0.2480
 5420TIP3    H237896   4.624   5.960   7.820  0.6188  0.3426  0.7613
 5421TIP3   OH237897   0.477   4.471   6.977  0.1661 -0.1211 -0.3818
 5421TIP3    H137898   0.540   4.453   6.908  0.0864 -1.0491 -0.2320
 5421TIP3    H237899   0.471   4.566   6.981  2.3324  0.0492  0.2811
 5422TIP3   OH237900   2.317   5.084   8.634  0.1455  0.0601  0.2852
 5422TIP3    H137901   2.408   5.055   8.637  0.5410  1.1769 -0.4272
 5422TIP3    H237902   2.320   5.169   8.591 -1.4358 -0.7052 -1.4815
 5423TIP3   OH237903   2.781   5.445   0.051  0.2624 -0.2121 -0.1185
 5423TIP3    H137904   2.861   5.492   0.026  0.6939 -0.9802 -0.2180
 5423TIP3    H237905   2.798   5.417   0.141  0.1216 -0.4250 -0.1588
 5424TIP3   OH237906   5.616   1.778   1.330  0.1567 -0.4360 -0.0639
 5424TIP3    H137907   5.603   1.806   1.239  0.8470  1.4143  0.3777
 5424TIP3    H237908   5.585   1.687   1.331 -0.5287 -0.2737 -1.9788
 5425TIP3   OH237909   1.180   4.364   8.841  0.1476 -0.2998  0.0833
 5425TIP3    H137910   1.136   4.280   8.859  1.9293 -1.3613 -0.2313
 5425TIP3    H237911   1.185   4.407   8.927 -0.5302 -0.6388  0.3017
 5426TIP3   OH237912   5.611   0.782   1.947  0.4955 -0.1215 -0.0269
 5426TIP3    H137913   5.563   0.799   2.029  0.9189  2.5858 -0.2507
 5426TIP3    H237914   5.698   0.755   1.975  0.4145  0.0789  0.4308
 5427TIP3   OH237915   2.844   1.767   7.326 -0.4046 -0.1769  0.0062
 5427TIP3    H137916   2.826   1.678   7.295  0.2124  0.4679 -2.4352
 5427TIP3    H237917   2.938   1.768   7.345 -0.4867 -0.1321  0.4330
 5428TIP3   OH237918   4.395   3.127   0.339 -0.1468  0.4563  0.8032
 5428TIP3    H137919   4.482   3.130   0.380  2.1480  0.7284 -3.5624
 5428TIP3    H237920   4.368   3.219   0.333  0.2887  0.5510  0.2525
 5429TIP3   OH237921   4.672   0.537   0.137  0.4163 -0.1910  0.2067
 5429TIP3    H137922   4.696   0.598   0.066  1.7157  0.5496  1.2338
 5429TIP3    H237923   4.754   0.521   0.183 -0.3255 -1.0056  1.2898
 5430TIP3   OH237924   5.956   4.350   0.122  0.0510  0.4252  0.6791
 5430TIP3    H137925   5.942   4.405   0.045 -1.3502 -0.5595  0.2010
 5430TIP3    H237926   5.918   4.400   0.194 -0.4616  0.4697  0.3846
 5431TIP3   OH237927   2.430   3.811   7.374 -0.1523  0.5186 -0.0616
 5431TIP3    H137928   2.372   3.765   7.436  0.5557 -0.4753 -0.1209
 5431TIP3    H237929   2.453   3.892   7.419  1.6036 -0.8610  1.7174
 5432TIP3   OH237930   0.560   4.546   2.144  0.5735 -0.3733  0.1145
 5432TIP3    H137931   0.566   4.619   2.083  1.1073 -0.1248  0.4636
 5432TIP3    H237932   0.646   4.504   2.139  0.4137 -0.7174  0.2415
 5433TIP3   OH237933   5.809   4.117   8.117  0.5959  0.2274  0.4287
 5433TIP3    H137934   5.807   4.069   8.034  2.6025 -1.4010  1.2591
 5433TIP3    H237935   5.744   4.074   8.172  1.0088 -0.2805  0.5181
 5434TIP3   OH237936   3.959   2.165   0.719 -0.3301 -0.4488 -0.0234
 5434TIP3    H137937   3.954   2.225   0.645 -1.5214 -1.0300 -0.4369
 5434TIP3    H237938   4.001   2.086   0.684 -0.0270 -0.3755  0.1692
 5435TIP3   OH237939   2.630   5.014   1.605 -0.2894  0.2991  0.4620
 5435TIP3    H137940   2.584   5.030   1.523 -0.7380 -0.0628  0.6389
 5435TIP3    H237941   2.563   4.979   1.664 -0.0527  0.8788  1.0932
 5436TIP3   OH237942   1.616   2.373   7.356 -0.6278  0.0453 -0.0760
 5436TIP3    H137943   1.671   2.295   7.354  2.0219  1.7136  1.9741
 5436TIP3    H237944   1.613   2.403   7.266  1.8890 -0.1308 -0.2797
 5437TIP3   OH237945   4.118   5.437   1.175 -0.1189  0.5325 -0.0743
 5437TIP3    H137946   4.147   5.352   1.141 -1.9511 -0.1041 -0.1773
 5437TIP3    H237947   4.023   5.437   1.161 -0.3984  1.8765  1.5226
 5438TIP3   OH237948   0.894   0.065   7.190 -0.3174 -0.0417  0.1081
 5438TIP3    H137949   0.936   0.095   7.271 -0.4700 -0.6069  0.4030
 5438TIP3    H237950   0.871   0.145   7.143  2.3168  0.3323 -0.7082
 5439TIP3   OH237951   2.605   5.903   8.890 -0.8483 -0.7057 -0.1604
 5439TIP3    H137952   2.565   5.943   8.813 -0.2092  1.0245  0.3413
 5439TIP3    H237953   2.564   5.948   8.964 -0.6184 -1.5026  0.4684
 5440TIP3   OH237954   6.173   1.539   2.001 -0.0571 -0.2248  0.1954
 5440TIP3    H137955   6.175   1.605   2.071 -2.5252  0.3446 -0.1415
 5440TIP3    H237956   6.197   1.457   2.043  0.4310  0.4465  1.2475
 5441TIP3   OH237957   4.394   0.355   7.110 -0.2192  0.7105 -0.0031
 5441TIP3    H137958   4.395   0.374   7.016  1.1203 -1.9680 -0.6002
 5441TIP3    H237959   4.306   0.321   7.126 -0.0812  0.0669 -0.5590
 5442TIP3   OH237960   1.736   0.688   1.640  0.3496 -0.4811 -0.2303
 5442TIP3    H137961   1.771   0.606   1.607 -0.8186 -0.9238 -0.3941
 5442TIP3    H237962   1.752   0.685   1.734 -0.3581 -1.2360 -0.1313
 5443TIP3   OH237963   2.302   5.897   0.047  0.7010  0.3521 -0.2233
 5443TIP3    H137964   2.351   5.922   0.126  1.3593  2.5371 -1.2363
 5443TIP3    H237965   2.291   5.979  -0.001 -2.6258 -0.2867 -0.8240
 5444TIP3   OH237966   0.999   5.161   0.467  0.4706 -0.3348 -0.1134
 5444TIP3    H137967   0.919   5.159   0.519  1.3186  0.2163  1.2742
 5444TIP3    H237968   0.975   5.208   0.387 -0.5773 -0.1580  0.2947
 5445TIP3   OH237969   5.539   4.245   0.013  0.4923  0.2620 -0.3302
 5445TIP3    H137970   5.617   4.191   0.029 -0.0755 -0.3928  0.2692
 5445TIP3    H237971   5.468   4.199   0.058 -0.8018 -0.5624 -3.0387
 5446TIP3   OH237972   2.266   1.893   7.207 -0.0832 -0.0413  0.1682
 5446TIP3    H137973   2.346   1.882   7.258  0.4482  0.1407 -0.5987
 5446TIP3    H237974   2.214   1.815   7.226  0.8921 -0.8514 -0.3816
 5447TIP3   OH237975   5.075   2.730   7.384  0.3346 -0.3523 -0.3252
 5447TIP3    H137976   4.992   2.772   7.409  2.1022  2.5764  1.2342
 5447TIP3    H237977   5.080   2.739   7.289  0.5131  3.0302 -0.0953
 5448TIP3   OH237978   2.626   2.908   7.208 -0.0908 -0.4768 -0.1075
 5448TIP3    H137979   2.678   2.873   7.281 -0.7793  2.8552  2.2384
 5448TIP3    H237980   2.536   2.912   7.242 -0.4546  1.0712 -1.1145
 5449TIP3   OH237981   0.470   3.405   8.730  0.2292 -0.5311 -0.4000
 5449TIP3    H137982   0.500   3.475   8.787 -0.7276 -1.7651  1.7084
 5449TIP3    H237983   0.397   3.443   8.682 -2.1309 -0.7497  2.7296
 5450TIP3   OH237984   3.259   3.745   7.453 -0.1360 -0.1893  0.0318
 5450TIP3    H137985   3.210   3.827   7.452 -0.1874 -0.2155  0.3722
 5450TIP3    H237986   3.210   3.688   7.393 -0.6875 -0.3084  0.5817
 5451TIP3   OH237987   0.818   0.513   2.235 -0.7931 -0.0381  0.2709
 5451TIP3    H137988   0.874   0.461   2.177 -1.3192 -1.1703  0.7558
 5451TIP3    H237989   0.879   0.553   2.297 -0.5212 -1.4087  0.9087
 5452TIP3   OH237990   2.375   5.645   8.395  0.1647  0.0281  0.5998
 5452TIP3    H137991   2.309   5.628   8.462  1.1993 -1.1660  1.3638
 5452TIP3    H237992   2.439   5.701   8.439  0.1016  0.4664  0.1377
 5453TIP3   OH237993   3.885   1.242   0.795  0.3139  0.5199 -0.2515
 5453TIP3    H137994   3.828   1.229   0.720  0.4889  2.0645 -0.6800
 5453TIP3    H237995   3.836   1.206   0.869 -0.2103 -0.2657 -0.9620
 5454TIP3   OH237996   0.057   1.242   1.389  0.5386  0.1666  0.0378
 5454TIP3    H137997   0.093   1.201   1.467  0.9120  1.0369  0.3405
 5454TIP3    H237998  -0.035   1.257   1.410 -0.2167 -2.4980 -0.9162
 5455TIP3   OH237999   4.643   0.659   0.958 -0.1935 -0.4368  0.4588
 5455TIP3    H138000   4.634   0.611   0.876 -1.0711  0.6540 -0.1089
 5455TIP3    H238001   4.701   0.732   0.936 -2.6790  1.5415 -0.0335
 5456TIP3   OH238002   5.384   3.914   1.110 -0.0102  0.2543 -0.8051
 5456TIP3    H138003   5.382   3.987   1.172  2.9237  0.4928 -0.8179
 5456TIP3    H238004   5.419   3.953   1.030  1.6656 -1.1165 -0.7859
 5457TIP3   OH238005   5.108   3.406   0.131  0.2636 -0.3994 -0.1780
 5457TIP3    H138006   5.136   3.473   0.192  0.1582  1.4912 -2.0768
 5457TIP3    H238007   5.048   3.351   0.181  1.4088  0.0845  1.8105
 5458TIP3   OH238008   3.506   6.707   6.845 -0.1678 -0.5191 -0.2712
 5458TIP3    H138009   3.579   6.665   6.890  0.9130  0.7580 -0.7855
 5458TIP3    H238010   3.428   6.668   6.885  0.7136  0.2919  2.5020
 5459TIP3   OH238011   2.831   2.039   1.784 -0.2738 -0.3667  0.0457
 5459TIP3    H138012   2.828   2.133   1.765  0.1737 -0.1424  1.0562
 5459TIP3    H238013   2.757   2.025   1.843 -0.7620 -0.7899 -0.6510
 5460TIP3   OH238014   5.299   3.813   8.691  0.2940  0.2338  0.0946
 5460TIP3    H138015   5.312   3.735   8.637  1.1161  1.0279 -0.9132
 5460TIP3    H238016   5.215   3.799   8.735  0.1950 -0.9847 -0.4489
 5461TIP3   OH238017   5.617   3.019   7.315  0.3380 -0.6953 -0.3109
 5461TIP3    H138018   5.636   3.083   7.383 -1.1645 -0.1622 -0.3719
 5461TIP3    H238019   5.649   3.059   7.234 -1.5722  0.4997 -0.5189
 5462TIP3   OH238020   2.090   3.043   7.697  0.0378 -0.2570  0.5086
 5462TIP3    H138021   2.148   3.089   7.758 -0.2501  0.2321  0.4175
 5462TIP3    H238022   2.109   2.950   7.712  1.6549 -0.0904 -0.3004
 5463TIP3   OH238023   6.040   3.604   1.083  0.6748 -0.6595 -0.1460
 5463TIP3    H138024   5.996   3.614   1.168 -0.7253  1.5647 -1.0366
 5463TIP3    H238025   6.108   3.539   1.099 -0.6333 -1.5896  2.2335
 5464TIP3   OH238026   0.275   1.344   8.737 -0.5768  0.0844 -0.4291
 5464TIP3    H138027   0.281   1.436   8.762 -1.8490  0.6339 -1.9882
 5464TIP3    H238028   0.187   1.317   8.763  0.2930 -1.1950  1.4334
 5465TIP3   OH238029   0.975   6.058   0.060  0.3037  0.4896  0.2663
 5465TIP3    H138030   0.925   5.976   0.053  1.6604 -0.4545  1.0704
 5465TIP3    H238031   0.956   6.104  -0.022 -0.7727 -0.4586 -0.0562
 5466TIP3   OH238032   6.030   2.724   1.135  0.2645  0.1821 -0.1273
 5466TIP3    H138033   6.049   2.665   1.062 -0.3576 -0.1091 -0.0583
 5466TIP3    H238034   6.114   2.767   1.153  0.8217 -0.9394  0.0638
 5467TIP3   OH238035   5.959   5.149   1.600  0.6015 -0.1636 -0.2298
 5467TIP3    H138036   5.977   5.200   1.521 -0.2767  1.8578  0.8119
 5467TIP3    H238037   6.040   5.156   1.652  1.2384 -1.6285 -0.9758
 5468TIP3   OH238038   1.303   6.069   6.445 -0.2100  0.2822 -0.0515
 5468TIP3    H138039   1.325   6.066   6.538  0.8748 -0.1205 -0.3140
 5468TIP3    H238040   1.361   6.006   6.404 -1.9364 -0.9031 -0.7774
 5469TIP3   OH238041   5.027   3.433   0.610  0.3470  0.4370  0.4355
 5469TIP3    H138042   5.097   3.497   0.627 -0.7994  1.9199 -0.2427
 5469TIP3    H238043   4.992   3.414   0.697 -0.1825  1.8080  0.5569
 5470TIP3   OH238044   1.545   0.785   2.637  0.2004  0.3982 -0.0911
 5470TIP3    H138045   1.483   0.851   2.671 -0.7284 -1.9947  3.4816
 5470TIP3    H238046   1.497   0.743   2.566 -1.0060  0.7219  0.4820
 5471TIP3   OH238047   0.123   4.189   1.043  0.5325  0.0377  0.2879
 5471TIP3    H138048   0.041   4.139   1.038 -0.5187  1.1756  3.5323
 5471TIP3    H238049   0.137   4.220   0.953 -1.3043 -2.0790 -0.8542
 5472TIP3   OH238050   0.646   2.037   0.333 -0.3890 -0.5102  0.2101
 5472TIP3    H138051   0.709   2.099   0.299 -2.1152 -0.2148 -2.8150
 5472TIP3    H238052   0.666   1.955   0.288 -2.6042 -0.1667 -1.6045
 5473TIP3   OH238053   4.486   6.152   7.663 -0.0819  0.5104  0.3430
 5473TIP3    H138054   4.578   6.175   7.649  0.1368 -0.1675  0.6098
 5473TIP3    H238055   4.464   6.188   7.749 -0.0049  0.5009  0.3662
 5474TIP3   OH238056   4.364   0.823   0.889 -0.2449 -0.1725  0.6863
 5474TIP3    H138057   4.287   0.835   0.835 -0.6475  2.2835  1.6696
 5474TIP3    H238058   4.438   0.838   0.830 -0.4519 -2.5257 -0.2539
 5475TIP3   OH238059   3.003   5.934   7.991 -0.0119  0.2916 -0.4107
 5475TIP3    H138060   3.032   6.007   7.936 -0.3270 -0.3688 -1.4985
 5475TIP3    H238061   3.005   5.858   7.932 -2.1156 -0.1220 -0.0294
 5476TIP3   OH238062   6.625   1.716   7.010  0.7768 -0.0754 -0.8456
 5476TIP3    H138063   6.714   1.684   7.024  1.2543  0.2542 -2.8467
 5476TIP3    H238064   6.633   1.778   6.938 -1.3016 -1.3391 -2.2768
 5477TIP3   OH238065   0.186   6.612   7.627 -0.2925  0.2042  0.5042
 5477TIP3    H138066   0.256   6.633   7.689  0.4083 -1.0776  0.1756
 5477TIP3    H238067   0.156   6.525   7.654 -0.9028  0.2038 -0.1496
 5478TIP3   OH238068   3.539   1.277   0.301 -0.2724  0.5687 -0.2571
 5478TIP3    H138069   3.601   1.210   0.269  0.1082  0.2675  1.0361
 5478TIP3    H238070   3.595   1.349   0.328 -0.2780 -0.3644  2.5151
 5479TIP3   OH238071   4.831   2.828   1.592 -0.2844 -0.2039  1.1338
 5479TIP3    H138072   4.765   2.780   1.643  0.0992  0.1068  1.9351
 5479TIP3    H238073   4.814   2.803   1.501  1.0175 -3.2843  1.6311
 5480TIP3   OH238074   0.015   6.490   2.394  0.4028 -0.1403  0.1585
 5480TIP3    H138075   0.048   6.413   2.441  2.4230  0.6751  0.1625
 5480TIP3    H238076   0.091   6.546   2.382 -0.5336  0.8125 -1.9334
 5481TIP3   OH238077   3.994   0.792   8.578 -0.1789 -0.1446 -0.2785
 5481TIP3    H138078   4.047   0.848   8.521  0.8484 -1.5504 -0.7710
 5481TIP3    H238079   3.943   0.738   8.518  0.2405 -1.0181  0.1369
 5482TIP3   OH238080   6.086   4.003   0.482  0.1771 -0.0613 -0.3807
 5482TIP3    H138081   6.107   4.079   0.427 -2.2137  1.6717  0.8952
 5482TIP3    H238082   6.147   4.009   0.556  2.6039 -1.7253 -2.1028
 5483TIP3   OH238083   6.687   3.766   0.272 -0.1255  1.0169 -0.7494
 5483TIP3    H138084   6.656   3.816   0.347 -0.5738 -0.7139  0.2696
 5483TIP3    H238085   6.755   3.822   0.233 -0.3890  2.2695  0.4974
 5484TIP3   OH238086   0.102   3.448   0.039 -0.5503 -0.6801  0.1441
 5484TIP3    H138087   0.140   3.529   0.073  2.0407 -1.1172 -1.4302
 5484TIP3    H238088   0.057   3.475  -0.041  1.2459 -0.8266 -0.9918
 5485TIP3   OH238089   2.410   6.491   8.545 -0.2848 -0.3603 -0.2188
 5485TIP3    H138090   2.359   6.572   8.539  2.6763  1.9147  1.9105
 5485TIP3    H238091   2.441   6.476   8.456 -0.0493  1.5139 -0.4995
 5486TIP3   OH238092   0.291   4.473   6.678 -0.3357  0.0648 -0.2409
 5486TIP3    H138093   0.217   4.508   6.727 -0.0719  2.0421 -1.1713
 5486TIP3    H238094   0.265   4.383   6.657 -2.5351  0.7360 -0.6609
 5487TIP3   OH238095   2.574   5.841   6.770 -0.3595  0.0579 -0.5599
 5487TIP3    H138096   2.620   5.768   6.727 -2.6360 -2.2042  0.5168
 5487TIP3    H238097   2.563   5.906   6.701  2.4468 -0.2173 -1.3851
 5488TIP3   OH238098   3.965   5.662   7.367  0.1806 -0.2824 -0.3841
 5488TIP3    H138099   4.050   5.700   7.385  1.2045 -2.1297 -1.0149
 5488TIP3    H238100   3.935   5.707   7.287  0.2396  0.8270  0.2041
 5489TIP3   OH238101   4.524   4.528   8.450  0.0815 -0.4920 -0.4616
 5489TIP3    H138102   4.467   4.575   8.512 -0.4952  0.3832 -1.6262
 5489TIP3    H238103   4.594   4.590   8.431  1.6587 -1.6658  1.1864
 5490TIP3   OH238104   6.402   5.746   1.843  0.1760  0.1642  0.3271
 5490TIP3    H138105   6.444   5.739   1.929  1.2093  1.4269 -0.0368
 5490TIP3    H238106   6.345   5.823   1.850  2.1036  1.7949 -0.7783
 5491TIP3   OH238107   5.304   2.457   1.208 -0.1894  0.1214  0.2537
 5491TIP3    H138108   5.384   2.496   1.243 -0.1884  1.4488 -1.1464
 5491TIP3    H238109   5.326   2.433   1.118 -1.0150 -0.6538  0.2372
 5492TIP3   OH238110   1.877   0.777   0.502 -0.0118  0.0427 -0.2618
 5492TIP3    H138111   1.950   0.771   0.565  0.7430  0.2377 -1.1018
 5492TIP3    H238112   1.838   0.862   0.519  1.1250  0.7362 -1.0382
 5493TIP3   OH238113   2.421   0.046   8.085  0.2642  0.2920  0.3160
 5493TIP3    H138114   2.407  -0.020   8.018 -0.3188  0.5118  0.2124
 5493TIP3    H238115   2.357   0.026   8.153 -1.7766  2.2711 -0.8893
 5494TIP3   OH238116   4.278   2.965   7.849 -0.0885 -0.0424 -0.5195
 5494TIP3    H138117   4.184   2.974   7.868 -0.5660 -3.3589 -0.7820
 5494TIP3    H238118   4.283   2.971   7.754  0.0154  0.3672 -0.4901
 5495TIP3   OH238119   4.789   4.418   7.606 -0.8052 -0.2285  0.4447
 5495TIP3    H138120   4.869   4.371   7.586 -2.0035 -0.9719 -3.4130
 5495TIP3    H238121   4.742   4.361   7.668 -0.3109 -2.0245 -0.7639
 5496TIP3   OH238122   1.921   6.368   8.294  0.4799 -0.3234  0.1315
 5496TIP3    H138123   1.998   6.316   8.316  1.3973  0.2118 -1.6761
 5496TIP3    H238124   1.932   6.449   8.344  1.1054 -0.2430 -0.1286
 5497TIP3   OH238125   2.356   0.786   8.664  0.1810 -0.0158 -0.0127
 5497TIP3    H138126   2.365   0.877   8.690 -1.0079  0.5365 -1.4705
 5497TIP3    H238127   2.324   0.742   8.743 -0.0409  0.9764  0.4608
 5498TIP3   OH238128   5.853   2.485   8.297  0.2392  0.4876 -0.3171
 5498TIP3    H138129   5.833   2.560   8.353 -0.1889 -0.5878  0.9966
 5498TIP3    H238130   5.794   2.495   8.222 -1.2605  0.3787  0.8197
 5499TIP3   OH238131   6.368   5.416   7.353 -0.0824 -0.1090  0.5180
 5499TIP3    H138132   6.392   5.507   7.335 -0.1822 -0.0640  0.6140
 5499TIP3    H238133   6.283   5.405   7.310  0.1885 -0.3202  0.0268
 5500TIP3   OH238134   5.153   4.175   6.796 -0.0003  0.2005  0.1740
 5500TIP3    H138135   5.067   4.204   6.827 -0.1036  1.4866 -1.1683
 5500TIP3    H238136   5.135   4.136   6.710  0.7365  0.4079 -0.0777
 5501TIP3   OH238137   5.534   3.069   1.294  0.0062 -0.0715  0.2568
 5501TIP3    H138138   5.475   3.143   1.309  1.2703  1.1618 -0.5453
 5501TIP3    H238139   5.504   3.031   1.211 -1.5321 -1.4129  1.3631
 5502TIP3   OH238140   2.184   5.199   6.971 -0.2483 -0.5225 -0.1593
 5502TIP3    H138141   2.118   5.242   6.917 -1.4751 -0.4952  1.2926
 5502TIP3    H238142   2.267   5.237   6.944 -1.2234  2.5135  0.7781
 5503TIP3   OH238143   0.540   0.025   7.290  0.0945  0.2151  0.2949
 5503TIP3    H138144   0.487   0.027   7.210  0.6288  2.8332 -0.0902
 5503TIP3    H238145   0.630   0.014   7.259  0.1391 -0.6674  0.7051
 5504TIP3   OH238146   0.604   3.338   0.471 -0.1288 -0.5092  0.0530
 5504TIP3    H138147   0.592   3.263   0.529 -1.4023 -0.2492  0.1630
 5504TIP3    H238148   0.694   3.368   0.487 -0.3927 -0.5385  1.7815
 5505TIP3   OH238149   0.643   5.518   8.842 -0.0613 -0.0075 -0.5302
 5505TIP3    H138150   0.703   5.450   8.871  0.9613  1.2431  0.4349
 5505TIP3    H238151   0.672   5.540   8.754 -0.4615 -0.8584 -0.8862
 5506TIP3   OH238152   4.611   6.045   6.862 -0.0504 -0.2073 -0.1443
 5506TIP3    H138153   4.671   6.114   6.893 -1.9551  1.4322  0.0901
 5506TIP3    H238154   4.609   5.982   6.934  2.9358 -1.4502 -0.9850
 5507TIP3   OH238155   3.441   0.420   8.393 -0.0025  0.3298 -0.2382
 5507TIP3    H138156   3.484   0.461   8.318 -0.4424 -0.5435 -0.9890
 5507TIP3    H238157   3.354   0.397   8.361 -0.9257  1.6687  1.1204
 5508TIP3   OH238158   2.504   2.613   1.684 -0.5218 -0.0847  0.2206
 5508TIP3    H138159   2.426   2.567   1.718  0.2671 -1.2647  0.4807
 5508TIP3    H238160   2.557   2.630   1.762 -0.0969 -0.0891 -0.0669
 5509TIP3   OH238161   0.864   6.256   0.765  0.2457  0.2865  0.8848
 5509TIP3    H138162   0.828   6.198   0.697  0.5316  0.6155  0.4570
 5509TIP3    H238163   0.951   6.221   0.782  0.0870  0.0584  1.2639
 5510TIP3   OH238164   1.052   5.131   0.990 -0.0731 -0.0358  0.1992
 5510TIP3    H138165   1.067   5.131   0.896  0.0468 -1.6685  0.1919
 5510TIP3    H238166   0.959   5.111   1.000  0.0734 -0.6017  0.4440
 5511TIP3   OH238167   3.891   1.913   0.508  0.1696 -0.1003 -0.0456
 5511TIP3    H138168   3.943   1.974   0.456 -0.0289 -0.2214 -0.3851
 5511TIP3    H238169   3.817   1.965   0.539  1.2767  0.5075  1.7456
 5512TIP3   OH238170   1.149   4.508   6.803  0.2321  0.3220 -0.5003
 5512TIP3    H138171   1.079   4.465   6.852 -0.1369  1.6024  0.1427
 5512TIP3    H238172   1.197   4.436   6.761  0.7630 -0.8805  1.9912
 5513TIP3   OH238173   1.503   1.808   6.889 -0.1566  0.0863 -0.3151
 5513TIP3    H138174   1.583   1.834   6.842  0.6598 -0.2080  0.8610
 5513TIP3    H238175   1.451   1.761   6.824 -0.5111  2.3674 -1.7773
 5514TIP3   OH238176   4.685   3.964   7.052 -0.7801 -0.3140 -0.0690
 5514TIP3    H138177   4.612   4.005   7.098 -0.2358  0.2454  0.3143
 5514TIP3    H238178   4.645   3.925   6.974 -1.4006  0.4834 -0.1651
 5515TIP3   OH238179   0.091   2.706   1.132  0.3959  0.3323 -0.1375
 5515TIP3    H138180  -0.000   2.692   1.157  0.8354 -0.3045  1.2079
 5515TIP3    H238181   0.098   2.668   1.044 -0.7402  0.8702 -0.4793
 5516TIP3   OH238182   1.780   4.112   7.424  0.0281 -0.1070  0.1785
 5516TIP3    H138183   1.696   4.158   7.423  0.2072  0.2679 -1.5932
 5516TIP3    H238184   1.814   4.122   7.335  2.6150  0.9159  1.1889
 5517TIP3   OH238185   1.296   1.627   2.312  0.8949 -0.3333 -0.5531
 5517TIP3    H138186   1.333   1.586   2.391  2.3251  1.5863 -0.1666
 5517TIP3    H238187   1.345   1.587   2.240  0.5534 -1.0700 -0.3937
 5518TIP3   OH238188   5.738   0.835   6.358  0.7546  0.0504  0.2358
 5518TIP3    H138189   5.715   0.813   6.449 -2.1502 -1.5819 -0.7629
 5518TIP3    H238190   5.784   0.758   6.326 -0.6738 -0.5659 -0.4169
 5519TIP3   OH238191   2.655   1.229   0.200  0.4287  0.4488  0.0475
 5519TIP3    H138192   2.674   1.170   0.273  0.8886 -1.8137 -1.7691
 5519TIP3    H238193   2.742   1.258   0.170  0.2384  1.4349  0.4013
 5520TIP3   OH238194   4.332   1.024   0.538  0.1879  0.6776  0.4655
 5520TIP3    H138195   4.238   1.042   0.547 -0.0708  0.7296 -1.8686
 5520TIP3    H238196   4.346   0.944   0.589 -0.8925  1.2358  1.6870
 5521TIP3   OH238197   5.910   5.410   7.687  0.3495  0.5632  0.3545
 5521TIP3    H138198   5.872   5.498   7.685 -1.5497 -0.1731 -2.6620
 5521TIP3    H238199   5.982   5.414   7.623  0.0484 -0.1519 -0.0318
 5522TIP3   OH238200   1.496   0.900   1.792 -0.3757 -0.0212  0.0855
 5522TIP3    H138201   1.573   0.843   1.780 -0.7716 -0.1732 -2.1361
 5522TIP3    H238202   1.495   0.919   1.886  1.0976 -1.8154  0.5287
 5523TIP3   OH238203   4.723   2.298   8.624 -0.2003  0.2889 -0.1013
 5523TIP3    H138204   4.672   2.373   8.655  0.2829 -0.3871  2.5191
 5523TIP3    H238205   4.694   2.225   8.678  3.2165 -0.1858  1.3632
 5524TIP3   OH238206   0.392   0.930   1.574 -0.2723 -0.3672 -0.3184
 5524TIP3    H138207   0.318   0.988   1.556  1.0028  1.3533 -0.1929
 5524TIP3    H238208   0.413   0.946   1.666  0.0748 -1.0981 -0.2599
 5525TIP3   OH238209   2.465   4.278   8.893 -0.4076 -0.3361 -0.3977
 5525TIP3    H138210   2.443   4.349   8.833 -0.0629 -0.1805 -0.3442
 5525TIP3    H238211   2.470   4.320   8.979 -0.0282 -0.3884 -0.3920
 5526TIP3   OH238212   6.752   2.020   0.545  0.3309 -0.5221  0.2524
 5526TIP3    H138213   6.705   2.101   0.565 -0.7289 -0.8889 -0.6466
 5526TIP3    H238214   6.695   1.973   0.485  2.3756 -0.4411 -1.9034
 5527TIP3   OH238215   0.969   2.846   1.588 -0.0901  0.1855 -0.1449
 5527TIP3    H138216   0.922   2.793   1.524 -0.8542  0.2076  0.3870
 5527TIP3    H238217   0.907   2.915   1.612 -0.4744 -0.8378  1.9250
 5528TIP3   OH238218   1.922   1.989   1.895  0.1879 -0.2798  0.1530
 5528TIP3    H138219   1.884   2.019   1.978  0.0046 -1.0220  0.3452
 5528TIP3    H238220   1.846   1.968   1.841  0.2744  1.4262 -0.6871
 5529TIP3   OH238221   2.079   2.504   7.525  0.0763 -0.1855  0.7225
 5529TIP3    H138222   2.012   2.491   7.592 -0.6921 -0.2757 -0.0515
 5529TIP3    H238223   2.030   2.521   7.445  0.9976  2.0178  0.5675
 5530TIP3   OH238224   2.535   2.344   6.171 -0.0739  0.1421 -0.5863
 5530TIP3    H138225   2.541   2.431   6.209 -0.5518 -1.3104  3.2417
 5530TIP3    H238226   2.441   2.322   6.175  0.1636 -0.9150 -0.4697
 5531TIP3   OH238227   0.145   0.701   7.407  0.4547  0.0934 -0.2574
 5531TIP3    H138228   0.122   0.732   7.319  0.7161 -1.1408 -0.7873
 5531TIP3    H238229   0.226   0.746   7.428  1.3848 -0.9669 -1.4366
 5532TIP3   OH238230   6.678   5.220   7.064  0.3221  0.8244 -0.5521
 5532TIP3    H138231   6.711   5.281   6.998  0.4146  0.7814 -0.5463
 5532TIP3    H238232   6.583   5.233   7.065  0.3028  0.7110 -0.8089
 5533TIP3   OH238233   2.613   3.659   0.235 -0.1156 -0.2206  0.1564
 5533TIP3    H138234   2.646   3.648   0.146 -0.5149 -0.7228  0.0627
 5533TIP3    H238235   2.529   3.704   0.224  0.3237  0.6690  0.3603
 5534TIP3   OH238236   3.486   2.929   8.017  0.0031  0.2210 -0.1043
 5534TIP3    H138237   3.394   2.941   7.993 -0.3344 -1.2869  0.3141
 5534TIP3    H238238   3.510   3.010   8.060 -1.7586 -0.0935  1.6322
 5535TIP3   OH238239   3.596   6.263   0.945 -0.2228 -0.2330  1.1438
 5535TIP3    H138240   3.591   6.271   0.850 -0.5355  0.3963  1.2133
 5535TIP3    H238241   3.600   6.168   0.961  0.0102 -0.3331  0.5022
 5536TIP3   OH238242   2.775   5.628   0.706  0.1768 -0.1513 -0.1279
 5536TIP3    H138243   2.865   5.602   0.691  0.2696  0.6945 -1.1595
 5536TIP3    H238244   2.773   5.721   0.684 -1.2999 -0.5299 -1.8254
 5537TIP3   OH238245   3.752   2.907   7.626 -0.5099  0.1686 -0.5814
 5537TIP3    H138246   3.825   2.853   7.656  0.3392  0.9901 -1.0920
 5537TIP3    H238247   3.678   2.882   7.681  0.3983 -0.0256  0.5767
 5538TIP3   OH238248   6.709   4.567   1.866 -0.5267 -0.3349 -0.4881
 5538TIP3    H138249   6.766   4.510   1.814  0.1714 -2.0848  1.9931
 5538TIP3    H238250   6.642   4.508   1.901 -1.0313  0.7640  0.4738
 5539TIP3   OH238251   0.721   5.594   7.270  0.2266  0.0436  0.7044
 5539TIP3    H138252   0.647   5.586   7.210 -0.8128 -2.7174  2.1503
 5539TIP3    H238253   0.748   5.685   7.264  0.2673 -0.0583 -3.9160
 5540TIP3   OH238254   0.033   4.758   2.022 -0.2425  0.0755  0.2237
 5540TIP3    H138255  -0.009   4.699   1.960 -3.1499  2.3876 -0.2481
 5540TIP3    H238256   0.111   4.790   1.976 -0.8795 -0.3019 -1.1862
 5541TIP3   OH238257   3.388   0.360   0.627  0.0994  0.0747 -0.3700
 5541TIP3    H138258   3.362   0.347   0.536 -3.0120  0.3848  0.3458
 5541TIP3    H238259   3.382   0.272   0.666 -2.7081  0.4792  0.3535
 5542TIP3   OH238260   0.111   1.248   8.303  0.0471  0.1742 -0.0936
 5542TIP3    H138261   0.117   1.194   8.382  1.1733 -1.6437 -1.3469
 5542TIP3    H238262   0.033   1.215   8.259  0.4081 -0.0299 -0.5821
 5543TIP3   OH238263   5.922   5.897   7.447  0.1461 -1.0492 -0.1573
 5543TIP3    H138264   5.854   5.833   7.469 -0.0059 -0.4755  1.0927
 5543TIP3    H238265   5.995   5.877   7.505 -0.5249  0.9120  1.4964
 5544TIP3   OH238266   2.057   1.845   7.932 -0.5837 -0.2044  0.6757
 5544TIP3    H138267   2.057   1.927   7.882 -0.7372 -0.8455 -0.3768
 5544TIP3    H238268   2.148   1.836   7.962  0.2692 -1.3309 -2.0176
 5545TIP3   OH238269   0.620   0.444   6.995 -0.3015 -0.5146 -0.0303
 5545TIP3    H138270   0.575   0.527   6.981 -2.5968 -1.7511 -0.4424
 5545TIP3    H238271   0.612   0.398   6.912 -0.1796 -1.6519  0.5721
 5546TIP3   OH238272   4.961   6.736   2.231  0.4748  0.1895 -0.0147
 5546TIP3    H138273   5.053   6.711   2.224  0.1403 -1.1192 -0.0354
 5546TIP3    H238274   4.960   6.830   2.213  2.1487  0.8314  2.7463
 5547TIP3   OH238275   5.766   1.807   1.587  0.3583  0.5570 -0.1873
 5547TIP3    H138276   5.749   1.895   1.621 -2.1175  0.4319 -0.8434
 5547TIP3    H238277   5.730   1.809   1.498 -1.3520 -1.5495  0.3733
 5548TIP3   OH238278   0.773   2.346   8.447 -0.0565 -0.4560 -0.0074
 5548TIP3    H138279   0.836   2.297   8.394  1.4989  0.4838  0.8821
 5548TIP3    H238280   0.710   2.280   8.476  0.6871 -1.4996 -0.6723
 5549TIP3   OH238281   3.422   4.655   8.222 -0.4226 -0.0673  0.0270
 5549TIP3    H138282   3.391   4.583   8.168 -0.8189  0.7240 -0.8270
 5549TIP3    H238283   3.505   4.681   8.183  1.1542 -1.7829  1.9460
 5550TIP3   OH238284   4.885   2.086   8.226 -0.2810  0.0333 -0.1064
 5550TIP3    H138285   4.919   2.133   8.150  1.9198  0.6031  1.1551
 5550TIP3    H238286   4.860   2.156   8.287  0.8288 -0.4000  0.8695
 5551TIP3   OH238287   6.557   2.784   8.579 -0.2456 -0.4418  0.0088
 5551TIP3    H138288   6.478   2.799   8.632 -0.7972  0.7650 -1.1119
 5551TIP3    H238289   6.628   2.818   8.632 -0.5986 -0.5749  0.5822
 5552TIP3   OH238290   3.085   1.903   8.088 -0.4556 -0.6864 -0.4329
 5552TIP3    H138291   3.089   1.996   8.064  0.8196 -0.0616  1.9167
 5552TIP3    H238292   3.162   1.864   8.047 -0.9226 -0.7096 -1.3148
 5553TIP3   OH238293   5.825   0.609   1.596 -0.2007  0.6160  0.3870
 5553TIP3    H138294   5.853   0.524   1.562 -0.4314 -0.3007  2.3691
 5553TIP3    H238295   5.875   0.672   1.545  0.9715 -0.7513 -0.2431
 5554TIP3   OH238296   5.925   2.318   7.829  0.1248  0.1223 -0.6728
 5554TIP3    H138297   5.876   2.339   7.749 -1.7945 -1.6469 -0.0508
 5554TIP3    H238298   5.951   2.227   7.817 -0.6761 -0.3512  0.9000
 5555TIP3   OH238299   2.778   1.400   8.507 -0.6239  0.1681 -0.6487
 5555TIP3    H138300   2.773   1.361   8.420 -2.3146  0.5011 -0.7326
 5555TIP3    H238301   2.752   1.491   8.494 -2.9261 -0.2656  0.4736
 5556TIP3   OH238302   1.561   5.965   7.499 -0.0989 -0.1948 -0.2326
 5556TIP3    H138303   1.528   6.051   7.473 -0.5479 -0.5153 -0.7292
 5556TIP3    H238304   1.515   5.903   7.443  0.2488 -0.7616  0.0969
 5557TIP3   OH238305   5.941   2.391   1.416  0.3344  0.1800 -0.3383
 5557TIP3    H138306   5.915   2.483   1.411  0.7055  0.2136 -2.6005
 5557TIP3    H238307   5.891   2.348   1.347  1.2246 -1.0481 -0.2516
 5558TIP3   OH238308   2.761   4.135   1.427 -0.6491  0.2458 -0.6471
 5558TIP3    H138309   2.799   4.048   1.437 -0.0993  0.4643 -0.7831
 5558TIP3    H238310   2.730   4.158   1.515 -0.1246  0.2130 -0.4506
 5559TIP3   OH238311   4.334   1.560   8.522 -0.6909  0.4590 -1.1118
 5559TIP3    H138312   4.314   1.651   8.500 -1.0254  0.9003  0.7921
 5559TIP3    H238313   4.264   1.534   8.583  0.9245 -0.1197  0.5968
 5560TIP3   OH238314   1.828   4.942   0.495  0.0921  0.4682  0.0486
 5560TIP3    H138315   1.834   4.848   0.512 -0.3542  0.6901  1.5950
 5560TIP3    H238316   1.767   4.950   0.421  0.6972 -0.4767 -0.5677
 5561TIP3   OH238317   1.541   6.375   8.306  0.0388  0.5969  0.4136
 5561TIP3    H138318   1.457   6.401   8.344  0.1264  0.5268  0.6632
 5561TIP3    H238319   1.592   6.345   8.382  0.5896  1.4257  0.3833
 5562TIP3   OH238320   3.521   3.427   2.529 -0.1942  0.3581 -0.2035
 5562TIP3    H138321   3.573   3.374   2.588  1.0605  1.5889 -0.1258
 5562TIP3    H238322   3.430   3.410   2.553  0.2659  0.4841  1.7743
 5563TIP3   OH238323   6.642   4.850   0.836 -0.2278 -0.2887  0.4834
 5563TIP3    H138324   6.687   4.773   0.803 -0.7024 -0.9651  1.3750
 5563TIP3    H238325   6.572   4.815   0.892 -1.2384  0.7525 -0.0922
 5564TIP3   OH238326   3.530   5.687   0.680  0.5268 -0.1063 -0.2730
 5564TIP3    H138327   3.466   5.684   0.751  0.5050 -0.5839 -0.3082
 5564TIP3    H238328   3.602   5.630   0.710  1.6232  1.5450  0.4113
 5565TIP3   OH238329   1.732   1.431   0.010  0.1681  0.2815  0.2945
 5565TIP3    H138330   1.639   1.432   0.030  0.1070  1.6070  0.0232
 5565TIP3    H238331   1.748   1.342  -0.023 -1.2806  0.4175 -0.9191
 5566TIP3   OH238332   6.293   1.763   1.113  0.0283 -0.2735 -0.3531
 5566TIP3    H138333   6.223   1.825   1.131  0.0684 -0.0632 -0.9013
 5566TIP3    H238334   6.373   1.808   1.141 -0.0699 -0.6290  0.5529
 5567TIP3   OH238335   0.307   2.979   1.855  0.0564  0.0191 -0.1238
 5567TIP3    H138336   0.298   2.890   1.819 -0.4555  0.3368 -0.8078
 5567TIP3    H238337   0.360   2.968   1.934  0.7645 -0.7785 -0.6895
 5568TIP3   OH238338   0.651   4.876   7.101  0.5197  0.6492  0.1240
 5568TIP3    H138339   0.571   4.926   7.083 -0.0492 -0.2547  0.1018
 5568TIP3    H238340   0.671   4.832   7.019 -0.0469 -0.6224  0.6303
 5569TIP3   OH238341   6.408   1.255   7.942 -0.1454 -0.1902 -0.6920
 5569TIP3    H138342   6.432   1.338   7.901 -0.2321 -0.8350 -2.0981
 5569TIP3    H238343   6.469   1.191   7.906  1.6237 -0.3548  2.3289
 5570TIP3   OH238344   5.826   0.082   1.585 -0.3739  0.3255  0.4202
 5570TIP3    H138345   5.894   0.065   1.650 -0.9846 -0.5323  0.8632
 5570TIP3    H238346   5.841   0.172   1.556 -0.3325  0.8757  2.0690
 5571TIP3   OH238347   3.361   4.532   1.288  0.2098  0.3997 -0.0510
 5571TIP3    H138348   3.384   4.560   1.377 -2.4419  0.6300  0.6430
 5571TIP3    H238349   3.313   4.450   1.300  1.0769 -0.3441 -1.4303
 5572TIP3   OH238350   3.249   2.064   0.995  0.4524 -0.0898  0.6098
 5572TIP3    H138351   3.295   2.134   0.947 -0.8092  0.0666 -0.4469
 5572TIP3    H238352   3.212   2.009   0.926 -1.0068 -0.1463  1.3950
 5573TIP3   OH238353   2.092   3.301   8.760  0.9910  0.6889  0.6794
 5573TIP3    H138354   2.036   3.228   8.787  0.1918  1.3494  0.8589
 5573TIP3    H238355   2.148   3.264   8.691 -0.7630  0.3930 -0.6510
 5574TIP3   OH238356   1.326   6.463   6.510 -0.0776  0.2179  0.2314
 5574TIP3    H138357   1.333   6.424   6.424 -1.8677  1.3472 -0.4940
 5574TIP3    H238358   1.287   6.395   6.565  0.9450 -0.4561  0.1375
 5575TIP3   OH238359   0.386   3.702   7.545 -0.1846 -0.4227 -0.1318
 5575TIP3    H138360   0.435   3.732   7.469  0.5080  0.5556  0.6695
 5575TIP3    H238361   0.359   3.783   7.590  0.1413 -0.9728  1.1087
 5576TIP3   OH238362   2.948   3.546   7.684  0.3911  0.0267  0.2044
 5576TIP3    H138363   3.038   3.522   7.663  0.4780  0.1698  0.4104
 5576TIP3    H238364   2.897   3.516   7.608  1.0495  3.2067 -1.6436
 5577TIP3   OH238365   0.278   1.731   1.540  0.8901  0.0881 -0.1361
 5577TIP3    H138366   0.225   1.760   1.615 -0.1752  1.0164 -1.2109
 5577TIP3    H238367   0.222   1.746   1.464  1.4208 -2.1100 -1.0381
 5578TIP3   OH238368   0.870   1.936   1.901 -0.1737  0.3795  0.4125
 5578TIP3    H138369   0.921   1.940   1.820 -0.9677  1.1032 -0.0636
 5578TIP3    H238370   0.933   1.958   1.970  0.2276  0.9636 -0.1329
 5579TIP3   OH238371   4.001   5.397   0.091  0.6860 -0.1555 -0.6144
 5579TIP3    H138372   4.024   5.487   0.069  0.2816  0.6025  1.8356
 5579TIP3    H238373   3.915   5.383   0.051  1.3789 -0.0075 -2.2462
 5580TIP3   OH238374   6.126   2.822   8.333  0.5315  0.3273 -0.6398
 5580TIP3    H138375   6.055   2.818   8.398  0.7878  2.2113 -0.1592
 5580TIP3    H238376   6.102   2.757   8.267  0.5755 -2.1589  1.6093
 5581TIP3   OH238377   5.461   6.382   1.374  0.4586 -0.1468 -0.0004
 5581TIP3    H138378   5.420   6.367   1.289 -0.1437 -0.9519  0.4098
 5581TIP3    H238379   5.545   6.421   1.354 -0.3828  1.2969 -0.8962
 5582TIP3   OH238380   3.277   0.123   0.049  0.0749  0.1890  0.0815
 5582TIP3    H138381   3.266   0.028   0.047  0.9690 -0.0004  1.9993
 5582TIP3    H238382   3.360   0.139   0.004  0.9622 -0.1636  1.5533
 5583TIP3   OH238383   1.080   5.656   8.105 -0.0220  0.1349 -0.0348
 5583TIP3    H138384   1.023   5.656   8.181  0.4400 -0.2265  0.3137
 5583TIP3    H238385   1.076   5.746   8.072 -0.6040  0.1692  0.1209
 5584TIP3   OH238386   1.063   1.052   7.528  0.0274  0.1142 -0.1630
 5584TIP3    H138387   1.138   0.994   7.513 -0.0604 -0.2566  0.8213
 5584TIP3    H238388   1.085   1.132   7.478  1.3819  0.2567  0.6205
 5585TIP3   OH238389   5.836   1.265   0.183 -0.1993  0.0316  0.6755
 5585TIP3    H138390   5.907   1.317   0.220  2.4994 -2.5934 -0.4014
 5585TIP3    H238391   5.829   1.189   0.241 -2.0080  0.1092  0.6129
 5586TIP3   OH238392   6.018   4.521   0.771  0.4406  0.6383  0.7038
 5586TIP3    H138393   5.934   4.483   0.798  0.0753  1.5898  0.9492
 5586TIP3    H238394   6.074   4.445   0.752 -0.2983 -0.0131  1.0727
 5587TIP3   OH238395   1.366   2.353   7.720 -0.0934  0.0572  0.1777
 5587TIP3    H138396   1.446   2.385   7.679  0.0992 -1.1027 -0.3918
 5587TIP3    H238397   1.394   2.319   7.805 -0.3686  1.7299  0.9853
 5588TIP3   OH238398   2.495   5.527   1.499 -0.1902 -0.4002 -0.1321
 5588TIP3    H138399   2.558   5.502   1.432  0.7885  0.6422  0.3600
 5588TIP3    H238400   2.519   5.618   1.521 -1.6142 -0.1208  0.3494
 5589TIP3   OH238401   0.585   1.240   7.668 -0.1962  0.4874  0.4031
 5589TIP3    H138402   0.659   1.246   7.729  0.3020  1.8133 -0.2764
 5589TIP3    H238403   0.623   1.204   7.588 -0.9879 -1.8959  1.0408
 5590TIP3   OH238404   4.126   5.523   8.343  0.4154 -0.1948 -0.0332
 5590TIP3    H138405   4.053   5.524   8.281 -0.3642  2.4587  0.7921
 5590TIP3    H238406   4.084   5.513   8.429  1.1797 -0.3164  0.3380
 5591TIP3   OH238407   2.272   1.211   0.277 -0.1056  0.4881  0.5335
 5591TIP3    H138408   2.269   1.271   0.351 -0.4898 -0.6667  1.5089
 5591TIP3    H238409   2.192   1.229   0.228  0.1609  1.2767  0.3866
 5592TIP3   OH238410   5.848   6.749   1.872 -0.4565 -0.2896 -1.1233
 5592TIP3    H138411   5.877   6.686   1.937 -1.1466  1.0593  0.5504
 5592TIP3    H238412   5.908   6.823   1.881 -0.3885 -0.1812 -2.2353
 5593TIP3   OH238413   0.303   5.637   0.487 -0.0757  0.1275  0.2212
 5593TIP3    H138414   0.345   5.619   0.571 -1.4858  0.7428  1.0843
 5593TIP3    H238415   0.269   5.553   0.458 -2.7600  0.4668  2.0800
 5594TIP3   OH238416   3.065   3.922   1.300 -0.2379  0.1274  0.1852
 5594TIP3    H138417   3.085   3.828   1.297  0.6200  0.2946  0.2714
 5594TIP3    H238418   3.070   3.944   1.393 -3.5358 -0.3428  0.5806
 5595TIP3   OH238419   1.721   4.695   0.438  0.1718  0.1490 -0.1199
 5595TIP3    H138420   1.668   4.617   0.450  1.8211 -1.1458 -0.7769
 5595TIP3    H238421   1.661   4.759   0.399 -0.2325 -2.3643 -4.2098
 5596TIP3   OH238422   0.001   3.353   7.454  0.0810 -0.2002  0.0347
 5596TIP3    H138423   0.074   3.411   7.475  1.2490 -1.7948  0.6142
 5596TIP3    H238424  -0.058   3.407   7.401  2.2261  0.8554 -1.4335
 5597TIP3   OH238425   3.670   0.270   8.069  0.1426 -0.0415 -0.1875
 5597TIP3    H138426   3.621   0.346   8.102 -0.1466 -0.0345 -0.6298
 5597TIP3    H238427   3.703   0.227   8.147 -0.5746 -0.0480  0.1098
 5598TIP3   OH238428   1.576   4.063   1.077 -0.4124  0.0333 -0.0682
 5598TIP3    H138429   1.657   4.032   1.117 -0.1897 -1.0064 -1.2787
 5598TIP3    H238430   1.509   4.003   1.111 -0.4214 -0.0783 -0.2820
 5599TIP3   OH238431   3.735   3.700   2.227  0.5965 -0.4383  0.0103
 5599TIP3    H138432   3.750   3.792   2.250 -1.1434 -0.3171  0.7693
 5599TIP3    H238433   3.730   3.654   2.311 -2.7214 -0.4995 -0.0898
 5600TIP3   OH238434   1.415   1.983   7.089 -0.2837  0.2337  1.1934
 5600TIP3    H138435   1.439   1.908   7.034 -1.4072  1.0505 -0.5254
 5600TIP3    H238436   1.484   2.047   7.074 -2.0532  1.6846 -1.9335
 5601TIP3   OH238437   4.682   5.138   2.110  0.0110  0.2550 -0.5708
 5601TIP3    H138438   4.624   5.086   2.166  0.4469  1.3121  0.9217
 5601TIP3    H238439   4.723   5.200   2.170  0.7375  1.2281 -2.0344
 5602TIP3   OH238440   0.779   3.393   1.607 -0.4648 -0.7048  0.2837
 5602TIP3    H138441   0.833   3.340   1.549  1.3744  1.2756  0.0467
 5602TIP3    H238442   0.704   3.419   1.553 -0.4898 -1.5998 -0.1300
 5603TIP3   OH238443   2.545   4.305   8.121 -0.1331  0.1617  0.2775
 5603TIP3    H138444   2.639   4.309   8.139 -0.5336  1.1004  2.5408
 5603TIP3    H238445   2.532   4.218   8.084  1.4580 -0.5478  1.2450
 5604TIP3   OH238446   3.596   5.036   8.191 -0.4238  0.3420  0.1166
 5604TIP3    H138447   3.564   5.001   8.108 -1.6547  2.5037 -0.4004
 5604TIP3    H238448   3.521   5.028   8.250  0.2602 -0.6331  0.8904
 5605TIP3   OH238449   5.772   4.820   7.561 -0.1028 -0.5892 -0.5282
 5605TIP3    H138450   5.796   4.781   7.645  1.6423  0.2593 -0.5790
 5605TIP3    H238451   5.851   4.867   7.533 -1.4107  1.1603 -1.4919
 5606TIP3   OH238452   1.260   0.742   1.750 -0.0297 -0.0449 -0.2114
 5606TIP3    H138453   1.192   0.767   1.813 -1.3203 -0.1125 -1.4996
 5606TIP3    H238454   1.342   0.765   1.792 -0.8069 -0.5212  1.6667
 5607TIP3   OH238455   2.978   3.251   1.646  0.3022 -0.3744 -0.7764
 5607TIP3    H138456   3.014   3.172   1.605  1.1905 -0.9371  0.9431
 5607TIP3    H238457   3.003   3.322   1.588 -0.0666 -1.2954 -2.1074
 5608TIP3   OH238458   2.907   0.746   1.247  0.0064 -0.0890  0.0270
 5608TIP3    H138459   2.976   0.719   1.308 -0.0202  0.2215  0.1973
 5608TIP3    H238460   2.879   0.832   1.279 -0.2156 -0.0569 -0.2483
 5609TIP3   OH238461   1.332   0.969   7.853  0.2484 -0.0606  0.0724
 5609TIP3    H138462   1.320   0.966   7.948  0.4032 -1.8783  0.0701
 5609TIP3    H238463   1.318   0.879   7.824  0.5480  0.3934 -1.5965
 5610TIP3   OH238464   4.335   0.090   0.542 -0.0802  0.1569  0.0718
 5610TIP3    H138465   4.341   0.099   0.637 -1.4877 -1.1384  0.3213
 5610TIP3    H238466   4.286   0.168   0.514 -1.4320 -0.4265  0.6904
 5611TIP3   OH238467   1.922   0.641   7.666 -0.1386 -0.1110 -0.0775
 5611TIP3    H138468   2.013   0.639   7.637  0.1251  1.1184  0.6216
 5611TIP3    H238469   1.873   0.609   7.590  0.6984  1.1416 -1.1904
 5612TIP3   OH238470   3.773   5.819   8.112  0.4533 -0.4611  0.1585
 5612TIP3    H138471   3.685   5.855   8.118  1.3391  2.0935 -1.1330
 5612TIP3    H238472   3.761   5.735   8.067 -1.3367 -0.4507  0.5206
 5613TIP3   OH238473   4.583   1.094   0.047  0.4032 -0.4822 -0.3623
 5613TIP3    H138474   4.616   1.170   0.095  1.0439 -0.4346 -0.8811
 5613TIP3    H238475   4.654   1.030   0.049  0.6300 -0.2949 -1.6676
 5614TIP3   OH238476   0.672   2.939   1.180 -0.0126  0.5265 -0.2375
 5614TIP3    H138477   0.635   2.851   1.189  0.7425  0.3514  1.4261
 5614TIP3    H238478   0.606   2.997   1.219  1.4525  0.1754  3.1192
 5615TIP3   OH238479   0.476   2.029   0.553  0.4784 -0.0567  0.5611
 5615TIP3    H138480   0.478   2.116   0.592  1.4016 -1.1069  3.0648
 5615TIP3    H238481   0.536   2.034   0.478  0.7873  1.3608  0.8887
 5616TIP3   OH238482   5.292   6.376   0.319 -0.4049 -0.2034  0.0405
 5616TIP3    H138483   5.220   6.314   0.332 -0.4675 -0.1410 -0.0121
 5616TIP3    H238484   5.353   6.328   0.262  0.1079 -0.6664  0.9619
 5617TIP3   OH238485   2.576   5.495   7.088 -0.6598  0.1545  0.0009
 5617TIP3    H138486   2.574   5.474   6.994 -0.3734  1.8831 -0.4301
 5617TIP3    H238487   2.669   5.493   7.111 -0.7188 -0.1103  0.2319
 5618TIP3   OH238488   3.016   6.763   0.717  0.2231 -0.2638 -0.2318
 5618TIP3    H138489   3.088   6.756   0.779 -0.8547  0.5731  1.1891
 5618TIP3    H238490   3.014   6.856   0.692  0.2092 -0.4579 -0.9820
 5619TIP3   OH238491   6.212   3.658   7.642  0.7468 -0.4981  0.3611
 5619TIP3    H138492   6.129   3.659   7.594  1.1170  0.0348 -0.2845
 5619TIP3    H238493   6.235   3.751   7.651  2.0783 -0.6878 -0.8800
 5620TIP3   OH238494   0.780   5.940   8.191  0.1577  0.0358  0.5472
 5620TIP3    H138495   0.804   5.980   8.108  2.2324 -0.5978  0.7903
 5620TIP3    H238496   0.701   5.889   8.171  0.7043 -0.2432 -1.0791
 5621TIP3   OH238497   5.403   3.977   0.577 -0.0452  0.0214 -0.1010
 5621TIP3    H138498   5.308   3.981   0.586 -0.1102 -1.0829 -0.1699
 5621TIP3    H238499   5.432   3.918   0.646  0.8758  2.1792  1.5053
 5622TIP3   OH238500   4.943   3.723   7.591  0.9927 -0.1284 -0.6652
 5622TIP3    H138501   4.882   3.693   7.658  0.2818 -2.1862 -2.1256
 5622TIP3    H238502   4.926   3.816   7.582 -0.5532 -0.2858  0.3255
 5623TIP3   OH238503   5.073   1.536   1.241 -0.1859  0.4133  0.7755
 5623TIP3    H138504   5.117   1.517   1.158 -0.2441 -3.1173  1.3960
 5623TIP3    H238505   5.144   1.538   1.305 -0.4900 -2.0185  1.2916
 5624TIP3   OH238506   1.039   5.369   2.452  0.3804  0.3209 -0.5151
 5624TIP3    H138507   1.124   5.395   2.416  1.1639  0.8012  1.5830
 5624TIP3    H238508   0.975   5.406   2.390  1.6633  0.5870 -1.7291
 5625TIP3   OH238509   2.783   1.788   6.827  0.1802  0.0107 -0.4763
 5625TIP3    H138510   2.794   1.717   6.890 -0.5898 -0.0378 -0.3823
 5625TIP3    H238511   2.863   1.787   6.775  0.4230 -0.5513 -0.1014
 5626TIP3   OH238512   6.577   0.063   8.877 -0.0085  0.3430  0.5207
 5626TIP3    H138513   6.661   0.043   8.919 -0.8212 -0.9114  1.5754
 5626TIP3    H238514   6.541   0.135   8.928  0.0124  0.2823  0.6205
 5627TIP3   OH238515   3.443   1.882   1.086  0.1701  0.5356  0.0050
 5627TIP3    H138516   3.386   1.818   1.127 -0.3131  2.6507  2.9910
 5627TIP3    H238517   3.384   1.943   1.041  0.4088  0.4280 -0.4632
 5628TIP3   OH238518   2.585   6.402   1.285  0.0309 -0.0517  0.6217
 5628TIP3    H138519   2.574   6.307   1.278 -0.0343 -0.0983  1.2865
 5628TIP3    H238520   2.516   6.430   1.345 -0.9368  0.6372 -0.7343
 5629TIP3   OH238521   4.786   2.759   0.767  0.6176  0.4592  0.4114
 5629TIP3    H138522   4.778   2.773   0.672  0.3052  0.2710  0.4057
 5629TIP3    H238523   4.774   2.664   0.777 -1.1125  0.6832  0.7998
 5630TIP3   OH238524   5.186   2.509   8.752 -0.6186 -0.6160 -0.3451
 5630TIP3    H138525   5.222   2.428   8.717  1.1427 -0.5023  1.0350
 5630TIP3    H238526   5.158   2.559   8.675  1.0945 -1.2654 -1.4423
 5631TIP3   OH238527   4.842   3.983   0.185 -0.0035  0.5031  0.5538
 5631TIP3    H138528   4.793   3.906   0.157 -0.2208  0.7249  0.3195
 5631TIP3    H238529   4.830   3.986   0.280  0.9850 -0.4257  0.7252
 5632TIP3   OH238530   2.421   5.670   1.103 -0.3516 -0.1726  0.0387
 5632TIP3    H138531   2.454   5.723   1.031  1.0496 -0.6390  0.3030
 5632TIP3    H238532   2.499   5.644   1.152 -1.2833  0.5952  2.0701
 5633TIP3   OH238533   4.979   2.677   8.013 -0.1644  0.2591 -0.4349
 5633TIP3    H138534   4.899   2.628   8.030  0.9317 -0.8972  1.8895
 5633TIP3    H238535   5.032   2.619   7.958  0.9360 -1.0966  1.9229
 5634TIP3   OH238536   2.692   1.392   7.529  0.1463  0.1915  0.1250
 5634TIP3    H138537   2.679   1.305   7.492  1.6436 -0.8249  1.8250
 5634TIP3    H238538   2.637   1.449   7.476  0.1974 -1.5487 -1.9399
 5635TIP3   OH238539   3.976   3.906   7.569 -0.8561 -0.4319  1.0848
 5635TIP3    H138540   3.916   3.971   7.533 -2.1543 -1.7040  0.8445
 5635TIP3    H238541   3.919   3.842   7.612  0.2127 -2.3095 -0.1602
 5636TIP3   OH238542   2.883   4.570   1.635 -0.3718 -0.0978  0.0001
 5636TIP3    H138543   2.974   4.570   1.605 -0.7081  0.7154 -1.0815
 5636TIP3    H238544   2.842   4.640   1.586 -1.0677  1.0879  2.1554
 5637TIP3   OH238545   2.491   6.592   6.980 -0.2180  0.8369  0.1496
 5637TIP3    H138546   2.511   6.525   6.915 -0.8309 -0.7925  1.5652
 5637TIP3    H238547   2.563   6.655   6.973  2.8038 -2.1824  1.6971
 5638TIP3   OH238548   4.584   5.056   1.727 -0.1633 -0.0329  0.2521
 5638TIP3    H138549   4.631   4.984   1.685 -0.7823 -0.3060  0.0147
 5638TIP3    H238550   4.493   5.027   1.730 -0.3079  0.4527  0.7810
 5639TIP3   OH238551   2.342   4.854   6.611 -0.1670  0.0476 -0.0477
 5639TIP3    H138552   2.432   4.821   6.602  0.0832  0.7915 -0.3225
 5639TIP3    H238553   2.291   4.776   6.631  0.7999 -0.1216  1.9693
 5640TIP3   OH238554   2.034   0.775   6.466 -0.3723  0.3696  0.1171
 5640TIP3    H138555   1.955   0.803   6.511 -1.2832 -0.3628 -0.9683
 5640TIP3    H238556   2.025   0.810   6.377  0.2954 -0.1233 -0.1539
 5641TIP3   OH238557   2.719   2.056   8.554  0.2832 -0.1120  0.2105
 5641TIP3    H138558   2.784   2.094   8.495  0.8344 -0.5476  0.5221
 5641TIP3    H238559   2.768   1.989   8.603 -0.9052 -2.0826 -1.1361
 5642TIP3   OH238560   3.082   5.663   0.615  0.2160 -0.1076  0.1607
 5642TIP3    H138561   3.088   5.604   0.539  0.4748 -0.9959  0.8482
 5642TIP3    H238562   3.023   5.733   0.587 -0.6165 -1.0381 -0.4644
 5643TIP3   OH238563   5.284   1.994   8.788 -0.0262  0.1813 -0.2485
 5643TIP3    H138564   5.280   1.899   8.781  0.1355  0.2250 -1.0867
 5643TIP3    H238565   5.250   2.026   8.704 -1.5791  0.9048  0.6165
 5644TIP3   OH238566   3.740   3.170   6.729  0.4741 -0.4447  0.0014
 5644TIP3    H138567   3.698   3.096   6.685  0.1368 -0.6321  0.6273
 5644TIP3    H238568   3.668   3.222   6.763  0.6923 -1.3946  2.1332
 5645TIP3   OH238569   0.208   5.205   2.483 -0.0318 -0.2185  0.1082
 5645TIP3    H138570   0.213   5.300   2.473 -1.6463 -0.1589 -0.4349
 5645TIP3    H238571   0.299   5.175   2.479  0.4577  1.2557 -0.1567
 5646TIP3   OH238572   1.065   3.374   8.392  0.4765 -0.7412  0.2202
 5646TIP3    H138573   1.133   3.308   8.380 -0.7571 -1.9121 -0.4729
 5646TIP3    H238574   0.983   3.329   8.373 -0.5652  0.5120  1.4820
 5647TIP3   OH238575   6.426   6.022   1.767 -0.2623  0.3927  0.2070
 5647TIP3    H138576   6.451   6.038   1.858  1.6270 -1.1849  0.0370
 5647TIP3    H238577   6.343   5.974   1.773 -1.0458  1.7717  0.9883
 5648TIP3   OH238578   3.291   4.397   0.575  1.0117  0.4543 -0.0630
 5648TIP3    H138579   3.213   4.342   0.576  1.1924  0.1978  0.7918
 5648TIP3    H238580   3.258   4.487   0.577  0.7105  0.3561  1.9078
 5649TIP3   OH238581   1.857   6.196   0.513 -0.2021 -0.3650  0.0944
 5649TIP3    H138582   1.762   6.187   0.523 -0.4586  0.0859 -1.7469
 5649TIP3    H238583   1.868   6.268   0.452  1.4104  0.9598  1.8452
 5650TIP3   OH238584   2.204   2.987   1.189 -0.0322 -0.0395  0.3003
 5650TIP3    H138585   2.246   3.017   1.108 -1.4062 -0.2776 -0.5335
 5650TIP3    H238586   2.111   3.005   1.175 -0.2904 -0.1070  1.8317
 5651TIP3   OH238587   0.185   1.251   7.787  0.2191  0.2440 -0.3792
 5651TIP3    H138588   0.096   1.284   7.773 -0.1147  0.0471  1.1447
 5651TIP3    H238589   0.198   1.257   7.881  2.0856  0.9041 -0.6440
 5652TIP3   OH238590   6.665   0.894   8.738 -0.0690  0.3956  0.2588
 5652TIP3    H138591   6.622   0.980   8.736  1.4938  1.1931 -0.4108
 5652TIP3    H238592   6.596   0.834   8.764 -1.2315  1.8416  0.6537
 5653TIP3   OH238593   0.087   1.718   0.855 -0.1399  0.1312  0.4452
 5653TIP3    H138594   0.130   1.640   0.891 -0.0320  0.8944  2.0794
 5653TIP3    H238595   0.079   1.777   0.930 -1.1150  1.3029 -0.5440
 5654TIP3   OH238596   6.455   5.056   8.076  0.3561  0.1917 -0.1177
 5654TIP3    H138597   6.506   5.005   8.138 -2.3826 -0.7275  1.5313
 5654TIP3    H238598   6.413   5.124   8.128 -2.0960 -0.6564 -0.8153
 5655TIP3   OH238599   3.025   1.276   8.493  0.6823  0.4471  0.1312
 5655TIP3    H138600   3.096   1.323   8.537  0.6057  0.6923 -0.0053
 5655TIP3    H238601   2.950   1.335   8.498  0.6000  0.3605 -0.0873
 5656TIP3   OH238602   0.653   0.315   1.875  0.9577 -0.4149 -0.5839
 5656TIP3    H138603   0.577   0.371   1.889 -0.2034 -1.6014 -1.8375
 5656TIP3    H238604   0.686   0.297   1.963  0.9471  1.5984 -0.1066
 5657TIP3   OH238605   6.708   5.557   0.953  0.0524 -0.4936 -0.2949
 5657TIP3    H138606   6.789   5.605   0.938  0.0275 -0.7452 -1.3227
 5657TIP3    H238607   6.710   5.485   0.889 -2.2496  1.0958 -2.3413
 5658TIP3   OH238608   2.725   1.362   0.540 -0.0177  0.0670 -0.3190
 5658TIP3    H138609   2.812   1.384   0.506  0.4910 -0.8214  0.3861
 5658TIP3    H238610   2.703   1.279   0.496  0.4071 -0.8038  1.0432
 5659TIP3   OH238611   1.753   4.116   0.545 -0.6555  0.2335  0.1802
 5659TIP3    H138612   1.751   4.110   0.450 -0.0996  0.2284  0.1672
 5659TIP3    H238613   1.765   4.026   0.575  0.2792  0.3575  0.2148
 5660TIP3   OH238614   3.453   0.385   8.901 -0.5291  0.9039 -0.2687
 5660TIP3    H138615   3.501   0.349   8.827  0.8573  0.3196  0.8690
 5660TIP3    H238616   3.430   0.474   8.873  0.6837  0.9813 -1.1010
 5661TIP3   OH238617   6.457   4.821   0.109 -0.0095 -0.0309  0.0288
 5661TIP3    H138618   6.395   4.748   0.110  0.6431 -0.5915  0.2837
 5661TIP3    H238619   6.411   4.892   0.154 -1.4146  0.3856 -1.9142
 5662TIP3   OH238620   3.435   4.899   7.382 -0.1769  0.4176  0.0347
 5662TIP3    H138621   3.390   4.878   7.464  0.1607 -0.3882  0.0247
 5662TIP3    H238622   3.429   4.995   7.375 -1.7973  0.3393  0.0715
 5663TIP3   OH238623   2.323   0.714   0.372 -0.2597 -0.2142 -0.1880
 5663TIP3    H138624   2.274   0.777   0.424  0.6435  0.5106 -0.1793
 5663TIP3    H238625   2.390   0.681   0.432  0.3248  0.0844 -0.6565
 5664TIP3   OH238626   5.235   3.655   0.640  0.0999  0.5515 -0.1809
 5664TIP3    H138627   5.224   3.682   0.731  1.4192  1.3252 -0.2285
 5664TIP3    H238628   5.214   3.734   0.590 -2.1715 -0.2830 -0.6678
 5665TIP3   OH238629   0.050   5.947   0.945  0.0447 -0.0014  0.1347
 5665TIP3    H138630  -0.035   5.935   0.902  0.5684  0.7957 -1.1775
 5665TIP3    H238631   0.106   5.879   0.908  0.6680  1.0648 -0.9538
 5666TIP3   OH238632   4.936   2.009   1.992 -0.0501 -0.3327  0.5742
 5666TIP3    H138633   4.862   1.959   2.026 -0.5587  0.6475  0.9423
 5666TIP3    H238634   4.916   2.021   1.899 -0.3507 -0.0905  0.6677
 5667TIP3   OH238635   3.848   4.486   1.277 -0.4089  0.7886 -0.7905
 5667TIP3    H138636   3.770   4.518   1.231 -0.7276  2.5296  0.8302
 5667TIP3    H238637   3.915   4.552   1.261  0.3397 -0.0027 -1.0255
 5668TIP3   OH238638   1.092   3.297   7.934  0.2875 -0.0665  0.0131
 5668TIP3    H138639   1.000   3.284   7.954  0.1826  0.7310  0.0560
 5668TIP3    H238640   1.097   3.294   7.839  0.2208 -0.1304  0.0118
 5669TIP3   OH238641   3.837   5.973   7.703 -0.2546  0.3010 -0.0227
 5669TIP3    H138642   3.907   5.909   7.696  0.1303  0.8062 -0.9624
 5669TIP3    H238643   3.882   6.058   7.705 -0.8177  0.6143 -0.2584
 5670TIP3   OH238644   6.283   1.126   0.565 -0.1506  0.2433 -0.0757
 5670TIP3    H138645   6.304   1.173   0.484  1.5842 -1.4905 -0.7219
 5670TIP3    H238646   6.227   1.054   0.537 -0.8498  0.5410  0.5367
 5671TIP3   OH238647   3.950   0.565   0.362 -0.3709 -0.0848  0.0644
 5671TIP3    H138648   3.941   0.624   0.287 -1.1151 -2.6132 -1.9745
 5671TIP3    H238649   4.041   0.574   0.388 -0.0568  0.7915 -1.2228
 5672TIP3   OH238650   3.776   2.610   0.503  0.5633  0.5540  0.0834
 5672TIP3    H138651   3.754   2.517   0.514  0.2176  0.5484 -0.5720
 5672TIP3    H238652   3.793   2.642   0.591 -0.4131  0.1379  0.4271
 5673TIP3   OH238653   5.227   3.953   7.500 -0.2500  0.0342  0.0183
 5673TIP3    H138654   5.299   3.995   7.452 -0.1247  0.5375  0.6390
 5673TIP3    H238655   5.260   3.866   7.522 -0.5639 -0.4753 -1.4099
 5674TIP3   OH238656   0.831   6.685   0.475 -0.4227  0.4258  0.3224
 5674TIP3    H138657   0.828   6.627   0.551  0.6988 -0.7832 -0.5136
 5674TIP3    H238658   0.829   6.773   0.512  1.3775 -0.1234  1.8353
 5675TIP3   OH238659   4.883   0.934   2.193  0.1548  0.2448  0.4544
 5675TIP3    H138660   4.903   1.014   2.243 -1.9318  1.4530 -0.4901
 5675TIP3    H238661   4.876   0.866   2.260  0.1350  1.2351  1.5077
 5676TIP3   OH238662   3.368   1.070   0.488  0.1083  0.4189  0.1668
 5676TIP3    H138663   3.460   1.095   0.479 -0.3506  1.6048 -2.0096
 5676TIP3    H238664   3.321   1.153   0.499 -0.8112 -0.0585  0.0043
 5677TIP3   OH238665   1.068   6.550   8.198 -0.3382 -0.9514  0.3808
 5677TIP3    H138666   1.085   6.467   8.242  0.3000 -1.5098 -0.8663
 5677TIP3    H238667   1.025   6.525   8.116  0.6781 -0.1303 -0.4254
 5678TIP3   OH238668   0.561   0.455   1.486 -0.5871  1.2494  0.3750
 5678TIP3    H138669   0.515   0.434   1.404 -0.9281  2.0544  0.3548
 5678TIP3    H238670   0.518   0.400   1.551  0.3813 -0.1896 -0.1481
 5679TIP3   OH238671   3.494   4.485   7.789 -0.1754  0.2878  0.7050
 5679TIP3    H138672   3.456   4.555   7.842  0.5315 -1.0235  3.0977
 5679TIP3    H238673   3.580   4.518   7.764 -0.0366  0.4791  1.4068
 5680TIP3   OH238674   2.725   2.046   0.823  0.0581 -0.3516  0.2089
 5680TIP3    H138675   2.712   1.971   0.881  3.0547 -1.3438 -0.2614
 5680TIP3    H238676   2.679   2.022   0.743  0.1620 -1.2539  0.4106
 5681TIP3   OH238677   0.845   2.707   7.083  0.8219 -0.2321  0.1759
 5681TIP3    H138678   0.939   2.694   7.072  0.6340 -1.8988  0.3403
 5681TIP3    H238679   0.820   2.648   7.154 -0.4083 -0.1030 -0.1259
 5682TIP3   OH238680   2.827   6.797   7.500 -0.4773 -0.3443  0.0511
 5682TIP3    H138681   2.844   6.800   7.594 -0.1099  0.2779 -0.0327
 5682TIP3    H238682   2.867   6.876   7.465  0.0736 -0.9453 -0.7390
 5683TIP3   OH238683   2.290   6.219   8.611 -0.4681  0.3730  1.1338
 5683TIP3    H138684   2.297   6.226   8.707  0.5812  0.0342  1.0922
 5683TIP3    H238685   2.324   6.302   8.578  1.9951 -0.6299  0.9828
 5684TIP3   OH238686   5.060   3.707   6.770  0.3449  0.0396 -0.2257
 5684TIP3    H138687   5.036   3.689   6.679 -1.2030 -2.0215  0.5115
 5684TIP3    H238688   5.045   3.624   6.815  2.9358  0.4296  1.5958
 5685TIP3   OH238689   6.678   1.253   2.482  0.4475 -0.5225  0.1526
 5685TIP3    H138690   6.753   1.209   2.519  0.5043 -0.8579 -0.3441
 5685TIP3    H238691   6.696   1.346   2.493  0.9212 -0.6031  0.0670
 5686TIP3   OH238692   1.658   2.645   1.373  0.4072  0.1142 -0.2027
 5686TIP3    H138693   1.739   2.596   1.357 -1.5467 -3.1513 -1.0930
 5686TIP3    H238694   1.642   2.693   1.291  1.6746  1.2259  0.1809
 5687TIP3   OH238695   6.662   5.998   7.440  0.0059 -0.0669 -1.1144
 5687TIP3    H138696   6.697   5.986   7.352  0.6157  0.1207 -0.8986
 5687TIP3    H238697   6.569   5.977   7.432 -0.3872  1.9020 -2.2363
 5688TIP3   OH238698   2.603   2.858   8.165  0.0595  0.1055  0.4098
 5688TIP3    H138699   2.544   2.790   8.198  0.2037 -0.6252 -0.7545
 5688TIP3    H238700   2.670   2.809   8.116  0.5173  1.0487  0.0779
 5689TIP3   OH238701   5.329   0.257   8.328 -0.2162 -0.2371 -0.5912
 5689TIP3    H138702   5.354   0.330   8.271 -0.1741  1.6196  1.6724
 5689TIP3    H238703   5.246   0.226   8.292  0.5183 -0.1387 -2.5061
 5690TIP3   OH238704   4.376   5.991   2.354  0.6506 -0.3618  0.7108
 5690TIP3    H138705   4.378   5.999   2.259  1.8666  1.3716  0.8263
 5690TIP3    H238706   4.466   6.008   2.382  0.3830 -1.1367  2.1647
 5691TIP3   OH238707   2.964   4.651   7.812  0.1834  0.1123 -0.6910
 5691TIP3    H138708   3.015   4.732   7.823  0.6351 -0.1445 -0.8578
 5691TIP3    H238709   2.918   4.640   7.895  1.9831 -0.7261  0.2587
 5692TIP3   OH238710   5.822   3.539   7.830 -0.0510 -0.1948 -0.2123
 5692TIP3    H138711   5.842   3.512   7.741 -1.5279 -0.8628 -0.3822
 5692TIP3    H238712   5.807   3.457   7.878 -0.6312  0.1914  0.2918
 5693TIP3   OH238713   6.587   0.997   2.438 -0.2640 -0.1035 -0.1134
 5693TIP3    H138714   6.634   1.079   2.456  1.0935 -1.1377  1.2537
 5693TIP3    H238715   6.653   0.939   2.400  0.3220 -2.3304  3.7904
 5694TIP3   OH238716   2.467   4.920   1.162  0.0623  0.0987  0.0615
 5694TIP3    H138717   2.383   4.905   1.206  0.0537 -0.8915 -0.2648
 5694TIP3    H238718   2.443   4.951   1.075  0.0383 -0.0051  0.0310
 5695TIP3   OH238719   3.333   4.927   0.397  1.1798  0.3300 -0.4952
 5695TIP3    H138720   3.273   4.919   0.323  1.0365 -1.0307 -0.2524
 5695TIP3    H238721   3.308   5.009   0.440 -0.8443 -0.4350 -0.1071
 5696TIP3   OH238722   4.924   3.375   7.528 -0.4309 -0.0208 -0.2381
 5696TIP3    H138723   4.845   3.430   7.528 -0.1737  0.3633 -1.0481
 5696TIP3    H238724   4.995   3.435   7.509 -0.2317 -0.7236 -1.9232
 5697TIP3   OH238725   4.147   3.409   7.741 -0.2732  0.4172 -0.0445
 5697TIP3    H138726   4.239   3.408   7.767 -0.0532  0.3205 -0.8129
 5697TIP3    H238727   4.135   3.330   7.689 -1.2171 -0.4546  1.4195
 5698TIP3   OH238728   0.840   3.351   0.272 -0.1166 -0.1543  0.3757
 5698TIP3    H138729   0.902   3.424   0.272 -0.2195 -0.0664  0.3468
 5698TIP3    H238730   0.843   3.316   0.361  0.4892 -0.5874  0.1888
 5699TIP3   OH238731   6.130   1.291   7.938  0.1417 -0.1482 -0.1808
 5699TIP3    H138732   6.223   1.273   7.955  0.2073 -0.6322 -0.9929
 5699TIP3    H238733   6.120   1.385   7.954  1.2251  0.3237 -1.9480
 5700TIP3   OH238734   2.950   4.992   0.363 -0.0525 -0.7177 -0.2810
 5700TIP3    H138735   2.964   4.900   0.386 -2.6310 -1.1252  0.0225
 5700TIP3    H238736   3.036   5.024   0.336  1.2262 -2.7784  1.0879
 5701TIP3   OH238737   4.017   3.019   7.859 -0.4865 -0.5525 -0.2108
 5701TIP3    H138738   4.048   3.075   7.787  0.4482  0.8986  1.2658
 5701TIP3    H238739   3.921   3.024   7.853 -0.4197 -0.1577 -1.1254
 5702TIP3   OH238740   6.322   0.365   8.866 -0.6099  0.5354  0.1634
 5702TIP3    H138741   6.329   0.386   8.773  0.6450 -2.3563 -0.5045
 5702TIP3    H238742   6.234   0.393   8.890 -1.4540  0.2296 -2.2501
 5703TIP3   OH238743   4.787   0.664   8.663  0.4646 -0.0218 -0.6954
 5703TIP3    H138744   4.856   0.600   8.647  1.6013  0.5762  1.4499
 5703TIP3    H238745   4.711   0.612   8.686  0.4890 -0.6544 -1.9672
 5704TIP3   OH238746   6.431   1.661   8.711  0.4313  0.5511  0.6439
 5704TIP3    H138747   6.378   1.672   8.632  1.3092  3.2149  0.3461
 5704TIP3    H238748   6.490   1.589   8.690 -1.4086 -0.8912  0.1027
 5705TIP3   OH238749   3.159   3.795   0.966 -0.2312  0.1080  0.0401
 5705TIP3    H138750   3.171   3.889   0.954 -1.4463  0.4650  1.3817
 5705TIP3    H238751   3.248   3.759   0.965  0.4508  1.6081  1.9072
 5706TIP3   OH238752   4.099   4.070   2.039  0.5164 -0.0452 -0.2759
 5706TIP3    H138753   4.132   4.129   1.971 -1.9344  0.4350 -1.1489
 5706TIP3    H238754   4.125   4.111   2.121  2.5597 -0.0473 -0.8490
 5707TIP3   OH238755   0.795   2.146   7.069  0.3234  0.1394  0.0733
 5707TIP3    H138756   0.753   2.204   7.005  2.5610 -0.3578 -1.9910
 5707TIP3    H238757   0.817   2.203   7.143  0.6812  1.4948 -1.0414
 5708TIP3   OH238758   1.027   1.728   1.173 -0.3640  0.0598  1.0558
 5708TIP3    H138759   1.099   1.760   1.118 -1.1065  0.2136  0.1431
 5708TIP3    H238760   1.063   1.727   1.261  0.5635  0.7388  0.7048
 5709TIP3   OH238761   6.063   0.105   1.759 -0.4070 -0.4392  0.2695
 5709TIP3    H138762   6.158   0.114   1.760 -0.2937 -0.7174  3.6228
 5709TIP3    H238763   6.030   0.186   1.799 -1.4370 -1.0628  0.7402
 5710TIP3   OH238764   5.543   4.982   8.784 -0.0594 -0.6228  0.3154
 5710TIP3    H138765   5.585   5.063   8.815 -1.3523 -0.0344  0.5787
 5710TIP3    H238766   5.580   4.914   8.840 -0.1092  0.0155  1.1563
 5711TIP3   OH238767   1.431   0.668   0.400  0.4403 -0.2710 -0.4529
 5711TIP3    H138768   1.370   0.741   0.413  0.8806  0.2267 -1.0429
 5711TIP3    H238769   1.469   0.652   0.486  0.5017  0.3589 -0.3544
 5712TIP3   OH238770   2.645   4.680   8.761 -1.1032  0.5347  0.0772
 5712TIP3    H138771   2.597   4.744   8.813 -2.2874  0.9379 -1.4282
 5712TIP3    H238772   2.580   4.613   8.739  0.2919 -1.7899  2.3816
 5713TIP3   OH238773   5.634   3.337   1.158 -0.1788  0.0139  0.3047
 5713TIP3    H138774   5.684   3.322   1.238 -1.3426  1.3100  1.3273
 5713TIP3    H238775   5.689   3.302   1.088  0.7346 -1.4269  1.6833
 5714TIP3   OH238776   2.615   1.707   0.522  0.4596  0.3139 -0.4304
 5714TIP3    H138777   2.690   1.674   0.473 -0.2812 -0.3488 -1.1623
 5714TIP3    H238778   2.611   1.800   0.501  1.7172  0.5964  0.4998
 5715TIP3   OH238779   6.639   4.265   7.201  0.0633  0.0144 -0.0354
 5715TIP3    H138780   6.636   4.335   7.137  0.3029  0.1583  0.1111
 5715TIP3    H238781   6.664   4.308   7.283  1.1634 -0.3915 -0.1503
 5716TIP3   OH238782   4.765   2.320   1.711  0.7460 -0.4038  0.1891
 5716TIP3    H138783   4.684   2.359   1.744  1.8097  0.8934  1.4305
 5716TIP3    H238784   4.815   2.395   1.678  1.8762 -1.0297  0.4506
 5717TIP3   OH238785   5.772   1.014   6.729  0.1039 -0.0863 -0.3775
 5717TIP3    H138786   5.789   0.923   6.709 -0.1603 -0.3837  0.6891
 5717TIP3    H238787   5.714   1.044   6.658 -1.8954 -1.4741  0.5709
 5718TIP3   OH238788   2.621   0.189   2.411 -0.0932  0.8830 -0.3981
 5718TIP3    H138789   2.637   0.245   2.487  1.4365  0.3080 -0.2461
 5718TIP3    H238790   2.707   0.153   2.390 -0.8159 -0.4085 -1.2743
 5719TIP3   OH238791   2.090   6.289   0.102  0.2025  0.0886 -0.2738
 5719TIP3    H138792   2.043   6.212   0.070  0.6437 -0.4163  0.2647
 5719TIP3    H238793   2.069   6.291   0.196  3.5649 -1.8970  0.6812
 5720TIP3   OH238794   2.580   3.654   0.638 -0.2615 -0.8397 -0.0142
 5720TIP3    H138795   2.643   3.615   0.578 -0.3933  0.0427 -0.7414
 5720TIP3    H238796   2.631   3.671   0.718  1.2695  2.4440 -1.4936
 5721TIP3   OH238797   5.119   4.159   1.581 -0.3399  0.5682  0.4610
 5721TIP3    H138798   5.121   4.246   1.621 -1.2070 -0.2150  2.2934
 5721TIP3    H238799   5.122   4.177   1.487 -0.8155  2.5977  0.7770
 5722TIP3   OH238800   4.264   5.214   1.987 -0.1741 -0.0683  0.1528
 5722TIP3    H138801   4.328   5.242   1.922 -0.2664 -0.2074  0.0004
 5722TIP3    H238802   4.305   5.233   2.071 -1.1753  2.7418  0.1095
 5723TIP3   OH238803   5.538   4.370   7.822 -0.1279  0.3221 -0.2468
 5723TIP3    H138804   5.547   4.388   7.728 -1.9790  1.1293 -0.3182
 5723TIP3    H238805   5.628   4.366   7.854  0.5387  1.4399 -1.8129
 5724TIP3   OH238806   3.025   6.783   1.469  0.3866  0.7660 -0.2363
 5724TIP3    H138807   3.001   6.806   1.559  1.1228 -1.4963  0.6266
 5724TIP3    H238808   2.979   6.700   1.453  0.6175  0.9190 -1.7975
 5725TIP3   OH238809   0.204   6.324   7.641 -0.2410  0.1412  0.0610
 5725TIP3    H138810   0.143   6.257   7.611  1.5195 -2.1492  1.2537
 5725TIP3    H238811   0.281   6.275   7.670  1.8183  2.8197 -0.4997
 5726TIP3   OH238812   2.298   4.331   8.560 -0.9199 -0.3630  0.2244
 5726TIP3    H138813   2.282   4.236   8.565  0.9492 -0.7539 -0.4253
 5726TIP3    H238814   2.317   4.347   8.468  1.2767  0.1480  0.7040
 5727TIP3   OH238815   6.387   2.307   2.079  0.5057  0.1620 -0.0810
 5727TIP3    H138816   6.388   2.355   1.996  0.1224  0.7479  0.2480
 5727TIP3    H238817   6.331   2.231   2.062  0.5554  0.1960 -0.4030
 5728TIP3   OH238818   0.508   6.543   7.393  0.1080  0.0554  0.3537
 5728TIP3    H138819   0.567   6.547   7.318  0.2352  1.7490  0.4939
 5728TIP3    H238820   0.453   6.621   7.384 -0.7837 -0.4466  1.2890
 5729TIP3   OH238821   2.129   4.003   7.516  0.0631 -0.0462  0.2019
 5729TIP3    H138822   2.115   3.950   7.595  0.0948  0.6657  0.6984
 5729TIP3    H238823   2.080   4.084   7.533 -0.6712 -0.2457 -0.8955
 5730TIP3   OH238824   1.369   3.165   8.711 -0.5589 -0.0349  0.0420
 5730TIP3    H138825   1.349   3.086   8.662  0.5942 -0.6011  0.4286
 5730TIP3    H238826   1.286   3.212   8.717 -1.7133 -2.0719  1.3280
 5731TIP3   OH238827   1.229   5.034   8.756  0.6772 -0.5188 -0.1758
 5731TIP3    H138828   1.229   4.941   8.733  0.2822 -0.2289 -1.4260
 5731TIP3    H238829   1.176   5.075   8.688 -0.3817  0.4335  1.1775
 5732TIP3   OH238830   2.968   5.599   1.086  0.0149 -0.3092 -0.4382
 5732TIP3    H138831   3.028   5.630   1.018 -0.3372  0.9791 -0.1968
 5732TIP3    H238832   2.989   5.653   1.162 -0.8758 -0.4351 -0.0941
 5733TIP3   OH238833   2.585   0.795   8.431  0.1332 -0.1284 -0.0948
 5733TIP3    H138834   2.517   0.857   8.459 -1.2775 -1.7326  0.2004
 5733TIP3    H238835   2.634   0.842   8.364 -0.9006  1.2880  0.0858
 5734TIP3   OH238836   0.953   3.575   0.098  0.4541 -0.4376  0.2994
 5734TIP3    H138837   1.036   3.560   0.051  0.1189  0.0030 -0.4468
 5734TIP3    H238838   0.892   3.514   0.058 -0.2050  0.9223 -0.8539
 5735TIP3   OH238839   2.674   1.525   6.360  0.0997  0.1347 -0.4710
 5735TIP3    H138840   2.668   1.466   6.285 -0.5750  1.0280 -1.1417
 5735TIP3    H238841   2.605   1.590   6.345  0.5905  0.8873  0.4236
 5736TIP3   OH238842   1.775   4.520   6.608 -0.5648  0.3939 -0.1311
 5736TIP3    H138843   1.864   4.533   6.640 -1.2071 -0.5895  2.3108
 5736TIP3    H238844   1.757   4.427   6.625 -2.3346  0.7790  0.3136
 5737TIP3   OH238845   3.754   0.138   0.269 -0.5057 -0.6596  0.1322
 5737TIP3    H138846   3.712   0.096   0.194 -1.8647  0.2862  0.3294
 5737TIP3    H238847   3.833   0.179   0.234  0.0728 -2.1110 -0.3322
 5738TIP3   OH238848   0.126   1.210   1.102  0.0932 -0.1073  0.4639
 5738TIP3    H138849   0.058   1.155   1.065 -0.2864 -0.5188  1.7236
 5738TIP3    H238850   0.104   1.217   1.195 -0.2657  2.7172  0.2760
 5739TIP3   OH238851   6.340   1.258   7.122 -0.7110 -0.0909  0.3888
 5739TIP3    H138852   6.341   1.199   7.046 -0.3164 -2.1305  1.9149
 5739TIP3    H238853   6.379   1.339   7.089 -2.3618 -0.1838 -2.0997
 5740TIP3   OH238854   6.771   1.028   8.151  0.0055  0.1029  0.0357
 5740TIP3    H138855   6.826   0.951   8.163  0.2945  0.3105  0.0595
 5740TIP3    H238856   6.740   1.022   8.060  0.1089  0.0106  0.0077
 5741TIP3   OH238857   3.702   4.657   8.755 -0.3699  0.5147 -0.1497
 5741TIP3    H138858   3.654   4.578   8.778 -1.3350  0.8294 -1.0288
 5741TIP3    H238859   3.736   4.641   8.667 -0.3675  0.9916 -0.2379
 5742TIP3   OH238860   1.895   1.144   7.531  0.4804 -0.2513  0.2581
 5742TIP3    H138861   1.973   1.199   7.530 -0.3134  0.9043  0.1785
 5742TIP3    H238862   1.928   1.055   7.521  1.7655  0.2443 -0.0658
 5743TIP3   OH238863   3.316   0.606   7.338 -0.6180 -0.5360 -0.3477
 5743TIP3    H138864   3.227   0.638   7.324  0.0206  2.5498  1.6660
 5743TIP3    H238865   3.369   0.651   7.272 -0.0699  0.7317  0.9015
 5744TIP3   OH238866   5.407   2.490   8.281  0.5621  0.2675 -0.2740
 5744TIP3    H138867   5.367   2.565   8.238  1.2740  0.6116 -0.3473
 5744TIP3    H238868   5.438   2.524   8.365  1.4373  0.2138 -0.5656
 5745TIP3   OH238869   6.041   0.924   0.373 -0.4747  0.5897  0.3534
 5745TIP3    H138870   6.051   0.968   0.289  0.0272  0.6742  0.4553
 5745TIP3    H238871   6.011   0.993   0.433  2.3389  1.3532  1.0215
 5746TIP3   OH238872   2.047   4.697   1.758  0.1378  0.1365  0.1452
 5746TIP3    H138873   2.045   4.783   1.799 -1.0946  0.2802 -0.1738
 5746TIP3    H238874   2.008   4.639   1.824  1.9505 -0.4045  0.7995
 5747TIP3   OH238875   3.645   3.448   8.258 -0.9893  0.3650  0.2580
 5747TIP3    H138876   3.612   3.537   8.252 -0.2795  0.6385  0.2545
 5747TIP3    H238877   3.697   3.447   8.338  0.2498  0.3940 -0.5190
 5748TIP3   OH238878   1.706   1.520   0.556  0.1692 -0.6132 -0.0616
 5748TIP3    H138879   1.784   1.575   0.554 -1.2193  1.4871 -0.5465
 5748TIP3    H238880   1.703   1.479   0.469  0.3265 -0.0812 -0.3227
 5749TIP3   OH238881   4.785   3.874   7.298  0.0522  0.2725  0.0564
 5749TIP3    H138882   4.765   3.896   7.207 -0.6953  0.3301  0.2293
 5749TIP3    H238883   4.706   3.832   7.330  0.4636 -0.1259  0.5618
 5750TIP3   OH238884   1.713   0.864   0.182  0.8078 -0.2253 -0.7492
 5750TIP3    H138885   1.637   0.829   0.136 -1.6664  0.1076  2.6985
 5750TIP3    H238886   1.761   0.787   0.212  0.9187 -0.4603 -1.5107
 5751TIP3   OH238887   6.112   6.724   7.658  0.2778  0.2364  0.4468
 5751TIP3    H138888   6.181   6.667   7.623 -0.5866 -1.1272  0.8943
 5751TIP3    H238889   6.050   6.664   7.699 -1.3811  1.4021 -0.2584
 5752TIP3   OH238890   3.587   0.157   0.494  0.0309 -0.4612 -0.1127
 5752TIP3    H138891   3.672   0.180   0.458  1.5051 -3.4300  1.1800
 5752TIP3    H238892   3.538   0.121   0.419 -0.8604  2.7556 -1.2431
 5753TIP3   OH238893   2.895   1.937   6.068  0.1735  0.2362 -0.4618
 5753TIP3    H138894   2.891   2.007   6.133  0.1675  1.4108 -1.6653
 5753TIP3    H238895   2.821   1.880   6.090  0.7812  0.0249  1.1474
 5754TIP3   OH238896   5.037   1.854   8.302  0.6028 -0.3627 -0.1224
 5754TIP3    H138897   4.966   1.807   8.259  0.8164  0.7792 -1.8146
 5754TIP3    H238898   5.003   1.942   8.317  1.3217 -0.0851 -0.0613
 5755TIP3   OH238899   0.688   5.063   1.922  0.1414 -0.0637 -0.3437
 5755TIP3    H138900   0.609   5.010   1.924  0.4536 -0.6108 -1.4024
 5755TIP3    H238901   0.729   5.041   1.838  1.2956  0.3743  0.0863
 5756TIP3   OH238902   1.686   4.944   8.176  0.1003  0.1130  0.3147
 5756TIP3    H138903   1.648   4.978   8.096  1.5110  0.8492 -0.0794
 5756TIP3    H238904   1.708   5.021   8.228  1.7798 -0.2188  0.1567
 5757TIP3   OH238905   6.124   6.234   0.160  0.2436  0.0224 -0.1673
 5757TIP3    H138906   6.206   6.213   0.115  0.2487 -0.2031 -0.0561
 5757TIP3    H238907   6.114   6.328   0.150 -0.7201 -0.2224 -2.3566
 5758TIP3   OH238908   6.056   6.676   8.183  0.2301  0.2491 -0.0496
 5758TIP3    H138909   6.145   6.712   8.184  0.0144  1.0696 -2.5856
 5758TIP3    H238910   6.013   6.722   8.111 -2.1943 -0.3300  0.9295
 5759TIP3   OH238911   3.148   4.067   0.929 -0.6396 -0.2727 -0.4384
 5759TIP3    H138912   3.217   4.132   0.921  0.0494 -1.1606 -2.3267
 5759TIP3    H238913   3.131   4.060   1.023  1.2945  0.5100 -0.0036
 5760TIP3   OH238914   3.866   1.903   0.850  0.2664 -0.0687 -0.1651
 5760TIP3    H138915   3.960   1.913   0.868  0.5050 -2.2106  0.0133
 5760TIP3    H238916   3.826   1.895   0.937  0.3243 -1.8997 -0.2578
 5761TIP3   OH238917   6.211   0.520   7.018 -0.2869 -0.0571 -0.2930
 5761TIP3    H138918   6.116   0.507   7.020 -0.2254 -0.6634  2.1463
 5761TIP3    H238919   6.225   0.599   7.071  0.6690 -1.0810  1.0392
 5762TIP3   OH238920   3.426   2.036   8.321  0.4309 -0.2169  0.3776
 5762TIP3    H138921   3.360   2.103   8.339  0.3917  0.0713 -0.7386
 5762TIP3    H238922   3.395   1.959   8.368  0.0327  0.3017  0.9937
 5763TIP3   OH238923   3.577   3.429   8.848  0.4106  0.8435 -0.4404
 5763TIP3    H138924   3.572   3.385   8.763  1.5582 -0.7952  0.3093
 5763TIP3    H238925   3.517   3.380   8.904  1.7012  0.1859  0.4018
 5764TIP3   OH238926   3.501   3.875   1.098  0.1589 -0.3019 -0.0860
 5764TIP3    H138927   3.474   3.795   1.054 -1.1871  1.2612 -2.3534
 5764TIP3    H238928   3.546   3.926   1.030  0.3808  1.1428  1.0818
 5765TIP3   OH238929   1.370   4.647   6.580  0.8742  0.1033  0.1739
 5765TIP3    H138930   1.371   4.683   6.491 -0.8923  2.4971  0.9997
 5765TIP3    H238931   1.412   4.562   6.573  4.1434  1.7094 -2.2772
 5766TIP3   OH238932   5.837   1.509   1.209  0.3342  0.1756 -0.0935
 5766TIP3    H138933   5.822   1.421   1.176 -0.6887  0.5159 -0.5647
 5766TIP3    H238934   5.783   1.515   1.288  0.5127  0.3423  0.0200
 5767TIP3   OH238935   0.246   4.396   7.888 -0.2805 -0.5129  0.3233
 5767TIP3    H138936   0.246   4.447   7.807  1.0561 -1.0905 -0.0706
 5767TIP3    H238937   0.207   4.454   7.953  0.2615  0.6369 -0.3366
 5768TIP3   OH238938   5.171   4.351   2.154  0.1165  0.0438 -0.1666
 5768TIP3    H138939   5.112   4.340   2.228  1.0973 -1.2592  0.4572
 5768TIP3    H238940   5.160   4.443   2.129 -1.4781  0.0721  0.4920
 5769TIP3   OH238941   3.018   1.642   1.556  0.0143 -0.5812  0.2935
 5769TIP3    H138942   2.965   1.597   1.490 -0.3285  0.5700 -0.2542
 5769TIP3    H238943   2.973   1.725   1.569  1.5937  0.3746 -0.0721
 5770TIP3   OH238944   5.827   3.898   8.596 -0.6366 -0.5963 -0.6589
 5770TIP3    H138945   5.832   3.866   8.686 -0.6308  1.2116  0.0220
 5770TIP3    H238946   5.752   3.851   8.558 -2.2501  0.4094  1.0853
 5771TIP3   OH238947   3.470   6.225   0.211  0.0609  0.5695 -0.1683
 5771TIP3    H138948   3.478   6.160   0.280 -1.6672 -0.2534 -0.7013
 5771TIP3    H238949   3.423   6.298   0.251  0.4860  0.7858 -0.0509
 5772TIP3   OH238950   6.048   0.048   0.699  0.5657 -0.3294 -0.5072
 5772TIP3    H138951   5.958   0.017   0.712  0.3582  0.3328 -0.3012
 5772TIP3    H238952   6.094  -0.026   0.660 -0.0768 -0.6673 -0.6338
 5773TIP3   OH238953   5.189   1.459   6.761  0.3663 -1.4257  0.1306
 5773TIP3    H138954   5.237   1.399   6.819  2.0949 -0.2409  0.0107
 5773TIP3    H238955   5.248   1.472   6.687 -0.5664 -0.6284 -0.4814
 5774TIP3   OH238956   1.843   0.955   6.939  0.2652  0.0333 -0.1291
 5774TIP3    H138957   1.936   0.947   6.915 -0.0271  0.9111 -1.7432
 5774TIP3    H238958   1.817   1.040   6.902 -0.7021  0.7280  2.0375
 5775TIP3   OH238959   2.598   2.943   6.937  0.5163  0.1119  0.3479
 5775TIP3    H138960   2.555   3.028   6.932  1.1103  0.3776 -0.8680
 5775TIP3    H238961   2.623   2.933   7.028 -0.0990  0.9693  0.6160
 5776TIP3   OH238962   0.553   2.699   2.182 -0.2686  0.2142  0.1519
 5776TIP3    H138963   0.608   2.674   2.256  0.3585 -0.9042 -0.6638
 5776TIP3    H238964   0.469   2.655   2.199  0.5769 -1.9198 -0.8753
 5777TIP3   OH238965   1.208   0.117   0.291 -0.4891  0.3288 -0.5275
 5777TIP3    H138966   1.128   0.099   0.241 -1.0084  2.7914 -0.7013
 5777TIP3    H238967   1.190   0.200   0.336  1.8705  0.7933 -0.3327
 5778TIP3   OH238968   0.511   0.705   7.705 -0.4217  0.6957 -0.4315
 5778TIP3    H138969   0.596   0.681   7.667 -0.1252 -1.4125  1.3727
 5778TIP3    H238970   0.531   0.775   7.766  0.2723 -0.5304  0.8057
 5779TIP3   OH238971   4.392   4.929   7.385  0.0644 -0.1198  0.1017
 5779TIP3    H138972   4.462   4.993   7.399  1.5228 -1.6169  0.0214
 5779TIP3    H238973   4.383   4.884   7.469 -0.9036  0.1240  0.1412
 5780TIP3   OH238974   4.791   5.322   8.841  0.3267  0.3145  0.2040
 5780TIP3    H138975   4.749   5.343   8.924  1.4083 -1.3845  1.2254
 5780TIP3    H238976   4.840   5.402   8.819  3.1761 -0.3941  3.2337
 5781TIP3   OH238977   1.991   0.971   0.955 -0.1535 -0.0661  0.1447
 5781TIP3    H138978   1.923   0.934   1.012 -1.5783 -0.5281 -1.7229
 5781TIP3    H238979   2.062   0.908   0.957 -1.1497 -1.2559 -0.3296
 5782TIP3   OH238980   2.072   5.944   7.723 -0.5026  0.5532 -0.1215
 5782TIP3    H138981   2.042   5.891   7.796 -0.2224  1.5964  0.7850
 5782TIP3    H238982   2.015   5.921   7.650 -1.4046  0.1908  0.6880
 5783TIP3   OH238983   6.509   1.641   0.999 -0.4221  0.1369  0.9273
 5783TIP3    H138984   6.423   1.677   1.018 -0.6398  0.0044  0.2053
 5783TIP3    H238985   6.523   1.660   0.906  0.7744  1.1135  1.2791
 5784TIP3   OH238986   6.576   1.611   1.486  0.2174  0.2951  0.8282
 5784TIP3    H138987   6.607   1.522   1.499  1.0069  0.6712  1.7134
 5784TIP3    H238988   6.583   1.626   1.392  0.2251 -0.5195  0.6942
 5785TIP3   OH238989   3.989   0.609   0.810 -0.4092 -0.1117  0.3598
 5785TIP3    H138990   3.954   0.691   0.846  0.5474 -0.2672  1.7590
 5785TIP3    H238991   3.960   0.542   0.872  0.6212 -0.5036  0.4417
 5786TIP3   OH238992   4.729   3.325   0.295 -0.5881 -0.2024 -0.3621
 5786TIP3    H138993   4.724   3.268   0.218 -0.8562 -0.5833 -0.0647
 5786TIP3    H238994   4.711   3.268   0.369  0.4708 -0.0006  0.0660
 5787TIP3   OH238995   1.666   3.614   0.694  0.0470 -0.2732 -0.5222
 5787TIP3    H138996   1.665   3.535   0.640 -0.6129 -0.9857  0.4702
 5787TIP3    H238997   1.574   3.627   0.718  0.2977  0.1282  0.2591
 5788TIP3   OH238998   1.989   2.948   8.336 -0.0415 -0.0595  0.2456
 5788TIP3    H138999   1.933   2.967   8.411 -2.8869 -1.0986 -1.4649
 5788TIP3    H239000   1.932   2.903   8.274  2.5915 -0.7015 -1.9082
 5789TIP3   OH239001   6.048   1.751   8.676  0.4841 -0.5176  0.0564
 5789TIP3    H139002   6.035   1.836   8.633 -1.0441 -0.4202  0.6192
 5789TIP3    H239003   6.125   1.713   8.633  0.3976  0.5768 -1.1328
 5790TIP3   OH239004   1.442   3.149   7.775  0.1997 -0.0105  0.3883
 5790TIP3    H139005   1.437   3.179   7.865  1.2132 -0.5042  0.6143
 5790TIP3    H239006   1.404   3.221   7.724  2.1267  1.4717  0.9550
 5791TIP3   OH239007   4.923   3.471   1.886 -0.0066 -0.5551 -0.2768
 5791TIP3    H139008   4.941   3.560   1.855 -0.0596 -1.1543 -2.1821
 5791TIP3    H239009   4.839   3.478   1.931  0.2973  0.4698  0.1580
 5792TIP3   OH239010   6.467   3.131   7.099 -0.0499 -0.2652 -0.4029
 5792TIP3    H139011   6.464   3.207   7.157  0.4601  2.0259 -3.1519
 5792TIP3    H239012   6.379   3.095   7.101 -0.5857  1.0308  0.1957
 5793TIP3   OH239013   3.140   3.504   8.868 -0.1657  0.0501  0.0538
 5793TIP3    H139014   3.200   3.457   8.809 -1.3471 -0.8833 -0.4398
 5793TIP3    H239015   3.083   3.436   8.903 -2.2990  1.1512 -1.1048
 5794TIP3   OH239016   0.878   3.826   7.914  0.2646  0.1263 -0.2646
 5794TIP3    H139017   0.804   3.848   7.858  0.3574  0.9482 -0.0780
 5794TIP3    H239018   0.944   3.892   7.893  0.2571  0.5270  0.8979
 5795TIP3   OH239019   0.525   2.739   8.431  0.6492 -0.1204 -0.1112
 5795TIP3    H139020   0.568   2.824   8.435  1.2560 -0.4219 -0.1785
 5795TIP3    H239021   0.431   2.760   8.431  0.7810  0.5166  0.5632
 5796TIP3   OH239022   0.533   4.079   8.237 -0.1554 -0.5442 -0.3870
 5796TIP3    H139023   0.501   4.151   8.291  1.0196 -0.7501  0.6479
 5796TIP3    H239024   0.472   4.008   8.253 -0.6423 -0.1444 -0.4669
 5797TIP3   OH239025   4.762   6.460   6.866 -0.2995 -0.0987 -0.0728
 5797TIP3    H139026   4.834   6.476   6.805 -1.1318 -2.9218 -2.0208
 5797TIP3    H239027   4.685   6.496   6.823 -0.3521  1.5611  1.3065
 5798TIP3   OH239028   2.652   3.829   8.644 -0.0008  0.2145  0.5213
 5798TIP3    H139029   2.621   3.919   8.648  1.5963  0.7886  0.7857
 5798TIP3    H239030   2.702   3.825   8.563  0.8496 -0.1093  1.0526
 5799TIP3   OH239031   6.800   4.611   7.429 -0.3020 -0.1309 -0.5230
 5799TIP3    H139032   6.844   4.659   7.500  0.2648  0.7680 -1.4535
 5799TIP3    H239033   6.871   4.592   7.367 -1.1392  0.9583 -1.8508
 5800TIP3   OH239034   6.665   5.822   1.734  0.2509 -0.5850 -0.4655
 5800TIP3    H139035   6.583   5.773   1.736 -0.5384  0.6925 -0.4589
 5800TIP3    H239036   6.657   5.879   1.657  1.7221 -1.3930 -1.2562
 5801TIP3   OH239037   1.531   4.704   0.980  0.2999 -0.5562  0.6437
 5801TIP3    H139038   1.546   4.617   0.944  0.3522 -0.8867  1.4484
 5801TIP3    H239039   1.618   4.736   1.004  0.3053 -0.1897  0.1515
 5802TIP3   OH239040   1.215   0.958   0.114  0.5649 -0.2064  0.8135
 5802TIP3    H139041   1.288   0.930   0.058  0.7210  1.9072 -0.1326
 5802TIP3    H239042   1.140   0.907   0.082  0.9929 -0.1867 -0.2667
 5803TIP3   OH239043   1.323   1.472   8.340 -0.0379  0.2483  0.6719
 5803TIP3    H139044   1.323   1.567   8.336  2.5686  0.2418 -1.3029
 5803TIP3    H239045   1.390   1.450   8.405  0.8132 -0.2223 -0.3401
 5804TIP3   OH239046   3.865   3.026   8.721 -0.0424  0.1081 -0.1715
 5804TIP3    H139047   3.916   3.047   8.799  0.3671 -0.4474 -0.2838
 5804TIP3    H239048   3.874   2.932   8.711 -1.2590 -0.0359 -0.0861
 5805TIP3   OH239049   4.520   1.876   0.826  0.3196  0.8336  0.2583
 5805TIP3    H139050   4.613   1.900   0.828  0.1264  2.0612 -2.0306
 5805TIP3    H239051   4.520   1.781   0.812  1.2067  0.7445  0.7765
 5806TIP3   OH239052   1.972   0.219   8.672 -0.0357 -0.1128 -0.1988
 5806TIP3    H139053   1.987   0.225   8.767  0.3864  0.2281 -0.2837
 5806TIP3    H239054   2.038   0.158   8.641  2.6911  2.8834 -0.8666
 5807TIP3   OH239055   1.271   2.245   2.358 -0.2986 -0.0259 -0.1229
 5807TIP3    H139056   1.222   2.324   2.334  0.8981  1.4093  1.8491
 5807TIP3    H239057   1.229   2.214   2.438 -0.5358 -1.2256 -0.6909
 5808TIP3   OH239058   5.519   2.682   7.565  0.0354 -0.2902  0.7943
 5808TIP3    H139059   5.504   2.712   7.476 -0.4348 -0.1768  0.9107
 5808TIP3    H239060   5.485   2.752   7.621 -1.9275 -1.3831  1.0780
 5809TIP3   OH239061   2.012   2.061   7.088 -0.5674  0.3674  0.1788
 5809TIP3    H139062   2.003   2.059   6.993 -0.2793  2.4008  0.0586
 5809TIP3    H239063   1.978   1.977   7.118 -1.4444  0.0346 -1.6542
 5810TIP3   OH239064   2.911   2.385   7.938 -0.5221  0.4318  0.7775
 5810TIP3    H139065   2.969   2.457   7.963  0.6433 -0.5800  1.0766
 5810TIP3    H239066   2.922   2.377   7.843  1.2524 -0.8905  1.0380
 5811TIP3   OH239067   5.802   1.273   8.768 -0.6053 -0.0691 -0.1112
 5811TIP3    H139068   5.853   1.308   8.841 -2.3397  0.3159  0.9556
 5811TIP3    H239069   5.754   1.349   8.734 -1.4899 -0.6734 -0.2279
 5812TIP3   OH239070   4.301   4.940   1.444 -0.2396 -0.1605 -0.3063
 5812TIP3    H139071   4.301   4.931   1.539 -2.1281  0.5519 -0.1919
 5812TIP3    H239072   4.294   4.850   1.412  0.8647 -0.4381  0.1980
 5813TIP3   OH239073   3.415   3.769   8.516 -0.3056 -0.0815  0.3269
 5813TIP3    H139074   3.490   3.782   8.573  0.2441 -0.0392 -0.3933
 5813TIP3    H239075   3.451   3.726   8.438 -1.4886 -2.8580  1.1708
 5814TIP3   OH239076   6.723   0.193   8.538  0.6194  0.3832 -0.0074
 5814TIP3    H139077   6.752   0.167   8.625  0.6977 -1.5122 -0.5494
 5814TIP3    H239078   6.794   0.167   8.479  0.3306  1.1141 -0.7007
 5815TIP3   OH239079   1.865   1.104   0.730 -0.7866 -0.5247 -0.4008
 5815TIP3    H139080   1.847   1.083   0.821  0.0305  0.8212  0.1100
 5815TIP3    H239081   1.961   1.102   0.724 -0.7242  1.4920 -0.6553
 5816TIP3   OH239082   3.713   4.649   7.709  0.6862 -0.6477  0.2793
 5816TIP3    H139083   3.789   4.609   7.668  0.0664 -2.0316  0.4447
 5816TIP3    H239084   3.748   4.726   7.755  2.2935 -2.1858  1.7887
 5817TIP3   OH239085   4.071   1.610   0.034 -0.1168 -0.7822  0.1696
 5817TIP3    H139086   4.031   1.678   0.089 -2.8069 -3.8381  2.3776
 5817TIP3    H239087   4.165   1.622   0.046 -0.3977  2.7308  0.0397
 5818TIP3   OH239088   5.793   4.862   8.112  0.0676  0.5502  0.3146
 5818TIP3    H139089   5.772   4.955   8.118 -0.7443  0.4454 -0.5696
 5818TIP3    H239090   5.838   4.841   8.194 -1.4168  1.2990  1.3660
 5819TIP3   OH239091   0.279   1.966   2.420 -0.0235  0.0784  0.0124
 5819TIP3    H139092   0.217   2.039   2.420  0.6558  0.7100 -2.0155
 5819TIP3    H239093   0.365   2.007   2.407  0.4267 -1.0332 -0.6619
 5820TIP3   OH239094   5.425   4.195   1.200 -0.5048  0.4184 -0.4831
 5820TIP3    H139095   5.359   4.238   1.146 -0.5149  0.9251 -0.0685
 5820TIP3    H239096   5.501   4.254   1.195 -0.4044  0.3129 -0.1875
 5821TIP3   OH239097   5.535   3.733   2.233  0.0929  0.4000  0.0056
 5821TIP3    H139098   5.592   3.800   2.272 -0.4609  1.5798 -1.1327
 5821TIP3    H239099   5.458   3.733   2.289  0.7571 -0.4953  0.9696
 5822TIP3   OH239100   3.759   3.787   7.674 -0.3793 -0.8755  0.1283
 5822TIP3    H139101   3.748   3.696   7.700 -3.8484 -0.3003  1.1839
 5822TIP3    H239102   3.721   3.838   7.745 -0.8544  1.2682 -1.5292
 5823TIP3   OH239103   1.665   2.971   1.389  0.5443  0.2822 -0.2773
 5823TIP3    H139104   1.702   3.045   1.340 -0.6684  1.4465  0.5059
 5823TIP3    H239105   1.734   2.904   1.386  1.9249  1.6498 -0.5110
 5824TIP3   OH239106   5.779   5.624   8.800 -0.2969 -0.3864  0.3702
 5824TIP3    H139107   5.817   5.683   8.735 -2.6725  1.7253  0.7283
 5824TIP3    H239108   5.819   5.650   8.883 -1.2208  0.6638  0.5031
 5825TIP3   OH239109   6.698   6.694   7.883  0.3584  0.5571  0.6874
 5825TIP3    H139110   6.743   6.722   7.962 -1.4722  3.9898  0.7149
 5825TIP3    H239111   6.620   6.750   7.879 -1.1711 -1.5057 -2.0230
 5826TIP3   OH239112   1.962   1.605   6.619 -0.2822 -0.0404  0.3228
 5826TIP3    H139113   1.937   1.689   6.582  1.1084  0.4683  0.4734
 5826TIP3    H239114   2.058   1.605   6.615 -0.2428 -2.6110 -1.9643
 5827TIP3   OH239115   3.530   1.366   7.562  0.2900 -0.8243  0.2070
 5827TIP3    H139116   3.443   1.348   7.598  0.7801  0.0336  1.9425
 5827TIP3    H239117   3.588   1.304   7.608  0.8180 -0.3075  0.2515
 5828TIP3   OH239118   6.154   4.086   1.463  0.2629 -0.1493 -0.1143
 5828TIP3    H139119   6.169   4.080   1.369  1.7187  0.4395  0.0450
 5828TIP3    H239120   6.103   4.167   1.474  0.2694 -0.1091 -0.3787
 5829TIP3   OH239121   1.028   5.391   8.816 -0.4017  0.0916 -0.3726
 5829TIP3    H139122   1.043   5.416   8.725 -1.7504 -0.0694 -0.6581
 5829TIP3    H239123   1.029   5.474   8.864  1.1516  0.1083 -0.3741
 5830TIP3   OH239124   4.737   0.591   7.648 -0.3310  0.6051  0.1022
 5830TIP3    H139125   4.810   0.629   7.600 -2.0919  1.1010 -2.3979
 5830TIP3    H239126   4.659   0.624   7.603 -2.1008 -0.6161  2.0713
 5831TIP3   OH239127   0.540   5.793   8.344  0.0615  0.3900 -0.3856
 5831TIP3    H139128   0.543   5.817   8.437  0.8991  1.4678 -0.6660
 5831TIP3    H239129   0.450   5.764   8.330  0.1953 -0.8476  0.9957
 5832TIP3   OH239130   5.991   1.469   8.587 -0.1877  0.1093  0.5919
 5832TIP3    H139131   5.897   1.470   8.571  0.0331  0.4194 -0.8728
 5832TIP3    H239132   6.021   1.387   8.549  0.0724 -0.2482  1.5387
 5833TIP3   OH239133   5.778   1.452   7.227 -0.0460  0.1021 -0.0412
 5833TIP3    H139134   5.716   1.523   7.244 -0.2545  0.2632 -1.4006
 5833TIP3    H239135   5.810   1.468   7.138 -1.7927 -2.7249 -1.2907
 5834TIP3   OH239136   5.746   3.102   0.563 -0.3548 -0.0843 -0.1531
 5834TIP3    H139137   5.783   3.025   0.606  0.0487 -0.1152 -0.5430
 5834TIP3    H239138   5.703   3.150   0.633 -0.6865 -0.7064  0.0790
 5835TIP3   OH239139   3.854   4.871   6.660  0.4870 -0.2069  0.4819
 5835TIP3    H139140   3.813   4.942   6.611 -0.4333 -0.3307  1.0536
 5835TIP3    H239141   3.817   4.791   6.622 -1.1082 -0.2865  2.0697
 5836TIP3   OH239142   3.947   6.581   6.297  0.2634  0.2440  0.5874
 5836TIP3    H139143   3.980   6.666   6.268 -0.7902  0.3133 -0.4930
 5836TIP3    H239144   3.993   6.517   6.242 -0.0535  0.2229  0.3434
 5837TIP3   OH239145   0.643   3.221   1.846  0.3042  0.1159  0.1779
 5837TIP3    H139146   0.600   3.166   1.911 -0.5757 -0.1643 -0.6262
 5837TIP3    H239147   0.599   3.200   1.763  1.6835  0.1499 -0.5899
 5838TIP3   OH239148   5.440   3.198   0.867 -0.6534  0.1379 -0.2674
 5838TIP3    H139149   5.431   3.243   0.783 -0.5582 -0.3085 -0.5177
 5838TIP3    H239150   5.498   3.124   0.849  0.1828  0.6059  0.4178
 5839TIP3   OH239151   1.232   2.687   6.146 -0.0290  0.0856  0.1798
 5839TIP3    H139152   1.226   2.606   6.094  0.6336  0.0625  0.1273
 5839TIP3    H239153   1.154   2.685   6.201  0.0640 -0.6881  0.3062
 5840TIP3   OH239154   1.852   2.857   1.784 -0.1328 -0.0895 -0.0647
 5840TIP3    H139155   1.934   2.857   1.735  0.4927  0.0882  0.9495
 5840TIP3    H239156   1.839   2.765   1.807  1.9401  0.2447  3.1674
 5841TIP3   OH239157   3.735   3.914   0.272 -0.2768  0.5257  0.1540
 5841TIP3    H139158   3.789   3.852   0.223 -1.0804 -0.7106  0.7888
 5841TIP3    H239159   3.645   3.888   0.253 -0.6367 -0.1975  2.4504
 5842TIP3   OH239160   2.690   1.993   0.140 -0.0163  0.1744  0.5684
 5842TIP3    H139161   2.629   1.922   0.124  2.1173 -1.2069 -2.4778
 5842TIP3    H239162   2.681   2.050   0.064  0.5792  1.4221  1.3941
 5843TIP3   OH239163   5.460   3.558   1.194 -0.4246 -0.1535 -0.0025
 5843TIP3    H139164   5.399   3.589   1.127  1.3092  1.8010 -0.8092
 5843TIP3    H239165   5.524   3.506   1.144 -0.7641 -1.1853  0.6287
 5844TIP3   OH239166   3.305   5.940   7.363  0.5539  0.1447  0.7093
 5844TIP3    H139167   3.359   5.888   7.305 -0.8927 -0.9666  0.3026
 5844TIP3    H239168   3.293   5.885   7.441 -0.2301  0.2421  0.6655
 5845TIP3   OH239169   1.898   4.891   8.663  0.4009  1.0321  0.3878
 5845TIP3    H139170   1.914   4.803   8.696 -1.5204  0.3098 -0.4502
 5845TIP3    H239171   1.886   4.945   8.741 -0.3349  0.1398  0.9012
 5846TIP3   OH239172   2.243   1.735   8.532 -0.1366 -0.5357  0.5015
 5846TIP3    H139173   2.327   1.694   8.515 -0.5912 -1.8829  1.3496
 5846TIP3    H239174   2.259   1.792   8.607  0.2510  0.0335 -0.0051
 5847TIP3   OH239175   1.484   3.379   0.327  0.2461  0.2527  0.3126
 5847TIP3    H139176   1.413   3.373   0.391 -0.9659  0.7548 -0.9478
 5847TIP3    H239177   1.475   3.301   0.273  0.1692  0.6941 -0.3236
 5848TIP3   OH239178   0.288   1.554   0.054 -0.3608  0.5174 -0.4352
 5848TIP3    H139179   0.256   1.484   0.111  1.3419  0.1423  0.1140
 5848TIP3    H239180   0.265   1.635   0.099  0.9478  0.2218  0.8370
 5849TIP3   OH239181   4.436   2.423   7.962 -0.0829  0.7400  0.0938
 5849TIP3    H139182   4.414   2.439   7.870 -1.1811  1.6965  0.4903
 5849TIP3    H239183   4.424   2.509   8.004  1.4022  0.5687  0.9574
 5850TIP3   OH239184   4.793   6.504   8.369 -0.4368  0.9223 -0.3846
 5850TIP3    H139185   4.709   6.530   8.407 -0.3871  0.4953  0.0241
 5850TIP3    H239186   4.786   6.528   8.276 -0.1416  3.0061  0.0816
 5851TIP3   OH239187   0.826   1.087   1.990 -0.2167 -0.3875  0.2288
 5851TIP3    H139188   0.784   1.154   2.044  0.2851  0.4241 -0.3473
 5851TIP3    H239189   0.767   1.012   1.994 -2.1593  0.9573 -1.1627
 5852TIP3   OH239190   3.880   4.984   0.338  0.0928 -0.2619 -0.6510
 5852TIP3    H139191   3.787   5.004   0.329 -0.1894 -0.6902  0.9196
 5852TIP3    H239192   3.903   4.934   0.260 -1.3999 -1.5368 -0.3127
 5853TIP3   OH239193   6.533   3.188   7.455  0.1271  0.0465  0.7672
 5853TIP3    H139194   6.501   3.255   7.395  1.3786  1.0058  1.1118
 5853TIP3    H239195   6.492   3.210   7.539 -1.4735 -1.1814  0.3448
 5854TIP3   OH239196   0.428   5.070   8.845 -0.3932  0.1416  0.2929
 5854TIP3    H139197   0.375   4.998   8.811 -1.6673  0.5801  1.2898
 5854TIP3    H239198   0.376   5.107   8.916  1.1677  0.7128  1.2009
 5855TIP3   OH239199   1.171   6.379   0.296  0.2030 -0.1495  0.2898
 5855TIP3    H139200   1.130   6.336   0.371  1.5528 -0.1525  1.0598
 5855TIP3    H239201   1.129   6.465   0.292 -0.8749 -0.6616  0.1610
 5856TIP3   OH239202   0.786   2.358   6.835 -0.4762 -0.1448 -0.6873
 5856TIP3    H139203   0.735   2.424   6.881  1.1884  0.7059  0.0274
 5856TIP3    H239204   0.731   2.331   6.762 -1.9949  0.5876  0.1368
 5857TIP3   OH239205   4.869   4.746   1.273 -0.6310  0.0992 -0.0449
 5857TIP3    H139206   4.854   4.654   1.294  0.9440  0.0228  0.8668
 5857TIP3    H239207   4.936   4.775   1.335 -0.9705  1.8226 -0.4196
 5858TIP3   OH239208   2.398   2.879   7.917 -1.0359  0.1151  0.2164
 5858TIP3    H139209   2.449   2.846   7.992 -0.4068  0.7784  0.0947
 5858TIP3    H239210   2.427   2.826   7.843 -0.2900  0.6714  0.0922
 5859TIP3   OH239211   1.595   2.341   8.205  0.3939 -0.4088  0.2221
 5859TIP3    H139212   1.631   2.277   8.266  1.6121  0.4304  0.4349
 5859TIP3    H239213   1.657   2.415   8.209 -0.9995  0.8176  0.0586
 5860TIP3   OH239214   6.495   2.213   8.512 -0.4939  0.1588 -0.5131
 5860TIP3    H139215   6.483   2.121   8.490 -0.8579  0.2445 -0.6906
 5860TIP3    H239216   6.419   2.235   8.567  1.0149 -0.3789  1.9560
 5861TIP3   OH239217   0.118   2.884   2.542 -0.4733 -0.4592  0.1256
 5861TIP3    H139218   0.066   2.887   2.622 -0.1566  1.7334  0.3014
 5861TIP3    H239219   0.182   2.814   2.557 -0.3657 -0.0299  1.8246
 5862TIP3   OH239220   0.259   4.860   1.840  0.6186 -0.0816 -0.0524
 5862TIP3    H139221   0.284   4.920   1.910 -2.3955 -0.1927  1.2709
 5862TIP3    H239222   0.229   4.917   1.769  0.4213 -0.0025  0.0957
 5863TIP3   OH239223   3.290   5.501   8.049 -0.1567  0.2260 -0.6970
 5863TIP3    H139224   3.357   5.435   8.035 -1.5569 -1.6868  1.0962
 5863TIP3    H239225   3.229   5.489   7.977 -0.2138 -0.1992 -0.5802
 5864TIP3   OH239226   5.415   0.678   1.119  0.0759 -0.0465 -0.7876
 5864TIP3    H139227   5.482   0.719   1.064  2.1722 -0.5417  1.2269
 5864TIP3    H239228   5.354   0.749   1.138  0.7994  0.8045 -1.5228
 5865TIP3   OH239229   2.489   4.373   2.100 -0.2440 -0.2400  0.4172
 5865TIP3    H139230   2.556   4.336   2.157 -1.7293 -2.3862  0.8957
 5865TIP3    H239231   2.418   4.397   2.159 -1.0088 -0.6310 -0.3270
 5866TIP3   OH239232   3.858   2.047   7.469 -0.2376 -0.6761  0.4519
 5866TIP3    H139233   3.826   2.136   7.455  0.1902 -0.3706  1.3346
 5866TIP3    H239234   3.933   2.039   7.409  0.0404 -0.2531  0.7291
 5867TIP3   OH239235   3.752   5.951   1.609 -0.1554  0.5720 -0.4050
 5867TIP3    H139236   3.706   5.952   1.694  1.8927 -0.8831  0.7960
 5867TIP3    H239237   3.810   6.027   1.613 -1.1520  1.3955 -1.1871
 5868TIP3   OH239238   4.645   6.168   8.250 -0.0667 -0.2365 -0.1828
 5868TIP3    H139239   4.589   6.231   8.295  0.1765  1.3869 -2.0110
 5868TIP3    H239240   4.714   6.147   8.313 -1.3154 -0.3341  1.2008
 5869TIP3   OH239241   2.712   0.623   6.611 -0.4055 -0.1817  0.2786
 5869TIP3    H139242   2.681   0.574   6.535  1.7868 -1.4405  0.0877
 5869TIP3    H239243   2.642   0.684   6.632 -1.7243 -0.9173 -1.7618
 5870TIP3   OH239244   5.368   2.931   2.019  0.0356 -0.1240 -0.1229
 5870TIP3    H139245   5.377   2.894   1.932 -1.6214  0.0141 -0.3800
 5870TIP3    H239246   5.398   3.021   2.010 -1.2210  0.2390 -0.8451
 5871TIP3   OH239247   0.055   4.731   1.586  0.2064  0.1781  0.1461
 5871TIP3    H139248   0.095   4.648   1.611 -0.8309 -0.0840  1.0048
 5871TIP3    H239249  -0.038   4.710   1.574  0.2493  0.8167 -1.5603
 5872TIP3   OH239250   0.276   3.248   7.539  0.1530  0.0864 -0.1099
 5872TIP3    H139251   0.341   3.259   7.470 -0.6006 -1.3514 -1.0993
 5872TIP3    H239252   0.233   3.333   7.545  0.1313  0.1990 -1.5210
 5873TIP3   OH239253   5.793   0.178   0.290 -0.1623 -0.1447  0.7738
 5873TIP3    H139254   5.749   0.095   0.307 -0.8652  0.2934  1.1576
 5873TIP3    H239255   5.747   0.214   0.214 -1.9165  1.2685  2.3852
 5874TIP3   OH239256   2.766   6.780   8.175  0.0845 -0.0517  0.0031
 5874TIP3    H139257   2.745   6.848   8.111 -0.9683 -0.9015 -0.5832
 5874TIP3    H239258   2.697   6.788   8.241  0.2315 -0.2578  0.1839
 5875TIP3   OH239259   4.579   6.624   8.533  0.3868  0.6581 -0.0994
 5875TIP3    H139260   4.536   6.629   8.618  0.9076  0.3947  0.1836
 5875TIP3    H239261   4.525   6.678   8.476 -0.3462  0.2825  0.2313
 5876TIP3   OH239262   5.488   3.356   8.704 -0.2924  0.2622 -0.3860
 5876TIP3    H139263   5.575   3.389   8.684 -0.6543  1.4081 -0.1478
 5876TIP3    H239264   5.476   3.374   8.797 -1.1136  0.9373 -0.6047
 5877TIP3   OH239265   5.259   1.206   0.550  0.1270 -0.7550  0.2262
 5877TIP3    H139266   5.293   1.123   0.516 -1.8439 -1.1323 -0.9431
 5877TIP3    H239267   5.227   1.184   0.638 -3.3282 -2.1396 -1.2168
 5878TIP3   OH239268   0.309   5.193   1.561  0.1330 -0.3897 -0.1076
 5878TIP3    H139269   0.381   5.142   1.523  0.0869 -0.2400 -0.4003
 5878TIP3    H239270   0.271   5.238   1.486  1.2680  1.4500  0.3649
 5879TIP3   OH239271   0.054   5.752   2.260 -0.0046 -0.5841 -0.1586
 5879TIP3    H139272  -0.026   5.739   2.209  0.1738  1.5591 -1.1218
 5879TIP3    H239273   0.110   5.678   2.238 -1.4321 -1.7715  0.0178
 5880TIP3   OH239274   4.768   0.240   6.359  0.5975 -0.0557  0.3691
 5880TIP3    H139275   4.673   0.228   6.366  0.4256  0.2873 -0.9257
 5880TIP3    H239276   4.804   0.152   6.365  0.1472 -0.2490  0.3092
 5881TIP3   OH239277   0.763   0.330   7.283  0.4968 -0.4609  0.5881
 5881TIP3    H139278   0.800   0.365   7.364 -0.4917  0.3970  0.6875
 5881TIP3    H239279   0.681   0.290   7.309  0.1105 -0.0749 -0.0062
 5882TIP3   OH239280   6.702   2.105   1.242  0.4684  0.0400  0.7428
 5882TIP3    H139281   6.730   2.196   1.253  0.7174  0.1634 -0.7224
 5882TIP3    H239282   6.629   2.109   1.181 -0.8576 -0.5796  2.2214
 5883TIP3   OH239283   6.224   2.912   1.449  0.6136  0.0021  0.0470
 5883TIP3    H139284   6.262   2.912   1.537  1.4009  2.8081 -0.1895
 5883TIP3    H239285   6.130   2.907   1.464  0.7973 -2.0156  0.8779
 5884TIP3   OH239286   4.544   3.873   0.998 -0.3011  0.3839 -0.0378
 5884TIP3    H139287   4.617   3.863   1.060 -1.1886  0.3647  1.0256
 5884TIP3    H239288   4.577   3.934   0.932  0.8935 -0.0959  0.0852
 5885TIP3   OH239289   6.699   2.932   0.715 -0.4560 -0.6347 -0.5249
 5885TIP3    H139290   6.750   2.967   0.642  0.9762  1.9578  1.5315
 5885TIP3    H239291   6.659   3.009   0.756 -2.5823 -2.1669  0.4714
 5886TIP3   OH239292   5.765   1.948   7.942 -0.2983  0.0366 -0.2308
 5886TIP3    H139293   5.858   1.948   7.921 -0.8287  0.7783 -2.8605
 5886TIP3    H239294   5.752   2.028   7.993  0.4596 -0.0119  0.0566
 5887TIP3   OH239295   1.069   0.730   7.329 -0.5146  0.2344 -0.1671
 5887TIP3    H139296   1.114   0.791   7.388 -1.6140 -0.3048  1.2874
 5887TIP3    H239297   1.132   0.659   7.314 -0.2714  0.3107  0.4844
 5888TIP3   OH239298   1.263   6.090   0.495  0.3379 -0.5070  0.2622
 5888TIP3    H139299   1.269   6.008   0.543 -0.0346 -0.3011  0.6625
 5888TIP3    H239300   1.277   6.158   0.561 -0.5135 -0.2125  0.1427
 5889TIP3   OH239301   4.566   5.668   7.674  0.3010  0.0310 -0.2249
 5889TIP3    H139302   4.569   5.723   7.596  1.8875 -1.4704 -1.2916
 5889TIP3    H239303   4.567   5.729   7.747 -1.9974  1.5117 -1.3245
 5890TIP3   OH239304   1.449   0.049   0.797 -0.0874  0.1421  0.2723
 5890TIP3    H139305   1.416   0.105   0.867  0.7142  0.7413  0.1882
 5890TIP3    H239306   1.391   0.067   0.722 -0.6200 -0.1063  0.6207
 5891TIP3   OH239307   0.475   1.655   6.968 -0.2148  0.5247 -0.2197
 5891TIP3    H139308   0.550   1.595   6.962 -0.7547 -0.1836 -0.1252
 5891TIP3    H239309   0.508   1.738   6.935  0.8566  0.4576  0.6128
 5892TIP3   OH239310   2.257   0.409   1.539 -0.1328  0.6237  0.0375
 5892TIP3    H139311   2.342   0.383   1.504  0.1956  0.1777  1.1098
 5892TIP3    H239312   2.196   0.345   1.503 -0.2262  1.5886 -1.6168
 5893TIP3   OH239313   5.139   5.793   6.600  0.4401 -0.0230 -0.5982
 5893TIP3    H139314   5.080   5.729   6.639 -0.6047  0.0049 -2.0430
 5893TIP3    H239315   5.195   5.821   6.672  0.4844 -2.0483  0.2192
 5894TIP3   OH239316   4.920   3.625   8.867 -0.3203 -0.0494 -0.0510
 5894TIP3    H139317   4.953   3.663   8.786  0.3045 -0.8055 -0.1645
 5894TIP3    H239318   4.960   3.538   8.871  0.7133  0.4648  1.7344
 5895TIP3   OH239319   6.795   2.922   7.914 -0.0756  0.6695  0.0197
 5895TIP3    H139320   6.748   2.852   7.960  0.4889  0.5712  0.4664
 5895TIP3    H239321   6.727   2.986   7.893 -0.6741 -0.1862 -0.7587
 5896TIP3   OH239322   2.399   3.265   7.159 -0.1461 -0.5323 -0.0527
 5896TIP3    H139323   2.352   3.346   7.176 -0.3421 -0.9488  1.4731
 5896TIP3    H239324   2.403   3.220   7.243  0.4410 -1.8608 -0.7470
 5897TIP3   OH239325   5.572   0.007   1.577 -0.0542 -0.0472 -0.2166
 5897TIP3    H139326   5.547   0.095   1.604 -1.7563 -0.3460 -0.7092
 5897TIP3    H239327   5.665   0.001   1.598 -0.0945  1.5792  0.5619
 5898TIP3   OH239328   4.477   2.054   7.363 -0.2480 -0.9539  0.2371
 5898TIP3    H139329   4.440   1.965   7.361  1.6006 -1.7874  0.6509
 5898TIP3    H239330   4.534   2.058   7.286 -1.3433  0.4021 -0.5572
 5899TIP3   OH239331   4.050   4.574   1.956 -0.0133  0.1143  0.3420
 5899TIP3    H139332   4.020   4.656   1.994  1.6896  1.2547 -0.6512
 5899TIP3    H239333   4.144   4.572   1.973  0.4975 -0.2157 -2.1000
 5900TIP3   OH239334   2.242   4.499   0.337 -0.0403 -0.3273  0.1961
 5900TIP3    H139335   2.170   4.487   0.399  1.9040 -2.8526  2.1740
 5900TIP3    H239336   2.203   4.477   0.252 -1.6075 -1.8578  1.2266
 5901TIP3   OH239337   3.015   4.641   2.270  0.1409  0.8527  0.3268
 5901TIP3    H139338   3.082   4.577   2.292 -0.0892  0.5756  0.2304
 5901TIP3    H239339   3.058   4.702   2.211  0.1616  0.3696 -0.1661
 5902TIP3   OH239340   1.181   1.926   8.824 -0.2969  0.3514 -0.3047
 5902TIP3    H139341   1.090   1.909   8.802  0.2481 -0.3835 -2.1459
 5902TIP3    H239342   1.209   1.995   8.764  0.8804 -0.7978 -1.1479
 5903TIP3   OH239343   3.368   5.614   6.511 -0.0179 -0.2242 -0.1011
 5903TIP3    H139344   3.399   5.705   6.509  0.2216 -0.2612  0.9896
 5903TIP3    H239345   3.291   5.614   6.455 -0.1929  0.7270  0.1119
 5904TIP3   OH239346   4.607   6.613   1.667 -0.2173  0.1224 -0.2180
 5904TIP3    H139347   4.617   6.519   1.654 -1.9405  0.1610 -2.5262
 5904TIP3    H239348   4.587   6.623   1.760  0.9206 -1.6735  0.2608
 5905TIP3   OH239349   6.278   4.803   7.985  0.1271  0.4520  0.3397
 5905TIP3    H139350   6.292   4.740   7.914 -0.0002 -0.7020  1.3043
 5905TIP3    H239351   6.288   4.889   7.943 -2.5789 -0.0826 -1.7107
 5906TIP3   OH239352   6.581   2.659   0.036 -0.0521 -0.0036 -0.3554
 5906TIP3    H139353   6.639   2.711   0.093  0.8527 -0.2997 -0.9820
 5906TIP3    H239354   6.494   2.693   0.054  0.3013  0.4023  0.6807
 5907TIP3   OH239355   4.311   2.916   7.245 -0.0133 -0.1182 -0.2713
 5907TIP3    H139356   4.230   2.947   7.206 -0.0269 -1.3093 -1.2295
 5907TIP3    H239357   4.315   2.823   7.223  2.3178  0.2079 -1.4951
 5908TIP3   OH239358   5.869   0.283   8.089 -0.1221 -0.7774  0.0446
 5908TIP3    H139359   5.902   0.371   8.074  0.7114 -0.7709  1.6444
 5908TIP3    H239360   5.774   0.292   8.084 -0.0177 -0.0678 -1.0833
 5909TIP3   OH239361   2.149   6.528   8.160 -0.0559 -0.3602 -0.0232
 5909TIP3    H139362   2.061   6.491   8.161  0.3008 -1.2204  0.9128
 5909TIP3    H239363   2.205   6.456   8.131  0.2673  0.4109 -1.4264
 5910TIP3   OH239364   0.714   3.326   8.575 -0.1093  0.0936  0.1465
 5910TIP3    H139365   0.641   3.288   8.625 -0.0837 -0.6977 -0.4015
 5910TIP3    H239366   0.761   3.251   8.541 -0.3239  0.6132 -1.3478
 5911TIP3   OH239367   1.095   0.014   8.412 -0.2409 -0.1922 -0.3884
 5911TIP3    H139368   1.179  -0.013   8.373 -0.3837  0.5728 -1.2660
 5911TIP3    H239369   1.116   0.032   8.503  0.3932 -0.7244 -0.4175
 5912TIP3   OH239370   4.453   4.175   1.901 -0.2012  0.0452  0.6380
 5912TIP3    H139371   4.377   4.233   1.899 -0.6809 -0.5867 -0.6043
 5912TIP3    H239372   4.424   4.100   1.952  0.5149  0.9790  2.4954
 5913TIP3   OH239373   0.140   0.690   8.031  0.1503  0.1732 -0.1143
 5913TIP3    H139374   0.188   0.722   7.955  2.0076  1.1523  1.3905
 5913TIP3    H239375   0.126   0.597   8.013 -0.1067  0.5124 -1.9278
 5914TIP3   OH239376   4.693   2.789   7.752 -0.1372 -0.3651 -0.3585
 5914TIP3    H139377   4.615   2.744   7.722  0.1800 -2.2572  1.3936
 5914TIP3    H239378   4.764   2.754   7.699  0.0166 -1.5536  0.5826
 5915TIP3   OH239379   3.475   6.404   8.607 -0.0652 -0.0748 -0.2488
 5915TIP3    H139380   3.535   6.361   8.546  0.5948  0.0168  0.3337
 5915TIP3    H239381   3.496   6.497   8.599 -0.5417  0.0197 -0.4756
 5916TIP3   OH239382   3.906   0.806   7.897 -0.2025  0.0224  0.3403
 5916TIP3    H139383   3.970   0.786   7.829  0.3302 -1.1199  1.1506
 5916TIP3    H239384   3.934   0.891   7.932 -0.6126  0.7361 -0.9704
 5917TIP3   OH239385   2.740   5.677   2.091 -0.3717  0.2043 -0.4743
 5917TIP3    H139386   2.738   5.771   2.111 -2.4660  0.0159  0.5155
 5917TIP3    H239387   2.713   5.671   1.999  0.1872  0.5846 -0.6667
 5918TIP3   OH239388   2.890   0.197   6.116  0.3820  0.3461  0.2372
 5918TIP3    H139389   2.879   0.291   6.135  0.9344  0.4754 -0.0613
 5918TIP3    H239390   2.834   0.153   6.180 -0.1949  0.8932  0.1209
 5919TIP3   OH239391   6.255   6.604   1.148  0.0844  0.7862 -0.3464
 5919TIP3    H139392   6.313   6.564   1.213  0.6872 -0.5409 -1.6640
 5919TIP3    H239393   6.188   6.648   1.200  2.0040  2.0508  1.2402
 5920TIP3   OH239394   6.293   5.378   8.646  0.0808  0.9129  0.7276
 5920TIP3    H139395   6.367   5.434   8.667  2.0737 -1.7630  1.4332
 5920TIP3    H239396   6.314   5.294   8.687 -2.0722 -0.7616 -1.3071
 5921TIP3   OH239397   4.394   2.088   1.087 -0.0729 -0.1203  0.9393
 5921TIP3    H139398   4.350   2.144   1.023  1.2981  0.8834  0.8502
 5921TIP3    H239399   4.487   2.103   1.073  0.2777 -0.1419  2.9375
 5922TIP3   OH239400   2.070   2.088   7.818 -0.2820 -0.5463  0.1875
 5922TIP3    H139401   2.135   2.153   7.793 -0.3531 -0.2806  0.6832
 5922TIP3    H239402   1.988   2.137   7.823 -0.4828 -0.8329 -0.2102
 5923TIP3   OH239403   3.708   0.583   0.028  0.3763  0.4925 -0.3599
 5923TIP3    H139404   3.616   0.587   0.003 -0.0111  0.4319  0.9914
 5923TIP3    H239405   3.751   0.541  -0.047 -0.5539  1.2103 -1.3317
 5924TIP3   OH239406   1.966   5.523   8.889  0.0280  0.4651  0.3947
 5924TIP3    H139407   2.050   5.567   8.898  1.4358 -1.5974 -1.5164
 5924TIP3    H239408   1.967   5.456   8.958  0.0753  0.2781  0.2139
 5925TIP3   OH239409   3.396   3.613   1.760 -0.4465  0.4186 -0.2490
 5925TIP3    H139410   3.474   3.661   1.735 -0.4392 -0.1026 -1.2711
 5925TIP3    H239411   3.391   3.622   1.855  0.1502  1.5080 -0.3142
 5926TIP3   OH239412   4.073   0.399   1.632 -0.0125 -0.2920 -0.1697
 5926TIP3    H139413   4.167   0.392   1.614 -0.4019  0.1309 -2.8002
 5926TIP3    H239414   4.068   0.432   1.722  2.3812  0.6727 -0.3065
 5927TIP3   OH239415   3.229   4.947   6.788 -0.2240  0.3408 -0.5040
 5927TIP3    H139416   3.133   4.953   6.785 -0.1870  0.7907 -1.0571
 5927TIP3    H239417   3.254   4.911   6.703  0.0853  0.0655 -0.2957
 5928TIP3   OH239418   3.445   3.872   0.328  0.7394 -0.1940 -0.3248
 5928TIP3    H139419   3.378   3.940   0.334  0.0290 -1.0413  2.0318
 5928TIP3    H239420   3.402   3.792   0.358  2.5962 -0.9151  0.5652
 5929TIP3   OH239421   4.503   4.866   0.042 -0.0408  0.6559  0.1598
 5929TIP3    H139422   4.580   4.906   0.081 -1.3869  1.2190  2.4600
 5929TIP3    H239423   4.432   4.927   0.061 -1.9743 -2.0956  2.7723
 5930TIP3   OH239424   5.982   2.932   0.282  0.9291  0.3627  0.2972
 5930TIP3    H139425   6.021   2.855   0.323 -1.3697 -1.0292  0.0741
 5930TIP3    H239426   5.917   2.896   0.221  0.5083  2.4783 -0.5873
 5931TIP3   OH239427   2.843   5.092   2.169 -1.1628  0.1459 -0.0642
 5931TIP3    H139428   2.826   5.016   2.225  0.5692 -0.8173 -0.7624
 5931TIP3    H239429   2.914   5.138   2.214 -0.5457 -0.0093 -0.8653
 5932TIP3   OH239430   2.135   6.430   8.755 -0.1498  0.3405 -0.4145
 5932TIP3    H139431   2.135   6.517   8.796 -1.2653 -0.2266  0.8319
 5932TIP3    H239432   2.151   6.369   8.827  0.7830 -0.5140 -1.2994
 5933TIP3   OH239433   6.469   2.729   8.330  0.1965  0.4786  0.1108
 5933TIP3    H139434   6.489   2.639   8.306 -2.3043 -0.6009  1.5622
 5933TIP3    H239435   6.507   2.740   8.417  1.2744  1.1649 -0.4323
 5934TIP3   OH239436   5.403   2.323   0.932 -0.6103 -0.7551 -0.4251
 5934TIP3    H139437   5.492   2.289   0.921 -0.6089 -0.6786 -0.6632
 5934TIP3    H239438   5.350   2.273   0.870 -1.4595 -3.3899  2.1839
 5935TIP3   OH239439   3.950   5.589   6.997  0.1614  0.1442 -0.3975
 5935TIP3    H139440   3.855   5.582   6.985  0.1362 -1.3594  0.4304
 5935TIP3    H239441   3.985   5.598   6.909 -0.6293 -1.3149 -0.8919
 5936TIP3   OH239442   0.150   4.494   8.846  0.3527 -0.9590 -0.4418
 5936TIP3    H139443   0.245   4.497   8.856  0.1557 -1.4009  2.1353
 5936TIP3    H239444   0.116   4.551   8.915 -1.2941 -1.6935 -0.5838
 5937TIP3   OH239445   5.549   6.077   1.996 -0.7363 -0.9802 -0.2898
 5937TIP3    H139446   5.539   6.168   2.023 -0.3575 -0.5488 -1.5113
 5937TIP3    H239447   5.591   6.033   2.070 -0.6369 -0.0972  0.1831
 5938TIP3   OH239448   5.575   1.351   7.998  0.1077 -0.3688 -0.6957
 5938TIP3    H139449   5.582   1.378   7.907  0.2055  0.4000 -0.4679
 5938TIP3    H239450   5.592   1.257   7.997  3.8308  0.1553 -1.0289
 5939TIP3   OH239451   1.039   1.670   8.230 -0.3331 -0.3170  0.0390
 5939TIP3    H139452   1.133   1.685   8.233 -0.2609 -0.3686 -1.2715
 5939TIP3    H239453   1.014   1.650   8.320  1.1006 -1.4419  0.2114
 5940TIP3   OH239454   5.013   2.686   6.859  0.6703  0.1869  0.3261
 5940TIP3    H139455   4.974   2.748   6.797 -0.3369  0.8291  1.5300
 5940TIP3    H239456   5.068   2.629   6.806 -0.1633  0.6983 -1.1390
 5941TIP3   OH239457   1.152   3.532   0.749 -0.1334 -0.1147 -0.3062
 5941TIP3    H139458   1.086   3.468   0.777  0.9597 -1.5678 -0.9614
 5941TIP3    H239459   1.160   3.591   0.824 -0.3382 -1.4193  0.7866
 5942TIP3   OH239460   5.089   0.668   2.130  0.4420  0.0871  0.3272
 5942TIP3    H139461   5.152   0.628   2.190  0.7311 -0.0330 -0.0515
 5942TIP3    H239462   5.010   0.679   2.183  0.6676 -0.0859  0.7095
 5943TIP3   OH239463   6.556   2.561   1.651 -0.1697 -0.1686  0.0003
 5943TIP3    H139464   6.543   2.616   1.728  0.0778  0.8461 -0.6735
 5943TIP3    H239465   6.543   2.619   1.576  1.9029 -0.5351 -0.7295
 5944TIP3   OH239466   5.533   0.432   8.699 -0.1552  0.2147 -0.3779
 5944TIP3    H139467   5.539   0.505   8.637  0.1572  1.1486  0.7212
 5944TIP3    H239468   5.452   0.448   8.747 -0.8595 -0.9952 -1.1185
 5945TIP3   OH239469   4.124   3.779   1.967  0.4327 -0.1493 -0.4994
 5945TIP3    H139470   4.107   3.873   1.962  3.2637  0.4348 -0.6327
 5945TIP3    H239471   4.104   3.756   2.058  0.4484  0.7433 -0.2623
 5946TIP3   OH239472   2.829   6.449   0.458  0.3709  1.0260  0.5463
 5946TIP3    H139473   2.796   6.497   0.382 -1.9521 -0.0454  0.7904
 5946TIP3    H239474   2.880   6.377   0.421  0.4462  1.3318  0.0554
 5947TIP3   OH239475   3.218   2.100   1.276  0.0979 -0.7742  0.3180
 5947TIP3    H139476   3.300   2.117   1.323  0.8765 -0.9462 -0.9464
 5947TIP3    H239477   3.240   2.113   1.184 -1.2935 -0.8819 -0.0469
 5948TIP3   OH239478   1.225   2.302   0.279  0.1540 -0.1372 -0.8696
 5948TIP3    H139479   1.154   2.239   0.264 -1.4225  1.1281  0.8592
 5948TIP3    H239480   1.238   2.301   0.374  0.7439  1.4202 -0.9079
 5949TIP3   OH239481   6.111   1.401   0.575  0.1937 -0.5225  0.5021
 5949TIP3    H139482   6.121   1.491   0.545  2.5839 -0.9561 -0.1918
 5949TIP3    H239483   6.191   1.383   0.624 -0.2534 -2.2747  0.6595
 5950TIP3   OH239484   1.439   5.200   8.789  0.3463 -0.2553 -0.1893
 5950TIP3    H139485   1.525   5.171   8.758  0.8479 -0.5013  1.2971
 5950TIP3    H239486   1.379   5.132   8.759  0.8562 -0.6557 -0.3258
 5951TIP3   OH239487   6.585   6.345   8.002  0.1038  0.2344 -0.2059
 5951TIP3    H139488   6.495   6.316   7.985  0.3413  0.7498 -2.8075
 5951TIP3    H239489   6.638   6.294   7.941  1.3250  1.3074 -0.0727
 5952TIP3   OH239490   2.627   2.783   1.260 -0.7826 -0.5400 -0.0903
 5952TIP3    H139491   2.628   2.724   1.335  0.5266 -1.6364 -0.9296
 5952TIP3    H239492   2.628   2.871   1.299 -0.6744 -1.0728  1.1642
 5953TIP3   OH239493   0.907   6.731   7.701 -0.5766  0.1170 -0.1627
 5953TIP3    H139494   0.969   6.766   7.637 -0.6367  1.4659  0.4752
 5953TIP3    H239495   0.938   6.765   7.785 -1.4642 -0.2177  0.3153
 5954TIP3   OH239496   3.996   3.012   0.082 -0.0994  0.3843 -0.2819
 5954TIP3    H139497   4.025   3.103   0.077 -0.6963  0.5379 -1.5274
 5954TIP3    H239498   4.071   2.964   0.117  0.4626  1.2514 -0.2721
 5955TIP3   OH239499   4.275   1.634   8.063 -0.1812  0.1931 -0.3804
 5955TIP3    H139500   4.289   1.657   8.155 -2.4720  3.5416 -0.7119
 5955TIP3    H239501   4.358   1.656   8.020 -0.4934  2.9454  0.2666
 5956TIP3   OH239502   3.926   2.207   7.825  0.0109 -0.1122  0.1636
 5956TIP3    H139503   3.884   2.121   7.825  2.6520 -1.5302 -1.7674
 5956TIP3    H239504   3.976   2.209   7.744  2.1103  2.2036  1.3997
 5957TIP3   OH239505   6.543   4.331   0.237 -0.3302 -0.1020 -0.1377
 5957TIP3    H139506   6.635   4.334   0.262  0.1727 -0.4208 -1.7882
 5957TIP3    H239507   6.528   4.413   0.190 -0.9184  0.0080  0.2413
 5958TIP3   OH239508   6.293   4.571   8.891  0.5790 -0.2236  0.4588
 5958TIP3    H139509   6.211   4.605   8.855 -0.8392 -1.5790  2.2436
 5958TIP3    H239510   6.273   4.551   8.983  2.4535 -2.0539  0.5442
 5959TIP3   OH239511   1.133   6.180   2.202 -0.2365 -0.8176 -0.4635
 5959TIP3    H139512   1.043   6.149   2.217 -0.9174  0.7346 -1.1524
 5959TIP3    H239513   1.131   6.271   2.229  1.1737 -0.7809 -0.4371
 5960TIP3   OH239514   2.202   6.204   1.097 -0.0336 -0.0305  0.1379
 5960TIP3    H139515   2.236   6.293   1.084 -1.8409  0.9746  1.8759
 5960TIP3    H239516   2.241   6.153   1.025  2.3102  1.7668  0.0034
 5961TIP3   OH239517   3.686   2.481   8.730  0.0526  0.1982 -0.6608
 5961TIP3    H139518   3.634   2.548   8.685 -0.8346  0.5547  0.8068
 5961TIP3    H239519   3.623   2.436   8.786  0.9421 -0.8189 -0.4507
 5962TIP3   OH239520   6.183   6.680   1.465  0.1817  0.1204 -0.5229
 5962TIP3    H139521   6.169   6.725   1.382 -0.6105 -0.3429 -0.6451
 5962TIP3    H239522   6.104   6.627   1.478  0.5432 -0.2476  0.2453
 5963TIP3   OH239523   0.832   6.215   8.705  0.6234 -0.0819 -0.7425
 5963TIP3    H139524   0.854   6.142   8.647 -3.8858 -0.7246 -2.0922
 5963TIP3    H239525   0.838   6.293   8.650  1.1080 -0.0197 -0.6054
 5964TIP3   OH239526   3.770   3.237   1.800  0.2824  0.1497 -0.2736
 5964TIP3    H139527   3.717   3.297   1.853  0.4843  0.1149 -0.0294
 5964TIP3    H239528   3.708   3.174   1.766  0.2476 -0.2413  0.4942
 5965TIP3   OH239529   0.329   6.199   7.246 -0.4990  0.0015  0.4064
 5965TIP3    H139530   0.391   6.156   7.187 -0.3572  0.4811  0.2019
 5965TIP3    H239531   0.269   6.129   7.273  1.0371 -0.8060  1.8457
 5966TIP3   OH239532   5.201   0.805   8.381  0.2766 -0.3252  1.2797
 5966TIP3    H139533   5.135   0.875   8.387  1.0753  0.3377  2.8038
 5966TIP3    H239534   5.258   0.832   8.309  0.2011  0.2715  1.4353
 5967TIP3   OH239535   6.523   0.608   0.753  0.3056  0.2750 -0.3017
 5967TIP3    H139536   6.544   0.570   0.667  1.3934  0.0144  0.0656
 5967TIP3    H239537   6.596   0.668   0.770  0.2722  0.0657  0.5911
 5968TIP3   OH239538   1.205   0.258   7.838  0.9288  0.2943 -0.0657
 5968TIP3    H139539   1.241   0.176   7.804  0.3386 -0.1719  0.4143
 5968TIP3    H239540   1.207   0.247   7.933  2.7065  1.6453  0.1059
 5969TIP3   OH239541   1.874   4.424   7.357 -0.9422 -0.2011 -0.1205
 5969TIP3    H139542   1.846   4.511   7.328  2.2737  1.4424  1.1766
 5969TIP3    H239543   1.876   4.371   7.278 -1.1014  1.4935 -1.3071
 5970TIP3   OH239544   4.669   2.448   7.726 -0.0304 -0.0519 -0.2189
 5970TIP3    H139545   4.593   2.428   7.671  0.1607  0.5568 -0.7156
 5970TIP3    H239546   4.720   2.510   7.675  0.2562  0.3726  0.5662
 5971TIP3   OH239547   0.810   4.469   2.092  0.1863  1.1981  0.3686
 5971TIP3    H139548   0.901   4.497   2.083  0.3839  0.6612  0.5905
 5971TIP3    H239549   0.806   4.385   2.045 -0.2151  1.2637  0.2825
 5972TIP3   OH239550   6.226   2.471   1.195  0.1230  0.2582 -0.5840
 5972TIP3    H139551   6.219   2.494   1.102  1.6803 -0.5040 -0.9198
 5972TIP3    H239552   6.257   2.552   1.237 -2.3705  1.1914 -0.3614
 5973TIP3   OH239553   0.211   0.163   1.946 -0.0873 -0.2645  0.4027
 5973TIP3    H139554   0.172   0.105   2.011 -0.5149 -0.4769 -0.0417
 5973TIP3    H239555   0.138   0.214   1.912  0.1951  0.1217  0.3648
 5974TIP3   OH239556   3.058   1.767   6.625  0.4173  0.3785 -0.0754
 5974TIP3    H139557   3.086   1.857   6.638 -2.9841  2.0057 -2.5649
 5974TIP3    H239558   3.025   1.765   6.535 -3.9242 -2.0511  1.2994
 5975TIP3   OH239559   2.256   6.648   7.477 -0.2375  0.5079 -0.2262
 5975TIP3    H139560   2.307   6.714   7.525 -0.0131  0.5367 -0.4940
 5975TIP3    H239561   2.290   6.654   7.387 -0.3216  0.1301 -0.2823
 5976TIP3   OH239562   1.849   6.030   7.575 -0.1599 -0.2263  0.5109
 5976TIP3    H139563   1.781   6.031   7.641 -0.8621 -2.5589 -0.0924
 5976TIP3    H239564   1.816   5.972   7.507  1.4494  0.4304 -0.9126
 5977TIP3   OH239565   3.975   3.453   1.578  0.5545  0.0699  0.2786
 5977TIP3    H139566   3.957   3.376   1.632 -0.4276  0.8192  1.0706
 5977TIP3    H239567   3.991   3.523   1.642 -0.2854  0.8986 -0.3918
 5978TIP3   OH239568   6.200   5.261   7.625 -0.6443  0.0312  0.4489
 5978TIP3    H139569   6.201   5.354   7.602 -0.9970  0.1686  0.9805
 5978TIP3    H239570   6.292   5.240   7.645 -0.8472  0.7892  2.3530
 5979TIP3   OH239571   2.650   6.621   1.094  0.1559 -0.2380 -0.1870
 5979TIP3    H139572   2.620   6.555   1.157 -0.9488 -0.1760 -0.6288
 5979TIP3    H239573   2.742   6.637   1.118 -0.0692 -0.6503  1.0273
 5980TIP3   OH239574   1.622   2.078   8.492 -0.3957 -0.1153 -0.0318
 5980TIP3    H139575   1.711   2.047   8.511 -0.7522 -1.2598 -0.1638
 5980TIP3    H239576   1.617   2.164   8.535  0.4649 -0.4448  0.7574
 5981TIP3   OH239577   0.708   2.563   7.369 -0.2502  0.4252 -0.2510
 5981TIP3    H139578   0.694   2.657   7.373  0.0968  0.5277 -1.2933
 5981TIP3    H239579   0.800   2.551   7.392  0.1047  0.4867 -1.5532
 5982TIP3   OH239580   3.301   5.070   1.609 -0.2205 -0.0003 -0.5780
 5982TIP3    H139581   3.379   5.014   1.615 -1.2768 -1.3861  1.8230
 5982TIP3    H239582   3.331   5.155   1.640  0.4567 -0.3937 -0.1135
 5983TIP3   OH239583   3.021   6.242   0.386 -0.2172  0.3924 -0.3618
 5983TIP3    H139584   2.965   6.182   0.337 -0.5864 -0.1332  0.6691
 5983TIP3    H239585   3.075   6.185   0.441 -0.7177  1.0001  0.7926
 5984TIP3   OH239586   2.326   5.565   7.170  0.3014  0.1385 -0.0010
 5984TIP3    H139587   2.332   5.630   7.240  1.1911 -0.6912  0.7310
 5984TIP3    H239588   2.417   5.550   7.144 -0.0245  0.6394 -1.5576
 5985TIP3   OH239589   5.758   0.867   7.414 -0.1896  0.4728 -0.1264
 5985TIP3    H139590   5.842   0.912   7.408  0.1881  0.1920  2.0626
 5985TIP3    H239591   5.705   0.924   7.471 -1.9717  1.2744 -2.4253
 5986TIP3   OH239592   2.619   1.690   8.772  0.1548  0.3652 -0.3476
 5986TIP3    H139593   2.613   1.706   8.867  1.6520  0.6719 -0.2889
 5986TIP3    H239594   2.644   1.598   8.765 -1.6308 -0.1456 -0.5190
 5987TIP3   OH239595   0.687   2.241   2.142 -0.1552 -0.0086 -0.3960
 5987TIP3    H139596   0.601   2.278   2.158 -0.8772 -1.6329 -0.3372
 5987TIP3    H239597   0.674   2.146   2.145  1.1594 -0.3375 -2.8467
 5988TIP3   OH239598   2.985   1.736   7.036 -0.1257  0.3924 -0.5632
 5988TIP3    H139599   3.010   1.815   6.988  1.2969 -0.1113 -0.6951
 5988TIP3    H239600   2.932   1.767   7.109  2.0909  1.7061  0.5825
 5989TIP3   OH239601   6.013   4.521   7.821  0.0857  0.2745  0.1801
 5989TIP3    H139602   6.006   4.586   7.750  0.2981  0.0396 -0.0575
 5989TIP3    H239603   6.095   4.542   7.864  0.0255  0.3276  0.2693
 5990TIP3   OH239604   4.875   3.106   8.382 -0.2841 -0.0811  0.3607
 5990TIP3    H139605   4.922   3.143   8.456 -0.7610  3.3843 -0.8959
 5990TIP3    H239606   4.833   3.027   8.417  2.8760 -0.9660  2.5818
 5991TIP3   OH239607   5.152   4.393   8.048  0.8820  0.3045 -0.0308
 5991TIP3    H139608   5.122   4.473   8.091  0.9079  0.7302 -0.7824
 5991TIP3    H239609   5.071   4.347   8.025  0.8796 -0.5082  1.5106
 5992TIP3   OH239610   3.512   1.043   1.488  0.1460  0.1584  0.5074
 5992TIP3    H139611   3.542   0.957   1.518 -0.8407 -0.1110  0.7904
 5992TIP3    H239612   3.452   1.023   1.416 -0.6653  0.5483  1.0548
 5993TIP3   OH239613   4.014   5.398   8.083  0.5507  0.0407 -0.1605
 5993TIP3    H139614   3.922   5.421   8.091  0.4510  0.1543 -1.3964
 5993TIP3    H239615   4.023   5.365   7.994  1.6595 -0.1845  0.0151
 5994TIP3   OH239616   1.504   3.971   0.296  0.3853 -0.2505 -0.1237
 5994TIP3    H139617   1.508   3.914   0.373 -0.2280 -1.9857 -1.2990
 5994TIP3    H239618   1.471   3.914   0.227  3.1753  0.5364 -2.2827
 5995TIP3   OH239619   0.080   3.252   0.825 -0.2201  0.1218 -0.2798
 5995TIP3    H139620   0.069   3.282   0.735  0.9762  0.6656 -0.2655
 5995TIP3    H239621   0.117   3.326   0.872  2.3862 -1.1518 -0.1442
 5996TIP3   OH239622   4.893   3.854   2.115 -0.1690 -0.2673  0.8739
 5996TIP3    H139623   4.926   3.825   2.200  0.1588  0.8187  1.1326
 5996TIP3    H239624   4.970   3.860   2.059 -0.3603 -0.7976  0.5411
 5997TIP3   OH239625   4.646   0.077   7.575 -0.3190 -0.5172  0.3889
 5997TIP3    H139626   4.619   0.005   7.519  0.4484 -1.1413  0.8091
 5997TIP3    H239627   4.664   0.149   7.515 -1.0594 -0.6780 -0.0314
 5998TIP3   OH239628   0.833   0.449   8.853  0.2380  0.3343 -0.2401
 5998TIP3    H139629   0.923   0.444   8.821  0.6874  1.3623  0.8272
 5998TIP3    H239630   0.781   0.464   8.774  0.9553 -0.5211 -0.9009
 5999TIP3   OH239631   3.296   4.978   7.051  0.1118  0.1530 -0.3182
 5999TIP3    H139632   3.360   4.907   7.052 -0.8976 -0.7762  0.4407
 5999TIP3    H239633   3.264   4.980   6.961 -1.4849 -1.9163  0.1304
 6000TIP3   OH239634   1.920   2.593   7.256 -0.4470 -0.2290 -0.1392
 6000TIP3    H139635   1.832   2.610   7.225 -0.2276  0.5811 -0.3444
 6000TIP3    H239636   1.924   2.498   7.267 -1.0876 -0.3532 -0.8858
 6001TIP3   OH239637   2.030   0.919   7.471  0.0517  0.2864 -0.4107
 6001TIP3    H139638   1.990   0.933   7.385  0.5136  0.3740 -0.6186
 6001TIP3    H239639   2.071   0.833   7.465 -0.8111 -0.1700  0.0859
 6002TIP3   OH239640   1.685   0.214   8.782 -0.0666 -0.1879 -0.2752
 6002TIP3    H139641   1.774   0.242   8.764  0.1803  0.0458  1.2282
 6002TIP3    H239642   1.680   0.205   8.877 -1.6184 -0.2759 -0.3280
 6003TIP3   OH239643   6.108   1.250   7.300  0.4276  0.0859  0.0384
 6003TIP3    H139644   6.165   1.288   7.233  1.0440 -0.3416  0.3143
 6003TIP3    H239645   6.154   1.172   7.329  0.0224  0.1065  0.7488
 6004TIP3   OH239646   0.946   2.160   6.638  0.0309  0.1300  0.0918
 6004TIP3    H139647   1.032   2.158   6.680 -0.9065  1.6257  2.2738
 6004TIP3    H239648   0.958   2.220   6.564  0.5816  1.4698  1.2090
 6005TIP3   OH239649   2.191   4.308   0.131  0.6895 -0.1028  0.2087
 6005TIP3    H139650   2.135   4.352   0.069  2.3983  2.6921  0.4849
 6005TIP3    H239651   2.252   4.257   0.077  0.8890  0.6993 -0.3404
 6006TIP3   OH239652   2.612   2.926   0.090 -0.3566 -0.8420  0.2850
 6006TIP3    H139653   2.592   2.964   0.004  0.2252  0.9434  0.8936
 6006TIP3    H239654   2.638   2.836   0.071 -0.2359 -0.4826 -1.4120
 6007TIP3   OH239655   6.160   1.991   0.973  0.8961  0.2820  0.4252
 6007TIP3    H139656   6.148   2.036   0.890 -0.2031 -1.7392 -0.5841
 6007TIP3    H239657   6.156   2.061   1.039  0.7596  1.8046 -1.1213
 6008TIP3   OH239658   3.310   1.016   6.944  0.0233 -0.2267  0.2424
 6008TIP3    H139659   3.388   1.058   6.980 -0.2991 -0.4077  1.1809
 6008TIP3    H239660   3.244   1.085   6.940  0.1726 -0.1157 -0.3811
 6009TIP3   OH239661   1.552   1.120   1.518  0.7012  0.6229 -0.3555
 6009TIP3    H139662   1.554   1.190   1.583  0.0342  0.1782  0.1483
 6009TIP3    H239663   1.616   1.056   1.549  1.1907  0.9301 -0.7283
 6010TIP3   OH239664   0.208   1.577   7.777  0.2153  0.0533  0.3752
 6010TIP3    H139665   0.139   1.620   7.727  1.6217  0.0454 -1.6811
 6010TIP3    H239666   0.176   1.579   7.868 -2.2389  0.4471 -0.4174
 6011TIP3   OH239667   2.640   2.572   1.441 -0.5473  0.2182  0.2721
 6011TIP3    H139668   2.637   2.485   1.403 -0.9422  0.3499 -0.0003
 6011TIP3    H239669   2.573   2.571   1.509 -0.8986  0.4637 -0.0664
 6012TIP3   OH239670   4.124   1.433   0.902  0.3679 -0.3032 -0.5238
 6012TIP3    H139671   4.184   1.508   0.894  1.1357 -0.9358 -0.8282
 6012TIP3    H239672   4.060   1.446   0.833 -0.7038  1.1176  0.6602
 6013TIP3   OH239673   0.058   4.368   7.018  0.7316 -0.6131  0.0765
 6013TIP3    H139674   0.103   4.434   6.965 -1.2526  1.3032  0.6100
 6013TIP3    H239675   0.043   4.295   6.958 -0.1895  0.9063 -1.6198
 6014TIP3   OH239676   1.320   5.419   8.423  0.2914 -0.0884  0.0973
 6014TIP3    H139677   1.374   5.490   8.459  0.5995  0.3379 -1.1628
 6014TIP3    H239678   1.374   5.341   8.435  1.0657  0.2804 -0.8173
 6015TIP3   OH239679   6.755   1.904   8.815 -0.4301  0.1218 -0.0514
 6015TIP3    H139680   6.718   1.989   8.791 -1.1176  0.2821  1.4816
 6015TIP3    H239681   6.848   1.921   8.827 -0.4377  0.4899 -0.4805
 6016TIP3   OH239682   3.206   4.978   1.186  0.3055 -0.0250  0.1268
 6016TIP3    H139683   3.117   4.970   1.220 -0.4303 -1.1371 -1.9429
 6016TIP3    H239684   3.238   5.061   1.223 -1.2697  0.0110  1.5318
 6017TIP3   OH239685   0.502   6.688   8.096  0.1504 -0.0543  0.3384
 6017TIP3    H139686   0.573   6.734   8.050  0.4714  0.1652  1.0402
 6017TIP3    H239687   0.528   6.691   8.188 -0.8054  0.0845  0.6078
 6018TIP3   OH239688   1.942   2.642   0.717  0.0137  0.3684  0.1408
 6018TIP3    H139689   1.901   2.564   0.681 -1.7229  1.7300 -1.0505
 6018TIP3    H239690   2.036   2.625   0.712 -0.3335 -1.8834  0.5992
 6019TIP3   OH239691   4.130   1.524   7.128 -0.0993 -0.2642 -0.2866
 6019TIP3    H139692   4.113   1.617   7.113 -0.1500 -0.3406 -0.7294
 6019TIP3    H239693   4.224   1.518   7.142 -0.2269 -0.0218  0.7442
 6020TIP3   OH239694   5.885   0.904   8.355 -0.1061 -0.1616  0.4157
 6020TIP3    H139695   5.892   0.942   8.442  0.8664 -2.6492  1.5276
 6020TIP3    H239696   5.943   0.956   8.300  3.1373 -1.3942  2.4068
 6021TIP3   OH239697   4.222   6.688   7.631  0.4179 -0.8468 -0.2875
 6021TIP3    H139698   4.196   6.775   7.660  3.3859 -0.2319  0.8309
 6021TIP3    H239699   4.201   6.686   7.538 -0.1279  0.8681 -0.2260
 6022TIP3   OH239700   5.199   4.944   7.537 -0.0550 -0.0223  0.0966
 6022TIP3    H139701   5.178   4.953   7.444  0.6665  0.7949 -0.0015
 6022TIP3    H239702   5.289   4.911   7.539 -0.0449  0.0138  0.5025
 6023TIP3   OH239703   5.698   1.260   1.128 -0.6122 -0.0762 -0.4025
 6023TIP3    H139704   5.648   1.179   1.115 -0.5458 -0.3625  1.0442
 6023TIP3    H239705   5.730   1.282   1.040 -1.3602 -1.1351 -0.9634
 6024TIP3   OH239706   2.583   2.099   6.317  0.5691  0.1906 -0.1741
 6024TIP3    H139707   2.617   2.141   6.397  0.8823 -2.0072  0.9167
 6024TIP3    H239708   2.611   2.157   6.246  0.2466  2.2420  1.2900
 6025TIP3   OH239709   5.865   2.778   7.672  0.2656  0.5546 -0.1062
 6025TIP3    H139710   5.863   2.871   7.651  0.5106  0.3980 -0.8626
 6025TIP3    H239711   5.926   2.741   7.608  0.5286 -0.0511  0.4853
 6026TIP3   OH239712   4.511   4.601   0.135  0.1789  0.2991  0.4851
 6026TIP3    H139713   4.569   4.601   0.212  0.8665  0.2333 -0.0182
 6026TIP3    H239714   4.491   4.694   0.121  2.6771  0.6866 -1.1462
 6027TIP3   OH239715   6.752   5.303   0.805  0.1258 -0.3440 -0.1342
 6027TIP3    H139716   6.774   5.254   0.726  0.0937  0.4267 -0.6325
 6027TIP3    H239717   6.748   5.237   0.874 -0.5566 -1.1359 -0.9068
 6028TIP3   OH239718   4.921   4.673   6.622  0.3165  0.4412  0.4032
 6028TIP3    H139719   4.916   4.713   6.709  1.5252 -2.4605  1.9825
 6028TIP3    H239720   4.992   4.719   6.578  1.8877 -0.0869  2.2433
 6029TIP3   OH239721   6.331   0.757   8.255 -0.0705 -0.0424  0.6062
 6029TIP3    H139722   6.299   0.793   8.338 -1.8434 -0.5992  0.1998
 6029TIP3    H239723   6.388   0.825   8.220  0.4782  0.3264  2.1252
 6030TIP3   OH239724   3.429   0.054   0.298  0.9450 -0.1949  0.3834
 6030TIP3    H139725   3.410   0.057   0.204  0.8199 -0.4511  0.4017
 6030TIP3    H239726   3.430  -0.039   0.320 -0.4014 -0.1006  0.9096
 6031TIP3   OH239727   3.147   0.751   8.383  0.2072 -0.4333  0.1322
 6031TIP3    H139728   3.237   0.772   8.355  0.3572 -0.2352  0.7495
 6031TIP3    H239729   3.156   0.721   8.473 -0.8326  4.7693  2.3183
 6032TIP3   OH239730   2.794   3.930   2.657  0.1353 -0.1351  0.0362
 6032TIP3    H139731   2.789   3.872   2.732  1.1938  0.1182  0.3308
 6032TIP3    H239732   2.706   3.932   2.620 -0.0102 -1.5516  0.2892
 6033TIP3   OH239733   0.838   0.525   0.413  0.7487  0.2697  0.5951
 6033TIP3    H139734   0.888   0.524   0.495  0.4189  1.3071  0.8249
 6033TIP3    H239735   0.749   0.549   0.439  0.7139  0.9459 -0.1014
 6034TIP3   OH239736   5.889   3.035   1.223 -0.1705 -0.0972  0.0450
 6034TIP3    H139737   5.889   3.022   1.128 -0.2978  0.1660  0.0063
 6034TIP3    H239738   5.829   2.968   1.257  0.5446 -0.7609  0.0270
 6035TIP3   OH239739   1.716   3.962   7.897  0.1145 -0.0996 -0.8981
 6035TIP3    H139740   1.738   3.936   7.808  0.2572  0.3874 -1.0068
 6035TIP3    H239741   1.729   3.883   7.949  2.3958  0.1978 -0.9132
 6036TIP3   OH239742   6.424   0.486   1.506 -0.4475  0.1303 -0.1620
 6036TIP3    H139743   6.346   0.450   1.547  0.3293 -2.2193 -0.5767
 6036TIP3    H239744   6.440   0.430   1.430  1.2598  0.9633 -0.4885
 6037TIP3   OH239745   1.261   0.308   8.529 -0.4110  0.1201 -0.1324
 6037TIP3    H139746   1.291   0.262   8.607  0.6307 -1.1868 -1.2574
 6037TIP3    H239747   1.339   0.316   8.474 -1.0849  1.1650 -0.9786
 6038TIP3   OH239748   3.546   2.678   8.599 -0.0628 -0.0026  0.2982
 6038TIP3    H139749   3.472   2.727   8.635  0.2275 -1.0280  2.4605
 6038TIP3    H239750   3.510   2.633   8.522 -0.6592  2.4227 -0.9366
 6039TIP3   OH239751   6.045   2.295   8.312  0.6606  0.4412  0.2993
 6039TIP3    H139752   6.009   2.208   8.330  0.2809  0.1581 -1.6411
 6039TIP3    H239753   5.970   2.353   8.320  0.1947  0.1441 -1.5071
 6040TIP3   OH239754   0.511   2.475   8.463 -0.0241 -0.2849  0.5675
 6040TIP3    H139755   0.589   2.437   8.423 -0.6681 -1.1708  0.1116
 6040TIP3    H239756   0.529   2.569   8.466  0.2981 -0.2322 -1.3059
 6041TIP3   OH239757   0.594   4.770   7.654  0.0996  0.3056  0.4811
 6041TIP3    H139758   0.595   4.755   7.559  1.1692 -1.0722  0.6844
 6041TIP3    H239759   0.604   4.865   7.663  2.9451  0.2246 -0.7616
 6042TIP3   OH239760   4.328   4.395   6.985 -0.2246  0.1598 -0.0778
 6042TIP3    H139761   4.257   4.342   6.949  0.4083 -0.9468  0.2563
 6042TIP3    H239762   4.408   4.354   6.952  0.3001  0.4791  0.7603
 6043TIP3   OH239763   0.231   3.034   8.745  0.0769 -0.1827 -0.0083
 6043TIP3    H139764   0.246   3.097   8.815 -1.1925  1.0942 -0.8329
 6043TIP3    H239765   0.139   3.047   8.720  0.0085 -1.8125 -0.7476
 6044TIP3   OH239766   0.920   4.559   8.244  0.4929 -0.3843  0.1471
 6044TIP3    H139767   0.985   4.522   8.184  1.1043  1.9318 -0.7318
 6044TIP3    H239768   0.952   4.537   8.331  1.7663 -0.3969 -0.3051
 6045TIP3   OH239769   2.476   5.340   0.617  0.0895 -0.4996 -0.6364
 6045TIP3    H139770   2.437   5.335   0.530 -1.5848 -1.2544  0.1140
 6045TIP3    H239771   2.434   5.416   0.658  0.3677 -0.5555 -0.2415
 6046TIP3   OH239772   5.346   2.460   7.964  0.2542 -0.0342 -0.2284
 6046TIP3    H139773   5.321   2.423   8.049  1.0936  0.6336  0.3254
 6046TIP3    H239774   5.441   2.449   7.959  0.2689  0.3260 -0.8890
 6047TIP3   OH239775   3.091   1.046   7.546  0.0510 -0.3670  0.0132
 6047TIP3    H139776   3.123   1.083   7.464  0.0833 -2.0142 -0.7622
 6047TIP3    H239777   3.007   1.006   7.523  0.9295 -2.5084  0.3078
 6048TIP3   OH239778   2.181   5.918   0.567  0.3396  0.3193 -0.1007
 6048TIP3    H139779   2.229   5.860   0.507 -0.2186  0.7279 -0.9664
 6048TIP3    H239780   2.198   5.882   0.654  1.1846 -0.2800 -0.4954
 6049TIP3   OH239781   5.683   3.119   1.944 -0.0565 -0.3858 -0.3388
 6049TIP3    H139782   5.765   3.137   1.991 -1.4092  0.3512  1.8590
 6049TIP3    H239783   5.620   3.182   1.980 -2.0653 -2.1257 -0.6442
 6050TIP3   OH239784   6.320   1.906   8.452  0.1083  0.1477  0.7905
 6050TIP3    H139785   6.289   1.850   8.380 -0.8873 -1.3906  2.3317
 6050TIP3    H239786   6.240   1.941   8.490  0.6338  0.9968  1.1204
 6051TIP3   OH239787   5.324   0.047   1.795  0.0626  0.0357 -0.5356
 6051TIP3    H139788   5.375  -0.014   1.742  1.0748 -0.7309  1.2292
 6051TIP3    H239789   5.299  -0.003   1.872 -0.8496  1.2727  0.0159
 6052TIP3   OH239790   1.949   5.833   7.195  0.3098  0.2438  0.2110
 6052TIP3    H139791   1.910   5.859   7.111  0.6513  2.1086  0.5780
 6052TIP3    H239792   1.875   5.807   7.249  0.1097 -1.2274 -0.7294
 6053TIP3   OH239793   3.509   5.267   8.506  0.8303 -0.0586 -0.3820
 6053TIP3    H139794   3.438   5.202   8.507  1.7819 -1.1433 -1.2439
 6053TIP3    H239795   3.504   5.308   8.593  0.1608 -1.2344  0.1653
 6054TIP3   OH239796   5.834   3.806   7.657  0.0660  0.0868 -0.0118
 6054TIP3    H139797   5.858   3.713   7.664 -0.0458  0.1135  0.8808
 6054TIP3    H239798   5.882   3.837   7.581  0.0487 -0.7248 -0.3695
 6055TIP3   OH239799   0.138   1.536   2.014 -0.5441  0.6557 -0.5053
 6055TIP3    H139800   0.067   1.551   2.076 -0.7991  0.5718 -0.7775
 6055TIP3    H239801   0.099   1.549   1.928 -0.2958  0.3504 -0.6678
 6056TIP3   OH239802   6.265   1.702   8.268  0.6534  0.5327 -0.3289
 6056TIP3    H139803   6.241   1.670   8.355  0.8030 -0.3601 -0.6063
 6056TIP3    H239804   6.247   1.628   8.209  1.5223  0.7621 -0.9059
 6057TIP3   OH239805   3.831   3.827   0.520 -0.0391  0.2389  0.2153
 6057TIP3    H139806   3.886   3.896   0.558  1.9014 -0.6761 -0.7583
 6057TIP3    H239807   3.827   3.848   0.427 -1.7086  0.4806  0.3152
 6058TIP3   OH239808   2.488   3.056   8.734  0.4063 -0.2595  0.2076
 6058TIP3    H139809   2.399   3.037   8.704  0.4097  0.3156 -0.1794
 6058TIP3    H239810   2.530   3.098   8.659  0.7365  0.2706  0.6806
 6059TIP3   OH239811   3.833   4.672   7.224  0.0984  0.9726 -0.5442
 6059TIP3    H139812   3.785   4.689   7.305  0.1422  1.4516 -0.6150
 6059TIP3    H239813   3.815   4.580   7.204 -1.3823  1.3277 -0.9669
 6060TIP3   OH239814   3.907   6.601   8.862 -0.3156  0.3967  0.5264
 6060TIP3    H139815   3.887   6.574   8.952 -0.2440 -0.4187  0.3107
 6060TIP3    H239816   3.998   6.630   8.865 -0.6141  1.3145  0.9140
 6061TIP3   OH239817   2.989   1.285   7.781  0.7928  0.3151  0.0873
 6061TIP3    H139818   3.071   1.327   7.806  0.2652  1.5478 -0.1862
 6061TIP3    H239819   2.937   1.283   7.862  0.8984  0.0020  0.1468
 6062TIP3   OH239820   4.930   5.631   0.907  0.8241 -0.0402  0.4185
 6062TIP3    H139821   4.941   5.723   0.886  1.2227 -0.3500 -0.8054
 6062TIP3    H239822   4.876   5.631   0.986 -0.9724  1.1970 -0.7339
 6063TIP3   OH239823   5.958   5.460   0.161  0.1554  0.3190 -0.3312
 6063TIP3    H139824   6.014   5.423   0.093 -1.3381  1.1752 -2.1230
 6063TIP3    H239825   5.956   5.393   0.229  3.1456  0.1833 -0.2319
 6064TIP3   OH239826   4.653   4.650   7.717  0.0771 -0.5828  0.3172
 6064TIP3    H139827   4.686   4.581   7.660  1.2234 -0.8498  1.2510
 6064TIP3    H239828   4.650   4.611   7.804  2.2207  0.8920  1.1644
 6065TIP3   OH239829   5.519   6.074   2.435 -0.0454 -0.3454 -0.3688
 6065TIP3    H139830   5.562   6.028   2.363  1.4301  0.9355 -0.3808
 6065TIP3    H239831   5.494   6.158   2.398  0.7887  0.3584  0.5917
 6066TIP3   OH239832   3.342   1.450   8.405 -0.1321 -0.1330  0.6418
 6066TIP3    H139833   3.314   1.513   8.338 -0.5620  0.2753  1.2031
 6066TIP3    H239834   3.406   1.498   8.457  0.7811 -0.6966  0.0683
 6067TIP3   OH239835   5.033   5.062   1.737  0.3318  0.0464  0.0642
 6067TIP3    H139836   5.091   4.989   1.715  1.3520  0.1950  2.0304
 6067TIP3    H239837   5.091   5.136   1.750 -0.5974  0.9613 -0.8147
 6068TIP3   OH239838   0.508   1.670   2.026 -0.5309 -0.1335 -0.1009
 6068TIP3    H139839   0.426   1.694   2.070 -1.0566 -2.7007  0.4612
 6068TIP3    H239840   0.550   1.609   2.085  1.1377  0.0481 -1.0376
 6069TIP3   OH239841   2.243   1.972   0.164 -0.1785 -0.2971 -0.1150
 6069TIP3    H139842   2.304   1.969   0.090  0.1596 -0.3758  0.1641
 6069TIP3    H239843   2.157   1.982   0.124  0.2069  2.5139 -0.4306
 6070TIP3   OH239844   2.519   3.869   0.485 -0.4997 -0.5009  0.3101
 6070TIP3    H139845   2.601   3.869   0.436  0.2010 -0.2644  1.4538
 6070TIP3    H239846   2.534   3.808   0.557 -0.5754  1.1073  1.7284
 6071TIP3   OH239847   0.038   0.519   1.225 -0.8338  0.4574  0.2292
 6071TIP3    H139848  -0.045   0.556   1.195 -0.0705  2.5799  0.6099
 6071TIP3    H239849   0.084   0.592   1.267  0.5600 -1.0411  1.4738
 6072TIP3   OH239850   4.313   5.400   0.027  0.5023  0.7116 -0.7412
 6072TIP3    H139851   4.230   5.354   0.010  1.0608 -0.2343 -1.0101
 6072TIP3    H239852   4.288   5.479   0.075 -0.3729 -0.5942  1.0703
 6073TIP3   OH239853   0.008   5.659   7.745 -0.1805 -0.0086  0.1653
 6073TIP3    H139854   0.098   5.638   7.722 -0.3992 -0.5525 -0.2224
 6073TIP3    H239855  -0.010   5.606   7.823  0.0691  0.6821  0.7138
 6074TIP3   OH239856   3.421   2.158   1.450 -0.1030  0.0260  0.1827
 6074TIP3    H139857   3.503   2.200   1.426  0.3874  0.4452  2.4318
 6074TIP3    H239858   3.440   2.110   1.530 -1.4841 -1.8661 -0.5416
 6075TIP3   OH239859   3.819   1.625   7.691  0.1199  0.2332 -0.1352
 6075TIP3    H139860   3.792   1.704   7.644  1.2541  0.2546 -0.8043
 6075TIP3    H239861   3.788   1.638   7.780 -2.1854  0.1416 -0.8769
 6076TIP3   OH239862   5.886   6.155   0.666  0.1417  0.1960  0.2003
 6076TIP3    H139863   5.866   6.244   0.637  2.9571  0.7676 -0.3217
 6076TIP3    H239864   5.927   6.166   0.752  1.9711 -0.3602 -0.5393
 6077TIP3   OH239865   3.254   2.410   7.175  0.5362  0.0898 -0.1764
 6077TIP3    H139866   3.337   2.452   7.199  1.0032 -0.2343 -1.1608
 6077TIP3    H239867   3.226   2.457   7.096  0.2405 -0.3992 -0.3656
 6078TIP3   OH239868   1.528   2.740   0.771 -0.0051 -0.4734 -0.0195
 6078TIP3    H139869   1.591   2.755   0.842 -0.9341 -0.0574  0.7441
 6078TIP3    H239870   1.526   2.645   0.761  1.1151 -0.4680 -0.4135
 6079TIP3   OH239871   4.586   5.605   6.450  0.6381  0.2572  0.4349
 6079TIP3    H139872   4.592   5.659   6.371  2.6754  2.5117  1.9646
 6079TIP3    H239873   4.607   5.517   6.420 -0.3038  0.7120 -1.7861
 6080TIP3   OH239874   2.817   5.586   7.168 -0.4938  0.5084  0.1985
 6080TIP3    H139875   2.855   5.649   7.107 -0.3967  0.6595  0.4165
 6080TIP3    H239876   2.875   5.586   7.243  1.1829 -1.9749 -0.9494
 6081TIP3   OH239877   1.711   5.933   8.854 -0.0756 -0.3814  0.4826
 6081TIP3    H139878   1.620   5.963   8.853  0.2196  0.5614 -0.3215
 6081TIP3    H239879   1.706   5.838   8.866 -1.2245 -0.5269 -0.9715
 6082TIP3   OH239880   3.773   3.451   8.494  0.2246 -0.0528  0.3727
 6082TIP3    H139881   3.817   3.500   8.563  1.7125  1.0017 -1.2410
 6082TIP3    H239882   3.808   3.363   8.499  2.2309  0.6422 -0.5543
 6083TIP3   OH239883   6.444   3.124   0.235  0.0697 -0.0822  0.8033
 6083TIP3    H139884   6.486   3.090   0.314  1.0757  2.2397  1.3559
 6083TIP3    H239885   6.509   3.112   0.166  0.9204  1.6587  1.2429
 6084TIP3   OH239886   3.146   0.157   7.223 -0.5517 -0.5141 -0.4419
 6084TIP3    H139887   3.198   0.084   7.189  0.7324 -0.0619  0.4872
 6084TIP3    H239888   3.146   0.221   7.152  0.9018 -0.1740 -0.1661
 6085TIP3   OH239889   4.506   0.591   7.198 -0.0755  0.0417  1.3070
 6085TIP3    H139890   4.430   0.648   7.207 -0.5880 -0.6998  1.7685
 6085TIP3    H239891   4.471   0.509   7.163  0.6092 -0.0852  0.9030
 6086TIP3   OH239892   2.767   4.911   7.124  0.0541 -0.6967  0.2610
 6086TIP3    H139893   2.798   4.978   7.063  0.6216 -1.9086 -0.8159
 6086TIP3    H239894   2.673   4.904   7.105 -0.1324  0.1746  0.7823
 6087TIP3   OH239895   2.547   2.919   1.891  0.1338 -0.1829  0.0722
 6087TIP3    H139896   2.510   2.848   1.838 -0.5297 -0.1109  0.4340
 6087TIP3    H239897   2.634   2.933   1.854  1.1875 -2.6678  1.3370
 6088TIP3   OH239898   6.004   2.719   8.726  0.0721  0.4770 -0.0161
 6088TIP3    H139899   5.974   2.653   8.789 -0.0472 -0.6280 -1.2046
 6088TIP3    H239900   6.004   2.801   8.776  0.5887 -0.4678  1.5923
 6089TIP3   OH239901   0.811   5.032   1.063 -0.7052 -0.6953 -0.6863
 6089TIP3    H139902   0.753   5.074   1.127 -0.4281  2.4461 -2.2987
 6089TIP3    H239903   0.860   4.967   1.114 -0.3561  1.7206  2.3616
 6090TIP3   OH239904   3.633   6.606   0.252 -1.1152  0.1624  0.0505
 6090TIP3    H139905   3.714   6.555   0.253 -0.9913  0.3654  0.8518
 6090TIP3    H239906   3.602   6.604   0.342 -1.6400  0.6670 -0.1116
 6091TIP3   OH239907   3.916   0.133   0.497  0.5363 -0.4239 -0.0746
 6091TIP3    H139908   3.925   0.038   0.501  0.2410 -0.4253  0.5515
 6091TIP3    H239909   3.846   0.147   0.432  0.3511 -0.6459  0.0753
 6092TIP3   OH239910   4.068   2.733   7.344 -0.2995  0.0460  0.3530
 6092TIP3    H139911   3.973   2.740   7.355 -0.3195 -0.5851  0.6401
 6092TIP3    H239912   4.086   2.774   7.259 -0.7854  0.4567  0.4450
 6093TIP3   OH239913   3.784   0.876   2.245 -0.2488  0.5750  0.3792
 6093TIP3    H139914   3.798   0.880   2.339 -1.4214  1.5628  0.5347
 6093TIP3    H239915   3.764   0.966   2.220 -2.3350 -0.0699 -0.4131
 6094TIP3   OH239916   3.907   3.690   8.343 -0.4190  0.6174  0.0058
 6094TIP3    H139917   3.833   3.687   8.403 -2.3259  1.1832 -2.1960
 6094TIP3    H239918   3.924   3.784   8.331  0.6295  0.4941  0.4211
 6095TIP3   OH239919   3.606   6.063   6.666 -0.1678 -0.0956 -0.1602
 6095TIP3    H139920   3.672   5.997   6.689 -1.5933 -1.5900 -0.1617
 6095TIP3    H239921   3.587   6.107   6.749  1.0539  0.6056 -0.2270
 6096TIP3   OH239922   2.852   2.536   1.594  0.1136  0.6442 -0.4089
 6096TIP3    H139923   2.873   2.615   1.643  1.7431  1.6670 -2.5848
 6096TIP3    H239924   2.774   2.557   1.545 -0.6966  0.1024  0.5929
 6097TIP3   OH239925   1.912   0.009   0.132  0.4389  0.2271  0.1993
 6097TIP3    H139926   1.821   0.035   0.150 -0.3788 -1.8385 -0.5498
 6097TIP3    H239927   1.928  -0.063   0.194  1.4886  0.4180  0.1593
 6098TIP3   OH239928   2.855   0.925   6.200 -0.6235 -1.0564  0.8846
 6098TIP3    H139929   2.945   0.933   6.231  0.0271  0.5715 -1.1588
 6098TIP3    H239930   2.825   0.841   6.234  2.5948 -2.9694 -0.4976
 6099TIP3   OH239931   6.089   1.670   0.505  0.4402  0.5032  0.3192
 6099TIP3    H139932   6.119   1.757   0.477 -0.4448  0.6670 -0.1568
 6099TIP3    H239933   6.058   1.683   0.595 -4.3559  1.9429 -1.2133
 6100TIP3   OH239934   4.571   2.993   7.359 -0.1630  0.5213  0.3844
 6100TIP3    H139935   4.632   2.988   7.286  1.1380  1.5055  1.3609
 6100TIP3    H239936   4.494   2.943   7.330  0.6735  0.1466 -1.2791
 6101TIP3   OH239937   1.178   3.706   1.943 -0.7503  0.3951 -0.0857
 6101TIP3    H139938   1.168   3.765   2.018 -1.2890 -0.9684  0.9564
 6101TIP3    H239939   1.261   3.661   1.960 -1.5914 -0.9883  0.5063
 6102TIP3   OH239940   3.444   3.937   0.796  0.2330 -0.0634  0.1961
 6102TIP3    H139941   3.464   3.947   0.703 -1.4137 -0.3455 -0.2200
 6102TIP3    H239942   3.482   4.014   0.837 -1.1759  1.4172 -1.1064
 6103TIP3   OH239943   6.158   0.582   6.485  0.5028  0.3274 -0.1278
 6103TIP3    H139944   6.221   0.512   6.462 -1.8467 -1.5406 -1.3349
 6103TIP3    H239945   6.120   0.608   6.401  0.0741  1.8631  0.5139
 6104TIP3   OH239946   1.794   4.882   1.703 -0.1677 -0.2043 -0.3561
 6104TIP3    H139947   1.823   4.876   1.794 -0.1309  1.8952 -0.1908
 6104TIP3    H239948   1.785   4.791   1.675  0.7378 -0.8939  1.4443
 6105TIP3   OH239949   3.751   4.066   7.425  0.2032  0.2400 -0.1510
 6105TIP3    H139950   3.759   4.136   7.489 -0.8212 -0.1095  0.3781
 6105TIP3    H239951   3.662   4.034   7.435  0.3612 -0.5278 -1.0262
 6106TIP3   OH239952   4.141   3.026   0.599  0.2322 -0.0092  0.1029
 6106TIP3    H139953   4.065   3.031   0.540 -0.2364 -1.9765  0.4688
 6106TIP3    H239954   4.108   2.981   0.676  2.0135 -1.8874 -0.1662
 6107TIP3   OH239955   1.687   5.354   0.971 -0.2378 -0.2417  0.1039
 6107TIP3    H139956   1.613   5.329   1.026 -0.7236 -1.2371 -0.9612
 6107TIP3    H239957   1.670   5.445   0.949 -0.4091 -0.0463  1.0095
 6108TIP3   OH239958   5.337   6.367   8.303 -0.3908 -0.6332 -0.2054
 6108TIP3    H139959   5.403   6.303   8.329  1.0309  0.2358 -1.5146
 6108TIP3    H239960   5.298   6.396   8.386  1.8195 -0.1970  0.7597
 6109TIP3   OH239961   3.123   0.173   0.901  0.3731 -0.0500 -0.1713
 6109TIP3    H139962   3.201   0.217   0.934  0.4366 -0.3672  0.1076
 6109TIP3    H239963   3.114   0.205   0.811  0.5490  0.3507 -0.0470
 6110TIP3   OH239964   0.247   4.603   1.877  0.2971 -0.0393 -0.2250
 6110TIP3    H139965   0.274   4.564   1.794  1.7432  0.0955  0.1513
 6110TIP3    H239966   0.241   4.697   1.859  2.0097  0.1777  0.1204
 6111TIP3   OH239967   4.514   0.108   2.522 -0.3815 -0.1033 -0.0101
 6111TIP3    H139968   4.595   0.154   2.504 -0.5193  0.6707  1.2619
 6111TIP3    H239969   4.521   0.027   2.471  1.7658 -0.6695  1.0461
 6112TIP3   OH239970   5.575   0.909   7.784 -0.2189 -0.4243  0.3558
 6112TIP3    H139971   5.578   0.945   7.695  1.7144 -1.3551 -0.0077
 6112TIP3    H239972   5.518   0.833   7.777 -0.2216 -0.3854 -0.0551
 6113TIP3   OH239973   5.557   1.960   8.312  0.0067  0.0591  0.1971
 6113TIP3    H139974   5.488   1.907   8.274  0.8800 -0.7140 -0.3675
 6113TIP3    H239975   5.538   2.049   8.282 -1.2619  0.0152  0.8501
 6114TIP3   OH239976   1.247   5.077   8.361 -0.1744  0.6413 -0.3729
 6114TIP3    H139977   1.334   5.106   8.388 -0.9512  2.1637  0.6446
 6114TIP3    H239978   1.263   5.009   8.295  1.7709  1.7172 -1.0813
 6115TIP3   OH239979   2.513   3.867   1.496 -0.7263 -0.1414 -0.5375
 6115TIP3    H139980   2.431   3.823   1.520 -0.7594  0.5250  0.5954
 6115TIP3    H239981   2.516   3.945   1.550  2.0523 -1.5576  1.6069
 6116TIP3   OH239982   4.010   0.890   0.317  0.3967 -0.2274 -0.4128
 6116TIP3    H139983   3.960   0.869   0.238  0.0092 -0.2254 -0.1687
 6116TIP3    H239984   4.081   0.826   0.319  0.7463  0.1227 -1.0670
 6117TIP3   OH239985   1.928   2.107   8.464 -0.1549  0.3525  0.0934
 6117TIP3    H139986   1.973   2.023   8.474  1.1049  1.1628  1.6580
 6117TIP3    H239987   1.997   2.171   8.449 -1.0787  1.1713 -0.8608
 6118TIP3   OH239988   5.496   0.976   1.801 -0.2304 -0.8267 -0.4272
 6118TIP3    H139989   5.559   0.999   1.733  0.2356 -2.6753 -0.6818
 6118TIP3    H239990   5.544   0.917   1.860 -0.9220 -0.0635  0.9604
 6119TIP3   OH239991   4.577   6.290   7.954  0.2155  0.4904  0.1008
 6119TIP3    H139992   4.591   6.256   8.043  1.4166 -0.5765 -0.4542
 6119TIP3    H239993   4.574   6.385   7.965 -1.3596  0.3142  1.4786
 6120TIP3   OH239994   1.124   4.965   2.108  0.5427  0.0772  0.2864
 6120TIP3    H139995   1.219   4.950   2.111  0.6789  0.8767  0.1951
 6120TIP3    H239996   1.095   4.920   2.028  0.9669  0.4657 -0.0920
 6121TIP3   OH239997   4.359   1.155   1.214 -0.5666  0.0340 -0.2562
 6121TIP3    H139998   4.380   1.243   1.246 -0.0413 -0.5034  0.9476
 6121TIP3    H239999   4.365   1.162   1.119  0.8430  0.9731 -0.1271
 6122TIP3   OH240000   4.570   4.580   1.359 -0.2403 -0.5157 -0.2281
 6122TIP3    H140001   4.554   4.514   1.292 -3.0424 -0.2506  0.0548
 6122TIP3    H240002   4.613   4.533   1.431 -1.1944 -1.7875 -0.4710
 6123TIP3   OH240003   4.541   5.395   7.095 -0.7105  0.0050 -0.3306
 6123TIP3    H140004   4.493   5.415   7.175 -0.8687 -0.5186 -0.2885
 6123TIP3    H240005   4.630   5.426   7.111 -1.1056  1.3151 -0.5437
 6124TIP3   OH240006   0.486   5.403   1.412 -0.2383  0.1123  0.4457
 6124TIP3    H140007   0.441   5.488   1.405  0.1933  0.4252  1.3132
 6124TIP3    H240008   0.529   5.406   1.497  2.0896  0.1417 -0.6502
 6125TIP3   OH240009   3.557   2.132   1.137  0.0352 -0.1029  0.0302
 6125TIP3    H140010   3.519   2.047   1.160  3.9950 -1.1857  3.9038
 6125TIP3    H240011   3.605   2.115   1.056 -1.4981 -0.6366 -0.8322
 6126TIP3   OH240012   4.272   1.632   1.051 -0.4715  0.8511  0.3624
 6126TIP3    H140013   4.218   1.583   1.113  0.7988  0.5101  1.2405
 6126TIP3    H240014   4.340   1.672   1.105 -0.2438  1.8520 -0.6213
 6127TIP3   OH240015   6.609   0.889   6.694  0.4234 -0.5117 -0.2365
 6127TIP3    H140016   6.696   0.891   6.735 -0.5439  2.7482  2.0482
 6127TIP3    H240017   6.604   0.970   6.643 -1.5120 -0.2449  0.2942
 6128TIP3   OH240018   1.547   5.579   0.578 -0.1247  0.0805  0.5533
 6128TIP3    H140019   1.624   5.625   0.544  0.4234 -0.3925  1.1114
 6128TIP3    H240020   1.583   5.498   0.616 -0.8931 -0.1242  0.8640
 6129TIP3   OH240021   0.904   3.055   0.731 -0.2457  0.1491  0.3292
 6129TIP3    H140022   0.987   3.013   0.711 -0.5527  0.4255 -1.7081
 6129TIP3    H240023   0.871   3.009   0.808  0.6051 -1.6332 -0.3333
 6130TIP3   OH240024   1.271   2.799   7.941  0.4078 -0.4231 -0.0564
 6130TIP3    H140025   1.338   2.866   7.959  0.0768 -0.1575  0.1986
 6130TIP3    H240026   1.313   2.716   7.962  0.4402 -0.2076  0.7376
 6131TIP3   OH240027   5.182   6.258   1.647  0.1954  0.4348  0.6956
 6131TIP3    H140028   5.196   6.194   1.717  0.3044 -0.1533  0.1443
 6131TIP3    H240029   5.269   6.280   1.616  0.1257  0.2607  0.3676
 6132TIP3   OH240030   6.188   1.961   8.849 -0.0030  0.0696 -0.4521
 6132TIP3    H140031   6.145   1.876   8.859  2.1172 -1.2027 -1.4345
 6132TIP3    H240032   6.199   1.993   8.939  1.5257 -1.9930  0.1682
 6133TIP3   OH240033   3.605   3.023   8.559 -0.3495  0.0010 -0.1781
 6133TIP3    H140034   3.655   3.028   8.478 -1.0808  0.9908 -0.5780
 6133TIP3    H240035   3.661   2.972   8.618  1.0201  0.8774 -0.6838
 6134TIP3   OH240036   6.010   0.915   7.335  0.6243 -0.8869 -0.0214
 6134TIP3    H140037   6.013   0.829   7.379 -0.0033 -0.5519  0.6939
 6134TIP3    H240038   6.046   0.976   7.399 -0.8917 -0.2903  0.2921
 6135TIP3   OH240039   6.583   3.263   2.182  0.1280  0.0894 -0.6371
 6135TIP3    H140040   6.605   3.347   2.141  0.2699  0.0091 -0.7272
 6135TIP3    H240041   6.641   3.200   2.139 -0.1874 -0.1033 -0.7802
 6136TIP3   OH240042   2.584   4.994   8.714 -0.3932 -0.4030  0.6323
 6136TIP3    H140043   2.635   4.922   8.676 -0.5300  0.6587 -1.7750
 6136TIP3    H240044   2.545   4.957   8.793  1.0356 -2.3957  0.4743
 6137TIP3   OH240045   5.153   0.318   0.806  0.3251 -0.4166  0.0217
 6137TIP3    H140046   5.217   0.353   0.869  1.2207 -2.4311  0.3240
 6137TIP3    H240047   5.068   0.339   0.845  0.6791  2.9784 -0.7556
 6138TIP3   OH240048   5.462   6.692   2.271  0.3987  0.7344  0.3005
 6138TIP3    H140049   5.549   6.662   2.243  0.1920 -0.5190  0.9277
 6138TIP3    H240050   5.470   6.706   2.365 -0.1112  0.4695  0.3873
 6139TIP3   OH240051   1.039   2.092   0.221  0.0704 -0.0074  0.5241
 6139TIP3    H140052   0.970   2.150   0.252  1.1750  2.1360 -0.8409
 6139TIP3    H240053   0.992   2.022   0.174 -1.3064 -0.6286  2.6618
 6140TIP3   OH240054   6.131   2.653   8.118  0.2034  0.1820 -0.0190
 6140TIP3    H140055   6.097   2.567   8.095 -0.4537  0.3780  0.1782
 6140TIP3    H240056   6.088   2.713   8.057 -0.3553  0.5140  0.6727
 6141TIP3   OH240057   0.851   3.171   1.381 -0.3115 -0.5408 -0.2808
 6141TIP3    H140058   0.939   3.164   1.344 -0.1303 -0.6103  0.1677
 6141TIP3    H240059   0.797   3.200   1.307  0.7465  3.4422  0.3005
 6142TIP3   OH240060   4.570   6.693   1.404 -0.2581 -0.3857  0.1696
 6142TIP3    H140061   4.587   6.606   1.369 -1.6378 -0.1727 -1.1121
 6142TIP3    H240062   4.583   6.684   1.499  1.1825 -1.5619 -0.1100
 6143TIP3   OH240063   0.044   2.297   0.751  0.8041  0.8065 -0.5008
 6143TIP3    H140064   0.071   2.263   0.665  0.3566  1.2639 -0.8279
 6143TIP3    H240065  -0.008   2.374   0.731  0.6107  0.8609  0.1862
 6144TIP3   OH240066   6.399   3.821   7.370 -0.2110  0.5386  0.1390
 6144TIP3    H140067   6.356   3.736   7.370 -0.2676  0.5552 -1.1364
 6144TIP3    H240068   6.446   3.824   7.287  1.0539  1.1280  0.8598
 6145TIP3   OH240069   4.076   1.201   7.669  0.4612  0.0118  0.1365
 6145TIP3    H140070   4.045   1.283   7.630 -2.8056 -1.3168 -0.4688
 6145TIP3    H240071   4.089   1.221   7.761  2.6450  1.8433 -0.4956
 6146TIP3   OH240072   3.777   1.331   6.562 -0.4339  0.1786 -0.0063
 6146TIP3    H140073   3.770   1.356   6.470  2.1536  1.3463  0.0192
 6146TIP3    H240074   3.817   1.244   6.560 -2.3665 -0.7654  0.0437
 6147TIP3   OH240075   0.280   3.366   1.361 -0.6436 -0.1850  0.2843
 6147TIP3    H140076   0.197   3.407   1.383 -0.6920 -0.4930  0.6847
 6147TIP3    H240077   0.317   3.421   1.292 -0.8152  0.3952  0.6564
 6148TIP3   OH240078   4.723   4.514   8.880  1.1828 -0.2143  0.3797
 6148TIP3    H140079   4.658   4.537   8.947  1.6959  1.1147  0.4523
 6148TIP3    H240080   4.726   4.590   8.822  0.7053 -1.3680 -1.2194
 6149TIP3   OH240081   0.762   6.124   7.242 -0.1827  0.1759 -0.1998
 6149TIP3    H140082   0.695   6.176   7.286 -0.8299  0.0995 -1.0754
 6149TIP3    H240083   0.750   6.143   7.149  0.0430 -0.9802 -0.4764
 6150TIP3   OH240084   2.411   1.554   1.714  0.1053  0.4515 -0.2166
 6150TIP3    H140085   2.426   1.627   1.654 -0.8689  0.6343 -0.2595
 6150TIP3    H240086   2.456   1.480   1.674 -1.2011  0.3657 -1.6431
 6151TIP3   OH240087   2.676   6.469   1.642 -0.4404  0.6725  0.3940
 6151TIP3    H140088   2.680   6.541   1.580 -0.7116 -1.1871 -1.9356
 6151TIP3    H240089   2.594   6.424   1.622  1.5406 -2.6541 -1.2098
 6152TIP3   OH240090   6.090   6.400   8.069 -0.1383 -0.3117  0.0579
 6152TIP3    H140091   6.183   6.379   8.083  0.2901  1.1593 -0.3569
 6152TIP3    H240092   6.073   6.472   8.129 -0.2296  1.2946 -1.8188
 6153TIP3   OH240093   1.764   6.219   1.308  0.3228 -0.3811 -0.2298
 6153TIP3    H140094   1.696   6.193   1.246 -0.1707  1.7198 -0.6578
 6153TIP3    H240095   1.782   6.140   1.358 -1.4044 -1.3712 -1.0640
 6154TIP3   OH240096   4.742   1.404   6.479 -0.1469 -0.0137 -0.0098
 6154TIP3    H140097   4.807   1.338   6.454 -0.4290 -1.1019  1.9434
 6154TIP3    H240098   4.665   1.383   6.428 -0.5190 -1.7930  1.2250
 6155TIP3   OH240099   1.107   1.081   6.632 -0.0966 -0.0526  0.0023
 6155TIP3    H140100   1.071   1.165   6.603 -1.3201 -0.7380 -0.5556
 6155TIP3    H240101   1.193   1.077   6.591  0.3804  1.3439  0.8124
 6156TIP3   OH240102   5.331   1.186   8.824 -0.1218 -0.4503 -0.1107
 6156TIP3    H140103   5.253   1.241   8.818  0.7644  0.7839 -0.7805
 6156TIP3    H240104   5.310   1.109   8.772 -0.2406  0.7405 -1.9176
 6157TIP3   OH240105   2.695   0.345   8.833  0.0303  0.2082 -0.1677
 6157TIP3    H140106   2.681   0.371   8.924 -2.5495  2.5626 -1.0786
 6157TIP3    H240107   2.782   0.378   8.812  0.1924  0.6677  1.1010
 6158TIP3   OH240108   1.738   3.912   7.630  0.4390 -0.0006  0.0976
 6158TIP3    H140109   1.776   3.975   7.569  1.0330 -1.7183 -1.4185
 6158TIP3    H240110   1.655   3.886   7.589 -0.3970  0.6410  1.3060
 6159TIP3   OH240111   1.380   0.678   0.701 -0.2677  0.5867 -0.1109
 6159TIP3    H140112   1.373   0.760   0.652  2.0176  1.1414  0.3866
 6159TIP3    H240113   1.406   0.705   0.789  1.6600 -0.6831 -0.2349
 6160TIP3   OH240114   2.028   4.228   2.347  0.3324 -0.0078 -0.2489
 6160TIP3    H140115   2.089   4.164   2.309 -0.2825 -0.6915 -0.0956
 6160TIP3    H240116   1.941   4.195   2.325 -0.0016  0.5172  0.2561
 6161TIP3   OH240117   3.864   1.425   2.060 -0.4970 -0.4368  0.6985
 6161TIP3    H140118   3.856   1.487   1.987 -0.4675 -1.7351 -0.4394
 6161TIP3    H240119   3.773   1.410   2.088 -0.7253 -1.6344 -0.5720
 6162TIP3   OH240120   2.053   6.514   8.494 -0.2432 -0.3562 -0.0425
 6162TIP3    H140121   2.083   6.468   8.573 -1.6399  1.0990  1.4110
 6162TIP3    H240122   2.036   6.603   8.523  1.4987  0.9144 -2.5609
 6163TIP3   OH240123   2.715   2.853   0.351 -0.1193  0.3394  0.2904
 6163TIP3    H140124   2.635   2.900   0.375  0.1176  0.7839  0.2200
 6163TIP3    H240125   2.714   2.850   0.255 -1.1408 -1.5665  0.3110
 6164TIP3   OH240126   5.534   4.657   8.304 -0.2129 -0.0212  0.0753
 6164TIP3    H140127   5.451   4.613   8.322 -0.2728  0.8139  2.0193
 6164TIP3    H240128   5.599   4.607   8.352  0.2747 -0.0354 -0.5737
 6165TIP3   OH240129   2.641   2.742   7.865  0.1189  0.5292 -1.3087
 6165TIP3    H140130   2.573   2.753   7.799  1.2733  0.7877 -2.5070
 6165TIP3    H240131   2.646   2.648   7.879 -0.3337  0.4937 -1.3879
 6166TIP3   OH240132   1.710   4.751   1.242 -0.6593  0.8246  0.4577
 6166TIP3    H140133   1.786   4.775   1.189 -0.6688 -0.0617  0.0325
 6166TIP3    H240134   1.684   4.833   1.285  1.1352  0.9581  1.3955
 6167TIP3   OH240135   2.877   6.055   8.503 -0.4437 -0.2133 -0.3055
 6167TIP3    H140136   2.950   6.064   8.443  0.1608  1.7676  0.6133
 6167TIP3    H240137   2.866   5.961   8.516  2.7136 -0.5780  0.4221
 6168TIP3   OH240138   3.390   4.233   8.739  0.0714 -0.1944 -0.8876
 6168TIP3    H140139   3.302   4.240   8.776  0.8382  0.7711  0.8756
 6168TIP3    H240140   3.375   4.223   8.645 -1.9214 -0.4728 -0.5981
 6169TIP3   OH240141   0.782   0.382   8.310 -0.2977  0.0498  0.6063
 6169TIP3    H140142   0.869   0.342   8.302 -0.4114 -0.1676  0.4489
 6169TIP3    H240143   0.739   0.362   8.227 -0.8421 -0.6479  1.0527
 6170TIP3   OH240144   5.081   5.320   1.145 -0.3156 -0.3542 -0.3277
 6170TIP3    H140145   5.092   5.403   1.192  0.6203 -1.1124  0.8530
 6170TIP3    H240146   5.167   5.279   1.149 -0.6045 -1.1079 -1.4688
 6171TIP3   OH240147   1.642   4.121   1.371 -0.2998 -0.3748  0.3551
 6171TIP3    H140148   1.629   4.121   1.465  2.4734  0.9593  0.8451
 6171TIP3    H240149   1.720   4.068   1.357  0.2155  0.6627 -0.9910
 6172TIP3   OH240150   0.633   0.024   1.948 -0.3172 -0.3923  0.1187
 6172TIP3    H140151   0.591   0.027   2.034  0.4370  0.1049  0.4809
 6172TIP3    H240152   0.716   0.069   1.960  0.9747 -2.5468 -0.2227
 6173TIP3   OH240153   5.100   6.028   7.316  0.6084  0.3587  0.2302
 6173TIP3    H140154   5.107   6.112   7.270 -0.5875  0.4778  0.2359
 6173TIP3    H240155   5.006   6.010   7.319  0.7750 -0.4429  1.2079
 6174TIP3   OH240156   2.754   0.623   2.051 -0.3361  0.0935 -0.4801
 6174TIP3    H140157   2.797   0.701   2.015  0.5888  0.0898  0.5754
 6174TIP3    H240158   2.817   0.552   2.038 -1.2699 -0.5638 -1.6667
 6175TIP3   OH240159   1.502   3.129   1.138  0.3536  0.4355  0.1895
 6175TIP3    H140160   1.419   3.109   1.182 -0.3136 -0.6192 -1.4468
 6175TIP3    H240161   1.521   3.219   1.164 -1.3084  0.7116  0.6165
 6176TIP3   OH240162   1.864   1.524   8.667  0.3093  0.3353  0.3074
 6176TIP3    H140163   1.835   1.446   8.619 -1.0653  1.6791 -1.1229
 6176TIP3    H240164   1.835   1.508   8.757 -1.1635 -0.2377 -0.2311
 6177TIP3   OH240165   2.961   5.367   1.343  0.7304  0.1669 -0.0223
 6177TIP3    H140166   2.952   5.454   1.306  0.7507 -0.8952 -2.7610
 6177TIP3    H240167   2.877   5.324   1.327  0.7980 -0.3939  1.0542
 6178TIP3   OH240168   5.873   4.109   0.701 -0.3893  0.0033 -0.1572
 6178TIP3    H140169   5.968   4.100   0.712 -0.1261  1.1523 -1.2999
 6178TIP3    H240170   5.841   4.019   0.698  1.0182 -0.4995 -2.4540
 6179TIP3   OH240171   2.573   2.594   2.685  0.2489 -0.6567  0.0546
 6179TIP3    H140172   2.520   2.666   2.719  0.4444 -0.9587  1.0337
 6179TIP3    H240173   2.541   2.581   2.596  0.5118  0.9272 -0.2958
 6180TIP3   OH240174   3.129   0.119   1.933 -0.5443 -0.4504  0.1957
 6180TIP3    H140175   3.197   0.125   2.001  0.6010  0.4586 -0.9799
 6180TIP3    H240176   3.047   0.129   1.981  0.1088 -1.6731  1.6762
 6181TIP3   OH240177   1.554   0.281   1.934  0.1476 -0.3630  0.2471
 6181TIP3    H140178   1.632   0.227   1.922  0.3789 -0.4532  2.0131
 6181TIP3    H240179   1.553   0.304   2.026 -3.1491 -2.3569  0.9144
 6182TIP3   OH240180   5.470   2.479   0.695 -0.4553 -0.0937 -0.2506
 6182TIP3    H140181   5.444   2.470   0.787 -0.5391  0.9265 -0.1675
 6182TIP3    H240182   5.431   2.403   0.652  2.1907 -2.4170  1.0765
 6183TIP3   OH240183   3.236   1.819   1.457  0.7375 -0.1316  0.5007
 6183TIP3    H140184   3.170   1.754   1.483 -0.3621  0.2245 -1.2355
 6183TIP3    H240185   3.187   1.886   1.409  2.1949  0.7644  0.1823
 6184TIP3   OH240186   1.770   5.878   1.376 -0.2852  0.2180 -0.0883
 6184TIP3    H140187   1.757   5.914   1.463  1.0710  1.3245 -0.3173
 6184TIP3    H240188   1.838   5.812   1.387  0.4226  0.8879 -0.4334
 6185TIP3   OH240189   3.596   0.814   0.709 -0.1676  0.3734  0.6747
 6185TIP3    H140190   3.597   0.865   0.790 -1.2754  0.6690  0.5139
 6185TIP3    H240191   3.688   0.792   0.693  0.3387  2.3187  0.7354
 6186TIP3   OH240192   5.767   6.536   0.024 -0.0159  0.4856  0.1321
 6186TIP3    H140193   5.712   6.609  -0.006 -0.0844  0.2942 -0.2067
 6186TIP3    H240194   5.710   6.459   0.017 -0.0235  0.4315  0.7241
 6187TIP3   OH240195   2.941   3.564   0.673  0.2608  0.4675  0.3777
 6187TIP3    H140196   2.995   3.485   0.664  1.0346  1.0548 -0.3751
 6187TIP3    H240197   2.858   3.542   0.631  0.7899  0.3372 -0.6232
 6188TIP3   OH240198   1.599   6.045   8.510  0.3617  0.1376  0.1796
 6188TIP3    H140199   1.655   5.975   8.544 -0.5862 -0.2813  0.9278
 6188TIP3    H240200   1.653   6.124   8.514  1.7486 -0.6561 -1.4620
 6189TIP3   OH240201   3.784   6.713   8.619 -0.0828  0.0629 -0.7606
 6189TIP3    H140202   3.865   6.702   8.570  1.8020  0.9795  1.9470
 6189TIP3    H240203   3.806   6.685   8.708 -1.4644  4.1559  1.0811
 6190TIP3   OH240204   3.440   0.339   7.168 -0.3376 -0.1367  0.6583
 6190TIP3    H140205   3.533   0.320   7.176  0.0133  0.5868 -1.1842
 6190TIP3    H240206   3.420   0.396   7.242  1.4303  2.1991 -0.5378
 6191TIP3   OH240207   3.873   0.925   8.826  0.1210  0.0983  0.0329
 6191TIP3    H140208   3.831   0.919   8.741  0.3399  0.0428 -0.0710
 6191TIP3    H240209   3.965   0.942   8.807  0.5152 -1.6739  0.2048
 6192TIP3   OH240210   5.117   6.662   8.886  0.5119 -0.2302 -0.3551
 6192TIP3    H140211   5.130   6.573   8.918  2.2518 -0.2367 -0.9310
 6192TIP3    H240212   5.023   6.678   8.895  0.2736 -1.8482  0.4329
 6193TIP3   OH240213   6.115   0.061   8.592 -0.0078  0.0601  0.2855
 6193TIP3    H140214   6.157   0.048   8.677 -1.4368  0.1896  1.0404
 6193TIP3    H240215   6.022   0.061   8.611 -0.3461  0.6213 -1.2240
 6194TIP3   OH240216   4.034   2.043   0.302 -0.5611  0.0396  0.2028
 6194TIP3    H140217   3.998   2.130   0.286 -1.2382  0.0514  1.5700
 6194TIP3    H240218   4.125   2.058   0.325 -0.5580  0.3490 -0.0076
 6195TIP3   OH240219   0.436   0.419   8.290 -0.2529 -0.4189 -0.0968
 6195TIP3    H140220   0.495   0.491   8.270  0.0127 -0.0387  1.8177
 6195TIP3    H240221   0.394   0.444   8.372 -2.5991 -1.0001 -1.0229
 6196TIP3   OH240222   3.686   3.105   0.004  0.6220 -0.5847  0.1989
 6196TIP3    H140223   3.735   3.168   0.058  0.4218 -0.8902  0.7524
 6196TIP3    H240224   3.735   3.100  -0.078  1.0556 -0.2614  0.4318
 6197TIP3   OH240225   0.901   3.244   0.532  0.5577  0.2502  0.0580
 6197TIP3    H140226   0.885   3.186   0.607 -0.1996  1.0977  0.5647
 6197TIP3    H240227   0.958   3.192   0.474 -1.4398 -1.7077 -0.3177
 6198TIP3   OH240228   2.311   3.247   6.650 -0.1777  0.0084 -0.5534
 6198TIP3    H140229   2.395   3.290   6.636  0.5524 -1.0265  0.3984
 6198TIP3    H240230   2.248   3.318   6.659  0.8658  0.8599  0.2476
 6199TIP3   OH240231   4.343   1.611   0.024 -0.0888  0.4458  0.5794
 6199TIP3    H140232   4.374   1.634   0.111  0.7300 -1.6028  0.8893
 6199TIP3    H240233   4.421   1.580  -0.022 -0.2461  2.6490 -1.3518
 6200TIP3   OH240234   2.021   3.455   8.165 -0.3412  0.3549 -0.3767
 6200TIP3    H140235   2.068   3.463   8.082 -1.7813  2.1487 -1.0875
 6200TIP3    H240236   2.040   3.536   8.211 -0.7403  0.0046  0.4213
 6201TIP3   OH240237   6.149   0.010   7.271  0.3346  0.7253 -0.0645
 6201TIP3    H140238   6.213  -0.061   7.268  0.3657  0.7443  0.1587
 6201TIP3    H240239   6.197   0.086   7.240  0.2398  0.6040 -0.5211
 6202TIP3   OH240240   4.386   0.941   7.049 -0.7326 -0.1317  0.7275
 6202TIP3    H140241   4.388   1.035   7.029 -1.0014 -0.7356 -2.7424
 6202TIP3    H240242   4.477   0.912   7.038 -0.6160 -0.3060  1.9665
 6203TIP3   OH240243   4.261   4.517   8.737  0.2516  0.4094  0.4024
 6203TIP3    H140244   4.295   4.604   8.757 -0.5221  0.9403 -0.5027
 6203TIP3    H240245   4.315   4.457   8.789  2.7841  1.1706 -1.1470
 6204TIP3   OH240246   5.901   1.312   0.906  0.1690  0.0939  0.4367
 6204TIP3    H140247   5.953   1.273   0.976  0.5342  0.2339  0.2466
 6204TIP3    H240248   5.909   1.250   0.833  0.6257  0.4421  0.1839
 6205TIP3   OH240249   5.372   0.195   0.048 -0.1227  0.2762  0.1239
 6205TIP3    H140250   5.317   0.239   0.112  0.1503  0.0249  0.5408
 6205TIP3    H240251   5.313   0.172  -0.023 -1.0694 -1.9584  1.5172
 6206TIP3   OH240252   1.492   3.832   0.558 -0.3709  0.1635 -0.2285
 6206TIP3    H140253   1.416   3.800   0.606  0.0453  0.5874  0.7407
 6206TIP3    H240254   1.542   3.883   0.622 -0.8138  2.4604 -1.6086
 6207TIP3   OH240255   3.428   4.374   1.998 -0.1272  0.0813  0.3384
 6207TIP3    H140256   3.387   4.458   1.978 -1.7431 -0.5018  1.0153
 6207TIP3    H240257   3.450   4.379   2.091 -0.3294 -0.2850  0.4097
 6208TIP3   OH240258   6.696   2.459   8.725  0.1666  0.5169 -1.0134
 6208TIP3    H140259   6.620   2.508   8.692  1.9645  3.2655 -1.3060
 6208TIP3    H240260   6.727   2.509   8.800  0.8380 -1.4050  0.0669
 6209TIP3   OH240261   2.054   5.557   7.119 -0.6384 -0.7036 -0.1423
 6209TIP3    H140262   2.040   5.612   7.196  0.6288  1.5954 -1.4487
 6209TIP3    H240263   2.149   5.545   7.114 -0.5605  0.2100 -1.9366
 6210TIP3   OH240264   2.842   0.769   7.628  0.7260 -0.0146 -0.3821
 6210TIP3    H140265   2.855   0.861   7.647 -0.3970  0.0663  0.0331
 6210TIP3    H240266   2.924   0.742   7.586  0.9037  1.2657 -0.9117
 6211TIP3   OH240267   3.630   4.216   1.220  0.5300 -0.0367 -0.4960
 6211TIP3    H140268   3.722   4.207   1.196  0.2385  0.9863 -2.1794
 6211TIP3    H240269   3.629   4.281   1.290  1.1010 -0.1253 -0.4017
 6212TIP3   OH240270   1.773   3.813   1.449  0.2740  0.7563  0.2589
 6212TIP3    H140271   1.766   3.889   1.506 -1.1978  1.3252 -0.6251
 6212TIP3    H240272   1.804   3.849   1.365  0.0922  0.3016 -0.0070
 6213TIP3   OH240273   5.708   5.142   0.099  0.0171  0.6113 -0.4732
 6213TIP3    H140274   5.661   5.130   0.181 -1.5751 -0.8543 -1.5190
 6213TIP3    H240275   5.735   5.234   0.100 -2.5395  1.4561  0.4146
 6214TIP3   OH240276   6.208   0.378   0.569 -0.5915  0.0780 -0.0695
 6214TIP3    H140277   6.151   0.315   0.527 -0.3229 -0.4415  0.3300
 6214TIP3    H240278   6.242   0.332   0.646 -0.6554  0.8233  0.4154
 6215TIP3   OH240279   4.407   5.574   2.170  0.1858 -0.4600  0.0196
 6215TIP3    H140280   4.467   5.526   2.227 -0.5694 -0.3660  0.9075
 6215TIP3    H240281   4.332   5.517   2.160 -0.0027 -0.1630 -0.2872
 6216TIP3   OH240282   4.545   1.139   6.893 -0.4918  0.2888 -0.4217
 6216TIP3    H140283   4.506   1.074   6.835 -1.9220  1.5976 -0.9805
 6216TIP3    H240284   4.601   1.192   6.836 -1.3208  1.1172 -0.4796
 6217TIP3   OH240285   1.387   3.367   0.871 -0.0439  0.5274  0.5538
 6217TIP3    H140286   1.297   3.361   0.903  0.0181  0.1677  0.6660
 6217TIP3    H240287   1.440   3.381   0.950 -0.0311  1.0854  0.4536
 6218TIP3   OH240288   6.233   1.093   6.911 -0.6134  0.3021  0.1275
 6218TIP3    H140289   6.150   1.055   6.942  0.6138 -2.1521  0.6550
 6218TIP3    H240290   6.291   1.018   6.900  1.9541  2.0340  0.9665
 6219TIP3   OH240291   2.976   1.751   8.571 -0.0162 -0.0367 -0.0031
 6219TIP3    H140292   2.978   1.703   8.489  2.1786 -1.7597  0.9594
 6219TIP3    H240293   3.067   1.753   8.601 -0.6504  1.0437  2.0962
 6220TIP3   OH240294   3.748   5.195   0.538  0.2503 -0.4960 -0.7236
 6220TIP3    H140295   3.720   5.269   0.484  0.8899  0.3962  0.1488
 6220TIP3    H240296   3.838   5.178   0.510  0.7636  0.3040  0.4000
 6221TIP3   OH240297   0.017   5.330   7.819 -0.1832 -0.5836  0.2824
 6221TIP3    H140298  -0.054   5.274   7.847 -0.1292 -1.0037 -0.4114
 6221TIP3    H240299   0.074   5.274   7.766  0.8928 -0.3738  1.1606
 6222TIP3   OH240300   4.712   3.599   2.338 -0.1946  0.2108 -0.0353
 6222TIP3    H140301   4.695   3.534   2.407 -0.2270 -0.0341 -0.2691
 6222TIP3    H240302   4.798   3.634   2.359 -0.0070 -0.1947 -0.1301
 6223TIP3   OH240303   3.088   5.974   0.824 -0.2147  0.2244 -0.1849
 6223TIP3    H140304   3.024   6.045   0.824 -0.3001  0.1496 -0.5472
 6223TIP3    H240305   3.062   5.918   0.897 -1.6549 -0.7860 -1.4335
 6224TIP3   OH240306   6.102   6.629   0.890 -0.1979 -0.4570  0.7545
 6224TIP3    H140307   6.120   6.675   0.808 -0.1336  0.7335  1.4123
 6224TIP3    H240308   6.179   6.647   0.945 -0.5984 -0.5634  1.3609
 6225TIP3   OH240309   0.659   2.736   0.604  0.1168  0.4975 -0.0450
 6225TIP3    H140310   0.612   2.674   0.659 -2.0074  1.3920 -0.7253
 6225TIP3    H240311   0.741   2.753   0.650  0.8630 -2.8485  0.0964
 6226TIP3   OH240312   1.113   5.093   0.718  0.2173  0.3464  0.0793
 6226TIP3    H140313   1.206   5.108   0.699  0.2732  1.2635  0.9824
 6226TIP3    H240314   1.068   5.114   0.636  0.5605  2.8952  0.4588
 6227TIP3   OH240315   1.437   3.151   7.457 -0.3418  0.4645  0.4552
 6227TIP3    H140316   1.469   3.098   7.384 -0.1345 -0.8093  1.4419
 6227TIP3    H240317   1.382   3.092   7.508  0.7752  0.8538  2.1966
 6228TIP3   OH240318   5.386   5.344   0.100  0.0685  0.1266  0.1956
 6228TIP3    H140319   5.386   5.314   0.009 -0.2492 -1.1282  0.5795
 6228TIP3    H240320   5.478   5.349   0.123  0.1358 -0.2156  0.0060
 6229TIP3   OH240321   3.630   0.766   1.440 -0.0844 -0.1480  0.3584
 6229TIP3    H140322   3.561   0.701   1.457  0.6631 -0.8579  0.7388
 6229TIP3    H240323   3.675   0.775   1.524 -0.2554  0.9634  0.3408
 6230TIP3   OH240324   2.054   1.181   6.410  0.4692 -0.0558 -0.1738
 6230TIP3    H140325   2.068   1.255   6.352  0.2260 -0.5318 -0.8630
 6230TIP3    H240326   2.063   1.104   6.354  0.2334 -0.5343  0.4211
 6231TIP3   OH240327   0.552   5.747   0.967  0.8028 -0.2019 -0.5365
 6231TIP3    H140328   0.638   5.769   1.002  0.2438  1.0030  0.1701
 6231TIP3    H240329   0.521   5.676   1.024  1.4198 -0.8189 -0.9557
 6232TIP3   OH240330   4.244   2.545   7.103 -0.1826  0.0657  0.5306
 6232TIP3    H140331   4.167   2.585   7.063 -0.6350 -1.4172 -0.1667
 6232TIP3    H240332   4.211   2.464   7.142  1.3609 -1.9567 -1.9918
 6233TIP3   OH240333   2.380   3.063   0.098 -0.3644  0.4233 -0.1363
 6233TIP3    H140334   2.407   3.106   0.017 -1.5037 -1.8555 -1.8191
 6233TIP3    H240335   2.457   3.011   0.124 -0.2021  0.6902 -0.0810
 6234TIP3   OH240336   6.078   0.025   1.219  0.2666  0.3004  0.2579
 6234TIP3    H140337   6.091   0.118   1.241 -0.0028  0.1728  0.9717
 6234TIP3    H240338   6.012   0.027   1.149  0.0942  0.6378  0.4230
 6235TIP3   OH240339   4.279   3.734   0.989 -0.1007 -0.2036  0.1773
 6235TIP3    H140340   4.287   3.652   1.039  0.3359 -0.5925 -0.5171
 6235TIP3    H240341   4.344   3.792   1.028  1.3945 -1.0504 -0.9548
 6236TIP3   OH240342   0.416   4.231   1.957 -0.8576  0.0863  0.0783
 6236TIP3    H140343   0.440   4.139   1.968 -1.2849  0.0754  1.0482
 6236TIP3    H240344   0.351   4.231   1.888  1.9229  0.1269 -2.7774
 6237TIP3   OH240345   2.036   1.187   1.522  0.3289 -0.2858 -0.1932
 6237TIP3    H140346   2.047   1.249   1.449  1.1847  1.0645  1.0193
 6237TIP3    H240347   1.984   1.235   1.586  0.7817 -0.9130  0.6624
 6238TIP3   OH240348   3.951   0.954   7.566 -0.9881  0.7625 -0.0204
 6238TIP3    H140349   3.945   0.969   7.472 -1.7902 -0.2487 -0.1606
 6238TIP3    H240350   3.958   1.041   7.605  1.5253  1.1073 -1.1124
 6239TIP3   OH240351   6.354   4.701   8.633  1.0217  0.0481 -0.0376
 6239TIP3    H140352   6.400   4.647   8.569  2.2645  0.5448  0.3953
 6239TIP3    H240353   6.342   4.644   8.709 -1.6432 -0.9644 -1.1142
 6240TIP3   OH240354   1.994   3.478   2.728 -0.1606  0.2030  0.4378
 6240TIP3    H140355   2.038   3.526   2.798 -0.6920 -1.0305  1.6644
 6240TIP3    H240356   2.064   3.457   2.666  0.2123  1.8432  0.2533
 6241TIP3   OH240357   4.012   5.292   1.937  0.9764  0.2275  0.0247
 6241TIP3    H140358   4.099   5.257   1.956 -0.2901 -1.8859  2.5366
 6241TIP3    H240359   3.971   5.226   1.881  0.0726 -0.1538  1.1153
 6242TIP3   OH240360   0.017   5.773   0.666 -0.0998  0.4567 -0.4639
 6242TIP3    H140361  -0.068   5.808   0.693  0.2912  0.9992  0.0992
 6242TIP3    H240362   0.053   5.733   0.745  0.5392  1.0038 -0.4673
 6243TIP3   OH240363   6.311   6.163   7.473 -0.3155  0.4015 -0.2250
 6243TIP3    H140364   6.237   6.173   7.533 -0.2079 -0.5406  0.0852
 6243TIP3    H240365   6.365   6.241   7.488 -0.0990  0.0056  1.1946
 6244TIP3   OH240366   2.990   5.074   1.326 -0.0704 -0.2805 -0.0976
 6244TIP3    H140367   2.931   5.139   1.287  0.2009  0.0358  0.0066
 6244TIP3    H240368   2.949   5.051   1.409  0.5019  0.7765  0.4983
 6245TIP3   OH240369   4.804   0.951   0.115 -0.0920  0.0271  0.0482
 6245TIP3    H140370   4.755   0.909   0.186 -0.7563  1.5244  0.5230
 6245TIP3    H240371   4.893   0.958   0.149 -0.0313 -0.7090  0.0711
 6246TIP3   OH240372   1.683   2.600   0.047  0.2827 -0.4191  0.4852
 6246TIP3    H140373   1.647   2.533  -0.011  0.3183 -0.2348  0.2475
 6246TIP3    H240374   1.717   2.667  -0.012  1.7250 -0.9442  0.6802
 6247TIP3   OH240375   4.778   2.074   0.048 -0.1134  0.2850 -0.0006
 6247TIP3    H140376   4.686   2.052   0.062  0.1161 -0.3980  0.4761
 6247TIP3    H240377   4.814   1.999   0.001  0.7164 -0.5005  1.7874
 6248TIP3   OH240378   0.113   0.875   8.748 -0.1927  0.4806 -0.3636
 6248TIP3    H140379   0.019   0.870   8.762 -0.1319  0.2004 -0.0359
 6248TIP3    H240380   0.127   0.963   8.713 -0.5578  0.5865 -0.2520
 6249TIP3   OH240381   5.999   1.053   0.853 -0.5348  0.1461  0.3081
 6249TIP3    H140382   6.081   1.101   0.865 -0.6756  1.1263 -2.1934
 6249TIP3    H240383   6.024   0.977   0.801 -0.9495 -0.5532  1.1076
 6250TIP3   OH240384   2.843   3.336   8.853  1.1726  0.5984 -0.2114
 6250TIP3    H140385   2.818   3.323   8.761 -0.6454 -1.0051  0.4505
 6250TIP3    H240386   2.912   3.272   8.868  0.1666 -0.4785 -0.0068
 6251TIP3   OH240387   2.736   4.590   0.437 -0.6077  0.3600 -0.1454
 6251TIP3    H140388   2.782   4.599   0.353 -0.3418 -0.0284 -0.0462
 6251TIP3    H240389   2.736   4.495   0.454 -1.1442  0.3854  0.0257
 6252TIP3   OH240390   1.207   5.904   7.485 -0.4396  0.2180  0.3206
 6252TIP3    H140391   1.189   5.993   7.515 -3.1819 -0.2310  0.2668
 6252TIP3    H240392   1.154   5.848   7.543  0.7477 -1.3425 -0.0381
 6253TIP3   OH240393   3.886   6.171   7.248 -0.1408  0.0908  0.2037
 6253TIP3    H140394   3.811   6.111   7.253  1.0167 -1.5459 -1.0169
 6253TIP3    H240395   3.924   6.169   7.336 -0.7394 -0.1087  0.4645
 6254TIP3   OH240396   6.531   6.493   1.519 -0.7210 -0.1650 -0.2995
 6254TIP3    H140397   6.554   6.531   1.604 -1.1281  3.7385 -1.7356
 6254TIP3    H240398   6.601   6.429   1.503 -0.2519 -0.5423  2.5788
 6255TIP3   OH240399   1.219   0.782   8.687  0.4113  0.5745 -0.6920
 6255TIP3    H140400   1.271   0.717   8.734 -0.3198 -0.5059 -1.3215
 6255TIP3    H240401   1.146   0.803   8.746 -0.3080 -0.5106 -1.1642
 6256TIP3   OH240402   4.144   4.853   0.809  0.1040  0.1946 -0.4520
 6256TIP3    H140403   4.233   4.884   0.826  0.3871  0.5939 -2.3449
 6256TIP3    H240404   4.096   4.870   0.890  1.9758 -0.9753  0.9698
 6257TIP3   OH240405   0.073   2.936   7.622 -0.1391  0.2413  0.5269
 6257TIP3    H140406   0.115   2.959   7.540 -1.4033 -0.7850 -0.4624
 6257TIP3    H240407   0.142   2.896   7.675  0.4033 -0.3405 -0.5930
 6258TIP3   OH240408   6.186   3.096   0.151  0.1290 -0.5949 -0.4568
 6258TIP3    H140409   6.268   3.128   0.189  0.5832  0.8214 -2.4992
 6258TIP3    H240410   6.142   3.051   0.224  1.4724  0.9383  1.4042
 6259TIP3   OH240411   4.523   2.422   1.447  0.0588 -0.8994 -0.0141
 6259TIP3    H140412   4.492   2.373   1.523 -0.0331 -0.7880  0.0206
 6259TIP3    H240413   4.472   2.387   1.374 -1.9034  0.9201  0.3940
 6260TIP3   OH240414   6.370   0.910   2.580 -0.3819  0.0849 -0.2959
 6260TIP3    H140415   6.452   0.928   2.535 -0.2931  0.7666  0.1327
 6260TIP3    H240416   6.334   0.996   2.600 -1.4009 -0.1989 -0.8310
 6261TIP3   OH240417   1.370   4.295   7.647  0.3004  0.0949  0.2341
 6261TIP3    H140418   1.398   4.352   7.718 -1.0442  0.8101  0.2380
 6261TIP3    H240419   1.317   4.352   7.591 -0.1285 -0.8821 -0.3729
 6262TIP3   OH240420   0.615   4.540   0.439 -0.1757  0.2212  0.0199
 6262TIP3    H140421   0.527   4.504   0.432 -0.3655  0.4990  0.8303
 6262TIP3    H240422   0.640   4.560   0.349 -0.4176 -1.0688 -0.3669
 6263TIP3   OH240423   5.734   2.028   1.350  0.1264  0.6551 -0.4803
 6263TIP3    H140424   5.736   2.058   1.441  0.5089  1.6628 -0.8181
 6263TIP3    H240425   5.705   1.937   1.357  0.8221  0.4937  0.7108
 6264TIP3   OH240426   6.157   0.414   7.785 -0.6684  0.2966  0.0542
 6264TIP3    H140427   6.087   0.458   7.834  0.7610  1.7907  0.8216
 6264TIP3    H240428   6.229   0.408   7.847  0.1246 -0.6310 -0.9284
 6265TIP3   OH240429   4.427   0.805   8.429  0.5998  0.1046 -0.1394
 6265TIP3    H140430   4.364   0.751   8.477  1.1830 -0.8493 -0.4207
 6265TIP3    H240431   4.431   0.887   8.478 -1.2525  0.3995 -0.4013
 6266TIP3   OH240432   6.505   2.356   6.497 -0.1179 -0.0790 -0.5596
 6266TIP3    H140433   6.513   2.283   6.437  0.7812 -0.9653  0.6056
 6266TIP3    H240434   6.530   2.433   6.445  1.9400 -0.9831 -0.9653
 6267TIP3   OH240435   5.882   3.466   7.581  0.2156 -0.9712  0.5869
 6267TIP3    H140436   5.953   3.505   7.529 -0.3083 -1.6420 -0.6727
 6267TIP3    H240437   5.805   3.471   7.524 -0.4273 -1.5445  1.3906
 6268TIP3   OH240438   5.458   5.639   2.079  0.1997 -0.0665 -0.5110
 6268TIP3    H140439   5.545   5.665   2.108  0.3741 -1.6275  0.4441
 6268TIP3    H240440   5.411   5.618   2.160 -1.2780  1.3077 -0.9552
 6269TIP3   OH240441   4.374   2.733   2.104 -0.3556 -0.1664  0.0694
 6269TIP3    H140442   4.380   2.828   2.094 -1.4142 -0.2060 -1.1429
 6269TIP3    H240443   4.464   2.702   2.089 -0.3969  0.4801 -1.6884
 6270TIP3   OH240444   1.036   4.578   1.415 -0.7531  0.7126  0.9184
 6270TIP3    H140445   1.077   4.501   1.456 -1.0046 -0.3431 -0.7238
 6270TIP3    H240446   0.991   4.543   1.338 -1.0028  2.5000  0.2086
 6271TIP3   OH240447   6.593   5.229   7.913  0.1963 -0.6321  0.2838
 6271TIP3    H140448   6.621   5.288   7.982  1.5490 -1.7344  0.7343
 6271TIP3    H240449   6.548   5.158   7.958  2.5625 -2.2349  0.3194
 6272TIP3   OH240450   6.219   5.248   1.608  0.4058  0.6271  0.0910
 6272TIP3    H140451   6.241   5.175   1.550  0.3985  0.3537  0.4253
 6272TIP3    H240452   6.282   5.240   1.680  1.0100  1.4997 -0.3164
 6273TIP3   OH240453   5.070   0.302   0.040 -0.5032 -0.0793  0.0790
 6273TIP3    H140454   4.996   0.302   0.101 -0.0344 -2.2460  0.7707
 6273TIP3    H240455   5.076   0.211   0.010  0.8037  0.4208 -1.3042
 6274TIP3   OH240456   4.813   2.864   8.544  0.3004  0.1063  0.1898
 6274TIP3    H140457   4.856   2.778   8.546  0.1207 -0.0767  4.0504
 6274TIP3    H240458   4.877   2.924   8.583 -0.1761  1.4475 -1.0100
 6275TIP3   OH240459   4.897   5.790   6.947  0.3083  0.1982 -0.2927
 6275TIP3    H140460   4.968   5.849   6.973 -0.4040  0.4017  1.3452
 6275TIP3    H240461   4.870   5.820   6.861  2.5141 -0.1850 -1.1963
 6276TIP3   OH240462   1.176   4.018   7.220 -0.0711  0.7221 -0.2532
 6276TIP3    H140463   1.096   4.026   7.168  0.3065 -0.2044 -1.0095
 6276TIP3    H240464   1.240   3.981   7.159  0.4729 -0.1065  0.7860
 6277TIP3   OH240465   5.460   2.216   1.384  0.1582  0.1829 -0.8806
 6277TIP3    H140466   5.481   2.293   1.331 -0.3624  2.0885  1.4955
 6277TIP3    H240467   5.542   2.193   1.426 -0.2099  1.1656  0.4477
 6278TIP3   OH240468   4.542   1.190   2.286 -0.1044 -0.3842  0.7310
 6278TIP3    H140469   4.601   1.179   2.212 -0.1388 -1.4756  0.8405
 6278TIP3    H240470   4.476   1.121   2.274 -0.5077 -0.1238  1.3958
 6279TIP3   OH240471   2.462   2.618   6.565 -0.6019 -0.0772 -0.5090
 6279TIP3    H140472   2.506   2.667   6.496  0.9016  0.2559  0.6220
 6279TIP3    H240473   2.524   2.618   6.638 -2.0302 -0.6144  0.7727
 6280TIP3   OH240474   0.330   0.586   0.174  0.1614 -0.3436  0.2546
 6280TIP3    H140475   0.413   0.630   0.189 -0.6160  1.9955 -1.6761
 6280TIP3    H240476   0.264   0.646   0.210 -0.7984 -1.1884 -0.0525
 6281TIP3   OH240477   6.193   4.917   0.237  0.2766  0.1001 -0.2476
 6281TIP3    H140478   6.109   4.938   0.277  0.9534 -0.2636  1.4502
 6281TIP3    H240479   6.195   4.968   0.156 -1.2414  0.6980  0.0662
 6282TIP3   OH240480   0.052   4.945   8.488  0.0606 -1.1345 -0.0601
 6282TIP3    H140481  -0.025   4.993   8.520  0.3141  0.3177 -1.5048
 6282TIP3    H240482   0.115   5.014   8.466  1.3518 -2.2605  0.0402
 6283TIP3   OH240483   1.730   2.165   7.791  0.4273  0.2262 -0.5319
 6283TIP3    H140484   1.747   2.160   7.885  0.0180  2.6675 -0.2753
 6283TIP3    H240485   1.651   2.112   7.779  0.5201 -0.1796  0.4635
 6284TIP3   OH240486   2.394   1.431   8.318 -0.4711 -0.3016 -0.3778
 6284TIP3    H140487   2.371   1.400   8.230  0.5856  0.0960 -0.8066
 6284TIP3    H240488   2.451   1.363   8.353  1.0256  0.6112 -0.9298
 6285TIP3   OH240489   5.795   2.981   8.572  0.4133  0.2461  0.1971
 6285TIP3    H140490   5.700   2.989   8.563  0.3765  0.5746  0.8588
 6285TIP3    H240491   5.824   3.065   8.608  1.3369  1.2951 -2.7154
 6286TIP3   OH240492   6.681   3.982   7.366 -0.6843  0.2541  0.4081
 6286TIP3    H140493   6.757   3.926   7.378 -2.2004 -1.7877  0.8874
 6286TIP3    H240494   6.717   4.071   7.368  1.6337 -0.6194  0.8670
 6287TIP3   OH240495   0.197   6.585   0.721  0.8149  0.0734 -0.2112
 6287TIP3    H140496   0.183   6.679   0.726 -0.1486  0.1819 -3.0255
 6287TIP3    H240497   0.147   6.557   0.644  0.5885 -2.8501  0.8561
 6288TIP3   OH240498   4.930   1.302   0.531 -0.2367 -0.0840 -0.1611
 6288TIP3    H140499   5.021   1.288   0.505 -0.6962  0.2601 -2.0750
 6288TIP3    H240500   4.885   1.221   0.507 -0.8219  0.5295 -1.1729
 6289TIP3   OH240501   2.067   2.153   8.193  0.2121 -0.0663 -0.3288
 6289TIP3    H140502   2.104   2.223   8.247 -0.9729  0.6499 -0.4104
 6289TIP3    H240503   2.141   2.095   8.176  0.3183 -1.3731  3.5982
 6290TIP3   OH240504   4.264   5.762   8.292  0.3163  1.0696  0.4602
 6290TIP3    H140505   4.224   5.684   8.331  0.0441  0.9252 -0.0967
 6290TIP3    H240506   4.329   5.791   8.356 -1.0890  1.6689  1.6661
 6291TIP3   OH240507   0.832   5.252   8.903 -0.6398 -0.1025  0.6481
 6291TIP3    H140508   0.836   5.271   8.997 -1.1795 -1.4146  0.9566
 6291TIP3    H240509   0.902   5.305   8.865  0.0496 -0.0891  1.8803
 6292TIP3   OH240510   0.848   4.850   7.362  0.3361  0.3969  0.5696
 6292TIP3    H140511   0.761   4.812   7.370  0.3104  0.0770 -0.8511
 6292TIP3    H240512   0.907   4.784   7.399  0.2825 -1.1058 -1.7746
 6293TIP3   OH240513   4.127   0.912   0.044  0.0153  0.1204  0.2918
 6293TIP3    H140514   4.127   0.818   0.061  1.2380  0.1922  0.7701
 6293TIP3    H240515   4.204   0.945   0.089 -0.0519  1.2659 -0.3854
 6294TIP3   OH240516   1.121   2.924   1.001 -0.0415 -0.5516 -0.3012
 6294TIP3    H140517   1.173   2.946   0.923 -0.1263  1.0975  0.0624
 6294TIP3    H240518   1.137   2.831   1.016  1.5227 -0.4401 -1.1380
 6295TIP3   OH240519   0.523   3.971   1.889  0.9932 -0.1439 -0.3231
 6295TIP3    H140520   0.447   3.918   1.867  0.8970 -0.1533  0.0182
 6295TIP3    H240521   0.538   3.954   1.982  1.4785 -0.2249 -0.4145
 6296TIP3   OH240522   2.350   5.407   1.149 -0.2238 -0.3884  0.0055
 6296TIP3    H140523   2.371   5.499   1.137  0.0889 -0.2475  1.4671
 6296TIP3    H240524   2.423   5.360   1.110  0.2091  0.0056  0.3336
 6297TIP3   OH240525   0.981   1.303   8.569  0.3588 -0.1532 -0.4891
 6297TIP3    H140526   0.896   1.338   8.542 -0.6100 -2.7404 -1.1503
 6297TIP3    H240527   1.018   1.267   8.488  1.5930 -0.0181 -0.0036
 6298TIP3   OH240528   2.609   5.575   8.088  0.0178  0.3478 -0.0626
 6298TIP3    H140529   2.551   5.582   8.013 -2.7387  1.0475  1.9565
 6298TIP3    H240530   2.652   5.490   8.078 -2.0583 -0.6444 -1.2689
 6299TIP3   OH240531   0.181   6.605   0.075 -0.2527  0.1056 -0.0846
 6299TIP3    H140532   0.271   6.637   0.066 -0.3554  0.0111 -1.9221
 6299TIP3    H240533   0.190   6.510   0.070 -0.3803  0.0562  0.6027
 6300TIP3   OH240534   0.348   2.387   8.743  0.2676 -0.2391 -0.0088
 6300TIP3    H140535   0.433   2.429   8.757  0.1290 -0.4677  1.8240
 6300TIP3    H240536   0.284   2.453   8.769 -0.0740 -0.4290 -0.3592
 6301TIP3   OH240537   3.980   4.986   1.698  0.2064  0.0609  0.1580
 6301TIP3    H140538   3.914   5.037   1.745 -0.5705 -0.6903 -0.1004
 6301TIP3    H240539   4.057   4.987   1.756  0.2641  1.6141  0.1044
 6302TIP3   OH240540   4.215   2.228   0.443  0.5949 -0.4639 -0.1522
 6302TIP3    H140541   4.242   2.137   0.455 -0.2579 -0.7299 -0.2308
 6302TIP3    H240542   4.276   2.278   0.497  0.7084 -1.1295  0.3532
 6303TIP3   OH240543   4.651   0.836   7.124  0.4215  0.2740 -0.2090
 6303TIP3    H140544   4.743   0.843   7.099  0.3100  1.1363 -0.3994
 6303TIP3    H240545   4.632   0.742   7.118  0.7773  0.2852 -1.9864
 6304TIP3   OH240546   4.817   1.762   0.205 -0.6368 -0.3556  0.7575
 6304TIP3    H140547   4.867   1.735   0.281 -0.7047 -0.5375  0.7396
 6304TIP3    H240548   4.872   1.827   0.161 -0.1132 -1.0535  0.3658
 6305TIP3   OH240549   5.979   3.152   0.441  0.0735  0.0054  0.0212
 6305TIP3    H140550   5.987   3.067   0.397  1.4611 -1.0874  2.2155
 6305TIP3    H240551   5.895   3.148   0.487  0.3262 -0.3574  0.4554
 6306TIP3   OH240552   1.635   1.710   0.031  0.5102 -0.1502  0.0797
 6306TIP3    H140553   1.581   1.631   0.034  0.6918 -0.2808 -0.1212
 6306TIP3    H240554   1.633   1.744   0.121 -1.8007  1.1301 -0.3890
 6307TIP3   OH240555   4.833   1.272   7.137 -0.0695  0.4345  0.1612
 6307TIP3    H140556   4.914   1.321   7.155  0.6895  0.5377 -2.8737
 6307TIP3    H240557   4.768   1.340   7.118 -0.0313  0.3439 -0.3225
 6308TIP3   OH240558   4.527   5.513   8.770  0.0212  0.3532 -0.0760
 6308TIP3    H140559   4.574   5.532   8.851 -0.2188 -0.1453  0.1871
 6308TIP3    H240560   4.481   5.431   8.788  0.1319  0.1285 -0.7903
 6309TIP3   OH240561   3.270   1.653   1.186  0.1268  0.3977 -0.6130
 6309TIP3    H140562   3.293   1.565   1.156  0.5466  0.9062 -1.8467
 6309TIP3    H240563   3.254   1.643   1.279  1.5130 -0.7272 -0.4622
 6310TIP3   OH240564   1.459   0.191   0.184 -0.2235 -0.3797  0.5713
 6310TIP3    H140565   1.394   0.136   0.228 -1.0556  0.0056 -0.1376
 6310TIP3    H240566   1.416   0.276   0.174  0.5808  0.0369  0.5377
 6311TIP3   OH240567   0.381   4.389   0.609 -0.1784  0.1336  0.0576
 6311TIP3    H140568   0.424   4.320   0.660  2.7920  2.0809  0.4675
 6311TIP3    H240569   0.414   4.376   0.520 -1.0669 -0.0274 -0.2601
 6312TIP3   OH240570   3.780   6.469   0.537  0.3262  0.3450 -0.5508
 6312TIP3    H140571   3.815   6.400   0.481  0.7035  1.4530 -1.7298
 6312TIP3    H240572   3.807   6.550   0.495  0.4785  1.2383  1.1662
 6313TIP3   OH240573   1.141   1.745   1.417 -0.2475  0.7982  0.0728
 6313TIP3    H140574   1.165   1.759   1.508 -0.3459 -1.9077  0.6093
 6313TIP3    H240575   1.223   1.721   1.374 -0.5885 -0.3069  0.0171
 6314TIP3   OH240576   0.971   4.287   6.820 -0.3032 -0.1360 -0.2960
 6314TIP3    H140577   0.880   4.280   6.851 -0.2251 -0.0788 -0.0509
 6314TIP3    H240578   0.981   4.214   6.759 -0.6547  0.1342 -0.6838
 6315TIP3   OH240579   3.849   6.767   7.494  0.3866  0.5170 -0.1131
 6315TIP3    H140580   3.905   6.788   7.420  0.3264  0.9456 -0.0415
 6315TIP3    H240581   3.773   6.724   7.455  0.1871  1.0663 -0.3448
 6316TIP3   OH240582   1.020   4.653   7.409 -0.5163  0.4051 -0.2605
 6316TIP3    H140583   1.110   4.643   7.442 -0.7002  2.5022  1.0563
 6316TIP3    H240584   0.971   4.582   7.450  0.2235  0.1776  0.2522
 6317TIP3   OH240585   1.645   3.909   8.592  0.3910 -0.4376  0.1797
 6317TIP3    H140586   1.637   3.952   8.507 -1.0799 -1.0338 -0.0162
 6317TIP3    H240587   1.737   3.917   8.615 -0.0066  4.4774  1.0356
 6318TIP3   OH240588   6.092   6.178   1.321  0.6899  0.6914 -0.1762
 6318TIP3    H140589   6.002   6.184   1.354  0.2462  1.1761 -1.4023
 6318TIP3    H240590   6.138   6.125   1.386 -0.7323 -0.4075 -0.0022
 6319TIP3   OH240591   6.654   4.366   7.451  0.0531 -0.0525  0.0786
 6319TIP3    H140592   6.561   4.358   7.470  0.5754 -1.6658  2.4564
 6319TIP3    H240593   6.677   4.455   7.477 -0.5154 -0.2253  1.2350
 6320TIP3   OH240594   6.810   5.822   8.118  0.5207  0.3398 -0.0213
 6320TIP3    H140595   6.840   5.736   8.087  1.3012  0.5274  0.1957
 6320TIP3    H240596   6.772   5.804   8.204 -0.2330  0.0589 -0.4090
 6321TIP3   OH240597   2.689   5.558   8.366  0.2443 -0.2353 -0.0080
 6321TIP3    H140598   2.659   5.631   8.420  4.3988  0.9436  1.0194
 6321TIP3    H240599   2.696   5.595   8.278 -2.5599 -1.0210 -0.6850
 6322TIP3   OH240600   2.091   2.760   1.605  0.1417 -0.9175  0.7625
 6322TIP3    H140601   2.135   2.841   1.577 -0.9222 -0.7896 -0.6667
 6322TIP3    H240602   2.125   2.743   1.693  2.8383 -0.6846 -0.1289
 6323TIP3   OH240603   3.551   2.238   8.176 -0.5234  0.7246 -0.0832
 6323TIP3    H140604   3.550   2.221   8.082  4.6655 -1.0744 -0.1163
 6323TIP3    H240605   3.514   2.159   8.215 -0.7787  0.6008 -0.5661
 6324TIP3   OH240606   5.048   1.404   7.169 -0.4786  0.0361 -0.3136
 6324TIP3    H140607   5.096   1.464   7.112  1.4275 -0.2464  0.8897
 6324TIP3    H240608   5.045   1.450   7.254 -0.7583 -0.7352  0.1009
 6325TIP3   OH240609   1.115   0.435   7.619 -0.0160 -0.2145  0.7207
 6325TIP3    H140610   1.201   0.476   7.606 -0.9699  2.2644  1.5619
 6325TIP3    H240611   1.131   0.366   7.683  1.4998 -0.4976  0.0825
 6326TIP3   OH240612   0.724   5.445   0.715 -0.2415  0.0868  0.3633
 6326TIP3    H140613   0.767   5.458   0.800 -1.8338  0.1432  1.2036
 6326TIP3    H240614   0.744   5.355   0.692 -1.5691 -0.6588  1.9071
 6327TIP3   OH240615   3.504   5.275   8.088  0.3587  0.5523  0.0548
 6327TIP3    H140616   3.521   5.199   8.143  1.9922  1.1872  0.4783
 6327TIP3    H240617   3.458   5.239   8.012  0.0469 -0.6676  0.7859
 6328TIP3   OH240618   4.434   6.009   1.460  0.3070  0.0152 -0.3834
 6328TIP3    H140619   4.401   5.939   1.516  1.5620 -0.7429 -0.5560
 6328TIP3    H240620   4.454   6.080   1.520  0.0600 -0.1672 -0.0769
 6329TIP3   OH240621   5.842   2.460   6.752  0.1987 -0.7261 -0.9069
 6329TIP3    H140622   5.929   2.478   6.718  0.6724 -0.3654  0.4522
 6329TIP3    H240623   5.809   2.387   6.698  0.2286  0.8679 -3.2304
 6330TIP3   OH240624   6.572   5.931   8.523  0.6877 -0.1515 -0.2702
 6330TIP3    H140625   6.652   5.881   8.540  0.3482 -0.5036  0.2931
 6330TIP3    H240626   6.502   5.879   8.561  0.2055  0.2593 -0.5767
 6331TIP3   OH240627   5.614   1.129   6.561  0.2187 -0.0487  0.7978
 6331TIP3    H140628   5.562   1.130   6.642  0.6363 -1.2033  1.1001
 6331TIP3    H240629   5.551   1.110   6.492 -0.2034  1.3032  0.7887
 6332TIP3   OH240630   1.845   2.780   7.612  0.4736 -0.6652  0.0264
 6332TIP3    H140631   1.926   2.822   7.583 -0.2903  0.3653 -0.6989
 6332TIP3    H240632   1.796   2.765   7.532 -0.8175  0.3776  0.5953
 6333TIP3   OH240633   2.906   1.891   0.290  0.0671 -0.3660  0.0175
 6333TIP3    H140634   2.852   1.927   0.219  0.9194 -1.6167 -1.3180
 6333TIP3    H240635   2.939   1.969   0.336 -0.5872  0.4801 -0.8911
 6334TIP3   OH240636   6.462   5.088   1.695 -0.0756  0.3582 -0.1941
 6334TIP3    H140637   6.512   5.008   1.678 -1.8981 -0.4501 -2.1227
 6334TIP3    H240638   6.438   5.082   1.787  1.3540 -0.3731  0.1701
 6335TIP3   OH240639   2.600   3.000   6.639 -0.0795  0.3496 -0.4687
 6335TIP3    H140640   2.592   2.982   6.733 -1.2350 -0.1921 -0.6491
 6335TIP3    H240641   2.521   2.962   6.601  0.7242 -0.1014 -1.7630
 6336TIP3   OH240642   6.654   2.551   7.064  0.4274  0.0551 -0.2070
 6336TIP3    H140643   6.628   2.472   7.018  2.8029 -1.4303  0.8160
 6336TIP3    H240644   6.579   2.610   7.056 -1.9175 -2.7103  0.0325
 6337TIP3   OH240645   5.010   0.058   1.731 -0.1844 -0.5790 -0.1301
 6337TIP3    H140646   4.968   0.105   1.803  1.1427 -0.2330  0.4577
 6337TIP3    H240647   5.093   0.104   1.719  0.1782 -1.4436 -1.0115
 6338TIP3   OH240648   2.762   4.589   7.558  0.2613  0.4558  0.4960
 6338TIP3    H140649   2.791   4.584   7.649  0.9026  1.3358  0.3546
 6338TIP3    H240650   2.667   4.572   7.561  0.4984 -0.8578  1.1545
 6339TIP3   OH240651   4.507   5.386   1.962 -0.3346  0.1068 -0.1337
 6339TIP3    H140652   4.518   5.384   2.057 -2.0238  1.0642  0.1191
 6339TIP3    H240653   4.590   5.352   1.927  0.7562  0.8205  1.6503
 6340TIP3   OH240654   3.233   6.446   8.837 -0.2302 -0.0273  0.1700
 6340TIP3    H140655   3.313   6.499   8.832 -0.8804  1.0599  0.8857
 6340TIP3    H240656   3.179   6.489   8.903 -1.9328 -0.0253 -1.1285
 6341TIP3   OH240657   6.151   1.780   0.747  0.2298  0.0604 -0.2511
 6341TIP3    H140658   6.101   1.703   0.775  1.0179 -0.3493  0.0690
 6341TIP3    H240659   6.155   1.836   0.825 -0.5859  0.5792 -0.5609
 6342TIP3   OH240660   3.861   4.906   0.006 -0.4864  0.5238  0.0969
 6342TIP3    H140661   3.899   4.971  -0.053  1.1765 -0.4830 -0.0305
 6342TIP3    H240662   3.778   4.881  -0.035 -0.1040  0.9867 -0.9936
 6343TIP3   OH240663   2.549   2.447   7.368  0.0826  0.4632 -0.0394
 6343TIP3    H140664   2.476   2.505   7.390  0.5324  1.3667 -0.8442
 6343TIP3    H240665   2.625   2.485   7.412  0.6130  1.1916 -1.5272
 6344TIP3   OH240666   4.435   6.746   8.335  0.2310  0.4936 -0.0731
 6344TIP3    H140667   4.376   6.673   8.351  2.3659 -1.0209  1.5094
 6344TIP3    H240668   4.416   6.774   8.245 -2.4583 -0.2053  0.1984
 6345TIP3   OH240669   6.728   2.303   8.350 -0.4772  0.0416 -0.7940
 6345TIP3    H140670   6.685   2.227   8.388 -1.8079  0.1474 -2.0150
 6345TIP3    H240671   6.813   2.307   8.395 -0.8384 -1.4618  0.1058
 6346TIP3   OH240672   3.674   0.696   8.059  0.2721 -0.1769 -0.5170
 6346TIP3    H140673   3.686   0.787   8.087  0.6277 -0.3035 -0.2535
 6346TIP3    H240674   3.760   0.656   8.072  0.0071 -0.6578 -0.2386
 6347TIP3   OH240675   1.909   2.389   1.011 -0.0920 -0.3586 -0.6834
 6347TIP3    H140676   1.855   2.454   0.967  0.9204  1.1118  0.1833
 6347TIP3    H240677   1.846   2.334   1.058 -0.9414  0.0656 -1.2899
 6348TIP3   OH240678   0.341   1.620   2.338  0.1709 -0.0472 -0.1486
 6348TIP3    H140679   0.425   1.659   2.363  0.9707 -1.9273  0.3457
 6348TIP3    H240680   0.280   1.693   2.333  1.8337  1.3676 -0.4915
 6349TIP3   OH240681   1.414   1.795   1.308  0.0529 -0.4182  0.0842
 6349TIP3    H140682   1.453   1.829   1.389  1.0536  0.9310 -0.9280
 6349TIP3    H240683   1.448   1.706   1.301  1.4033  0.0717  0.2330
 6350TIP3   OH240684   6.710   4.689   8.107 -0.2805  0.2599  0.3670
 6350TIP3    H140685   6.724   4.781   8.082  0.8544  0.4936  1.7324
 6350TIP3    H240686   6.618   4.686   8.134 -0.8725  0.5231 -1.5125
 6351TIP3   OH240687   5.289   5.522   7.615 -0.2523  0.1879 -0.4612
 6351TIP3    H140688   5.321   5.520   7.705  1.8186 -0.0926 -1.1587
 6351TIP3    H240689   5.231   5.445   7.609 -0.2193  0.0691  0.5473
 6352TIP3   OH240690   4.505   0.358   0.260  0.6292 -0.0781  0.0232
 6352TIP3    H140691   4.549   0.302   0.196 -0.5162 -1.4795  0.4256
 6352TIP3    H240692   4.547   0.443   0.250  2.1681 -0.9113 -0.8514
 6353TIP3   OH240693   1.035   5.485   1.633  0.2692 -0.1347 -0.7226
 6353TIP3    H140694   1.111   5.429   1.621  0.2604 -0.2256 -0.3665
 6353TIP3    H240695   1.000   5.459   1.718  0.5129  0.7061 -0.3592
 6354TIP3   OH240696   1.019   1.327   6.583 -0.0512  0.5116  1.0079
 6354TIP3    H140697   0.997   1.366   6.499  0.6291  2.4643  1.6985
 6354TIP3    H240698   0.936   1.328   6.632 -0.4442 -0.6100  0.4253
 6355TIP3   OH240699   2.970   2.861   1.051 -0.0164 -0.0123 -0.4647
 6355TIP3    H140700   2.956   2.816   1.134 -1.9340  1.3702  0.0494
 6355TIP3    H240701   2.936   2.801   0.985 -0.1951 -0.3649 -0.0542
 6356TIP3   OH240702   4.841   2.263   6.912  0.1105  0.2461 -0.5033
 6356TIP3    H140703   4.767   2.311   6.948 -1.1078 -0.9056 -1.3991
 6356TIP3    H240704   4.868   2.314   6.835  2.1458  2.2165  1.3554
 6357TIP3   OH240705   1.303   1.523   0.342  0.1627  0.5795  0.5836
 6357TIP3    H140706   1.229   1.538   0.284 -0.6351 -2.1631  0.7562
 6357TIP3    H240707   1.282   1.572   0.422  0.0861  2.3224 -0.4475
 6358TIP3   OH240708   5.213   6.533   0.518  0.2027 -0.2557  0.0276
 6358TIP3    H140709   5.249   6.477   0.449  1.6779 -1.7335  1.8467
 6358TIP3    H240710   5.133   6.489   0.545 -0.3022  0.2485 -0.6268
 6359TIP3   OH240711   0.978   3.969   0.838 -0.3834 -0.1908 -0.2529
 6359TIP3    H140712   0.911   4.007   0.781 -0.5487 -1.1009 -0.6796
 6359TIP3    H240713   0.995   4.037   0.903 -2.2883 -0.2110  0.3346
 6360TIP3   OH240714   5.980   4.741   1.642 -0.4241  0.8371  0.3230
 6360TIP3    H140715   6.026   4.670   1.597 -1.3868 -0.1132  0.7948
 6360TIP3    H240716   6.028   4.753   1.724  0.4447  1.5626 -0.2691
 6361TIP3   OH240717   5.621   1.018   6.966  0.6593  0.1973 -0.1425
 6361TIP3    H140718   5.545   1.020   6.908  0.4661  1.0009  0.1257
 6361TIP3    H240719   5.696   1.007   6.908  0.3500 -0.4817 -0.4187
 6362TIP3   OH240720   0.157   4.094   8.775 -0.1919 -0.0232 -0.2844
 6362TIP3    H140721   0.209   4.162   8.818 -1.3995 -0.1888  1.5525
 6362TIP3    H240722   0.067   4.113   8.800 -0.8747 -0.7208 -2.0211
 6363TIP3   OH240723   0.708   1.193   0.423  0.0103 -0.2593 -0.1237
 6363TIP3    H140724   0.664   1.180   0.507  0.8353  0.3919  0.4267
 6363TIP3    H240725   0.640   1.173   0.357 -0.9062  0.0940  0.6870
 6364TIP3   OH240726   2.559   4.978   0.623 -0.0407 -0.3865 -0.1967
 6364TIP3    H140727   2.604   4.988   0.707 -0.7270 -0.2310  0.1608
 6364TIP3    H240728   2.607   5.034   0.563  2.5593 -3.0213 -0.7840
 6365TIP3   OH240729   0.587   0.341   2.168  0.3696  0.8422 -0.2885
 6365TIP3    H140730   0.559   0.285   2.240  1.9657  1.2385  0.6905
 6365TIP3    H240731   0.649   0.403   2.208  0.2225  1.9912 -1.7267
 6366TIP3   OH240732   6.273   3.443   6.815 -0.5763 -0.1559  0.6943
 6366TIP3    H140733   6.363   3.422   6.790 -0.9439  0.4577 -1.2776
 6366TIP3    H240734   6.268   3.538   6.811 -1.5600 -0.2295 -0.1502
 6367TIP3   OH240735   4.400   5.639   0.250  0.1530 -0.3215 -0.0447
 6367TIP3    H140736   4.379   5.676   0.336 -0.8866 -3.3248  1.1280
 6367TIP3    H240737   4.317   5.641   0.202  0.6919  1.1891 -0.9941
 6368TIP3   OH240738   5.003   2.797   2.348  0.4650  0.0013  0.7040
 6368TIP3    H140739   4.948   2.726   2.315 -3.5436  3.2539 -0.5304
 6368TIP3    H240740   5.082   2.793   2.295 -1.1103 -1.5341 -1.7267
 6369TIP3   OH240741   4.458   3.779   1.441 -0.5792 -0.4471 -0.1121
 6369TIP3    H140742   4.539   3.728   1.443  0.3047  0.8956  1.5128
 6369TIP3    H240743   4.483   3.862   1.399 -1.2021 -0.1996 -0.0080
 6370TIP3   OH240744   6.344   2.541   0.390  0.2332  0.3320 -0.0800
 6370TIP3    H140745   6.435   2.559   0.415  0.2023  0.8583 -0.3215
 6370TIP3    H240746   6.306   2.498   0.466  0.8399 -0.4160 -0.1837
 6371TIP3   OH240747   3.139   4.496   0.304  0.6937 -0.2029 -0.2472
 6371TIP3    H140748   3.083   4.438   0.355 -1.6071 -0.0721 -2.4611
 6371TIP3    H240749   3.152   4.572   0.361 -1.3895 -0.2533  0.3889
 6372TIP3   OH240750   0.011   3.648   1.620 -0.0175 -0.0292  0.4130
 6372TIP3    H140751   0.024   3.603   1.537 -0.0256  0.5541  0.0884
 6372TIP3    H240752  -0.075   3.689   1.611 -0.0204  0.0303  0.7132
 6373TIP3   OH240753   4.119   4.287   8.444  0.0853 -0.4934  0.3248
 6373TIP3    H140754   4.152   4.273   8.355 -0.4040  0.2622  0.0125
 6373TIP3    H240755   4.162   4.220   8.497  1.8024  0.2149 -0.1248
 6374TIP3   OH240756   1.413   2.669   2.015 -0.1341  0.0541 -0.3599
 6374TIP3    H140757   1.400   2.694   1.923  0.5191  1.0810 -0.1944
 6374TIP3    H240758   1.373   2.741   2.064  0.7281  0.2046  0.1478
 6375TIP3   OH240759   6.708   2.950   8.338 -0.3132 -0.3264  0.3745
 6375TIP3    H140760   6.764   2.885   8.296 -0.6166 -0.6788  0.5181
 6375TIP3    H240761   6.624   2.906   8.351 -1.2426  0.7594 -1.5266
 6376TIP3   OH240762   2.232   2.030   0.814 -0.6528 -0.3589 -0.4620
 6376TIP3    H140763   2.257   2.111   0.769  0.2164 -0.1343  0.3930
 6376TIP3    H240764   2.191   2.060   0.896  0.8843 -0.7615  0.4915
 6377TIP3   OH240765   2.825   5.931   7.155 -0.4106 -0.3395  0.3334
 6377TIP3    H140766   2.743   5.912   7.201 -0.8744  0.3927 -0.1714
 6377TIP3    H240767   2.841   5.853   7.103 -1.5395  0.0366 -0.6334
 6378TIP3   OH240768   4.627   0.140   0.137  0.4771  0.1410 -0.6132
 6378TIP3    H140769   4.552   0.098   0.179  0.5958 -1.8693 -2.2253
 6378TIP3    H240770   4.702   0.114   0.190  0.3501 -0.3257 -0.6588
 6379TIP3   OH240771   4.568   4.091   7.592  0.5187  0.1503 -0.2081
 6379TIP3    H140772   4.646   4.041   7.617  1.1377  0.7130 -0.9542
 6379TIP3    H240773   4.545   4.059   7.505 -0.0382  0.0490 -0.0296
 6380TIP3   OH240774   1.244   2.882   0.322 -0.1263  0.1810 -0.5114
 6380TIP3    H140775   1.312   2.874   0.389 -0.6063  0.6408  0.0330
 6380TIP3    H240776   1.281   2.837   0.246  0.6434  0.1141 -0.1112
 6381TIP3   OH240777   4.514   2.119   0.215 -1.1780  0.1208  0.0284
 6381TIP3    H140778   4.525   2.208   0.183 -2.5542  0.8368  1.4126
 6381TIP3    H240779   4.450   2.080   0.156 -1.1584  0.3033 -0.1153
 6382TIP3   OH240780   3.047   5.694   7.833 -0.0108  0.5855 -0.5239
 6382TIP3    H140781   3.074   5.606   7.856 -1.1412  0.9703  2.9220
 6382TIP3    H240782   3.007   5.686   7.746 -0.9040 -2.4614  0.0785
 6383TIP3   OH240783   3.230   0.846   5.869 -0.1426  0.0300 -0.3204
 6383TIP3    H140784   3.144   0.838   5.827  0.3283 -0.5940 -1.1783
 6383TIP3    H240785   3.234   0.938   5.897 -1.5536 -0.2037  0.7645
 6384TIP3   OH240786   6.798   6.801   0.154 -0.2239  0.1778 -0.4257
 6384TIP3    H140787   6.883   6.775   0.119  0.4072  2.3741 -0.6563
 6384TIP3    H240788   6.752   6.718   0.168  2.0922 -1.1238  0.1262
 6385TIP3   OH240789   1.205   3.932   2.101 -0.0750 -0.1431 -1.3296
 6385TIP3    H140790   1.274   3.938   2.167 -0.1447  1.8387 -1.3826
 6385TIP3    H240791   1.170   4.021   2.094 -3.6108 -1.2886 -0.2886
 6386TIP3   OH240792   0.358   3.028   0.631 -0.1550  0.0528  0.1704
 6386TIP3    H140793   0.378   2.983   0.549 -0.1363 -0.5627  0.5059
 6386TIP3    H240794   0.434   3.083   0.648  0.5831 -1.0859  0.6324
 6387TIP3   OH240795   3.491   3.080   0.510 -0.0443  0.1962  0.2365
 6387TIP3    H140796   3.519   2.989   0.517  1.7712  0.7066 -0.0600
 6387TIP3    H240797   3.426   3.090   0.580  1.8289 -0.5815  2.2165
 6388TIP3   OH240798   5.100   0.685   6.766 -0.2067 -0.2082 -0.3094
 6388TIP3    H140799   5.108   0.779   6.751 -0.8393 -0.4011 -1.9984
 6388TIP3    H240800   5.180   0.648   6.728  0.3013 -0.3278  0.8357
 6389TIP3   OH240801   3.309   6.724   0.886  0.1867 -0.0220 -0.4611
 6389TIP3    H140802   3.261   6.672   0.951 -1.2798  0.0188 -1.4619
 6389TIP3    H240803   3.380   6.764   0.936 -1.5567  0.9514  1.3963
 6390TIP3   OH240804   1.691   6.248   0.203  0.4577 -0.3733 -0.6247
 6390TIP3    H140805   1.687   6.262   0.109 -1.2595 -0.5623 -0.5996
 6390TIP3    H240806   1.711   6.334   0.239 -0.1918 -0.0223 -1.0873
 6391TIP3   OH240807   6.002   4.077   7.735 -0.5516  0.8587  0.6190
 6391TIP3    H140808   5.955   4.001   7.771 -1.5849  0.5666 -1.2232
 6391TIP3    H240809   6.025   4.129   7.812 -0.7727 -0.7641  1.8497
 6392TIP3   OH240810   1.518   4.374   7.877  0.3132  0.3909 -0.2569
 6392TIP3    H140811   1.602   4.354   7.835  1.1557  0.3949  1.3360
 6392TIP3    H240812   1.495   4.294   7.925  0.4187  1.0305  0.8947
 6393TIP3   OH240813   3.362   3.167   7.689  0.0763 -0.1613 -0.2551
 6393TIP3    H140814   3.453   3.194   7.675  0.4336 -1.4435 -0.5282
 6393TIP3    H240815   3.362   3.126   7.775 -0.0381 -0.9880 -0.6413
 6394TIP3   OH240816   0.504   3.143   1.315 -0.4120 -0.5574 -0.1637
 6394TIP3    H140817   0.554   3.157   1.395  0.8556 -0.0378 -1.0269
 6394TIP3    H240818   0.447   3.220   1.309  0.8615  0.3727 -0.7363
 6395TIP3   OH240819   1.570   3.397   1.087  0.4161 -0.0007  0.5054
 6395TIP3    H140820   1.628   3.449   1.142  1.5951  1.7954 -2.2299
 6395TIP3    H240821   1.618   3.387   1.005 -1.9091 -1.1534 -0.8038
 6396TIP3   OH240822   1.211   5.593   8.733  0.1350 -0.3280 -0.1579
 6396TIP3    H140823   1.153   5.668   8.747  0.3974 -0.3598  1.2462
 6396TIP3    H240824   1.209   5.545   8.815  1.3172 -0.9249 -0.4521
 6397TIP3   OH240825   3.111   5.539   8.248  0.5914  0.2542  0.7128
 6397TIP3    H140826   3.076   5.452   8.267 -3.4172  1.1221 -1.4513
 6397TIP3    H240827   3.170   5.525   8.174 -1.4523 -0.5632 -0.8727
 6398TIP3   OH240828   1.384   2.949   0.008  0.2532 -0.3431  0.2681
 6398TIP3    H140829   1.385   2.854  -0.003 -0.6633 -0.2211 -1.1467
 6398TIP3    H240830   1.376   2.983  -0.081  0.9574  1.0834  0.7160
 6399TIP3   OH240831   2.884   1.643   2.711 -0.1132 -0.0396  0.1752
 6399TIP3    H140832   2.877   1.719   2.769  2.0649  0.6875 -0.4210
 6399TIP3    H240833   2.800   1.599   2.719 -0.9966  1.7589  1.4855
 6400TIP3   OH240834   1.744   0.991   6.076  0.6129  0.4427 -0.0722
 6400TIP3    H140835   1.731   1.077   6.115  0.5499  2.3877 -3.9430
 6400TIP3    H240836   1.662   0.974   6.028  2.0509  0.1952 -2.6124
 6401TIP3   OH240837   4.450   2.151   8.724  0.0827 -0.2928  0.4373
 6401TIP3    H140838   4.427   2.244   8.735 -0.0709 -0.5910  3.2691
 6401TIP3    H240839   4.405   2.125   8.643 -0.1343  2.0022 -0.2497
 6402TIP3   OH240840   5.873   3.751   8.831 -0.3175 -0.3251  0.0822
 6402TIP3    H140841   5.906   3.663   8.848  1.1038  0.7644  4.0002
 6402TIP3    H240842   5.951   3.802   8.807 -0.7845  0.2814 -0.1814
 6403TIP3   OH240843   4.434   5.086   7.968 -0.3627  0.6203  0.4955
 6403TIP3    H140844   4.525   5.094   7.998 -0.3919  1.3396  0.3929
 6403TIP3    H240845   4.441   5.062   7.876 -0.2640  1.8172  0.1740
 6404TIP3   OH240846   6.207   4.000   0.064  0.2140  0.1559 -0.0077
 6404TIP3    H140847   6.190   3.919   0.113 -0.3220  0.1324 -0.2198
 6404TIP3    H240848   6.296   4.024   0.087  0.4868 -0.6718 -0.1843
 6405TIP3   OH240849   4.501   6.119   1.163  0.7321  0.0465  0.0244
 6405TIP3    H140850   4.457   6.034   1.166  0.9623 -0.2316 -2.2534
 6405TIP3    H240851   4.577   6.109   1.220 -0.0653 -0.7556  0.9727
 6406TIP3   OH240852   6.393   5.944   7.355 -0.0601  0.0636 -0.1878
 6406TIP3    H140853   6.359   6.026   7.390 -0.0190  0.4055 -0.9162
 6406TIP3    H240854   6.393   5.957   7.260 -0.2151 -0.8486 -0.3194
 6407TIP3   OH240855   5.302   0.791   1.936 -0.0505 -0.0661 -0.8096
 6407TIP3    H140856   5.229   0.756   1.986  0.9239 -0.0985  0.6438
 6407TIP3    H240857   5.314   0.880   1.970  0.5505 -0.0451 -1.0634
 6408TIP3   OH240858   3.540   3.964   1.364  0.0865 -0.1757 -0.6854
 6408TIP3    H140859   3.521   3.926   1.279 -1.6737 -0.1963 -0.3100
 6408TIP3    H240860   3.566   4.054   1.344 -0.9462  0.0223 -1.2163
 6409TIP3   OH240861   5.728   2.412   0.722  0.3661 -0.3551  0.8316
 6409TIP3    H140862   5.753   2.436   0.811 -1.0473  2.5147  0.5867
 6409TIP3    H240863   5.638   2.442   0.714  0.2799 -1.0392 -1.4042
 6410TIP3   OH240864   3.756   6.635   7.976 -0.2790 -0.5602 -0.5634
 6410TIP3    H140865   3.678   6.674   7.939  0.3315  0.3473 -0.9232
 6410TIP3    H240866   3.827   6.659   7.915  0.2643 -1.4453 -0.3050
 6411TIP3   OH240867   1.723   2.439   7.079 -0.0814  0.1929  0.1050
 6411TIP3    H140868   1.738   2.517   7.133  1.6286 -0.3334  0.4292
 6411TIP3    H240869   1.720   2.473   6.990  0.0675  0.6969  0.2839
 6412TIP3   OH240870   1.909   6.045   0.960 -0.5169 -0.6202 -0.1221
 6412TIP3    H140871   1.896   5.952   0.978 -1.2413 -0.6167 -0.5696
 6412TIP3    H240872   1.832   6.088   0.998  0.0966 -0.1329  0.5939
 6413TIP3   OH240873   1.158   1.082   8.410 -0.4556  0.2723  0.5122
 6413TIP3    H140874   1.171   1.159   8.355 -2.2506  0.8042  0.7647
 6413TIP3    H240875   1.232   1.025   8.390  0.4784  1.7183 -0.2649
 6414TIP3   OH240876   6.217   1.283   2.428 -0.3300  0.4009  0.0190
 6414TIP3    H140877   6.243   1.240   2.347  0.4321  2.3172 -0.8074
 6414TIP3    H240878   6.252   1.227   2.497 -2.3926 -2.1757 -0.8236
 6415TIP3   OH240879   4.457   0.221   1.777 -0.1113 -0.7618  0.5019
 6415TIP3    H140880   4.416   0.279   1.713  0.8506  1.1790  1.5521
 6415TIP3    H240881   4.536   0.190   1.733  1.1406  1.4434  1.0165
 6416TIP3   OH240882   4.934   3.082   0.998  0.3085 -0.0460  0.8435
 6416TIP3    H140883   4.969   2.994   1.012 -0.0110 -0.2909  0.1691
 6416TIP3    H240884   4.939   3.124   1.084 -2.1515 -1.6903  1.9054
 6417TIP3   OH240885   4.172   0.462   6.366  0.7029 -0.3269 -0.8159
 6417TIP3    H140886   4.150   0.547   6.329 -0.0118 -0.5796 -0.9911
 6417TIP3    H240887   4.125   0.399   6.312 -0.0276 -0.7302  0.2503
 6418TIP3   OH240888   4.908   0.149   0.938  0.4246 -0.3729 -0.0179
 6418TIP3    H140889   4.908   0.206   1.015  0.0855  1.8456 -1.5668
 6418TIP3    H240890   4.995   0.109   0.938  0.9038  0.6220  0.7809
 6419TIP3   OH240891   4.905   5.430   0.311  0.0619 -0.3692  0.3078
 6419TIP3    H140892   4.903   5.351   0.364 -0.7298  0.8548  2.2118
 6419TIP3    H240893   4.952   5.494   0.364 -2.1854  1.3849  0.3277
 6420TIP3   OH240894   0.566   3.757   0.955 -0.3798  0.4688  0.1183
 6420TIP3    H140895   0.578   3.839   1.003 -1.7839  1.1396 -0.6287
 6420TIP3    H240896   0.639   3.755   0.893  1.0125 -0.0330  1.7023
 6421TIP3   OH240897   5.523   2.518   0.414  0.3938 -0.5850 -0.1449
 6421TIP3    H140898   5.436   2.479   0.419 -0.3400  1.0835  1.6071
 6421TIP3    H240899   5.567   2.489   0.494  0.4813  0.6255  0.2691
 6422TIP3   OH240900   3.899   2.622   1.104 -0.0947 -0.0144 -0.6745
 6422TIP3    H140901   3.835   2.679   1.063 -1.1202  0.3655  1.3120
 6422TIP3    H240902   3.849   2.574   1.171  0.8391 -2.8573 -1.8639
 6423TIP3   OH240903   4.521   6.137   0.096  0.3985  0.2619  0.4119
 6423TIP3    H140904   4.555   6.194   0.027  0.9181  0.7156  1.0208
 6423TIP3    H240905   4.504   6.054   0.053 -0.1952  0.8280 -0.4521
 6424TIP3   OH240906   6.758   2.845   8.749 -0.2452 -0.3745 -0.6179
 6424TIP3    H140907   6.820   2.778   8.777 -1.3478 -0.4428  1.9122
 6424TIP3    H240908   6.813   2.918   8.720  1.0738 -0.5061  1.3487
 6425TIP3   OH240909   3.114   6.505   2.253  0.0524 -0.3827 -0.4197
 6425TIP3    H140910   3.117   6.414   2.283  0.6052  0.0204  0.7861
 6425TIP3    H240911   3.187   6.548   2.297 -1.8444  1.3138  1.2604
 6426TIP3   OH240912   6.768   2.331   0.381 -0.1861  0.4732  0.1158
 6426TIP3    H140913   6.724   2.377   0.453  0.6300 -0.3547  1.1722
 6426TIP3    H240914   6.806   2.401   0.328 -0.6367  1.0982  0.5907
 6427TIP3   OH240915   6.543   0.052   1.751  0.0322  0.7609 -0.7585
 6427TIP3    H140916   6.524   0.106   1.827  0.9285  0.5588 -0.3744
 6427TIP3    H240917   6.615   0.098   1.707  0.0435  0.4688 -1.0504
 6428TIP3   OH240918   1.643   0.413   6.895 -0.3618 -0.0264 -0.5555
 6428TIP3    H140919   1.555   0.412   6.857 -0.5776  1.1206 -0.1215
 6428TIP3    H240920   1.690   0.479   6.845 -0.5887  1.3653  0.9598
 6429TIP3   OH240921   4.194   5.094   7.706  0.5177  0.0910  0.3043
 6429TIP3    H140922   4.156   5.015   7.666 -0.8921 -1.0939  3.5938
 6429TIP3    H240923   4.289   5.078   7.704  0.3458 -0.9724 -0.4646
 6430TIP3   OH240924   1.744   1.291   8.556 -0.0283  0.0288 -0.1405
 6430TIP3    H140925   1.767   1.273   8.465 -2.6448  0.5175 -0.9958
 6430TIP3    H240926   1.746   1.205   8.598  1.6019 -0.1487 -0.5202
 6431TIP3   OH240927   4.082   0.388   1.249 -0.1741 -0.3288 -0.3512
 6431TIP3    H140928   4.009   0.420   1.302  0.7987  0.4286  0.5667
 6431TIP3    H240929   4.113   0.311   1.295  1.0424  0.6607  0.5524
 6432TIP3   OH240930   3.500   1.747   1.431 -1.0853 -0.2295  0.6426
 6432TIP3    H140931   3.409   1.773   1.445 -0.4631  1.3494  2.0389
 6432TIP3    H240932   3.547   1.829   1.419  0.3674 -0.9478  1.1902
 6433TIP3   OH240933   3.538   3.490   1.175 -0.2437 -0.0358 -0.0677
 6433TIP3    H140934   3.626   3.507   1.142 -0.5077  1.9103  0.1361
 6433TIP3    H240935   3.544   3.507   1.269 -1.0310  1.0918 -0.1959
 6434TIP3   OH240936   4.697   5.210   1.496  0.4502 -0.0471  0.1882
 6434TIP3    H140937   4.656   5.136   1.540 -2.3689 -0.0087 -2.0967
 6434TIP3    H240938   4.778   5.225   1.546 -0.1823 -2.8834  2.3693
 6435TIP3   OH240939   3.357   1.793   8.448 -0.1705 -0.4545  0.0226
 6435TIP3    H140940   3.439   1.744   8.457 -0.9411 -1.6576  0.6122
 6435TIP3    H240941   3.327   1.808   8.538 -0.4529  0.2561 -0.1784
 6436TIP3   OH240942   3.951   3.775   8.655 -0.3952 -0.3460  0.1343
 6436TIP3    H140943   3.997   3.856   8.635 -3.0469  1.4098  0.6729
 6436TIP3    H240944   3.950   3.771   8.751 -0.1017 -1.1708  0.1143
 6437TIP3   OH240945   5.630   2.380   1.607 -0.1710 -0.4124 -0.0951
 6437TIP3    H140946   5.645   2.317   1.678  0.0978 -1.1686 -0.7996
 6437TIP3    H240947   5.535   2.392   1.605 -0.3009 -1.3451 -0.3832
 6438TIP3   OH240948   5.354   4.465   8.393  0.1322  0.1679 -0.0040
 6438TIP3    H140949   5.322   4.398   8.331 -1.2646 -0.0340  0.9069
 6438TIP3    H240950   5.333   4.430   8.479 -1.7128  2.2820  0.4863
 6439TIP3   OH240951   4.766   0.228   2.469  0.2761  0.8992 -0.2394
 6439TIP3    H140952   4.789   0.154   2.413  0.0027  1.8889 -1.6903
 6439TIP3    H240953   4.848   0.275   2.483  0.1419  1.2960 -0.7711
 6440TIP3   OH240954   5.600   0.253   0.533 -0.2286 -0.4598 -0.5222
 6440TIP3    H140955   5.544   0.265   0.610 -0.1330  1.3748 -0.6976
 6440TIP3    H240956   5.541   0.265   0.459 -0.2047 -1.6641 -0.7615
 6441TIP3   OH240957   3.740   4.592   2.009  0.0537  0.3813 -0.2220
 6441TIP3    H140958   3.724   4.596   2.104  3.3889  0.3499  0.4588
 6441TIP3    H240959   3.751   4.499   1.991  0.5470  0.4648 -0.3775
 6442TIP3   OH240960   0.490   6.224   0.212  0.1161  0.7540 -0.1804
 6442TIP3    H140961   0.578   6.228   0.249 -0.3440  0.2739  1.0151
 6442TIP3    H240962   0.442   6.293   0.256 -0.0783  1.1280 -0.9524
 6443TIP3   OH240963   2.670   5.982   7.732  0.3729  0.2272  0.8065
 6443TIP3    H140964   2.673   5.900   7.782  1.6325 -0.3360 -0.1330
 6443TIP3    H240965   2.622   6.042   7.788 -1.6831 -1.4861  1.0121
 6444TIP3   OH240966   5.015   0.121   8.477 -0.4446 -0.3895 -0.0152
 6444TIP3    H140967   4.961   0.079   8.410 -0.3920 -0.4121 -0.0429
 6444TIP3    H240968   4.981   0.086   8.559  0.9461 -2.1164 -0.1084
 6445TIP3   OH240969   5.545   2.216   8.711 -0.7429 -0.7328  0.5741
 6445TIP3    H140970   5.527   2.122   8.716 -2.1133 -0.4286  4.2317
 6445TIP3    H240971   5.468   2.253   8.666  0.3019 -1.3558 -1.8859
 6446TIP3   OH240972   2.098   3.644   8.847  0.4688  0.3421  0.5146
 6446TIP3    H140973   2.158   3.620   8.918  1.5689  0.5053 -0.3238
 6446TIP3    H240974   2.081   3.562   8.802 -0.5978  0.1610  1.2242
 6447TIP3   OH240975   1.055   5.723   1.509  0.8227 -0.1851  0.3242
 6447TIP3    H140976   1.031   5.635   1.539 -1.7709  0.1838 -0.4685
 6447TIP3    H240977   1.016   5.782   1.574 -0.2137  0.4492 -0.8417
 6448TIP3   OH240978   0.390   0.378   1.268 -0.5414  0.0275 -0.3541
 6448TIP3    H140979   0.337   0.417   1.198  0.9422  1.5594 -0.6751
 6448TIP3    H240980   0.439   0.308   1.225  0.0727  0.7102 -0.7908
 6449TIP3   OH240981   2.161   0.638   1.701 -0.4271  0.1690 -0.1213
 6449TIP3    H140982   2.108   0.705   1.656 -1.4378  0.2637  1.1444
 6449TIP3    H240983   2.220   0.605   1.633 -1.6495  0.5505 -1.4363
 6450TIP3   OH240984   2.225   6.800   0.274  0.7037 -0.4014 -0.6734
 6450TIP3    H140985   2.271   6.758   0.202  2.0253 -0.0527 -0.0584
 6450TIP3    H240986   2.250   6.892   0.267 -1.4193  0.1839 -1.4513
 6451TIP3   OH240987   6.711   1.504   7.266  0.4654 -0.2525  0.1036
 6451TIP3    H140988   6.641   1.480   7.205  1.1806 -1.1926 -0.3743
 6451TIP3    H240989   6.679   1.477   7.351  0.5538 -1.3863 -0.2159
 6452TIP3   OH240990   5.348   0.068   8.564 -0.1468 -0.3830 -0.0797
 6452TIP3    H140991   5.353   0.145   8.507 -3.2274 -0.7567 -1.0616
 6452TIP3    H240992   5.414   0.008   8.529  1.2418  1.1691 -0.2647
 6453TIP3   OH240993   4.024   2.535   0.012 -0.2408 -0.2853 -0.3083
 6453TIP3    H140994   4.037   2.558  -0.080 -0.3322  0.4163 -0.1551
 6453TIP3    H240995   3.964   2.461   0.010 -0.5382 -0.0395 -0.8040
 6454TIP3   OH240996   3.618   0.404   6.803 -0.6762  0.2415 -0.2729
 6454TIP3    H140997   3.689   0.345   6.827 -0.4586  0.5687 -0.1081
 6454TIP3    H240998   3.649   0.448   6.725 -1.0681 -0.2625 -0.7186
 6455TIP3   OH240999   3.647   4.795   1.834 -0.1038 -0.6535 -0.1022
 6455TIP3    H141000   3.569   4.805   1.889 -0.6488 -1.5710 -0.6745
 6455TIP3    H241001   3.708   4.743   1.888  0.3223  0.4652  0.5280
 6456TIP3   OH241002   1.693   3.675   8.413  0.1211 -0.8264  0.3776
 6456TIP3    H141003   1.655   3.661   8.499 -1.3305  0.2635 -0.0469
 6456TIP3    H241004   1.788   3.675   8.428 -0.0898  1.2486  2.3292
 6457TIP3   OH241005   2.532   4.679   0.916 -0.0133 -0.1455 -0.2732
 6457TIP3    H141006   2.509   4.771   0.902 -0.9073 -0.2424  0.4325
 6457TIP3    H241007   2.528   4.640   0.829  0.8058  0.5695 -0.6441
 6458TIP3   OH241008   0.406   2.070   1.812 -0.1668  0.4445 -0.0455
 6458TIP3    H141009   0.483   2.037   1.859  1.9737  0.5449 -3.2142
 6458TIP3    H241010   0.344   1.996   1.812 -0.1407  0.3314  2.4640
 6459TIP3   OH241011   5.991   4.140   2.528 -0.2529  0.2546 -0.3142
 6459TIP3    H141012   5.993   4.059   2.477 -0.2071  1.0784 -1.6445
 6459TIP3    H241013   6.018   4.208   2.467 -2.3748  1.6036  0.1344
 6460TIP3   OH241014   2.833   5.741   6.525  0.0163 -0.0367  0.2439
 6460TIP3    H141015   2.751   5.732   6.477  0.4208 -3.1171 -0.0774
 6460TIP3    H241016   2.815   5.702   6.611  0.9854 -0.3238  0.3339
 6461TIP3   OH241017   6.384   1.110   7.369  0.2553 -0.4276 -0.5961
 6461TIP3    H141018   6.377   1.125   7.275  1.2797 -1.5150 -0.8626
 6461TIP3    H241019   6.403   1.017   7.378 -1.0490 -0.6199  0.7595
 6462TIP3   OH241020   5.944   3.550   1.797  0.6059 -0.1458  0.3819
 6462TIP3    H141021   5.962   3.643   1.791  2.5490 -0.4929  0.1393
 6462TIP3    H241022   6.031   3.508   1.794 -0.2310 -1.9738  0.0964
 6463TIP3   OH241023   3.861   1.519   2.378  0.3783  0.0721 -0.2870
 6463TIP3    H141024   3.783   1.507   2.323  1.2584  1.6263 -1.9956
 6463TIP3    H241025   3.934   1.518   2.317  1.5944  0.0110  1.1108
 6464TIP3   OH241026   0.117   4.593   6.887  0.0818 -0.1631  0.1021
 6464TIP3    H141027   0.181   4.662   6.903 -0.6661  0.1198  2.3758
 6464TIP3    H241028   0.039   4.639   6.858 -0.3211 -0.0348  1.3212
 6465TIP3   OH241029   0.549   2.538   0.744  0.1701 -0.4322 -0.1780
 6465TIP3    H141030   0.589   2.487   0.674  0.2906  0.7290 -0.9685
 6465TIP3    H241031   0.470   2.488   0.767  0.9735 -1.6730  0.0110
 6466TIP3   OH241032   3.018   0.368   1.615  0.2107 -0.6955  0.7109
 6466TIP3    H141033   3.110   0.344   1.602  0.0628 -0.0269 -2.4146
 6466TIP3    H241034   3.021   0.444   1.673  1.8544  0.3688 -0.6507
 6467TIP3   OH241035   4.196   3.301   8.420  0.0903  0.0228  0.1125
 6467TIP3    H141036   4.290   3.298   8.437  0.4475  3.0253 -0.7600
 6467TIP3    H241037   4.163   3.367   8.481 -0.9517  0.8959 -1.3203
 6468TIP3   OH241038   3.458   3.049   6.957 -0.0021  0.1552 -0.0362
 6468TIP3    H141039   3.471   3.142   6.973 -1.4456  0.2302  0.9079
 6468TIP3    H241040   3.545   3.010   6.965  0.5810  1.3885 -0.2495
 6469TIP3   OH241041   4.438   6.455   7.516 -0.0498  1.0341  0.0546
 6469TIP3    H141042   4.530   6.428   7.512 -0.4204 -0.2538 -3.1527
 6469TIP3    H241043   4.395   6.386   7.567  0.3809  0.1883 -0.7011
 6470TIP3   OH241044   0.594   1.141   0.682  0.7057  0.1748 -0.3068
 6470TIP3    H141045   0.642   1.121   0.763 -0.0269  0.1961  0.1362
 6470TIP3    H241046   0.567   1.232   0.692  3.2381  1.2341 -1.9266
 6471TIP3   OH241047   4.084   4.952   6.790  0.2364 -0.0236 -0.5592
 6471TIP3    H141048   4.097   5.039   6.753 -0.5171  0.5387  0.4279
 6471TIP3    H241049   4.001   4.922   6.754 -1.2932  1.1672  1.7038
 6472TIP3   OH241050   6.255   0.098   8.812  0.0662  0.2851 -0.6462
 6472TIP3    H141051   6.322   0.166   8.819 -0.0367  0.3940 -0.7247
 6472TIP3    H241052   6.303   0.017   8.830 -0.0766  0.4881  0.7528
 6473TIP3   OH241053   1.082   2.624   1.691  0.0875  0.4425  0.2653
 6473TIP3    H141054   1.046   2.701   1.648  0.0359  0.4451  0.3125
 6473TIP3    H241055   1.046   2.627   1.780  1.2593  1.1826  0.7526
 6474TIP3   OH241056   4.495   1.379   8.037  0.1166 -0.3345  0.2418
 6474TIP3    H141057   4.550   1.319   8.089  0.4759 -0.6381 -0.4778
 6474TIP3    H241058   4.554   1.451   8.014 -0.2076  0.1058  0.7652
 6475TIP3   OH241059   2.965   1.777   6.345 -0.2854  0.4793  0.4206
 6475TIP3    H141060   2.884   1.810   6.307  0.3643  2.1450  0.3791
 6475TIP3    H241061   3.026   1.850   6.337  0.9429 -0.4103  1.3198
 6476TIP3   OH241062   1.325   2.929   8.610 -0.6352 -0.1457  0.3215
 6476TIP3    H141063   1.242   2.892   8.640 -1.5099  1.1011 -0.4533
 6476TIP3    H241064   1.378   2.852   8.587 -1.2828 -0.9901  1.5013
 6477TIP3   OH241065   2.114   4.906   2.356 -0.1920 -1.1438  0.2909
 6477TIP3    H141066   2.142   4.976   2.414  0.1730 -0.6755 -0.4264
 6477TIP3    H241067   2.087   4.835   2.414  0.2271 -0.7168  1.0183
 6478TIP3   OH241068   0.718   1.561   0.719  0.9401 -0.0460 -0.1772
 6478TIP3    H141069   0.792   1.508   0.748  0.6780  0.1537  0.8801
 6478TIP3    H241070   0.743   1.590   0.631  0.6884 -2.6540 -1.2174
 6479TIP3   OH241071   4.329   5.658   7.410 -0.1820 -0.7277 -0.4194
 6479TIP3    H141072   4.400   5.709   7.450  0.1881 -0.8401 -0.9116
 6479TIP3    H241073   4.317   5.583   7.468 -0.1608 -0.5072 -0.1271
 6480TIP3   OH241074   6.532   6.673   2.442  0.3445  0.3107 -0.1151
 6480TIP3    H141075   6.511   6.598   2.497 -0.4739  0.8310  0.3079
 6480TIP3    H241076   6.605   6.643   2.387 -0.4210 -1.0110 -0.4511
 6481TIP3   OH241077   0.429   3.147   7.071  0.0254 -0.2156  0.4196
 6481TIP3    H141078   0.414   3.053   7.059 -0.6112 -0.0138 -0.4417
 6481TIP3    H241079   0.414   3.186   6.985  1.1243  0.5820  0.5677
 6482TIP3   OH241080   0.737   6.011   0.254  0.3741  0.0537  0.2664
 6482TIP3    H141081   0.768   6.101   0.252  1.1979 -0.2326 -0.8713
 6482TIP3    H241082   0.692   5.999   0.171 -1.3607 -0.0532  1.1789
 6483TIP3   OH241083   6.799   0.972   7.827  0.0028 -0.2895  0.0371
 6483TIP3    H141084   6.867   0.905   7.821  1.2194  0.8484  0.4598
 6483TIP3    H241085   6.839   1.050   7.788 -1.3485  0.2136 -0.3801
 6484TIP3   OH241086   0.095   5.075   7.756 -0.0480  0.0810 -0.4027
 6484TIP3    H141087   0.036   5.001   7.758  0.0826 -0.0155  1.6566
 6484TIP3    H241088   0.160   5.052   7.690  0.5821 -2.1381  0.9007
 6485TIP3   OH241089   4.717   0.451   0.793 -0.4974 -0.3167 -0.1473
 6485TIP3    H141090   4.791   0.442   0.853  0.7778  0.4902 -1.5491
 6485TIP3    H241091   4.683   0.362   0.784  0.8009 -0.8373 -0.0973
 6486TIP3   OH241092   2.913   4.298   1.637 -0.4964  0.6006  0.6135
 6486TIP3    H141093   2.891   4.276   1.547 -0.5543 -2.6468  1.2889
 6486TIP3    H241094   2.910   4.393   1.640  0.5415  0.9000 -3.0399
 6487TIP3   OH241095   4.725   2.591   7.993 -0.2580 -0.6991  0.8610
 6487TIP3    H141096   4.635   2.561   8.002 -1.3723  1.4844 -1.5901
 6487TIP3    H241097   4.753   2.559   7.907  0.3470  0.7477  0.4822
 6488TIP3   OH241098   5.949   0.444   6.913  0.2669  0.2058 -0.1250
 6488TIP3    H141099   5.902   0.441   6.830 -1.0039  0.9141  0.5321
 6488TIP3    H241100   5.968   0.352   6.933  0.7466  0.0361 -1.2531
 6489TIP3   OH241101   1.918   4.024   0.173  0.4735  0.2305 -0.4116
 6489TIP3    H141102   1.973   4.076   0.231 -0.3839  2.2086 -1.2735
 6489TIP3    H241103   1.828   4.051   0.194  0.0580 -0.2004 -1.5419
 6490TIP3   OH241104   6.536   5.750   1.108 -0.2648 -0.1646 -0.0435
 6490TIP3    H141105   6.487   5.827   1.078 -2.1280 -1.3851 -0.3131
 6490TIP3    H241106   6.543   5.694   1.030 -0.3729 -0.9795  0.5171
 6491TIP3   OH241107   0.651   6.385   7.889  0.6013  0.5314  0.0373
 6491TIP3    H141108   0.612   6.300   7.911 -0.6266  1.1392  0.3134
 6491TIP3    H241109   0.610   6.409   7.806  1.1826  0.7187 -0.2016
 6492TIP3   OH241110   6.658   1.652   1.233 -0.2842  0.2060  0.1384
 6492TIP3    H141111   6.650   1.557   1.224  1.7516 -0.0217  0.3501
 6492TIP3    H241112   6.631   1.687   1.148  1.5667 -0.7560 -0.8967
 6493TIP3   OH241113   5.816   4.790   8.480  0.3602 -0.1355  0.2556
 6493TIP3    H141114   5.787   4.701   8.458  0.2591 -0.9614  3.2804
 6493TIP3    H241115   5.911   4.787   8.470  0.2690 -0.2342 -0.6734
 6494TIP3   OH241116   2.847   5.442   2.176 -0.1488 -0.0059  0.7905
 6494TIP3    H141117   2.791   5.519   2.166  2.1205  1.6206 -0.1588
 6494TIP3    H241118   2.823   5.406   2.262  0.1230  2.9700  2.2367
 6495TIP3   OH241119   4.086   5.355   6.787  0.7440 -0.2901 -0.0269
 6495TIP3    H141120   4.003   5.358   6.835  0.9345 -1.4656  0.4074
 6495TIP3    H241121   4.086   5.435   6.734  0.0593  0.5093  1.1411
 6496TIP3   OH241122   6.486   5.616   7.985  0.0595 -0.4049  0.5611
 6496TIP3    H141123   6.503   5.700   8.028  1.5690 -0.1745 -0.3969
 6496TIP3    H241124   6.573   5.585   7.960 -0.6172 -1.4794 -0.5436
 6497TIP3   OH241125   0.458   3.590   1.640 -0.6852  0.1106 -0.4119
 6497TIP3    H141126   0.388   3.636   1.593 -1.6552 -0.3661  0.5218
 6497TIP3    H241127   0.455   3.626   1.728  0.4312  0.2553 -0.4254
 6498TIP3   OH241128   0.810   2.994   7.079 -0.0816  0.3280  0.2659
 6498TIP3    H141129   0.815   2.987   7.175 -0.4349  1.2485  0.3572
 6498TIP3    H241130   0.815   2.903   7.049 -0.0395  0.0178  1.1612
 6499TIP3   OH241131   2.258   5.154   7.748 -0.7026 -0.5858  0.3123
 6499TIP3    H141132   2.291   5.168   7.659  0.8259  2.6639  1.2352
 6499TIP3    H241133   2.171   5.116   7.736 -0.1012 -1.2994 -2.5082
 6500TIP3   OH241134   6.061   2.370   0.385 -0.1665 -0.2709  0.8030
 6500TIP3    H141135   6.143   2.347   0.341  1.2527  0.1541  3.0453
 6500TIP3    H241136   6.007   2.292   0.378  0.1189 -0.3535 -1.2478
 6501TIP3   OH241137   2.176   5.495   0.306  0.4674 -0.1160 -0.7248
 6501TIP3    H141138   2.171   5.488   0.211  0.0689  0.3274 -0.7386
 6501TIP3    H241139   2.234   5.423   0.332  0.0603 -0.6398 -1.2368
 6502TIP3   OH241140   0.796   2.718   8.088  0.5253 -0.3071  0.4808
 6502TIP3    H141141   0.742   2.764   8.023  0.4302  0.2304  0.9303
 6502TIP3    H241142   0.882   2.712   8.046 -0.1603 -2.3675 -0.8024
 6503TIP3   OH241143   2.385   0.415   6.466 -0.2852 -0.0660 -0.2663
 6503TIP3    H141144   2.360   0.367   6.545 -0.7102 -0.1331 -0.4364
 6503TIP3    H241145   2.473   0.384   6.446 -0.9086 -1.5019 -0.9110
 6504TIP3   OH241146   5.143   4.484   8.826 -0.2750 -0.6306  0.3789
 6504TIP3    H141147   5.224   4.435   8.841 -0.7584 -0.9810  2.1241
 6504TIP3    H241148   5.134   4.539   8.904 -1.0814  0.3073 -0.3595
 6505TIP3   OH241149   5.822   5.081   7.424 -0.0437  0.4196 -0.5921
 6505TIP3    H141150   5.773   5.158   7.452 -1.0758 -0.9036  1.4852
 6505TIP3    H241151   5.914   5.105   7.435 -0.3046  1.7325 -1.1349
 6506TIP3   OH241152   6.725   0.456   8.693  0.7119 -0.2106  0.2060
 6506TIP3    H141153   6.652   0.516   8.675  0.8592 -0.1361 -0.1635
 6506TIP3    H241154   6.762   0.437   8.606  1.0063 -0.4073  0.3722
 6507TIP3   OH241155   4.556   4.731   7.241 -0.0552  0.7491  0.2869
 6507TIP3    H141156   4.622   4.685   7.292 -0.2963  1.1326  0.9507
 6507TIP3    H241157   4.531   4.806   7.295 -0.2119  1.2463 -0.4512
 6508TIP3   OH241158   5.334   4.105   0.121 -0.2230 -0.4725 -0.1333
 6508TIP3    H141159   5.402   4.078   0.183  1.4425 -1.7471 -2.3816
 6508TIP3    H241160   5.266   4.038   0.131 -1.4846  1.0258  2.4071
 6509TIP3   OH241161   1.895   5.062   8.887 -0.1696  0.7701 -0.3446
 6509TIP3    H141162   1.884   5.037   8.979  1.0589  0.8596 -0.1564
 6509TIP3    H241163   1.960   5.132   8.889 -0.2090  0.8466 -1.2835
 6510TIP3   OH241164   0.414   0.121   8.246  0.0945  0.1004 -1.0013
 6510TIP3    H141165   0.440   0.114   8.338 -1.6385 -0.8715 -0.5464
 6510TIP3    H241166   0.406   0.215   8.230  0.6206  0.2875 -0.2346
 6511TIP3   OH241167   6.052   4.889   7.398 -0.1197  0.4565 -0.0945
 6511TIP3    H141168   6.085   4.979   7.403  1.0733 -0.0316  1.8549
 6511TIP3    H241169   6.078   4.849   7.481 -0.6181 -1.7018 -0.9116
 6512TIP3   OH241170   2.698   0.122   1.318 -0.0049  0.3949  0.6122
 6512TIP3    H141171   2.763   0.059   1.289  1.0516  1.8724 -0.3636
 6512TIP3    H241172   2.748   0.202   1.337 -1.1430  0.6648  2.8594
 6513TIP3   OH241173   1.942   6.627   7.901 -0.3764 -0.2543  0.3179
 6513TIP3    H141174   2.011   6.565   7.880 -1.1026 -1.2981  0.9245
 6513TIP3    H241175   1.987   6.700   7.943  0.2462 -1.4423  1.7824
 6514TIP3   OH241176   1.203   3.600   8.347 -0.6524 -0.5472  0.5737
 6514TIP3    H141177   1.149   3.522   8.339 -1.0605 -0.0969 -2.2931
 6514TIP3    H241178   1.290   3.567   8.369 -0.3622 -2.1353 -2.3651
 6515TIP3   OH241179   4.464   1.166   0.733 -1.0669  0.2047 -0.1727
 6515TIP3    H141180   4.425   1.118   0.661 -2.3865 -0.4068  0.9132
 6515TIP3    H241181   4.554   1.132   0.739 -1.1929 -0.2827 -1.0169
 6516TIP3   OH241182   5.354   0.701   0.028 -0.1883 -0.0065  0.3117
 6516TIP3    H141183   5.327   0.637  -0.038 -0.7988 -0.9355  1.4180
 6516TIP3    H241184   5.295   0.686   0.102  0.2085  1.2784  0.9296
 6517TIP3   OH241185   4.882   5.914   7.756  0.3739  0.3292  0.1315
 6517TIP3    H141186   4.928   5.997   7.768 -0.3474  1.0034 -1.3575
 6517TIP3    H241187   4.880   5.874   7.843 -0.0818  2.3216  1.1024
 6518TIP3   OH241188   3.931   2.481   7.882 -0.2127 -0.2701 -0.6981
 6518TIP3    H141189   3.973   2.511   7.962 -2.8323  2.0129 -0.0316
 6518TIP3    H241190   3.923   2.387   7.892  2.4968 -0.4863  0.1493
 6519TIP3   OH241191   3.787   0.586   2.240  0.0959  0.2297  0.0498
 6519TIP3    H141192   3.778   0.681   2.226 -0.0357  0.0095 -1.5806
 6519TIP3    H241193   3.742   0.570   2.323 -2.8970  1.1288 -1.2444
 6520TIP3   OH241194   6.506   0.289   8.420 -0.3264 -0.0813 -0.0441
 6520TIP3    H141195   6.449   0.213   8.405  0.4788 -0.6992 -0.1019
 6520TIP3    H241196   6.577   0.254   8.475 -1.5293  1.3502  2.6531
 6521TIP3   OH241197   3.917   3.199   8.515 -0.2575 -0.3770  0.1765
 6521TIP3    H141198   3.996   3.162   8.475  0.9901 -0.4952  2.5512
 6521TIP3    H241199   3.885   3.130   8.574 -0.9266  0.4355  0.7939
 6522TIP3   OH241200   2.503   4.467   1.849  0.5157 -0.7779 -0.8270
 6522TIP3    H141201   2.589   4.436   1.819  0.4944 -0.6556 -1.0133
 6522TIP3    H241202   2.503   4.447   1.943  0.7227 -0.8378 -0.8375
 6523TIP3   OH241203   6.091   5.718   8.497 -0.0463  0.4488  0.3998
 6523TIP3    H141204   6.177   5.738   8.461 -0.7535  0.4151 -1.4142
 6523TIP3    H241205   6.103   5.722   8.592  1.8847  0.6677  0.1854
 6524TIP3   OH241206   4.339   0.973   7.710  0.3367 -0.9042  0.1103
 6524TIP3    H141207   4.314   0.990   7.620  0.7333  2.0997  0.4818
 6524TIP3    H241208   4.404   1.040   7.731  1.8888 -2.8292  2.0035
 6525TIP3   OH241209   0.679   1.934   7.190  0.0396  0.3546  0.5441
 6525TIP3    H141210   0.592   1.962   7.162 -0.1220  0.5757  1.2436
 6525TIP3    H241211   0.737   2.006   7.166 -0.0627  0.4477  0.5743
 6526TIP3   OH241212   1.169   2.655   1.038  0.0160 -0.8936 -0.6323
 6526TIP3    H141213   1.080   2.631   1.062 -0.1841 -1.1049 -1.5547
 6526TIP3    H241214   1.217   2.655   1.121 -0.7645 -1.0923 -0.1730
 6527TIP3   OH241215   2.584   3.373   6.664  0.1798  0.0912 -0.1619
 6527TIP3    H141216   2.569   3.441   6.730 -0.1341 -0.7205  0.6265
 6527TIP3    H241217   2.657   3.322   6.699  1.8365  1.2124 -1.7372
 6528TIP3   OH241218   2.943   1.300   7.156 -0.6584  0.0102  0.2766
 6528TIP3    H141219   2.885   1.351   7.212 -2.6728 -0.1131 -1.5637
 6528TIP3    H241220   3.001   1.364   7.116 -0.0826  0.2453  1.4366
 6529TIP3   OH241221   5.254   5.938   0.639 -0.4574  0.1530 -0.5981
 6529TIP3    H141222   5.187   5.980   0.694  0.2635 -1.5919  1.7770
 6529TIP3    H241223   5.337   5.962   0.681  0.2992  0.5029 -2.2289
 6530TIP3   OH241224   1.710   0.388   1.017 -0.3238 -0.0505  0.7529
 6530TIP3    H141225   1.734   0.476   0.989 -0.1417 -0.8643 -1.8809
 6530TIP3    H241226   1.704   0.394   1.112  0.2017  2.6583  0.6841
 6531TIP3   OH241227   5.664   3.728   8.470  0.3947 -0.4215 -0.0267
 6531TIP3    H141228   5.649   3.740   8.376 -2.5899 -1.1122  0.2593
 6531TIP3    H241229   5.693   3.637   8.478  2.8722  0.2544 -0.3834
 6532TIP3   OH241230   6.588   1.850   7.991 -0.3276 -0.1280  0.3365
 6532TIP3    H141231   6.634   1.767   7.983 -0.5586 -0.4518  1.9314
 6532TIP3    H241232   6.639   1.912   7.939  0.4088 -1.0557 -0.0589
 6533TIP3   OH241233   3.026   3.266   6.726 -0.1536 -0.6602  0.2229
 6533TIP3    H141234   3.076   3.343   6.699  1.9271 -1.5095  1.4499
 6533TIP3    H241235   2.981   3.238   6.646  0.2042  0.9537 -0.5920
 6534TIP3   OH241236   2.796   0.391   8.200 -0.0123 -0.1783 -0.6429
 6534TIP3    H141237   2.741   0.444   8.258  0.1938  1.3734 -1.7992
 6534TIP3    H241238   2.748   0.392   8.116 -0.1256 -2.0625 -0.6331
 6535TIP3   OH241239   1.000   5.119   8.101  0.0798 -0.0395  0.1270
 6535TIP3    H141240   1.070   5.166   8.055  2.4904 -1.9201  1.5794
 6535TIP3    H241241   0.962   5.062   8.034 -0.3249  1.2393 -0.7618
 6536TIP3   OH241242   0.237   0.291   1.495 -0.2766  0.6623  0.0002
 6536TIP3    H141243   0.289   0.331   1.565  1.5532 -1.1674 -0.2323
 6536TIP3    H241244   0.296   0.287   1.420 -0.7494 -1.3813 -0.3158
 6537TIP3   OH241245   5.441   6.255   7.125  0.0040 -0.3926  0.2131
 6537TIP3    H141246   5.516   6.309   7.099  0.2956  0.0403  1.8458
 6537TIP3    H241247   5.396   6.236   7.043 -0.2727  2.5654 -0.4364
 6538TIP3   OH241248   6.134   0.167   7.549  0.1339  0.0451  0.2449
 6538TIP3    H141249   6.218   0.198   7.583  0.3172  0.7880 -0.8360
 6538TIP3    H241250   6.118   0.085   7.596  2.4187 -1.1714 -0.9400
 6539TIP3   OH241251   5.623   0.005   2.046  0.0066  0.3864 -0.8187
 6539TIP3    H141252   5.603  -0.049   1.969 -1.4846  0.6132 -0.6035
 6539TIP3    H241253   5.671  -0.054   2.104 -0.7640 -0.4348 -0.9979
 6540TIP3   OH241254   0.055   2.272   0.042 -0.2161 -0.0183 -0.7170
 6540TIP3    H141255   0.035   2.353   0.089 -0.6403  1.2332 -2.9288
 6540TIP3    H241256  -0.029   2.246   0.003  0.2125 -0.7752 -1.1472
 6541TIP3   OH241257   5.107   3.277   8.794  0.0108  0.1564  0.2503
 6541TIP3    H141258   5.149   3.324   8.722  0.7707 -1.3254 -0.3377
 6541TIP3    H241259   5.144   3.316   8.874 -0.3662  1.3918 -0.1663
 6542TIP3   OH241260   1.044   2.214   8.851  0.2491 -0.0006 -0.7571
 6542TIP3    H141261   1.055   2.178   8.939 -1.0140  0.8915 -0.2042
 6542TIP3    H241262   1.133   2.232   8.821  0.6799  3.3759  1.9161
 6543TIP3   OH241263   3.107   4.746   0.978  0.6832  0.0648 -0.0325
 6543TIP3    H141264   3.031   4.689   0.983 -0.1368  1.1093 -0.1094
 6543TIP3    H241265   3.119   4.781   1.066  2.0419 -1.2627  0.3489
 6544TIP3   OH241266   6.291   1.039   8.062  0.7477 -0.1247 -0.1911
 6544TIP3    H141267   6.370   0.995   8.094  1.6846 -0.4973 -2.7847
 6544TIP3    H241268   6.323   1.123   8.027 -0.2477  0.3631  0.0295
 6545TIP3   OH241269   2.765   6.098   0.324  0.5139 -0.3406  0.9120
 6545TIP3    H141270   2.709   6.127   0.396 -0.8803  0.4313 -0.4115
 6545TIP3    H241271   2.734   6.148   0.248  0.5745 -2.5435 -0.6660
 6546TIP3   OH241272   4.443   3.293   1.633  0.0251 -0.6243  0.0958
 6546TIP3    H141273   4.421   3.378   1.595 -0.0538 -0.7926 -0.2398
 6546TIP3    H241274   4.440   3.232   1.559 -1.0764 -1.1256  0.5332
 6547TIP3   OH241275   3.607   1.867   8.902 -0.0291  0.4478  0.8224
 6547TIP3    H141276   3.633   1.858   8.994  1.4774 -0.2978  0.3476
 6547TIP3    H241277   3.686   1.847   8.852 -1.5437 -2.2976 -0.7089
 6548TIP3   OH241278   6.147   2.231   1.116 -0.0380 -0.5222 -0.7661
 6548TIP3    H141279   6.118   2.198   1.201 -1.5467 -0.9572 -1.4206
 6548TIP3    H241280   6.166   2.323   1.131  1.1649 -0.9170  0.3652
 6549TIP3   OH241281   1.362   0.891   8.425  0.2753 -0.1501 -0.2035
 6549TIP3    H141282   1.356   0.899   8.521  1.0730 -2.5069  0.1164
 6549TIP3    H241283   1.455   0.874   8.409  0.0184 -0.5225 -1.3367
 6550TIP3   OH241284   6.156   1.191   1.977 -0.0258 -0.0345  0.0964
 6550TIP3    H141285   6.193   1.109   2.011 -1.0889 -1.7482 -2.5797
 6550TIP3    H241286   6.231   1.235   1.938  0.0800 -1.1821 -1.0541
 6551TIP3   OH241287   1.365   5.352   7.440 -0.0131  0.1183  0.0412
 6551TIP3    H141288   1.403   5.349   7.352 -0.5074  0.0880 -0.1755
 6551TIP3    H241289   1.299   5.420   7.435  1.0098  1.2174  0.8355
 6552TIP3   OH241290   3.462   5.594   8.821 -0.2503  0.0583 -0.0973
 6552TIP3    H141291   3.458   5.627   8.731  1.7018  1.7453  0.3696
 6552TIP3    H241292   3.436   5.669   8.875 -0.8506 -0.7680  0.8000
 6553TIP3   OH241293   1.222   1.850   7.312  0.2292  0.1180 -0.0094
 6553TIP3    H141294   1.227   1.812   7.399 -0.7153  0.4230  0.1930
 6553TIP3    H241295   1.128   1.858   7.295  0.3882  1.5894 -0.3778
 6554TIP3   OH241296   1.421   3.455   8.417 -0.2939  0.2677 -0.3145
 6554TIP3    H141297   1.498   3.457   8.360  0.3899 -2.3517  0.3726
 6554TIP3    H241298   1.394   3.363   8.418 -3.0458  0.9661  0.0519
 6555TIP3   OH241299   1.424   4.228   0.924  0.0674  0.1563  0.1800
 6555TIP3    H141300   1.481   4.184   0.988  1.1237  0.5367 -0.4758
 6555TIP3    H241301   1.479   4.237   0.846 -1.1584 -0.1635 -0.7404
 6556TIP3   OH241302   6.660   6.144   1.409  0.1640 -0.1624  0.0310
 6556TIP3    H141303   6.696   6.168   1.324 -0.0623 -0.1723 -0.0653
 6556TIP3    H241304   6.705   6.202   1.471 -0.1499  0.2962 -0.1668
 6557TIP3   OH241305   1.114   0.745   8.333  0.0730 -0.0396 -0.0699
 6557TIP3    H141306   1.048   0.815   8.331  3.2360  3.2579  0.6952
 6557TIP3    H241307   1.177   0.774   8.399  2.7938 -2.4814 -1.3745
 6558TIP3   OH241308   4.737   0.568   7.347 -0.3997 -0.6159 -0.0401
 6558TIP3    H141309   4.671   0.577   7.278 -1.1106 -0.5383  0.6421
 6558TIP3    H241310   4.819   0.596   7.305 -1.0180  0.5794 -0.5104
 6559TIP3   OH241311   3.476   2.439   0.003  0.1804 -0.7116  0.1676
 6559TIP3    H141312   3.411   2.369   0.011 -1.1391  0.4156 -0.2830
 6559TIP3    H241313   3.482   2.477   0.090 -1.2913  0.4613 -0.2080
 6560TIP3   OH241314   1.737   4.663   1.536  0.3977  0.2375 -0.1817
 6560TIP3    H141315   1.718   4.683   1.444 -0.2893  0.8510  0.0856
 6560TIP3    H241316   1.757   4.569   1.536  1.4775  0.4393 -1.1209
 6561TIP3   OH241317   6.631   2.084   2.068  0.3458 -0.3432  0.3164
 6561TIP3    H141318   6.590   2.111   1.986 -1.0398  0.1021  1.1059
 6561TIP3    H241319   6.698   2.020   2.043 -0.2970 -0.4854 -1.1127
 6562TIP3   OH241320   5.458   3.386   0.348  0.7820  0.4231  0.1593
 6562TIP3    H141321   5.477   3.473   0.382 -1.9521  0.7687  1.0925
 6562TIP3    H241322   5.435   3.335   0.426 -0.6968 -0.1968 -0.6438
 6563TIP3   OH241323   4.367   5.127   0.514  0.4274  0.8309  0.2918
 6563TIP3    H141324   4.460   5.106   0.518  0.5010  0.3821 -2.0831
 6563TIP3    H241325   4.363   5.218   0.484  0.0793  1.1518  1.2653
 6564TIP3   OH241326   2.803   1.885   8.730  0.1959 -0.4160 -0.5797
 6564TIP3    H141327   2.865   1.829   8.682 -0.8107 -2.6891  0.5765
 6564TIP3    H241328   2.722   1.834   8.732 -1.7484  2.3910 -1.9167
 6565TIP3   OH241329   0.427   0.133   6.850  0.2379 -0.4885  0.0603
 6565TIP3    H141330   0.397   0.063   6.792 -0.5421  0.5635 -0.8559
 6565TIP3    H241331   0.492   0.181   6.798  1.7265 -1.2545  1.1413
 6566TIP3   OH241332   0.872   3.074   8.570 -0.1717 -0.1703  0.0643
 6566TIP3    H141333   0.852   3.018   8.645  0.5577  0.0762  0.4565
 6566TIP3    H241334   0.908   3.015   8.504 -0.3704 -0.3168  0.0865
 6567TIP3   OH241335   0.249   1.825   1.833 -0.1496 -0.6246  1.0122
 6567TIP3    H141336   0.161   1.830   1.796  0.2525  1.5352  0.1647
 6567TIP3    H241337   0.235   1.820   1.928 -1.1881 -0.2809  0.8925
 6568TIP3   OH241338   0.171   1.938   0.694 -0.4341 -0.4925  0.0350
 6568TIP3    H141339   0.111   1.966   0.625  0.4429 -0.2986 -0.6622
 6568TIP3    H241340   0.134   1.855   0.726 -0.9288 -0.5052 -0.5556
 6569TIP3   OH241341   3.880   5.839   8.483 -0.4852 -0.0529  0.0067
 6569TIP3    H141342   3.826   5.888   8.546  0.1377 -0.0767  0.5722
 6569TIP3    H241343   3.961   5.888   8.478 -0.8724  0.4849 -1.5329
 6570TIP3   OH241344   1.143   0.252   8.118  0.0806  0.0365 -0.2556
 6570TIP3    H141345   1.189   0.171   8.141  0.6515  0.9206  1.9411
 6570TIP3    H241346   1.107   0.284   8.200 -5.1134 -0.8471 -1.7851
 6571TIP3   OH241347   5.425   6.721   0.830 -0.6090 -0.0938 -0.0715
 6571TIP3    H141348   5.381   6.797   0.866 -1.6881 -0.5785 -0.3342
 6571TIP3    H241349   5.456   6.749   0.744 -1.9735 -0.2611 -0.6339
 6572TIP3   OH241350   4.935   3.703   0.392 -0.1410 -0.3379 -0.1453
 6572TIP3    H141351   4.879   3.629   0.415 -0.5436 -0.0847 -0.2771
 6572TIP3    H241352   5.014   3.664   0.356 -0.8418 -0.7119 -1.3503
 6573TIP3   OH241353   1.537   4.895   0.374  0.4026  0.4373 -0.1259
 6573TIP3    H141354   1.556   4.972   0.320  0.0557 -0.3522 -1.4230
 6573TIP3    H241355   1.442   4.896   0.384  0.1438 -0.9303 -1.9463
 6574TIP3   OH241356   3.638   5.929   7.513  0.2720 -0.4731  0.2365
 6574TIP3    H141357   3.716   5.960   7.559 -0.1685 -1.6615  1.8878
 6574TIP3    H241358   3.649   5.834   7.507 -1.4928 -0.8356  1.5423
 6575TIP3   OH241359   3.171   0.982   7.810  0.5849  0.4619  0.3734
 6575TIP3    H141360   3.150   1.012   7.721  2.4689 -1.3413 -0.7575
 6575TIP3    H241361   3.132   0.894   7.815 -0.5689  1.0174  1.8286
 6576TIP3   OH241362   4.546   1.624   6.359  0.0897  0.3311  0.1219
 6576TIP3    H141363   4.548   1.586   6.447 -4.9810 -1.6219 -0.2304
 6576TIP3    H241364   4.579   1.555   6.302  1.4802  0.8377  0.2887
 6577TIP3   OH241365   5.984   1.577   0.783  0.0932 -0.1233  0.2270
 6577TIP3    H141366   5.943   1.611   0.862  0.1780  0.1498  0.1538
 6577TIP3    H241367   5.970   1.482   0.788  0.3854 -0.1408  0.7293
 6578TIP3   OH241368   3.941   4.892   0.611  0.0017 -0.0102  0.0333
 6578TIP3    H141369   3.914   4.891   0.519 -3.1275 -0.4900  0.8557
 6578TIP3    H241370   3.975   4.980   0.625 -1.8370  0.9321 -1.0236
 6579TIP3   OH241371   6.080   0.358   7.360  0.1995  0.2139 -0.5659
 6579TIP3    H141372   6.171   0.385   7.353  0.9599 -1.9203  0.2657
 6579TIP3    H241373   6.081   0.283   7.420 -2.0945  0.0832 -0.5801
 6580TIP3   OH241374   4.680   0.637   6.758 -0.0554 -0.1101 -0.3739
 6580TIP3    H141375   4.678   0.609   6.667 -1.3864  0.2539 -0.4691
 6580TIP3    H241376   4.620   0.711   6.762 -3.0510 -2.4273  1.5427
 6581TIP3   OH241377   4.047   3.247   0.934  0.2403 -0.1961  0.0245
 6581TIP3    H141378   4.071   3.303   0.860  0.2298 -0.1238  0.0749
 6581TIP3    H241379   4.016   3.166   0.894 -1.0282  0.3202 -0.1139
 6582TIP3   OH241380   2.633   0.949   2.126  0.3525 -0.0357 -0.3475
 6582TIP3    H141381   2.687   1.027   2.135 -0.4920  0.6693 -1.1772
 6582TIP3    H241382   2.545   0.977   2.152 -0.0258 -0.6036 -0.9723
 6583TIP3   OH241383   2.055   0.844   0.225 -0.2418 -0.1725  0.6404
 6583TIP3    H141384   1.959   0.836   0.227 -0.2513 -0.4395 -0.2418
 6583TIP3    H241385   2.078   0.882   0.310 -1.2338  0.8898  0.4660
 6584TIP3   OH241386   0.118   0.623   8.425  0.5409 -0.0285  0.2312
 6584TIP3    H141387   0.125   0.702   8.372 -2.4328 -1.4138 -2.6205
 6584TIP3    H241388   0.082   0.557   8.365  2.3850 -3.4736  2.5443
 6585TIP3   OH241389   3.183   5.254   0.146  0.6356 -0.4129  0.4042
 6585TIP3    H141390   3.259   5.196   0.141  0.8193 -0.2773  1.3716
 6585TIP3    H241391   3.212   5.328   0.200 -0.4161 -0.7631  1.5093
 6586TIP3   OH241392   4.291   1.355   7.346  0.2664 -0.6751  0.1582
 6586TIP3    H141393   4.321   1.386   7.431  0.8774  0.7356 -0.5358
 6586TIP3    H241394   4.365   1.372   7.287  0.7172 -3.6310 -0.2874
 6587TIP3   OH241395   5.549   2.753   7.302  0.1452  0.2861 -0.0441
 6587TIP3    H141396   5.498   2.748   7.221 -1.2804 -0.2038  0.8499
 6587TIP3    H241397   5.574   2.845   7.309  2.0640  0.0020 -2.0544
 6588TIP3   OH241398   0.431   0.175   8.802  0.1347  0.0948  0.4751
 6588TIP3    H141399   0.486   0.238   8.847 -0.6579  0.3420  1.1240
 6588TIP3    H241400   0.383   0.131   8.872  0.9120 -1.4687  0.0671
 6589TIP3   OH241401   0.227   1.045   8.573  0.4569 -0.4667 -0.1857
 6589TIP3    H141402   0.292   0.991   8.528  0.9829  1.6414 -2.1746
 6589TIP3    H241403   0.279   1.116   8.611 -0.4783  0.1141  0.0161
 6590TIP3   OH241404   2.486   3.816   8.228 -0.0531 -0.0875 -0.1142
 6590TIP3    H141405   2.474   3.794   8.136 -1.4583  1.1793 -0.2611
 6590TIP3    H241406   2.398   3.825   8.263  0.4467  1.5596  0.8419
 6591TIP3   OH241407   6.324   5.019   7.344 -0.6076 -0.0339  0.3071
 6591TIP3    H141408   6.285   5.091   7.395 -0.0854 -0.1335  0.8599
 6591TIP3    H241409   6.256   4.996   7.280 -0.8358  0.8646  0.2019
 6592TIP3   OH241410   4.191   4.779   2.361  0.2348  0.3017  0.2776
 6592TIP3    H141411   4.196   4.844   2.431 -1.3707  0.4542  0.2934
 6592TIP3    H241412   4.280   4.772   2.329  0.8053  1.0386  1.6083
 6593TIP3   OH241413   4.416   0.409   0.751  0.4654  0.0534 -0.1673
 6593TIP3    H141414   4.463   0.379   0.829 -2.5185 -0.7508  1.5107
 6593TIP3    H241415   4.451   0.355   0.680  2.0584 -0.4482  0.9369
 6594TIP3   OH241416   0.068   6.073   8.546 -0.4077  0.0430 -0.3370
 6594TIP3    H141417   0.112   6.156   8.528 -0.8688  0.6973  1.2955
 6594TIP3    H241418   0.110   6.010   8.488  0.4054  1.2856 -1.1502
 6595TIP3   OH241419   4.262   5.534   1.901  0.4803  0.3353  0.4320
 6595TIP3    H141420   4.248   5.473   1.829 -0.3840  0.8803  0.1248
 6595TIP3    H241421   4.351   5.516   1.932  0.3874 -0.7697  0.0608
 6596TIP3   OH241422   2.333   5.477   8.184  0.6302  0.2412 -0.0279
 6596TIP3    H141423   2.424   5.456   8.162  0.7181  0.5250  0.0561
 6596TIP3    H241424   2.338   5.510   8.274  0.5236  0.7777 -0.2112
 6597TIP3   OH241425   6.257   2.926   1.751  0.4398 -0.4783 -0.3873
 6597TIP3    H141426   6.200   2.854   1.779  1.2668 -0.2290  2.2568
 6597TIP3    H241427   6.210   3.005   1.779  2.0993 -0.2824  2.0906
 6598TIP3   OH241428   1.516   3.787   2.153  0.5448  0.2668 -0.4501
 6598TIP3    H141429   1.452   3.744   2.096 -1.4069 -0.3693  2.0536
 6598TIP3    H241430   1.463   3.827   2.222  2.8486 -0.7952  2.0968
 6599TIP3   OH241431   2.437   1.849   0.792  0.3363  0.5387  0.5063
 6599TIP3    H141432   2.460   1.780   0.854 -0.4564 -0.7120 -0.5418
 6599TIP3    H241433   2.367   1.898   0.836 -1.2926 -1.2692  0.0532
 6600TIP3   OH241434   1.223   4.799   8.581  0.7472 -0.2027 -0.5605
 6600TIP3    H141435   1.296   4.845   8.539 -0.3851  0.2974 -2.0766
 6600TIP3    H241436   1.161   4.784   8.510 -1.9355  1.9213  1.1517
 6601TIP3   OH241437   6.129   6.177   0.414 -0.3955 -0.1959 -0.1794
 6601TIP3    H141438   6.076   6.250   0.445  0.5798  0.8658 -0.9611
 6601TIP3    H241439   6.136   6.190   0.320  0.3912 -0.8877 -0.2324
 6602TIP3   OH241440   4.935   4.389   8.694 -0.1469  0.1934  0.2957
 6602TIP3    H141441   4.882   4.383   8.774  0.0155  3.0846  0.7533
 6602TIP3    H241442   5.004   4.452   8.717 -0.1117  1.1325 -2.0986
 6603TIP3   OH241443   1.702   4.164   0.280 -0.5063  0.2760  0.0345
 6603TIP3    H141444   1.664   4.235   0.228 -0.8706  0.9676  1.2312
 6603TIP3    H241445   1.638   4.093   0.273 -1.2843  0.8868  0.7472
 6604TIP3   OH241446   5.388   1.270   6.830  0.4244  0.0328  0.2624
 6604TIP3    H141447   5.409   1.191   6.780  0.4797  0.6266 -0.6836
 6604TIP3    H241448   5.463   1.281   6.890 -0.1667 -1.3043  1.3059
 6605TIP3   OH241449   3.232   6.535   8.192  0.1621 -0.0394  0.4258
 6605TIP3    H141450   3.242   6.573   8.280 -0.9000 -0.0948  0.5949
 6605TIP3    H241451   3.139   6.549   8.171  1.0734  3.3506 -2.2585
 6606TIP3   OH241452   5.834   4.779   7.852  0.1005 -0.0276  0.0479
 6606TIP3    H141453   5.827   4.819   7.939 -3.0573 -0.8683  0.3187
 6606TIP3    H241454   5.844   4.685   7.870  2.3340  0.0278 -0.5867
 6607TIP3   OH241455   0.528   1.554   0.309  0.5599  0.0522 -0.0938
 6607TIP3    H141456   0.573   1.637   0.324 -0.4693  0.4528  0.9278
 6607TIP3    H241457   0.536   1.539   0.215  2.3523  0.3644 -0.0258
 6608TIP3   OH241458   0.855   4.287   1.318 -0.2835  0.2856  0.5545
 6608TIP3    H141459   0.795   4.213   1.328  0.5363 -0.8571 -2.0236
 6608TIP3    H241460   0.932   4.262   1.370  0.0377 -0.8012 -0.3906
 6609TIP3   OH241461   5.618   2.176   0.867 -0.0935  0.2365  0.0269
 6609TIP3    H141462   5.613   2.161   0.772 -0.1298  0.2502  0.0268
 6609TIP3    H241463   5.711   2.194   0.884 -0.2148  1.0382 -0.1204
 6610TIP3   OH241464   1.755   2.332   1.766 -0.1774  0.7477 -0.0897
 6610TIP3    H141465   1.695   2.330   1.691  0.4500 -0.2383 -0.5716
 6610TIP3    H241466   1.721   2.265   1.826  0.4414  0.1725 -0.3721
 6611TIP3   OH241467   0.159   1.852   8.587 -0.6618  0.0121  0.1187
 6611TIP3    H141468   0.065   1.846   8.572 -0.9352 -0.4187  1.8063
 6611TIP3    H241469   0.170   1.930   8.642  0.0914  0.6098 -0.8421
 6612TIP3   OH241470   3.759   5.880   8.869 -0.3548  0.2837  0.3361
 6612TIP3    H141471   3.686   5.844   8.919  0.3516  0.1394  1.2838
 6612TIP3    H241472   3.755   5.974   8.886 -2.1005  0.7303 -2.0070
 6613TIP3   OH241473   4.300   0.776   7.228 -0.2382  0.1612  0.1188
 6613TIP3    H141474   4.248   0.843   7.273 -2.1802 -0.5251 -1.0075
 6613TIP3    H241475   4.353   0.826   7.166 -1.4933  0.7056 -0.5448
 6614TIP3   OH241476   0.891   5.150   1.483  0.0153  0.2258 -0.4753
 6614TIP3    H141477   0.888   5.245   1.488 -2.9437  0.2830 -1.3066
 6614TIP3    H241478   0.972   5.130   1.437  0.3119  2.3708 -0.9724
 6615TIP3   OH241479   0.297   3.722   1.016  0.7148  0.4372  0.1425
 6615TIP3    H141480   0.252   3.775   0.949  1.1799 -0.9235 -1.3254
 6615TIP3    H241481   0.389   3.728   0.993  0.6346 -2.5988 -1.3766
 6616TIP3   OH241482   2.203   0.286   8.433 -0.3354 -0.3394 -0.0214
 6616TIP3    H141483   2.261   0.214   8.405  0.2073 -0.0919  0.4366
 6616TIP3    H241484   2.160   0.252   8.512  0.1601 -0.0498  0.3772
 6617TIP3   OH241485   6.327   3.534   2.672  0.8198 -0.2659  0.0963
 6617TIP3    H141486   6.367   3.502   2.592  0.0880 -0.0552 -0.3687
 6617TIP3    H241487   6.314   3.628   2.657  0.2816 -0.3032  0.2807
 6618TIP3   OH241488   6.751   3.812   6.851  0.3377  0.4488 -0.0582
 6618TIP3    H141489   6.715   3.742   6.797 -0.3836  0.0763  0.8801
 6618TIP3    H241490   6.785   3.876   6.788 -1.5126  0.5749 -0.9935
 6619TIP3   OH241491   2.889   3.220   1.153  0.3310 -0.2924 -0.1591
 6619TIP3    H141492   2.945   3.239   1.078  1.3981  0.0216  0.6857
 6619TIP3    H241493   2.811   3.274   1.139  0.1264 -0.8816 -1.4517
 6620TIP3   OH241494   6.281   4.329   7.232  0.1344  0.3432  0.0427
 6620TIP3    H141495   6.199   4.280   7.223  1.5410 -1.9983 -0.7528
 6620TIP3    H241496   6.292   4.373   7.147  0.5428 -0.7699 -0.4960
 6621TIP3   OH241497   4.739   0.032   8.773  0.2844  0.8160  0.0778
 6621TIP3    H141498   4.804   0.041   8.842 -1.4097  0.0217  1.8652
 6621TIP3    H241499   4.665   0.084   8.802 -2.7267 -3.7968  1.8903
 6622TIP3   OH241500   0.860   2.968   8.211  0.7703 -0.1566 -0.6380
 6622TIP3    H141501   0.832   2.894   8.158  0.7608 -0.1340 -0.6643
 6622TIP3    H241502   0.899   2.928   8.289 -1.0125 -0.1847  0.2839
 6623TIP3   OH241503   6.412   6.636   2.036  0.1047  0.1585  0.2050
 6623TIP3    H141504   6.323   6.669   2.024 -0.3257 -0.9582  0.1925
 6623TIP3    H241505   6.401   6.541   2.046  1.3099 -0.0153  0.0144
 6624TIP3   OH241506   2.105   5.281   0.681 -0.1430 -0.1062 -0.4586
 6624TIP3    H141507   2.075   5.287   0.591  1.4145  2.6543 -0.9380
 6624TIP3    H241508   2.090   5.369   0.717  2.7655  0.0630  0.6750
 6625TIP3   OH241509   5.394   2.777   1.307  0.1304  0.8985  0.1417
 6625TIP3    H141510   5.475   2.739   1.273 -0.2323  0.6073 -0.3921
 6625TIP3    H241511   5.348   2.810   1.230  0.6764  2.9111  0.6197
 6626TIP3   OH241512   4.472   0.032   0.305 -0.1128  0.0963  0.3667
 6626TIP3    H141513   4.440   0.039   0.395  2.2142  0.9607  1.2064
 6626TIP3    H241514   4.489  -0.061   0.292  0.1179  0.0322  1.0666
 6627TIP3   OH241515   1.967   3.607   8.479  0.9957  0.1602  0.1748
 6627TIP3    H141516   2.042   3.622   8.421  0.4104 -0.9200 -0.9167
 6627TIP3    H241517   1.947   3.514   8.469 -1.1483  0.6191 -0.4155
 6628TIP3   OH241518   6.792   3.125   2.094  0.1634 -0.8212 -0.1438
 6628TIP3    H141519   6.805   3.208   2.140  0.7487 -0.6180 -0.6607
 6628TIP3    H241520   6.861   3.068   2.129  0.9197 -0.5181 -1.0940
 6629TIP3   OH241521   4.698   2.010   8.479 -0.0198  0.3057 -0.5671
 6629TIP3    H141522   4.608   2.041   8.479 -1.0452 -2.3556 -1.8260
 6629TIP3    H241523   4.743   2.063   8.413 -0.4930  1.9043  0.3362
 6630TIP3   OH241524   1.326   2.114   1.746 -0.0141 -0.2934 -0.0198
 6630TIP3    H141525   1.338   2.183   1.681  0.8551  0.6174  1.0617
 6630TIP3    H241526   1.286   2.158   1.821  0.5130 -0.9629  0.6768
 6631TIP3   OH241527   4.873   0.219   8.202 -0.2761  0.4600  0.0044
 6631TIP3    H141528   4.818   0.246   8.128  0.5700  1.1537 -0.3873
 6631TIP3    H241529   4.893   0.127   8.184 -0.7317  0.3978 -0.2088
 6632TIP3   OH241530   4.814   1.649   8.867  0.1599 -0.2003 -0.4358
 6632TIP3    H141531   4.867   1.707   8.813  0.8294 -2.3630 -2.2715
 6632TIP3    H241532   4.806   1.694   8.951 -0.9914  3.3744 -2.2753
 6633TIP3   OH241533   0.681   4.388   1.531 -0.8060  0.3544 -0.3955
 6633TIP3    H141534   0.684   4.311   1.589 -2.0829  0.1715 -0.5399
 6633TIP3    H241535   0.751   4.373   1.468  0.9344  0.7727  1.3324
 6634TIP3   OH241536   2.581   0.722   5.906 -0.6038 -0.1185  0.0870
 6634TIP3    H141537   2.492   0.748   5.884 -0.4749  0.2895  0.0400
 6634TIP3    H241538   2.571   0.653   5.971 -0.9884 -0.9949 -0.8628
 6635TIP3   OH241539   4.554   1.081   8.516 -0.1991  0.5495 -0.2552
 6635TIP3    H141540   4.600   1.018   8.571  2.3821  1.3263 -1.3686
 6635TIP3    H241541   4.519   1.146   8.577  1.7982  0.8923  0.6211
 6636TIP3   OH241542   4.895   5.297   1.684 -0.0229  0.3928 -0.7249
 6636TIP3    H141543   4.822   5.291   1.746 -0.5177  1.0725 -1.2295
 6636TIP3    H241544   4.946   5.217   1.699  0.1105  0.7380  0.8690
 6637TIP3   OH241545   3.399   5.087   2.344 -0.1927  0.3894  0.1973
 6637TIP3    H141546   3.418   5.173   2.308 -0.8229  0.9184  1.1012
 6637TIP3    H241547   3.484   5.053   2.372 -0.1196  1.4192  1.3339
 6638TIP3   OH241548   4.034   2.247   1.490 -0.1247 -0.0194  0.2207
 6638TIP3    H141549   4.024   2.339   1.512 -0.5142  0.4922 -1.8498
 6638TIP3    H241550   3.956   2.205   1.527  0.2477  0.3898  1.5153
 6639TIP3   OH241551   3.869   6.339   8.126 -0.3440 -0.2384 -0.1561
 6639TIP3    H141552   3.903   6.327   8.215  0.3179 -0.5750 -0.4468
 6639TIP3    H241553   3.891   6.258   8.081  1.0360  0.6415 -1.1613
 6640TIP3   OH241554   5.848   0.330   0.854  0.3826 -0.3173 -0.1356
 6640TIP3    H141555   5.803   0.389   0.915 -0.8695  1.3044 -2.4886
 6640TIP3    H241556   5.902   0.388   0.800 -1.8048 -0.9957 -3.3282
 6641TIP3   OH241557   1.605   0.096   8.206  0.3801 -0.2760  0.1422
 6641TIP3    H141558   1.566   0.010   8.190 -0.3163  0.3992 -2.1540
 6641TIP3    H241559   1.697   0.078   8.224  0.4219 -1.4835 -1.1128
 6642TIP3   OH241560   2.246   1.406   0.001  0.0396 -0.2009  0.6944
 6642TIP3    H141561   2.182   1.397   0.071  0.0478 -0.7617  0.6379
 6642TIP3    H241562   2.195   1.428  -0.077 -0.0432 -0.2532  0.7345
 6643TIP3   OH241563   3.476   0.986   7.656 -0.2750 -0.3106  0.2313
 6643TIP3    H141564   3.554   0.956   7.702  0.1315  0.7125  0.2131
 6643TIP3    H241565   3.443   1.058   7.709 -2.5052 -2.1157  1.4850
 6644TIP3   OH241566   4.497   0.808   7.914  0.2042  0.2372  0.4282
 6644TIP3    H141567   4.451   0.852   7.842  0.0144  0.6891  0.8230
 6644TIP3    H241568   4.514   0.877   7.977  1.6997  0.1373  0.1694
 6645TIP3   OH241569   2.304   2.954   6.644  0.2043  0.1428  0.5826
 6645TIP3    H141570   2.239   2.908   6.592  1.2213 -1.2393  0.4965
 6645TIP3    H241571   2.298   3.045   6.614  0.6132 -0.5629 -1.8034
 6646TIP3   OH241572   5.608   2.418   8.002 -0.2620 -0.2259 -0.0691
 6646TIP3    H141573   5.648   2.333   8.018 -0.6106 -0.7078 -1.5296
 6646TIP3    H241574   5.654   2.451   7.925 -0.0783  0.9534  0.5332
 6647TIP3   OH241575   4.691   0.424   6.978 -0.2542  0.1190  0.0659
 6647TIP3    H141576   4.637   0.458   6.906 -1.5217 -0.7191  0.5876
 6647TIP3    H241577   4.713   0.502   7.030 -0.4246  0.5609 -0.5120
 6648TIP3   OH241578   3.205   1.976   0.142 -0.4386 -0.1933  0.2739
 6648TIP3    H141579   3.118   2.003   0.113  0.2417  2.6601  0.5208
 6648TIP3    H241580   3.203   1.984   0.237 -0.5871 -2.6325  0.5405
 6649TIP3   OH241581   0.756   4.629   6.939  0.5907  0.2649 -0.4798
 6649TIP3    H141582   0.814   4.617   7.015  3.7975  0.6267 -2.6548
 6649TIP3    H241583   0.747   4.542   6.902  0.9042  0.4047 -0.8965
 6650TIP3   OH241584   4.474   4.106   0.769 -0.1765 -0.4626  0.3594
 6650TIP3    H141585   4.487   4.016   0.741  0.4780  0.0975 -1.2094
 6650TIP3    H241586   4.507   4.160   0.697  0.7924  1.0493  1.8442
 6651TIP3   OH241587   0.124   0.456   7.899 -0.2093 -0.0392  0.1159
 6651TIP3    H141588   0.207   0.452   7.852  0.4219  0.3447  1.1559
 6651TIP3    H241589   0.063   0.407   7.844  0.8852 -0.9781 -0.3113
 6652TIP3   OH241590   1.707   3.874   1.981 -0.2500  0.0730 -0.8098
 6652TIP3    H141591   1.641   3.845   2.044 -0.6050  1.6970 -0.3819
 6652TIP3    H241592   1.665   3.945   1.933  1.8027  2.6993  0.9747
 6653TIP3   OH241593   3.829   2.285   8.886 -0.1600  0.6064 -0.0068
 6653TIP3    H141594   3.807   2.370   8.847  0.2326  0.8397  0.2831
 6653TIP3    H241595   3.899   2.251   8.831  1.3668  1.5514  1.2655
 6654TIP3   OH241596   1.339   0.403   0.721 -0.6153  0.0332  0.5294
 6654TIP3    H141597   1.360   0.490   0.688  0.1497 -0.5802 -0.6987
 6654TIP3    H241598   1.364   0.405   0.814 -1.9486  1.5237  0.9007
 6655TIP3   OH241599   1.237   6.765   8.138 -0.2286  0.4064 -0.2408
 6655TIP3    H141600   1.316   6.711   8.131 -0.5641 -0.1659  0.3106
 6655TIP3    H241601   1.169   6.704   8.166 -0.2857  1.4122  1.9528
 6656TIP3   OH241602   3.818   3.534   2.443 -0.0291 -0.1998 -0.1463
 6656TIP3    H141603   3.740   3.520   2.497 -1.7691  1.9249 -1.9051
 6656TIP3    H241604   3.891   3.521   2.504 -1.6040 -3.3264  1.3465
 6657TIP3   OH241605   3.350   5.211   6.870 -0.2486  0.2188 -0.5413
 6657TIP3    H141606   3.442   5.189   6.854 -0.6223  0.2040 -3.0621
 6657TIP3    H241607   3.318   5.138   6.923  0.7346 -0.7638 -1.2416
 6658TIP3   OH241608   0.597   4.380   7.214  0.1557  0.9493 -0.0304
 6658TIP3    H141609   0.607   4.425   7.298 -0.7033  2.2991 -0.6015
 6658TIP3    H241610   0.543   4.440   7.162 -2.9305 -1.6977 -0.1558
 6659TIP3   OH241611   0.579   4.466   7.875 -0.0801  0.0863  0.0299
 6659TIP3    H141612   0.527   4.545   7.886  0.4583  0.4014  0.3528
 6659TIP3    H241613   0.582   4.426   7.962 -0.9675 -0.6891 -0.2802
 6660TIP3   OH241614   0.686   5.924   1.244 -0.8471 -0.2659 -0.0593
 6660TIP3    H141615   0.695   5.864   1.318  0.9237 -1.5569 -1.2529
 6660TIP3    H241616   0.592   5.931   1.230 -1.1620 -0.9411  1.5451
 6661TIP3   OH241617   4.550   2.940   1.105  0.3239  0.0508 -0.4199
 6661TIP3    H141618   4.568   2.846   1.100  1.4086  0.1697  0.5837
 6661TIP3    H241619   4.566   2.973   1.017 -6.1347 -1.5493 -2.6932
 6662TIP3   OH241620   2.087   5.828   8.789  0.6556  0.8962  0.0422
 6662TIP3    H141621   2.031   5.766   8.836 -1.2702  3.5080  1.4610
 6662TIP3    H241622   2.153   5.854   8.853  1.4142  0.4356 -0.5285
 6663TIP3   OH241623   4.925   2.462   7.267 -0.1221 -0.3047  0.3410
 6663TIP3    H141624   4.849   2.498   7.313 -0.9360 -2.8408  1.1528
 6663TIP3    H241625   4.915   2.491   7.177 -2.4489 -1.1011  0.2886
 6664TIP3   OH241626   2.404   2.706   8.741  0.0057 -0.2355 -0.3241
 6664TIP3    H141627   2.418   2.801   8.740 -0.3806 -0.1756 -0.3972
 6664TIP3    H241628   2.441   2.675   8.659 -1.7278  0.1402 -1.2934
 6665TIP3   OH241629   3.575   6.029   7.800  0.2404 -0.0531 -0.6340
 6665TIP3    H141630   3.637   5.977   7.749  1.6034 -0.0606  0.9681
 6665TIP3    H241631   3.513   6.062   7.735  1.3607 -0.8236 -2.1562
 6666TIP3   OH241632   6.316   2.160   1.662  0.0750  0.0684  0.0765
 6666TIP3    H141633   6.302   2.109   1.582 -0.6779 -0.6896  0.6648
 6666TIP3    H241634   6.235   2.148   1.712  0.7235  0.0995  1.1807
 6667TIP3   OH241635   4.949   1.605   8.004  0.3655 -0.0837 -0.4998
 6667TIP3    H141636   4.917   1.640   8.087 -0.6417  2.1841 -1.7763
 6667TIP3    H241637   5.043   1.594   8.018  0.2404  0.3557  0.8776
 6668TIP3   OH241638   6.410   4.047   8.568 -0.0388  0.0289 -0.5392
 6668TIP3    H141639   6.476   4.005   8.512  0.2205  0.2973 -0.4364
 6668TIP3    H241640   6.438   4.026   8.657  0.9590  1.6861 -0.4242
 6669TIP3   OH241641   2.990   3.678   2.743  0.2099 -0.4352  0.0459
 6669TIP3    H141642   3.003   3.634   2.827 -0.9630  0.5108  0.7722
 6669TIP3    H241643   3.076   3.675   2.700  0.3581 -2.6629  0.3930
 6670TIP3   OH241644   2.597   3.211   1.551  0.4951 -0.2446 -0.3080
 6670TIP3    H141645   2.547   3.132   1.574 -1.2489 -0.3824 -3.7916
 6670TIP3    H241646   2.589   3.267   1.627 -1.0673 -2.1381  1.0423
 6671TIP3   OH241647   4.735   0.070   8.488 -0.4403  0.0786  0.3585
 6671TIP3    H141648   4.713   0.161   8.469 -2.5962 -0.3662  0.4623
 6671TIP3    H241649   4.734   0.065   8.584  1.9336  0.4007  0.4600
 6672TIP3   OH241650   2.955   2.039   0.013  0.0543 -0.1898 -0.2479
 6672TIP3    H141651   2.893   2.008  -0.053  0.1308  1.0714 -0.9499
 6672TIP3    H241652   2.903   2.095   0.070  0.7178  1.8407 -1.5331
 6673TIP3   OH241653   0.086   5.083   0.943  1.0489 -0.5014 -0.2420
 6673TIP3    H141654   0.086   5.004   0.998  1.2832 -0.0667  0.4003
 6673TIP3    H241655   0.079   5.050   0.854  0.7211 -1.2311  0.0426
 6674TIP3   OH241656   4.301   4.571   7.247 -0.0546  0.0934  0.0784
 6674TIP3    H141657   4.362   4.641   7.270 -0.6785  0.7064 -0.0952
 6674TIP3    H241658   4.310   4.561   7.153  1.7156 -1.6792  0.3685
 6675TIP3   OH241659   2.883   0.682   0.654  0.0438  0.5767  0.3155
 6675TIP3    H141660   2.891   0.598   0.609 -0.6308  0.8838 -0.3975
 6675TIP3    H241661   2.936   0.671   0.733  0.6954 -0.2067 -0.2019
 6676TIP3   OH241662   4.886   1.125   8.704 -0.2296 -0.8931  0.2023
 6676TIP3    H141663   4.924   1.110   8.791 -0.1695 -0.6434  0.2197
 6676TIP3    H241664   4.866   1.219   8.703 -0.4192 -0.9350  0.0212
 6677TIP3   OH241665   6.136   5.729   0.390 -0.5429 -0.1540  0.0204
 6677TIP3    H141666   6.164   5.776   0.469 -1.7614 -0.5309  0.6990
 6677TIP3    H241667   6.177   5.777   0.318  0.3757  0.3535  0.8597
 6678TIP3   OH241668   3.353   1.748   0.061 -0.0076  0.5558  0.0129
 6678TIP3    H141669   3.417   1.813   0.031 -0.6093  0.9949 -0.3238
 6678TIP3    H241670   3.307   1.791   0.132  0.5625 -0.0314  0.7519
 6679TIP3   OH241671   2.253   6.160   0.628 -0.1739  0.0315 -0.7816
 6679TIP3    H141672   2.239   6.068   0.603  0.5405 -0.8588  1.7573
 6679TIP3    H241673   2.175   6.184   0.677  0.0707  0.4592 -0.5929
 6680TIP3   OH241674   3.649   0.962   8.228 -0.3664  1.3569 -0.1529
 6680TIP3    H141675   3.634   0.988   8.319 -1.6562  1.7507 -0.4516
 6680TIP3    H241676   3.564   0.975   8.185 -0.3183 -0.7454 -0.9742
 6681TIP3   OH241677   0.890   2.671   1.153 -0.2570  0.0148 -0.4336
 6681TIP3    H141678   0.795   2.678   1.138 -0.0361  2.6466 -1.1050
 6681TIP3    H241679   0.901   2.699   1.244 -0.1290 -0.5611 -0.2685
 6682TIP3   OH241680   2.694   1.666   1.336 -0.1899 -0.3049 -0.2871
 6682TIP3    H141681   2.717   1.753   1.303  0.1076 -0.8847 -1.6624
 6682TIP3    H241682   2.632   1.683   1.407  1.5988  1.1380  1.0422
 6683TIP3   OH241683   6.778   1.320   1.804 -0.0382 -0.1496 -0.2182
 6683TIP3    H141684   6.755   1.411   1.788  1.0399  0.7037  2.4443
 6683TIP3    H241685   6.765   1.308   1.898  2.0250 -2.0340 -0.0768
 6684TIP3   OH241686   4.425   1.902   1.761 -0.0204  0.0954 -0.5519
 6684TIP3    H141687   4.505   1.882   1.711  0.6208 -0.9212  0.8320
 6684TIP3    H241688   4.443   1.871   1.849 -1.6058  0.7301  0.0319
 6685TIP3   OH241689   6.572   0.333   2.380 -0.1892  0.6259  0.4524
 6685TIP3    H141690   6.541   0.420   2.355 -1.6568 -0.5731 -2.3934
 6685TIP3    H241691   6.665   0.333   2.357  0.1730  1.8012  1.7552
 6686TIP3   OH241692   1.944   2.247   1.541  0.9126 -0.1954 -0.3381
 6686TIP3    H141693   2.035   2.215   1.545  0.9206 -0.1666 -0.2905
 6686TIP3    H241694   1.896   2.189   1.601  0.8246 -0.4569 -0.6570
 6687TIP3   OH241695   2.267   2.499   6.787 -0.0863  0.5533 -0.8313
 6687TIP3    H141696   2.217   2.571   6.824  1.3453  1.2913 -0.2470
 6687TIP3    H241697   2.315   2.538   6.713  1.7862  0.6080  0.3390
 6688TIP3   OH241698   6.411   0.277   1.322  0.2286 -0.3814 -0.6832
 6688TIP3    H141699   6.385   0.202   1.375 -0.8346 -0.9849 -1.9799
 6688TIP3    H241700   6.443   0.239   1.240  3.3714  0.4516  0.0443
 6689TIP3   OH241701   0.112   2.390   8.153 -0.3903  0.5326  0.5464
 6689TIP3    H141702   0.145   2.303   8.130 -0.5602  0.5022  0.4110
 6689TIP3    H241703   0.025   2.374   8.189 -0.6224  0.6844  0.0661
 6690TIP3   OH241704   3.658   2.611   0.258 -0.2730  0.5752  0.3231
 6690TIP3    H141705   3.709   2.657   0.191  1.1012 -2.8292 -1.1787
 6690TIP3    H241706   3.716   2.609   0.334  0.1397  0.2778  0.0012
 6691TIP3   OH241707   2.957   4.937   7.737 -0.2566  0.2663  0.2387
 6691TIP3    H141708   2.882   4.878   7.742  0.5359 -1.0697 -2.1474
 6691TIP3    H241709   2.923   5.017   7.697 -0.3890 -0.3969 -0.9900
 6692TIP3   OH241710   1.480   2.520   1.536 -0.3327  0.1601  0.4888
 6692TIP3    H141711   1.538   2.568   1.476  1.1759 -0.2987  1.5125
 6692TIP3    H241712   1.506   2.429   1.526 -0.1231  0.0649  1.7356
 6693TIP3   OH241713   1.828   1.767   2.539 -0.0976 -0.1484 -0.3554
 6693TIP3    H141714   1.778   1.782   2.458 -0.4471  0.1252 -0.0872
 6693TIP3    H241715   1.844   1.854   2.574  0.6768 -0.2230 -0.4989
 6694TIP3   OH241716   5.120   1.920   2.228  0.0014  0.0242 -0.2003
 6694TIP3    H141717   5.030   1.902   2.254 -0.6408  0.3047 -2.0399
 6694TIP3    H241718   5.155   1.976   2.297 -1.0235 -0.5690  0.8358
 6695TIP3   OH241719   3.372   2.601   7.738  0.0601 -0.5065  0.6584
 6695TIP3    H141720   3.279   2.615   7.754 -0.0448  0.9010 -0.9613
 6695TIP3    H241721   3.375   2.550   7.657  0.6681  1.1576 -0.4331
 6696TIP3   OH241722   2.130   2.717   6.879  0.5880 -0.0399 -0.3397
 6696TIP3    H141723   2.115   2.806   6.911 -1.3053  0.0574 -1.3749
 6696TIP3    H241724   2.058   2.701   6.818  0.8976 -2.2823 -0.1927
 6697TIP3   OH241725   4.777   5.516   6.974 -0.9645 -0.3698  0.3768
 6697TIP3    H141726   4.812   5.600   6.943  0.5175  0.0019  2.8009
 6697TIP3    H241727   4.819   5.450   6.919  1.6751  0.2442  1.4902
 6698TIP3   OH241728   4.097   2.213   1.845 -0.4231 -0.0658 -0.4131
 6698TIP3    H141729   4.120   2.303   1.826 -1.5010  0.2947 -0.0935
 6698TIP3    H241730   4.179   2.173   1.874  0.7499 -0.0242 -3.3402
 6699TIP3   OH241731   5.002   1.272   7.441  0.2873 -0.5729  0.0673
 6699TIP3    H141732   5.045   1.351   7.473 -1.8167  0.5847  0.1858
 6699TIP3    H241733   4.910   1.283   7.464 -0.4174 -2.1205 -1.7223
 6700TIP3   OH241734   0.669   1.701   7.527 -0.3097 -0.0236 -0.1206
 6700TIP3    H141735   0.587   1.680   7.571 -0.6960  0.6501 -0.5149
 6700TIP3    H241736   0.717   1.754   7.590 -0.3391 -0.0848 -0.0463
 6701TIP3   OH241737   0.152   0.751   1.355 -0.3098  0.0828  0.2921
 6701TIP3    H141738   0.244   0.726   1.369 -0.4705 -1.4432 -1.0945
 6701TIP3    H241739   0.157   0.829   1.300  0.1764 -0.7372 -0.8645
 6702TIP3   OH241740   3.514   3.648   2.049 -0.2740 -0.2017 -0.3169
 6702TIP3    H141741   3.465   3.730   2.050 -0.2183 -0.1421 -1.3631
 6702TIP3    H241742   3.597   3.668   2.091 -1.0575 -0.2784  1.4046
 6703TIP3   OH241743   4.530   0.397   8.381  0.0227  0.0924 -0.2695
 6703TIP3    H141744   4.624   0.383   8.389  0.0203  0.4039  0.3289
 6703TIP3    H241745   4.511   0.466   8.444 -1.0185 -1.6317  1.4044
 6704TIP3   OH241746   2.007   2.341   6.473  0.1010  0.1218 -0.2599
 6704TIP3    H141747   1.943   2.369   6.408 -2.4992 -1.2080  1.5536
 6704TIP3    H241748   1.973   2.257   6.505  3.0405 -0.8834  0.5006
 6705TIP3   OH241749   6.490   3.545   7.698  0.2780 -0.0991  0.4540
 6705TIP3    H141750   6.414   3.584   7.655  0.9726  1.8666  0.9020
 6705TIP3    H241751   6.554   3.617   7.704  0.9808 -0.8159  2.9022
 6706TIP3   OH241752   2.686   0.600   1.404  0.2794 -0.5550  1.0647
 6706TIP3    H141753   2.699   0.688   1.441 -0.4830 -0.6668  1.6335
 6706TIP3    H241754   2.725   0.605   1.317  0.2539  0.3498  1.0896
 6707TIP3   OH241755   2.632   2.397   7.657 -0.3999  0.1036 -0.5897
 6707TIP3    H141756   2.669   2.314   7.626  2.0978  0.3669  1.3705
 6707TIP3    H241757   2.547   2.372   7.694 -0.5692 -1.2214 -1.7715
 6708TIP3   OH241758   4.943   6.398   0.527 -0.4644  0.1651 -0.7563
 6708TIP3    H141759   4.976   6.349   0.603  1.0218  2.5238  0.2569
 6708TIP3    H241760   4.851   6.373   0.521  0.1163 -2.4109 -0.1165
 6709TIP3   OH241761   4.390   3.752   8.874 -0.2209 -0.1408  0.5291
 6709TIP3    H141762   4.331   3.800   8.816 -0.0887  0.1124  0.6069
 6709TIP3    H241763   4.408   3.670   8.828 -0.4248 -0.1065  0.3875
 6710TIP3   OH241764   5.609   1.106   8.849 -0.2277 -0.5753  0.0984
 6710TIP3    H141765   5.644   1.172   8.789 -0.4311  0.3109  0.9172
 6710TIP3    H241766   5.537   1.151   8.894 -0.9570 -1.6520  0.0367
 6711TIP3   OH241767   1.256   4.713   7.043  0.3948  0.0100  0.1292
 6711TIP3    H141768   1.179   4.766   7.065  1.1151  1.1115  0.0705
 6711TIP3    H241769   1.251   4.637   7.101 -1.7027 -0.9033 -1.1048
 6712TIP3   OH241770   0.334   2.755   1.223 -0.5188 -0.6987 -0.0271
 6712TIP3    H141771   0.256   2.705   1.198 -0.6628 -0.2228 -0.5489
 6712TIP3    H241772   0.329   2.834   1.170 -0.0650 -0.3284  0.4771
 6713TIP3   OH241773   0.338   0.934   0.915  0.6905 -0.2209  0.0750
 6713TIP3    H141774   0.263   0.875   0.923  1.5390 -1.0834  2.5337
 6713TIP3    H241775   0.349   0.947   0.820 -1.6942 -1.1428 -0.3824
 6714TIP3   OH241776   3.973   6.474   7.536  0.1679  0.6387 -0.4331
 6714TIP3    H141777   4.062   6.508   7.523  0.1793  1.1397  0.8586
 6714TIP3    H241778   3.916   6.551   7.524  0.0319  0.6599  0.3093
 6715TIP3   OH241779   6.351   5.998   1.440 -0.0279 -0.2929  0.5467
 6715TIP3    H141780   6.276   5.959   1.484 -1.1956  1.7998  0.5877
 6715TIP3    H241781   6.367   6.080   1.487  1.0563  0.2156 -0.6273
 6716TIP3   OH241782   2.984   2.441   6.852  0.4548 -0.1851  0.6169
 6716TIP3    H141783   2.997   2.347   6.860  2.2325 -0.0003  0.3402
 6716TIP3    H241784   2.960   2.455   6.761  0.3270 -0.3591  0.6246
 6717TIP3   OH241785   2.127   5.465   2.338 -0.8276 -0.1521 -0.2314
 6717TIP3    H141786   2.041   5.465   2.381 -1.2298  2.6052 -0.8855
 6717TIP3    H241787   2.108   5.478   2.246  0.2928  2.1908 -0.1923
 6718TIP3   OH241788   2.332   5.341   8.544 -0.3183 -0.5552  0.2126
 6718TIP3    H141789   2.263   5.407   8.548 -1.3321 -1.6015  0.3812
 6718TIP3    H241790   2.413   5.391   8.559 -0.6626  1.2103 -3.0265
 6719TIP3   OH241791   0.405   6.806   1.810 -0.3348  0.9510 -0.5403
 6719TIP3    H141792   0.347   6.837   1.880  0.4530 -1.0364  1.1047
 6719TIP3    H241793   0.492   6.805   1.850  0.3726  1.0215 -2.0108
 6720TIP3   OH241794   6.535   3.513   0.582  0.4185 -0.1887  0.1144
 6720TIP3    H141795   6.602   3.492   0.517  0.0910  0.7834 -0.5651
 6720TIP3    H241796   6.454   3.518   0.532 -0.3707 -2.2785  1.0705
 6721TIP3   OH241797   6.515   5.549   8.675 -0.0001  0.5733  0.4575
 6721TIP3    H141798   6.560   5.509   8.600 -0.7423 -0.7210  0.6712
 6721TIP3    H241799   6.579   5.545   8.746  0.4498  1.1396  0.0955
 6722TIP3   OH241800   1.824   3.326   8.314 -0.2844 -0.4642 -0.6902
 6722TIP3    H141801   1.855   3.319   8.404 -2.1682  1.5737  0.2020
 6722TIP3    H241802   1.888   3.384   8.271 -1.0213  1.0881  0.2350
 6723TIP3   OH241803   2.953   3.828   8.143 -0.3239  0.2071  0.2606
 6723TIP3    H141804   2.922   3.779   8.219  0.3223  0.3770  0.6416
 6723TIP3    H241805   2.958   3.763   8.073 -2.3380  0.3416 -0.0560
 6724TIP3   OH241806   0.751   4.794   8.457  0.0726 -0.0887 -0.2973
 6724TIP3    H141807   0.816   4.816   8.524 -0.1038 -0.5615  0.0368
 6724TIP3    H241808   0.802   4.782   8.377  0.1060  2.2646 -0.6982
 6725TIP3   OH241809   1.628   6.252   8.840 -0.6066  0.6612  0.2843
 6725TIP3    H141810   1.573   6.174   8.835  1.0723 -0.7667  2.4257
 6725TIP3    H241811   1.576   6.320   8.796 -1.6677 -1.8203 -2.6504
 6726TIP3   OH241812   2.684   1.699   1.696 -0.3468 -0.1905 -0.1768
 6726TIP3    H141813   2.700   1.605   1.699  2.9761  0.2018 -1.0259
 6726TIP3    H241814   2.653   1.715   1.607 -1.7370 -0.5517  0.2309
 6727TIP3   OH241815   2.074   0.015   7.654 -0.6929  0.2558 -0.3023
 6727TIP3    H141816   2.087  -0.048   7.583  0.5663  0.6353 -0.4183
 6727TIP3    H241817   2.162   0.044   7.677 -1.2517  2.2135 -0.4689
 6728TIP3   OH241818   4.019   6.675   8.467 -0.4579 -0.0988  0.1724
 6728TIP3    H141819   4.086   6.621   8.425 -1.9032 -1.2675 -0.7371
 6728TIP3    H241820   3.947   6.676   8.405 -0.4949  3.0231  0.1146
 6729TIP3   OH241821   0.748   5.176   8.355 -0.1313  0.7918  0.3575
 6729TIP3    H141822   0.837   5.209   8.362  0.1423  0.0205  0.6804
 6729TIP3    H241823   0.715   5.177   8.445  0.1169 -0.3984  0.4828
 6730TIP3   OH241824   0.151   1.668   8.039 -0.8359 -0.0123 -0.9607
 6730TIP3    H141825   0.225   1.678   8.099 -1.5479 -0.0949 -0.0472
 6730TIP3    H241826   0.151   1.748   7.987 -0.7123  0.4477 -0.2650
 6731TIP3   OH241827   3.398   5.961   1.175 -0.2060  0.2427 -0.5961
 6731TIP3    H141828   3.318   6.009   1.194  0.1342  1.0134 -1.0678
 6731TIP3    H241829   3.467   6.009   1.220  0.1516  0.2573 -1.1435
 6732TIP3   OH241830   2.306   0.683   6.469 -0.0200 -0.2270  0.1047
 6732TIP3    H141831   2.329   0.591   6.455 -1.1535 -1.3232  4.1326
 6732TIP3    H241832   2.211   0.687   6.452 -0.5591 -0.6020  2.6754
 6733TIP3   OH241833   3.391   1.373   1.635 -0.0387  0.0195 -0.8195
 6733TIP3    H141834   3.333   1.430   1.687  0.7524  3.4971 -3.3511
 6733TIP3    H241835   3.337   1.345   1.561  0.2522 -0.5376 -0.8224
 6734TIP3   OH241836   2.592   6.802   7.647 -0.1075  0.3351 -0.4760
 6734TIP3    H141837   2.645   6.806   7.567  0.4746 -0.2198 -0.1320
 6734TIP3    H241838   2.621   6.877   7.699 -1.4286  1.4787 -1.3325
 6735TIP3   OH241839   3.733   5.185   8.396 -0.5319 -0.0568 -0.8710
 6735TIP3    H141840   3.709   5.141   8.315  0.8219  1.7348 -2.3187
 6735TIP3    H241841   3.663   5.248   8.411  0.1376  0.9053 -1.7033
 6736TIP3   OH241842   2.834   4.633   0.716 -1.2417 -0.2847 -0.0924
 6736TIP3    H141843   2.792   4.633   0.629 -1.1591 -1.7660 -0.1565
 6736TIP3    H241844   2.776   4.579   0.770 -0.8636 -0.0391  0.5624
 6737TIP3   OH241845   6.111   4.233   0.342  0.6503 -0.0673  0.3224
 6737TIP3    H141846   6.053   4.301   0.378 -0.0083  0.0076 -0.8354
 6737TIP3    H241847   6.111   4.250   0.248  0.1882 -1.8829 -0.0361
 6738TIP3   OH241848   0.871   3.824   6.789 -0.3291 -0.2616 -0.0295
 6738TIP3    H141849   0.907   3.827   6.701  1.1579 -1.1557  0.5017
 6738TIP3    H241850   0.946   3.839   6.847 -1.2198  0.0546  1.0867
 6739TIP3   OH241851   0.644   2.394   7.152 -0.0848 -0.1201  0.1380
 6739TIP3    H141852   0.658   2.454   7.225 -1.0030 -0.4380  0.6006
 6739TIP3    H241853   0.584   2.327   7.187 -1.7429  0.5248 -1.3092
 6740TIP3   OH241854   0.578   0.691   8.705 -0.1183 -0.0568  0.0574
 6740TIP3    H141855   0.621   0.615   8.666  0.2953  0.3093 -0.2066
 6740TIP3    H241856   0.492   0.658   8.732 -0.3763 -0.3574 -1.0584
 6741TIP3   OH241857   5.544   2.602   8.512 -0.4033  0.4831  0.0644
 6741TIP3    H141858   5.623   2.649   8.487 -0.3340 -0.0226 -0.6810
 6741TIP3    H241859   5.566   2.562   8.596  1.0892 -1.8407 -1.3218
 6742TIP3   OH241860   1.479   1.473   0.107  0.8203 -0.1752 -0.2536
 6742TIP3    H141861   1.428   1.401   0.071  0.4644  0.4491 -1.0286
 6742TIP3    H241862   1.447   1.482   0.197  0.9845 -1.0756 -0.0922
 6743TIP3   OH241863   2.082   1.382   7.809  0.0359 -0.1215  0.3428
 6743TIP3    H141864   2.136   1.350   7.736 -1.5609 -3.0660  0.2821
 6743TIP3    H241865   1.992   1.360   7.784 -0.7303  0.3766  2.4431
 6744TIP3   OH241866   2.269   4.073   1.546 -0.4012 -0.3455 -0.6829
 6744TIP3    H141867   2.361   4.060   1.569 -0.1818  1.6781 -0.1966
 6744TIP3    H241868   2.267   4.157   1.500 -2.0641 -0.0939 -0.2386
 6745TIP3   OH241869   3.738   4.571   8.484 -0.2938 -0.0549  0.4861
 6745TIP3    H141870   3.827   4.547   8.458  0.0031 -0.1617  1.5478
 6745TIP3    H241871   3.696   4.488   8.506 -0.5894  0.0146  0.1846
 6746TIP3   OH241872   3.571   0.013   2.348  0.1386 -0.4857 -0.2250
 6746TIP3    H141873   3.605   0.099   2.326 -1.5120 -0.4456 -3.0021
 6746TIP3    H241874   3.479   0.028   2.371 -0.6703 -1.5863 -2.4162
 6747TIP3   OH241875   1.540   1.081   7.697  0.4227  0.1639 -0.0246
 6747TIP3    H141876   1.498   1.162   7.669 -0.3379  0.8834  2.8705
 6747TIP3    H241877   1.467   1.021   7.712  0.9179 -0.7555 -1.1615
 6748TIP3   OH241878   1.506   4.036   1.891 -0.6061 -0.2526  0.0608
 6748TIP3    H141879   1.420   4.012   1.924 -0.3516 -0.1593  0.7998
 6748TIP3    H241880   1.488   4.078   1.807 -1.3590  0.7465  0.7087
 6749TIP3   OH241881   1.659   6.546   0.657 -0.2770  0.0695 -0.0045
 6749TIP3    H141882   1.628   6.459   0.683  0.4561 -0.5247 -1.0508
 6749TIP3    H241883   1.681   6.537   0.565  0.4164  1.2024  0.0335
 6750TIP3   OH241884   6.536   4.211   0.672  0.1456 -0.4279  0.1062
 6750TIP3    H141885   6.629   4.226   0.653  0.3853  2.4521  2.7663
 6750TIP3    H241886   6.490   4.257   0.602  0.6371 -1.8365 -1.2046
 6751TIP3   OH241887   1.083   2.073   0.754  0.0478 -0.0596 -0.3082
 6751TIP3    H141888   1.034   2.136   0.701 -0.0954  0.7900  0.7877
 6751TIP3    H241889   1.142   2.127   0.807 -0.0097 -0.8453  0.5895
 6752TIP3   OH241890   6.735   3.710   8.249  0.2791 -0.0247 -0.3950
 6752TIP3    H141891   6.826   3.681   8.241  0.3451 -0.2231  0.8245
 6752TIP3    H241892   6.684   3.640   8.208  0.4926 -1.5327  1.7198
 6753TIP3   OH241893   6.763   6.013   0.440 -0.0312  0.2087  0.1452
 6753TIP3    H141894   6.740   6.051   0.525 -0.2068 -1.8422  1.0776
 6753TIP3    H241895   6.846   6.053   0.417  0.0837  0.7033  1.3606
 6754TIP3   OH241896   3.505   4.476   6.917  0.2494  0.5969 -0.2206
 6754TIP3    H141897   3.585   4.520   6.947  0.1362  0.4958  0.2478
 6754TIP3    H241898   3.532   4.386   6.900 -0.1794 -0.0208  2.0168
 6755TIP3   OH241899   2.653   2.455   7.943 -0.0255  0.9694 -0.0815
 6755TIP3    H141900   2.743   2.430   7.963 -0.5724  0.8003  2.4738
 6755TIP3    H241901   2.631   2.404   7.864  1.5874 -0.2200  0.1806
 6756TIP3   OH241902   3.947   4.182   7.843  0.3488 -0.3526  0.3242
 6756TIP3    H141903   3.870   4.177   7.899  0.5892 -2.2213  0.5560
 6756TIP3    H241904   4.006   4.115   7.878  1.3880 -0.1039 -0.8721
 6757TIP3   OH241905   0.704   6.455   8.202 -0.3363 -0.4948  0.4995
 6757TIP3    H141906   0.736   6.482   8.116 -0.5462 -0.5913  0.3906
 6757TIP3    H241907   0.662   6.370   8.186 -0.3839 -0.5075  0.6937
 6758TIP3   OH241908   4.368   5.721   0.769  0.6267 -0.3145  0.1067
 6758TIP3    H141909   4.303   5.786   0.798  0.3585 -1.5367  2.4762
 6758TIP3    H241910   4.447   5.742   0.819  0.9892 -0.9309 -0.1948
 6759TIP3   OH241911   2.471   3.775   8.869 -0.0974 -0.7105 -0.2669
 6759TIP3    H141912   2.482   3.870   8.871  2.3858 -0.9337  0.5036
 6759TIP3    H241913   2.420   3.755   8.948  0.7055 -0.1183  0.4162
 6760TIP3   OH241914   2.300   6.581   7.188 -0.1019  0.5763  0.1304
 6760TIP3    H141915   2.354   6.505   7.210 -1.0583 -0.4056 -0.8170
 6760TIP3    H241916   2.357   6.635   7.133 -0.6388 -1.4336 -2.5865
 6761TIP3   OH241917   0.703   3.375   8.041  0.0272  0.4556  0.1264
 6761TIP3    H141918   0.627   3.432   8.043 -0.2976  0.0054  0.9583
 6761TIP3    H241919   0.778   3.435   8.040 -0.3134  0.8944  0.6489
 6762TIP3   OH241920   6.801   0.887   1.974  0.1962 -0.1748  0.1823
 6762TIP3    H141921   6.825   0.963   1.922 -2.7895  0.6349 -0.2045
 6762TIP3    H241922   6.846   0.814   1.933  2.7112  1.2268  0.2276
 6763TIP3   OH241923   4.891   3.380   8.295 -0.7449 -0.1761  0.2334
 6763TIP3    H141924   4.848   3.305   8.337  1.9646 -2.5589 -0.8796
 6763TIP3    H241925   4.954   3.411   8.360  1.7749 -2.3493 -0.9704
 6764TIP3   OH241926   6.444   5.234   1.150 -0.2530 -0.1513  0.0604
 6764TIP3    H141927   6.393   5.304   1.108  1.7367  1.3593  0.0582
 6764TIP3    H241928   6.488   5.190   1.078 -0.5162 -0.6280  0.1824
 6765TIP3   OH241929   2.153   0.679   7.531 -0.0291 -0.2397  0.2869
 6765TIP3    H141930   2.196   0.629   7.461  0.9980  0.2794  0.5260
 6765TIP3    H241931   2.208   0.665   7.608  0.1897  1.1121  0.4013
 6766TIP3   OH241932   3.427   5.175   7.384  0.3296 -0.3728 -0.1994
 6766TIP3    H141933   3.378   5.220   7.315  0.8738 -0.5934 -0.7409
 6766TIP3    H241934   3.452   5.244   7.445  0.8711  0.0155 -0.8492
 6767TIP3   OH241935   1.358   3.352   7.625 -0.1524 -0.0879 -0.0225
 6767TIP3    H141936   1.386   3.292   7.556 -1.0252 -0.2223 -0.2783
 6767TIP3    H241937   1.265   3.330   7.639  0.0570 -0.1978  1.3284
 6768TIP3   OH241938   0.546   6.249   7.400 -0.2405  0.2061 -0.1847
 6768TIP3    H141939   0.452   6.239   7.393 -0.2843  0.1917  0.3816
 6768TIP3    H241940   0.560   6.343   7.408 -0.1831  0.2320 -0.5774
 6769TIP3   OH241941   3.408   0.365   7.754 -0.0984  0.3001 -0.6256
 6769TIP3    H141942   3.460   0.441   7.779 -0.6884  0.7281 -0.6840
 6769TIP3    H241943   3.334   0.400   7.705 -1.1936 -0.1435  0.6212
 6770TIP3   OH241944   2.160   0.225   0.631 -0.2784 -0.2747 -0.3117
 6770TIP3    H141945   2.210   0.188   0.704  0.3251  0.6139 -0.2619
 6770TIP3    H241946   2.165   0.158   0.563 -0.1417 -0.7579  0.1668
 6771TIP3   OH241947   4.343   3.696   8.383 -0.3579 -0.3394 -0.0571
 6771TIP3    H141948   4.417   3.648   8.347  0.7499  1.5121 -0.3676
 6771TIP3    H241949   4.266   3.643   8.360  0.9143 -3.2135  1.7644
 6772TIP3   OH241950   6.366   3.720   6.926  0.4358 -0.3178  0.0935
 6772TIP3    H141951   6.368   3.815   6.938  1.4096 -0.6461  3.6584
 6772TIP3    H241952   6.277   3.701   6.896  0.1540  1.6562 -0.4796
 6773TIP3   OH241953   2.726   5.646   1.817  0.1611 -0.3938 -0.0335
 6773TIP3    H141954   2.813   5.605   1.820  0.0181 -0.7265  2.9938
 6773TIP3    H241955   2.744   5.740   1.819  0.4776 -0.4598  0.5092
 6774TIP3   OH241956   5.501   2.895   6.899 -0.7856 -0.3300  0.5749
 6774TIP3    H141957   5.449   2.847   6.964  0.3919 -0.5596  1.3859
 6774TIP3    H241958   5.575   2.838   6.880 -0.6345  0.1327 -0.2952
 6775TIP3   OH241959   0.281   2.802   7.783 -0.0039 -0.4696 -0.1508
 6775TIP3    H141960   0.356   2.812   7.725 -0.6788  0.0946 -0.9673
 6775TIP3    H241961   0.318   2.779   7.868  0.9570 -2.5622 -1.0717
 6776TIP3   OH241962   2.664   5.407   7.398 -0.2018 -0.5692  0.1990
 6776TIP3    H141963   2.594   5.464   7.365 -0.3417 -0.4776  0.6441
 6776TIP3    H241964   2.626   5.366   7.475  1.0872  1.4706  2.0148
 6777TIP3   OH241965   0.288   1.471   8.283  0.4971 -0.2245  0.3202
 6777TIP3    H141966   0.227   1.538   8.316  1.8611  1.0426  0.3480
 6777TIP3    H241967   0.232   1.396   8.264 -1.1065  0.9481  0.2061
 6778TIP3   OH241968   6.441   2.834   8.062 -0.2983  0.2485  0.3274
 6778TIP3    H141969   6.473   2.883   7.987 -0.1831 -1.2275 -0.6460
 6778TIP3    H241970   6.494   2.754   8.063 -3.6821 -2.3275 -1.3725
 6779TIP3   OH241971   4.292   4.594   0.629  0.1970  0.3992 -0.2016
 6779TIP3    H141972   4.355   4.547   0.682  0.9338  1.5193 -0.0416
 6779TIP3    H241973   4.308   4.563   0.540  2.8262  2.4782 -0.5972
 6780TIP3   OH241974   0.352   1.031   0.635  0.2790 -0.2554 -0.1192
 6780TIP3    H141975   0.431   1.078   0.610 -0.4826 -0.0420 -2.2559
 6780TIP3    H241976   0.347   0.958   0.574 -0.8385 -0.6504  0.4124
 6781TIP3   OH241977   2.311   0.637   8.015 -0.7055 -0.5783  0.2611
 6781TIP3    H141978   2.219   0.611   8.026 -1.2316  0.8973 -0.2837
 6781TIP3    H241979   2.350   0.624   8.101 -1.8987  0.3967  0.9958
 6782TIP3   OH241980   0.989   2.269   1.628  0.3349  0.1087 -0.0176
 6782TIP3    H141981   1.000   2.240   1.718 -0.4149 -0.7073 -0.1653
 6782TIP3    H241982   1.070   2.315   1.607  1.2312 -1.1408  0.5406
 6783TIP3   OH241983   6.055   3.652   7.133  0.5033 -0.0957  0.5946
 6783TIP3    H141984   6.118   3.580   7.132  1.0103  0.3473 -0.3050
 6783TIP3    H241985   6.097   3.722   7.084 -0.1777  0.6576  1.0536
 6784TIP3   OH241986   4.134   1.498   1.277  0.1291  0.1360  0.2936
 6784TIP3    H141987   4.074   1.554   1.326  1.8893  0.6910  1.9385
 6784TIP3    H241988   4.081   1.422   1.252 -1.5368  1.1448  0.6149
 6785TIP3   OH241989   0.778   6.348   8.447 -0.0144  0.4463 -0.4598
 6785TIP3    H141990   0.761   6.367   8.355 -0.8653 -1.0995 -0.6623
 6785TIP3    H241991   0.746   6.425   8.494 -1.0035  0.6053 -1.3685
 6786TIP3   OH241992   1.120   4.854   6.799 -0.0244 -0.2715  0.6807
 6786TIP3    H141993   1.129   4.922   6.866 -0.5518 -1.3921  1.9349
 6786TIP3    H241994   1.029   4.826   6.806  0.4937 -1.9812  1.0941
 6787TIP3   OH241995   0.931   6.382   0.034 -0.1672 -0.1730 -0.0871
 6787TIP3    H141996   0.999   6.324   0.068  0.6496  1.0314  0.3868
 6787TIP3    H241997   0.958   6.401  -0.056 -0.4216 -0.5135 -0.2343
 6788TIP3   OH241998   1.678   1.205   6.210 -0.1775 -0.7063  0.3000
 6788TIP3    H141999   1.649   1.296   6.209  0.5492 -0.4643  0.9022
 6788TIP3    H242000   1.647   1.171   6.294 -0.4175 -1.0074  0.0919
 6789TIP3   OH242001   4.133   4.973   7.269  0.4777 -0.5718  0.1156
 6789TIP3    H142002   4.218   4.957   7.308  1.0993  0.3847 -0.7937
 6789TIP3    H242003   4.088   5.030   7.332  0.9050 -0.2449  0.1241
 6790TIP3   OH242004   2.324   0.088   7.642  0.3135 -0.3979 -0.0727
 6790TIP3    H142005   2.307   0.182   7.635  0.0452 -0.5474 -2.3064
 6790TIP3    H242006   2.407   0.075   7.596  1.4163 -1.0200  2.0035
 6791TIP3   OH242007   6.066   2.798   2.113 -0.7213 -0.6725 -0.2820
 6791TIP3    H142008   6.052   2.708   2.145 -2.1718  0.0397  1.2294
 6791TIP3    H242009   6.149   2.824   2.151 -1.1619 -0.7779  0.8026
 6792TIP3   OH242010   1.099   1.262   7.364 -0.0867  0.1812  0.2071
 6792TIP3    H142011   1.146   1.339   7.333  1.9208 -0.3486  1.6793
 6792TIP3    H242012   1.045   1.235   7.290  3.1390 -0.0551 -2.3088
 6793TIP3   OH242013   6.665   5.352   8.520  0.5597  0.3418  0.0904
 6793TIP3    H142014   6.654   5.259   8.540  1.5929  0.3700  0.8903
 6793TIP3    H242015   6.687   5.354   8.427  0.6234 -0.2232  0.0906
 6794TIP3   OH242016   5.318   2.830   2.466  0.1050 -0.2406  0.2170
 6794TIP3    H142017   5.279   2.903   2.418 -1.3575 -0.1715  1.4203
 6794TIP3    H242018   5.356   2.870   2.545  0.4994 -0.6113  0.2179
 6795TIP3   OH242019   1.314   4.290   2.327 -0.1991  0.7039 -0.2384
 6795TIP3    H142020   1.282   4.344   2.399 -0.4737 -0.3012  0.4192
 6795TIP3    H242021   1.392   4.335   2.296 -0.3970  1.4519  0.3103
 6796TIP3   OH242022   4.368   0.300   7.674  0.0607  0.4815 -0.1410
 6796TIP3    H142023   4.370   0.381   7.622 -1.7587  0.6740  0.0332
 6796TIP3    H242024   4.322   0.237   7.619 -0.1423  0.1003  0.4612
 6797TIP3   OH242025   1.715   5.355   7.841  0.0503 -0.1276 -0.2403
 6797TIP3    H142026   1.699   5.412   7.916 -0.9510 -0.6476 -0.0282
 6797TIP3    H242027   1.632   5.356   7.792 -0.9045 -3.2001  1.0416
 6798TIP3   OH242028   4.699   2.881   0.259  0.4042  0.3146  0.4447
 6798TIP3    H142029   4.792   2.890   0.278  0.3036  0.7241  0.7562
 6798TIP3    H242030   4.678   2.958   0.206  0.7235 -0.8922 -1.5716
 6799TIP3   OH242031   6.162   3.305   7.423  0.1439 -0.0821  0.7083
 6799TIP3    H142032   6.179   3.258   7.342 -0.5775 -3.0835  2.1436
 6799TIP3    H242033   6.239   3.289   7.477 -1.2037 -2.1406  2.2177
 6800TIP3   OH242034   0.701   5.701   1.783 -0.6767  0.2764 -0.0212
 6800TIP3    H142035   0.704   5.662   1.871  0.5559  1.5145  0.5408
 6800TIP3    H242036   0.791   5.732   1.768 -0.8681  0.0846 -1.7388
 6801TIP3   OH242037   4.336   3.982   0.141  0.6920 -0.3563 -0.4952
 6801TIP3    H142038   4.351   3.890   0.117  1.0674 -0.7183  1.0306
 6801TIP3    H242039   4.421   4.013   0.171  0.4911  0.4130 -0.6939
 6802TIP3   OH242040   4.869   4.306   1.750  0.1828 -0.0903  0.4963
 6802TIP3    H142041   4.837   4.252   1.823 -0.1454  0.9294  1.1358
 6802TIP3    H242042   4.951   4.343   1.783  1.2008 -1.3678 -0.5091
 6803TIP3   OH242043   5.413   0.778   8.662  0.8715 -0.0867  0.3723
 6803TIP3    H142044   5.456   0.755   8.745  1.6057  0.0988  0.0581
 6803TIP3    H242045   5.376   0.696   8.630  1.1910 -0.3014  0.5492
 6804TIP3   OH242046   4.824   0.805   7.875  0.4102  0.1710 -0.3501
 6804TIP3    H142047   4.917   0.807   7.896  0.5416  0.7584 -0.9780
 6804TIP3    H242048   4.796   0.897   7.878  0.1472  0.1369 -1.4417
 6805TIP3   OH242049   5.654   0.901   8.180 -0.4550  0.1873 -0.0202
 6805TIP3    H142050   5.605   0.860   8.252 -0.3447  1.4894  0.8355
 6805TIP3    H242051   5.734   0.934   8.221 -0.7106  1.5726 -0.5728
 6806TIP3   OH242052   1.469   0.467   7.144 -0.1060  0.5551 -0.0678
 6806TIP3    H142053   1.522   0.472   7.065  0.4813  1.7131  0.3874
 6806TIP3    H242054   1.480   0.552   7.187 -1.3870  0.3918  0.6392
 6807TIP3   OH242055   6.338   2.268   8.175  0.1571 -0.1961  0.8992
 6807TIP3    H142056   6.359   2.175   8.177 -2.8811 -1.0025 -0.4538
 6807TIP3    H242057   6.267   2.278   8.238  2.3482  1.8869  3.2975
 6808TIP3   OH242058   1.402   2.836   1.390  0.6804 -0.4582 -0.1185
 6808TIP3    H142059   1.354   2.859   1.469  0.4987 -1.1361 -0.0277
 6808TIP3    H242060   1.492   2.867   1.407  0.4505  0.1538  0.0049
 6809TIP3   OH242061   0.752   4.271   7.022 -0.8472 -0.5511  0.5962
 6809TIP3    H142062   0.691   4.300   7.090 -0.4781 -0.0530  0.7257
 6809TIP3    H242063   0.792   4.192   7.057 -1.6271 -1.0468  0.3868
 6810TIP3   OH242064   4.229   3.021   1.841 -0.0005  0.1371 -0.0023
 6810TIP3    H142065   4.177   3.089   1.798 -0.7850  1.5592  2.9351
 6810TIP3    H242066   4.320   3.042   1.816 -0.3714  1.1626 -0.5495
 6811TIP3   OH242067   4.224   4.180   7.186  0.6019 -0.3145 -1.1353
 6811TIP3    H142068   4.246   4.271   7.208  0.6774 -0.3831 -0.9198
 6811TIP3    H242069   4.162   4.154   7.254  1.0173 -0.6068 -0.8647
 6812TIP3   OH242070   2.784   2.505   6.602 -0.0861 -0.1445  0.1318
 6812TIP3    H142071   2.738   2.531   6.682  2.8462 -0.0599  1.9082
 6812TIP3    H242072   2.834   2.583   6.577  2.4911 -1.4678  0.8515
 6813TIP3   OH242073   5.317   1.602   7.406 -0.3817  0.1947 -0.4100
 6813TIP3    H142074   5.267   1.524   7.432 -0.4670 -0.6285 -2.7472
 6813TIP3    H242075   5.251   1.671   7.397 -0.1387  1.0345  3.0266
 6814TIP3   OH242076   2.339   0.181   8.825 -0.1423  0.8056  0.1622
 6814TIP3    H142077   2.312   0.223   8.907 -1.8498 -1.1192  0.6906
 6814TIP3    H242078   2.257   0.148   8.787  0.8738 -0.3880 -1.1106
 6815TIP3   OH242079   0.119   5.355   1.431 -0.3314  0.4758  0.5514
 6815TIP3    H142080   0.123   5.450   1.421 -0.2330  0.3248 -1.1371
 6815TIP3    H242081   0.029   5.332   1.406  0.6625 -0.1957 -2.9654
 6816TIP3   OH242082   1.249   5.762   0.998 -0.3344  0.6745 -0.0248
 6816TIP3    H142083   1.250   5.763   1.094 -0.2886  0.8669 -0.0253
 6816TIP3    H242084   1.278   5.850   0.974 -0.5319  0.6892 -0.2132
 6817TIP3   OH242085   1.273   1.187   8.131  0.0772 -0.9596  0.1263
 6817TIP3    H142086   1.229   1.193   8.047 -0.3913  0.5417  0.4428
 6817TIP3    H242087   1.260   1.097   8.160 -0.6406 -1.2002 -0.9297
 6818TIP3   OH242088   4.658   6.407   0.643  0.4477 -0.0839  0.7556
 6818TIP3    H142089   4.576   6.366   0.669 -0.2603  1.3139  0.8391
 6818TIP3    H242090   4.706   6.419   0.725  0.3396 -0.0782  0.8181
 6819TIP3   OH242091   3.187   2.979   0.054  0.2476 -0.5441  0.0340
 6819TIP3    H142092   3.222   2.916  -0.009 -0.4455  0.2680 -1.2380
 6819TIP3    H242093   3.231   2.959   0.136  3.4266  0.1818 -1.3449
 6820TIP3   OH242094   4.457   0.543   1.782 -0.1020  0.5607 -0.0077
 6820TIP3    H142095   4.470   0.551   1.876 -1.4515 -0.6828  0.3292
 6820TIP3    H242096   4.380   0.597   1.764 -1.2755 -1.0189  0.0479
 6821TIP3   OH242097   1.711   3.609   1.623  0.0705 -0.3568 -0.5893
 6821TIP3    H142098   1.624   3.606   1.664 -0.0941 -1.3717 -1.0026
 6821TIP3    H242099   1.715   3.696   1.583 -0.5119 -0.0697 -0.0387
 6822TIP3   OH242100   2.230   0.734   0.975  0.2018 -0.7564 -0.1251
 6822TIP3    H142101   2.276   0.666   1.025 -0.1364 -1.0840 -0.2499
 6822TIP3    H242102   2.234   0.811   1.031 -1.9154 -1.6288  1.3644
 6823TIP3   OH242103   5.198   5.398   8.524 -0.1621 -0.1035  0.0395
 6823TIP3    H142104   5.200   5.475   8.467 -0.2770  0.5353  0.8791
 6823TIP3    H242105   5.107   5.392   8.552 -0.2674 -0.8714 -0.4404
 6824TIP3   OH242106   6.058   4.747   0.948 -0.5482  0.3464 -0.2036
 6824TIP3    H142107   6.070   4.706   0.862 -0.4428  0.9569 -0.4810
 6824TIP3    H242108   6.114   4.696   1.007 -0.0691  0.3782 -0.6336
 6825TIP3   OH242109   5.416   4.654   7.744 -0.1508 -0.2235 -0.6618
 6825TIP3    H142110   5.463   4.654   7.828 -0.8489 -2.2411 -0.2011
 6825TIP3    H242111   5.369   4.570   7.744 -1.0330  0.2315 -2.6030
 6826TIP3   OH242112   6.076   1.903   1.242  0.1604  0.3140 -0.0833
 6826TIP3    H142113   6.127   1.897   1.323 -1.6454 -0.3595  1.0498
 6826TIP3    H242114   5.996   1.949   1.266 -0.8154 -0.6927 -1.2588
 6827TIP3   OH242115   5.128   3.554   2.319 -0.7964  0.0534  0.1160
 6827TIP3    H142116   5.205   3.612   2.320  0.2779 -1.2899  1.5108
 6827TIP3    H242117   5.057   3.608   2.352  0.0227  0.8065  0.7130
 6828TIP3   OH242118   6.130   0.851   0.719  0.3291 -0.7286 -0.1775
 6828TIP3    H142119   6.061   0.805   0.671  0.2687 -0.0302 -0.7757
 6828TIP3    H242120   6.198   0.785   0.732  0.0576 -1.1066 -0.6346
 6829TIP3   OH242121   3.138   1.188   8.829 -0.2764  0.1860 -0.4223
 6829TIP3    H142122   3.164   1.264   8.778  1.7104 -0.0355  0.1826
 6829TIP3    H242123   3.213   1.128   8.824 -0.6175 -0.4916  1.4703
 6830TIP3   OH242124   5.092   2.413   0.790  0.4671  0.4677 -0.1084
 6830TIP3    H142125   5.160   2.347   0.804 -0.5267 -0.3834  0.8726
 6830TIP3    H242126   5.096   2.431   0.696 -0.5188 -2.4705 -0.8049
 6831TIP3   OH242127   6.184   4.304   0.773 -0.1803 -0.7145  0.1725
 6831TIP3    H142128   6.263   4.300   0.827  1.3273 -0.3437 -1.8626
 6831TIP3    H242129   6.176   4.215   0.737 -0.3892 -0.6193 -0.0170
 6832TIP3   OH242130   2.161   1.207   6.926  0.7306  0.1321  0.1755
 6832TIP3    H142131   2.202   1.174   6.846 -1.1482 -1.0097 -0.3762
 6832TIP3    H242132   2.171   1.302   6.921  2.1722 -0.0341 -0.5215
 6833TIP3   OH242133   3.532   4.187   8.138 -0.0870  0.0981 -0.1201
 6833TIP3    H142134   3.543   4.152   8.226 -1.3015  1.2770  0.5156
 6833TIP3    H242135   3.621   4.209   8.110  0.3934 -0.9742  0.4895
 6834TIP3   OH242136   4.492   4.551   1.705  0.1472  0.1111  0.5373
 6834TIP3    H142137   4.572   4.529   1.657  1.0939  0.3859  1.9236
 6834TIP3    H242138   4.427   4.490   1.672 -0.1527  2.1596 -3.2908
 6835TIP3   OH242139   4.143   3.570   6.983 -0.1503  0.1782 -0.6859
 6835TIP3    H142140   4.211   3.636   6.995  0.9329 -0.4745 -2.7563
 6835TIP3    H242141   4.128   3.536   7.071  1.7046  0.8282 -0.0567
 6836TIP3   OH242142   2.172   6.369   1.708  0.0680 -0.0292 -0.4013
 6836TIP3    H142143   2.178   6.312   1.632 -0.4295 -0.6292 -0.0012
 6836TIP3    H242144   2.241   6.338   1.767  1.3129  1.2550 -1.1207
 6837TIP3   OH242145   1.167   2.573   0.201 -0.0252 -0.3637 -0.3931
 6837TIP3    H142146   1.169   2.590   0.295  0.7462 -1.1213 -0.2650
 6837TIP3    H242147   1.200   2.483   0.191 -0.6995 -0.5361 -1.3325
 6838TIP3   OH242148   3.614   5.192   0.910  0.9474  0.0725  0.3455
 6838TIP3    H142149   3.523   5.200   0.940  0.7980  0.6988 -0.2339
 6838TIP3    H242150   3.662   5.158   0.985  0.0617 -1.1919  0.3757
 6839TIP3   OH242151   2.349   1.831   8.760  0.2322 -0.3115  0.0026
 6839TIP3    H142152   2.367   1.925   8.763 -3.2976  0.5650 -1.2636
 6839TIP3    H242153   2.431   1.790   8.790  2.1269  3.0801  0.0121
 6840TIP3   OH242154   5.091   4.548   7.792 -0.5308 -0.5748 -0.1259
 6840TIP3    H142155   5.050   4.487   7.731 -0.6844 -1.6837  1.0496
 6840TIP3    H242156   5.136   4.492   7.856 -0.2238  0.5538  0.6813
 6841TIP3   OH242157   6.642   4.645   2.609 -0.3077 -0.2161  0.1462
 6841TIP3    H142158   6.625   4.568   2.555  0.0093  0.1810 -0.5435
 6841TIP3    H242159   6.662   4.610   2.695 -1.0628 -0.8570  0.0773
 6842TIP3   OH242160   0.336   0.726   2.040  0.2867  0.3272  0.4099
 6842TIP3    H142161   0.370   0.806   2.080 -0.0674  0.6144  0.1515
 6842TIP3    H242162   0.404   0.661   2.055  0.5627  0.6663  0.6620
 6843TIP3   OH242163   4.161   0.736   6.653 -0.6101 -0.2290  0.5063
 6843TIP3    H142164   4.130   0.790   6.580 -0.6945  0.3156  0.9366
 6843TIP3    H242165   4.247   0.705   6.626 -1.6313 -2.0485 -0.8641
 6844TIP3   OH242166   5.248   6.112   8.132  0.1037 -0.1826  0.4718
 6844TIP3    H142167   5.244   6.022   8.101  2.6392 -1.2050  2.7725
 6844TIP3    H242168   5.333   6.144   8.102 -0.8661  1.6142 -0.5447
 6845TIP3   OH242169   4.130   4.865   8.899  0.5575  0.1541  0.7981
 6845TIP3    H142170   4.182   4.936   8.937  0.4296  0.4622  0.4176
 6845TIP3    H242171   4.040   4.899   8.900  0.2970 -0.5368  1.8267
 6846TIP3   OH242172   1.384   5.349   7.895 -0.1822 -0.8933 -0.1277
 6846TIP3    H142173   1.330   5.380   7.822 -0.3360  0.1128  0.3974
 6846TIP3    H242174   1.322   5.336   7.967  0.3542  1.3571  0.8302
 6847TIP3   OH242175   0.989   5.471   7.891  0.4397  0.3050  0.0701
 6847TIP3    H142176   1.048   5.512   7.955  0.1560 -0.1853  0.6554
 6847TIP3    H242177   1.048   5.436   7.824  0.7172  1.1377 -0.1234
 6848TIP3   OH242178   1.386   6.037   8.077  0.3892 -0.0237  0.0001
 6848TIP3    H142179   1.459   6.092   8.049  1.1513 -0.3161  1.3193
 6848TIP3    H242180   1.419   5.991   8.155 -0.2574 -2.2276 -0.9458
 6849TIP3   OH242181   4.337   3.687   7.837 -0.2396 -0.0654 -0.4690
 6849TIP3    H142182   4.345   3.601   7.878  0.2293 -0.8856 -2.1929
 6849TIP3    H242183   4.251   3.686   7.795 -0.6993  0.7497  0.4032
 6850TIP3   OH242184   2.617   6.129   1.289  0.3771  0.7163  0.2756
 6850TIP3    H142185   2.551   6.065   1.317  0.7157  0.8575  1.4786
 6850TIP3    H242186   2.599   6.144   1.196 -1.4996  0.9823  0.6425
 6851TIP3   OH242187   3.118   3.134   7.598  0.2948  0.4624 -0.3094
 6851TIP3    H142188   3.118   3.039   7.606 -0.4688  0.5613  4.9830
 6851TIP3    H242189   3.198   3.162   7.643 -0.2833  2.3020 -0.3437
 6852TIP3   OH242190   1.728   2.072   8.232 -0.3441 -0.3460 -0.4856
 6852TIP3    H142191   1.778   2.075   8.313 -1.7172 -3.4705  0.6088
 6852TIP3    H242192   1.789   2.102   8.165  0.6994  2.7862  1.6409
 6853TIP3   OH242193   6.612   4.343   8.759  0.5098 -0.2640 -0.1000
 6853TIP3    H142194   6.625   4.431   8.795 -1.0662 -0.3796  0.8726
 6853TIP3    H242195   6.517   4.335   8.752  0.6924 -0.9456 -2.6659
 6854TIP3   OH242196   3.159   2.581   0.914  0.8043 -0.1702  0.3282
 6854TIP3    H142197   3.236   2.617   0.956  1.4993 -1.8235  0.5553
 6854TIP3    H242198   3.167   2.606   0.822  1.3831  0.0294  0.4334
 6855TIP3   OH242199   1.741   5.297   7.319 -0.1137 -0.6831 -0.1361
 6855TIP3    H142200   1.685   5.363   7.359 -1.7497 -2.5073  0.7400
 6855TIP3    H242201   1.691   5.264   7.244  1.3869  0.1729 -1.5725
 6856TIP3   OH242202   4.442   4.150   6.581  0.4220 -0.0170 -0.6984
 6856TIP3    H142203   4.402   4.199   6.653  0.9972 -0.0964 -0.3161
 6856TIP3    H242204   4.368   4.117   6.530  0.0153  0.4298 -0.4070
 6857TIP3   OH242205   2.814   6.135   8.097  0.0312 -0.0887  0.0589
 6857TIP3    H142206   2.869   6.211   8.118  0.8264 -0.8951  0.9872
 6857TIP3    H242207   2.870   6.077   8.047  0.2115 -1.1233  1.3992
 6858TIP3   OH242208   5.644   5.624   7.935 -0.4053  0.6734  0.8009
 6858TIP3    H142209   5.600   5.561   7.879 -0.4881  0.5462  1.0104
 6858TIP3    H242210   5.592   5.704   7.927 -0.2537  0.7372  0.4732
 6859TIP3   OH242211   4.100   3.172   0.319  0.8623 -0.5034 -0.2129
 6859TIP3    H142212   4.038   3.109   0.354 -1.5971  1.4984 -0.6980
 6859TIP3    H242213   4.183   3.125   0.316 -0.5392 -3.2293  0.7202
 6860TIP3   OH242214   2.902   0.387   0.259  0.3878  0.3923  0.0515
 6860TIP3    H142215   2.916   0.292   0.257  0.3971  0.4026 -0.4845
 6860TIP3    H242216   2.818   0.400   0.216  0.0338  0.5678  0.7838
 6861TIP3   OH242217   0.112   0.176   8.365 -0.1438 -0.3139  0.0587
 6861TIP3    H142218   0.179   0.189   8.431 -0.0035  1.0212 -0.3197
 6861TIP3    H242219   0.122   0.250   8.305 -1.7935 -0.1995 -0.1318
 6862TIP3   OH242220   4.435   1.497   7.139  0.2098 -0.2995  0.2019
 6862TIP3    H142221   4.416   1.470   7.049 -0.6771 -2.4519  0.9783
 6862TIP3    H242222   4.451   1.591   7.132 -2.1170  0.0666 -1.8838
 6863TIP3   OH242223   2.510   2.336   6.896  0.1182 -0.0884 -0.2589
 6863TIP3    H142224   2.545   2.386   6.970 -1.4443  1.7799 -0.7207
 6863TIP3    H242225   2.422   2.369   6.883 -0.8780 -2.6939 -0.9125
 6864TIP3   OH242226   4.419   6.182   6.995  0.7318  0.5532 -0.0406
 6864TIP3    H142227   4.478   6.136   6.935  0.5255  0.1680  0.0496
 6864TIP3    H242228   4.476   6.215   7.064  0.6391 -1.3422  1.0040
 6865TIP3   OH242229   2.628   3.509   7.984  0.7367 -0.0205 -0.2910
 6865TIP3    H142230   2.705   3.477   7.936  0.2606 -1.0732 -0.3748
 6865TIP3    H242231   2.572   3.432   7.994 -0.7687  0.9352 -1.0705
 6866TIP3   OH242232   1.695   1.944   1.751 -0.1626  0.6905 -0.5377
 6866TIP3    H142233   1.644   1.946   1.669 -0.0586  1.9985 -0.5823
 6866TIP3    H242234   1.633   1.972   1.818 -0.1366 -0.0036 -0.2159
 6867TIP3   OH242235   0.734   4.178   1.693 -0.3146 -0.1888  0.1915
 6867TIP3    H142236   0.731   4.216   1.781  0.7202 -0.3787  0.3120
 6867TIP3    H242237   0.821   4.141   1.685  0.2039  1.2519 -1.5135
 6868TIP3   OH242238   0.021   3.446   1.401 -0.6186  0.1902  0.2620
 6868TIP3    H142239  -0.014   3.359   1.421  1.0529 -0.9372 -1.3320
 6868TIP3    H242240  -0.013   3.466   1.313 -1.1062  1.2341  0.6715
 6869TIP3   OH242241   5.103   0.625   0.240 -0.7628 -0.4276  0.0338
 6869TIP3    H142242   5.057   0.596   0.319  0.5079 -0.7067  0.6957
 6869TIP3    H242243   5.034   0.660   0.184 -1.7108 -0.3617  1.1991
 6870TIP3   OH242244   0.731   0.864   0.782  0.1092  0.0634 -0.0364
 6870TIP3    H142245   0.695   0.836   0.866  0.8750  1.0074  0.6322
 6870TIP3    H242246   0.755   0.956   0.796 -0.5072  0.4885 -1.5482
 6871TIP3   OH242247   2.154   5.566   8.577  0.3010 -0.5274  0.3996
 6871TIP3    H142248   2.140   5.614   8.659 -1.1502 -2.2927  1.2579
 6871TIP3    H242249   2.097   5.610   8.514 -0.1276 -0.3950  0.8706
 6872TIP3   OH242250   4.309   6.027   0.269  0.3865 -0.3671  0.4028
 6872TIP3    H142251   4.216   6.046   0.280  0.2599 -0.9373  0.3191
 6872TIP3    H242252   4.346   6.039   0.357  0.6261  1.9246  0.0517
 6873TIP3   OH242253   4.553   3.867   0.666 -0.4010  0.3099 -0.0309
 6873TIP3    H142254   4.649   3.859   0.664 -0.4198 -0.6463  1.2955
 6873TIP3    H242255   4.523   3.799   0.606 -0.2643  0.2061  0.0171
 6874TIP3   OH242256   5.139   2.104   8.601 -0.2053  0.4289  0.1021
 6874TIP3    H142257   5.055   2.149   8.608 -1.0190 -0.9706 -0.2089
 6874TIP3    H242258   5.125   2.038   8.533  1.3183  0.5018 -0.3298
 6875TIP3   OH242259   1.915   1.921   7.304 -0.1396 -0.0577 -0.3081
 6875TIP3    H142260   1.973   1.956   7.372 -1.0031  0.2540  0.2796
 6875TIP3    H242261   1.946   1.831   7.291  0.6925  0.2103 -0.2483
 6876TIP3   OH242262   5.358   1.464   0.501 -0.4420  0.1463 -0.4649
 6876TIP3    H142263   5.445   1.433   0.477  1.0498  2.7673  1.1006
 6876TIP3    H242264   5.307   1.385   0.517  1.3457 -1.4749 -2.3405
 6877TIP3   OH242265   4.308   6.441   6.990  0.3978 -0.2293  0.4300
 6877TIP3    H142266   4.354   6.357   6.990  0.4079 -0.2477 -1.2050
 6877TIP3    H242267   4.239   6.430   7.056 -0.5950 -2.1253 -0.8109
 6878TIP3   OH242268   0.100   2.464   7.094  0.0681 -0.5314  0.5551
 6878TIP3    H142269   0.090   2.370   7.110 -0.6619 -0.8357 -1.4990
 6878TIP3    H242270   0.014   2.501   7.114 -0.2553 -0.6260 -0.5921
 6879TIP3   OH242271   3.190   2.632   0.243 -0.3070  0.3779  0.1005
 6879TIP3    H142272   3.203   2.722   0.274  0.2281 -0.4280  2.3628
 6879TIP3    H242273   3.211   2.636   0.150 -1.4663  2.8353 -0.1360
 6880TIP3   OH242274   5.723   5.448   2.115 -0.4587  0.7549  0.1556
 6880TIP3    H142275   5.795   5.434   2.053 -1.1248  0.7604 -0.6373
 6880TIP3    H242276   5.714   5.543   2.120 -0.8600  0.7419 -0.2828
 6881TIP3   OH242277   6.497   3.554   8.782 -0.3122  0.3047 -0.4054
 6881TIP3    H142278   6.512   3.630   8.838  2.1134 -0.5950  0.3017
 6881TIP3    H242279   6.413   3.519   8.811  0.1564  0.7515  1.6449
 6882TIP3   OH242280   2.268   0.268   0.187  0.8897  0.4651  0.0090
 6882TIP3    H142281   2.318   0.292   0.265 -2.2913  0.8017  2.1267
 6882TIP3    H242282   2.226   0.349   0.159 -0.3976 -0.2357 -0.1677
 6883TIP3   OH242283   4.804   4.249   1.220  0.0290 -0.2708  0.4268
 6883TIP3    H142284   4.824   4.343   1.221  0.4136 -0.3516  1.3087
 6883TIP3    H242285   4.799   4.225   1.312 -0.5425 -1.0243  0.2050
 6884TIP3   OH242286   2.286   0.061   0.830 -0.3994  0.3379  0.2163
 6884TIP3    H142287   2.273  -0.006   0.763 -0.1504  1.1889 -0.7130
 6884TIP3    H242288   2.354   0.025   0.887  0.3547  0.1530 -0.7714
 6885TIP3   OH242289   2.608   0.068   8.903 -0.4446  0.8860  0.2362
 6885TIP3    H142290   2.563   0.034   8.980 -1.7522 -1.1633 -1.3222
 6885TIP3    H242291   2.698   0.035   8.911 -0.1974  1.7679  1.4558
 6886TIP3   OH242292   4.521   0.100   7.816  0.5029 -0.4253  0.1535
 6886TIP3    H142293   4.442   0.154   7.811 -1.3710 -2.9740  0.4019
 6886TIP3    H242294   4.557   0.103   7.727  0.3348  0.9923  0.1053
 6887TIP3   OH242295   2.114   5.670   7.418 -0.3723  0.2325  0.5044
 6887TIP3    H142296   2.038   5.679   7.476 -3.1237  1.0987 -2.8550
 6887TIP3    H242297   2.129   5.576   7.412 -2.2500 -0.0742  0.0694
 6888TIP3   OH242298   3.003   4.393   7.100 -0.2321 -0.0866 -0.3607
 6888TIP3    H142299   3.046   4.385   7.185 -1.6293 -1.1245  0.2913
 6888TIP3    H242300   2.987   4.487   7.090  1.7020  0.2734 -0.4167
 6889TIP3   OH242301   2.471   0.634   7.078  0.3519  0.5694 -0.2332
 6889TIP3    H142302   2.550   0.672   7.040  0.3607  0.4984 -0.2850
 6889TIP3    H242303   2.406   0.704   7.070 -0.0399  0.0901 -1.6665
 6890TIP3   OH242304   3.750   0.481   6.558 -0.4364 -0.3297  0.1784
 6890TIP3    H142305   3.753   0.551   6.493 -1.8382  0.0215  0.4665
 6890TIP3    H242306   3.839   0.445   6.558 -0.3330 -0.2151 -1.7879
 6891TIP3   OH242307   5.576   4.244   0.487  0.5550 -0.0227 -0.2018
 6891TIP3    H142308   5.576   4.154   0.518 -0.1600  0.6511  1.9240
 6891TIP3    H242309   5.620   4.240   0.402  0.3837 -2.3746 -0.2435
 6892TIP3   OH242310   0.345   5.140   7.588 -0.3182  0.4331  0.6618
 6892TIP3    H142311   0.293   5.103   7.517 -0.2587  0.7387  0.4546
 6892TIP3    H242312   0.388   5.216   7.549  0.9649 -0.3048  0.6013
 6893TIP3   OH242313   0.926   1.024   6.844  0.1091 -0.2249  0.6016
 6893TIP3    H142314   0.968   1.015   6.758  1.0203  0.1114  1.0001
 6893TIP3    H242315   0.947   1.114   6.871 -1.5436  0.2279  0.4638
 6894TIP3   OH242316   4.075   1.373   8.425 -0.2905  0.3554  0.6341
 6894TIP3    H142317   4.101   1.382   8.516 -1.5644 -1.3960  1.2228
 6894TIP3    H242318   4.149   1.328   8.384 -1.1129 -2.1063  1.6718
 6895TIP3   OH242319   4.288   5.447   7.237 -0.0962 -0.1013  0.4733
 6895TIP3    H142320   4.304   5.438   7.331  0.1661 -1.3814  0.3191
 6895TIP3    H242321   4.313   5.538   7.217  0.7177 -0.0895  1.4704
 6896TIP3   OH242322   5.158   3.758   0.026 -0.0995 -0.0660  0.1849
 6896TIP3    H142323   5.083   3.702   0.043 -0.1353 -0.3448 -0.8335
 6896TIP3    H242324   5.145   3.834   0.083 -2.1635  0.8027 -1.3249
 6897TIP3   OH242325   0.564   3.469   7.309 -0.3818  0.1060  0.4241
 6897TIP3    H142326   0.633   3.515   7.261  1.5899 -1.2690  1.8024
 6897TIP3    H242327   0.571   3.502   7.398 -1.6781  0.0933  0.5455
 6898TIP3   OH242328   2.623   6.162   1.688  0.1777  0.5975  0.2464
 6898TIP3    H142329   2.640   6.166   1.782  0.5880  0.3861  0.1814
 6898TIP3    H242330   2.688   6.101   1.654 -1.0453 -0.6569  0.0792
 6899TIP3   OH242331   1.257   0.072   0.598  0.0825  0.8153 -0.5403
 6899TIP3    H142332   1.167   0.094   0.622 -0.3475 -1.3886  0.0986
 6899TIP3    H242333   1.251   0.044   0.507 -0.1608 -0.4926 -0.1557
 6900TIP3   OH242334   2.854   6.356   2.093 -0.0333  0.0787 -0.3403
 6900TIP3    H142335   2.905   6.275   2.094 -0.1171  0.0208 -0.7731
 6900TIP3    H242336   2.896   6.411   2.159  1.0332  0.2989 -1.1649
 6901TIP3   OH242337   0.774   2.227   8.799  0.3397  0.6204  0.3565
 6901TIP3    H142338   0.760   2.174   8.720 -0.8147 -0.8311  1.4735
 6901TIP3    H242339   0.868   2.218   8.817  0.3350 -0.2852  0.0008
 6902TIP3   OH242340   0.471   2.233   7.667 -0.8426 -0.7581  0.3611
 6902TIP3    H142341   0.420   2.314   7.667 -0.4398 -0.4979  1.0382
 6902TIP3    H242342   0.551   2.254   7.618 -1.4943 -1.2545 -0.9711
 6903TIP3   OH242343   6.055   6.499   0.137  0.5692 -0.9841  0.0980
 6903TIP3    H142344   5.979   6.545   0.100  2.5037  2.9290  0.5093
 6903TIP3    H242345   6.123   6.566   0.143  3.6110 -3.9184  1.2310
 6904TIP3   OH242346   4.626   1.505   8.524 -0.4639 -0.2058  0.2291
 6904TIP3    H142347   4.537   1.541   8.531 -1.2723 -1.8745 -0.6955
 6904TIP3    H242348   4.661   1.511   8.612 -1.7092 -0.0321  0.7402
 6905TIP3   OH242349   0.355   5.206   0.200 -0.1722 -0.2210  0.4325
 6905TIP3    H142350   0.427   5.219   0.262 -0.2011  1.2256  0.1848
 6905TIP3    H242351   0.276   5.213   0.253 -0.1664 -1.3240  0.6173
 6906TIP3   OH242352   0.644   6.626   0.229  0.1703  0.0843 -0.2424
 6906TIP3    H142353   0.666   6.691   0.161 -0.6266  0.2180 -0.3806
 6906TIP3    H242354   0.726   6.615   0.278  0.4885  0.7274 -0.6060
 6907TIP3   OH242355   3.895   4.313   8.712  0.6764 -0.2173  0.3189
 6907TIP3    H142356   3.902   4.282   8.802 -1.8874  1.7875  1.3064
 6907TIP3    H242357   3.933   4.401   8.713  2.4009 -0.8699 -1.0870
 6908TIP3   OH242358   1.889   3.443   1.515 -0.2981  0.3832  0.2190
 6908TIP3    H142359   1.821   3.507   1.536  0.0437  1.4928 -1.8577
 6908TIP3    H242360   1.876   3.424   1.422  1.0836 -0.8091  0.2379
 6909TIP3   OH242361   1.007   2.097   1.314  0.3410 -0.3013 -0.0010
 6909TIP3    H142362   0.912   2.085   1.307  0.2967 -0.0181  0.0804
 6909TIP3    H242363   1.041   2.072   1.228  0.0040  1.3082 -0.6313
 6910TIP3   OH242364   0.918   4.207   0.578  0.4085 -0.1515 -0.1168
 6910TIP3    H142365   0.976   4.187   0.504  2.5490  2.0829  0.7968
 6910TIP3    H242366   0.922   4.303   0.585 -3.7748  0.2266 -0.1817
 6911TIP3   OH242367   3.544   2.446   7.931  0.0584  0.0077 -0.2275
 6911TIP3    H142368   3.473   2.473   7.874 -1.0093 -0.8741  0.6479
 6911TIP3    H242369   3.536   2.351   7.937  0.4111  0.0385  1.0294
 6912TIP3   OH242370   1.167   5.186   1.838 -0.0795 -0.2958 -0.7619
 6912TIP3    H142371   1.175   5.201   1.743  0.7785  0.1047 -0.6426
 6912TIP3    H242372   1.089   5.132   1.848 -0.5030  0.1267 -1.6552
 6913TIP3   OH242373   6.447   4.938   7.073 -0.2854  0.1820  0.3818
 6913TIP3    H142374   6.495   5.018   7.094  0.7606 -0.0615 -0.9824
 6913TIP3    H242375   6.473   4.875   7.140  0.7767  0.2658  0.0580
 6914TIP3   OH242376   1.617   2.406   2.159 -0.4621  0.3134 -0.2461
 6914TIP3    H142377   1.540   2.463   2.153 -0.0760  1.2933  2.5868
 6914TIP3    H242378   1.615   2.372   2.249  2.0787 -0.1039 -0.2747
 6915TIP3   OH242379   4.230   1.249   8.610  0.3878  0.2813  0.3283
 6915TIP3    H142380   4.188   1.191   8.673  1.7680  0.6339  1.6263
 6915TIP3    H242381   4.321   1.253   8.638  0.7908  1.3404 -1.0362
 6916TIP3   OH242382   2.726   3.585   8.858  0.0170 -0.3501  0.0202
 6916TIP3    H142383   2.771   3.502   8.845  0.2719 -0.0501 -1.1425
 6916TIP3    H242384   2.796   3.650   8.864 -0.2192  0.0179 -0.9991
 6917TIP3   OH242385   0.930   4.912   0.057  0.0065  0.6594  0.2491
 6917TIP3    H142386   0.982   4.976   0.106 -0.6806  1.1667  0.3297
 6917TIP3    H242387   0.841   4.945   0.062 -0.3314 -0.2113  0.1252
 6918TIP3   OH242388   5.449   2.904   7.694 -0.4500 -0.0235 -0.6448
 6918TIP3    H142389   5.464   2.999   7.692  1.0567 -0.2380 -0.7657
 6918TIP3    H242390   5.393   2.890   7.771 -1.4396  1.0431 -1.1382
 6919TIP3   OH242391   1.679   0.769   7.031  0.2568 -0.4912  0.0126
 6919TIP3    H142392   1.730   0.845   7.002 -1.1907  0.6821  0.4039
 6919TIP3    H242393   1.659   0.721   6.951 -0.7672  0.8350 -0.5736
 6920TIP3   OH242394   5.085   3.717   1.888  0.4845 -0.1202 -0.2363
 6920TIP3    H142395   5.113   3.804   1.860  2.2391 -0.8709 -1.0036
 6920TIP3    H242396   5.148   3.693   1.956 -2.5180  0.8621  3.2167
 6921TIP3   OH242397   2.484   2.229   0.925 -0.0342  0.2813  0.3438
 6921TIP3    H142398   2.429   2.155   0.950 -1.9096  1.1945 -0.8280
 6921TIP3    H242399   2.564   2.189   0.890 -1.6983 -1.3462 -1.9003
 6922TIP3   OH242400   3.444   5.173   0.066 -0.1296  0.0981  0.2106
 6922TIP3    H142401   3.490   5.111   0.010 -1.1545 -0.4501 -0.0467
 6922TIP3    H242402   3.475   5.151   0.155  1.5473  1.0181 -0.0952
 6923TIP3   OH242403   6.447   1.026   0.283 -0.4464  0.3102 -0.2288
 6923TIP3    H142404   6.532   1.068   0.269  0.3240 -0.6410  1.3009
 6923TIP3    H242405   6.457   0.938   0.244 -1.1512  0.5882 -1.0774
 6924TIP3   OH242406   4.958   4.051   7.429 -0.7936  0.0038 -0.9410
 6924TIP3    H142407   4.906   3.983   7.387 -0.0146 -0.5905 -0.9673
 6924TIP3    H242408   5.047   4.015   7.433 -0.3911  0.9571 -0.8247
 6925TIP3   OH242409   6.397   3.624   1.718 -0.7279 -0.2204 -0.1204
 6925TIP3    H142410   6.341   3.674   1.777 -0.3039  0.4836 -0.3058
 6925TIP3    H242411   6.450   3.570   1.776 -0.7164  0.0445  0.1172
 6926TIP3   OH242412   4.244   0.929   8.664  0.2955 -0.5107 -0.1460
 6926TIP3    H142413   4.245   1.011   8.714  1.3715 -1.1211  0.8887
 6926TIP3    H242414   4.156   0.896   8.675  0.3129 -0.2855  0.8021
 6927TIP3   OH242415   0.866   2.484   2.126  0.8892  0.1335  0.3915
 6927TIP3    H142416   0.805   2.410   2.127  0.0022  0.8478  0.3451
 6927TIP3    H242417   0.815   2.557   2.161  0.4185  1.7149 -3.1257
 6928TIP3   OH242418   1.006   4.874   8.353  0.2097  0.2469 -0.0960
 6928TIP3    H142419   1.081   4.907   8.304  0.7607  0.7288  1.0469
 6928TIP3    H242420   0.948   4.838   8.286  1.0851  0.5971 -1.0676
 6929TIP3   OH242421   4.359   0.263   1.047 -0.0896  0.1013  0.6163
 6929TIP3    H142422   4.364   0.258   1.142 -0.0334  0.6107  0.6477
 6929TIP3    H242423   4.267   0.250   1.026  0.0937 -1.3566  0.6357
 6930TIP3   OH242424   6.066   1.920   7.484 -0.2668  0.1661  0.1790
 6930TIP3    H142425   6.134   1.855   7.501  0.3743  0.7665 -0.0355
 6930TIP3    H242426   5.991   1.869   7.455  0.4151 -0.4408 -0.5630
 6931TIP3   OH242427   1.364   3.951   7.808 -0.1945 -0.1042 -0.7429
 6931TIP3    H142428   1.410   3.974   7.889  0.6428  0.2216 -1.2881
 6931TIP3    H242429   1.414   3.996   7.740 -2.0900  1.3400 -1.2591
 6932TIP3   OH242430   0.980   0.754   0.702  0.2434  0.5814 -0.5857
 6932TIP3    H142431   1.041   0.804   0.756  0.6282 -1.6933  1.2495
 6932TIP3    H242432   0.893   0.782   0.731  0.4511 -0.0034  0.6674
 6933TIP3   OH242433   2.007   5.735   1.419  0.3162 -0.1675 -0.4844
 6933TIP3    H142434   2.050   5.673   1.360  0.4258 -1.1873  0.6320
 6933TIP3    H242435   2.068   5.808   1.426 -0.4684  0.8331 -3.0033
 6934TIP3   OH242436   5.842   6.201   7.628  0.0903  0.2501  0.5461
 6934TIP3    H142437   5.810   6.289   7.609 -1.1392 -0.1020  0.8937
 6934TIP3    H242438   5.834   6.154   7.545 -1.1125 -0.0603  0.8155
 6935TIP3   OH242439   5.664   1.063   0.398 -0.1973 -0.1119 -0.2652
 6935TIP3    H142440   5.723   1.078   0.472 -1.6686 -0.2177  0.9919
 6935TIP3    H242441   5.690   0.978   0.363 -0.4700 -0.8158  1.1607
 6936TIP3   OH242442   3.634   2.286   6.769  0.0863 -0.0101 -0.1639
 6936TIP3    H142443   3.641   2.282   6.674  0.1556 -0.0016 -0.1596
 6936TIP3    H242444   3.691   2.215   6.800 -1.7448 -1.5803 -0.1935
 6937TIP3   OH242445   3.099   5.681   7.257  0.3228  0.5854  0.4595
 6937TIP3    H142446   3.122   5.624   7.331 -0.7217 -0.7000 -0.1571
 6937TIP3    H242447   3.077   5.765   7.297  2.6260  0.8451  1.3398
 6938TIP3   OH242448   5.203   6.038   7.790  0.1266  0.2316  0.0752
 6938TIP3    H142449   5.126   6.077   7.832 -1.0226 -1.2471 -0.5716
 6938TIP3    H242450   5.203   6.074   7.701  0.8510  1.0795  0.4017
 6939TIP3   OH242451   2.181   2.490   1.520  0.1293 -0.0972 -0.7524
 6939TIP3    H142452   2.223   2.464   1.602 -1.1037  0.4622  0.0917
 6939TIP3    H242453   2.165   2.584   1.530  0.3120  0.0639 -1.8106
 6940TIP3   OH242454   0.727   1.073   1.441  0.0506 -0.0279  0.4822
 6940TIP3    H142455   0.757   1.056   1.352  0.0070 -0.0332  0.4686
 6940TIP3    H242456   0.675   1.153   1.435 -0.8823 -0.6278  0.3037
 6941TIP3   OH242457   1.399   3.887   1.215  0.1031  0.1011 -0.4452
 6941TIP3    H142458   1.415   3.914   1.305  0.3621  0.1980 -0.5170
 6941TIP3    H242459   1.477   3.837   1.191  0.5559  1.0145 -0.9726
 6942TIP3   OH242460   0.420   1.544   1.414  0.1550  0.0640  0.8799
 6942TIP3    H142461   0.510   1.578   1.410 -0.4333  1.6011 -2.0453
 6942TIP3    H242462   0.371   1.614   1.457 -0.4004  1.4470 -1.8255
 6943TIP3   OH242463   4.366   1.497   0.477 -0.2460  0.6251 -0.5717
 6943TIP3    H142464   4.420   1.479   0.555  0.4823 -0.2571 -1.2606
 6943TIP3    H242465   4.277   1.474   0.504  0.2875 -1.7116 -0.6223
 6944TIP3   OH242466   6.404   0.038   1.520  0.2739 -0.4715 -0.1375
 6944TIP3    H142467   6.454   0.037   1.602  0.8202 -0.0016 -0.4525
 6944TIP3    H242468   6.322  -0.007   1.541  0.2501 -0.0318  0.7710
 6945TIP3   OH242469   2.671   2.312   6.462  0.4684  0.0677 -0.0250
 6945TIP3    H142470   2.721   2.381   6.506  0.0923  0.2492  0.1196
 6945TIP3    H242471   2.581   2.342   6.464  0.5160  0.3714 -1.4623
 6946TIP3   OH242472   4.329   3.420   0.374  0.2194 -0.3047  0.3609
 6946TIP3    H142473   4.289   3.480   0.437  0.0226 -0.4149  0.3447
 6946TIP3    H242474   4.423   3.439   0.378  0.1255  0.2448  0.0976
 6947TIP3   OH242475   5.537   4.084   1.450 -0.0131 -0.8844  0.2059
 6947TIP3    H142476   5.504   4.132   1.374 -1.8745 -3.0360 -0.4723
 6947TIP3    H242477   5.550   3.995   1.418  0.2942 -1.5748  2.1281
 6948TIP3   OH242478   3.928   3.585   0.669 -0.5874  0.2163  0.0219
 6948TIP3    H142479   3.966   3.613   0.753  1.3984  1.5575 -1.2248
 6948TIP3    H242480   3.882   3.663   0.637 -2.0271 -0.5364  0.1949
 6949TIP3   OH242481   2.540   0.559   7.445  0.5022 -0.0825 -0.2899
 6949TIP3    H142482   2.603   0.565   7.374  3.7818 -1.2001  2.2862
 6949TIP3    H242483   2.541   0.645   7.486 -0.5889  0.2473 -0.9232
 6950TIP3   OH242484   2.367   1.246   7.368 -0.8404 -0.5075 -0.4683
 6950TIP3    H142485   2.411   1.165   7.342  0.0106  0.3286 -1.7929
 6950TIP3    H242486   2.428   1.316   7.340 -2.2260  0.6274 -0.7734
 6951TIP3   OH242487   2.498   6.549   7.710  0.7252 -0.0123 -0.7395
 6951TIP3    H142488   2.475   6.632   7.751  2.3402  0.0751  0.0690
 6951TIP3    H242489   2.586   6.562   7.676  1.0018 -1.3724 -0.6305
 6952TIP3   OH242490   5.462   0.661   7.705  0.1395 -0.0163  0.6309
 6952TIP3    H142491   5.469   0.683   7.612 -1.3378 -1.4113  0.1364
 6952TIP3    H242492   5.471   0.566   7.708 -0.5393 -0.0705  1.8232
 6953TIP3   OH242493   4.211   5.252   0.729  0.2457 -0.6125 -0.2800
 6953TIP3    H142494   4.306   5.253   0.733  0.2403 -0.1751 -0.2708
 6953TIP3    H242495   4.191   5.237   0.636  0.3228 -2.1606 -0.0710
 6954TIP3   OH242496   3.877   0.495   1.416  0.1230  0.5561  0.0516
 6954TIP3    H142497   3.796   0.540   1.441 -0.2556  0.3589 -0.7637
 6954TIP3    H242498   3.946   0.539   1.466 -0.0544  2.8391 -1.5153
 6955TIP3   OH242499   3.983   3.653   0.945 -0.3624 -0.5087  0.0009
 6955TIP3    H142500   3.986   3.748   0.939 -0.6388 -0.3938  1.3920
 6955TIP3    H242501   4.040   3.631   1.019 -0.9690 -1.3513  0.2338
 6956TIP3   OH242502   5.803   4.353   7.858  0.2783  0.3020  0.3358
 6956TIP3    H142503   5.847   4.293   7.918 -0.0118  1.1433  1.4170
 6956TIP3    H242504   5.869   4.419   7.838 -0.3268  1.3570  1.6640
 6957TIP3   OH242505   2.637   0.756   8.867 -0.0413 -0.3729  0.1319
 6957TIP3    H142506   2.590   0.783   8.946 -0.6357  1.2369 -0.7271
 6957TIP3    H242507   2.722   0.726   8.898 -0.7623 -1.0634  1.4987
 6958TIP3   OH242508   2.797   6.418   6.951 -0.1331  0.1972  0.1539
 6958TIP3    H142509   2.733   6.351   6.976  0.8291 -1.0604 -0.6388
 6958TIP3    H242510   2.744   6.496   6.934 -1.4032 -0.6489  0.0524
 6959TIP3   OH242511   5.751   4.143   0.292  0.1949  0.2241 -0.8079
 6959TIP3    H142512   5.826   4.093   0.325 -1.3635 -0.8639  1.2987
 6959TIP3    H242513   5.758   4.136   0.197  0.6956 -3.1079 -0.6561
 6960TIP3   OH242514   1.201   3.562   6.431 -0.0997  0.0165 -0.4457
 6960TIP3    H142515   1.140   3.547   6.504  2.0752 -1.6964  1.1813
 6960TIP3    H242516   1.207   3.477   6.387  1.7590 -0.1611  0.0458
 6961TIP3   OH242517   5.259   3.158   7.800 -0.0438 -0.0474 -0.5045
 6961TIP3    H142518   5.217   3.080   7.836  1.5714 -0.3739  0.7918
 6961TIP3    H242519   5.343   3.164   7.847 -0.1855  2.5488 -0.4367
 6962TIP3   OH242520   2.921   3.009   7.038 -0.3127  0.2347  0.2300
 6962TIP3    H142521   2.957   2.924   7.016 -0.7405 -0.4237  1.9026
 6962TIP3    H242522   2.994   3.070   7.030  0.6838 -0.7362  1.5662
 6963TIP3   OH242523   6.501   2.148   7.052 -0.0853  0.1822  0.0536
 6963TIP3    H142524   6.488   2.229   7.003 -2.7935 -1.1694 -1.6834
 6963TIP3    H242525   6.534   2.085   6.987  0.6144 -0.4893  1.0311
 6964TIP3   OH242526   2.330   5.797   7.764  0.9939 -0.2693 -0.2610
 6964TIP3    H142527   2.402   5.796   7.827  0.5479  0.1398  0.2578
 6964TIP3    H242528   2.296   5.886   7.767 -0.5712 -0.8493  0.6817
 6965TIP3   OH242529   3.166   0.713   7.791 -0.1286  0.3830 -0.2275
 6965TIP3    H142530   3.222   0.672   7.857 -0.0158  1.0033  0.0684
 6965TIP3    H242531   3.219   0.714   7.711 -1.2063 -2.8611 -1.1411
 6966TIP3   OH242532   6.598   3.951   2.375 -0.3404 -0.3346  0.4547
 6966TIP3    H142533   6.652   4.017   2.418  0.7122 -0.6734 -0.3240
 6966TIP3    H242534   6.640   3.867   2.395 -0.3910 -0.5793 -0.3868
 6967TIP3   OH242535   1.556   6.725   7.909 -0.1976  0.4266  0.1822
 6967TIP3    H142536   1.605   6.680   7.839 -1.8855 -0.5402 -0.4229
 6967TIP3    H242537   1.466   6.729   7.877 -0.8083  0.9442  1.8544
 6968TIP3   OH242538   4.678   5.055   8.133 -0.3196  0.4874 -0.0680
 6968TIP3    H142539   4.759   5.006   8.118 -0.3552  0.7251 -1.1190
 6968TIP3    H242540   4.649   5.027   8.220  0.1913 -0.5796 -0.2229
 6969TIP3   OH242541   2.348   0.872   7.046 -0.3756  0.2843 -0.3482
 6969TIP3    H142542   2.261   0.866   7.007 -0.2942  0.0289 -0.4883
 6969TIP3    H242543   2.374   0.963   7.033 -1.0588  0.6388  0.6251
 6970TIP3   OH242544   2.845   3.338   7.852 -0.0256 -0.0925 -1.0046
 6970TIP3    H142545   2.889   3.398   7.792  0.5575 -0.2249 -0.7145
 6970TIP3    H242546   2.914   3.305   7.910 -0.7030  0.7218  0.3336
 6971TIP3   OH242547   4.431   2.967   1.618 -0.5922 -0.7033 -0.1629
 6971TIP3    H142548   4.492   2.985   1.546 -0.2631  0.8421  0.4501
 6971TIP3    H242549   4.411   2.874   1.611  1.0021 -1.0045 -1.0217
 6972TIP3   OH242550   6.287   5.345   0.897  0.0090 -0.3171 -0.3773
 6972TIP3    H142551   6.360   5.284   0.904  1.3278  1.3544  1.8078
 6972TIP3    H242552   6.321   5.417   0.844 -0.0561  0.4030  0.5304
 6973TIP3   OH242553   6.416   4.621   7.768 -0.4670 -0.2472 -0.2937
 6973TIP3    H142554   6.484   4.689   7.764 -0.0365 -0.6424  0.1550
 6973TIP3    H242555   6.375   4.623   7.682 -1.2803  1.4109  0.0914
 6974TIP3   OH242556   5.324   1.125   7.622  0.1035 -0.3524 -0.6068
 6974TIP3    H142557   5.258   1.056   7.617 -1.7401  1.3473 -1.3145
 6974TIP3    H242558   5.326   1.149   7.715  2.0764 -2.4609 -0.0159
 6975TIP3   OH242559   0.227   4.211   0.278  0.2131  0.5669  0.2748
 6975TIP3    H142560   0.269   4.147   0.220  1.5464 -0.2256  2.0349
 6975TIP3    H242561   0.296   4.272   0.301  0.0845  0.0864  2.0664
 6976TIP3   OH242562   2.670   3.477   2.407  0.1366  0.1868  0.0770
 6976TIP3    H142563   2.578   3.489   2.430 -0.2476 -0.4880 -1.0505
 6976TIP3    H242564   2.675   3.503   2.315  0.8475 -0.8452 -0.1850
 6977TIP3   OH242565   0.079   1.938   1.026  0.0968 -0.5542  0.0122
 6977TIP3    H142566   0.039   1.984   1.100  0.0851 -1.9965  0.9415
 6977TIP3    H242567   0.006   1.914   0.970  0.0782  0.2830 -0.3421
 6978TIP3   OH242568   2.783   4.824   1.170  0.6398  0.1424  0.1696
 6978TIP3    H142569   2.700   4.864   1.196 -1.0842 -2.3912 -0.9863
 6978TIP3    H242570   2.797   4.852   1.080  0.4988 -0.1986  0.0378
 6979TIP3   OH242571   2.649   2.663   6.806  0.4027 -0.0916  0.1457
 6979TIP3    H142572   2.707   2.735   6.833  1.5703 -1.2577  0.8984
 6979TIP3    H242573   2.583   2.658   6.875  1.4882 -0.9845  1.1642
 6980TIP3   OH242574   4.500   2.791   8.208  0.1833 -0.3365 -0.0059
 6980TIP3    H142575   4.568   2.833   8.155  1.0843 -1.8143 -0.1005
 6980TIP3    H242576   4.437   2.758   8.145  0.1650 -0.2644 -0.0251
 6981TIP3   OH242577   1.878   5.358   0.167 -0.3573 -0.0117  0.1583
 6981TIP3    H142578   1.789   5.389   0.177  0.1592  2.3046 -1.5066
 6981TIP3    H242579   1.901   5.320   0.252 -2.1484  1.4298  1.3450
 6982TIP3   OH242580   5.776   4.142   8.516  0.2845  0.0715  0.1729
 6982TIP3    H142581   5.780   4.069   8.578 -3.1219 -0.2609  0.1863
 6982TIP3    H242582   5.842   4.121   8.450  0.5483 -2.1619  1.0545
 6983TIP3   OH242583   0.880   3.723   1.557  0.0357 -0.5278  0.5688
 6983TIP3    H142584   0.809   3.708   1.620 -0.7485 -3.4206 -0.8024
 6983TIP3    H242585   0.950   3.664   1.586  0.2334 -0.7751 -0.3766
 6984TIP3   OH242586   0.404   4.488   1.294  0.4613 -0.3057  0.0872
 6984TIP3    H142587   0.454   4.432   1.234 -0.0420  0.9870 -1.6286
 6984TIP3    H242588   0.316   4.492   1.256  0.4256  1.4577  0.2595
 6985TIP3   OH242589   6.330   6.695   8.259  0.2625 -0.3664 -0.5599
 6985TIP3    H142590   6.354   6.775   8.305 -0.9796 -1.3003  1.9168
 6985TIP3    H242591   6.340   6.626   8.325 -1.9240 -1.7600 -1.5750
 6986TIP3   OH242592   3.752   5.987   0.253  0.4575 -0.1005 -0.0762
 6986TIP3    H142593   3.784   6.077   0.250 -0.0318  0.0773 -0.1059
 6986TIP3    H242594   3.688   5.987   0.323  0.8866 -0.5755  0.3225
 6987TIP3   OH242595   1.082   4.224   7.660  0.1081 -0.3952 -0.0849
 6987TIP3    H142596   1.044   4.241   7.745 -1.1648  0.9680 -0.8834
 6987TIP3    H242597   1.176   4.237   7.672  0.0494 -1.1231  1.2936
 6988TIP3   OH242598   2.977   2.090   1.430 -0.2959 -0.2990 -0.7899
 6988TIP3    H142599   2.984   2.185   1.423  0.3613 -0.1122  1.5634
 6988TIP3    H242600   3.049   2.057   1.376 -1.5005  0.4073 -2.9529
 6989TIP3   OH242601   1.179   5.106   6.952 -0.0698 -0.4261 -1.1571
 6989TIP3    H142602   1.197   5.096   7.046 -1.0378 -1.4387 -1.0687
 6989TIP3    H242603   1.264   5.130   6.914  0.5572 -1.0166 -0.1691
 6990TIP3   OH242604   0.533   2.811   6.907 -0.2936 -0.6163 -0.0237
 6990TIP3    H142605   0.549   2.717   6.917 -0.0753 -0.6010 -0.2252
 6990TIP3    H242606   0.575   2.834   6.824 -0.1670 -0.2968  0.1265
 6991TIP3   OH242607   2.662   0.923   0.731  0.2497  0.4439  0.9043
 6991TIP3    H142608   2.728   0.856   0.711 -0.3149  0.1324  0.0290
 6991TIP3    H242609   2.588   0.875   0.766 -0.3024  0.5488 -0.0786
 6992TIP3   OH242610   6.129   3.144   1.877 -0.0385  0.2979 -0.3319
 6992TIP3    H142611   6.174   3.136   1.961 -0.0061  0.2283 -0.3560
 6992TIP3    H242612   6.036   3.134   1.899 -0.1592  1.7436 -0.0965
 6993TIP3   OH242613   5.223   5.710   6.345 -0.2962 -0.6789 -0.4625
 6993TIP3    H142614   5.260   5.623   6.357  0.5745 -0.2679 -0.0780
 6993TIP3    H242615   5.229   5.750   6.432  1.2797  0.5149 -1.0783
 6994TIP3   OH242616   5.269   4.781   1.849  0.2166  0.1322  0.4830
 6994TIP3    H142617   5.359   4.774   1.817  0.3470  2.4412  0.1530
 6994TIP3    H242618   5.278   4.794   1.943  0.0934 -1.5912  0.7568
 6995TIP3   OH242619   4.997   4.424   6.693  0.0507  0.5459 -0.9161
 6995TIP3    H142620   5.059   4.370   6.644  2.2738  0.3556  1.8404
 6995TIP3    H242621   4.993   4.506   6.644  0.9103 -0.1760 -2.2665
 6996TIP3   OH242622   0.943   5.176   2.598  0.1275 -0.3562  0.5175
 6996TIP3    H142623   0.988   5.235   2.537 -0.6196 -2.2929 -2.1074
 6996TIP3    H242624   0.852   5.174   2.566 -0.6923 -0.3469  2.6497
 6997TIP3   OH242625   3.354   4.751   7.911  0.0287 -0.4513  0.4442
 6997TIP3    H142626   3.312   4.746   7.825 -0.6844  2.7509  0.4685
 6997TIP3    H242627   3.281   4.746   7.973 -0.0729  1.8372  0.6063
 6998TIP3   OH242628   6.798   0.510   0.704  0.1813  0.2632  0.0915
 6998TIP3    H142629   6.853   0.461   0.765 -0.6436  1.1647  1.6341
 6998TIP3    H242630   6.747   0.444   0.658  2.1824 -0.5613 -1.0611
 6999TIP3   OH242631   2.343   6.071   7.819 -0.8093 -0.2887 -0.1000
 6999TIP3    H142632   2.425   6.086   7.867  0.1542  0.0424 -1.7726
 6999TIP3    H242633   2.334   6.148   7.763 -1.4337 -1.0475 -1.0755
 7000TIP3   OH242634   4.023   6.323   1.613 -0.0364 -0.3093 -0.1184
 7000TIP3    H142635   4.012   6.243   1.664 -1.7598 -0.4716 -0.6656
 7000TIP3    H242636   3.941   6.371   1.625  0.2177  0.4795 -1.3078
 7001TIP3   OH242637   2.716   3.314   0.700  0.1241 -0.3892  0.1323
 7001TIP3    H142638   2.768   3.234   0.711 -1.8047 -1.6229  0.7255
 7001TIP3    H242639   2.694   3.316   0.607 -0.9216 -1.3130  0.3360
 7002TIP3   OH242640   1.319   2.775   8.265 -0.2284 -0.2857 -0.1675
 7002TIP3    H142641   1.326   2.688   8.226 -0.0126  0.0728 -0.9472
 7002TIP3    H242642   1.329   2.760   8.359 -1.2714 -1.2323 -0.1830
 7003TIP3   OH242643   3.059   0.695   7.268 -0.1680  0.0901  0.5992
 7003TIP3    H142644   3.027   0.674   7.180  0.6652 -0.5904  0.4468
 7003TIP3    H242645   3.003   0.768   7.297 -1.3299 -0.5516  0.0519
 7004TIP3   OH242646   1.643   2.582   0.323  0.1106 -0.0330  0.1685
 7004TIP3    H142647   1.657   2.676   0.331 -0.6730  0.3516 -2.1427
 7004TIP3    H242648   1.650   2.565   0.229  2.9469 -2.7730  0.7152
 7005TIP3   OH242649   1.458   3.509   8.858 -0.3458 -0.3929  0.4526
 7005TIP3    H142650   1.363   3.523   8.857 -0.3104 -0.0090  1.3989
 7005TIP3    H242651   1.482   3.510   8.951  1.0176  2.6784  0.1892
 7006TIP3   OH242652   3.943   4.484   7.880  0.2338 -0.1764 -0.5631
 7006TIP3    H142653   4.036   4.462   7.889 -0.0399 -0.7288  1.3361
 7006TIP3    H242654   3.902   4.402   7.852  0.4388  0.3812 -2.6856
 7007TIP3   OH242655   3.968   4.262   1.361  0.5198 -0.5970  0.1357
 7007TIP3    H142656   3.930   4.350   1.356  1.3525 -0.1107  1.4828
 7007TIP3    H242657   4.062   4.276   1.344  1.4194 -0.5041  4.2126
 7008TIP3   OH242658   3.571   1.588   8.527 -0.4690  0.2370 -0.8692
 7008TIP3    H142659   3.642   1.614   8.469  0.0965 -3.9440 -2.4157
 7008TIP3    H242660   3.614   1.573   8.612  0.1442 -0.4232 -1.2872
 7009TIP3   OH242661   0.682   5.802   0.443  0.4910 -0.0789  0.4931
 7009TIP3    H142662   0.720   5.820   0.529  1.9556 -0.2025 -0.0962
 7009TIP3    H242663   0.693   5.883   0.394 -1.0481  0.2503  0.6388
 7010TIP3   OH242664   1.164   0.644   1.258  0.9320 -0.0346  0.5881
 7010TIP3    H142665   1.080   0.670   1.222  0.2059 -0.5222  1.8734
 7010TIP3    H242666   1.189   0.717   1.315  1.2254 -0.0322  0.4576
 7011TIP3   OH242667   6.507   4.194   0.945  0.4136  0.3937 -0.1618
 7011TIP3    H142668   6.419   4.183   0.979  0.5709 -1.9821 -0.3433
 7011TIP3    H242669   6.495   4.214   0.853  0.0103 -2.1415 -0.7247
 7012TIP3   OH242670   2.066   1.926   1.460 -0.3827  0.3671  0.2513
 7012TIP3    H142671   2.057   1.904   1.367  2.5266  1.5008 -0.3827
 7012TIP3    H242672   2.091   2.018   1.461 -0.3561  0.3803  2.1886
 7013TIP3   OH242673   6.648   6.337   0.344  0.1020 -0.0151  0.1447
 7013TIP3    H142674   6.578   6.311   0.404  0.2266 -0.4559  0.1028
 7013TIP3    H242675   6.656   6.264   0.282 -0.5389  0.7563 -0.8820
 7014TIP3   OH242676   2.554   6.466   0.835 -0.0512  0.0099 -0.4915
 7014TIP3    H142677   2.605   6.547   0.840 -0.2398  0.0478  1.0873
 7014TIP3    H242678   2.533   6.458   0.742 -0.0281  1.7819 -0.6896
 7015TIP3   OH242679   5.312   2.294   1.672  0.0035  0.5051  0.5797
 7015TIP3    H142680   5.256   2.218   1.691  0.1659  0.2616  0.0882
 7015TIP3    H242681   5.289   2.318   1.582 -0.3247  1.2788  0.8614
 7016TIP3   OH242682   0.464   0.604   1.768  0.5435  0.6069  0.4391
 7016TIP3    H142683   0.433   0.690   1.798  0.6122  0.3073  1.4045
 7016TIP3    H242684   0.445   0.545   1.841  1.2859 -0.0349  0.1276
 7017TIP3   OH242685   2.376   4.652   7.242  0.3697  0.3084  0.1149
 7017TIP3    H142686   2.385   4.746   7.226 -2.0242  0.8501  1.3937
 7017TIP3    H242687   2.282   4.640   7.257  0.0392 -2.8070 -3.0416
 7018TIP3   OH242688   4.326   4.051   7.920  0.5368  0.6228  0.0983
 7018TIP3    H142689   4.271   4.004   7.982  0.4568  0.4349 -0.1150
 7018TIP3    H242690   4.415   4.045   7.957  0.6874 -0.5354 -0.4157
 7019TIP3   OH242691   0.807   3.628   7.261  0.0350  0.0346  0.2033
 7019TIP3    H142692   0.820   3.717   7.293 -0.8930 -0.1303  1.1089
 7019TIP3    H242693   0.832   3.631   7.169 -0.0223  1.2438  0.2163
 7020TIP3   OH242694   3.511   5.486   7.116 -0.2875 -0.3673 -0.2054
 7020TIP3    H142695   3.598   5.459   7.148 -0.1031  1.6990  1.2672
 7020TIP3    H242696   3.522   5.493   7.021  1.1381 -0.3359 -0.0737
 7021TIP3   OH242697   6.249   3.456   8.815  0.1689  0.0984  0.1080
 7021TIP3    H142698   6.163   3.490   8.836  0.9122  1.0600  1.7537
 7021TIP3    H242699   6.259   3.378   8.870  0.8328  0.7121  0.8705
 7022TIP3   OH242700   5.390   4.512   0.197  0.2441  0.3859  0.0508
 7022TIP3    H142701   5.315   4.566   0.175  0.9342  0.9696 -0.9429
 7022TIP3    H242702   5.353   4.436   0.242 -1.1984 -0.4654 -2.3631
 7023TIP3   OH242703   0.092   5.087   1.738 -0.0298  0.3921 -0.0108
 7023TIP3    H142704   0.001   5.088   1.710  0.2101  0.3803 -0.8066
 7023TIP3    H242705   0.137   5.147   1.679  0.8631 -1.2102 -1.0679
 7024TIP3   OH242706   1.242   2.234   0.960  0.0648 -0.7683 -0.0817
 7024TIP3    H142707   1.219   2.303   0.898  0.5254 -1.5698 -1.1815
 7024TIP3    H242708   1.273   2.280   1.037 -1.2673  0.2667 -0.1349
 7025TIP3   OH242709   0.441   4.871   8.314 -0.0757 -0.2563  0.2346
 7025TIP3    H142710   0.452   4.920   8.233 -0.5746 -1.4593 -0.5944
 7025TIP3    H242711   0.530   4.854   8.344  0.2848 -2.5138 -1.7984
 7026TIP3   OH242712   6.166   4.876   8.219 -0.1247  0.0658 -0.0069
 7026TIP3    H142713   6.128   4.955   8.181  0.7183  0.2984 -0.3707
 7026TIP3    H242714   6.203   4.829   8.144 -0.5821 -0.6662  0.2098
 7027TIP3   OH242715   3.483   5.665   2.548  0.5978 -0.1809 -0.5791
 7027TIP3    H142716   3.477   5.570   2.549 -2.0561 -0.2198 -3.9211
 7027TIP3    H242717   3.551   5.685   2.483  0.0559  0.1566 -1.0574
 7028TIP3   OH242718   1.633   4.612   7.552  0.2289 -1.0420  0.2931
 7028TIP3    H142719   1.595   4.690   7.512 -1.0165 -1.7390  0.0834
 7028TIP3    H242720   1.614   4.621   7.645  1.9842 -0.0652  0.6072
 7029TIP3   OH242721   3.315   3.634   7.135  0.3123 -0.0151  0.3435
 7029TIP3    H142722   3.248   3.585   7.087  1.8453 -1.9234  0.0160
 7029TIP3    H242723   3.391   3.634   7.078  0.5740  2.3034  0.6160
 7030TIP3   OH242724   6.470   3.960   0.669  0.1092  0.5674 -0.0354
 7030TIP3    H142725   6.554   3.921   0.646  0.6774 -0.8676  3.7918
 7030TIP3    H242726   6.489   4.051   0.688  0.2722  0.8716 -1.5762
 7031TIP3   OH242727   0.038   6.099   7.624 -0.3766  0.2677  0.3602
 7031TIP3    H142728  -0.040   6.067   7.579 -1.0828  0.0755  1.6784
 7031TIP3    H242729   0.110   6.052   7.584 -1.2036 -1.5352  0.9075
 7032TIP3   OH242730   0.107   1.712   1.314 -0.0171 -0.2815  0.9049
 7032TIP3    H142731   0.156   1.661   1.250 -1.2561 -1.6682  1.0064
 7032TIP3    H242732   0.016   1.688   1.299 -0.7021  2.1955  0.7430
 7033TIP3   OH242733   0.571   0.964   7.349 -0.0462  0.2145  0.4833
 7033TIP3    H142734   0.643   1.016   7.384 -0.8459  0.7937  1.3188
 7033TIP3    H242735   0.575   0.978   7.254 -0.1955  1.7589  0.6819
 7034TIP3   OH242736   6.104   0.662   8.622 -0.2484 -0.5163  0.3659
 7034TIP3    H142737   6.017   0.681   8.588  0.1233 -0.2485 -0.4457
 7034TIP3    H242738   6.122   0.572   8.596  0.1893 -0.1889 -0.4956
 7035TIP3   OH242739   6.629   4.788   7.784 -0.5889 -0.0077  0.3390
 7035TIP3    H142740   6.649   4.842   7.861 -1.0887 -1.4997  1.5715
 7035TIP3    H242741   6.714   4.764   7.748 -0.2678 -1.0039  1.6895
 7036TIP3   OH242742   6.397   5.097   0.400  0.0806  0.0105  0.4944
 7036TIP3    H142743   6.400   5.002   0.415  0.0975 -0.1256 -0.3362
 7036TIP3    H242744   6.317   5.125   0.444 -0.6651 -0.6089 -0.4234
 7037TIP3   OH242745   1.781   1.373   1.331  0.2380 -0.1384  0.7231
 7037TIP3    H142746   1.871   1.403   1.321 -0.0747  0.4649 -0.6728
 7037TIP3    H242747   1.759   1.390   1.422  0.2995  3.4850  0.2174
 7038TIP3   OH242748   5.509   5.063   7.338  0.0602 -0.5068 -0.4658
 7038TIP3    H142749   5.552   5.006   7.402 -1.5978  0.5310  1.7111
 7038TIP3    H242750   5.451   5.006   7.289 -1.2963 -0.8345  1.4240
 7039TIP3   OH242751   6.278   2.167   2.381 -0.8319  0.5712 -0.3041
 7039TIP3    H142752   6.255   2.183   2.472 -2.0285 -0.3613 -0.4280
 7039TIP3    H242753   6.311   2.077   2.381  3.5352  1.9420 -0.0298
 7040TIP3   OH242754   5.249   2.841   0.738  0.1781 -0.1996  0.4487
 7040TIP3    H142755   5.170   2.893   0.750  0.7366  0.9798 -0.6840
 7040TIP3    H242756   5.313   2.903   0.704  1.7731 -0.9891  1.8318
 7041TIP3   OH242757   5.586   6.747   8.463  1.1421 -0.1760 -0.3265
 7041TIP3    H142758   5.662   6.728   8.409  1.8798  0.7790  0.3434
 7041TIP3    H242759   5.614   6.726   8.552 -0.0882 -1.8323 -0.2859
 7042TIP3   OH242760   1.557   3.750   8.183  0.4384  0.2854  0.2311
 7042TIP3    H142761   1.603   3.719   8.261 -0.2246 -0.5343  0.3038
 7042TIP3    H242762   1.597   3.702   8.111 -0.3555 -0.5048  0.3058
 7043TIP3   OH242763   5.564   3.383   7.152 -0.0891  0.3534 -0.2530
 7043TIP3    H142764   5.504   3.455   7.135  0.4339  0.6208 -0.9916
 7043TIP3    H242765   5.585   3.347   7.066  0.4628 -0.0174  0.0270
 7044TIP3   OH242766   0.234   2.392   7.629  0.7185 -0.7200 -0.3518
 7044TIP3    H142767   0.232   2.442   7.711  0.2705 -1.6734  0.2354
 7044TIP3    H242768   0.168   2.433   7.574 -0.6024 -1.4456  0.6199
 7045TIP3   OH242769   4.121   3.923   7.788  0.1210  1.0444 -0.0865
 7045TIP3    H142770   4.191   3.983   7.763  0.2941  0.4282 -1.1326
 7045TIP3    H242771   4.079   3.898   7.706  1.7244 -2.3100 -0.0679
 7046TIP3   OH242772   5.877   2.524   0.529  0.3462 -0.0307 -0.3427
 7046TIP3    H142773   5.811   2.475   0.577  0.0622  0.2005 -0.4956
 7046TIP3    H242774   5.917   2.460   0.471  1.5892 -0.6360  1.0970
 7047TIP3   OH242775   0.343   6.586   7.857  0.1875  0.5632  0.3088
 7047TIP3    H142776   0.337   6.495   7.885  0.1434  0.6986  0.7433
 7047TIP3    H242777   0.412   6.624   7.911  1.3997  0.3638 -1.0249
 7048TIP3   OH242778   1.618   5.507   7.450 -0.4276  0.1140 -0.3684
 7048TIP3    H142779   1.612   5.495   7.545 -0.9206  0.5053 -0.3447
 7048TIP3    H242780   1.534   5.546   7.425  0.4885  2.0086 -0.6611
 7049TIP3   OH242781   5.617   1.465   7.707 -0.2421  0.0377  0.5571
 7049TIP3    H142782   5.688   1.529   7.716  0.6537 -0.5384 -1.6568
 7049TIP3    H242783   5.638   1.418   7.626 -1.7275 -1.9849  1.2723
 7050TIP3   OH242784   6.066   3.628   1.404 -0.1219  0.3203  0.7513
 7050TIP3    H142785   6.079   3.683   1.482  0.6397  1.8581 -0.3993
 7050TIP3    H242786   5.971   3.619   1.398 -0.1680 -1.8862  3.1745
 7051TIP3   OH242787   1.333   6.573   7.112  0.0463 -0.4689  0.1273
 7051TIP3    H142788   1.300   6.650   7.159 -1.3833 -0.7996 -0.2787
 7051TIP3    H242789   1.423   6.595   7.089  0.1261  0.5010  1.2623
 7052TIP3   OH242790   3.460   5.674   8.548  0.0475  0.1043 -0.4644
 7052TIP3    H142791   3.434   5.646   8.460  0.0208  0.1627 -0.4751
 7052TIP3    H242792   3.553   5.652   8.554  0.0313  0.0299 -0.4789
 7053TIP3   OH242793   4.500   0.087   7.180  0.2197  0.8116  0.5669
 7053TIP3    H142794   4.539   0.042   7.106 -3.6086 -1.6841 -0.1959
 7053TIP3    H242795   4.469   0.171   7.144 -2.4930 -0.7781 -1.1399
 7054TIP3   OH242796   2.842   2.250   0.127  0.0970  0.0196  0.6843
 7054TIP3    H142797   2.904   2.299   0.073 -0.7159 -0.7395 -1.0284
 7054TIP3    H242798   2.790   2.318   0.171  0.9720  0.6589  0.7612
 7055TIP3   OH242799   0.956   0.055   0.175  0.5147 -0.1850  0.0137
 7055TIP3    H142800   0.912   0.115   0.235  0.4270 -1.3175  1.1129
 7055TIP3    H242801   0.936   0.089   0.088 -2.2860 -0.4640  0.4649
 7056TIP3   OH242802   2.683   5.614   1.207 -0.0417 -0.3607 -0.2340
 7056TIP3    H142803   2.707   5.606   1.299 -1.9096 -1.1946  0.2288
 7056TIP3    H242804   2.764   5.592   1.160  1.3651  1.4805  1.1338
 7057TIP3   OH242805   0.529   6.457   7.654  0.1820 -0.2771 -0.1258
 7057TIP3    H142806   0.507   6.484   7.565  2.3544 -1.1663 -1.0042
 7057TIP3    H242807   0.588   6.525   7.686  0.4340 -0.6150  0.1350
 7058TIP3   OH242808   0.428   4.892   1.004  0.0416  0.0093 -0.3931
 7058TIP3    H142809   0.335   4.878   1.022 -0.0735  1.2899  0.1506
 7058TIP3    H242810   0.433   4.982   0.972  1.0689 -0.1172 -0.6301
 7059TIP3   OH242811   3.726   5.035   1.439  0.2640  0.3337 -0.4522
 7059TIP3    H142812   3.821   5.043   1.428  0.3996  0.0390  0.3506
 7059TIP3    H242813   3.707   4.944   1.415  0.4799 -0.1492  1.0832
 7060TIP3   OH242814   4.207   2.047   0.067 -0.1390  0.2684 -0.0945
 7060TIP3    H142815   4.184   2.139   0.074  0.6222  0.4304  0.4476
 7060TIP3    H242816   4.239   2.037  -0.023  0.7357  0.7712  0.1475
 7061TIP3   OH242817   6.118   1.242   6.618  0.1395  0.2401  0.6632
 7061TIP3    H142818   6.134   1.232   6.712 -0.7096  0.8696  0.8896
 7061TIP3    H242819   6.159   1.326   6.596  0.6542 -0.0787  0.3852
 7062TIP3   OH242820   6.253   2.330   8.614  0.4146 -0.3200 -0.0386
 7062TIP3    H142821   6.279   2.387   8.686 -0.0659 -0.1501  0.0017
 7062TIP3    H242822   6.255   2.386   8.536  0.7048 -0.4460 -0.1262
 7063TIP3   OH242823   3.257   2.249   8.417  0.4876  0.1331  0.0455
 7063TIP3    H142824   3.223   2.191   8.485  0.0501  1.3903  0.9331
 7063TIP3    H242825   3.206   2.329   8.426  1.0614  0.6534 -1.1674
 7064TIP3   OH242826   4.944   1.133   1.524 -0.0240 -0.4543  0.4755
 7064TIP3    H142827   5.036   1.159   1.526 -0.5565  1.5902  1.4859
 7064TIP3    H242828   4.905   1.180   1.597 -1.8397 -1.4428  0.1842
 7065TIP3   OH242829   2.391   1.476   7.824 -0.6037  0.0955  0.0151
 7065TIP3    H142830   2.482   1.444   7.825 -0.5669  0.0996  2.3363
 7065TIP3    H242831   2.354   1.438   7.744  1.6169  0.7041 -1.4050
 7066TIP3   OH242832   0.899   0.300   1.113  0.1998  0.4126 -0.3714
 7066TIP3    H142833   0.885   0.258   1.198 -0.8324 -0.8748 -1.1498
 7066TIP3    H242834   0.993   0.295   1.099  0.8026  2.9686  1.8217
 7067TIP3   OH242835   2.643   1.146   7.441  0.8955 -0.1858  0.1888
 7067TIP3    H142836   2.684   1.130   7.526  0.4175 -0.9170  0.2932
 7067TIP3    H242837   2.586   1.070   7.428 -1.0038  1.1423  0.4019
 7068TIP3   OH242838   4.765   2.533   1.384 -0.1505 -0.0088  0.2344
 7068TIP3    H142839   4.786   2.467   1.319  0.2135 -0.3529  0.6988
 7068TIP3    H242840   4.672   2.518   1.403 -0.4041  0.4498 -0.6020
 7069TIP3   OH242841   4.546   2.666   1.191 -0.1598 -0.5641  0.3357
 7069TIP3    H142842   4.614   2.610   1.155 -0.7522 -3.1199  2.7902
 7069TIP3    H242843   4.466   2.638   1.146 -0.2118 -0.4717  0.3705
 7070TIP3   OH242844   2.557   3.209   7.685  0.6446 -0.0030 -0.0759
 7070TIP3    H142845   2.515   3.290   7.656  1.5246  0.3319 -0.4533
 7070TIP3    H242846   2.645   3.213   7.648  0.4493 -1.5257 -0.8021
 7071TIP3   OH242847   3.171   1.576   7.854  0.0233 -0.1518  0.7351
 7071TIP3    H142848   3.101   1.598   7.793 -0.3295 -0.2578  1.1004
 7071TIP3    H242849   3.227   1.655   7.856 -0.2008  0.0105  0.6081
 7072TIP3   OH242850   2.666   3.179   1.990 -0.0815 -0.2144  0.3550
 7072TIP3    H142851   2.702   3.135   1.914 -0.7983 -1.7636  0.8846
 7072TIP3    H242852   2.620   3.255   1.955  0.8898 -0.0494 -0.6013
 7073TIP3   OH242853   2.164   2.930   0.544  0.2303 -0.0532 -0.2450
 7073TIP3    H142854   2.174   2.869   0.471  0.9934  1.0698 -1.1171
 7073TIP3    H242855   2.106   2.998   0.510 -0.5705 -0.2465  0.6959
 7074TIP3   OH242856   1.612   3.477   7.646 -0.0147  0.3026 -0.2130
 7074TIP3    H142857   1.672   3.404   7.630  0.2264  0.1018  1.4999
 7074TIP3    H242858   1.526   3.442   7.624 -0.0109 -0.8067  1.3853
 7075TIP3   OH242859   0.756   1.846   1.137 -0.1054 -0.0852 -0.2161
 7075TIP3    H142860   0.846   1.816   1.125 -0.0318  1.1219 -4.3766
 7075TIP3    H242861   0.763   1.942   1.144 -1.0225 -0.0483  0.3876
 7076TIP3   OH242862   0.243   3.684   0.070  0.8814 -0.3025 -0.2076
 7076TIP3    H142863   0.197   3.720  -0.006  0.2507 -0.3007  0.1689
 7076TIP3    H242864   0.332   3.666   0.038  0.4244 -0.9672 -1.1385
 7077TIP3   OH242865   6.484   1.511   7.868 -0.1676 -0.5398  0.4430
 7077TIP3    H142866   6.479   1.552   7.782 -1.1785 -0.2308  0.6378
 7077TIP3    H242867   6.563   1.549   7.908  0.2871 -0.6625 -0.3223
 7078TIP3   OH242868   3.062   3.171   8.622 -0.1758  0.1534 -0.2094
 7078TIP3    H142869   3.029   3.155   8.533  0.6439  1.6124 -0.8135
 7078TIP3    H242870   3.126   3.242   8.611  0.8088 -0.4346  1.3785
 7079TIP3   OH242871   5.168   3.645   8.228  0.2042  0.1048  0.5246
 7079TIP3    H142872   5.219   3.597   8.163  0.4390  1.5607 -0.4239
 7079TIP3    H242873   5.158   3.584   8.301  2.4231 -0.5864  0.3246
 7080TIP3   OH242874   2.437   1.318   1.585  0.1516 -0.8455  0.3865
 7080TIP3    H142875   2.453   1.224   1.590  0.0076 -0.9648 -1.0933
 7080TIP3    H242876   2.357   1.326   1.533 -0.3888  0.0686  1.3212
 7081TIP3   OH242877   5.431   5.996   0.842 -0.3645  0.6076 -0.0638
 7081TIP3    H142878   5.512   5.948   0.826 -1.3452 -0.7174 -1.3935
 7081TIP3    H242879   5.460   6.083   0.870  1.5442  0.4875 -1.4140
 7082TIP3   OH242880   5.179   5.562   0.624 -0.2955 -0.2109 -0.3357
 7082TIP3    H142881   5.259   5.539   0.578 -0.5204  0.1176 -0.8913
 7082TIP3    H242882   5.189   5.522   0.711  0.4827 -0.1292 -0.3870
 7083TIP3   OH242883   6.197   4.643   1.171  0.5011 -0.2410  0.1513
 7083TIP3    H142884   6.150   4.590   1.236 -1.5830  0.5057 -0.6554
 7083TIP3    H242885   6.187   4.733   1.202  1.4742 -0.0509 -0.0375
 7084TIP3   OH242886   0.363   1.433   1.897 -0.6254 -0.4362 -0.1944
 7084TIP3    H142887   0.408   1.516   1.914 -0.1473  0.0870 -3.4674
 7084TIP3    H242888   0.288   1.434   1.957  0.8240  1.0440  1.7598
 7085TIP3   OH242889   4.556   0.150   6.806  0.5360 -0.2066 -0.1167
 7085TIP3    H142890   4.483   0.210   6.792  1.1277  0.3215 -1.0318
 7085TIP3    H242891   4.526   0.066   6.772  0.0594 -0.2031  0.2830
 7086TIP3   OH242892   5.349   5.902   8.767 -0.2177 -0.4818  0.1870
 7086TIP3    H142893   5.289   5.959   8.719 -1.9003 -3.4256 -1.4977
 7086TIP3    H242894   5.331   5.921   8.859 -0.7537  1.5904 -0.2920
 7087TIP3   OH242895   0.665   2.015   0.752  0.1622  0.1503 -0.3158
 7087TIP3    H142896   0.609   1.978   0.683 -0.6006  0.1156  0.3065
 7087TIP3    H242897   0.703   1.939   0.795  1.0475  0.1818 -1.0097
 7088TIP3   OH242898   6.383   6.143   8.681  0.9216  0.0149  0.5714
 7088TIP3    H142899   6.475   6.165   8.669  0.7655  0.8795  0.9207
 7088TIP3    H242900   6.337   6.227   8.680 -0.1288 -0.4868 -1.7090
 7089TIP3   OH242901   1.686   6.120   7.784 -0.0107  0.2942  0.0271
 7089TIP3    H142902   1.591   6.121   7.793  0.0220  0.8239  0.3568
 7089TIP3    H242903   1.718   6.098   7.871  0.1462 -1.1306 -0.3643
 7090TIP3   OH242904   2.019   1.174   8.767  0.0142  0.0064  0.0786
 7090TIP3    H142905   1.967   1.211   8.839 -1.5831  1.4820 -1.7478
 7090TIP3    H242906   1.987   1.084   8.759 -0.0333 -0.0701  0.9880
 7091TIP3   OH242907   3.156   2.816   2.167 -0.1177 -0.0369  0.0726
 7091TIP3    H142908   3.218   2.853   2.104  1.7139  1.8006  2.7590
 7091TIP3    H242909   3.071   2.848   2.138  0.8667  2.2784 -0.5498
 7092TIP3   OH242910   0.369   4.666   0.778 -0.8778  0.2165  0.1019
 7092TIP3    H142911   0.330   4.660   0.865  0.4188 -1.1924  0.6235
 7092TIP3    H242912   0.394   4.576   0.757  1.7656  0.9813 -0.3426
 7093TIP3   OH242913   0.863   5.510   0.969  0.3349  0.4365  0.7727
 7093TIP3    H142914   0.788   5.543   1.019  0.7092 -1.8008  3.0182
 7093TIP3    H242915   0.934   5.505   1.033  1.8336  0.5447 -0.8165
 7094TIP3   OH242916   2.220   1.858   6.400 -0.3556 -0.1983  0.0877
 7094TIP3    H142917   2.138   1.810   6.408 -0.4841  0.3558  2.7630
 7094TIP3    H242918   2.205   1.940   6.445  1.9908 -0.5721  1.7265
 7095TIP3   OH242919   3.034   0.414   7.795 -0.3346  0.2135  0.5521
 7095TIP3    H142920   3.077   0.472   7.733 -1.6479 -1.0172 -1.6375
 7095TIP3    H242921   3.103   0.385   7.854  0.8989  1.6766 -0.1164
 7096TIP3   OH242922   3.166   0.767   0.062 -0.1591  0.0517 -0.1403
 7096TIP3    H142923   3.219   0.843   0.087 -0.1904  0.6640 -1.7801
 7096TIP3    H242924   3.101   0.759   0.131  2.9487 -1.7748  2.9029
 7097TIP3   OH242925   5.857   4.525   8.835  0.3568  0.0920  0.2429
 7097TIP3    H142926   5.890   4.612   8.814  0.2032  0.1694  0.3201
 7097TIP3    H242927   5.796   4.539   8.908  1.0193 -0.2021  0.8649
 7098TIP3   OH242928   2.936   3.627   0.940 -0.1813 -0.2677  0.5615
 7098TIP3    H142929   2.947   3.597   0.849 -1.3515  1.5062 -0.2123
 7098TIP3    H242930   3.016   3.675   0.959  0.1683 -0.8388  0.5691
 7099TIP3   OH242931   4.353   0.569   6.580 -0.1644  0.4314  0.1213
 7099TIP3    H142932   4.310   0.542   6.499  0.4046  0.7754 -0.3050
 7099TIP3    H242933   4.445   0.544   6.568  0.1691  1.5608  0.1585
 7100TIP3   OH242934   1.101   6.779   1.234 -0.6015  0.7233  0.4872
 7100TIP3    H142935   1.196   6.783   1.239 -0.7104  2.9874  1.5195
 7100TIP3    H242936   1.083   6.689   1.205  1.8846  0.7457 -1.5340
 7101TIP3   OH242937   1.447   4.366   6.652 -0.2591 -0.5148  0.0413
 7101TIP3    H142938   1.404   4.309   6.716  2.6900 -0.8111  1.9256
 7101TIP3    H242939   1.505   4.308   6.603 -0.4110  0.1950 -1.0176
 7102TIP3   OH242940   3.835   5.460   8.344  0.2642 -0.5317  0.0248
 7102TIP3    H142941   3.792   5.477   8.261 -2.0567  0.3399  1.3204
 7102TIP3    H242942   3.820   5.367   8.361 -1.8007 -0.0961  0.7770
 7103TIP3   OH242943   4.330   1.124   8.380  0.2078 -0.0834 -0.0323
 7103TIP3    H142944   4.399   1.067   8.413  0.4074  0.6046  0.7939
 7103TIP3    H242945   4.298   1.171   8.458 -2.1882 -1.3967 -0.1264
 7104TIP3   OH242946   4.916   5.260   0.518 -0.5792 -0.6023  0.2912
 7104TIP3    H142947   4.995   5.219   0.552  2.4123  1.7902 -3.0472
 7104TIP3    H242948   4.869   5.291   0.596  2.2427 -1.2509  2.4132
 7105TIP3   OH242949   2.835   4.337   8.096  0.6616  0.0786  0.3675
 7105TIP3    H142950   2.897   4.314   8.026  1.5670 -0.8717  1.4421
 7105TIP3    H242951   2.873   4.299   8.175 -1.2534 -0.4801  1.0911
 7106TIP3   OH242952   1.313   3.001   7.029 -0.0020  0.0830  0.3527
 7106TIP3    H142953   1.240   3.059   7.010  0.4848  1.2843  1.8849
 7106TIP3    H242954   1.379   3.022   6.962 -0.5012  0.0318 -0.1563
 7107TIP3   OH242955   2.692   1.445   2.678  0.7580 -0.0126  0.1066
 7107TIP3    H142956   2.639   1.437   2.599  3.0227 -0.4957 -1.4745
 7107TIP3    H242957   2.730   1.357   2.691  1.0746  0.2713  1.2356
 7108TIP3   OH242958   5.937   4.963   0.303 -0.8249 -0.1065 -0.5872
 7108TIP3    H142959   5.878   4.921   0.366 -2.3931  2.9208  0.1242
 7108TIP3    H242960   5.907   4.932   0.218 -0.8087 -1.6836 -0.0579
 7109TIP3   OH242961   6.701   3.238   1.682  0.6859  0.3410 -1.0099
 7109TIP3    H142962   6.791   3.218   1.707  0.3882  0.0760 -0.1246
 7109TIP3    H242963   6.659   3.153   1.671  0.6005  0.4607 -1.6601
 7110TIP3   OH242964   6.371   0.637   1.167 -0.4085  0.0321  0.1087
 7110TIP3    H142965   6.312   0.594   1.104  0.2244 -0.7407  0.0344
 7110TIP3    H242966   6.335   0.726   1.176 -1.2761 -0.2625 -0.3338
 7111TIP3   OH242967   4.069   6.188   2.024 -0.0616  0.8812 -0.5457
 7111TIP3    H142968   4.035   6.277   2.024 -0.4350  0.7429 -1.2256
 7111TIP3    H242969   4.086   6.168   2.116 -0.3789  1.4989 -0.3558
 7112TIP3   OH242970   0.154   4.307   0.812 -0.0260 -0.5211  0.2765
 7112TIP3    H142971   0.077   4.302   0.756 -0.0805  0.9636  0.1757
 7112TIP3    H242972   0.227   4.286   0.754  0.0119  1.8293 -0.6524
 7113TIP3   OH242973   6.519   2.326   0.032  0.3727  0.2109 -0.2253
 7113TIP3    H142974   6.467   2.400   0.002  0.6575  0.7717  0.6136
 7113TIP3    H242975   6.484   2.251  -0.014  0.2372  0.9057 -1.2848
 7114TIP3   OH242976   4.885   5.777   7.993 -0.6578  0.0879  0.0583
 7114TIP3    H142977   4.933   5.696   7.976  0.9675  0.6841  1.4690
 7114TIP3    H242978   4.822   5.754   8.061 -1.5378 -0.4104 -0.9045
 7115TIP3   OH242979   4.239   2.335   0.059  0.1636  0.3223  0.3390
 7115TIP3    H142980   4.326   2.362   0.029  0.7872 -0.4570  1.3794
 7115TIP3    H242981   4.233   2.368   0.149 -0.4762  0.0780  0.3921
 7116TIP3   OH242982   0.274   5.779   7.086 -1.2356 -0.0220 -0.2948
 7116TIP3    H142983   0.216   5.743   7.020 -0.2190  1.6037 -2.1835
 7116TIP3    H242984   0.217   5.828   7.145 -2.1546 -1.4664  0.0407
 7117TIP3   OH242985   3.525   4.140   0.964 -0.2390 -0.2281 -0.2670
 7117TIP3    H142986   3.525   4.127   1.059 -1.8094  0.9087 -0.0731
 7117TIP3    H242987   3.450   4.197   0.947  0.1847 -0.1524 -2.1684
 7118TIP3   OH242988   4.143   2.952   0.873  0.1390  0.3157  0.4304
 7118TIP3    H142989   4.127   2.862   0.845 -0.2627  0.7030 -0.6209
 7118TIP3    H242990   4.180   2.943   0.961  1.2476 -0.9238 -0.1344
 7119TIP3   OH242991   4.712   6.782   8.206 -0.6168  0.4071 -0.0310
 7119TIP3    H142992   4.729   6.776   8.300 -0.1845  0.3916 -0.1111
 7119TIP3    H242993   4.617   6.790   8.200 -0.8537 -1.6387  0.3140
 7120TIP3   OH242994   4.683   0.913   8.706  0.1716  0.0539  0.2966
 7120TIP3    H142995   4.714   0.823   8.704  1.1196  0.3533  0.9019
 7120TIP3    H242996   4.763   0.966   8.709 -0.3186  0.9839 -1.4933
 7121TIP3   OH242997   5.868   0.921   7.734 -0.8012 -0.1018  0.6317
 7121TIP3    H142998   5.797   0.969   7.777 -0.9333  1.4241 -1.1686
 7121TIP3    H242999   5.876   0.962   7.648 -0.4215 -2.8704 -0.7702
 7122TIP3   OH243000   3.183   2.146   7.182 -0.3713  0.4320  0.1663
 7122TIP3    H143001   3.197   2.239   7.200  1.2360  0.1655  0.4394
 7122TIP3    H243002   3.195   2.137   7.088 -1.7961  0.6751 -0.0690
 7123TIP3   OH243003   0.452   2.239   7.230 -0.1512 -0.2997  0.1738
 7123TIP3    H143004   0.429   2.160   7.182  0.3470 -0.9502  0.9710
 7123TIP3    H243005   0.392   2.242   7.304 -0.9159  0.6959 -0.4621
 7124TIP3   OH243006   2.664   0.516   0.850 -0.7388 -0.4269  0.4708
 7124TIP3    H143007   2.611   0.520   0.770  1.0987  1.8971 -0.7310
 7124TIP3    H243008   2.731   0.450   0.832 -0.3232  0.0991  0.0680
 7125TIP3   OH243009   3.504   4.964   7.963  0.1463 -0.4982 -0.2670
 7125TIP3    H143010   3.485   5.046   7.919 -2.6323  0.1749  1.8544
 7125TIP3    H243011   3.439   4.902   7.929 -1.0208 -0.3828  1.6066
 7126TIP3   OH243012   3.499   4.861   7.678 -0.0408 -0.0420 -0.0011
 7126TIP3    H143013   3.511   4.802   7.752  0.7380 -0.6392 -0.5747
 7126TIP3    H243014   3.409   4.847   7.650 -0.5481  0.6803  1.2303
 7127TIP3   OH243015   0.783   1.296   7.853  0.4174  0.5159 -0.0379
 7127TIP3    H143016   0.741   1.382   7.841 -0.9717 -0.0600  0.4496
 7127TIP3    H243017   0.872   1.308   7.820  0.5529  2.3950  0.8771
 7128TIP3   OH243018   4.451   0.822   6.773  0.6110  0.1431  0.0677
 7128TIP3    H143019   4.408   0.885   6.716  0.5711 -1.0875 -1.3393
 7128TIP3    H243020   4.384   0.797   6.836  0.6819  1.6003  0.7684
 7129TIP3   OH243021   5.966   5.779   8.262 -0.2421  0.5861 -0.2619
 7129TIP3    H143022   6.006   5.767   8.349 -1.6063 -0.1441  0.2937
 7129TIP3    H243023   6.040   5.776   8.202  0.6312  0.0349  0.7929
 7130TIP3   OH243024   1.345   2.334   7.077 -0.2713 -0.2675 -0.0181
 7130TIP3    H143025   1.342   2.411   7.134 -1.9728  1.7530 -2.6481
 7130TIP3    H243026   1.261   2.291   7.090 -0.1162 -0.5718 -0.0109
 7131TIP3   OH243027   2.925   5.742   8.215  0.0407  0.3754  0.2670
 7131TIP3    H143028   2.955   5.792   8.139  2.0813 -1.5079 -0.2573
 7131TIP3    H243029   2.996   5.680   8.233 -1.0301 -0.2485  2.8111
 7132TIP3   OH243030   2.449   0.628   1.145  0.6942 -0.1329  0.4693
 7132TIP3    H143031   2.446   0.533   1.143  0.4472 -0.1144 -0.5366
 7132TIP3    H243032   2.404   0.652   1.226  2.4622 -0.9154  1.7482
 7133TIP3   OH243033   3.945   2.482   2.030 -0.1335  0.2760 -0.0469
 7133TIP3    H143034   3.941   2.393   2.066 -1.5582  0.1798 -0.3644
 7133TIP3    H243035   4.002   2.530   2.090 -1.5364 -0.1715  1.7660
 7134TIP3   OH243036   1.715   5.752   7.338 -0.5495 -0.2899  0.0481
 7134TIP3    H143037   1.659   5.767   7.261 -0.8769  1.2260  0.5482
 7134TIP3    H243038   1.694   5.663   7.366 -2.0158 -0.0954 -0.3503
 7135TIP3   OH243039   1.528   2.332   7.943 -0.2483 -0.7432 -0.1611
 7135TIP3    H143040   1.459   2.305   8.004 -0.6750  0.0155 -0.2934
 7135TIP3    H243041   1.601   2.359   7.998 -0.0923 -1.4411 -0.0172
 7136TIP3   OH243042   6.625   5.966   0.793 -0.4999 -0.2521 -0.7241
 7136TIP3    H143043   6.620   6.046   0.740 -0.3874  0.6427  0.5478
 7136TIP3    H243044   6.545   5.919   0.772 -1.3149  0.9352 -0.4369
 7137TIP3   OH243045   6.171   0.560   1.000 -0.7530  0.3266 -0.1066
 7137TIP3    H143046   6.084   0.592   0.977 -1.4245 -0.8964  0.5874
 7137TIP3    H243047   6.220   0.562   0.918 -2.1894 -1.2590 -1.0829
 7138TIP3   OH243048   2.339   6.212   1.847 -0.0499 -0.1314  0.2019
 7138TIP3    H143049   2.275   6.170   1.905 -0.5435  0.3242 -0.0086
 7138TIP3    H243050   2.423   6.191   1.887 -0.1175 -3.0030 -0.9602
 7139TIP3   OH243051   6.499   0.622   7.616 -0.6736 -0.3676  0.5137
 7139TIP3    H143052   6.412   0.662   7.612 -0.3835  0.5751  2.3232
 7139TIP3    H243053   6.482   0.530   7.635 -1.2832 -0.4468 -0.3527
 7140TIP3   OH243054   1.067   1.373   1.206  0.4323 -0.0466 -0.1950
 7140TIP3    H143055   1.154   1.404   1.231  0.1103  0.5897  0.1721
 7140TIP3    H243056   1.025   1.349   1.289  0.3033 -0.4692 -0.3807
 7141TIP3   OH243057   6.562   1.211   8.391 -0.5743  0.4601  0.1068
 7141TIP3    H143058   6.497   1.193   8.459 -1.9715 -1.3391 -1.5628
 7141TIP3    H243059   6.627   1.141   8.402 -0.0481  0.9940  0.4367
 7142TIP3   OH243060   6.118   5.492   7.515  0.0673  0.4985 -1.0892
 7142TIP3    H143061   6.119   5.587   7.532 -2.2290  0.5181 -0.7804
 7142TIP3    H243062   6.090   5.485   7.424 -0.5474  0.1069 -0.8712
 7143TIP3   OH243063   4.932   4.622   7.343  0.1534  0.5459 -0.1450
 7143TIP3    H143064   4.935   4.674   7.262 -0.8689  2.2165  0.8283
 7143TIP3    H243065   4.952   4.685   7.412  4.5470 -1.4885  0.7766
 7144TIP3   OH243066   5.399   3.662   0.021 -0.1667 -0.1602  0.4060
 7144TIP3    H143067   5.306   3.680   0.014  0.0419  0.7038 -0.4167
 7144TIP3    H243068   5.432   3.671  -0.069  0.4330 -2.0999  0.3920
 7145TIP3   OH243069   0.121   0.783   7.137  0.1323  0.2715 -0.1992
 7145TIP3    H143070   0.138   0.795   7.044 -0.5096  1.2153 -0.2187
 7145TIP3    H243071   0.028   0.804   7.147  0.4548  1.3573  0.8188
 7146TIP3   OH243072   2.268   3.619   7.981 -0.4862  0.0983  0.1698
 7146TIP3    H143073   2.236   3.642   8.068 -0.8788  2.9488 -0.6431
 7146TIP3    H243074   2.360   3.643   7.982 -0.5717  0.4548 -0.2846
 7147TIP3   OH243075   0.850   6.125   1.390  0.3573  0.5079  0.0696
 7147TIP3    H143076   0.870   6.064   1.461  1.5715  0.9169  0.0954
 7147TIP3    H243077   0.786   6.079   1.336 -0.0436 -0.0942  1.0324
 7148TIP3   OH243078   4.113   0.723   6.921 -0.0344 -0.1716  0.3342
 7148TIP3    H143079   4.125   0.723   6.826  0.1491  1.0774  0.3465
 7148TIP3    H243080   4.091   0.813   6.943 -0.4892 -0.5338  1.4369
 7149TIP3   OH243081   0.797   5.630   6.337  0.1333  0.0164 -0.5195
 7149TIP3    H143082   0.810   5.537   6.357 -1.1459 -0.2957 -1.0357
 7149TIP3    H243083   0.863   5.675   6.390  0.8270 -1.1819 -0.3235
 7150TIP3   OH243084   0.630   1.997   2.300 -0.5830  0.0491 -0.1695
 7150TIP3    H143085   0.620   1.902   2.314 -0.0015  0.0208  0.0829
 7150TIP3    H243086   0.570   2.037   2.362 -0.5926 -0.1508 -0.0499
 7151TIP3   OH243087   6.544   1.871   0.078 -0.0401 -0.8820  0.3320
 7151TIP3    H143088   6.501   1.952   0.052 -1.8864 -1.1548  2.2057
 7151TIP3    H243089   6.622   1.865   0.023  0.5573  2.5014  0.6092
 7152TIP3   OH243090   0.966   4.818   0.597 -0.0161 -0.2275 -0.3839
 7152TIP3    H143091   0.977   4.905   0.635  1.0100 -0.2018 -0.6883
 7152TIP3    H243092   0.885   4.785   0.634 -1.0151  1.2859 -1.1029
 7153TIP3   OH243093   2.899   0.054   7.179  0.1070  0.1622  0.4953
 7153TIP3    H143094   2.839   0.121   7.214  0.3255 -0.3876  2.0245
 7153TIP3    H243095   2.986   0.087   7.199  0.2469 -0.0979  0.3209
 7154TIP3   OH243096   0.839   4.599   0.083  0.2191  0.7974 -0.0959
 7154TIP3    H143097   0.763   4.624   0.136  1.0073 -0.7737  1.9107
 7154TIP3    H243098   0.898   4.674   0.090 -1.3609  2.3943 -2.3590
 7155TIP3   OH243099   0.014   1.877   1.705 -0.5079  0.1169  0.5784
 7155TIP3    H143100   0.031   1.970   1.719  0.6108 -0.0235  0.2830
 7155TIP3    H243101  -0.058   1.874   1.643 -1.2263  0.7723  1.3515
 7156TIP3   OH243102   3.510   3.996   7.527 -0.3430 -0.5788  0.2339
 7156TIP3    H143103   3.487   3.986   7.620  0.7951  1.0840  0.7416
 7156TIP3    H243104   3.472   3.919   7.485 -1.2452 -1.1719  2.0056
 7157TIP3   OH243105   3.826   1.240   8.562 -0.1889 -0.2835  0.0375
 7157TIP3    H143106   3.889   1.268   8.495 -0.7393  0.2413 -0.2658
 7157TIP3    H243107   3.876   1.240   8.644  0.1971  0.1578 -0.1963
 7158TIP3   OH243108   2.035   1.707   1.595 -0.3122  0.6846 -0.0066
 7158TIP3    H143109   2.095   1.647   1.551 -0.1804  1.9098 -1.5818
 7158TIP3    H243110   2.063   1.794   1.568 -1.6737  1.3835  0.6933
 7159TIP3   OH243111   5.016   6.212   1.444  0.1340 -0.4730 -0.7220
 7159TIP3    H143112   5.064   6.251   1.371 -0.1501 -0.9561 -1.1696
 7159TIP3    H243113   5.070   6.232   1.521 -0.6804  2.0522 -0.7012
 7160TIP3   OH243114   4.733   3.833   8.545  0.1183 -0.7619  0.8275
 7160TIP3    H143115   4.654   3.835   8.598 -0.5374 -0.6566 -0.1299
 7160TIP3    H243116   4.740   3.921   8.508  1.2060 -0.4876  1.6344
 7161TIP3   OH243117   2.421   6.369   7.262 -0.1477  0.0016  0.3239
 7161TIP3    H143118   2.507   6.356   7.302 -0.6115 -0.3536  1.2346
 7161TIP3    H243119   2.359   6.356   7.334 -0.9257  1.1574 -0.1074
 7162TIP3   OH243120   4.178   4.103   6.466  0.3041  0.1235  1.0809
 7162TIP3    H143121   4.138   4.090   6.380  0.5191 -0.3208  1.0425
 7162TIP3    H243122   4.194   4.014   6.498  0.6949  0.2896  1.3579
 7163TIP3   OH243123   2.477   3.515   6.470  0.0553  0.1818 -0.4834
 7163TIP3    H143124   2.525   3.449   6.520 -1.3951 -1.3755 -1.0450
 7163TIP3    H243125   2.543   3.554   6.412  0.9903 -0.6219  0.0105
 7164TIP3   OH243126   3.383   1.047   1.217  0.3472  0.2811  0.2041
 7164TIP3    H143127   3.292   1.047   1.247  0.2034  1.6378 -0.1910
 7164TIP3    H243128   3.377   1.026   1.124  0.5103 -0.4302  0.3507
 7165TIP3   OH243129   5.315   5.566   0.235  0.5089 -0.2805  0.4758
 7165TIP3    H143130   5.316   5.483   0.187 -1.1959  0.7923 -1.6104
 7165TIP3    H243131   5.354   5.629   0.174 -0.5565  0.9039  0.9878
 7166TIP3   OH243132   6.763   6.749   1.391  0.0583  0.4168 -0.0055
 7166TIP3    H143133   6.811   6.683   1.341 -0.8826  1.0420 -1.8359
 7166TIP3    H243134   6.670   6.729   1.374 -0.3160  0.4423  1.8275
 7167TIP3   OH243135   1.900   4.449   1.105 -0.1295 -0.0124  0.5147
 7167TIP3    H143136   1.933   4.500   1.179 -0.4109  0.7185  0.1474
 7167TIP3    H243137   1.904   4.509   1.031 -2.0429  0.0283  0.4022
 7168TIP3   OH243138   0.298   5.658   7.685 -0.4255 -0.0435  0.0509
 7168TIP3    H143139   0.389   5.679   7.705 -0.4774  1.6255 -1.2532
 7168TIP3    H243140   0.300   5.567   7.657  0.8730  0.0270 -0.1463
 7169TIP3   OH243141   2.782   5.912   0.760  0.4422 -0.3979  0.1991
 7169TIP3    H143142   2.709   5.885   0.704 -0.0871 -0.6140  0.9814
 7169TIP3    H243143   2.751   5.991   0.804  1.1988  0.2996 -0.4849
 7170TIP3   OH243144   6.388   3.314   7.631  0.2156 -0.6985  0.1437
 7170TIP3    H143145   6.439   3.386   7.668  1.0081 -1.2879  0.2258
 7170TIP3    H243146   6.363   3.261   7.707 -0.0182 -0.7397  0.0412
 7171TIP3   OH243147   3.158   2.498   2.045 -0.1160 -0.2764  0.0951
 7171TIP3    H143148   3.177   2.578   2.094 -0.6554  0.4062 -0.7783
 7171TIP3    H243149   3.092   2.452   2.098  0.4781 -0.3450  0.7882
 7172TIP3   OH243150   1.765   6.809   8.537 -0.0424 -0.0870  0.1872
 7172TIP3    H143151   1.793   6.865   8.609 -2.5730  1.1480  0.3497
 7172TIP3    H243152   1.809   6.845   8.460 -0.3813  1.1221  0.5422
 7173TIP3   OH243153   4.842   5.317   1.021 -0.0939  0.0848  0.2702
 7173TIP3    H143154   4.774   5.319   1.089  0.6205  1.4216  0.9992
 7173TIP3    H243155   4.924   5.321   1.070  0.4222  1.8772 -0.6685
 7174TIP3   OH243156   1.665   2.589   8.573  1.1793  0.3167  0.0363
 7174TIP3    H143157   1.732   2.532   8.536  0.3295 -0.9565  0.3633
 7174TIP3    H243158   1.713   2.653   8.624  2.1423 -1.7662  1.9379
 7175TIP3   OH243159   6.611   3.969   8.387  0.1083  0.0709 -0.3297
 7175TIP3    H143160   6.629   4.052   8.343  1.7043 -0.1285 -0.1282
 7175TIP3    H243161   6.608   3.904   8.317  1.4103 -0.0569 -0.2970
 7176TIP3   OH243162   3.613   4.328   8.560 -0.2975 -0.3813  0.3310
 7176TIP3    H143163   3.613   4.344   8.654 -1.5811 -0.1193  0.3090
 7176TIP3    H243164   3.520   4.325   8.536 -0.0286 -1.6776 -0.7201
 7177TIP3   OH243165   1.878   0.051   8.279  0.1571  0.3600 -0.1699
 7177TIP3    H143166   1.938   0.125   8.284 -0.0727  0.5013  4.2620
 7177TIP3    H243167   1.935  -0.025   8.264  0.8076  1.0101 -1.0691
 7178TIP3   OH243168   4.207   1.962   0.745 -0.6926  0.6790 -0.4671
 7178TIP3    H143169   4.279   2.019   0.771 -0.0831  0.5191 -1.7212
 7178TIP3    H243170   4.184   1.914   0.825  1.0899  0.2050 -0.2002
 7179TIP3   OH243171   0.368   0.922   8.119 -1.0946  0.0936 -0.2745
 7179TIP3    H143172   0.396   0.832   8.106  2.5111  0.9798  0.1162
 7179TIP3    H243173   0.360   0.957   8.030  0.6947  0.1378 -0.4697
 7180TIP3   OH243174   5.614   5.463   2.715 -0.1342  0.3401  0.8151
 7180TIP3    H143175   5.639   5.524   2.785 -1.3269  1.2035  0.5162
 7180TIP3    H243176   5.628   5.513   2.635  1.8966 -0.8741  0.3303
 7181TIP3   OH243177   6.712   1.257   2.047  0.3117 -0.4223  0.1225
 7181TIP3    H143178   6.652   1.271   2.121  0.9087  1.2387  0.3433
 7181TIP3    H243179   6.673   1.185   1.997 -1.8204  0.5123  0.3379
 7182TIP3   OH243180   2.018   5.332   1.507  0.5812  0.2259 -0.6399
 7182TIP3    H143181   1.997   5.238   1.513 -0.7098  0.5291 -0.0682
 7182TIP3    H243182   1.981   5.359   1.423 -0.9768  0.6548  0.1459
 7183LIG      O43183   1.971   2.031   0.066 -0.4321 -0.2911  0.1480
 7183LIG     C143184   1.838   2.069   0.037 -0.1400 -0.1673  0.3620
 7183LIG     C243185   1.786   2.157   0.148  0.3598  0.0706 -0.6297
 7183LIG     C343186   1.829   2.131  -0.107 -0.2282  0.1546 -0.3089
 7183LIG     H143187   1.777   1.977   0.032 -0.3445  0.0156 -1.0320
 7183LIG     H243188   1.676   2.167   0.143  0.5572  2.0495 -3.9202
 7183LIG     H343189   1.830   2.258   0.141  1.7352 -0.4380  0.2483
 7183LIG     H443190   1.814   2.119   0.249 -3.6318  0.7490  0.9241
 7183LIG     H543191   1.882   2.062  -0.176 -0.7666 -1.3032  0.6941
 7183LIG     H643192   1.886   2.226  -0.102  1.3531 -0.7689 -0.0604
 7183LIG     H743193   1.720   2.137  -0.128 -0.5787  0.0393  1.3614
 7183LIG     H843194   1.963   1.978   0.146 -0.9377 -0.5657 -0.0736
   6.81069   6.81069   8.90455
